;
;   File g5dp_pamam.itp  was generated
;   By user: sairam (1000)
;   On host: sairam
;   At date: Wed. August  3 20:01:36 2023
;
;   This is a standalone topology file
;
;   Created by:
;   ParmEd:       amb2gro_top_gro.py, VERSION 3.4.1
;   Executable:   amb2gro_top_gro.py
;   Library dir:  /usr/local/gromacs/share/gromacs/top
;   Command line:
;     ./amb2gro_top_gro.py -p g5dp_pamam.prmtop -c g5dp_pamam.inpcrd -t g5dp_pamam.itp -g g5dp_pamam.gro -b g5dp_pamam.pdb
;

;[ defaults ]
;; nbfunc        comb-rule       gen-pairs       fudgeLJ fudgeQQ
;1               2               yes             0.5          0.83333333  
;
;[ atomtypes ]
;; name    at.num    mass    charge ptype  sigma      epsilon
;n4             7  14.010000  0.00000000  A     0.32499985        0.71128
;c3             6  12.010000  0.00000000  A     0.33996695      0.4577296
;c              6  12.010000  0.00000000  A     0.33996695       0.359824
;o              8  16.000000  0.00000000  A     0.29599219        0.87864
;hx             1   1.008000  0.00000000  A     0.19599772      0.0656888
;hc             1   1.008000  0.00000000  A     0.26495328      0.0656888
;hn             1   1.008000  0.00000000  A     0.10690785      0.0656888
;n              7  14.010000  0.00000000  A     0.32499985        0.71128
;h1             1   1.008000  0.00000000  A      0.2471353      0.0656888


[ moleculetype ]
; Name            nrexcl
g5dp_pamam       3

[ atoms ]
;   nr       type  resnr residue  atom   cgnr    charge       mass  typeB    chargeB      massB
; residue    1 aaa rtp aaa q 2.0
    1         n4      1    aaa     N1      1 -0.01815100  14.010000   ; qtot -0.018151
    2         c3      1    aaa     C1      2 0.01243000  12.010000   ; qtot -0.005721
    3         c3      1    aaa     C2      3 0.01243000  12.010000   ; qtot 0.006709
    4         n4      1    aaa     N2      4 -0.01815100  14.010000   ; qtot -0.011442
    5         c3      1    aaa     C3      5 -0.01431700  12.010000   ; qtot -0.025759
    6         c3      1    aaa     C4      6 -0.01431700  12.010000   ; qtot -0.040076
    7         c3      1    aaa     C5      7 -0.01431700  12.010000   ; qtot -0.054393
    8         c3      1    aaa     C6      8 -0.01431700  12.010000   ; qtot -0.068710
    9         c3      1    aaa     C7      9 -0.26758200  12.010000   ; qtot -0.336292
   10          c      1    aaa     C8     10 0.71337400  12.010000   ; qtot 0.377082
   11         c3      1    aaa     C9     11 -0.26758200  12.010000   ; qtot 0.109500
   12          c      1    aaa    C10     12 0.71337400  12.010000   ; qtot 0.822874
   13         c3      1    aaa    C11     13 -0.26758200  12.010000   ; qtot 0.555292
   14          c      1    aaa    C12     14 0.71337400  12.010000   ; qtot 1.268666
   15         c3      1    aaa    C13     15 -0.26758200  12.010000   ; qtot 1.001084
   16          c      1    aaa    C14     16 0.71337400  12.010000   ; qtot 1.714458
   17          o      1    aaa     O1     17 -0.55531800  16.000000   ; qtot 1.159140
   18          o      1    aaa     O2     18 -0.55531800  16.000000   ; qtot 0.603822
   19          o      1    aaa     O3     19 -0.55531800  16.000000   ; qtot 0.048504
   20          o      1    aaa     O4     20 -0.55531800  16.000000   ; qtot -0.506814
   21         hx      1    aaa     H1     21 0.08276100   1.008000   ; qtot -0.424053
   22         hx      1    aaa     H2     22 0.08276100   1.008000   ; qtot -0.341292
   23         hx      1    aaa     H3     23 0.08276100   1.008000   ; qtot -0.258531
   24         hx      1    aaa     H4     24 0.08276100   1.008000   ; qtot -0.175770
   25         hx      1    aaa     H5     25 0.10467000   1.008000   ; qtot -0.071100
   26         hx      1    aaa     H6     26 0.10467000   1.008000   ; qtot 0.033570
   27         hx      1    aaa     H7     27 0.10467000   1.008000   ; qtot 0.138240
   28         hx      1    aaa     H8     28 0.10467000   1.008000   ; qtot 0.242910
   29         hx      1    aaa     H9     29 0.10467000   1.008000   ; qtot 0.347580
   30         hx      1    aaa    H10     30 0.10467000   1.008000   ; qtot 0.452250
   31         hx      1    aaa    H11     31 0.10467000   1.008000   ; qtot 0.556920
   32         hx      1    aaa    H12     32 0.10467000   1.008000   ; qtot 0.661590
   33         hc      1    aaa    H13     33 0.11830200   1.008000   ; qtot 0.779892
   34         hc      1    aaa    H14     34 0.11830200   1.008000   ; qtot 0.898194
   35         hc      1    aaa    H15     35 0.11830200   1.008000   ; qtot 1.016496
   36         hc      1    aaa    H16     36 0.11830200   1.008000   ; qtot 1.134798
   37         hc      1    aaa    H17     37 0.11830200   1.008000   ; qtot 1.253100
   38         hc      1    aaa    H18     38 0.11830200   1.008000   ; qtot 1.371402
   39         hc      1    aaa    H19     39 0.11830200   1.008000   ; qtot 1.489704
   40         hc      1    aaa    H20     40 0.11830200   1.008000   ; qtot 1.608006
   41         hn      1    aaa    H37     41 0.19599700   1.008000   ; qtot 1.804003
   42         hn      1    aaa    H38     42 0.19599700   1.008000   ; qtot 2.000000
; residue    2 bbb rtp bbb q 1.0
   43         n4      2    bbb     N1     43 -0.02747900  14.010000   ; qtot 1.972521
   44         c3      2    bbb     C1     44 -0.05097600  12.010000   ; qtot 1.921545
   45         c3      2    bbb     C2     45 -0.05097600  12.010000   ; qtot 1.870569
   46         c3      2    bbb     C3     46 -0.18457900  12.010000   ; qtot 1.685990
   47          c      2    bbb     C4     47 0.67254400  12.010000   ; qtot 2.358534
   48         c3      2    bbb     C5     48 -0.18457900  12.010000   ; qtot 2.173955
   49          c      2    bbb     C6     49 0.67254400  12.010000   ; qtot 2.846499
   50         c3      2    bbb     C7     50 -0.02083000  12.010000   ; qtot 2.825669
   51         c3      2    bbb     C8     51 -0.03328100  12.010000   ; qtot 2.792388
   52          n      2    bbb     N2     52 -0.33303000  14.010000   ; qtot 2.459358
   53          o      2    bbb     O1     53 -0.52917200  16.000000   ; qtot 1.930186
   54          o      2    bbb     O2     54 -0.52917200  16.000000   ; qtot 1.401014
   55         hx      2    bbb     H1     55 0.11563300   1.008000   ; qtot 1.516647
   56         hx      2    bbb     H2     56 0.11563300   1.008000   ; qtot 1.632280
   57         hx      2    bbb     H3     57 0.11563300   1.008000   ; qtot 1.747913
   58         hx      2    bbb     H4     58 0.11563300   1.008000   ; qtot 1.863546
   59         hc      2    bbb     H5     59 0.08347900   1.008000   ; qtot 1.947025
   60         hc      2    bbb     H6     60 0.08347900   1.008000   ; qtot 2.030504
   61         hc      2    bbb     H7     61 0.08347900   1.008000   ; qtot 2.113983
   62         hc      2    bbb     H8     62 0.08347900   1.008000   ; qtot 2.197462
   63         hx      2    bbb     H9     63 0.07988000   1.008000   ; qtot 2.277342
   64         hx      2    bbb    H10     64 0.07988000   1.008000   ; qtot 2.357222
   65         h1      2    bbb    H11     65 0.10618100   1.008000   ; qtot 2.463403
   66         h1      2    bbb    H12     66 0.10618100   1.008000   ; qtot 2.569584
   67         hn      2    bbb    H13     67 0.25916100   1.008000   ; qtot 2.828745
   68         hn      2    bbb    H25     68 0.17125500   1.008000   ; qtot 3.000000
; residue    3 bbb rtp bbb q 1.0
   69         n4      3    bbb     N1     69 -0.02747900  14.010000   ; qtot 2.972521
   70         c3      3    bbb     C1     70 -0.05097600  12.010000   ; qtot 2.921545
   71         c3      3    bbb     C2     71 -0.05097600  12.010000   ; qtot 2.870569
   72         c3      3    bbb     C3     72 -0.18457900  12.010000   ; qtot 2.685990
   73          c      3    bbb     C4     73 0.67254400  12.010000   ; qtot 3.358534
   74         c3      3    bbb     C5     74 -0.18457900  12.010000   ; qtot 3.173955
   75          c      3    bbb     C6     75 0.67254400  12.010000   ; qtot 3.846499
   76         c3      3    bbb     C7     76 -0.02083000  12.010000   ; qtot 3.825669
   77         c3      3    bbb     C8     77 -0.03328100  12.010000   ; qtot 3.792388
   78          n      3    bbb     N2     78 -0.33303000  14.010000   ; qtot 3.459358
   79          o      3    bbb     O1     79 -0.52917200  16.000000   ; qtot 2.930186
   80          o      3    bbb     O2     80 -0.52917200  16.000000   ; qtot 2.401014
   81         hx      3    bbb     H1     81 0.11563300   1.008000   ; qtot 2.516647
   82         hx      3    bbb     H2     82 0.11563300   1.008000   ; qtot 2.632280
   83         hx      3    bbb     H3     83 0.11563300   1.008000   ; qtot 2.747913
   84         hx      3    bbb     H4     84 0.11563300   1.008000   ; qtot 2.863546
   85         hc      3    bbb     H5     85 0.08347900   1.008000   ; qtot 2.947025
   86         hc      3    bbb     H6     86 0.08347900   1.008000   ; qtot 3.030504
   87         hc      3    bbb     H7     87 0.08347900   1.008000   ; qtot 3.113983
   88         hc      3    bbb     H8     88 0.08347900   1.008000   ; qtot 3.197462
   89         hx      3    bbb     H9     89 0.07988000   1.008000   ; qtot 3.277342
   90         hx      3    bbb    H10     90 0.07988000   1.008000   ; qtot 3.357222
   91         h1      3    bbb    H11     91 0.10618100   1.008000   ; qtot 3.463403
   92         h1      3    bbb    H12     92 0.10618100   1.008000   ; qtot 3.569584
   93         hn      3    bbb    H13     93 0.25916100   1.008000   ; qtot 3.828745
   94         hn      3    bbb    H25     94 0.17125500   1.008000   ; qtot 4.000000
; residue    4 bbb rtp bbb q 1.0
   95         n4      4    bbb     N1     95 -0.02747900  14.010000   ; qtot 3.972521
   96         c3      4    bbb     C1     96 -0.05097600  12.010000   ; qtot 3.921545
   97         c3      4    bbb     C2     97 -0.05097600  12.010000   ; qtot 3.870569
   98         c3      4    bbb     C3     98 -0.18457900  12.010000   ; qtot 3.685990
   99          c      4    bbb     C4     99 0.67254400  12.010000   ; qtot 4.358534
  100         c3      4    bbb     C5    100 -0.18457900  12.010000   ; qtot 4.173955
  101          c      4    bbb     C6    101 0.67254400  12.010000   ; qtot 4.846499
  102         c3      4    bbb     C7    102 -0.02083000  12.010000   ; qtot 4.825669
  103         c3      4    bbb     C8    103 -0.03328100  12.010000   ; qtot 4.792388
  104          n      4    bbb     N2    104 -0.33303000  14.010000   ; qtot 4.459358
  105          o      4    bbb     O1    105 -0.52917200  16.000000   ; qtot 3.930186
  106          o      4    bbb     O2    106 -0.52917200  16.000000   ; qtot 3.401014
  107         hx      4    bbb     H1    107 0.11563300   1.008000   ; qtot 3.516647
  108         hx      4    bbb     H2    108 0.11563300   1.008000   ; qtot 3.632280
  109         hx      4    bbb     H3    109 0.11563300   1.008000   ; qtot 3.747913
  110         hx      4    bbb     H4    110 0.11563300   1.008000   ; qtot 3.863546
  111         hc      4    bbb     H5    111 0.08347900   1.008000   ; qtot 3.947025
  112         hc      4    bbb     H6    112 0.08347900   1.008000   ; qtot 4.030504
  113         hc      4    bbb     H7    113 0.08347900   1.008000   ; qtot 4.113983
  114         hc      4    bbb     H8    114 0.08347900   1.008000   ; qtot 4.197462
  115         hx      4    bbb     H9    115 0.07988000   1.008000   ; qtot 4.277342
  116         hx      4    bbb    H10    116 0.07988000   1.008000   ; qtot 4.357222
  117         h1      4    bbb    H11    117 0.10618100   1.008000   ; qtot 4.463403
  118         h1      4    bbb    H12    118 0.10618100   1.008000   ; qtot 4.569584
  119         hn      4    bbb    H13    119 0.25916100   1.008000   ; qtot 4.828745
  120         hn      4    bbb    H25    120 0.17125500   1.008000   ; qtot 5.000000
; residue    5 bbb rtp bbb q 1.0
  121         n4      5    bbb     N1    121 -0.02747900  14.010000   ; qtot 4.972521
  122         c3      5    bbb     C1    122 -0.05097600  12.010000   ; qtot 4.921545
  123         c3      5    bbb     C2    123 -0.05097600  12.010000   ; qtot 4.870569
  124         c3      5    bbb     C3    124 -0.18457900  12.010000   ; qtot 4.685990
  125          c      5    bbb     C4    125 0.67254400  12.010000   ; qtot 5.358534
  126         c3      5    bbb     C5    126 -0.18457900  12.010000   ; qtot 5.173955
  127          c      5    bbb     C6    127 0.67254400  12.010000   ; qtot 5.846499
  128         c3      5    bbb     C7    128 -0.02083000  12.010000   ; qtot 5.825669
  129         c3      5    bbb     C8    129 -0.03328100  12.010000   ; qtot 5.792388
  130          n      5    bbb     N2    130 -0.33303000  14.010000   ; qtot 5.459358
  131          o      5    bbb     O1    131 -0.52917200  16.000000   ; qtot 4.930186
  132          o      5    bbb     O2    132 -0.52917200  16.000000   ; qtot 4.401014
  133         hx      5    bbb     H1    133 0.11563300   1.008000   ; qtot 4.516647
  134         hx      5    bbb     H2    134 0.11563300   1.008000   ; qtot 4.632280
  135         hx      5    bbb     H3    135 0.11563300   1.008000   ; qtot 4.747913
  136         hx      5    bbb     H4    136 0.11563300   1.008000   ; qtot 4.863546
  137         hc      5    bbb     H5    137 0.08347900   1.008000   ; qtot 4.947025
  138         hc      5    bbb     H6    138 0.08347900   1.008000   ; qtot 5.030504
  139         hc      5    bbb     H7    139 0.08347900   1.008000   ; qtot 5.113983
  140         hc      5    bbb     H8    140 0.08347900   1.008000   ; qtot 5.197462
  141         hx      5    bbb     H9    141 0.07988000   1.008000   ; qtot 5.277342
  142         hx      5    bbb    H10    142 0.07988000   1.008000   ; qtot 5.357222
  143         h1      5    bbb    H11    143 0.10618100   1.008000   ; qtot 5.463403
  144         h1      5    bbb    H12    144 0.10618100   1.008000   ; qtot 5.569584
  145         hn      5    bbb    H13    145 0.25916100   1.008000   ; qtot 5.828745
  146         hn      5    bbb    H25    146 0.17125500   1.008000   ; qtot 6.000000
; residue    6 bbb rtp bbb q 1.0
  147         n4      6    bbb     N1    147 -0.02747900  14.010000   ; qtot 5.972521
  148         c3      6    bbb     C1    148 -0.05097600  12.010000   ; qtot 5.921545
  149         c3      6    bbb     C2    149 -0.05097600  12.010000   ; qtot 5.870569
  150         c3      6    bbb     C3    150 -0.18457900  12.010000   ; qtot 5.685990
  151          c      6    bbb     C4    151 0.67254400  12.010000   ; qtot 6.358534
  152         c3      6    bbb     C5    152 -0.18457900  12.010000   ; qtot 6.173955
  153          c      6    bbb     C6    153 0.67254400  12.010000   ; qtot 6.846499
  154         c3      6    bbb     C7    154 -0.02083000  12.010000   ; qtot 6.825669
  155         c3      6    bbb     C8    155 -0.03328100  12.010000   ; qtot 6.792388
  156          n      6    bbb     N2    156 -0.33303000  14.010000   ; qtot 6.459358
  157          o      6    bbb     O1    157 -0.52917200  16.000000   ; qtot 5.930186
  158          o      6    bbb     O2    158 -0.52917200  16.000000   ; qtot 5.401014
  159         hx      6    bbb     H1    159 0.11563300   1.008000   ; qtot 5.516647
  160         hx      6    bbb     H2    160 0.11563300   1.008000   ; qtot 5.632280
  161         hx      6    bbb     H3    161 0.11563300   1.008000   ; qtot 5.747913
  162         hx      6    bbb     H4    162 0.11563300   1.008000   ; qtot 5.863546
  163         hc      6    bbb     H5    163 0.08347900   1.008000   ; qtot 5.947025
  164         hc      6    bbb     H6    164 0.08347900   1.008000   ; qtot 6.030504
  165         hc      6    bbb     H7    165 0.08347900   1.008000   ; qtot 6.113983
  166         hc      6    bbb     H8    166 0.08347900   1.008000   ; qtot 6.197462
  167         hx      6    bbb     H9    167 0.07988000   1.008000   ; qtot 6.277342
  168         hx      6    bbb    H10    168 0.07988000   1.008000   ; qtot 6.357222
  169         h1      6    bbb    H11    169 0.10618100   1.008000   ; qtot 6.463403
  170         h1      6    bbb    H12    170 0.10618100   1.008000   ; qtot 6.569584
  171         hn      6    bbb    H13    171 0.25916100   1.008000   ; qtot 6.828745
  172         hn      6    bbb    H25    172 0.17125500   1.008000   ; qtot 7.000000
; residue    7 bbb rtp bbb q 1.0
  173         n4      7    bbb     N1    173 -0.02747900  14.010000   ; qtot 6.972521
  174         c3      7    bbb     C1    174 -0.05097600  12.010000   ; qtot 6.921545
  175         c3      7    bbb     C2    175 -0.05097600  12.010000   ; qtot 6.870569
  176         c3      7    bbb     C3    176 -0.18457900  12.010000   ; qtot 6.685990
  177          c      7    bbb     C4    177 0.67254400  12.010000   ; qtot 7.358534
  178         c3      7    bbb     C5    178 -0.18457900  12.010000   ; qtot 7.173955
  179          c      7    bbb     C6    179 0.67254400  12.010000   ; qtot 7.846499
  180         c3      7    bbb     C7    180 -0.02083000  12.010000   ; qtot 7.825669
  181         c3      7    bbb     C8    181 -0.03328100  12.010000   ; qtot 7.792388
  182          n      7    bbb     N2    182 -0.33303000  14.010000   ; qtot 7.459358
  183          o      7    bbb     O1    183 -0.52917200  16.000000   ; qtot 6.930186
  184          o      7    bbb     O2    184 -0.52917200  16.000000   ; qtot 6.401014
  185         hx      7    bbb     H1    185 0.11563300   1.008000   ; qtot 6.516647
  186         hx      7    bbb     H2    186 0.11563300   1.008000   ; qtot 6.632280
  187         hx      7    bbb     H3    187 0.11563300   1.008000   ; qtot 6.747913
  188         hx      7    bbb     H4    188 0.11563300   1.008000   ; qtot 6.863546
  189         hc      7    bbb     H5    189 0.08347900   1.008000   ; qtot 6.947025
  190         hc      7    bbb     H6    190 0.08347900   1.008000   ; qtot 7.030504
  191         hc      7    bbb     H7    191 0.08347900   1.008000   ; qtot 7.113983
  192         hc      7    bbb     H8    192 0.08347900   1.008000   ; qtot 7.197462
  193         hx      7    bbb     H9    193 0.07988000   1.008000   ; qtot 7.277342
  194         hx      7    bbb    H10    194 0.07988000   1.008000   ; qtot 7.357222
  195         h1      7    bbb    H11    195 0.10618100   1.008000   ; qtot 7.463403
  196         h1      7    bbb    H12    196 0.10618100   1.008000   ; qtot 7.569584
  197         hn      7    bbb    H13    197 0.25916100   1.008000   ; qtot 7.828745
  198         hn      7    bbb    H25    198 0.17125500   1.008000   ; qtot 8.000000
; residue    8 bbb rtp bbb q 1.0
  199         n4      8    bbb     N1    199 -0.02747900  14.010000   ; qtot 7.972521
  200         c3      8    bbb     C1    200 -0.05097600  12.010000   ; qtot 7.921545
  201         c3      8    bbb     C2    201 -0.05097600  12.010000   ; qtot 7.870569
  202         c3      8    bbb     C3    202 -0.18457900  12.010000   ; qtot 7.685990
  203          c      8    bbb     C4    203 0.67254400  12.010000   ; qtot 8.358534
  204         c3      8    bbb     C5    204 -0.18457900  12.010000   ; qtot 8.173955
  205          c      8    bbb     C6    205 0.67254400  12.010000   ; qtot 8.846499
  206         c3      8    bbb     C7    206 -0.02083000  12.010000   ; qtot 8.825669
  207         c3      8    bbb     C8    207 -0.03328100  12.010000   ; qtot 8.792388
  208          n      8    bbb     N2    208 -0.33303000  14.010000   ; qtot 8.459358
  209          o      8    bbb     O1    209 -0.52917200  16.000000   ; qtot 7.930186
  210          o      8    bbb     O2    210 -0.52917200  16.000000   ; qtot 7.401014
  211         hx      8    bbb     H1    211 0.11563300   1.008000   ; qtot 7.516647
  212         hx      8    bbb     H2    212 0.11563300   1.008000   ; qtot 7.632280
  213         hx      8    bbb     H3    213 0.11563300   1.008000   ; qtot 7.747913
  214         hx      8    bbb     H4    214 0.11563300   1.008000   ; qtot 7.863546
  215         hc      8    bbb     H5    215 0.08347900   1.008000   ; qtot 7.947025
  216         hc      8    bbb     H6    216 0.08347900   1.008000   ; qtot 8.030504
  217         hc      8    bbb     H7    217 0.08347900   1.008000   ; qtot 8.113983
  218         hc      8    bbb     H8    218 0.08347900   1.008000   ; qtot 8.197462
  219         hx      8    bbb     H9    219 0.07988000   1.008000   ; qtot 8.277342
  220         hx      8    bbb    H10    220 0.07988000   1.008000   ; qtot 8.357222
  221         h1      8    bbb    H11    221 0.10618100   1.008000   ; qtot 8.463403
  222         h1      8    bbb    H12    222 0.10618100   1.008000   ; qtot 8.569584
  223         hn      8    bbb    H13    223 0.25916100   1.008000   ; qtot 8.828745
  224         hn      8    bbb    H25    224 0.17125500   1.008000   ; qtot 9.000000
; residue    9 bbb rtp bbb q 1.0
  225         n4      9    bbb     N1    225 -0.02747900  14.010000   ; qtot 8.972521
  226         c3      9    bbb     C1    226 -0.05097600  12.010000   ; qtot 8.921545
  227         c3      9    bbb     C2    227 -0.05097600  12.010000   ; qtot 8.870569
  228         c3      9    bbb     C3    228 -0.18457900  12.010000   ; qtot 8.685990
  229          c      9    bbb     C4    229 0.67254400  12.010000   ; qtot 9.358534
  230         c3      9    bbb     C5    230 -0.18457900  12.010000   ; qtot 9.173955
  231          c      9    bbb     C6    231 0.67254400  12.010000   ; qtot 9.846499
  232         c3      9    bbb     C7    232 -0.02083000  12.010000   ; qtot 9.825669
  233         c3      9    bbb     C8    233 -0.03328100  12.010000   ; qtot 9.792388
  234          n      9    bbb     N2    234 -0.33303000  14.010000   ; qtot 9.459358
  235          o      9    bbb     O1    235 -0.52917200  16.000000   ; qtot 8.930186
  236          o      9    bbb     O2    236 -0.52917200  16.000000   ; qtot 8.401014
  237         hx      9    bbb     H1    237 0.11563300   1.008000   ; qtot 8.516647
  238         hx      9    bbb     H2    238 0.11563300   1.008000   ; qtot 8.632280
  239         hx      9    bbb     H3    239 0.11563300   1.008000   ; qtot 8.747913
  240         hx      9    bbb     H4    240 0.11563300   1.008000   ; qtot 8.863546
  241         hc      9    bbb     H5    241 0.08347900   1.008000   ; qtot 8.947025
  242         hc      9    bbb     H6    242 0.08347900   1.008000   ; qtot 9.030504
  243         hc      9    bbb     H7    243 0.08347900   1.008000   ; qtot 9.113983
  244         hc      9    bbb     H8    244 0.08347900   1.008000   ; qtot 9.197462
  245         hx      9    bbb     H9    245 0.07988000   1.008000   ; qtot 9.277342
  246         hx      9    bbb    H10    246 0.07988000   1.008000   ; qtot 9.357222
  247         h1      9    bbb    H11    247 0.10618100   1.008000   ; qtot 9.463403
  248         h1      9    bbb    H12    248 0.10618100   1.008000   ; qtot 9.569584
  249         hn      9    bbb    H13    249 0.25916100   1.008000   ; qtot 9.828745
  250         hn      9    bbb    H25    250 0.17125500   1.008000   ; qtot 10.000000
; residue   10 bbb rtp bbb q 1.0
  251         n4     10    bbb     N1    251 -0.02747900  14.010000   ; qtot 9.972521
  252         c3     10    bbb     C1    252 -0.05097600  12.010000   ; qtot 9.921545
  253         c3     10    bbb     C2    253 -0.05097600  12.010000   ; qtot 9.870569
  254         c3     10    bbb     C3    254 -0.18457900  12.010000   ; qtot 9.685990
  255          c     10    bbb     C4    255 0.67254400  12.010000   ; qtot 10.358534
  256         c3     10    bbb     C5    256 -0.18457900  12.010000   ; qtot 10.173955
  257          c     10    bbb     C6    257 0.67254400  12.010000   ; qtot 10.846499
  258         c3     10    bbb     C7    258 -0.02083000  12.010000   ; qtot 10.825669
  259         c3     10    bbb     C8    259 -0.03328100  12.010000   ; qtot 10.792388
  260          n     10    bbb     N2    260 -0.33303000  14.010000   ; qtot 10.459358
  261          o     10    bbb     O1    261 -0.52917200  16.000000   ; qtot 9.930186
  262          o     10    bbb     O2    262 -0.52917200  16.000000   ; qtot 9.401014
  263         hx     10    bbb     H1    263 0.11563300   1.008000   ; qtot 9.516647
  264         hx     10    bbb     H2    264 0.11563300   1.008000   ; qtot 9.632280
  265         hx     10    bbb     H3    265 0.11563300   1.008000   ; qtot 9.747913
  266         hx     10    bbb     H4    266 0.11563300   1.008000   ; qtot 9.863546
  267         hc     10    bbb     H5    267 0.08347900   1.008000   ; qtot 9.947025
  268         hc     10    bbb     H6    268 0.08347900   1.008000   ; qtot 10.030504
  269         hc     10    bbb     H7    269 0.08347900   1.008000   ; qtot 10.113983
  270         hc     10    bbb     H8    270 0.08347900   1.008000   ; qtot 10.197462
  271         hx     10    bbb     H9    271 0.07988000   1.008000   ; qtot 10.277342
  272         hx     10    bbb    H10    272 0.07988000   1.008000   ; qtot 10.357222
  273         h1     10    bbb    H11    273 0.10618100   1.008000   ; qtot 10.463403
  274         h1     10    bbb    H12    274 0.10618100   1.008000   ; qtot 10.569584
  275         hn     10    bbb    H13    275 0.25916100   1.008000   ; qtot 10.828745
  276         hn     10    bbb    H25    276 0.17125500   1.008000   ; qtot 11.000000
; residue   11 bbb rtp bbb q 1.0
  277         n4     11    bbb     N1    277 -0.02747900  14.010000   ; qtot 10.972521
  278         c3     11    bbb     C1    278 -0.05097600  12.010000   ; qtot 10.921545
  279         c3     11    bbb     C2    279 -0.05097600  12.010000   ; qtot 10.870569
  280         c3     11    bbb     C3    280 -0.18457900  12.010000   ; qtot 10.685990
  281          c     11    bbb     C4    281 0.67254400  12.010000   ; qtot 11.358534
  282         c3     11    bbb     C5    282 -0.18457900  12.010000   ; qtot 11.173955
  283          c     11    bbb     C6    283 0.67254400  12.010000   ; qtot 11.846499
  284         c3     11    bbb     C7    284 -0.02083000  12.010000   ; qtot 11.825669
  285         c3     11    bbb     C8    285 -0.03328100  12.010000   ; qtot 11.792388
  286          n     11    bbb     N2    286 -0.33303000  14.010000   ; qtot 11.459358
  287          o     11    bbb     O1    287 -0.52917200  16.000000   ; qtot 10.930186
  288          o     11    bbb     O2    288 -0.52917200  16.000000   ; qtot 10.401014
  289         hx     11    bbb     H1    289 0.11563300   1.008000   ; qtot 10.516647
  290         hx     11    bbb     H2    290 0.11563300   1.008000   ; qtot 10.632280
  291         hx     11    bbb     H3    291 0.11563300   1.008000   ; qtot 10.747913
  292         hx     11    bbb     H4    292 0.11563300   1.008000   ; qtot 10.863546
  293         hc     11    bbb     H5    293 0.08347900   1.008000   ; qtot 10.947025
  294         hc     11    bbb     H6    294 0.08347900   1.008000   ; qtot 11.030504
  295         hc     11    bbb     H7    295 0.08347900   1.008000   ; qtot 11.113983
  296         hc     11    bbb     H8    296 0.08347900   1.008000   ; qtot 11.197462
  297         hx     11    bbb     H9    297 0.07988000   1.008000   ; qtot 11.277342
  298         hx     11    bbb    H10    298 0.07988000   1.008000   ; qtot 11.357222
  299         h1     11    bbb    H11    299 0.10618100   1.008000   ; qtot 11.463403
  300         h1     11    bbb    H12    300 0.10618100   1.008000   ; qtot 11.569584
  301         hn     11    bbb    H13    301 0.25916100   1.008000   ; qtot 11.828745
  302         hn     11    bbb    H25    302 0.17125500   1.008000   ; qtot 12.000000
; residue   12 bbb rtp bbb q 1.0
  303         n4     12    bbb     N1    303 -0.02747900  14.010000   ; qtot 11.972521
  304         c3     12    bbb     C1    304 -0.05097600  12.010000   ; qtot 11.921545
  305         c3     12    bbb     C2    305 -0.05097600  12.010000   ; qtot 11.870569
  306         c3     12    bbb     C3    306 -0.18457900  12.010000   ; qtot 11.685990
  307          c     12    bbb     C4    307 0.67254400  12.010000   ; qtot 12.358534
  308         c3     12    bbb     C5    308 -0.18457900  12.010000   ; qtot 12.173955
  309          c     12    bbb     C6    309 0.67254400  12.010000   ; qtot 12.846499
  310         c3     12    bbb     C7    310 -0.02083000  12.010000   ; qtot 12.825669
  311         c3     12    bbb     C8    311 -0.03328100  12.010000   ; qtot 12.792388
  312          n     12    bbb     N2    312 -0.33303000  14.010000   ; qtot 12.459358
  313          o     12    bbb     O1    313 -0.52917200  16.000000   ; qtot 11.930186
  314          o     12    bbb     O2    314 -0.52917200  16.000000   ; qtot 11.401014
  315         hx     12    bbb     H1    315 0.11563300   1.008000   ; qtot 11.516647
  316         hx     12    bbb     H2    316 0.11563300   1.008000   ; qtot 11.632280
  317         hx     12    bbb     H3    317 0.11563300   1.008000   ; qtot 11.747913
  318         hx     12    bbb     H4    318 0.11563300   1.008000   ; qtot 11.863546
  319         hc     12    bbb     H5    319 0.08347900   1.008000   ; qtot 11.947025
  320         hc     12    bbb     H6    320 0.08347900   1.008000   ; qtot 12.030504
  321         hc     12    bbb     H7    321 0.08347900   1.008000   ; qtot 12.113983
  322         hc     12    bbb     H8    322 0.08347900   1.008000   ; qtot 12.197462
  323         hx     12    bbb     H9    323 0.07988000   1.008000   ; qtot 12.277342
  324         hx     12    bbb    H10    324 0.07988000   1.008000   ; qtot 12.357222
  325         h1     12    bbb    H11    325 0.10618100   1.008000   ; qtot 12.463403
  326         h1     12    bbb    H12    326 0.10618100   1.008000   ; qtot 12.569584
  327         hn     12    bbb    H13    327 0.25916100   1.008000   ; qtot 12.828745
  328         hn     12    bbb    H25    328 0.17125500   1.008000   ; qtot 13.000000
; residue   13 bbb rtp bbb q 1.0
  329         n4     13    bbb     N1    329 -0.02747900  14.010000   ; qtot 12.972521
  330         c3     13    bbb     C1    330 -0.05097600  12.010000   ; qtot 12.921545
  331         c3     13    bbb     C2    331 -0.05097600  12.010000   ; qtot 12.870569
  332         c3     13    bbb     C3    332 -0.18457900  12.010000   ; qtot 12.685990
  333          c     13    bbb     C4    333 0.67254400  12.010000   ; qtot 13.358534
  334         c3     13    bbb     C5    334 -0.18457900  12.010000   ; qtot 13.173955
  335          c     13    bbb     C6    335 0.67254400  12.010000   ; qtot 13.846499
  336         c3     13    bbb     C7    336 -0.02083000  12.010000   ; qtot 13.825669
  337         c3     13    bbb     C8    337 -0.03328100  12.010000   ; qtot 13.792388
  338          n     13    bbb     N2    338 -0.33303000  14.010000   ; qtot 13.459358
  339          o     13    bbb     O1    339 -0.52917200  16.000000   ; qtot 12.930186
  340          o     13    bbb     O2    340 -0.52917200  16.000000   ; qtot 12.401014
  341         hx     13    bbb     H1    341 0.11563300   1.008000   ; qtot 12.516647
  342         hx     13    bbb     H2    342 0.11563300   1.008000   ; qtot 12.632280
  343         hx     13    bbb     H3    343 0.11563300   1.008000   ; qtot 12.747913
  344         hx     13    bbb     H4    344 0.11563300   1.008000   ; qtot 12.863546
  345         hc     13    bbb     H5    345 0.08347900   1.008000   ; qtot 12.947025
  346         hc     13    bbb     H6    346 0.08347900   1.008000   ; qtot 13.030504
  347         hc     13    bbb     H7    347 0.08347900   1.008000   ; qtot 13.113983
  348         hc     13    bbb     H8    348 0.08347900   1.008000   ; qtot 13.197462
  349         hx     13    bbb     H9    349 0.07988000   1.008000   ; qtot 13.277342
  350         hx     13    bbb    H10    350 0.07988000   1.008000   ; qtot 13.357222
  351         h1     13    bbb    H11    351 0.10618100   1.008000   ; qtot 13.463403
  352         h1     13    bbb    H12    352 0.10618100   1.008000   ; qtot 13.569584
  353         hn     13    bbb    H13    353 0.25916100   1.008000   ; qtot 13.828745
  354         hn     13    bbb    H25    354 0.17125500   1.008000   ; qtot 14.000000
; residue   14 bbb rtp bbb q 1.0
  355         n4     14    bbb     N1    355 -0.02747900  14.010000   ; qtot 13.972521
  356         c3     14    bbb     C1    356 -0.05097600  12.010000   ; qtot 13.921545
  357         c3     14    bbb     C2    357 -0.05097600  12.010000   ; qtot 13.870569
  358         c3     14    bbb     C3    358 -0.18457900  12.010000   ; qtot 13.685990
  359          c     14    bbb     C4    359 0.67254400  12.010000   ; qtot 14.358534
  360         c3     14    bbb     C5    360 -0.18457900  12.010000   ; qtot 14.173955
  361          c     14    bbb     C6    361 0.67254400  12.010000   ; qtot 14.846499
  362         c3     14    bbb     C7    362 -0.02083000  12.010000   ; qtot 14.825669
  363         c3     14    bbb     C8    363 -0.03328100  12.010000   ; qtot 14.792388
  364          n     14    bbb     N2    364 -0.33303000  14.010000   ; qtot 14.459358
  365          o     14    bbb     O1    365 -0.52917200  16.000000   ; qtot 13.930186
  366          o     14    bbb     O2    366 -0.52917200  16.000000   ; qtot 13.401014
  367         hx     14    bbb     H1    367 0.11563300   1.008000   ; qtot 13.516647
  368         hx     14    bbb     H2    368 0.11563300   1.008000   ; qtot 13.632280
  369         hx     14    bbb     H3    369 0.11563300   1.008000   ; qtot 13.747913
  370         hx     14    bbb     H4    370 0.11563300   1.008000   ; qtot 13.863546
  371         hc     14    bbb     H5    371 0.08347900   1.008000   ; qtot 13.947025
  372         hc     14    bbb     H6    372 0.08347900   1.008000   ; qtot 14.030504
  373         hc     14    bbb     H7    373 0.08347900   1.008000   ; qtot 14.113983
  374         hc     14    bbb     H8    374 0.08347900   1.008000   ; qtot 14.197462
  375         hx     14    bbb     H9    375 0.07988000   1.008000   ; qtot 14.277342
  376         hx     14    bbb    H10    376 0.07988000   1.008000   ; qtot 14.357222
  377         h1     14    bbb    H11    377 0.10618100   1.008000   ; qtot 14.463403
  378         h1     14    bbb    H12    378 0.10618100   1.008000   ; qtot 14.569584
  379         hn     14    bbb    H13    379 0.25916100   1.008000   ; qtot 14.828745
  380         hn     14    bbb    H25    380 0.17125500   1.008000   ; qtot 15.000000
; residue   15 bbb rtp bbb q 1.0
  381         n4     15    bbb     N1    381 -0.02747900  14.010000   ; qtot 14.972521
  382         c3     15    bbb     C1    382 -0.05097600  12.010000   ; qtot 14.921545
  383         c3     15    bbb     C2    383 -0.05097600  12.010000   ; qtot 14.870569
  384         c3     15    bbb     C3    384 -0.18457900  12.010000   ; qtot 14.685990
  385          c     15    bbb     C4    385 0.67254400  12.010000   ; qtot 15.358534
  386         c3     15    bbb     C5    386 -0.18457900  12.010000   ; qtot 15.173955
  387          c     15    bbb     C6    387 0.67254400  12.010000   ; qtot 15.846499
  388         c3     15    bbb     C7    388 -0.02083000  12.010000   ; qtot 15.825669
  389         c3     15    bbb     C8    389 -0.03328100  12.010000   ; qtot 15.792388
  390          n     15    bbb     N2    390 -0.33303000  14.010000   ; qtot 15.459358
  391          o     15    bbb     O1    391 -0.52917200  16.000000   ; qtot 14.930186
  392          o     15    bbb     O2    392 -0.52917200  16.000000   ; qtot 14.401014
  393         hx     15    bbb     H1    393 0.11563300   1.008000   ; qtot 14.516647
  394         hx     15    bbb     H2    394 0.11563300   1.008000   ; qtot 14.632280
  395         hx     15    bbb     H3    395 0.11563300   1.008000   ; qtot 14.747913
  396         hx     15    bbb     H4    396 0.11563300   1.008000   ; qtot 14.863546
  397         hc     15    bbb     H5    397 0.08347900   1.008000   ; qtot 14.947025
  398         hc     15    bbb     H6    398 0.08347900   1.008000   ; qtot 15.030504
  399         hc     15    bbb     H7    399 0.08347900   1.008000   ; qtot 15.113983
  400         hc     15    bbb     H8    400 0.08347900   1.008000   ; qtot 15.197462
  401         hx     15    bbb     H9    401 0.07988000   1.008000   ; qtot 15.277342
  402         hx     15    bbb    H10    402 0.07988000   1.008000   ; qtot 15.357222
  403         h1     15    bbb    H11    403 0.10618100   1.008000   ; qtot 15.463403
  404         h1     15    bbb    H12    404 0.10618100   1.008000   ; qtot 15.569584
  405         hn     15    bbb    H13    405 0.25916100   1.008000   ; qtot 15.828745
  406         hn     15    bbb    H25    406 0.17125500   1.008000   ; qtot 16.000000
; residue   16 bbb rtp bbb q 1.0
  407         n4     16    bbb     N1    407 -0.02747900  14.010000   ; qtot 15.972521
  408         c3     16    bbb     C1    408 -0.05097600  12.010000   ; qtot 15.921545
  409         c3     16    bbb     C2    409 -0.05097600  12.010000   ; qtot 15.870569
  410         c3     16    bbb     C3    410 -0.18457900  12.010000   ; qtot 15.685990
  411          c     16    bbb     C4    411 0.67254400  12.010000   ; qtot 16.358534
  412         c3     16    bbb     C5    412 -0.18457900  12.010000   ; qtot 16.173955
  413          c     16    bbb     C6    413 0.67254400  12.010000   ; qtot 16.846499
  414         c3     16    bbb     C7    414 -0.02083000  12.010000   ; qtot 16.825669
  415         c3     16    bbb     C8    415 -0.03328100  12.010000   ; qtot 16.792388
  416          n     16    bbb     N2    416 -0.33303000  14.010000   ; qtot 16.459358
  417          o     16    bbb     O1    417 -0.52917200  16.000000   ; qtot 15.930186
  418          o     16    bbb     O2    418 -0.52917200  16.000000   ; qtot 15.401014
  419         hx     16    bbb     H1    419 0.11563300   1.008000   ; qtot 15.516647
  420         hx     16    bbb     H2    420 0.11563300   1.008000   ; qtot 15.632280
  421         hx     16    bbb     H3    421 0.11563300   1.008000   ; qtot 15.747913
  422         hx     16    bbb     H4    422 0.11563300   1.008000   ; qtot 15.863546
  423         hc     16    bbb     H5    423 0.08347900   1.008000   ; qtot 15.947025
  424         hc     16    bbb     H6    424 0.08347900   1.008000   ; qtot 16.030504
  425         hc     16    bbb     H7    425 0.08347900   1.008000   ; qtot 16.113983
  426         hc     16    bbb     H8    426 0.08347900   1.008000   ; qtot 16.197462
  427         hx     16    bbb     H9    427 0.07988000   1.008000   ; qtot 16.277342
  428         hx     16    bbb    H10    428 0.07988000   1.008000   ; qtot 16.357222
  429         h1     16    bbb    H11    429 0.10618100   1.008000   ; qtot 16.463403
  430         h1     16    bbb    H12    430 0.10618100   1.008000   ; qtot 16.569584
  431         hn     16    bbb    H13    431 0.25916100   1.008000   ; qtot 16.828745
  432         hn     16    bbb    H25    432 0.17125500   1.008000   ; qtot 17.000000
; residue   17 bbb rtp bbb q 1.0
  433         n4     17    bbb     N1    433 -0.02747900  14.010000   ; qtot 16.972521
  434         c3     17    bbb     C1    434 -0.05097600  12.010000   ; qtot 16.921545
  435         c3     17    bbb     C2    435 -0.05097600  12.010000   ; qtot 16.870569
  436         c3     17    bbb     C3    436 -0.18457900  12.010000   ; qtot 16.685990
  437          c     17    bbb     C4    437 0.67254400  12.010000   ; qtot 17.358534
  438         c3     17    bbb     C5    438 -0.18457900  12.010000   ; qtot 17.173955
  439          c     17    bbb     C6    439 0.67254400  12.010000   ; qtot 17.846499
  440         c3     17    bbb     C7    440 -0.02083000  12.010000   ; qtot 17.825669
  441         c3     17    bbb     C8    441 -0.03328100  12.010000   ; qtot 17.792388
  442          n     17    bbb     N2    442 -0.33303000  14.010000   ; qtot 17.459358
  443          o     17    bbb     O1    443 -0.52917200  16.000000   ; qtot 16.930186
  444          o     17    bbb     O2    444 -0.52917200  16.000000   ; qtot 16.401014
  445         hx     17    bbb     H1    445 0.11563300   1.008000   ; qtot 16.516647
  446         hx     17    bbb     H2    446 0.11563300   1.008000   ; qtot 16.632280
  447         hx     17    bbb     H3    447 0.11563300   1.008000   ; qtot 16.747913
  448         hx     17    bbb     H4    448 0.11563300   1.008000   ; qtot 16.863546
  449         hc     17    bbb     H5    449 0.08347900   1.008000   ; qtot 16.947025
  450         hc     17    bbb     H6    450 0.08347900   1.008000   ; qtot 17.030504
  451         hc     17    bbb     H7    451 0.08347900   1.008000   ; qtot 17.113983
  452         hc     17    bbb     H8    452 0.08347900   1.008000   ; qtot 17.197462
  453         hx     17    bbb     H9    453 0.07988000   1.008000   ; qtot 17.277342
  454         hx     17    bbb    H10    454 0.07988000   1.008000   ; qtot 17.357222
  455         h1     17    bbb    H11    455 0.10618100   1.008000   ; qtot 17.463403
  456         h1     17    bbb    H12    456 0.10618100   1.008000   ; qtot 17.569584
  457         hn     17    bbb    H13    457 0.25916100   1.008000   ; qtot 17.828745
  458         hn     17    bbb    H25    458 0.17125500   1.008000   ; qtot 18.000000
; residue   18 bbb rtp bbb q 1.0
  459         n4     18    bbb     N1    459 -0.02747900  14.010000   ; qtot 17.972521
  460         c3     18    bbb     C1    460 -0.05097600  12.010000   ; qtot 17.921545
  461         c3     18    bbb     C2    461 -0.05097600  12.010000   ; qtot 17.870569
  462         c3     18    bbb     C3    462 -0.18457900  12.010000   ; qtot 17.685990
  463          c     18    bbb     C4    463 0.67254400  12.010000   ; qtot 18.358534
  464         c3     18    bbb     C5    464 -0.18457900  12.010000   ; qtot 18.173955
  465          c     18    bbb     C6    465 0.67254400  12.010000   ; qtot 18.846499
  466         c3     18    bbb     C7    466 -0.02083000  12.010000   ; qtot 18.825669
  467         c3     18    bbb     C8    467 -0.03328100  12.010000   ; qtot 18.792388
  468          n     18    bbb     N2    468 -0.33303000  14.010000   ; qtot 18.459358
  469          o     18    bbb     O1    469 -0.52917200  16.000000   ; qtot 17.930186
  470          o     18    bbb     O2    470 -0.52917200  16.000000   ; qtot 17.401014
  471         hx     18    bbb     H1    471 0.11563300   1.008000   ; qtot 17.516647
  472         hx     18    bbb     H2    472 0.11563300   1.008000   ; qtot 17.632280
  473         hx     18    bbb     H3    473 0.11563300   1.008000   ; qtot 17.747913
  474         hx     18    bbb     H4    474 0.11563300   1.008000   ; qtot 17.863546
  475         hc     18    bbb     H5    475 0.08347900   1.008000   ; qtot 17.947025
  476         hc     18    bbb     H6    476 0.08347900   1.008000   ; qtot 18.030504
  477         hc     18    bbb     H7    477 0.08347900   1.008000   ; qtot 18.113983
  478         hc     18    bbb     H8    478 0.08347900   1.008000   ; qtot 18.197462
  479         hx     18    bbb     H9    479 0.07988000   1.008000   ; qtot 18.277342
  480         hx     18    bbb    H10    480 0.07988000   1.008000   ; qtot 18.357222
  481         h1     18    bbb    H11    481 0.10618100   1.008000   ; qtot 18.463403
  482         h1     18    bbb    H12    482 0.10618100   1.008000   ; qtot 18.569584
  483         hn     18    bbb    H13    483 0.25916100   1.008000   ; qtot 18.828745
  484         hn     18    bbb    H25    484 0.17125500   1.008000   ; qtot 19.000000
; residue   19 bbb rtp bbb q 1.0
  485         n4     19    bbb     N1    485 -0.02747900  14.010000   ; qtot 18.972521
  486         c3     19    bbb     C1    486 -0.05097600  12.010000   ; qtot 18.921545
  487         c3     19    bbb     C2    487 -0.05097600  12.010000   ; qtot 18.870569
  488         c3     19    bbb     C3    488 -0.18457900  12.010000   ; qtot 18.685990
  489          c     19    bbb     C4    489 0.67254400  12.010000   ; qtot 19.358534
  490         c3     19    bbb     C5    490 -0.18457900  12.010000   ; qtot 19.173955
  491          c     19    bbb     C6    491 0.67254400  12.010000   ; qtot 19.846499
  492         c3     19    bbb     C7    492 -0.02083000  12.010000   ; qtot 19.825669
  493         c3     19    bbb     C8    493 -0.03328100  12.010000   ; qtot 19.792388
  494          n     19    bbb     N2    494 -0.33303000  14.010000   ; qtot 19.459358
  495          o     19    bbb     O1    495 -0.52917200  16.000000   ; qtot 18.930186
  496          o     19    bbb     O2    496 -0.52917200  16.000000   ; qtot 18.401014
  497         hx     19    bbb     H1    497 0.11563300   1.008000   ; qtot 18.516647
  498         hx     19    bbb     H2    498 0.11563300   1.008000   ; qtot 18.632280
  499         hx     19    bbb     H3    499 0.11563300   1.008000   ; qtot 18.747913
  500         hx     19    bbb     H4    500 0.11563300   1.008000   ; qtot 18.863546
  501         hc     19    bbb     H5    501 0.08347900   1.008000   ; qtot 18.947025
  502         hc     19    bbb     H6    502 0.08347900   1.008000   ; qtot 19.030504
  503         hc     19    bbb     H7    503 0.08347900   1.008000   ; qtot 19.113983
  504         hc     19    bbb     H8    504 0.08347900   1.008000   ; qtot 19.197462
  505         hx     19    bbb     H9    505 0.07988000   1.008000   ; qtot 19.277342
  506         hx     19    bbb    H10    506 0.07988000   1.008000   ; qtot 19.357222
  507         h1     19    bbb    H11    507 0.10618100   1.008000   ; qtot 19.463403
  508         h1     19    bbb    H12    508 0.10618100   1.008000   ; qtot 19.569584
  509         hn     19    bbb    H13    509 0.25916100   1.008000   ; qtot 19.828745
  510         hn     19    bbb    H25    510 0.17125500   1.008000   ; qtot 20.000000
; residue   20 bbb rtp bbb q 1.0
  511         n4     20    bbb     N1    511 -0.02747900  14.010000   ; qtot 19.972521
  512         c3     20    bbb     C1    512 -0.05097600  12.010000   ; qtot 19.921545
  513         c3     20    bbb     C2    513 -0.05097600  12.010000   ; qtot 19.870569
  514         c3     20    bbb     C3    514 -0.18457900  12.010000   ; qtot 19.685990
  515          c     20    bbb     C4    515 0.67254400  12.010000   ; qtot 20.358534
  516         c3     20    bbb     C5    516 -0.18457900  12.010000   ; qtot 20.173955
  517          c     20    bbb     C6    517 0.67254400  12.010000   ; qtot 20.846499
  518         c3     20    bbb     C7    518 -0.02083000  12.010000   ; qtot 20.825669
  519         c3     20    bbb     C8    519 -0.03328100  12.010000   ; qtot 20.792388
  520          n     20    bbb     N2    520 -0.33303000  14.010000   ; qtot 20.459358
  521          o     20    bbb     O1    521 -0.52917200  16.000000   ; qtot 19.930186
  522          o     20    bbb     O2    522 -0.52917200  16.000000   ; qtot 19.401014
  523         hx     20    bbb     H1    523 0.11563300   1.008000   ; qtot 19.516647
  524         hx     20    bbb     H2    524 0.11563300   1.008000   ; qtot 19.632280
  525         hx     20    bbb     H3    525 0.11563300   1.008000   ; qtot 19.747913
  526         hx     20    bbb     H4    526 0.11563300   1.008000   ; qtot 19.863546
  527         hc     20    bbb     H5    527 0.08347900   1.008000   ; qtot 19.947025
  528         hc     20    bbb     H6    528 0.08347900   1.008000   ; qtot 20.030504
  529         hc     20    bbb     H7    529 0.08347900   1.008000   ; qtot 20.113983
  530         hc     20    bbb     H8    530 0.08347900   1.008000   ; qtot 20.197462
  531         hx     20    bbb     H9    531 0.07988000   1.008000   ; qtot 20.277342
  532         hx     20    bbb    H10    532 0.07988000   1.008000   ; qtot 20.357222
  533         h1     20    bbb    H11    533 0.10618100   1.008000   ; qtot 20.463403
  534         h1     20    bbb    H12    534 0.10618100   1.008000   ; qtot 20.569584
  535         hn     20    bbb    H13    535 0.25916100   1.008000   ; qtot 20.828745
  536         hn     20    bbb    H25    536 0.17125500   1.008000   ; qtot 21.000000
; residue   21 bbb rtp bbb q 1.0
  537         n4     21    bbb     N1    537 -0.02747900  14.010000   ; qtot 20.972521
  538         c3     21    bbb     C1    538 -0.05097600  12.010000   ; qtot 20.921545
  539         c3     21    bbb     C2    539 -0.05097600  12.010000   ; qtot 20.870569
  540         c3     21    bbb     C3    540 -0.18457900  12.010000   ; qtot 20.685990
  541          c     21    bbb     C4    541 0.67254400  12.010000   ; qtot 21.358534
  542         c3     21    bbb     C5    542 -0.18457900  12.010000   ; qtot 21.173955
  543          c     21    bbb     C6    543 0.67254400  12.010000   ; qtot 21.846499
  544         c3     21    bbb     C7    544 -0.02083000  12.010000   ; qtot 21.825669
  545         c3     21    bbb     C8    545 -0.03328100  12.010000   ; qtot 21.792388
  546          n     21    bbb     N2    546 -0.33303000  14.010000   ; qtot 21.459358
  547          o     21    bbb     O1    547 -0.52917200  16.000000   ; qtot 20.930186
  548          o     21    bbb     O2    548 -0.52917200  16.000000   ; qtot 20.401014
  549         hx     21    bbb     H1    549 0.11563300   1.008000   ; qtot 20.516647
  550         hx     21    bbb     H2    550 0.11563300   1.008000   ; qtot 20.632280
  551         hx     21    bbb     H3    551 0.11563300   1.008000   ; qtot 20.747913
  552         hx     21    bbb     H4    552 0.11563300   1.008000   ; qtot 20.863546
  553         hc     21    bbb     H5    553 0.08347900   1.008000   ; qtot 20.947025
  554         hc     21    bbb     H6    554 0.08347900   1.008000   ; qtot 21.030504
  555         hc     21    bbb     H7    555 0.08347900   1.008000   ; qtot 21.113983
  556         hc     21    bbb     H8    556 0.08347900   1.008000   ; qtot 21.197462
  557         hx     21    bbb     H9    557 0.07988000   1.008000   ; qtot 21.277342
  558         hx     21    bbb    H10    558 0.07988000   1.008000   ; qtot 21.357222
  559         h1     21    bbb    H11    559 0.10618100   1.008000   ; qtot 21.463403
  560         h1     21    bbb    H12    560 0.10618100   1.008000   ; qtot 21.569584
  561         hn     21    bbb    H13    561 0.25916100   1.008000   ; qtot 21.828745
  562         hn     21    bbb    H25    562 0.17125500   1.008000   ; qtot 22.000000
; residue   22 bbb rtp bbb q 1.0
  563         n4     22    bbb     N1    563 -0.02747900  14.010000   ; qtot 21.972521
  564         c3     22    bbb     C1    564 -0.05097600  12.010000   ; qtot 21.921545
  565         c3     22    bbb     C2    565 -0.05097600  12.010000   ; qtot 21.870569
  566         c3     22    bbb     C3    566 -0.18457900  12.010000   ; qtot 21.685990
  567          c     22    bbb     C4    567 0.67254400  12.010000   ; qtot 22.358534
  568         c3     22    bbb     C5    568 -0.18457900  12.010000   ; qtot 22.173955
  569          c     22    bbb     C6    569 0.67254400  12.010000   ; qtot 22.846499
  570         c3     22    bbb     C7    570 -0.02083000  12.010000   ; qtot 22.825669
  571         c3     22    bbb     C8    571 -0.03328100  12.010000   ; qtot 22.792388
  572          n     22    bbb     N2    572 -0.33303000  14.010000   ; qtot 22.459358
  573          o     22    bbb     O1    573 -0.52917200  16.000000   ; qtot 21.930186
  574          o     22    bbb     O2    574 -0.52917200  16.000000   ; qtot 21.401014
  575         hx     22    bbb     H1    575 0.11563300   1.008000   ; qtot 21.516647
  576         hx     22    bbb     H2    576 0.11563300   1.008000   ; qtot 21.632280
  577         hx     22    bbb     H3    577 0.11563300   1.008000   ; qtot 21.747913
  578         hx     22    bbb     H4    578 0.11563300   1.008000   ; qtot 21.863546
  579         hc     22    bbb     H5    579 0.08347900   1.008000   ; qtot 21.947025
  580         hc     22    bbb     H6    580 0.08347900   1.008000   ; qtot 22.030504
  581         hc     22    bbb     H7    581 0.08347900   1.008000   ; qtot 22.113983
  582         hc     22    bbb     H8    582 0.08347900   1.008000   ; qtot 22.197462
  583         hx     22    bbb     H9    583 0.07988000   1.008000   ; qtot 22.277342
  584         hx     22    bbb    H10    584 0.07988000   1.008000   ; qtot 22.357222
  585         h1     22    bbb    H11    585 0.10618100   1.008000   ; qtot 22.463403
  586         h1     22    bbb    H12    586 0.10618100   1.008000   ; qtot 22.569584
  587         hn     22    bbb    H13    587 0.25916100   1.008000   ; qtot 22.828745
  588         hn     22    bbb    H25    588 0.17125500   1.008000   ; qtot 23.000000
; residue   23 bbb rtp bbb q 1.0
  589         n4     23    bbb     N1    589 -0.02747900  14.010000   ; qtot 22.972521
  590         c3     23    bbb     C1    590 -0.05097600  12.010000   ; qtot 22.921545
  591         c3     23    bbb     C2    591 -0.05097600  12.010000   ; qtot 22.870569
  592         c3     23    bbb     C3    592 -0.18457900  12.010000   ; qtot 22.685990
  593          c     23    bbb     C4    593 0.67254400  12.010000   ; qtot 23.358534
  594         c3     23    bbb     C5    594 -0.18457900  12.010000   ; qtot 23.173955
  595          c     23    bbb     C6    595 0.67254400  12.010000   ; qtot 23.846499
  596         c3     23    bbb     C7    596 -0.02083000  12.010000   ; qtot 23.825669
  597         c3     23    bbb     C8    597 -0.03328100  12.010000   ; qtot 23.792388
  598          n     23    bbb     N2    598 -0.33303000  14.010000   ; qtot 23.459358
  599          o     23    bbb     O1    599 -0.52917200  16.000000   ; qtot 22.930186
  600          o     23    bbb     O2    600 -0.52917200  16.000000   ; qtot 22.401014
  601         hx     23    bbb     H1    601 0.11563300   1.008000   ; qtot 22.516647
  602         hx     23    bbb     H2    602 0.11563300   1.008000   ; qtot 22.632280
  603         hx     23    bbb     H3    603 0.11563300   1.008000   ; qtot 22.747913
  604         hx     23    bbb     H4    604 0.11563300   1.008000   ; qtot 22.863546
  605         hc     23    bbb     H5    605 0.08347900   1.008000   ; qtot 22.947025
  606         hc     23    bbb     H6    606 0.08347900   1.008000   ; qtot 23.030504
  607         hc     23    bbb     H7    607 0.08347900   1.008000   ; qtot 23.113983
  608         hc     23    bbb     H8    608 0.08347900   1.008000   ; qtot 23.197462
  609         hx     23    bbb     H9    609 0.07988000   1.008000   ; qtot 23.277342
  610         hx     23    bbb    H10    610 0.07988000   1.008000   ; qtot 23.357222
  611         h1     23    bbb    H11    611 0.10618100   1.008000   ; qtot 23.463403
  612         h1     23    bbb    H12    612 0.10618100   1.008000   ; qtot 23.569584
  613         hn     23    bbb    H13    613 0.25916100   1.008000   ; qtot 23.828745
  614         hn     23    bbb    H25    614 0.17125500   1.008000   ; qtot 24.000000
; residue   24 bbb rtp bbb q 1.0
  615         n4     24    bbb     N1    615 -0.02747900  14.010000   ; qtot 23.972521
  616         c3     24    bbb     C1    616 -0.05097600  12.010000   ; qtot 23.921545
  617         c3     24    bbb     C2    617 -0.05097600  12.010000   ; qtot 23.870569
  618         c3     24    bbb     C3    618 -0.18457900  12.010000   ; qtot 23.685990
  619          c     24    bbb     C4    619 0.67254400  12.010000   ; qtot 24.358534
  620         c3     24    bbb     C5    620 -0.18457900  12.010000   ; qtot 24.173955
  621          c     24    bbb     C6    621 0.67254400  12.010000   ; qtot 24.846499
  622         c3     24    bbb     C7    622 -0.02083000  12.010000   ; qtot 24.825669
  623         c3     24    bbb     C8    623 -0.03328100  12.010000   ; qtot 24.792388
  624          n     24    bbb     N2    624 -0.33303000  14.010000   ; qtot 24.459358
  625          o     24    bbb     O1    625 -0.52917200  16.000000   ; qtot 23.930186
  626          o     24    bbb     O2    626 -0.52917200  16.000000   ; qtot 23.401014
  627         hx     24    bbb     H1    627 0.11563300   1.008000   ; qtot 23.516647
  628         hx     24    bbb     H2    628 0.11563300   1.008000   ; qtot 23.632280
  629         hx     24    bbb     H3    629 0.11563300   1.008000   ; qtot 23.747913
  630         hx     24    bbb     H4    630 0.11563300   1.008000   ; qtot 23.863546
  631         hc     24    bbb     H5    631 0.08347900   1.008000   ; qtot 23.947025
  632         hc     24    bbb     H6    632 0.08347900   1.008000   ; qtot 24.030504
  633         hc     24    bbb     H7    633 0.08347900   1.008000   ; qtot 24.113983
  634         hc     24    bbb     H8    634 0.08347900   1.008000   ; qtot 24.197462
  635         hx     24    bbb     H9    635 0.07988000   1.008000   ; qtot 24.277342
  636         hx     24    bbb    H10    636 0.07988000   1.008000   ; qtot 24.357222
  637         h1     24    bbb    H11    637 0.10618100   1.008000   ; qtot 24.463403
  638         h1     24    bbb    H12    638 0.10618100   1.008000   ; qtot 24.569584
  639         hn     24    bbb    H13    639 0.25916100   1.008000   ; qtot 24.828745
  640         hn     24    bbb    H25    640 0.17125500   1.008000   ; qtot 25.000000
; residue   25 bbb rtp bbb q 1.0
  641         n4     25    bbb     N1    641 -0.02747900  14.010000   ; qtot 24.972521
  642         c3     25    bbb     C1    642 -0.05097600  12.010000   ; qtot 24.921545
  643         c3     25    bbb     C2    643 -0.05097600  12.010000   ; qtot 24.870569
  644         c3     25    bbb     C3    644 -0.18457900  12.010000   ; qtot 24.685990
  645          c     25    bbb     C4    645 0.67254400  12.010000   ; qtot 25.358534
  646         c3     25    bbb     C5    646 -0.18457900  12.010000   ; qtot 25.173955
  647          c     25    bbb     C6    647 0.67254400  12.010000   ; qtot 25.846499
  648         c3     25    bbb     C7    648 -0.02083000  12.010000   ; qtot 25.825669
  649         c3     25    bbb     C8    649 -0.03328100  12.010000   ; qtot 25.792388
  650          n     25    bbb     N2    650 -0.33303000  14.010000   ; qtot 25.459358
  651          o     25    bbb     O1    651 -0.52917200  16.000000   ; qtot 24.930186
  652          o     25    bbb     O2    652 -0.52917200  16.000000   ; qtot 24.401014
  653         hx     25    bbb     H1    653 0.11563300   1.008000   ; qtot 24.516647
  654         hx     25    bbb     H2    654 0.11563300   1.008000   ; qtot 24.632280
  655         hx     25    bbb     H3    655 0.11563300   1.008000   ; qtot 24.747913
  656         hx     25    bbb     H4    656 0.11563300   1.008000   ; qtot 24.863546
  657         hc     25    bbb     H5    657 0.08347900   1.008000   ; qtot 24.947025
  658         hc     25    bbb     H6    658 0.08347900   1.008000   ; qtot 25.030504
  659         hc     25    bbb     H7    659 0.08347900   1.008000   ; qtot 25.113983
  660         hc     25    bbb     H8    660 0.08347900   1.008000   ; qtot 25.197462
  661         hx     25    bbb     H9    661 0.07988000   1.008000   ; qtot 25.277342
  662         hx     25    bbb    H10    662 0.07988000   1.008000   ; qtot 25.357222
  663         h1     25    bbb    H11    663 0.10618100   1.008000   ; qtot 25.463403
  664         h1     25    bbb    H12    664 0.10618100   1.008000   ; qtot 25.569584
  665         hn     25    bbb    H13    665 0.25916100   1.008000   ; qtot 25.828745
  666         hn     25    bbb    H25    666 0.17125500   1.008000   ; qtot 26.000000
; residue   26 bbb rtp bbb q 1.0
  667         n4     26    bbb     N1    667 -0.02747900  14.010000   ; qtot 25.972521
  668         c3     26    bbb     C1    668 -0.05097600  12.010000   ; qtot 25.921545
  669         c3     26    bbb     C2    669 -0.05097600  12.010000   ; qtot 25.870569
  670         c3     26    bbb     C3    670 -0.18457900  12.010000   ; qtot 25.685990
  671          c     26    bbb     C4    671 0.67254400  12.010000   ; qtot 26.358534
  672         c3     26    bbb     C5    672 -0.18457900  12.010000   ; qtot 26.173955
  673          c     26    bbb     C6    673 0.67254400  12.010000   ; qtot 26.846499
  674         c3     26    bbb     C7    674 -0.02083000  12.010000   ; qtot 26.825669
  675         c3     26    bbb     C8    675 -0.03328100  12.010000   ; qtot 26.792388
  676          n     26    bbb     N2    676 -0.33303000  14.010000   ; qtot 26.459358
  677          o     26    bbb     O1    677 -0.52917200  16.000000   ; qtot 25.930186
  678          o     26    bbb     O2    678 -0.52917200  16.000000   ; qtot 25.401014
  679         hx     26    bbb     H1    679 0.11563300   1.008000   ; qtot 25.516647
  680         hx     26    bbb     H2    680 0.11563300   1.008000   ; qtot 25.632280
  681         hx     26    bbb     H3    681 0.11563300   1.008000   ; qtot 25.747913
  682         hx     26    bbb     H4    682 0.11563300   1.008000   ; qtot 25.863546
  683         hc     26    bbb     H5    683 0.08347900   1.008000   ; qtot 25.947025
  684         hc     26    bbb     H6    684 0.08347900   1.008000   ; qtot 26.030504
  685         hc     26    bbb     H7    685 0.08347900   1.008000   ; qtot 26.113983
  686         hc     26    bbb     H8    686 0.08347900   1.008000   ; qtot 26.197462
  687         hx     26    bbb     H9    687 0.07988000   1.008000   ; qtot 26.277342
  688         hx     26    bbb    H10    688 0.07988000   1.008000   ; qtot 26.357222
  689         h1     26    bbb    H11    689 0.10618100   1.008000   ; qtot 26.463403
  690         h1     26    bbb    H12    690 0.10618100   1.008000   ; qtot 26.569584
  691         hn     26    bbb    H13    691 0.25916100   1.008000   ; qtot 26.828745
  692         hn     26    bbb    H25    692 0.17125500   1.008000   ; qtot 27.000000
; residue   27 bbb rtp bbb q 1.0
  693         n4     27    bbb     N1    693 -0.02747900  14.010000   ; qtot 26.972521
  694         c3     27    bbb     C1    694 -0.05097600  12.010000   ; qtot 26.921545
  695         c3     27    bbb     C2    695 -0.05097600  12.010000   ; qtot 26.870569
  696         c3     27    bbb     C3    696 -0.18457900  12.010000   ; qtot 26.685990
  697          c     27    bbb     C4    697 0.67254400  12.010000   ; qtot 27.358534
  698         c3     27    bbb     C5    698 -0.18457900  12.010000   ; qtot 27.173955
  699          c     27    bbb     C6    699 0.67254400  12.010000   ; qtot 27.846499
  700         c3     27    bbb     C7    700 -0.02083000  12.010000   ; qtot 27.825669
  701         c3     27    bbb     C8    701 -0.03328100  12.010000   ; qtot 27.792388
  702          n     27    bbb     N2    702 -0.33303000  14.010000   ; qtot 27.459358
  703          o     27    bbb     O1    703 -0.52917200  16.000000   ; qtot 26.930186
  704          o     27    bbb     O2    704 -0.52917200  16.000000   ; qtot 26.401014
  705         hx     27    bbb     H1    705 0.11563300   1.008000   ; qtot 26.516647
  706         hx     27    bbb     H2    706 0.11563300   1.008000   ; qtot 26.632280
  707         hx     27    bbb     H3    707 0.11563300   1.008000   ; qtot 26.747913
  708         hx     27    bbb     H4    708 0.11563300   1.008000   ; qtot 26.863546
  709         hc     27    bbb     H5    709 0.08347900   1.008000   ; qtot 26.947025
  710         hc     27    bbb     H6    710 0.08347900   1.008000   ; qtot 27.030504
  711         hc     27    bbb     H7    711 0.08347900   1.008000   ; qtot 27.113983
  712         hc     27    bbb     H8    712 0.08347900   1.008000   ; qtot 27.197462
  713         hx     27    bbb     H9    713 0.07988000   1.008000   ; qtot 27.277342
  714         hx     27    bbb    H10    714 0.07988000   1.008000   ; qtot 27.357222
  715         h1     27    bbb    H11    715 0.10618100   1.008000   ; qtot 27.463403
  716         h1     27    bbb    H12    716 0.10618100   1.008000   ; qtot 27.569584
  717         hn     27    bbb    H13    717 0.25916100   1.008000   ; qtot 27.828745
  718         hn     27    bbb    H25    718 0.17125500   1.008000   ; qtot 28.000000
; residue   28 bbb rtp bbb q 1.0
  719         n4     28    bbb     N1    719 -0.02747900  14.010000   ; qtot 27.972521
  720         c3     28    bbb     C1    720 -0.05097600  12.010000   ; qtot 27.921545
  721         c3     28    bbb     C2    721 -0.05097600  12.010000   ; qtot 27.870569
  722         c3     28    bbb     C3    722 -0.18457900  12.010000   ; qtot 27.685990
  723          c     28    bbb     C4    723 0.67254400  12.010000   ; qtot 28.358534
  724         c3     28    bbb     C5    724 -0.18457900  12.010000   ; qtot 28.173955
  725          c     28    bbb     C6    725 0.67254400  12.010000   ; qtot 28.846499
  726         c3     28    bbb     C7    726 -0.02083000  12.010000   ; qtot 28.825669
  727         c3     28    bbb     C8    727 -0.03328100  12.010000   ; qtot 28.792388
  728          n     28    bbb     N2    728 -0.33303000  14.010000   ; qtot 28.459358
  729          o     28    bbb     O1    729 -0.52917200  16.000000   ; qtot 27.930186
  730          o     28    bbb     O2    730 -0.52917200  16.000000   ; qtot 27.401014
  731         hx     28    bbb     H1    731 0.11563300   1.008000   ; qtot 27.516647
  732         hx     28    bbb     H2    732 0.11563300   1.008000   ; qtot 27.632280
  733         hx     28    bbb     H3    733 0.11563300   1.008000   ; qtot 27.747913
  734         hx     28    bbb     H4    734 0.11563300   1.008000   ; qtot 27.863546
  735         hc     28    bbb     H5    735 0.08347900   1.008000   ; qtot 27.947025
  736         hc     28    bbb     H6    736 0.08347900   1.008000   ; qtot 28.030504
  737         hc     28    bbb     H7    737 0.08347900   1.008000   ; qtot 28.113983
  738         hc     28    bbb     H8    738 0.08347900   1.008000   ; qtot 28.197462
  739         hx     28    bbb     H9    739 0.07988000   1.008000   ; qtot 28.277342
  740         hx     28    bbb    H10    740 0.07988000   1.008000   ; qtot 28.357222
  741         h1     28    bbb    H11    741 0.10618100   1.008000   ; qtot 28.463403
  742         h1     28    bbb    H12    742 0.10618100   1.008000   ; qtot 28.569584
  743         hn     28    bbb    H13    743 0.25916100   1.008000   ; qtot 28.828745
  744         hn     28    bbb    H25    744 0.17125500   1.008000   ; qtot 29.000000
; residue   29 bbb rtp bbb q 1.0
  745         n4     29    bbb     N1    745 -0.02747900  14.010000   ; qtot 28.972521
  746         c3     29    bbb     C1    746 -0.05097600  12.010000   ; qtot 28.921545
  747         c3     29    bbb     C2    747 -0.05097600  12.010000   ; qtot 28.870569
  748         c3     29    bbb     C3    748 -0.18457900  12.010000   ; qtot 28.685990
  749          c     29    bbb     C4    749 0.67254400  12.010000   ; qtot 29.358534
  750         c3     29    bbb     C5    750 -0.18457900  12.010000   ; qtot 29.173955
  751          c     29    bbb     C6    751 0.67254400  12.010000   ; qtot 29.846499
  752         c3     29    bbb     C7    752 -0.02083000  12.010000   ; qtot 29.825669
  753         c3     29    bbb     C8    753 -0.03328100  12.010000   ; qtot 29.792388
  754          n     29    bbb     N2    754 -0.33303000  14.010000   ; qtot 29.459358
  755          o     29    bbb     O1    755 -0.52917200  16.000000   ; qtot 28.930186
  756          o     29    bbb     O2    756 -0.52917200  16.000000   ; qtot 28.401014
  757         hx     29    bbb     H1    757 0.11563300   1.008000   ; qtot 28.516647
  758         hx     29    bbb     H2    758 0.11563300   1.008000   ; qtot 28.632280
  759         hx     29    bbb     H3    759 0.11563300   1.008000   ; qtot 28.747913
  760         hx     29    bbb     H4    760 0.11563300   1.008000   ; qtot 28.863546
  761         hc     29    bbb     H5    761 0.08347900   1.008000   ; qtot 28.947025
  762         hc     29    bbb     H6    762 0.08347900   1.008000   ; qtot 29.030504
  763         hc     29    bbb     H7    763 0.08347900   1.008000   ; qtot 29.113983
  764         hc     29    bbb     H8    764 0.08347900   1.008000   ; qtot 29.197462
  765         hx     29    bbb     H9    765 0.07988000   1.008000   ; qtot 29.277342
  766         hx     29    bbb    H10    766 0.07988000   1.008000   ; qtot 29.357222
  767         h1     29    bbb    H11    767 0.10618100   1.008000   ; qtot 29.463403
  768         h1     29    bbb    H12    768 0.10618100   1.008000   ; qtot 29.569584
  769         hn     29    bbb    H13    769 0.25916100   1.008000   ; qtot 29.828745
  770         hn     29    bbb    H25    770 0.17125500   1.008000   ; qtot 30.000000
; residue   30 bbb rtp bbb q 1.0
  771         n4     30    bbb     N1    771 -0.02747900  14.010000   ; qtot 29.972521
  772         c3     30    bbb     C1    772 -0.05097600  12.010000   ; qtot 29.921545
  773         c3     30    bbb     C2    773 -0.05097600  12.010000   ; qtot 29.870569
  774         c3     30    bbb     C3    774 -0.18457900  12.010000   ; qtot 29.685990
  775          c     30    bbb     C4    775 0.67254400  12.010000   ; qtot 30.358534
  776         c3     30    bbb     C5    776 -0.18457900  12.010000   ; qtot 30.173955
  777          c     30    bbb     C6    777 0.67254400  12.010000   ; qtot 30.846499
  778         c3     30    bbb     C7    778 -0.02083000  12.010000   ; qtot 30.825669
  779         c3     30    bbb     C8    779 -0.03328100  12.010000   ; qtot 30.792388
  780          n     30    bbb     N2    780 -0.33303000  14.010000   ; qtot 30.459358
  781          o     30    bbb     O1    781 -0.52917200  16.000000   ; qtot 29.930186
  782          o     30    bbb     O2    782 -0.52917200  16.000000   ; qtot 29.401014
  783         hx     30    bbb     H1    783 0.11563300   1.008000   ; qtot 29.516647
  784         hx     30    bbb     H2    784 0.11563300   1.008000   ; qtot 29.632280
  785         hx     30    bbb     H3    785 0.11563300   1.008000   ; qtot 29.747913
  786         hx     30    bbb     H4    786 0.11563300   1.008000   ; qtot 29.863546
  787         hc     30    bbb     H5    787 0.08347900   1.008000   ; qtot 29.947025
  788         hc     30    bbb     H6    788 0.08347900   1.008000   ; qtot 30.030504
  789         hc     30    bbb     H7    789 0.08347900   1.008000   ; qtot 30.113983
  790         hc     30    bbb     H8    790 0.08347900   1.008000   ; qtot 30.197462
  791         hx     30    bbb     H9    791 0.07988000   1.008000   ; qtot 30.277342
  792         hx     30    bbb    H10    792 0.07988000   1.008000   ; qtot 30.357222
  793         h1     30    bbb    H11    793 0.10618100   1.008000   ; qtot 30.463403
  794         h1     30    bbb    H12    794 0.10618100   1.008000   ; qtot 30.569584
  795         hn     30    bbb    H13    795 0.25916100   1.008000   ; qtot 30.828745
  796         hn     30    bbb    H25    796 0.17125500   1.008000   ; qtot 31.000000
; residue   31 bbb rtp bbb q 1.0
  797         n4     31    bbb     N1    797 -0.02747900  14.010000   ; qtot 30.972521
  798         c3     31    bbb     C1    798 -0.05097600  12.010000   ; qtot 30.921545
  799         c3     31    bbb     C2    799 -0.05097600  12.010000   ; qtot 30.870569
  800         c3     31    bbb     C3    800 -0.18457900  12.010000   ; qtot 30.685990
  801          c     31    bbb     C4    801 0.67254400  12.010000   ; qtot 31.358534
  802         c3     31    bbb     C5    802 -0.18457900  12.010000   ; qtot 31.173955
  803          c     31    bbb     C6    803 0.67254400  12.010000   ; qtot 31.846499
  804         c3     31    bbb     C7    804 -0.02083000  12.010000   ; qtot 31.825669
  805         c3     31    bbb     C8    805 -0.03328100  12.010000   ; qtot 31.792388
  806          n     31    bbb     N2    806 -0.33303000  14.010000   ; qtot 31.459358
  807          o     31    bbb     O1    807 -0.52917200  16.000000   ; qtot 30.930186
  808          o     31    bbb     O2    808 -0.52917200  16.000000   ; qtot 30.401014
  809         hx     31    bbb     H1    809 0.11563300   1.008000   ; qtot 30.516647
  810         hx     31    bbb     H2    810 0.11563300   1.008000   ; qtot 30.632280
  811         hx     31    bbb     H3    811 0.11563300   1.008000   ; qtot 30.747913
  812         hx     31    bbb     H4    812 0.11563300   1.008000   ; qtot 30.863546
  813         hc     31    bbb     H5    813 0.08347900   1.008000   ; qtot 30.947025
  814         hc     31    bbb     H6    814 0.08347900   1.008000   ; qtot 31.030504
  815         hc     31    bbb     H7    815 0.08347900   1.008000   ; qtot 31.113983
  816         hc     31    bbb     H8    816 0.08347900   1.008000   ; qtot 31.197462
  817         hx     31    bbb     H9    817 0.07988000   1.008000   ; qtot 31.277342
  818         hx     31    bbb    H10    818 0.07988000   1.008000   ; qtot 31.357222
  819         h1     31    bbb    H11    819 0.10618100   1.008000   ; qtot 31.463403
  820         h1     31    bbb    H12    820 0.10618100   1.008000   ; qtot 31.569584
  821         hn     31    bbb    H13    821 0.25916100   1.008000   ; qtot 31.828745
  822         hn     31    bbb    H25    822 0.17125500   1.008000   ; qtot 32.000000
; residue   32 bbb rtp bbb q 1.0
  823         n4     32    bbb     N1    823 -0.02747900  14.010000   ; qtot 31.972521
  824         c3     32    bbb     C1    824 -0.05097600  12.010000   ; qtot 31.921545
  825         c3     32    bbb     C2    825 -0.05097600  12.010000   ; qtot 31.870569
  826         c3     32    bbb     C3    826 -0.18457900  12.010000   ; qtot 31.685990
  827          c     32    bbb     C4    827 0.67254400  12.010000   ; qtot 32.358534
  828         c3     32    bbb     C5    828 -0.18457900  12.010000   ; qtot 32.173955
  829          c     32    bbb     C6    829 0.67254400  12.010000   ; qtot 32.846499
  830         c3     32    bbb     C7    830 -0.02083000  12.010000   ; qtot 32.825669
  831         c3     32    bbb     C8    831 -0.03328100  12.010000   ; qtot 32.792388
  832          n     32    bbb     N2    832 -0.33303000  14.010000   ; qtot 32.459358
  833          o     32    bbb     O1    833 -0.52917200  16.000000   ; qtot 31.930186
  834          o     32    bbb     O2    834 -0.52917200  16.000000   ; qtot 31.401014
  835         hx     32    bbb     H1    835 0.11563300   1.008000   ; qtot 31.516647
  836         hx     32    bbb     H2    836 0.11563300   1.008000   ; qtot 31.632280
  837         hx     32    bbb     H3    837 0.11563300   1.008000   ; qtot 31.747913
  838         hx     32    bbb     H4    838 0.11563300   1.008000   ; qtot 31.863546
  839         hc     32    bbb     H5    839 0.08347900   1.008000   ; qtot 31.947025
  840         hc     32    bbb     H6    840 0.08347900   1.008000   ; qtot 32.030504
  841         hc     32    bbb     H7    841 0.08347900   1.008000   ; qtot 32.113983
  842         hc     32    bbb     H8    842 0.08347900   1.008000   ; qtot 32.197462
  843         hx     32    bbb     H9    843 0.07988000   1.008000   ; qtot 32.277342
  844         hx     32    bbb    H10    844 0.07988000   1.008000   ; qtot 32.357222
  845         h1     32    bbb    H11    845 0.10618100   1.008000   ; qtot 32.463403
  846         h1     32    bbb    H12    846 0.10618100   1.008000   ; qtot 32.569584
  847         hn     32    bbb    H13    847 0.25916100   1.008000   ; qtot 32.828745
  848         hn     32    bbb    H25    848 0.17125500   1.008000   ; qtot 33.000000
; residue   33 bbb rtp bbb q 1.0
  849         n4     33    bbb     N1    849 -0.02747900  14.010000   ; qtot 32.972521
  850         c3     33    bbb     C1    850 -0.05097600  12.010000   ; qtot 32.921545
  851         c3     33    bbb     C2    851 -0.05097600  12.010000   ; qtot 32.870569
  852         c3     33    bbb     C3    852 -0.18457900  12.010000   ; qtot 32.685990
  853          c     33    bbb     C4    853 0.67254400  12.010000   ; qtot 33.358534
  854         c3     33    bbb     C5    854 -0.18457900  12.010000   ; qtot 33.173955
  855          c     33    bbb     C6    855 0.67254400  12.010000   ; qtot 33.846499
  856         c3     33    bbb     C7    856 -0.02083000  12.010000   ; qtot 33.825669
  857         c3     33    bbb     C8    857 -0.03328100  12.010000   ; qtot 33.792388
  858          n     33    bbb     N2    858 -0.33303000  14.010000   ; qtot 33.459358
  859          o     33    bbb     O1    859 -0.52917200  16.000000   ; qtot 32.930186
  860          o     33    bbb     O2    860 -0.52917200  16.000000   ; qtot 32.401014
  861         hx     33    bbb     H1    861 0.11563300   1.008000   ; qtot 32.516647
  862         hx     33    bbb     H2    862 0.11563300   1.008000   ; qtot 32.632280
  863         hx     33    bbb     H3    863 0.11563300   1.008000   ; qtot 32.747913
  864         hx     33    bbb     H4    864 0.11563300   1.008000   ; qtot 32.863546
  865         hc     33    bbb     H5    865 0.08347900   1.008000   ; qtot 32.947025
  866         hc     33    bbb     H6    866 0.08347900   1.008000   ; qtot 33.030504
  867         hc     33    bbb     H7    867 0.08347900   1.008000   ; qtot 33.113983
  868         hc     33    bbb     H8    868 0.08347900   1.008000   ; qtot 33.197462
  869         hx     33    bbb     H9    869 0.07988000   1.008000   ; qtot 33.277342
  870         hx     33    bbb    H10    870 0.07988000   1.008000   ; qtot 33.357222
  871         h1     33    bbb    H11    871 0.10618100   1.008000   ; qtot 33.463403
  872         h1     33    bbb    H12    872 0.10618100   1.008000   ; qtot 33.569584
  873         hn     33    bbb    H13    873 0.25916100   1.008000   ; qtot 33.828745
  874         hn     33    bbb    H25    874 0.17125500   1.008000   ; qtot 34.000000
; residue   34 bbb rtp bbb q 1.0
  875         n4     34    bbb     N1    875 -0.02747900  14.010000   ; qtot 33.972521
  876         c3     34    bbb     C1    876 -0.05097600  12.010000   ; qtot 33.921545
  877         c3     34    bbb     C2    877 -0.05097600  12.010000   ; qtot 33.870569
  878         c3     34    bbb     C3    878 -0.18457900  12.010000   ; qtot 33.685990
  879          c     34    bbb     C4    879 0.67254400  12.010000   ; qtot 34.358534
  880         c3     34    bbb     C5    880 -0.18457900  12.010000   ; qtot 34.173955
  881          c     34    bbb     C6    881 0.67254400  12.010000   ; qtot 34.846499
  882         c3     34    bbb     C7    882 -0.02083000  12.010000   ; qtot 34.825669
  883         c3     34    bbb     C8    883 -0.03328100  12.010000   ; qtot 34.792388
  884          n     34    bbb     N2    884 -0.33303000  14.010000   ; qtot 34.459358
  885          o     34    bbb     O1    885 -0.52917200  16.000000   ; qtot 33.930186
  886          o     34    bbb     O2    886 -0.52917200  16.000000   ; qtot 33.401014
  887         hx     34    bbb     H1    887 0.11563300   1.008000   ; qtot 33.516647
  888         hx     34    bbb     H2    888 0.11563300   1.008000   ; qtot 33.632280
  889         hx     34    bbb     H3    889 0.11563300   1.008000   ; qtot 33.747913
  890         hx     34    bbb     H4    890 0.11563300   1.008000   ; qtot 33.863546
  891         hc     34    bbb     H5    891 0.08347900   1.008000   ; qtot 33.947025
  892         hc     34    bbb     H6    892 0.08347900   1.008000   ; qtot 34.030504
  893         hc     34    bbb     H7    893 0.08347900   1.008000   ; qtot 34.113983
  894         hc     34    bbb     H8    894 0.08347900   1.008000   ; qtot 34.197462
  895         hx     34    bbb     H9    895 0.07988000   1.008000   ; qtot 34.277342
  896         hx     34    bbb    H10    896 0.07988000   1.008000   ; qtot 34.357222
  897         h1     34    bbb    H11    897 0.10618100   1.008000   ; qtot 34.463403
  898         h1     34    bbb    H12    898 0.10618100   1.008000   ; qtot 34.569584
  899         hn     34    bbb    H13    899 0.25916100   1.008000   ; qtot 34.828745
  900         hn     34    bbb    H25    900 0.17125500   1.008000   ; qtot 35.000000
; residue   35 bbb rtp bbb q 1.0
  901         n4     35    bbb     N1    901 -0.02747900  14.010000   ; qtot 34.972521
  902         c3     35    bbb     C1    902 -0.05097600  12.010000   ; qtot 34.921545
  903         c3     35    bbb     C2    903 -0.05097600  12.010000   ; qtot 34.870569
  904         c3     35    bbb     C3    904 -0.18457900  12.010000   ; qtot 34.685990
  905          c     35    bbb     C4    905 0.67254400  12.010000   ; qtot 35.358534
  906         c3     35    bbb     C5    906 -0.18457900  12.010000   ; qtot 35.173955
  907          c     35    bbb     C6    907 0.67254400  12.010000   ; qtot 35.846499
  908         c3     35    bbb     C7    908 -0.02083000  12.010000   ; qtot 35.825669
  909         c3     35    bbb     C8    909 -0.03328100  12.010000   ; qtot 35.792388
  910          n     35    bbb     N2    910 -0.33303000  14.010000   ; qtot 35.459358
  911          o     35    bbb     O1    911 -0.52917200  16.000000   ; qtot 34.930186
  912          o     35    bbb     O2    912 -0.52917200  16.000000   ; qtot 34.401014
  913         hx     35    bbb     H1    913 0.11563300   1.008000   ; qtot 34.516647
  914         hx     35    bbb     H2    914 0.11563300   1.008000   ; qtot 34.632280
  915         hx     35    bbb     H3    915 0.11563300   1.008000   ; qtot 34.747913
  916         hx     35    bbb     H4    916 0.11563300   1.008000   ; qtot 34.863546
  917         hc     35    bbb     H5    917 0.08347900   1.008000   ; qtot 34.947025
  918         hc     35    bbb     H6    918 0.08347900   1.008000   ; qtot 35.030504
  919         hc     35    bbb     H7    919 0.08347900   1.008000   ; qtot 35.113983
  920         hc     35    bbb     H8    920 0.08347900   1.008000   ; qtot 35.197462
  921         hx     35    bbb     H9    921 0.07988000   1.008000   ; qtot 35.277342
  922         hx     35    bbb    H10    922 0.07988000   1.008000   ; qtot 35.357222
  923         h1     35    bbb    H11    923 0.10618100   1.008000   ; qtot 35.463403
  924         h1     35    bbb    H12    924 0.10618100   1.008000   ; qtot 35.569584
  925         hn     35    bbb    H13    925 0.25916100   1.008000   ; qtot 35.828745
  926         hn     35    bbb    H25    926 0.17125500   1.008000   ; qtot 36.000000
; residue   36 bbb rtp bbb q 1.0
  927         n4     36    bbb     N1    927 -0.02747900  14.010000   ; qtot 35.972521
  928         c3     36    bbb     C1    928 -0.05097600  12.010000   ; qtot 35.921545
  929         c3     36    bbb     C2    929 -0.05097600  12.010000   ; qtot 35.870569
  930         c3     36    bbb     C3    930 -0.18457900  12.010000   ; qtot 35.685990
  931          c     36    bbb     C4    931 0.67254400  12.010000   ; qtot 36.358534
  932         c3     36    bbb     C5    932 -0.18457900  12.010000   ; qtot 36.173955
  933          c     36    bbb     C6    933 0.67254400  12.010000   ; qtot 36.846499
  934         c3     36    bbb     C7    934 -0.02083000  12.010000   ; qtot 36.825669
  935         c3     36    bbb     C8    935 -0.03328100  12.010000   ; qtot 36.792388
  936          n     36    bbb     N2    936 -0.33303000  14.010000   ; qtot 36.459358
  937          o     36    bbb     O1    937 -0.52917200  16.000000   ; qtot 35.930186
  938          o     36    bbb     O2    938 -0.52917200  16.000000   ; qtot 35.401014
  939         hx     36    bbb     H1    939 0.11563300   1.008000   ; qtot 35.516647
  940         hx     36    bbb     H2    940 0.11563300   1.008000   ; qtot 35.632280
  941         hx     36    bbb     H3    941 0.11563300   1.008000   ; qtot 35.747913
  942         hx     36    bbb     H4    942 0.11563300   1.008000   ; qtot 35.863546
  943         hc     36    bbb     H5    943 0.08347900   1.008000   ; qtot 35.947025
  944         hc     36    bbb     H6    944 0.08347900   1.008000   ; qtot 36.030504
  945         hc     36    bbb     H7    945 0.08347900   1.008000   ; qtot 36.113983
  946         hc     36    bbb     H8    946 0.08347900   1.008000   ; qtot 36.197462
  947         hx     36    bbb     H9    947 0.07988000   1.008000   ; qtot 36.277342
  948         hx     36    bbb    H10    948 0.07988000   1.008000   ; qtot 36.357222
  949         h1     36    bbb    H11    949 0.10618100   1.008000   ; qtot 36.463403
  950         h1     36    bbb    H12    950 0.10618100   1.008000   ; qtot 36.569584
  951         hn     36    bbb    H13    951 0.25916100   1.008000   ; qtot 36.828745
  952         hn     36    bbb    H25    952 0.17125500   1.008000   ; qtot 37.000000
; residue   37 bbb rtp bbb q 1.0
  953         n4     37    bbb     N1    953 -0.02747900  14.010000   ; qtot 36.972521
  954         c3     37    bbb     C1    954 -0.05097600  12.010000   ; qtot 36.921545
  955         c3     37    bbb     C2    955 -0.05097600  12.010000   ; qtot 36.870569
  956         c3     37    bbb     C3    956 -0.18457900  12.010000   ; qtot 36.685990
  957          c     37    bbb     C4    957 0.67254400  12.010000   ; qtot 37.358534
  958         c3     37    bbb     C5    958 -0.18457900  12.010000   ; qtot 37.173955
  959          c     37    bbb     C6    959 0.67254400  12.010000   ; qtot 37.846499
  960         c3     37    bbb     C7    960 -0.02083000  12.010000   ; qtot 37.825669
  961         c3     37    bbb     C8    961 -0.03328100  12.010000   ; qtot 37.792388
  962          n     37    bbb     N2    962 -0.33303000  14.010000   ; qtot 37.459358
  963          o     37    bbb     O1    963 -0.52917200  16.000000   ; qtot 36.930186
  964          o     37    bbb     O2    964 -0.52917200  16.000000   ; qtot 36.401014
  965         hx     37    bbb     H1    965 0.11563300   1.008000   ; qtot 36.516647
  966         hx     37    bbb     H2    966 0.11563300   1.008000   ; qtot 36.632280
  967         hx     37    bbb     H3    967 0.11563300   1.008000   ; qtot 36.747913
  968         hx     37    bbb     H4    968 0.11563300   1.008000   ; qtot 36.863546
  969         hc     37    bbb     H5    969 0.08347900   1.008000   ; qtot 36.947025
  970         hc     37    bbb     H6    970 0.08347900   1.008000   ; qtot 37.030504
  971         hc     37    bbb     H7    971 0.08347900   1.008000   ; qtot 37.113983
  972         hc     37    bbb     H8    972 0.08347900   1.008000   ; qtot 37.197462
  973         hx     37    bbb     H9    973 0.07988000   1.008000   ; qtot 37.277342
  974         hx     37    bbb    H10    974 0.07988000   1.008000   ; qtot 37.357222
  975         h1     37    bbb    H11    975 0.10618100   1.008000   ; qtot 37.463403
  976         h1     37    bbb    H12    976 0.10618100   1.008000   ; qtot 37.569584
  977         hn     37    bbb    H13    977 0.25916100   1.008000   ; qtot 37.828745
  978         hn     37    bbb    H25    978 0.17125500   1.008000   ; qtot 38.000000
; residue   38 bbb rtp bbb q 1.0
  979         n4     38    bbb     N1    979 -0.02747900  14.010000   ; qtot 37.972521
  980         c3     38    bbb     C1    980 -0.05097600  12.010000   ; qtot 37.921545
  981         c3     38    bbb     C2    981 -0.05097600  12.010000   ; qtot 37.870569
  982         c3     38    bbb     C3    982 -0.18457900  12.010000   ; qtot 37.685990
  983          c     38    bbb     C4    983 0.67254400  12.010000   ; qtot 38.358534
  984         c3     38    bbb     C5    984 -0.18457900  12.010000   ; qtot 38.173955
  985          c     38    bbb     C6    985 0.67254400  12.010000   ; qtot 38.846499
  986         c3     38    bbb     C7    986 -0.02083000  12.010000   ; qtot 38.825669
  987         c3     38    bbb     C8    987 -0.03328100  12.010000   ; qtot 38.792388
  988          n     38    bbb     N2    988 -0.33303000  14.010000   ; qtot 38.459358
  989          o     38    bbb     O1    989 -0.52917200  16.000000   ; qtot 37.930186
  990          o     38    bbb     O2    990 -0.52917200  16.000000   ; qtot 37.401014
  991         hx     38    bbb     H1    991 0.11563300   1.008000   ; qtot 37.516647
  992         hx     38    bbb     H2    992 0.11563300   1.008000   ; qtot 37.632280
  993         hx     38    bbb     H3    993 0.11563300   1.008000   ; qtot 37.747913
  994         hx     38    bbb     H4    994 0.11563300   1.008000   ; qtot 37.863546
  995         hc     38    bbb     H5    995 0.08347900   1.008000   ; qtot 37.947025
  996         hc     38    bbb     H6    996 0.08347900   1.008000   ; qtot 38.030504
  997         hc     38    bbb     H7    997 0.08347900   1.008000   ; qtot 38.113983
  998         hc     38    bbb     H8    998 0.08347900   1.008000   ; qtot 38.197462
  999         hx     38    bbb     H9    999 0.07988000   1.008000   ; qtot 38.277342
 1000         hx     38    bbb    H10   1000 0.07988000   1.008000   ; qtot 38.357222
 1001         h1     38    bbb    H11   1001 0.10618100   1.008000   ; qtot 38.463403
 1002         h1     38    bbb    H12   1002 0.10618100   1.008000   ; qtot 38.569584
 1003         hn     38    bbb    H13   1003 0.25916100   1.008000   ; qtot 38.828745
 1004         hn     38    bbb    H25   1004 0.17125500   1.008000   ; qtot 39.000000
; residue   39 bbb rtp bbb q 1.0
 1005         n4     39    bbb     N1   1005 -0.02747900  14.010000   ; qtot 38.972521
 1006         c3     39    bbb     C1   1006 -0.05097600  12.010000   ; qtot 38.921545
 1007         c3     39    bbb     C2   1007 -0.05097600  12.010000   ; qtot 38.870569
 1008         c3     39    bbb     C3   1008 -0.18457900  12.010000   ; qtot 38.685990
 1009          c     39    bbb     C4   1009 0.67254400  12.010000   ; qtot 39.358534
 1010         c3     39    bbb     C5   1010 -0.18457900  12.010000   ; qtot 39.173955
 1011          c     39    bbb     C6   1011 0.67254400  12.010000   ; qtot 39.846499
 1012         c3     39    bbb     C7   1012 -0.02083000  12.010000   ; qtot 39.825669
 1013         c3     39    bbb     C8   1013 -0.03328100  12.010000   ; qtot 39.792388
 1014          n     39    bbb     N2   1014 -0.33303000  14.010000   ; qtot 39.459358
 1015          o     39    bbb     O1   1015 -0.52917200  16.000000   ; qtot 38.930186
 1016          o     39    bbb     O2   1016 -0.52917200  16.000000   ; qtot 38.401014
 1017         hx     39    bbb     H1   1017 0.11563300   1.008000   ; qtot 38.516647
 1018         hx     39    bbb     H2   1018 0.11563300   1.008000   ; qtot 38.632280
 1019         hx     39    bbb     H3   1019 0.11563300   1.008000   ; qtot 38.747913
 1020         hx     39    bbb     H4   1020 0.11563300   1.008000   ; qtot 38.863546
 1021         hc     39    bbb     H5   1021 0.08347900   1.008000   ; qtot 38.947025
 1022         hc     39    bbb     H6   1022 0.08347900   1.008000   ; qtot 39.030504
 1023         hc     39    bbb     H7   1023 0.08347900   1.008000   ; qtot 39.113983
 1024         hc     39    bbb     H8   1024 0.08347900   1.008000   ; qtot 39.197462
 1025         hx     39    bbb     H9   1025 0.07988000   1.008000   ; qtot 39.277342
 1026         hx     39    bbb    H10   1026 0.07988000   1.008000   ; qtot 39.357222
 1027         h1     39    bbb    H11   1027 0.10618100   1.008000   ; qtot 39.463403
 1028         h1     39    bbb    H12   1028 0.10618100   1.008000   ; qtot 39.569584
 1029         hn     39    bbb    H13   1029 0.25916100   1.008000   ; qtot 39.828745
 1030         hn     39    bbb    H25   1030 0.17125500   1.008000   ; qtot 40.000000
; residue   40 bbb rtp bbb q 1.0
 1031         n4     40    bbb     N1   1031 -0.02747900  14.010000   ; qtot 39.972521
 1032         c3     40    bbb     C1   1032 -0.05097600  12.010000   ; qtot 39.921545
 1033         c3     40    bbb     C2   1033 -0.05097600  12.010000   ; qtot 39.870569
 1034         c3     40    bbb     C3   1034 -0.18457900  12.010000   ; qtot 39.685990
 1035          c     40    bbb     C4   1035 0.67254400  12.010000   ; qtot 40.358534
 1036         c3     40    bbb     C5   1036 -0.18457900  12.010000   ; qtot 40.173955
 1037          c     40    bbb     C6   1037 0.67254400  12.010000   ; qtot 40.846499
 1038         c3     40    bbb     C7   1038 -0.02083000  12.010000   ; qtot 40.825669
 1039         c3     40    bbb     C8   1039 -0.03328100  12.010000   ; qtot 40.792388
 1040          n     40    bbb     N2   1040 -0.33303000  14.010000   ; qtot 40.459358
 1041          o     40    bbb     O1   1041 -0.52917200  16.000000   ; qtot 39.930186
 1042          o     40    bbb     O2   1042 -0.52917200  16.000000   ; qtot 39.401014
 1043         hx     40    bbb     H1   1043 0.11563300   1.008000   ; qtot 39.516647
 1044         hx     40    bbb     H2   1044 0.11563300   1.008000   ; qtot 39.632280
 1045         hx     40    bbb     H3   1045 0.11563300   1.008000   ; qtot 39.747913
 1046         hx     40    bbb     H4   1046 0.11563300   1.008000   ; qtot 39.863546
 1047         hc     40    bbb     H5   1047 0.08347900   1.008000   ; qtot 39.947025
 1048         hc     40    bbb     H6   1048 0.08347900   1.008000   ; qtot 40.030504
 1049         hc     40    bbb     H7   1049 0.08347900   1.008000   ; qtot 40.113983
 1050         hc     40    bbb     H8   1050 0.08347900   1.008000   ; qtot 40.197462
 1051         hx     40    bbb     H9   1051 0.07988000   1.008000   ; qtot 40.277342
 1052         hx     40    bbb    H10   1052 0.07988000   1.008000   ; qtot 40.357222
 1053         h1     40    bbb    H11   1053 0.10618100   1.008000   ; qtot 40.463403
 1054         h1     40    bbb    H12   1054 0.10618100   1.008000   ; qtot 40.569584
 1055         hn     40    bbb    H13   1055 0.25916100   1.008000   ; qtot 40.828745
 1056         hn     40    bbb    H25   1056 0.17125500   1.008000   ; qtot 41.000000
; residue   41 bbb rtp bbb q 1.0
 1057         n4     41    bbb     N1   1057 -0.02747900  14.010000   ; qtot 40.972521
 1058         c3     41    bbb     C1   1058 -0.05097600  12.010000   ; qtot 40.921545
 1059         c3     41    bbb     C2   1059 -0.05097600  12.010000   ; qtot 40.870569
 1060         c3     41    bbb     C3   1060 -0.18457900  12.010000   ; qtot 40.685990
 1061          c     41    bbb     C4   1061 0.67254400  12.010000   ; qtot 41.358534
 1062         c3     41    bbb     C5   1062 -0.18457900  12.010000   ; qtot 41.173955
 1063          c     41    bbb     C6   1063 0.67254400  12.010000   ; qtot 41.846499
 1064         c3     41    bbb     C7   1064 -0.02083000  12.010000   ; qtot 41.825669
 1065         c3     41    bbb     C8   1065 -0.03328100  12.010000   ; qtot 41.792388
 1066          n     41    bbb     N2   1066 -0.33303000  14.010000   ; qtot 41.459358
 1067          o     41    bbb     O1   1067 -0.52917200  16.000000   ; qtot 40.930186
 1068          o     41    bbb     O2   1068 -0.52917200  16.000000   ; qtot 40.401014
 1069         hx     41    bbb     H1   1069 0.11563300   1.008000   ; qtot 40.516647
 1070         hx     41    bbb     H2   1070 0.11563300   1.008000   ; qtot 40.632280
 1071         hx     41    bbb     H3   1071 0.11563300   1.008000   ; qtot 40.747913
 1072         hx     41    bbb     H4   1072 0.11563300   1.008000   ; qtot 40.863546
 1073         hc     41    bbb     H5   1073 0.08347900   1.008000   ; qtot 40.947025
 1074         hc     41    bbb     H6   1074 0.08347900   1.008000   ; qtot 41.030504
 1075         hc     41    bbb     H7   1075 0.08347900   1.008000   ; qtot 41.113983
 1076         hc     41    bbb     H8   1076 0.08347900   1.008000   ; qtot 41.197462
 1077         hx     41    bbb     H9   1077 0.07988000   1.008000   ; qtot 41.277342
 1078         hx     41    bbb    H10   1078 0.07988000   1.008000   ; qtot 41.357222
 1079         h1     41    bbb    H11   1079 0.10618100   1.008000   ; qtot 41.463403
 1080         h1     41    bbb    H12   1080 0.10618100   1.008000   ; qtot 41.569584
 1081         hn     41    bbb    H13   1081 0.25916100   1.008000   ; qtot 41.828745
 1082         hn     41    bbb    H25   1082 0.17125500   1.008000   ; qtot 42.000000
; residue   42 bbb rtp bbb q 1.0
 1083         n4     42    bbb     N1   1083 -0.02747900  14.010000   ; qtot 41.972521
 1084         c3     42    bbb     C1   1084 -0.05097600  12.010000   ; qtot 41.921545
 1085         c3     42    bbb     C2   1085 -0.05097600  12.010000   ; qtot 41.870569
 1086         c3     42    bbb     C3   1086 -0.18457900  12.010000   ; qtot 41.685990
 1087          c     42    bbb     C4   1087 0.67254400  12.010000   ; qtot 42.358534
 1088         c3     42    bbb     C5   1088 -0.18457900  12.010000   ; qtot 42.173955
 1089          c     42    bbb     C6   1089 0.67254400  12.010000   ; qtot 42.846499
 1090         c3     42    bbb     C7   1090 -0.02083000  12.010000   ; qtot 42.825669
 1091         c3     42    bbb     C8   1091 -0.03328100  12.010000   ; qtot 42.792388
 1092          n     42    bbb     N2   1092 -0.33303000  14.010000   ; qtot 42.459358
 1093          o     42    bbb     O1   1093 -0.52917200  16.000000   ; qtot 41.930186
 1094          o     42    bbb     O2   1094 -0.52917200  16.000000   ; qtot 41.401014
 1095         hx     42    bbb     H1   1095 0.11563300   1.008000   ; qtot 41.516647
 1096         hx     42    bbb     H2   1096 0.11563300   1.008000   ; qtot 41.632280
 1097         hx     42    bbb     H3   1097 0.11563300   1.008000   ; qtot 41.747913
 1098         hx     42    bbb     H4   1098 0.11563300   1.008000   ; qtot 41.863546
 1099         hc     42    bbb     H5   1099 0.08347900   1.008000   ; qtot 41.947025
 1100         hc     42    bbb     H6   1100 0.08347900   1.008000   ; qtot 42.030504
 1101         hc     42    bbb     H7   1101 0.08347900   1.008000   ; qtot 42.113983
 1102         hc     42    bbb     H8   1102 0.08347900   1.008000   ; qtot 42.197462
 1103         hx     42    bbb     H9   1103 0.07988000   1.008000   ; qtot 42.277342
 1104         hx     42    bbb    H10   1104 0.07988000   1.008000   ; qtot 42.357222
 1105         h1     42    bbb    H11   1105 0.10618100   1.008000   ; qtot 42.463403
 1106         h1     42    bbb    H12   1106 0.10618100   1.008000   ; qtot 42.569584
 1107         hn     42    bbb    H13   1107 0.25916100   1.008000   ; qtot 42.828745
 1108         hn     42    bbb    H25   1108 0.17125500   1.008000   ; qtot 43.000000
; residue   43 bbb rtp bbb q 1.0
 1109         n4     43    bbb     N1   1109 -0.02747900  14.010000   ; qtot 42.972521
 1110         c3     43    bbb     C1   1110 -0.05097600  12.010000   ; qtot 42.921545
 1111         c3     43    bbb     C2   1111 -0.05097600  12.010000   ; qtot 42.870569
 1112         c3     43    bbb     C3   1112 -0.18457900  12.010000   ; qtot 42.685990
 1113          c     43    bbb     C4   1113 0.67254400  12.010000   ; qtot 43.358534
 1114         c3     43    bbb     C5   1114 -0.18457900  12.010000   ; qtot 43.173955
 1115          c     43    bbb     C6   1115 0.67254400  12.010000   ; qtot 43.846499
 1116         c3     43    bbb     C7   1116 -0.02083000  12.010000   ; qtot 43.825669
 1117         c3     43    bbb     C8   1117 -0.03328100  12.010000   ; qtot 43.792388
 1118          n     43    bbb     N2   1118 -0.33303000  14.010000   ; qtot 43.459358
 1119          o     43    bbb     O1   1119 -0.52917200  16.000000   ; qtot 42.930186
 1120          o     43    bbb     O2   1120 -0.52917200  16.000000   ; qtot 42.401014
 1121         hx     43    bbb     H1   1121 0.11563300   1.008000   ; qtot 42.516647
 1122         hx     43    bbb     H2   1122 0.11563300   1.008000   ; qtot 42.632280
 1123         hx     43    bbb     H3   1123 0.11563300   1.008000   ; qtot 42.747913
 1124         hx     43    bbb     H4   1124 0.11563300   1.008000   ; qtot 42.863546
 1125         hc     43    bbb     H5   1125 0.08347900   1.008000   ; qtot 42.947025
 1126         hc     43    bbb     H6   1126 0.08347900   1.008000   ; qtot 43.030504
 1127         hc     43    bbb     H7   1127 0.08347900   1.008000   ; qtot 43.113983
 1128         hc     43    bbb     H8   1128 0.08347900   1.008000   ; qtot 43.197462
 1129         hx     43    bbb     H9   1129 0.07988000   1.008000   ; qtot 43.277342
 1130         hx     43    bbb    H10   1130 0.07988000   1.008000   ; qtot 43.357222
 1131         h1     43    bbb    H11   1131 0.10618100   1.008000   ; qtot 43.463403
 1132         h1     43    bbb    H12   1132 0.10618100   1.008000   ; qtot 43.569584
 1133         hn     43    bbb    H13   1133 0.25916100   1.008000   ; qtot 43.828745
 1134         hn     43    bbb    H25   1134 0.17125500   1.008000   ; qtot 44.000000
; residue   44 bbb rtp bbb q 1.0
 1135         n4     44    bbb     N1   1135 -0.02747900  14.010000   ; qtot 43.972521
 1136         c3     44    bbb     C1   1136 -0.05097600  12.010000   ; qtot 43.921545
 1137         c3     44    bbb     C2   1137 -0.05097600  12.010000   ; qtot 43.870569
 1138         c3     44    bbb     C3   1138 -0.18457900  12.010000   ; qtot 43.685990
 1139          c     44    bbb     C4   1139 0.67254400  12.010000   ; qtot 44.358534
 1140         c3     44    bbb     C5   1140 -0.18457900  12.010000   ; qtot 44.173955
 1141          c     44    bbb     C6   1141 0.67254400  12.010000   ; qtot 44.846499
 1142         c3     44    bbb     C7   1142 -0.02083000  12.010000   ; qtot 44.825669
 1143         c3     44    bbb     C8   1143 -0.03328100  12.010000   ; qtot 44.792388
 1144          n     44    bbb     N2   1144 -0.33303000  14.010000   ; qtot 44.459358
 1145          o     44    bbb     O1   1145 -0.52917200  16.000000   ; qtot 43.930186
 1146          o     44    bbb     O2   1146 -0.52917200  16.000000   ; qtot 43.401014
 1147         hx     44    bbb     H1   1147 0.11563300   1.008000   ; qtot 43.516647
 1148         hx     44    bbb     H2   1148 0.11563300   1.008000   ; qtot 43.632280
 1149         hx     44    bbb     H3   1149 0.11563300   1.008000   ; qtot 43.747913
 1150         hx     44    bbb     H4   1150 0.11563300   1.008000   ; qtot 43.863546
 1151         hc     44    bbb     H5   1151 0.08347900   1.008000   ; qtot 43.947025
 1152         hc     44    bbb     H6   1152 0.08347900   1.008000   ; qtot 44.030504
 1153         hc     44    bbb     H7   1153 0.08347900   1.008000   ; qtot 44.113983
 1154         hc     44    bbb     H8   1154 0.08347900   1.008000   ; qtot 44.197462
 1155         hx     44    bbb     H9   1155 0.07988000   1.008000   ; qtot 44.277342
 1156         hx     44    bbb    H10   1156 0.07988000   1.008000   ; qtot 44.357222
 1157         h1     44    bbb    H11   1157 0.10618100   1.008000   ; qtot 44.463403
 1158         h1     44    bbb    H12   1158 0.10618100   1.008000   ; qtot 44.569584
 1159         hn     44    bbb    H13   1159 0.25916100   1.008000   ; qtot 44.828745
 1160         hn     44    bbb    H25   1160 0.17125500   1.008000   ; qtot 45.000000
; residue   45 bbb rtp bbb q 1.0
 1161         n4     45    bbb     N1   1161 -0.02747900  14.010000   ; qtot 44.972521
 1162         c3     45    bbb     C1   1162 -0.05097600  12.010000   ; qtot 44.921545
 1163         c3     45    bbb     C2   1163 -0.05097600  12.010000   ; qtot 44.870569
 1164         c3     45    bbb     C3   1164 -0.18457900  12.010000   ; qtot 44.685990
 1165          c     45    bbb     C4   1165 0.67254400  12.010000   ; qtot 45.358534
 1166         c3     45    bbb     C5   1166 -0.18457900  12.010000   ; qtot 45.173955
 1167          c     45    bbb     C6   1167 0.67254400  12.010000   ; qtot 45.846499
 1168         c3     45    bbb     C7   1168 -0.02083000  12.010000   ; qtot 45.825669
 1169         c3     45    bbb     C8   1169 -0.03328100  12.010000   ; qtot 45.792388
 1170          n     45    bbb     N2   1170 -0.33303000  14.010000   ; qtot 45.459358
 1171          o     45    bbb     O1   1171 -0.52917200  16.000000   ; qtot 44.930186
 1172          o     45    bbb     O2   1172 -0.52917200  16.000000   ; qtot 44.401014
 1173         hx     45    bbb     H1   1173 0.11563300   1.008000   ; qtot 44.516647
 1174         hx     45    bbb     H2   1174 0.11563300   1.008000   ; qtot 44.632280
 1175         hx     45    bbb     H3   1175 0.11563300   1.008000   ; qtot 44.747913
 1176         hx     45    bbb     H4   1176 0.11563300   1.008000   ; qtot 44.863546
 1177         hc     45    bbb     H5   1177 0.08347900   1.008000   ; qtot 44.947025
 1178         hc     45    bbb     H6   1178 0.08347900   1.008000   ; qtot 45.030504
 1179         hc     45    bbb     H7   1179 0.08347900   1.008000   ; qtot 45.113983
 1180         hc     45    bbb     H8   1180 0.08347900   1.008000   ; qtot 45.197462
 1181         hx     45    bbb     H9   1181 0.07988000   1.008000   ; qtot 45.277342
 1182         hx     45    bbb    H10   1182 0.07988000   1.008000   ; qtot 45.357222
 1183         h1     45    bbb    H11   1183 0.10618100   1.008000   ; qtot 45.463403
 1184         h1     45    bbb    H12   1184 0.10618100   1.008000   ; qtot 45.569584
 1185         hn     45    bbb    H13   1185 0.25916100   1.008000   ; qtot 45.828745
 1186         hn     45    bbb    H25   1186 0.17125500   1.008000   ; qtot 46.000000
; residue   46 bbb rtp bbb q 1.0
 1187         n4     46    bbb     N1   1187 -0.02747900  14.010000   ; qtot 45.972521
 1188         c3     46    bbb     C1   1188 -0.05097600  12.010000   ; qtot 45.921545
 1189         c3     46    bbb     C2   1189 -0.05097600  12.010000   ; qtot 45.870569
 1190         c3     46    bbb     C3   1190 -0.18457900  12.010000   ; qtot 45.685990
 1191          c     46    bbb     C4   1191 0.67254400  12.010000   ; qtot 46.358534
 1192         c3     46    bbb     C5   1192 -0.18457900  12.010000   ; qtot 46.173955
 1193          c     46    bbb     C6   1193 0.67254400  12.010000   ; qtot 46.846499
 1194         c3     46    bbb     C7   1194 -0.02083000  12.010000   ; qtot 46.825669
 1195         c3     46    bbb     C8   1195 -0.03328100  12.010000   ; qtot 46.792388
 1196          n     46    bbb     N2   1196 -0.33303000  14.010000   ; qtot 46.459358
 1197          o     46    bbb     O1   1197 -0.52917200  16.000000   ; qtot 45.930186
 1198          o     46    bbb     O2   1198 -0.52917200  16.000000   ; qtot 45.401014
 1199         hx     46    bbb     H1   1199 0.11563300   1.008000   ; qtot 45.516647
 1200         hx     46    bbb     H2   1200 0.11563300   1.008000   ; qtot 45.632280
 1201         hx     46    bbb     H3   1201 0.11563300   1.008000   ; qtot 45.747913
 1202         hx     46    bbb     H4   1202 0.11563300   1.008000   ; qtot 45.863546
 1203         hc     46    bbb     H5   1203 0.08347900   1.008000   ; qtot 45.947025
 1204         hc     46    bbb     H6   1204 0.08347900   1.008000   ; qtot 46.030504
 1205         hc     46    bbb     H7   1205 0.08347900   1.008000   ; qtot 46.113983
 1206         hc     46    bbb     H8   1206 0.08347900   1.008000   ; qtot 46.197462
 1207         hx     46    bbb     H9   1207 0.07988000   1.008000   ; qtot 46.277342
 1208         hx     46    bbb    H10   1208 0.07988000   1.008000   ; qtot 46.357222
 1209         h1     46    bbb    H11   1209 0.10618100   1.008000   ; qtot 46.463403
 1210         h1     46    bbb    H12   1210 0.10618100   1.008000   ; qtot 46.569584
 1211         hn     46    bbb    H13   1211 0.25916100   1.008000   ; qtot 46.828745
 1212         hn     46    bbb    H25   1212 0.17125500   1.008000   ; qtot 47.000000
; residue   47 bbb rtp bbb q 1.0
 1213         n4     47    bbb     N1   1213 -0.02747900  14.010000   ; qtot 46.972521
 1214         c3     47    bbb     C1   1214 -0.05097600  12.010000   ; qtot 46.921545
 1215         c3     47    bbb     C2   1215 -0.05097600  12.010000   ; qtot 46.870569
 1216         c3     47    bbb     C3   1216 -0.18457900  12.010000   ; qtot 46.685990
 1217          c     47    bbb     C4   1217 0.67254400  12.010000   ; qtot 47.358534
 1218         c3     47    bbb     C5   1218 -0.18457900  12.010000   ; qtot 47.173955
 1219          c     47    bbb     C6   1219 0.67254400  12.010000   ; qtot 47.846499
 1220         c3     47    bbb     C7   1220 -0.02083000  12.010000   ; qtot 47.825669
 1221         c3     47    bbb     C8   1221 -0.03328100  12.010000   ; qtot 47.792388
 1222          n     47    bbb     N2   1222 -0.33303000  14.010000   ; qtot 47.459358
 1223          o     47    bbb     O1   1223 -0.52917200  16.000000   ; qtot 46.930186
 1224          o     47    bbb     O2   1224 -0.52917200  16.000000   ; qtot 46.401014
 1225         hx     47    bbb     H1   1225 0.11563300   1.008000   ; qtot 46.516647
 1226         hx     47    bbb     H2   1226 0.11563300   1.008000   ; qtot 46.632280
 1227         hx     47    bbb     H3   1227 0.11563300   1.008000   ; qtot 46.747913
 1228         hx     47    bbb     H4   1228 0.11563300   1.008000   ; qtot 46.863546
 1229         hc     47    bbb     H5   1229 0.08347900   1.008000   ; qtot 46.947025
 1230         hc     47    bbb     H6   1230 0.08347900   1.008000   ; qtot 47.030504
 1231         hc     47    bbb     H7   1231 0.08347900   1.008000   ; qtot 47.113983
 1232         hc     47    bbb     H8   1232 0.08347900   1.008000   ; qtot 47.197462
 1233         hx     47    bbb     H9   1233 0.07988000   1.008000   ; qtot 47.277342
 1234         hx     47    bbb    H10   1234 0.07988000   1.008000   ; qtot 47.357222
 1235         h1     47    bbb    H11   1235 0.10618100   1.008000   ; qtot 47.463403
 1236         h1     47    bbb    H12   1236 0.10618100   1.008000   ; qtot 47.569584
 1237         hn     47    bbb    H13   1237 0.25916100   1.008000   ; qtot 47.828745
 1238         hn     47    bbb    H25   1238 0.17125500   1.008000   ; qtot 48.000000
; residue   48 bbb rtp bbb q 1.0
 1239         n4     48    bbb     N1   1239 -0.02747900  14.010000   ; qtot 47.972521
 1240         c3     48    bbb     C1   1240 -0.05097600  12.010000   ; qtot 47.921545
 1241         c3     48    bbb     C2   1241 -0.05097600  12.010000   ; qtot 47.870569
 1242         c3     48    bbb     C3   1242 -0.18457900  12.010000   ; qtot 47.685990
 1243          c     48    bbb     C4   1243 0.67254400  12.010000   ; qtot 48.358534
 1244         c3     48    bbb     C5   1244 -0.18457900  12.010000   ; qtot 48.173955
 1245          c     48    bbb     C6   1245 0.67254400  12.010000   ; qtot 48.846499
 1246         c3     48    bbb     C7   1246 -0.02083000  12.010000   ; qtot 48.825669
 1247         c3     48    bbb     C8   1247 -0.03328100  12.010000   ; qtot 48.792388
 1248          n     48    bbb     N2   1248 -0.33303000  14.010000   ; qtot 48.459358
 1249          o     48    bbb     O1   1249 -0.52917200  16.000000   ; qtot 47.930186
 1250          o     48    bbb     O2   1250 -0.52917200  16.000000   ; qtot 47.401014
 1251         hx     48    bbb     H1   1251 0.11563300   1.008000   ; qtot 47.516647
 1252         hx     48    bbb     H2   1252 0.11563300   1.008000   ; qtot 47.632280
 1253         hx     48    bbb     H3   1253 0.11563300   1.008000   ; qtot 47.747913
 1254         hx     48    bbb     H4   1254 0.11563300   1.008000   ; qtot 47.863546
 1255         hc     48    bbb     H5   1255 0.08347900   1.008000   ; qtot 47.947025
 1256         hc     48    bbb     H6   1256 0.08347900   1.008000   ; qtot 48.030504
 1257         hc     48    bbb     H7   1257 0.08347900   1.008000   ; qtot 48.113983
 1258         hc     48    bbb     H8   1258 0.08347900   1.008000   ; qtot 48.197462
 1259         hx     48    bbb     H9   1259 0.07988000   1.008000   ; qtot 48.277342
 1260         hx     48    bbb    H10   1260 0.07988000   1.008000   ; qtot 48.357222
 1261         h1     48    bbb    H11   1261 0.10618100   1.008000   ; qtot 48.463403
 1262         h1     48    bbb    H12   1262 0.10618100   1.008000   ; qtot 48.569584
 1263         hn     48    bbb    H13   1263 0.25916100   1.008000   ; qtot 48.828745
 1264         hn     48    bbb    H25   1264 0.17125500   1.008000   ; qtot 49.000000
; residue   49 bbb rtp bbb q 1.0
 1265         n4     49    bbb     N1   1265 -0.02747900  14.010000   ; qtot 48.972521
 1266         c3     49    bbb     C1   1266 -0.05097600  12.010000   ; qtot 48.921545
 1267         c3     49    bbb     C2   1267 -0.05097600  12.010000   ; qtot 48.870569
 1268         c3     49    bbb     C3   1268 -0.18457900  12.010000   ; qtot 48.685990
 1269          c     49    bbb     C4   1269 0.67254400  12.010000   ; qtot 49.358534
 1270         c3     49    bbb     C5   1270 -0.18457900  12.010000   ; qtot 49.173955
 1271          c     49    bbb     C6   1271 0.67254400  12.010000   ; qtot 49.846499
 1272         c3     49    bbb     C7   1272 -0.02083000  12.010000   ; qtot 49.825669
 1273         c3     49    bbb     C8   1273 -0.03328100  12.010000   ; qtot 49.792388
 1274          n     49    bbb     N2   1274 -0.33303000  14.010000   ; qtot 49.459358
 1275          o     49    bbb     O1   1275 -0.52917200  16.000000   ; qtot 48.930186
 1276          o     49    bbb     O2   1276 -0.52917200  16.000000   ; qtot 48.401014
 1277         hx     49    bbb     H1   1277 0.11563300   1.008000   ; qtot 48.516647
 1278         hx     49    bbb     H2   1278 0.11563300   1.008000   ; qtot 48.632280
 1279         hx     49    bbb     H3   1279 0.11563300   1.008000   ; qtot 48.747913
 1280         hx     49    bbb     H4   1280 0.11563300   1.008000   ; qtot 48.863546
 1281         hc     49    bbb     H5   1281 0.08347900   1.008000   ; qtot 48.947025
 1282         hc     49    bbb     H6   1282 0.08347900   1.008000   ; qtot 49.030504
 1283         hc     49    bbb     H7   1283 0.08347900   1.008000   ; qtot 49.113983
 1284         hc     49    bbb     H8   1284 0.08347900   1.008000   ; qtot 49.197462
 1285         hx     49    bbb     H9   1285 0.07988000   1.008000   ; qtot 49.277342
 1286         hx     49    bbb    H10   1286 0.07988000   1.008000   ; qtot 49.357222
 1287         h1     49    bbb    H11   1287 0.10618100   1.008000   ; qtot 49.463403
 1288         h1     49    bbb    H12   1288 0.10618100   1.008000   ; qtot 49.569584
 1289         hn     49    bbb    H13   1289 0.25916100   1.008000   ; qtot 49.828745
 1290         hn     49    bbb    H25   1290 0.17125500   1.008000   ; qtot 50.000000
; residue   50 bbb rtp bbb q 1.0
 1291         n4     50    bbb     N1   1291 -0.02747900  14.010000   ; qtot 49.972521
 1292         c3     50    bbb     C1   1292 -0.05097600  12.010000   ; qtot 49.921545
 1293         c3     50    bbb     C2   1293 -0.05097600  12.010000   ; qtot 49.870569
 1294         c3     50    bbb     C3   1294 -0.18457900  12.010000   ; qtot 49.685990
 1295          c     50    bbb     C4   1295 0.67254400  12.010000   ; qtot 50.358534
 1296         c3     50    bbb     C5   1296 -0.18457900  12.010000   ; qtot 50.173955
 1297          c     50    bbb     C6   1297 0.67254400  12.010000   ; qtot 50.846499
 1298         c3     50    bbb     C7   1298 -0.02083000  12.010000   ; qtot 50.825669
 1299         c3     50    bbb     C8   1299 -0.03328100  12.010000   ; qtot 50.792388
 1300          n     50    bbb     N2   1300 -0.33303000  14.010000   ; qtot 50.459358
 1301          o     50    bbb     O1   1301 -0.52917200  16.000000   ; qtot 49.930186
 1302          o     50    bbb     O2   1302 -0.52917200  16.000000   ; qtot 49.401014
 1303         hx     50    bbb     H1   1303 0.11563300   1.008000   ; qtot 49.516647
 1304         hx     50    bbb     H2   1304 0.11563300   1.008000   ; qtot 49.632280
 1305         hx     50    bbb     H3   1305 0.11563300   1.008000   ; qtot 49.747913
 1306         hx     50    bbb     H4   1306 0.11563300   1.008000   ; qtot 49.863546
 1307         hc     50    bbb     H5   1307 0.08347900   1.008000   ; qtot 49.947025
 1308         hc     50    bbb     H6   1308 0.08347900   1.008000   ; qtot 50.030504
 1309         hc     50    bbb     H7   1309 0.08347900   1.008000   ; qtot 50.113983
 1310         hc     50    bbb     H8   1310 0.08347900   1.008000   ; qtot 50.197462
 1311         hx     50    bbb     H9   1311 0.07988000   1.008000   ; qtot 50.277342
 1312         hx     50    bbb    H10   1312 0.07988000   1.008000   ; qtot 50.357222
 1313         h1     50    bbb    H11   1313 0.10618100   1.008000   ; qtot 50.463403
 1314         h1     50    bbb    H12   1314 0.10618100   1.008000   ; qtot 50.569584
 1315         hn     50    bbb    H13   1315 0.25916100   1.008000   ; qtot 50.828745
 1316         hn     50    bbb    H25   1316 0.17125500   1.008000   ; qtot 51.000000
; residue   51 bbb rtp bbb q 1.0
 1317         n4     51    bbb     N1   1317 -0.02747900  14.010000   ; qtot 50.972521
 1318         c3     51    bbb     C1   1318 -0.05097600  12.010000   ; qtot 50.921545
 1319         c3     51    bbb     C2   1319 -0.05097600  12.010000   ; qtot 50.870569
 1320         c3     51    bbb     C3   1320 -0.18457900  12.010000   ; qtot 50.685990
 1321          c     51    bbb     C4   1321 0.67254400  12.010000   ; qtot 51.358534
 1322         c3     51    bbb     C5   1322 -0.18457900  12.010000   ; qtot 51.173955
 1323          c     51    bbb     C6   1323 0.67254400  12.010000   ; qtot 51.846499
 1324         c3     51    bbb     C7   1324 -0.02083000  12.010000   ; qtot 51.825669
 1325         c3     51    bbb     C8   1325 -0.03328100  12.010000   ; qtot 51.792388
 1326          n     51    bbb     N2   1326 -0.33303000  14.010000   ; qtot 51.459358
 1327          o     51    bbb     O1   1327 -0.52917200  16.000000   ; qtot 50.930186
 1328          o     51    bbb     O2   1328 -0.52917200  16.000000   ; qtot 50.401014
 1329         hx     51    bbb     H1   1329 0.11563300   1.008000   ; qtot 50.516647
 1330         hx     51    bbb     H2   1330 0.11563300   1.008000   ; qtot 50.632280
 1331         hx     51    bbb     H3   1331 0.11563300   1.008000   ; qtot 50.747913
 1332         hx     51    bbb     H4   1332 0.11563300   1.008000   ; qtot 50.863546
 1333         hc     51    bbb     H5   1333 0.08347900   1.008000   ; qtot 50.947025
 1334         hc     51    bbb     H6   1334 0.08347900   1.008000   ; qtot 51.030504
 1335         hc     51    bbb     H7   1335 0.08347900   1.008000   ; qtot 51.113983
 1336         hc     51    bbb     H8   1336 0.08347900   1.008000   ; qtot 51.197462
 1337         hx     51    bbb     H9   1337 0.07988000   1.008000   ; qtot 51.277342
 1338         hx     51    bbb    H10   1338 0.07988000   1.008000   ; qtot 51.357222
 1339         h1     51    bbb    H11   1339 0.10618100   1.008000   ; qtot 51.463403
 1340         h1     51    bbb    H12   1340 0.10618100   1.008000   ; qtot 51.569584
 1341         hn     51    bbb    H13   1341 0.25916100   1.008000   ; qtot 51.828745
 1342         hn     51    bbb    H25   1342 0.17125500   1.008000   ; qtot 52.000000
; residue   52 bbb rtp bbb q 1.0
 1343         n4     52    bbb     N1   1343 -0.02747900  14.010000   ; qtot 51.972521
 1344         c3     52    bbb     C1   1344 -0.05097600  12.010000   ; qtot 51.921545
 1345         c3     52    bbb     C2   1345 -0.05097600  12.010000   ; qtot 51.870569
 1346         c3     52    bbb     C3   1346 -0.18457900  12.010000   ; qtot 51.685990
 1347          c     52    bbb     C4   1347 0.67254400  12.010000   ; qtot 52.358534
 1348         c3     52    bbb     C5   1348 -0.18457900  12.010000   ; qtot 52.173955
 1349          c     52    bbb     C6   1349 0.67254400  12.010000   ; qtot 52.846499
 1350         c3     52    bbb     C7   1350 -0.02083000  12.010000   ; qtot 52.825669
 1351         c3     52    bbb     C8   1351 -0.03328100  12.010000   ; qtot 52.792388
 1352          n     52    bbb     N2   1352 -0.33303000  14.010000   ; qtot 52.459358
 1353          o     52    bbb     O1   1353 -0.52917200  16.000000   ; qtot 51.930186
 1354          o     52    bbb     O2   1354 -0.52917200  16.000000   ; qtot 51.401014
 1355         hx     52    bbb     H1   1355 0.11563300   1.008000   ; qtot 51.516647
 1356         hx     52    bbb     H2   1356 0.11563300   1.008000   ; qtot 51.632280
 1357         hx     52    bbb     H3   1357 0.11563300   1.008000   ; qtot 51.747913
 1358         hx     52    bbb     H4   1358 0.11563300   1.008000   ; qtot 51.863546
 1359         hc     52    bbb     H5   1359 0.08347900   1.008000   ; qtot 51.947025
 1360         hc     52    bbb     H6   1360 0.08347900   1.008000   ; qtot 52.030504
 1361         hc     52    bbb     H7   1361 0.08347900   1.008000   ; qtot 52.113983
 1362         hc     52    bbb     H8   1362 0.08347900   1.008000   ; qtot 52.197462
 1363         hx     52    bbb     H9   1363 0.07988000   1.008000   ; qtot 52.277342
 1364         hx     52    bbb    H10   1364 0.07988000   1.008000   ; qtot 52.357222
 1365         h1     52    bbb    H11   1365 0.10618100   1.008000   ; qtot 52.463403
 1366         h1     52    bbb    H12   1366 0.10618100   1.008000   ; qtot 52.569584
 1367         hn     52    bbb    H13   1367 0.25916100   1.008000   ; qtot 52.828745
 1368         hn     52    bbb    H25   1368 0.17125500   1.008000   ; qtot 53.000000
; residue   53 bbb rtp bbb q 1.0
 1369         n4     53    bbb     N1   1369 -0.02747900  14.010000   ; qtot 52.972521
 1370         c3     53    bbb     C1   1370 -0.05097600  12.010000   ; qtot 52.921545
 1371         c3     53    bbb     C2   1371 -0.05097600  12.010000   ; qtot 52.870569
 1372         c3     53    bbb     C3   1372 -0.18457900  12.010000   ; qtot 52.685990
 1373          c     53    bbb     C4   1373 0.67254400  12.010000   ; qtot 53.358534
 1374         c3     53    bbb     C5   1374 -0.18457900  12.010000   ; qtot 53.173955
 1375          c     53    bbb     C6   1375 0.67254400  12.010000   ; qtot 53.846499
 1376         c3     53    bbb     C7   1376 -0.02083000  12.010000   ; qtot 53.825669
 1377         c3     53    bbb     C8   1377 -0.03328100  12.010000   ; qtot 53.792388
 1378          n     53    bbb     N2   1378 -0.33303000  14.010000   ; qtot 53.459358
 1379          o     53    bbb     O1   1379 -0.52917200  16.000000   ; qtot 52.930186
 1380          o     53    bbb     O2   1380 -0.52917200  16.000000   ; qtot 52.401014
 1381         hx     53    bbb     H1   1381 0.11563300   1.008000   ; qtot 52.516647
 1382         hx     53    bbb     H2   1382 0.11563300   1.008000   ; qtot 52.632280
 1383         hx     53    bbb     H3   1383 0.11563300   1.008000   ; qtot 52.747913
 1384         hx     53    bbb     H4   1384 0.11563300   1.008000   ; qtot 52.863546
 1385         hc     53    bbb     H5   1385 0.08347900   1.008000   ; qtot 52.947025
 1386         hc     53    bbb     H6   1386 0.08347900   1.008000   ; qtot 53.030504
 1387         hc     53    bbb     H7   1387 0.08347900   1.008000   ; qtot 53.113983
 1388         hc     53    bbb     H8   1388 0.08347900   1.008000   ; qtot 53.197462
 1389         hx     53    bbb     H9   1389 0.07988000   1.008000   ; qtot 53.277342
 1390         hx     53    bbb    H10   1390 0.07988000   1.008000   ; qtot 53.357222
 1391         h1     53    bbb    H11   1391 0.10618100   1.008000   ; qtot 53.463403
 1392         h1     53    bbb    H12   1392 0.10618100   1.008000   ; qtot 53.569584
 1393         hn     53    bbb    H13   1393 0.25916100   1.008000   ; qtot 53.828745
 1394         hn     53    bbb    H25   1394 0.17125500   1.008000   ; qtot 54.000000
; residue   54 bbb rtp bbb q 1.0
 1395         n4     54    bbb     N1   1395 -0.02747900  14.010000   ; qtot 53.972521
 1396         c3     54    bbb     C1   1396 -0.05097600  12.010000   ; qtot 53.921545
 1397         c3     54    bbb     C2   1397 -0.05097600  12.010000   ; qtot 53.870569
 1398         c3     54    bbb     C3   1398 -0.18457900  12.010000   ; qtot 53.685990
 1399          c     54    bbb     C4   1399 0.67254400  12.010000   ; qtot 54.358534
 1400         c3     54    bbb     C5   1400 -0.18457900  12.010000   ; qtot 54.173955
 1401          c     54    bbb     C6   1401 0.67254400  12.010000   ; qtot 54.846499
 1402         c3     54    bbb     C7   1402 -0.02083000  12.010000   ; qtot 54.825669
 1403         c3     54    bbb     C8   1403 -0.03328100  12.010000   ; qtot 54.792388
 1404          n     54    bbb     N2   1404 -0.33303000  14.010000   ; qtot 54.459358
 1405          o     54    bbb     O1   1405 -0.52917200  16.000000   ; qtot 53.930186
 1406          o     54    bbb     O2   1406 -0.52917200  16.000000   ; qtot 53.401014
 1407         hx     54    bbb     H1   1407 0.11563300   1.008000   ; qtot 53.516647
 1408         hx     54    bbb     H2   1408 0.11563300   1.008000   ; qtot 53.632280
 1409         hx     54    bbb     H3   1409 0.11563300   1.008000   ; qtot 53.747913
 1410         hx     54    bbb     H4   1410 0.11563300   1.008000   ; qtot 53.863546
 1411         hc     54    bbb     H5   1411 0.08347900   1.008000   ; qtot 53.947025
 1412         hc     54    bbb     H6   1412 0.08347900   1.008000   ; qtot 54.030504
 1413         hc     54    bbb     H7   1413 0.08347900   1.008000   ; qtot 54.113983
 1414         hc     54    bbb     H8   1414 0.08347900   1.008000   ; qtot 54.197462
 1415         hx     54    bbb     H9   1415 0.07988000   1.008000   ; qtot 54.277342
 1416         hx     54    bbb    H10   1416 0.07988000   1.008000   ; qtot 54.357222
 1417         h1     54    bbb    H11   1417 0.10618100   1.008000   ; qtot 54.463403
 1418         h1     54    bbb    H12   1418 0.10618100   1.008000   ; qtot 54.569584
 1419         hn     54    bbb    H13   1419 0.25916100   1.008000   ; qtot 54.828745
 1420         hn     54    bbb    H25   1420 0.17125500   1.008000   ; qtot 55.000000
; residue   55 bbb rtp bbb q 1.0
 1421         n4     55    bbb     N1   1421 -0.02747900  14.010000   ; qtot 54.972521
 1422         c3     55    bbb     C1   1422 -0.05097600  12.010000   ; qtot 54.921545
 1423         c3     55    bbb     C2   1423 -0.05097600  12.010000   ; qtot 54.870569
 1424         c3     55    bbb     C3   1424 -0.18457900  12.010000   ; qtot 54.685990
 1425          c     55    bbb     C4   1425 0.67254400  12.010000   ; qtot 55.358534
 1426         c3     55    bbb     C5   1426 -0.18457900  12.010000   ; qtot 55.173955
 1427          c     55    bbb     C6   1427 0.67254400  12.010000   ; qtot 55.846499
 1428         c3     55    bbb     C7   1428 -0.02083000  12.010000   ; qtot 55.825669
 1429         c3     55    bbb     C8   1429 -0.03328100  12.010000   ; qtot 55.792388
 1430          n     55    bbb     N2   1430 -0.33303000  14.010000   ; qtot 55.459358
 1431          o     55    bbb     O1   1431 -0.52917200  16.000000   ; qtot 54.930186
 1432          o     55    bbb     O2   1432 -0.52917200  16.000000   ; qtot 54.401014
 1433         hx     55    bbb     H1   1433 0.11563300   1.008000   ; qtot 54.516647
 1434         hx     55    bbb     H2   1434 0.11563300   1.008000   ; qtot 54.632280
 1435         hx     55    bbb     H3   1435 0.11563300   1.008000   ; qtot 54.747913
 1436         hx     55    bbb     H4   1436 0.11563300   1.008000   ; qtot 54.863546
 1437         hc     55    bbb     H5   1437 0.08347900   1.008000   ; qtot 54.947025
 1438         hc     55    bbb     H6   1438 0.08347900   1.008000   ; qtot 55.030504
 1439         hc     55    bbb     H7   1439 0.08347900   1.008000   ; qtot 55.113983
 1440         hc     55    bbb     H8   1440 0.08347900   1.008000   ; qtot 55.197462
 1441         hx     55    bbb     H9   1441 0.07988000   1.008000   ; qtot 55.277342
 1442         hx     55    bbb    H10   1442 0.07988000   1.008000   ; qtot 55.357222
 1443         h1     55    bbb    H11   1443 0.10618100   1.008000   ; qtot 55.463403
 1444         h1     55    bbb    H12   1444 0.10618100   1.008000   ; qtot 55.569584
 1445         hn     55    bbb    H13   1445 0.25916100   1.008000   ; qtot 55.828745
 1446         hn     55    bbb    H25   1446 0.17125500   1.008000   ; qtot 56.000000
; residue   56 bbb rtp bbb q 1.0
 1447         n4     56    bbb     N1   1447 -0.02747900  14.010000   ; qtot 55.972521
 1448         c3     56    bbb     C1   1448 -0.05097600  12.010000   ; qtot 55.921545
 1449         c3     56    bbb     C2   1449 -0.05097600  12.010000   ; qtot 55.870569
 1450         c3     56    bbb     C3   1450 -0.18457900  12.010000   ; qtot 55.685990
 1451          c     56    bbb     C4   1451 0.67254400  12.010000   ; qtot 56.358534
 1452         c3     56    bbb     C5   1452 -0.18457900  12.010000   ; qtot 56.173955
 1453          c     56    bbb     C6   1453 0.67254400  12.010000   ; qtot 56.846499
 1454         c3     56    bbb     C7   1454 -0.02083000  12.010000   ; qtot 56.825669
 1455         c3     56    bbb     C8   1455 -0.03328100  12.010000   ; qtot 56.792388
 1456          n     56    bbb     N2   1456 -0.33303000  14.010000   ; qtot 56.459358
 1457          o     56    bbb     O1   1457 -0.52917200  16.000000   ; qtot 55.930186
 1458          o     56    bbb     O2   1458 -0.52917200  16.000000   ; qtot 55.401014
 1459         hx     56    bbb     H1   1459 0.11563300   1.008000   ; qtot 55.516647
 1460         hx     56    bbb     H2   1460 0.11563300   1.008000   ; qtot 55.632280
 1461         hx     56    bbb     H3   1461 0.11563300   1.008000   ; qtot 55.747913
 1462         hx     56    bbb     H4   1462 0.11563300   1.008000   ; qtot 55.863546
 1463         hc     56    bbb     H5   1463 0.08347900   1.008000   ; qtot 55.947025
 1464         hc     56    bbb     H6   1464 0.08347900   1.008000   ; qtot 56.030504
 1465         hc     56    bbb     H7   1465 0.08347900   1.008000   ; qtot 56.113983
 1466         hc     56    bbb     H8   1466 0.08347900   1.008000   ; qtot 56.197462
 1467         hx     56    bbb     H9   1467 0.07988000   1.008000   ; qtot 56.277342
 1468         hx     56    bbb    H10   1468 0.07988000   1.008000   ; qtot 56.357222
 1469         h1     56    bbb    H11   1469 0.10618100   1.008000   ; qtot 56.463403
 1470         h1     56    bbb    H12   1470 0.10618100   1.008000   ; qtot 56.569584
 1471         hn     56    bbb    H13   1471 0.25916100   1.008000   ; qtot 56.828745
 1472         hn     56    bbb    H25   1472 0.17125500   1.008000   ; qtot 57.000000
; residue   57 bbb rtp bbb q 1.0
 1473         n4     57    bbb     N1   1473 -0.02747900  14.010000   ; qtot 56.972521
 1474         c3     57    bbb     C1   1474 -0.05097600  12.010000   ; qtot 56.921545
 1475         c3     57    bbb     C2   1475 -0.05097600  12.010000   ; qtot 56.870569
 1476         c3     57    bbb     C3   1476 -0.18457900  12.010000   ; qtot 56.685990
 1477          c     57    bbb     C4   1477 0.67254400  12.010000   ; qtot 57.358534
 1478         c3     57    bbb     C5   1478 -0.18457900  12.010000   ; qtot 57.173955
 1479          c     57    bbb     C6   1479 0.67254400  12.010000   ; qtot 57.846499
 1480         c3     57    bbb     C7   1480 -0.02083000  12.010000   ; qtot 57.825669
 1481         c3     57    bbb     C8   1481 -0.03328100  12.010000   ; qtot 57.792388
 1482          n     57    bbb     N2   1482 -0.33303000  14.010000   ; qtot 57.459358
 1483          o     57    bbb     O1   1483 -0.52917200  16.000000   ; qtot 56.930186
 1484          o     57    bbb     O2   1484 -0.52917200  16.000000   ; qtot 56.401014
 1485         hx     57    bbb     H1   1485 0.11563300   1.008000   ; qtot 56.516647
 1486         hx     57    bbb     H2   1486 0.11563300   1.008000   ; qtot 56.632280
 1487         hx     57    bbb     H3   1487 0.11563300   1.008000   ; qtot 56.747913
 1488         hx     57    bbb     H4   1488 0.11563300   1.008000   ; qtot 56.863546
 1489         hc     57    bbb     H5   1489 0.08347900   1.008000   ; qtot 56.947025
 1490         hc     57    bbb     H6   1490 0.08347900   1.008000   ; qtot 57.030504
 1491         hc     57    bbb     H7   1491 0.08347900   1.008000   ; qtot 57.113983
 1492         hc     57    bbb     H8   1492 0.08347900   1.008000   ; qtot 57.197462
 1493         hx     57    bbb     H9   1493 0.07988000   1.008000   ; qtot 57.277342
 1494         hx     57    bbb    H10   1494 0.07988000   1.008000   ; qtot 57.357222
 1495         h1     57    bbb    H11   1495 0.10618100   1.008000   ; qtot 57.463403
 1496         h1     57    bbb    H12   1496 0.10618100   1.008000   ; qtot 57.569584
 1497         hn     57    bbb    H13   1497 0.25916100   1.008000   ; qtot 57.828745
 1498         hn     57    bbb    H25   1498 0.17125500   1.008000   ; qtot 58.000000
; residue   58 bbb rtp bbb q 1.0
 1499         n4     58    bbb     N1   1499 -0.02747900  14.010000   ; qtot 57.972521
 1500         c3     58    bbb     C1   1500 -0.05097600  12.010000   ; qtot 57.921545
 1501         c3     58    bbb     C2   1501 -0.05097600  12.010000   ; qtot 57.870569
 1502         c3     58    bbb     C3   1502 -0.18457900  12.010000   ; qtot 57.685990
 1503          c     58    bbb     C4   1503 0.67254400  12.010000   ; qtot 58.358534
 1504         c3     58    bbb     C5   1504 -0.18457900  12.010000   ; qtot 58.173955
 1505          c     58    bbb     C6   1505 0.67254400  12.010000   ; qtot 58.846499
 1506         c3     58    bbb     C7   1506 -0.02083000  12.010000   ; qtot 58.825669
 1507         c3     58    bbb     C8   1507 -0.03328100  12.010000   ; qtot 58.792388
 1508          n     58    bbb     N2   1508 -0.33303000  14.010000   ; qtot 58.459358
 1509          o     58    bbb     O1   1509 -0.52917200  16.000000   ; qtot 57.930186
 1510          o     58    bbb     O2   1510 -0.52917200  16.000000   ; qtot 57.401014
 1511         hx     58    bbb     H1   1511 0.11563300   1.008000   ; qtot 57.516647
 1512         hx     58    bbb     H2   1512 0.11563300   1.008000   ; qtot 57.632280
 1513         hx     58    bbb     H3   1513 0.11563300   1.008000   ; qtot 57.747913
 1514         hx     58    bbb     H4   1514 0.11563300   1.008000   ; qtot 57.863546
 1515         hc     58    bbb     H5   1515 0.08347900   1.008000   ; qtot 57.947025
 1516         hc     58    bbb     H6   1516 0.08347900   1.008000   ; qtot 58.030504
 1517         hc     58    bbb     H7   1517 0.08347900   1.008000   ; qtot 58.113983
 1518         hc     58    bbb     H8   1518 0.08347900   1.008000   ; qtot 58.197462
 1519         hx     58    bbb     H9   1519 0.07988000   1.008000   ; qtot 58.277342
 1520         hx     58    bbb    H10   1520 0.07988000   1.008000   ; qtot 58.357222
 1521         h1     58    bbb    H11   1521 0.10618100   1.008000   ; qtot 58.463403
 1522         h1     58    bbb    H12   1522 0.10618100   1.008000   ; qtot 58.569584
 1523         hn     58    bbb    H13   1523 0.25916100   1.008000   ; qtot 58.828745
 1524         hn     58    bbb    H25   1524 0.17125500   1.008000   ; qtot 59.000000
; residue   59 bbb rtp bbb q 1.0
 1525         n4     59    bbb     N1   1525 -0.02747900  14.010000   ; qtot 58.972521
 1526         c3     59    bbb     C1   1526 -0.05097600  12.010000   ; qtot 58.921545
 1527         c3     59    bbb     C2   1527 -0.05097600  12.010000   ; qtot 58.870569
 1528         c3     59    bbb     C3   1528 -0.18457900  12.010000   ; qtot 58.685990
 1529          c     59    bbb     C4   1529 0.67254400  12.010000   ; qtot 59.358534
 1530         c3     59    bbb     C5   1530 -0.18457900  12.010000   ; qtot 59.173955
 1531          c     59    bbb     C6   1531 0.67254400  12.010000   ; qtot 59.846499
 1532         c3     59    bbb     C7   1532 -0.02083000  12.010000   ; qtot 59.825669
 1533         c3     59    bbb     C8   1533 -0.03328100  12.010000   ; qtot 59.792388
 1534          n     59    bbb     N2   1534 -0.33303000  14.010000   ; qtot 59.459358
 1535          o     59    bbb     O1   1535 -0.52917200  16.000000   ; qtot 58.930186
 1536          o     59    bbb     O2   1536 -0.52917200  16.000000   ; qtot 58.401014
 1537         hx     59    bbb     H1   1537 0.11563300   1.008000   ; qtot 58.516647
 1538         hx     59    bbb     H2   1538 0.11563300   1.008000   ; qtot 58.632280
 1539         hx     59    bbb     H3   1539 0.11563300   1.008000   ; qtot 58.747913
 1540         hx     59    bbb     H4   1540 0.11563300   1.008000   ; qtot 58.863546
 1541         hc     59    bbb     H5   1541 0.08347900   1.008000   ; qtot 58.947025
 1542         hc     59    bbb     H6   1542 0.08347900   1.008000   ; qtot 59.030504
 1543         hc     59    bbb     H7   1543 0.08347900   1.008000   ; qtot 59.113983
 1544         hc     59    bbb     H8   1544 0.08347900   1.008000   ; qtot 59.197462
 1545         hx     59    bbb     H9   1545 0.07988000   1.008000   ; qtot 59.277342
 1546         hx     59    bbb    H10   1546 0.07988000   1.008000   ; qtot 59.357222
 1547         h1     59    bbb    H11   1547 0.10618100   1.008000   ; qtot 59.463403
 1548         h1     59    bbb    H12   1548 0.10618100   1.008000   ; qtot 59.569584
 1549         hn     59    bbb    H13   1549 0.25916100   1.008000   ; qtot 59.828745
 1550         hn     59    bbb    H25   1550 0.17125500   1.008000   ; qtot 60.000000
; residue   60 bbb rtp bbb q 1.0
 1551         n4     60    bbb     N1   1551 -0.02747900  14.010000   ; qtot 59.972521
 1552         c3     60    bbb     C1   1552 -0.05097600  12.010000   ; qtot 59.921545
 1553         c3     60    bbb     C2   1553 -0.05097600  12.010000   ; qtot 59.870569
 1554         c3     60    bbb     C3   1554 -0.18457900  12.010000   ; qtot 59.685990
 1555          c     60    bbb     C4   1555 0.67254400  12.010000   ; qtot 60.358534
 1556         c3     60    bbb     C5   1556 -0.18457900  12.010000   ; qtot 60.173955
 1557          c     60    bbb     C6   1557 0.67254400  12.010000   ; qtot 60.846499
 1558         c3     60    bbb     C7   1558 -0.02083000  12.010000   ; qtot 60.825669
 1559         c3     60    bbb     C8   1559 -0.03328100  12.010000   ; qtot 60.792388
 1560          n     60    bbb     N2   1560 -0.33303000  14.010000   ; qtot 60.459358
 1561          o     60    bbb     O1   1561 -0.52917200  16.000000   ; qtot 59.930186
 1562          o     60    bbb     O2   1562 -0.52917200  16.000000   ; qtot 59.401014
 1563         hx     60    bbb     H1   1563 0.11563300   1.008000   ; qtot 59.516647
 1564         hx     60    bbb     H2   1564 0.11563300   1.008000   ; qtot 59.632280
 1565         hx     60    bbb     H3   1565 0.11563300   1.008000   ; qtot 59.747913
 1566         hx     60    bbb     H4   1566 0.11563300   1.008000   ; qtot 59.863546
 1567         hc     60    bbb     H5   1567 0.08347900   1.008000   ; qtot 59.947025
 1568         hc     60    bbb     H6   1568 0.08347900   1.008000   ; qtot 60.030504
 1569         hc     60    bbb     H7   1569 0.08347900   1.008000   ; qtot 60.113983
 1570         hc     60    bbb     H8   1570 0.08347900   1.008000   ; qtot 60.197462
 1571         hx     60    bbb     H9   1571 0.07988000   1.008000   ; qtot 60.277342
 1572         hx     60    bbb    H10   1572 0.07988000   1.008000   ; qtot 60.357222
 1573         h1     60    bbb    H11   1573 0.10618100   1.008000   ; qtot 60.463403
 1574         h1     60    bbb    H12   1574 0.10618100   1.008000   ; qtot 60.569584
 1575         hn     60    bbb    H13   1575 0.25916100   1.008000   ; qtot 60.828745
 1576         hn     60    bbb    H25   1576 0.17125500   1.008000   ; qtot 61.000000
; residue   61 bbb rtp bbb q 1.0
 1577         n4     61    bbb     N1   1577 -0.02747900  14.010000   ; qtot 60.972521
 1578         c3     61    bbb     C1   1578 -0.05097600  12.010000   ; qtot 60.921545
 1579         c3     61    bbb     C2   1579 -0.05097600  12.010000   ; qtot 60.870569
 1580         c3     61    bbb     C3   1580 -0.18457900  12.010000   ; qtot 60.685990
 1581          c     61    bbb     C4   1581 0.67254400  12.010000   ; qtot 61.358534
 1582         c3     61    bbb     C5   1582 -0.18457900  12.010000   ; qtot 61.173955
 1583          c     61    bbb     C6   1583 0.67254400  12.010000   ; qtot 61.846499
 1584         c3     61    bbb     C7   1584 -0.02083000  12.010000   ; qtot 61.825669
 1585         c3     61    bbb     C8   1585 -0.03328100  12.010000   ; qtot 61.792388
 1586          n     61    bbb     N2   1586 -0.33303000  14.010000   ; qtot 61.459358
 1587          o     61    bbb     O1   1587 -0.52917200  16.000000   ; qtot 60.930186
 1588          o     61    bbb     O2   1588 -0.52917200  16.000000   ; qtot 60.401014
 1589         hx     61    bbb     H1   1589 0.11563300   1.008000   ; qtot 60.516647
 1590         hx     61    bbb     H2   1590 0.11563300   1.008000   ; qtot 60.632280
 1591         hx     61    bbb     H3   1591 0.11563300   1.008000   ; qtot 60.747913
 1592         hx     61    bbb     H4   1592 0.11563300   1.008000   ; qtot 60.863546
 1593         hc     61    bbb     H5   1593 0.08347900   1.008000   ; qtot 60.947025
 1594         hc     61    bbb     H6   1594 0.08347900   1.008000   ; qtot 61.030504
 1595         hc     61    bbb     H7   1595 0.08347900   1.008000   ; qtot 61.113983
 1596         hc     61    bbb     H8   1596 0.08347900   1.008000   ; qtot 61.197462
 1597         hx     61    bbb     H9   1597 0.07988000   1.008000   ; qtot 61.277342
 1598         hx     61    bbb    H10   1598 0.07988000   1.008000   ; qtot 61.357222
 1599         h1     61    bbb    H11   1599 0.10618100   1.008000   ; qtot 61.463403
 1600         h1     61    bbb    H12   1600 0.10618100   1.008000   ; qtot 61.569584
 1601         hn     61    bbb    H13   1601 0.25916100   1.008000   ; qtot 61.828745
 1602         hn     61    bbb    H25   1602 0.17125500   1.008000   ; qtot 62.000000
; residue   62 bbb rtp bbb q 1.0
 1603         n4     62    bbb     N1   1603 -0.02747900  14.010000   ; qtot 61.972521
 1604         c3     62    bbb     C1   1604 -0.05097600  12.010000   ; qtot 61.921545
 1605         c3     62    bbb     C2   1605 -0.05097600  12.010000   ; qtot 61.870569
 1606         c3     62    bbb     C3   1606 -0.18457900  12.010000   ; qtot 61.685990
 1607          c     62    bbb     C4   1607 0.67254400  12.010000   ; qtot 62.358534
 1608         c3     62    bbb     C5   1608 -0.18457900  12.010000   ; qtot 62.173955
 1609          c     62    bbb     C6   1609 0.67254400  12.010000   ; qtot 62.846499
 1610         c3     62    bbb     C7   1610 -0.02083000  12.010000   ; qtot 62.825669
 1611         c3     62    bbb     C8   1611 -0.03328100  12.010000   ; qtot 62.792388
 1612          n     62    bbb     N2   1612 -0.33303000  14.010000   ; qtot 62.459358
 1613          o     62    bbb     O1   1613 -0.52917200  16.000000   ; qtot 61.930186
 1614          o     62    bbb     O2   1614 -0.52917200  16.000000   ; qtot 61.401014
 1615         hx     62    bbb     H1   1615 0.11563300   1.008000   ; qtot 61.516647
 1616         hx     62    bbb     H2   1616 0.11563300   1.008000   ; qtot 61.632280
 1617         hx     62    bbb     H3   1617 0.11563300   1.008000   ; qtot 61.747913
 1618         hx     62    bbb     H4   1618 0.11563300   1.008000   ; qtot 61.863546
 1619         hc     62    bbb     H5   1619 0.08347900   1.008000   ; qtot 61.947025
 1620         hc     62    bbb     H6   1620 0.08347900   1.008000   ; qtot 62.030504
 1621         hc     62    bbb     H7   1621 0.08347900   1.008000   ; qtot 62.113983
 1622         hc     62    bbb     H8   1622 0.08347900   1.008000   ; qtot 62.197462
 1623         hx     62    bbb     H9   1623 0.07988000   1.008000   ; qtot 62.277342
 1624         hx     62    bbb    H10   1624 0.07988000   1.008000   ; qtot 62.357222
 1625         h1     62    bbb    H11   1625 0.10618100   1.008000   ; qtot 62.463403
 1626         h1     62    bbb    H12   1626 0.10618100   1.008000   ; qtot 62.569584
 1627         hn     62    bbb    H13   1627 0.25916100   1.008000   ; qtot 62.828745
 1628         hn     62    bbb    H25   1628 0.17125500   1.008000   ; qtot 63.000000
; residue   63 bbb rtp bbb q 1.0
 1629         n4     63    bbb     N1   1629 -0.02747900  14.010000   ; qtot 62.972521
 1630         c3     63    bbb     C1   1630 -0.05097600  12.010000   ; qtot 62.921545
 1631         c3     63    bbb     C2   1631 -0.05097600  12.010000   ; qtot 62.870569
 1632         c3     63    bbb     C3   1632 -0.18457900  12.010000   ; qtot 62.685990
 1633          c     63    bbb     C4   1633 0.67254400  12.010000   ; qtot 63.358534
 1634         c3     63    bbb     C5   1634 -0.18457900  12.010000   ; qtot 63.173955
 1635          c     63    bbb     C6   1635 0.67254400  12.010000   ; qtot 63.846499
 1636         c3     63    bbb     C7   1636 -0.02083000  12.010000   ; qtot 63.825669
 1637         c3     63    bbb     C8   1637 -0.03328100  12.010000   ; qtot 63.792388
 1638          n     63    bbb     N2   1638 -0.33303000  14.010000   ; qtot 63.459358
 1639          o     63    bbb     O1   1639 -0.52917200  16.000000   ; qtot 62.930186
 1640          o     63    bbb     O2   1640 -0.52917200  16.000000   ; qtot 62.401014
 1641         hx     63    bbb     H1   1641 0.11563300   1.008000   ; qtot 62.516647
 1642         hx     63    bbb     H2   1642 0.11563300   1.008000   ; qtot 62.632280
 1643         hx     63    bbb     H3   1643 0.11563300   1.008000   ; qtot 62.747913
 1644         hx     63    bbb     H4   1644 0.11563300   1.008000   ; qtot 62.863546
 1645         hc     63    bbb     H5   1645 0.08347900   1.008000   ; qtot 62.947025
 1646         hc     63    bbb     H6   1646 0.08347900   1.008000   ; qtot 63.030504
 1647         hc     63    bbb     H7   1647 0.08347900   1.008000   ; qtot 63.113983
 1648         hc     63    bbb     H8   1648 0.08347900   1.008000   ; qtot 63.197462
 1649         hx     63    bbb     H9   1649 0.07988000   1.008000   ; qtot 63.277342
 1650         hx     63    bbb    H10   1650 0.07988000   1.008000   ; qtot 63.357222
 1651         h1     63    bbb    H11   1651 0.10618100   1.008000   ; qtot 63.463403
 1652         h1     63    bbb    H12   1652 0.10618100   1.008000   ; qtot 63.569584
 1653         hn     63    bbb    H13   1653 0.25916100   1.008000   ; qtot 63.828745
 1654         hn     63    bbb    H25   1654 0.17125500   1.008000   ; qtot 64.000000
; residue   64 bbb rtp bbb q 1.0
 1655         n4     64    bbb     N1   1655 -0.02747900  14.010000   ; qtot 63.972521
 1656         c3     64    bbb     C1   1656 -0.05097600  12.010000   ; qtot 63.921545
 1657         c3     64    bbb     C2   1657 -0.05097600  12.010000   ; qtot 63.870569
 1658         c3     64    bbb     C3   1658 -0.18457900  12.010000   ; qtot 63.685990
 1659          c     64    bbb     C4   1659 0.67254400  12.010000   ; qtot 64.358534
 1660         c3     64    bbb     C5   1660 -0.18457900  12.010000   ; qtot 64.173955
 1661          c     64    bbb     C6   1661 0.67254400  12.010000   ; qtot 64.846499
 1662         c3     64    bbb     C7   1662 -0.02083000  12.010000   ; qtot 64.825669
 1663         c3     64    bbb     C8   1663 -0.03328100  12.010000   ; qtot 64.792388
 1664          n     64    bbb     N2   1664 -0.33303000  14.010000   ; qtot 64.459358
 1665          o     64    bbb     O1   1665 -0.52917200  16.000000   ; qtot 63.930186
 1666          o     64    bbb     O2   1666 -0.52917200  16.000000   ; qtot 63.401014
 1667         hx     64    bbb     H1   1667 0.11563300   1.008000   ; qtot 63.516647
 1668         hx     64    bbb     H2   1668 0.11563300   1.008000   ; qtot 63.632280
 1669         hx     64    bbb     H3   1669 0.11563300   1.008000   ; qtot 63.747913
 1670         hx     64    bbb     H4   1670 0.11563300   1.008000   ; qtot 63.863546
 1671         hc     64    bbb     H5   1671 0.08347900   1.008000   ; qtot 63.947025
 1672         hc     64    bbb     H6   1672 0.08347900   1.008000   ; qtot 64.030504
 1673         hc     64    bbb     H7   1673 0.08347900   1.008000   ; qtot 64.113983
 1674         hc     64    bbb     H8   1674 0.08347900   1.008000   ; qtot 64.197462
 1675         hx     64    bbb     H9   1675 0.07988000   1.008000   ; qtot 64.277342
 1676         hx     64    bbb    H10   1676 0.07988000   1.008000   ; qtot 64.357222
 1677         h1     64    bbb    H11   1677 0.10618100   1.008000   ; qtot 64.463403
 1678         h1     64    bbb    H12   1678 0.10618100   1.008000   ; qtot 64.569584
 1679         hn     64    bbb    H13   1679 0.25916100   1.008000   ; qtot 64.828745
 1680         hn     64    bbb    H25   1680 0.17125500   1.008000   ; qtot 65.000000
; residue   65 bbb rtp bbb q 1.0
 1681         n4     65    bbb     N1   1681 -0.02747900  14.010000   ; qtot 64.972521
 1682         c3     65    bbb     C1   1682 -0.05097600  12.010000   ; qtot 64.921545
 1683         c3     65    bbb     C2   1683 -0.05097600  12.010000   ; qtot 64.870569
 1684         c3     65    bbb     C3   1684 -0.18457900  12.010000   ; qtot 64.685990
 1685          c     65    bbb     C4   1685 0.67254400  12.010000   ; qtot 65.358534
 1686         c3     65    bbb     C5   1686 -0.18457900  12.010000   ; qtot 65.173955
 1687          c     65    bbb     C6   1687 0.67254400  12.010000   ; qtot 65.846499
 1688         c3     65    bbb     C7   1688 -0.02083000  12.010000   ; qtot 65.825669
 1689         c3     65    bbb     C8   1689 -0.03328100  12.010000   ; qtot 65.792388
 1690          n     65    bbb     N2   1690 -0.33303000  14.010000   ; qtot 65.459358
 1691          o     65    bbb     O1   1691 -0.52917200  16.000000   ; qtot 64.930186
 1692          o     65    bbb     O2   1692 -0.52917200  16.000000   ; qtot 64.401014
 1693         hx     65    bbb     H1   1693 0.11563300   1.008000   ; qtot 64.516647
 1694         hx     65    bbb     H2   1694 0.11563300   1.008000   ; qtot 64.632280
 1695         hx     65    bbb     H3   1695 0.11563300   1.008000   ; qtot 64.747913
 1696         hx     65    bbb     H4   1696 0.11563300   1.008000   ; qtot 64.863546
 1697         hc     65    bbb     H5   1697 0.08347900   1.008000   ; qtot 64.947025
 1698         hc     65    bbb     H6   1698 0.08347900   1.008000   ; qtot 65.030504
 1699         hc     65    bbb     H7   1699 0.08347900   1.008000   ; qtot 65.113983
 1700         hc     65    bbb     H8   1700 0.08347900   1.008000   ; qtot 65.197462
 1701         hx     65    bbb     H9   1701 0.07988000   1.008000   ; qtot 65.277342
 1702         hx     65    bbb    H10   1702 0.07988000   1.008000   ; qtot 65.357222
 1703         h1     65    bbb    H11   1703 0.10618100   1.008000   ; qtot 65.463403
 1704         h1     65    bbb    H12   1704 0.10618100   1.008000   ; qtot 65.569584
 1705         hn     65    bbb    H13   1705 0.25916100   1.008000   ; qtot 65.828745
 1706         hn     65    bbb    H25   1706 0.17125500   1.008000   ; qtot 66.000000
; residue   66 bbb rtp bbb q 1.0
 1707         n4     66    bbb     N1   1707 -0.02747900  14.010000   ; qtot 65.972521
 1708         c3     66    bbb     C1   1708 -0.05097600  12.010000   ; qtot 65.921545
 1709         c3     66    bbb     C2   1709 -0.05097600  12.010000   ; qtot 65.870569
 1710         c3     66    bbb     C3   1710 -0.18457900  12.010000   ; qtot 65.685990
 1711          c     66    bbb     C4   1711 0.67254400  12.010000   ; qtot 66.358534
 1712         c3     66    bbb     C5   1712 -0.18457900  12.010000   ; qtot 66.173955
 1713          c     66    bbb     C6   1713 0.67254400  12.010000   ; qtot 66.846499
 1714         c3     66    bbb     C7   1714 -0.02083000  12.010000   ; qtot 66.825669
 1715         c3     66    bbb     C8   1715 -0.03328100  12.010000   ; qtot 66.792388
 1716          n     66    bbb     N2   1716 -0.33303000  14.010000   ; qtot 66.459358
 1717          o     66    bbb     O1   1717 -0.52917200  16.000000   ; qtot 65.930186
 1718          o     66    bbb     O2   1718 -0.52917200  16.000000   ; qtot 65.401014
 1719         hx     66    bbb     H1   1719 0.11563300   1.008000   ; qtot 65.516647
 1720         hx     66    bbb     H2   1720 0.11563300   1.008000   ; qtot 65.632280
 1721         hx     66    bbb     H3   1721 0.11563300   1.008000   ; qtot 65.747913
 1722         hx     66    bbb     H4   1722 0.11563300   1.008000   ; qtot 65.863546
 1723         hc     66    bbb     H5   1723 0.08347900   1.008000   ; qtot 65.947025
 1724         hc     66    bbb     H6   1724 0.08347900   1.008000   ; qtot 66.030504
 1725         hc     66    bbb     H7   1725 0.08347900   1.008000   ; qtot 66.113983
 1726         hc     66    bbb     H8   1726 0.08347900   1.008000   ; qtot 66.197462
 1727         hx     66    bbb     H9   1727 0.07988000   1.008000   ; qtot 66.277342
 1728         hx     66    bbb    H10   1728 0.07988000   1.008000   ; qtot 66.357222
 1729         h1     66    bbb    H11   1729 0.10618100   1.008000   ; qtot 66.463403
 1730         h1     66    bbb    H12   1730 0.10618100   1.008000   ; qtot 66.569584
 1731         hn     66    bbb    H13   1731 0.25916100   1.008000   ; qtot 66.828745
 1732         hn     66    bbb    H25   1732 0.17125500   1.008000   ; qtot 67.000000
; residue   67 bbb rtp bbb q 1.0
 1733         n4     67    bbb     N1   1733 -0.02747900  14.010000   ; qtot 66.972521
 1734         c3     67    bbb     C1   1734 -0.05097600  12.010000   ; qtot 66.921545
 1735         c3     67    bbb     C2   1735 -0.05097600  12.010000   ; qtot 66.870569
 1736         c3     67    bbb     C3   1736 -0.18457900  12.010000   ; qtot 66.685990
 1737          c     67    bbb     C4   1737 0.67254400  12.010000   ; qtot 67.358534
 1738         c3     67    bbb     C5   1738 -0.18457900  12.010000   ; qtot 67.173955
 1739          c     67    bbb     C6   1739 0.67254400  12.010000   ; qtot 67.846499
 1740         c3     67    bbb     C7   1740 -0.02083000  12.010000   ; qtot 67.825669
 1741         c3     67    bbb     C8   1741 -0.03328100  12.010000   ; qtot 67.792388
 1742          n     67    bbb     N2   1742 -0.33303000  14.010000   ; qtot 67.459358
 1743          o     67    bbb     O1   1743 -0.52917200  16.000000   ; qtot 66.930186
 1744          o     67    bbb     O2   1744 -0.52917200  16.000000   ; qtot 66.401014
 1745         hx     67    bbb     H1   1745 0.11563300   1.008000   ; qtot 66.516647
 1746         hx     67    bbb     H2   1746 0.11563300   1.008000   ; qtot 66.632280
 1747         hx     67    bbb     H3   1747 0.11563300   1.008000   ; qtot 66.747913
 1748         hx     67    bbb     H4   1748 0.11563300   1.008000   ; qtot 66.863546
 1749         hc     67    bbb     H5   1749 0.08347900   1.008000   ; qtot 66.947025
 1750         hc     67    bbb     H6   1750 0.08347900   1.008000   ; qtot 67.030504
 1751         hc     67    bbb     H7   1751 0.08347900   1.008000   ; qtot 67.113983
 1752         hc     67    bbb     H8   1752 0.08347900   1.008000   ; qtot 67.197462
 1753         hx     67    bbb     H9   1753 0.07988000   1.008000   ; qtot 67.277342
 1754         hx     67    bbb    H10   1754 0.07988000   1.008000   ; qtot 67.357222
 1755         h1     67    bbb    H11   1755 0.10618100   1.008000   ; qtot 67.463403
 1756         h1     67    bbb    H12   1756 0.10618100   1.008000   ; qtot 67.569584
 1757         hn     67    bbb    H13   1757 0.25916100   1.008000   ; qtot 67.828745
 1758         hn     67    bbb    H25   1758 0.17125500   1.008000   ; qtot 68.000000
; residue   68 bbb rtp bbb q 1.0
 1759         n4     68    bbb     N1   1759 -0.02747900  14.010000   ; qtot 67.972521
 1760         c3     68    bbb     C1   1760 -0.05097600  12.010000   ; qtot 67.921545
 1761         c3     68    bbb     C2   1761 -0.05097600  12.010000   ; qtot 67.870569
 1762         c3     68    bbb     C3   1762 -0.18457900  12.010000   ; qtot 67.685990
 1763          c     68    bbb     C4   1763 0.67254400  12.010000   ; qtot 68.358534
 1764         c3     68    bbb     C5   1764 -0.18457900  12.010000   ; qtot 68.173955
 1765          c     68    bbb     C6   1765 0.67254400  12.010000   ; qtot 68.846499
 1766         c3     68    bbb     C7   1766 -0.02083000  12.010000   ; qtot 68.825669
 1767         c3     68    bbb     C8   1767 -0.03328100  12.010000   ; qtot 68.792388
 1768          n     68    bbb     N2   1768 -0.33303000  14.010000   ; qtot 68.459358
 1769          o     68    bbb     O1   1769 -0.52917200  16.000000   ; qtot 67.930186
 1770          o     68    bbb     O2   1770 -0.52917200  16.000000   ; qtot 67.401014
 1771         hx     68    bbb     H1   1771 0.11563300   1.008000   ; qtot 67.516647
 1772         hx     68    bbb     H2   1772 0.11563300   1.008000   ; qtot 67.632280
 1773         hx     68    bbb     H3   1773 0.11563300   1.008000   ; qtot 67.747913
 1774         hx     68    bbb     H4   1774 0.11563300   1.008000   ; qtot 67.863546
 1775         hc     68    bbb     H5   1775 0.08347900   1.008000   ; qtot 67.947025
 1776         hc     68    bbb     H6   1776 0.08347900   1.008000   ; qtot 68.030504
 1777         hc     68    bbb     H7   1777 0.08347900   1.008000   ; qtot 68.113983
 1778         hc     68    bbb     H8   1778 0.08347900   1.008000   ; qtot 68.197462
 1779         hx     68    bbb     H9   1779 0.07988000   1.008000   ; qtot 68.277342
 1780         hx     68    bbb    H10   1780 0.07988000   1.008000   ; qtot 68.357222
 1781         h1     68    bbb    H11   1781 0.10618100   1.008000   ; qtot 68.463403
 1782         h1     68    bbb    H12   1782 0.10618100   1.008000   ; qtot 68.569584
 1783         hn     68    bbb    H13   1783 0.25916100   1.008000   ; qtot 68.828745
 1784         hn     68    bbb    H25   1784 0.17125500   1.008000   ; qtot 69.000000
; residue   69 bbb rtp bbb q 1.0
 1785         n4     69    bbb     N1   1785 -0.02747900  14.010000   ; qtot 68.972521
 1786         c3     69    bbb     C1   1786 -0.05097600  12.010000   ; qtot 68.921545
 1787         c3     69    bbb     C2   1787 -0.05097600  12.010000   ; qtot 68.870569
 1788         c3     69    bbb     C3   1788 -0.18457900  12.010000   ; qtot 68.685990
 1789          c     69    bbb     C4   1789 0.67254400  12.010000   ; qtot 69.358534
 1790         c3     69    bbb     C5   1790 -0.18457900  12.010000   ; qtot 69.173955
 1791          c     69    bbb     C6   1791 0.67254400  12.010000   ; qtot 69.846499
 1792         c3     69    bbb     C7   1792 -0.02083000  12.010000   ; qtot 69.825669
 1793         c3     69    bbb     C8   1793 -0.03328100  12.010000   ; qtot 69.792388
 1794          n     69    bbb     N2   1794 -0.33303000  14.010000   ; qtot 69.459358
 1795          o     69    bbb     O1   1795 -0.52917200  16.000000   ; qtot 68.930186
 1796          o     69    bbb     O2   1796 -0.52917200  16.000000   ; qtot 68.401014
 1797         hx     69    bbb     H1   1797 0.11563300   1.008000   ; qtot 68.516647
 1798         hx     69    bbb     H2   1798 0.11563300   1.008000   ; qtot 68.632280
 1799         hx     69    bbb     H3   1799 0.11563300   1.008000   ; qtot 68.747913
 1800         hx     69    bbb     H4   1800 0.11563300   1.008000   ; qtot 68.863546
 1801         hc     69    bbb     H5   1801 0.08347900   1.008000   ; qtot 68.947025
 1802         hc     69    bbb     H6   1802 0.08347900   1.008000   ; qtot 69.030504
 1803         hc     69    bbb     H7   1803 0.08347900   1.008000   ; qtot 69.113983
 1804         hc     69    bbb     H8   1804 0.08347900   1.008000   ; qtot 69.197462
 1805         hx     69    bbb     H9   1805 0.07988000   1.008000   ; qtot 69.277342
 1806         hx     69    bbb    H10   1806 0.07988000   1.008000   ; qtot 69.357222
 1807         h1     69    bbb    H11   1807 0.10618100   1.008000   ; qtot 69.463403
 1808         h1     69    bbb    H12   1808 0.10618100   1.008000   ; qtot 69.569584
 1809         hn     69    bbb    H13   1809 0.25916100   1.008000   ; qtot 69.828745
 1810         hn     69    bbb    H25   1810 0.17125500   1.008000   ; qtot 70.000000
; residue   70 bbb rtp bbb q 1.0
 1811         n4     70    bbb     N1   1811 -0.02747900  14.010000   ; qtot 69.972521
 1812         c3     70    bbb     C1   1812 -0.05097600  12.010000   ; qtot 69.921545
 1813         c3     70    bbb     C2   1813 -0.05097600  12.010000   ; qtot 69.870569
 1814         c3     70    bbb     C3   1814 -0.18457900  12.010000   ; qtot 69.685990
 1815          c     70    bbb     C4   1815 0.67254400  12.010000   ; qtot 70.358534
 1816         c3     70    bbb     C5   1816 -0.18457900  12.010000   ; qtot 70.173955
 1817          c     70    bbb     C6   1817 0.67254400  12.010000   ; qtot 70.846499
 1818         c3     70    bbb     C7   1818 -0.02083000  12.010000   ; qtot 70.825669
 1819         c3     70    bbb     C8   1819 -0.03328100  12.010000   ; qtot 70.792388
 1820          n     70    bbb     N2   1820 -0.33303000  14.010000   ; qtot 70.459358
 1821          o     70    bbb     O1   1821 -0.52917200  16.000000   ; qtot 69.930186
 1822          o     70    bbb     O2   1822 -0.52917200  16.000000   ; qtot 69.401014
 1823         hx     70    bbb     H1   1823 0.11563300   1.008000   ; qtot 69.516647
 1824         hx     70    bbb     H2   1824 0.11563300   1.008000   ; qtot 69.632280
 1825         hx     70    bbb     H3   1825 0.11563300   1.008000   ; qtot 69.747913
 1826         hx     70    bbb     H4   1826 0.11563300   1.008000   ; qtot 69.863546
 1827         hc     70    bbb     H5   1827 0.08347900   1.008000   ; qtot 69.947025
 1828         hc     70    bbb     H6   1828 0.08347900   1.008000   ; qtot 70.030504
 1829         hc     70    bbb     H7   1829 0.08347900   1.008000   ; qtot 70.113983
 1830         hc     70    bbb     H8   1830 0.08347900   1.008000   ; qtot 70.197462
 1831         hx     70    bbb     H9   1831 0.07988000   1.008000   ; qtot 70.277342
 1832         hx     70    bbb    H10   1832 0.07988000   1.008000   ; qtot 70.357222
 1833         h1     70    bbb    H11   1833 0.10618100   1.008000   ; qtot 70.463403
 1834         h1     70    bbb    H12   1834 0.10618100   1.008000   ; qtot 70.569584
 1835         hn     70    bbb    H13   1835 0.25916100   1.008000   ; qtot 70.828745
 1836         hn     70    bbb    H25   1836 0.17125500   1.008000   ; qtot 71.000000
; residue   71 bbb rtp bbb q 1.0
 1837         n4     71    bbb     N1   1837 -0.02747900  14.010000   ; qtot 70.972521
 1838         c3     71    bbb     C1   1838 -0.05097600  12.010000   ; qtot 70.921545
 1839         c3     71    bbb     C2   1839 -0.05097600  12.010000   ; qtot 70.870569
 1840         c3     71    bbb     C3   1840 -0.18457900  12.010000   ; qtot 70.685990
 1841          c     71    bbb     C4   1841 0.67254400  12.010000   ; qtot 71.358534
 1842         c3     71    bbb     C5   1842 -0.18457900  12.010000   ; qtot 71.173955
 1843          c     71    bbb     C6   1843 0.67254400  12.010000   ; qtot 71.846499
 1844         c3     71    bbb     C7   1844 -0.02083000  12.010000   ; qtot 71.825669
 1845         c3     71    bbb     C8   1845 -0.03328100  12.010000   ; qtot 71.792388
 1846          n     71    bbb     N2   1846 -0.33303000  14.010000   ; qtot 71.459358
 1847          o     71    bbb     O1   1847 -0.52917200  16.000000   ; qtot 70.930186
 1848          o     71    bbb     O2   1848 -0.52917200  16.000000   ; qtot 70.401014
 1849         hx     71    bbb     H1   1849 0.11563300   1.008000   ; qtot 70.516647
 1850         hx     71    bbb     H2   1850 0.11563300   1.008000   ; qtot 70.632280
 1851         hx     71    bbb     H3   1851 0.11563300   1.008000   ; qtot 70.747913
 1852         hx     71    bbb     H4   1852 0.11563300   1.008000   ; qtot 70.863546
 1853         hc     71    bbb     H5   1853 0.08347900   1.008000   ; qtot 70.947025
 1854         hc     71    bbb     H6   1854 0.08347900   1.008000   ; qtot 71.030504
 1855         hc     71    bbb     H7   1855 0.08347900   1.008000   ; qtot 71.113983
 1856         hc     71    bbb     H8   1856 0.08347900   1.008000   ; qtot 71.197462
 1857         hx     71    bbb     H9   1857 0.07988000   1.008000   ; qtot 71.277342
 1858         hx     71    bbb    H10   1858 0.07988000   1.008000   ; qtot 71.357222
 1859         h1     71    bbb    H11   1859 0.10618100   1.008000   ; qtot 71.463403
 1860         h1     71    bbb    H12   1860 0.10618100   1.008000   ; qtot 71.569584
 1861         hn     71    bbb    H13   1861 0.25916100   1.008000   ; qtot 71.828745
 1862         hn     71    bbb    H25   1862 0.17125500   1.008000   ; qtot 72.000000
; residue   72 bbb rtp bbb q 1.0
 1863         n4     72    bbb     N1   1863 -0.02747900  14.010000   ; qtot 71.972521
 1864         c3     72    bbb     C1   1864 -0.05097600  12.010000   ; qtot 71.921545
 1865         c3     72    bbb     C2   1865 -0.05097600  12.010000   ; qtot 71.870569
 1866         c3     72    bbb     C3   1866 -0.18457900  12.010000   ; qtot 71.685990
 1867          c     72    bbb     C4   1867 0.67254400  12.010000   ; qtot 72.358534
 1868         c3     72    bbb     C5   1868 -0.18457900  12.010000   ; qtot 72.173955
 1869          c     72    bbb     C6   1869 0.67254400  12.010000   ; qtot 72.846499
 1870         c3     72    bbb     C7   1870 -0.02083000  12.010000   ; qtot 72.825669
 1871         c3     72    bbb     C8   1871 -0.03328100  12.010000   ; qtot 72.792388
 1872          n     72    bbb     N2   1872 -0.33303000  14.010000   ; qtot 72.459358
 1873          o     72    bbb     O1   1873 -0.52917200  16.000000   ; qtot 71.930186
 1874          o     72    bbb     O2   1874 -0.52917200  16.000000   ; qtot 71.401014
 1875         hx     72    bbb     H1   1875 0.11563300   1.008000   ; qtot 71.516647
 1876         hx     72    bbb     H2   1876 0.11563300   1.008000   ; qtot 71.632280
 1877         hx     72    bbb     H3   1877 0.11563300   1.008000   ; qtot 71.747913
 1878         hx     72    bbb     H4   1878 0.11563300   1.008000   ; qtot 71.863546
 1879         hc     72    bbb     H5   1879 0.08347900   1.008000   ; qtot 71.947025
 1880         hc     72    bbb     H6   1880 0.08347900   1.008000   ; qtot 72.030504
 1881         hc     72    bbb     H7   1881 0.08347900   1.008000   ; qtot 72.113983
 1882         hc     72    bbb     H8   1882 0.08347900   1.008000   ; qtot 72.197462
 1883         hx     72    bbb     H9   1883 0.07988000   1.008000   ; qtot 72.277342
 1884         hx     72    bbb    H10   1884 0.07988000   1.008000   ; qtot 72.357222
 1885         h1     72    bbb    H11   1885 0.10618100   1.008000   ; qtot 72.463403
 1886         h1     72    bbb    H12   1886 0.10618100   1.008000   ; qtot 72.569584
 1887         hn     72    bbb    H13   1887 0.25916100   1.008000   ; qtot 72.828745
 1888         hn     72    bbb    H25   1888 0.17125500   1.008000   ; qtot 73.000000
; residue   73 bbb rtp bbb q 1.0
 1889         n4     73    bbb     N1   1889 -0.02747900  14.010000   ; qtot 72.972521
 1890         c3     73    bbb     C1   1890 -0.05097600  12.010000   ; qtot 72.921545
 1891         c3     73    bbb     C2   1891 -0.05097600  12.010000   ; qtot 72.870569
 1892         c3     73    bbb     C3   1892 -0.18457900  12.010000   ; qtot 72.685990
 1893          c     73    bbb     C4   1893 0.67254400  12.010000   ; qtot 73.358534
 1894         c3     73    bbb     C5   1894 -0.18457900  12.010000   ; qtot 73.173955
 1895          c     73    bbb     C6   1895 0.67254400  12.010000   ; qtot 73.846499
 1896         c3     73    bbb     C7   1896 -0.02083000  12.010000   ; qtot 73.825669
 1897         c3     73    bbb     C8   1897 -0.03328100  12.010000   ; qtot 73.792388
 1898          n     73    bbb     N2   1898 -0.33303000  14.010000   ; qtot 73.459358
 1899          o     73    bbb     O1   1899 -0.52917200  16.000000   ; qtot 72.930186
 1900          o     73    bbb     O2   1900 -0.52917200  16.000000   ; qtot 72.401014
 1901         hx     73    bbb     H1   1901 0.11563300   1.008000   ; qtot 72.516647
 1902         hx     73    bbb     H2   1902 0.11563300   1.008000   ; qtot 72.632280
 1903         hx     73    bbb     H3   1903 0.11563300   1.008000   ; qtot 72.747913
 1904         hx     73    bbb     H4   1904 0.11563300   1.008000   ; qtot 72.863546
 1905         hc     73    bbb     H5   1905 0.08347900   1.008000   ; qtot 72.947025
 1906         hc     73    bbb     H6   1906 0.08347900   1.008000   ; qtot 73.030504
 1907         hc     73    bbb     H7   1907 0.08347900   1.008000   ; qtot 73.113983
 1908         hc     73    bbb     H8   1908 0.08347900   1.008000   ; qtot 73.197462
 1909         hx     73    bbb     H9   1909 0.07988000   1.008000   ; qtot 73.277342
 1910         hx     73    bbb    H10   1910 0.07988000   1.008000   ; qtot 73.357222
 1911         h1     73    bbb    H11   1911 0.10618100   1.008000   ; qtot 73.463403
 1912         h1     73    bbb    H12   1912 0.10618100   1.008000   ; qtot 73.569584
 1913         hn     73    bbb    H13   1913 0.25916100   1.008000   ; qtot 73.828745
 1914         hn     73    bbb    H25   1914 0.17125500   1.008000   ; qtot 74.000000
; residue   74 bbb rtp bbb q 1.0
 1915         n4     74    bbb     N1   1915 -0.02747900  14.010000   ; qtot 73.972521
 1916         c3     74    bbb     C1   1916 -0.05097600  12.010000   ; qtot 73.921545
 1917         c3     74    bbb     C2   1917 -0.05097600  12.010000   ; qtot 73.870569
 1918         c3     74    bbb     C3   1918 -0.18457900  12.010000   ; qtot 73.685990
 1919          c     74    bbb     C4   1919 0.67254400  12.010000   ; qtot 74.358534
 1920         c3     74    bbb     C5   1920 -0.18457900  12.010000   ; qtot 74.173955
 1921          c     74    bbb     C6   1921 0.67254400  12.010000   ; qtot 74.846499
 1922         c3     74    bbb     C7   1922 -0.02083000  12.010000   ; qtot 74.825669
 1923         c3     74    bbb     C8   1923 -0.03328100  12.010000   ; qtot 74.792388
 1924          n     74    bbb     N2   1924 -0.33303000  14.010000   ; qtot 74.459358
 1925          o     74    bbb     O1   1925 -0.52917200  16.000000   ; qtot 73.930186
 1926          o     74    bbb     O2   1926 -0.52917200  16.000000   ; qtot 73.401014
 1927         hx     74    bbb     H1   1927 0.11563300   1.008000   ; qtot 73.516647
 1928         hx     74    bbb     H2   1928 0.11563300   1.008000   ; qtot 73.632280
 1929         hx     74    bbb     H3   1929 0.11563300   1.008000   ; qtot 73.747913
 1930         hx     74    bbb     H4   1930 0.11563300   1.008000   ; qtot 73.863546
 1931         hc     74    bbb     H5   1931 0.08347900   1.008000   ; qtot 73.947025
 1932         hc     74    bbb     H6   1932 0.08347900   1.008000   ; qtot 74.030504
 1933         hc     74    bbb     H7   1933 0.08347900   1.008000   ; qtot 74.113983
 1934         hc     74    bbb     H8   1934 0.08347900   1.008000   ; qtot 74.197462
 1935         hx     74    bbb     H9   1935 0.07988000   1.008000   ; qtot 74.277342
 1936         hx     74    bbb    H10   1936 0.07988000   1.008000   ; qtot 74.357222
 1937         h1     74    bbb    H11   1937 0.10618100   1.008000   ; qtot 74.463403
 1938         h1     74    bbb    H12   1938 0.10618100   1.008000   ; qtot 74.569584
 1939         hn     74    bbb    H13   1939 0.25916100   1.008000   ; qtot 74.828745
 1940         hn     74    bbb    H25   1940 0.17125500   1.008000   ; qtot 75.000000
; residue   75 bbb rtp bbb q 1.0
 1941         n4     75    bbb     N1   1941 -0.02747900  14.010000   ; qtot 74.972521
 1942         c3     75    bbb     C1   1942 -0.05097600  12.010000   ; qtot 74.921545
 1943         c3     75    bbb     C2   1943 -0.05097600  12.010000   ; qtot 74.870569
 1944         c3     75    bbb     C3   1944 -0.18457900  12.010000   ; qtot 74.685990
 1945          c     75    bbb     C4   1945 0.67254400  12.010000   ; qtot 75.358534
 1946         c3     75    bbb     C5   1946 -0.18457900  12.010000   ; qtot 75.173955
 1947          c     75    bbb     C6   1947 0.67254400  12.010000   ; qtot 75.846499
 1948         c3     75    bbb     C7   1948 -0.02083000  12.010000   ; qtot 75.825669
 1949         c3     75    bbb     C8   1949 -0.03328100  12.010000   ; qtot 75.792388
 1950          n     75    bbb     N2   1950 -0.33303000  14.010000   ; qtot 75.459358
 1951          o     75    bbb     O1   1951 -0.52917200  16.000000   ; qtot 74.930186
 1952          o     75    bbb     O2   1952 -0.52917200  16.000000   ; qtot 74.401014
 1953         hx     75    bbb     H1   1953 0.11563300   1.008000   ; qtot 74.516647
 1954         hx     75    bbb     H2   1954 0.11563300   1.008000   ; qtot 74.632280
 1955         hx     75    bbb     H3   1955 0.11563300   1.008000   ; qtot 74.747913
 1956         hx     75    bbb     H4   1956 0.11563300   1.008000   ; qtot 74.863546
 1957         hc     75    bbb     H5   1957 0.08347900   1.008000   ; qtot 74.947025
 1958         hc     75    bbb     H6   1958 0.08347900   1.008000   ; qtot 75.030504
 1959         hc     75    bbb     H7   1959 0.08347900   1.008000   ; qtot 75.113983
 1960         hc     75    bbb     H8   1960 0.08347900   1.008000   ; qtot 75.197462
 1961         hx     75    bbb     H9   1961 0.07988000   1.008000   ; qtot 75.277342
 1962         hx     75    bbb    H10   1962 0.07988000   1.008000   ; qtot 75.357222
 1963         h1     75    bbb    H11   1963 0.10618100   1.008000   ; qtot 75.463403
 1964         h1     75    bbb    H12   1964 0.10618100   1.008000   ; qtot 75.569584
 1965         hn     75    bbb    H13   1965 0.25916100   1.008000   ; qtot 75.828745
 1966         hn     75    bbb    H25   1966 0.17125500   1.008000   ; qtot 76.000000
; residue   76 bbb rtp bbb q 1.0
 1967         n4     76    bbb     N1   1967 -0.02747900  14.010000   ; qtot 75.972521
 1968         c3     76    bbb     C1   1968 -0.05097600  12.010000   ; qtot 75.921545
 1969         c3     76    bbb     C2   1969 -0.05097600  12.010000   ; qtot 75.870569
 1970         c3     76    bbb     C3   1970 -0.18457900  12.010000   ; qtot 75.685990
 1971          c     76    bbb     C4   1971 0.67254400  12.010000   ; qtot 76.358534
 1972         c3     76    bbb     C5   1972 -0.18457900  12.010000   ; qtot 76.173955
 1973          c     76    bbb     C6   1973 0.67254400  12.010000   ; qtot 76.846499
 1974         c3     76    bbb     C7   1974 -0.02083000  12.010000   ; qtot 76.825669
 1975         c3     76    bbb     C8   1975 -0.03328100  12.010000   ; qtot 76.792388
 1976          n     76    bbb     N2   1976 -0.33303000  14.010000   ; qtot 76.459358
 1977          o     76    bbb     O1   1977 -0.52917200  16.000000   ; qtot 75.930186
 1978          o     76    bbb     O2   1978 -0.52917200  16.000000   ; qtot 75.401014
 1979         hx     76    bbb     H1   1979 0.11563300   1.008000   ; qtot 75.516647
 1980         hx     76    bbb     H2   1980 0.11563300   1.008000   ; qtot 75.632280
 1981         hx     76    bbb     H3   1981 0.11563300   1.008000   ; qtot 75.747913
 1982         hx     76    bbb     H4   1982 0.11563300   1.008000   ; qtot 75.863546
 1983         hc     76    bbb     H5   1983 0.08347900   1.008000   ; qtot 75.947025
 1984         hc     76    bbb     H6   1984 0.08347900   1.008000   ; qtot 76.030504
 1985         hc     76    bbb     H7   1985 0.08347900   1.008000   ; qtot 76.113983
 1986         hc     76    bbb     H8   1986 0.08347900   1.008000   ; qtot 76.197462
 1987         hx     76    bbb     H9   1987 0.07988000   1.008000   ; qtot 76.277342
 1988         hx     76    bbb    H10   1988 0.07988000   1.008000   ; qtot 76.357222
 1989         h1     76    bbb    H11   1989 0.10618100   1.008000   ; qtot 76.463403
 1990         h1     76    bbb    H12   1990 0.10618100   1.008000   ; qtot 76.569584
 1991         hn     76    bbb    H13   1991 0.25916100   1.008000   ; qtot 76.828745
 1992         hn     76    bbb    H25   1992 0.17125500   1.008000   ; qtot 77.000000
; residue   77 bbb rtp bbb q 1.0
 1993         n4     77    bbb     N1   1993 -0.02747900  14.010000   ; qtot 76.972521
 1994         c3     77    bbb     C1   1994 -0.05097600  12.010000   ; qtot 76.921545
 1995         c3     77    bbb     C2   1995 -0.05097600  12.010000   ; qtot 76.870569
 1996         c3     77    bbb     C3   1996 -0.18457900  12.010000   ; qtot 76.685990
 1997          c     77    bbb     C4   1997 0.67254400  12.010000   ; qtot 77.358534
 1998         c3     77    bbb     C5   1998 -0.18457900  12.010000   ; qtot 77.173955
 1999          c     77    bbb     C6   1999 0.67254400  12.010000   ; qtot 77.846499
 2000         c3     77    bbb     C7   2000 -0.02083000  12.010000   ; qtot 77.825669
 2001         c3     77    bbb     C8   2001 -0.03328100  12.010000   ; qtot 77.792388
 2002          n     77    bbb     N2   2002 -0.33303000  14.010000   ; qtot 77.459358
 2003          o     77    bbb     O1   2003 -0.52917200  16.000000   ; qtot 76.930186
 2004          o     77    bbb     O2   2004 -0.52917200  16.000000   ; qtot 76.401014
 2005         hx     77    bbb     H1   2005 0.11563300   1.008000   ; qtot 76.516647
 2006         hx     77    bbb     H2   2006 0.11563300   1.008000   ; qtot 76.632280
 2007         hx     77    bbb     H3   2007 0.11563300   1.008000   ; qtot 76.747913
 2008         hx     77    bbb     H4   2008 0.11563300   1.008000   ; qtot 76.863546
 2009         hc     77    bbb     H5   2009 0.08347900   1.008000   ; qtot 76.947025
 2010         hc     77    bbb     H6   2010 0.08347900   1.008000   ; qtot 77.030504
 2011         hc     77    bbb     H7   2011 0.08347900   1.008000   ; qtot 77.113983
 2012         hc     77    bbb     H8   2012 0.08347900   1.008000   ; qtot 77.197462
 2013         hx     77    bbb     H9   2013 0.07988000   1.008000   ; qtot 77.277342
 2014         hx     77    bbb    H10   2014 0.07988000   1.008000   ; qtot 77.357222
 2015         h1     77    bbb    H11   2015 0.10618100   1.008000   ; qtot 77.463403
 2016         h1     77    bbb    H12   2016 0.10618100   1.008000   ; qtot 77.569584
 2017         hn     77    bbb    H13   2017 0.25916100   1.008000   ; qtot 77.828745
 2018         hn     77    bbb    H25   2018 0.17125500   1.008000   ; qtot 78.000000
; residue   78 bbb rtp bbb q 1.0
 2019         n4     78    bbb     N1   2019 -0.02747900  14.010000   ; qtot 77.972521
 2020         c3     78    bbb     C1   2020 -0.05097600  12.010000   ; qtot 77.921545
 2021         c3     78    bbb     C2   2021 -0.05097600  12.010000   ; qtot 77.870569
 2022         c3     78    bbb     C3   2022 -0.18457900  12.010000   ; qtot 77.685990
 2023          c     78    bbb     C4   2023 0.67254400  12.010000   ; qtot 78.358534
 2024         c3     78    bbb     C5   2024 -0.18457900  12.010000   ; qtot 78.173955
 2025          c     78    bbb     C6   2025 0.67254400  12.010000   ; qtot 78.846499
 2026         c3     78    bbb     C7   2026 -0.02083000  12.010000   ; qtot 78.825669
 2027         c3     78    bbb     C8   2027 -0.03328100  12.010000   ; qtot 78.792388
 2028          n     78    bbb     N2   2028 -0.33303000  14.010000   ; qtot 78.459358
 2029          o     78    bbb     O1   2029 -0.52917200  16.000000   ; qtot 77.930186
 2030          o     78    bbb     O2   2030 -0.52917200  16.000000   ; qtot 77.401014
 2031         hx     78    bbb     H1   2031 0.11563300   1.008000   ; qtot 77.516647
 2032         hx     78    bbb     H2   2032 0.11563300   1.008000   ; qtot 77.632280
 2033         hx     78    bbb     H3   2033 0.11563300   1.008000   ; qtot 77.747913
 2034         hx     78    bbb     H4   2034 0.11563300   1.008000   ; qtot 77.863546
 2035         hc     78    bbb     H5   2035 0.08347900   1.008000   ; qtot 77.947025
 2036         hc     78    bbb     H6   2036 0.08347900   1.008000   ; qtot 78.030504
 2037         hc     78    bbb     H7   2037 0.08347900   1.008000   ; qtot 78.113983
 2038         hc     78    bbb     H8   2038 0.08347900   1.008000   ; qtot 78.197462
 2039         hx     78    bbb     H9   2039 0.07988000   1.008000   ; qtot 78.277342
 2040         hx     78    bbb    H10   2040 0.07988000   1.008000   ; qtot 78.357222
 2041         h1     78    bbb    H11   2041 0.10618100   1.008000   ; qtot 78.463403
 2042         h1     78    bbb    H12   2042 0.10618100   1.008000   ; qtot 78.569584
 2043         hn     78    bbb    H13   2043 0.25916100   1.008000   ; qtot 78.828745
 2044         hn     78    bbb    H25   2044 0.17125500   1.008000   ; qtot 79.000000
; residue   79 bbb rtp bbb q 1.0
 2045         n4     79    bbb     N1   2045 -0.02747900  14.010000   ; qtot 78.972521
 2046         c3     79    bbb     C1   2046 -0.05097600  12.010000   ; qtot 78.921545
 2047         c3     79    bbb     C2   2047 -0.05097600  12.010000   ; qtot 78.870569
 2048         c3     79    bbb     C3   2048 -0.18457900  12.010000   ; qtot 78.685990
 2049          c     79    bbb     C4   2049 0.67254400  12.010000   ; qtot 79.358534
 2050         c3     79    bbb     C5   2050 -0.18457900  12.010000   ; qtot 79.173955
 2051          c     79    bbb     C6   2051 0.67254400  12.010000   ; qtot 79.846499
 2052         c3     79    bbb     C7   2052 -0.02083000  12.010000   ; qtot 79.825669
 2053         c3     79    bbb     C8   2053 -0.03328100  12.010000   ; qtot 79.792388
 2054          n     79    bbb     N2   2054 -0.33303000  14.010000   ; qtot 79.459358
 2055          o     79    bbb     O1   2055 -0.52917200  16.000000   ; qtot 78.930186
 2056          o     79    bbb     O2   2056 -0.52917200  16.000000   ; qtot 78.401014
 2057         hx     79    bbb     H1   2057 0.11563300   1.008000   ; qtot 78.516647
 2058         hx     79    bbb     H2   2058 0.11563300   1.008000   ; qtot 78.632280
 2059         hx     79    bbb     H3   2059 0.11563300   1.008000   ; qtot 78.747913
 2060         hx     79    bbb     H4   2060 0.11563300   1.008000   ; qtot 78.863546
 2061         hc     79    bbb     H5   2061 0.08347900   1.008000   ; qtot 78.947025
 2062         hc     79    bbb     H6   2062 0.08347900   1.008000   ; qtot 79.030504
 2063         hc     79    bbb     H7   2063 0.08347900   1.008000   ; qtot 79.113983
 2064         hc     79    bbb     H8   2064 0.08347900   1.008000   ; qtot 79.197462
 2065         hx     79    bbb     H9   2065 0.07988000   1.008000   ; qtot 79.277342
 2066         hx     79    bbb    H10   2066 0.07988000   1.008000   ; qtot 79.357222
 2067         h1     79    bbb    H11   2067 0.10618100   1.008000   ; qtot 79.463403
 2068         h1     79    bbb    H12   2068 0.10618100   1.008000   ; qtot 79.569584
 2069         hn     79    bbb    H13   2069 0.25916100   1.008000   ; qtot 79.828745
 2070         hn     79    bbb    H25   2070 0.17125500   1.008000   ; qtot 80.000000
; residue   80 bbb rtp bbb q 1.0
 2071         n4     80    bbb     N1   2071 -0.02747900  14.010000   ; qtot 79.972521
 2072         c3     80    bbb     C1   2072 -0.05097600  12.010000   ; qtot 79.921545
 2073         c3     80    bbb     C2   2073 -0.05097600  12.010000   ; qtot 79.870569
 2074         c3     80    bbb     C3   2074 -0.18457900  12.010000   ; qtot 79.685990
 2075          c     80    bbb     C4   2075 0.67254400  12.010000   ; qtot 80.358534
 2076         c3     80    bbb     C5   2076 -0.18457900  12.010000   ; qtot 80.173955
 2077          c     80    bbb     C6   2077 0.67254400  12.010000   ; qtot 80.846499
 2078         c3     80    bbb     C7   2078 -0.02083000  12.010000   ; qtot 80.825669
 2079         c3     80    bbb     C8   2079 -0.03328100  12.010000   ; qtot 80.792388
 2080          n     80    bbb     N2   2080 -0.33303000  14.010000   ; qtot 80.459358
 2081          o     80    bbb     O1   2081 -0.52917200  16.000000   ; qtot 79.930186
 2082          o     80    bbb     O2   2082 -0.52917200  16.000000   ; qtot 79.401014
 2083         hx     80    bbb     H1   2083 0.11563300   1.008000   ; qtot 79.516647
 2084         hx     80    bbb     H2   2084 0.11563300   1.008000   ; qtot 79.632280
 2085         hx     80    bbb     H3   2085 0.11563300   1.008000   ; qtot 79.747913
 2086         hx     80    bbb     H4   2086 0.11563300   1.008000   ; qtot 79.863546
 2087         hc     80    bbb     H5   2087 0.08347900   1.008000   ; qtot 79.947025
 2088         hc     80    bbb     H6   2088 0.08347900   1.008000   ; qtot 80.030504
 2089         hc     80    bbb     H7   2089 0.08347900   1.008000   ; qtot 80.113983
 2090         hc     80    bbb     H8   2090 0.08347900   1.008000   ; qtot 80.197462
 2091         hx     80    bbb     H9   2091 0.07988000   1.008000   ; qtot 80.277342
 2092         hx     80    bbb    H10   2092 0.07988000   1.008000   ; qtot 80.357222
 2093         h1     80    bbb    H11   2093 0.10618100   1.008000   ; qtot 80.463403
 2094         h1     80    bbb    H12   2094 0.10618100   1.008000   ; qtot 80.569584
 2095         hn     80    bbb    H13   2095 0.25916100   1.008000   ; qtot 80.828745
 2096         hn     80    bbb    H25   2096 0.17125500   1.008000   ; qtot 81.000000
; residue   81 bbb rtp bbb q 1.0
 2097         n4     81    bbb     N1   2097 -0.02747900  14.010000   ; qtot 80.972521
 2098         c3     81    bbb     C1   2098 -0.05097600  12.010000   ; qtot 80.921545
 2099         c3     81    bbb     C2   2099 -0.05097600  12.010000   ; qtot 80.870569
 2100         c3     81    bbb     C3   2100 -0.18457900  12.010000   ; qtot 80.685990
 2101          c     81    bbb     C4   2101 0.67254400  12.010000   ; qtot 81.358534
 2102         c3     81    bbb     C5   2102 -0.18457900  12.010000   ; qtot 81.173955
 2103          c     81    bbb     C6   2103 0.67254400  12.010000   ; qtot 81.846499
 2104         c3     81    bbb     C7   2104 -0.02083000  12.010000   ; qtot 81.825669
 2105         c3     81    bbb     C8   2105 -0.03328100  12.010000   ; qtot 81.792388
 2106          n     81    bbb     N2   2106 -0.33303000  14.010000   ; qtot 81.459358
 2107          o     81    bbb     O1   2107 -0.52917200  16.000000   ; qtot 80.930186
 2108          o     81    bbb     O2   2108 -0.52917200  16.000000   ; qtot 80.401014
 2109         hx     81    bbb     H1   2109 0.11563300   1.008000   ; qtot 80.516647
 2110         hx     81    bbb     H2   2110 0.11563300   1.008000   ; qtot 80.632280
 2111         hx     81    bbb     H3   2111 0.11563300   1.008000   ; qtot 80.747913
 2112         hx     81    bbb     H4   2112 0.11563300   1.008000   ; qtot 80.863546
 2113         hc     81    bbb     H5   2113 0.08347900   1.008000   ; qtot 80.947025
 2114         hc     81    bbb     H6   2114 0.08347900   1.008000   ; qtot 81.030504
 2115         hc     81    bbb     H7   2115 0.08347900   1.008000   ; qtot 81.113983
 2116         hc     81    bbb     H8   2116 0.08347900   1.008000   ; qtot 81.197462
 2117         hx     81    bbb     H9   2117 0.07988000   1.008000   ; qtot 81.277342
 2118         hx     81    bbb    H10   2118 0.07988000   1.008000   ; qtot 81.357222
 2119         h1     81    bbb    H11   2119 0.10618100   1.008000   ; qtot 81.463403
 2120         h1     81    bbb    H12   2120 0.10618100   1.008000   ; qtot 81.569584
 2121         hn     81    bbb    H13   2121 0.25916100   1.008000   ; qtot 81.828745
 2122         hn     81    bbb    H25   2122 0.17125500   1.008000   ; qtot 82.000000
; residue   82 bbb rtp bbb q 1.0
 2123         n4     82    bbb     N1   2123 -0.02747900  14.010000   ; qtot 81.972521
 2124         c3     82    bbb     C1   2124 -0.05097600  12.010000   ; qtot 81.921545
 2125         c3     82    bbb     C2   2125 -0.05097600  12.010000   ; qtot 81.870569
 2126         c3     82    bbb     C3   2126 -0.18457900  12.010000   ; qtot 81.685990
 2127          c     82    bbb     C4   2127 0.67254400  12.010000   ; qtot 82.358534
 2128         c3     82    bbb     C5   2128 -0.18457900  12.010000   ; qtot 82.173955
 2129          c     82    bbb     C6   2129 0.67254400  12.010000   ; qtot 82.846499
 2130         c3     82    bbb     C7   2130 -0.02083000  12.010000   ; qtot 82.825669
 2131         c3     82    bbb     C8   2131 -0.03328100  12.010000   ; qtot 82.792388
 2132          n     82    bbb     N2   2132 -0.33303000  14.010000   ; qtot 82.459358
 2133          o     82    bbb     O1   2133 -0.52917200  16.000000   ; qtot 81.930186
 2134          o     82    bbb     O2   2134 -0.52917200  16.000000   ; qtot 81.401014
 2135         hx     82    bbb     H1   2135 0.11563300   1.008000   ; qtot 81.516647
 2136         hx     82    bbb     H2   2136 0.11563300   1.008000   ; qtot 81.632280
 2137         hx     82    bbb     H3   2137 0.11563300   1.008000   ; qtot 81.747913
 2138         hx     82    bbb     H4   2138 0.11563300   1.008000   ; qtot 81.863546
 2139         hc     82    bbb     H5   2139 0.08347900   1.008000   ; qtot 81.947025
 2140         hc     82    bbb     H6   2140 0.08347900   1.008000   ; qtot 82.030504
 2141         hc     82    bbb     H7   2141 0.08347900   1.008000   ; qtot 82.113983
 2142         hc     82    bbb     H8   2142 0.08347900   1.008000   ; qtot 82.197462
 2143         hx     82    bbb     H9   2143 0.07988000   1.008000   ; qtot 82.277342
 2144         hx     82    bbb    H10   2144 0.07988000   1.008000   ; qtot 82.357222
 2145         h1     82    bbb    H11   2145 0.10618100   1.008000   ; qtot 82.463403
 2146         h1     82    bbb    H12   2146 0.10618100   1.008000   ; qtot 82.569584
 2147         hn     82    bbb    H13   2147 0.25916100   1.008000   ; qtot 82.828745
 2148         hn     82    bbb    H25   2148 0.17125500   1.008000   ; qtot 83.000000
; residue   83 bbb rtp bbb q 1.0
 2149         n4     83    bbb     N1   2149 -0.02747900  14.010000   ; qtot 82.972521
 2150         c3     83    bbb     C1   2150 -0.05097600  12.010000   ; qtot 82.921545
 2151         c3     83    bbb     C2   2151 -0.05097600  12.010000   ; qtot 82.870569
 2152         c3     83    bbb     C3   2152 -0.18457900  12.010000   ; qtot 82.685990
 2153          c     83    bbb     C4   2153 0.67254400  12.010000   ; qtot 83.358534
 2154         c3     83    bbb     C5   2154 -0.18457900  12.010000   ; qtot 83.173955
 2155          c     83    bbb     C6   2155 0.67254400  12.010000   ; qtot 83.846499
 2156         c3     83    bbb     C7   2156 -0.02083000  12.010000   ; qtot 83.825669
 2157         c3     83    bbb     C8   2157 -0.03328100  12.010000   ; qtot 83.792388
 2158          n     83    bbb     N2   2158 -0.33303000  14.010000   ; qtot 83.459358
 2159          o     83    bbb     O1   2159 -0.52917200  16.000000   ; qtot 82.930186
 2160          o     83    bbb     O2   2160 -0.52917200  16.000000   ; qtot 82.401014
 2161         hx     83    bbb     H1   2161 0.11563300   1.008000   ; qtot 82.516647
 2162         hx     83    bbb     H2   2162 0.11563300   1.008000   ; qtot 82.632280
 2163         hx     83    bbb     H3   2163 0.11563300   1.008000   ; qtot 82.747913
 2164         hx     83    bbb     H4   2164 0.11563300   1.008000   ; qtot 82.863546
 2165         hc     83    bbb     H5   2165 0.08347900   1.008000   ; qtot 82.947025
 2166         hc     83    bbb     H6   2166 0.08347900   1.008000   ; qtot 83.030504
 2167         hc     83    bbb     H7   2167 0.08347900   1.008000   ; qtot 83.113983
 2168         hc     83    bbb     H8   2168 0.08347900   1.008000   ; qtot 83.197462
 2169         hx     83    bbb     H9   2169 0.07988000   1.008000   ; qtot 83.277342
 2170         hx     83    bbb    H10   2170 0.07988000   1.008000   ; qtot 83.357222
 2171         h1     83    bbb    H11   2171 0.10618100   1.008000   ; qtot 83.463403
 2172         h1     83    bbb    H12   2172 0.10618100   1.008000   ; qtot 83.569584
 2173         hn     83    bbb    H13   2173 0.25916100   1.008000   ; qtot 83.828745
 2174         hn     83    bbb    H25   2174 0.17125500   1.008000   ; qtot 84.000000
; residue   84 bbb rtp bbb q 1.0
 2175         n4     84    bbb     N1   2175 -0.02747900  14.010000   ; qtot 83.972521
 2176         c3     84    bbb     C1   2176 -0.05097600  12.010000   ; qtot 83.921545
 2177         c3     84    bbb     C2   2177 -0.05097600  12.010000   ; qtot 83.870569
 2178         c3     84    bbb     C3   2178 -0.18457900  12.010000   ; qtot 83.685990
 2179          c     84    bbb     C4   2179 0.67254400  12.010000   ; qtot 84.358534
 2180         c3     84    bbb     C5   2180 -0.18457900  12.010000   ; qtot 84.173955
 2181          c     84    bbb     C6   2181 0.67254400  12.010000   ; qtot 84.846499
 2182         c3     84    bbb     C7   2182 -0.02083000  12.010000   ; qtot 84.825669
 2183         c3     84    bbb     C8   2183 -0.03328100  12.010000   ; qtot 84.792388
 2184          n     84    bbb     N2   2184 -0.33303000  14.010000   ; qtot 84.459358
 2185          o     84    bbb     O1   2185 -0.52917200  16.000000   ; qtot 83.930186
 2186          o     84    bbb     O2   2186 -0.52917200  16.000000   ; qtot 83.401014
 2187         hx     84    bbb     H1   2187 0.11563300   1.008000   ; qtot 83.516647
 2188         hx     84    bbb     H2   2188 0.11563300   1.008000   ; qtot 83.632280
 2189         hx     84    bbb     H3   2189 0.11563300   1.008000   ; qtot 83.747913
 2190         hx     84    bbb     H4   2190 0.11563300   1.008000   ; qtot 83.863546
 2191         hc     84    bbb     H5   2191 0.08347900   1.008000   ; qtot 83.947025
 2192         hc     84    bbb     H6   2192 0.08347900   1.008000   ; qtot 84.030504
 2193         hc     84    bbb     H7   2193 0.08347900   1.008000   ; qtot 84.113983
 2194         hc     84    bbb     H8   2194 0.08347900   1.008000   ; qtot 84.197462
 2195         hx     84    bbb     H9   2195 0.07988000   1.008000   ; qtot 84.277342
 2196         hx     84    bbb    H10   2196 0.07988000   1.008000   ; qtot 84.357222
 2197         h1     84    bbb    H11   2197 0.10618100   1.008000   ; qtot 84.463403
 2198         h1     84    bbb    H12   2198 0.10618100   1.008000   ; qtot 84.569584
 2199         hn     84    bbb    H13   2199 0.25916100   1.008000   ; qtot 84.828745
 2200         hn     84    bbb    H25   2200 0.17125500   1.008000   ; qtot 85.000000
; residue   85 bbb rtp bbb q 1.0
 2201         n4     85    bbb     N1   2201 -0.02747900  14.010000   ; qtot 84.972521
 2202         c3     85    bbb     C1   2202 -0.05097600  12.010000   ; qtot 84.921545
 2203         c3     85    bbb     C2   2203 -0.05097600  12.010000   ; qtot 84.870569
 2204         c3     85    bbb     C3   2204 -0.18457900  12.010000   ; qtot 84.685990
 2205          c     85    bbb     C4   2205 0.67254400  12.010000   ; qtot 85.358534
 2206         c3     85    bbb     C5   2206 -0.18457900  12.010000   ; qtot 85.173955
 2207          c     85    bbb     C6   2207 0.67254400  12.010000   ; qtot 85.846499
 2208         c3     85    bbb     C7   2208 -0.02083000  12.010000   ; qtot 85.825669
 2209         c3     85    bbb     C8   2209 -0.03328100  12.010000   ; qtot 85.792388
 2210          n     85    bbb     N2   2210 -0.33303000  14.010000   ; qtot 85.459358
 2211          o     85    bbb     O1   2211 -0.52917200  16.000000   ; qtot 84.930186
 2212          o     85    bbb     O2   2212 -0.52917200  16.000000   ; qtot 84.401014
 2213         hx     85    bbb     H1   2213 0.11563300   1.008000   ; qtot 84.516647
 2214         hx     85    bbb     H2   2214 0.11563300   1.008000   ; qtot 84.632280
 2215         hx     85    bbb     H3   2215 0.11563300   1.008000   ; qtot 84.747913
 2216         hx     85    bbb     H4   2216 0.11563300   1.008000   ; qtot 84.863546
 2217         hc     85    bbb     H5   2217 0.08347900   1.008000   ; qtot 84.947025
 2218         hc     85    bbb     H6   2218 0.08347900   1.008000   ; qtot 85.030504
 2219         hc     85    bbb     H7   2219 0.08347900   1.008000   ; qtot 85.113983
 2220         hc     85    bbb     H8   2220 0.08347900   1.008000   ; qtot 85.197462
 2221         hx     85    bbb     H9   2221 0.07988000   1.008000   ; qtot 85.277342
 2222         hx     85    bbb    H10   2222 0.07988000   1.008000   ; qtot 85.357222
 2223         h1     85    bbb    H11   2223 0.10618100   1.008000   ; qtot 85.463403
 2224         h1     85    bbb    H12   2224 0.10618100   1.008000   ; qtot 85.569584
 2225         hn     85    bbb    H13   2225 0.25916100   1.008000   ; qtot 85.828745
 2226         hn     85    bbb    H25   2226 0.17125500   1.008000   ; qtot 86.000000
; residue   86 bbb rtp bbb q 1.0
 2227         n4     86    bbb     N1   2227 -0.02747900  14.010000   ; qtot 85.972521
 2228         c3     86    bbb     C1   2228 -0.05097600  12.010000   ; qtot 85.921545
 2229         c3     86    bbb     C2   2229 -0.05097600  12.010000   ; qtot 85.870569
 2230         c3     86    bbb     C3   2230 -0.18457900  12.010000   ; qtot 85.685990
 2231          c     86    bbb     C4   2231 0.67254400  12.010000   ; qtot 86.358534
 2232         c3     86    bbb     C5   2232 -0.18457900  12.010000   ; qtot 86.173955
 2233          c     86    bbb     C6   2233 0.67254400  12.010000   ; qtot 86.846499
 2234         c3     86    bbb     C7   2234 -0.02083000  12.010000   ; qtot 86.825669
 2235         c3     86    bbb     C8   2235 -0.03328100  12.010000   ; qtot 86.792388
 2236          n     86    bbb     N2   2236 -0.33303000  14.010000   ; qtot 86.459358
 2237          o     86    bbb     O1   2237 -0.52917200  16.000000   ; qtot 85.930186
 2238          o     86    bbb     O2   2238 -0.52917200  16.000000   ; qtot 85.401014
 2239         hx     86    bbb     H1   2239 0.11563300   1.008000   ; qtot 85.516647
 2240         hx     86    bbb     H2   2240 0.11563300   1.008000   ; qtot 85.632280
 2241         hx     86    bbb     H3   2241 0.11563300   1.008000   ; qtot 85.747913
 2242         hx     86    bbb     H4   2242 0.11563300   1.008000   ; qtot 85.863546
 2243         hc     86    bbb     H5   2243 0.08347900   1.008000   ; qtot 85.947025
 2244         hc     86    bbb     H6   2244 0.08347900   1.008000   ; qtot 86.030504
 2245         hc     86    bbb     H7   2245 0.08347900   1.008000   ; qtot 86.113983
 2246         hc     86    bbb     H8   2246 0.08347900   1.008000   ; qtot 86.197462
 2247         hx     86    bbb     H9   2247 0.07988000   1.008000   ; qtot 86.277342
 2248         hx     86    bbb    H10   2248 0.07988000   1.008000   ; qtot 86.357222
 2249         h1     86    bbb    H11   2249 0.10618100   1.008000   ; qtot 86.463403
 2250         h1     86    bbb    H12   2250 0.10618100   1.008000   ; qtot 86.569584
 2251         hn     86    bbb    H13   2251 0.25916100   1.008000   ; qtot 86.828745
 2252         hn     86    bbb    H25   2252 0.17125500   1.008000   ; qtot 87.000000
; residue   87 bbb rtp bbb q 1.0
 2253         n4     87    bbb     N1   2253 -0.02747900  14.010000   ; qtot 86.972521
 2254         c3     87    bbb     C1   2254 -0.05097600  12.010000   ; qtot 86.921545
 2255         c3     87    bbb     C2   2255 -0.05097600  12.010000   ; qtot 86.870569
 2256         c3     87    bbb     C3   2256 -0.18457900  12.010000   ; qtot 86.685990
 2257          c     87    bbb     C4   2257 0.67254400  12.010000   ; qtot 87.358534
 2258         c3     87    bbb     C5   2258 -0.18457900  12.010000   ; qtot 87.173955
 2259          c     87    bbb     C6   2259 0.67254400  12.010000   ; qtot 87.846499
 2260         c3     87    bbb     C7   2260 -0.02083000  12.010000   ; qtot 87.825669
 2261         c3     87    bbb     C8   2261 -0.03328100  12.010000   ; qtot 87.792388
 2262          n     87    bbb     N2   2262 -0.33303000  14.010000   ; qtot 87.459358
 2263          o     87    bbb     O1   2263 -0.52917200  16.000000   ; qtot 86.930186
 2264          o     87    bbb     O2   2264 -0.52917200  16.000000   ; qtot 86.401014
 2265         hx     87    bbb     H1   2265 0.11563300   1.008000   ; qtot 86.516647
 2266         hx     87    bbb     H2   2266 0.11563300   1.008000   ; qtot 86.632280
 2267         hx     87    bbb     H3   2267 0.11563300   1.008000   ; qtot 86.747913
 2268         hx     87    bbb     H4   2268 0.11563300   1.008000   ; qtot 86.863546
 2269         hc     87    bbb     H5   2269 0.08347900   1.008000   ; qtot 86.947025
 2270         hc     87    bbb     H6   2270 0.08347900   1.008000   ; qtot 87.030504
 2271         hc     87    bbb     H7   2271 0.08347900   1.008000   ; qtot 87.113983
 2272         hc     87    bbb     H8   2272 0.08347900   1.008000   ; qtot 87.197462
 2273         hx     87    bbb     H9   2273 0.07988000   1.008000   ; qtot 87.277342
 2274         hx     87    bbb    H10   2274 0.07988000   1.008000   ; qtot 87.357222
 2275         h1     87    bbb    H11   2275 0.10618100   1.008000   ; qtot 87.463403
 2276         h1     87    bbb    H12   2276 0.10618100   1.008000   ; qtot 87.569584
 2277         hn     87    bbb    H13   2277 0.25916100   1.008000   ; qtot 87.828745
 2278         hn     87    bbb    H25   2278 0.17125500   1.008000   ; qtot 88.000000
; residue   88 bbb rtp bbb q 1.0
 2279         n4     88    bbb     N1   2279 -0.02747900  14.010000   ; qtot 87.972521
 2280         c3     88    bbb     C1   2280 -0.05097600  12.010000   ; qtot 87.921545
 2281         c3     88    bbb     C2   2281 -0.05097600  12.010000   ; qtot 87.870569
 2282         c3     88    bbb     C3   2282 -0.18457900  12.010000   ; qtot 87.685990
 2283          c     88    bbb     C4   2283 0.67254400  12.010000   ; qtot 88.358534
 2284         c3     88    bbb     C5   2284 -0.18457900  12.010000   ; qtot 88.173955
 2285          c     88    bbb     C6   2285 0.67254400  12.010000   ; qtot 88.846499
 2286         c3     88    bbb     C7   2286 -0.02083000  12.010000   ; qtot 88.825669
 2287         c3     88    bbb     C8   2287 -0.03328100  12.010000   ; qtot 88.792388
 2288          n     88    bbb     N2   2288 -0.33303000  14.010000   ; qtot 88.459358
 2289          o     88    bbb     O1   2289 -0.52917200  16.000000   ; qtot 87.930186
 2290          o     88    bbb     O2   2290 -0.52917200  16.000000   ; qtot 87.401014
 2291         hx     88    bbb     H1   2291 0.11563300   1.008000   ; qtot 87.516647
 2292         hx     88    bbb     H2   2292 0.11563300   1.008000   ; qtot 87.632280
 2293         hx     88    bbb     H3   2293 0.11563300   1.008000   ; qtot 87.747913
 2294         hx     88    bbb     H4   2294 0.11563300   1.008000   ; qtot 87.863546
 2295         hc     88    bbb     H5   2295 0.08347900   1.008000   ; qtot 87.947025
 2296         hc     88    bbb     H6   2296 0.08347900   1.008000   ; qtot 88.030504
 2297         hc     88    bbb     H7   2297 0.08347900   1.008000   ; qtot 88.113983
 2298         hc     88    bbb     H8   2298 0.08347900   1.008000   ; qtot 88.197462
 2299         hx     88    bbb     H9   2299 0.07988000   1.008000   ; qtot 88.277342
 2300         hx     88    bbb    H10   2300 0.07988000   1.008000   ; qtot 88.357222
 2301         h1     88    bbb    H11   2301 0.10618100   1.008000   ; qtot 88.463403
 2302         h1     88    bbb    H12   2302 0.10618100   1.008000   ; qtot 88.569584
 2303         hn     88    bbb    H13   2303 0.25916100   1.008000   ; qtot 88.828745
 2304         hn     88    bbb    H25   2304 0.17125500   1.008000   ; qtot 89.000000
; residue   89 bbb rtp bbb q 1.0
 2305         n4     89    bbb     N1   2305 -0.02747900  14.010000   ; qtot 88.972521
 2306         c3     89    bbb     C1   2306 -0.05097600  12.010000   ; qtot 88.921545
 2307         c3     89    bbb     C2   2307 -0.05097600  12.010000   ; qtot 88.870569
 2308         c3     89    bbb     C3   2308 -0.18457900  12.010000   ; qtot 88.685990
 2309          c     89    bbb     C4   2309 0.67254400  12.010000   ; qtot 89.358534
 2310         c3     89    bbb     C5   2310 -0.18457900  12.010000   ; qtot 89.173955
 2311          c     89    bbb     C6   2311 0.67254400  12.010000   ; qtot 89.846499
 2312         c3     89    bbb     C7   2312 -0.02083000  12.010000   ; qtot 89.825669
 2313         c3     89    bbb     C8   2313 -0.03328100  12.010000   ; qtot 89.792388
 2314          n     89    bbb     N2   2314 -0.33303000  14.010000   ; qtot 89.459358
 2315          o     89    bbb     O1   2315 -0.52917200  16.000000   ; qtot 88.930186
 2316          o     89    bbb     O2   2316 -0.52917200  16.000000   ; qtot 88.401014
 2317         hx     89    bbb     H1   2317 0.11563300   1.008000   ; qtot 88.516647
 2318         hx     89    bbb     H2   2318 0.11563300   1.008000   ; qtot 88.632280
 2319         hx     89    bbb     H3   2319 0.11563300   1.008000   ; qtot 88.747913
 2320         hx     89    bbb     H4   2320 0.11563300   1.008000   ; qtot 88.863546
 2321         hc     89    bbb     H5   2321 0.08347900   1.008000   ; qtot 88.947025
 2322         hc     89    bbb     H6   2322 0.08347900   1.008000   ; qtot 89.030504
 2323         hc     89    bbb     H7   2323 0.08347900   1.008000   ; qtot 89.113983
 2324         hc     89    bbb     H8   2324 0.08347900   1.008000   ; qtot 89.197462
 2325         hx     89    bbb     H9   2325 0.07988000   1.008000   ; qtot 89.277342
 2326         hx     89    bbb    H10   2326 0.07988000   1.008000   ; qtot 89.357222
 2327         h1     89    bbb    H11   2327 0.10618100   1.008000   ; qtot 89.463403
 2328         h1     89    bbb    H12   2328 0.10618100   1.008000   ; qtot 89.569584
 2329         hn     89    bbb    H13   2329 0.25916100   1.008000   ; qtot 89.828745
 2330         hn     89    bbb    H25   2330 0.17125500   1.008000   ; qtot 90.000000
; residue   90 bbb rtp bbb q 1.0
 2331         n4     90    bbb     N1   2331 -0.02747900  14.010000   ; qtot 89.972521
 2332         c3     90    bbb     C1   2332 -0.05097600  12.010000   ; qtot 89.921545
 2333         c3     90    bbb     C2   2333 -0.05097600  12.010000   ; qtot 89.870569
 2334         c3     90    bbb     C3   2334 -0.18457900  12.010000   ; qtot 89.685990
 2335          c     90    bbb     C4   2335 0.67254400  12.010000   ; qtot 90.358534
 2336         c3     90    bbb     C5   2336 -0.18457900  12.010000   ; qtot 90.173955
 2337          c     90    bbb     C6   2337 0.67254400  12.010000   ; qtot 90.846499
 2338         c3     90    bbb     C7   2338 -0.02083000  12.010000   ; qtot 90.825669
 2339         c3     90    bbb     C8   2339 -0.03328100  12.010000   ; qtot 90.792388
 2340          n     90    bbb     N2   2340 -0.33303000  14.010000   ; qtot 90.459358
 2341          o     90    bbb     O1   2341 -0.52917200  16.000000   ; qtot 89.930186
 2342          o     90    bbb     O2   2342 -0.52917200  16.000000   ; qtot 89.401014
 2343         hx     90    bbb     H1   2343 0.11563300   1.008000   ; qtot 89.516647
 2344         hx     90    bbb     H2   2344 0.11563300   1.008000   ; qtot 89.632280
 2345         hx     90    bbb     H3   2345 0.11563300   1.008000   ; qtot 89.747913
 2346         hx     90    bbb     H4   2346 0.11563300   1.008000   ; qtot 89.863546
 2347         hc     90    bbb     H5   2347 0.08347900   1.008000   ; qtot 89.947025
 2348         hc     90    bbb     H6   2348 0.08347900   1.008000   ; qtot 90.030504
 2349         hc     90    bbb     H7   2349 0.08347900   1.008000   ; qtot 90.113983
 2350         hc     90    bbb     H8   2350 0.08347900   1.008000   ; qtot 90.197462
 2351         hx     90    bbb     H9   2351 0.07988000   1.008000   ; qtot 90.277342
 2352         hx     90    bbb    H10   2352 0.07988000   1.008000   ; qtot 90.357222
 2353         h1     90    bbb    H11   2353 0.10618100   1.008000   ; qtot 90.463403
 2354         h1     90    bbb    H12   2354 0.10618100   1.008000   ; qtot 90.569584
 2355         hn     90    bbb    H13   2355 0.25916100   1.008000   ; qtot 90.828745
 2356         hn     90    bbb    H25   2356 0.17125500   1.008000   ; qtot 91.000000
; residue   91 bbb rtp bbb q 1.0
 2357         n4     91    bbb     N1   2357 -0.02747900  14.010000   ; qtot 90.972521
 2358         c3     91    bbb     C1   2358 -0.05097600  12.010000   ; qtot 90.921545
 2359         c3     91    bbb     C2   2359 -0.05097600  12.010000   ; qtot 90.870569
 2360         c3     91    bbb     C3   2360 -0.18457900  12.010000   ; qtot 90.685990
 2361          c     91    bbb     C4   2361 0.67254400  12.010000   ; qtot 91.358534
 2362         c3     91    bbb     C5   2362 -0.18457900  12.010000   ; qtot 91.173955
 2363          c     91    bbb     C6   2363 0.67254400  12.010000   ; qtot 91.846499
 2364         c3     91    bbb     C7   2364 -0.02083000  12.010000   ; qtot 91.825669
 2365         c3     91    bbb     C8   2365 -0.03328100  12.010000   ; qtot 91.792388
 2366          n     91    bbb     N2   2366 -0.33303000  14.010000   ; qtot 91.459358
 2367          o     91    bbb     O1   2367 -0.52917200  16.000000   ; qtot 90.930186
 2368          o     91    bbb     O2   2368 -0.52917200  16.000000   ; qtot 90.401014
 2369         hx     91    bbb     H1   2369 0.11563300   1.008000   ; qtot 90.516647
 2370         hx     91    bbb     H2   2370 0.11563300   1.008000   ; qtot 90.632280
 2371         hx     91    bbb     H3   2371 0.11563300   1.008000   ; qtot 90.747913
 2372         hx     91    bbb     H4   2372 0.11563300   1.008000   ; qtot 90.863546
 2373         hc     91    bbb     H5   2373 0.08347900   1.008000   ; qtot 90.947025
 2374         hc     91    bbb     H6   2374 0.08347900   1.008000   ; qtot 91.030504
 2375         hc     91    bbb     H7   2375 0.08347900   1.008000   ; qtot 91.113983
 2376         hc     91    bbb     H8   2376 0.08347900   1.008000   ; qtot 91.197462
 2377         hx     91    bbb     H9   2377 0.07988000   1.008000   ; qtot 91.277342
 2378         hx     91    bbb    H10   2378 0.07988000   1.008000   ; qtot 91.357222
 2379         h1     91    bbb    H11   2379 0.10618100   1.008000   ; qtot 91.463403
 2380         h1     91    bbb    H12   2380 0.10618100   1.008000   ; qtot 91.569584
 2381         hn     91    bbb    H13   2381 0.25916100   1.008000   ; qtot 91.828745
 2382         hn     91    bbb    H25   2382 0.17125500   1.008000   ; qtot 92.000000
; residue   92 bbb rtp bbb q 1.0
 2383         n4     92    bbb     N1   2383 -0.02747900  14.010000   ; qtot 91.972521
 2384         c3     92    bbb     C1   2384 -0.05097600  12.010000   ; qtot 91.921545
 2385         c3     92    bbb     C2   2385 -0.05097600  12.010000   ; qtot 91.870569
 2386         c3     92    bbb     C3   2386 -0.18457900  12.010000   ; qtot 91.685990
 2387          c     92    bbb     C4   2387 0.67254400  12.010000   ; qtot 92.358534
 2388         c3     92    bbb     C5   2388 -0.18457900  12.010000   ; qtot 92.173955
 2389          c     92    bbb     C6   2389 0.67254400  12.010000   ; qtot 92.846499
 2390         c3     92    bbb     C7   2390 -0.02083000  12.010000   ; qtot 92.825669
 2391         c3     92    bbb     C8   2391 -0.03328100  12.010000   ; qtot 92.792388
 2392          n     92    bbb     N2   2392 -0.33303000  14.010000   ; qtot 92.459358
 2393          o     92    bbb     O1   2393 -0.52917200  16.000000   ; qtot 91.930186
 2394          o     92    bbb     O2   2394 -0.52917200  16.000000   ; qtot 91.401014
 2395         hx     92    bbb     H1   2395 0.11563300   1.008000   ; qtot 91.516647
 2396         hx     92    bbb     H2   2396 0.11563300   1.008000   ; qtot 91.632280
 2397         hx     92    bbb     H3   2397 0.11563300   1.008000   ; qtot 91.747913
 2398         hx     92    bbb     H4   2398 0.11563300   1.008000   ; qtot 91.863546
 2399         hc     92    bbb     H5   2399 0.08347900   1.008000   ; qtot 91.947025
 2400         hc     92    bbb     H6   2400 0.08347900   1.008000   ; qtot 92.030504
 2401         hc     92    bbb     H7   2401 0.08347900   1.008000   ; qtot 92.113983
 2402         hc     92    bbb     H8   2402 0.08347900   1.008000   ; qtot 92.197462
 2403         hx     92    bbb     H9   2403 0.07988000   1.008000   ; qtot 92.277342
 2404         hx     92    bbb    H10   2404 0.07988000   1.008000   ; qtot 92.357222
 2405         h1     92    bbb    H11   2405 0.10618100   1.008000   ; qtot 92.463403
 2406         h1     92    bbb    H12   2406 0.10618100   1.008000   ; qtot 92.569584
 2407         hn     92    bbb    H13   2407 0.25916100   1.008000   ; qtot 92.828745
 2408         hn     92    bbb    H25   2408 0.17125500   1.008000   ; qtot 93.000000
; residue   93 bbb rtp bbb q 1.0
 2409         n4     93    bbb     N1   2409 -0.02747900  14.010000   ; qtot 92.972521
 2410         c3     93    bbb     C1   2410 -0.05097600  12.010000   ; qtot 92.921545
 2411         c3     93    bbb     C2   2411 -0.05097600  12.010000   ; qtot 92.870569
 2412         c3     93    bbb     C3   2412 -0.18457900  12.010000   ; qtot 92.685990
 2413          c     93    bbb     C4   2413 0.67254400  12.010000   ; qtot 93.358534
 2414         c3     93    bbb     C5   2414 -0.18457900  12.010000   ; qtot 93.173955
 2415          c     93    bbb     C6   2415 0.67254400  12.010000   ; qtot 93.846499
 2416         c3     93    bbb     C7   2416 -0.02083000  12.010000   ; qtot 93.825669
 2417         c3     93    bbb     C8   2417 -0.03328100  12.010000   ; qtot 93.792388
 2418          n     93    bbb     N2   2418 -0.33303000  14.010000   ; qtot 93.459358
 2419          o     93    bbb     O1   2419 -0.52917200  16.000000   ; qtot 92.930186
 2420          o     93    bbb     O2   2420 -0.52917200  16.000000   ; qtot 92.401014
 2421         hx     93    bbb     H1   2421 0.11563300   1.008000   ; qtot 92.516647
 2422         hx     93    bbb     H2   2422 0.11563300   1.008000   ; qtot 92.632280
 2423         hx     93    bbb     H3   2423 0.11563300   1.008000   ; qtot 92.747913
 2424         hx     93    bbb     H4   2424 0.11563300   1.008000   ; qtot 92.863546
 2425         hc     93    bbb     H5   2425 0.08347900   1.008000   ; qtot 92.947025
 2426         hc     93    bbb     H6   2426 0.08347900   1.008000   ; qtot 93.030504
 2427         hc     93    bbb     H7   2427 0.08347900   1.008000   ; qtot 93.113983
 2428         hc     93    bbb     H8   2428 0.08347900   1.008000   ; qtot 93.197462
 2429         hx     93    bbb     H9   2429 0.07988000   1.008000   ; qtot 93.277342
 2430         hx     93    bbb    H10   2430 0.07988000   1.008000   ; qtot 93.357222
 2431         h1     93    bbb    H11   2431 0.10618100   1.008000   ; qtot 93.463403
 2432         h1     93    bbb    H12   2432 0.10618100   1.008000   ; qtot 93.569584
 2433         hn     93    bbb    H13   2433 0.25916100   1.008000   ; qtot 93.828745
 2434         hn     93    bbb    H25   2434 0.17125500   1.008000   ; qtot 94.000000
; residue   94 bbb rtp bbb q 1.0
 2435         n4     94    bbb     N1   2435 -0.02747900  14.010000   ; qtot 93.972521
 2436         c3     94    bbb     C1   2436 -0.05097600  12.010000   ; qtot 93.921545
 2437         c3     94    bbb     C2   2437 -0.05097600  12.010000   ; qtot 93.870569
 2438         c3     94    bbb     C3   2438 -0.18457900  12.010000   ; qtot 93.685990
 2439          c     94    bbb     C4   2439 0.67254400  12.010000   ; qtot 94.358534
 2440         c3     94    bbb     C5   2440 -0.18457900  12.010000   ; qtot 94.173955
 2441          c     94    bbb     C6   2441 0.67254400  12.010000   ; qtot 94.846499
 2442         c3     94    bbb     C7   2442 -0.02083000  12.010000   ; qtot 94.825669
 2443         c3     94    bbb     C8   2443 -0.03328100  12.010000   ; qtot 94.792388
 2444          n     94    bbb     N2   2444 -0.33303000  14.010000   ; qtot 94.459358
 2445          o     94    bbb     O1   2445 -0.52917200  16.000000   ; qtot 93.930186
 2446          o     94    bbb     O2   2446 -0.52917200  16.000000   ; qtot 93.401014
 2447         hx     94    bbb     H1   2447 0.11563300   1.008000   ; qtot 93.516647
 2448         hx     94    bbb     H2   2448 0.11563300   1.008000   ; qtot 93.632280
 2449         hx     94    bbb     H3   2449 0.11563300   1.008000   ; qtot 93.747913
 2450         hx     94    bbb     H4   2450 0.11563300   1.008000   ; qtot 93.863546
 2451         hc     94    bbb     H5   2451 0.08347900   1.008000   ; qtot 93.947025
 2452         hc     94    bbb     H6   2452 0.08347900   1.008000   ; qtot 94.030504
 2453         hc     94    bbb     H7   2453 0.08347900   1.008000   ; qtot 94.113983
 2454         hc     94    bbb     H8   2454 0.08347900   1.008000   ; qtot 94.197462
 2455         hx     94    bbb     H9   2455 0.07988000   1.008000   ; qtot 94.277342
 2456         hx     94    bbb    H10   2456 0.07988000   1.008000   ; qtot 94.357222
 2457         h1     94    bbb    H11   2457 0.10618100   1.008000   ; qtot 94.463403
 2458         h1     94    bbb    H12   2458 0.10618100   1.008000   ; qtot 94.569584
 2459         hn     94    bbb    H13   2459 0.25916100   1.008000   ; qtot 94.828745
 2460         hn     94    bbb    H25   2460 0.17125500   1.008000   ; qtot 95.000000
; residue   95 bbb rtp bbb q 1.0
 2461         n4     95    bbb     N1   2461 -0.02747900  14.010000   ; qtot 94.972521
 2462         c3     95    bbb     C1   2462 -0.05097600  12.010000   ; qtot 94.921545
 2463         c3     95    bbb     C2   2463 -0.05097600  12.010000   ; qtot 94.870569
 2464         c3     95    bbb     C3   2464 -0.18457900  12.010000   ; qtot 94.685990
 2465          c     95    bbb     C4   2465 0.67254400  12.010000   ; qtot 95.358534
 2466         c3     95    bbb     C5   2466 -0.18457900  12.010000   ; qtot 95.173955
 2467          c     95    bbb     C6   2467 0.67254400  12.010000   ; qtot 95.846499
 2468         c3     95    bbb     C7   2468 -0.02083000  12.010000   ; qtot 95.825669
 2469         c3     95    bbb     C8   2469 -0.03328100  12.010000   ; qtot 95.792388
 2470          n     95    bbb     N2   2470 -0.33303000  14.010000   ; qtot 95.459358
 2471          o     95    bbb     O1   2471 -0.52917200  16.000000   ; qtot 94.930186
 2472          o     95    bbb     O2   2472 -0.52917200  16.000000   ; qtot 94.401014
 2473         hx     95    bbb     H1   2473 0.11563300   1.008000   ; qtot 94.516647
 2474         hx     95    bbb     H2   2474 0.11563300   1.008000   ; qtot 94.632280
 2475         hx     95    bbb     H3   2475 0.11563300   1.008000   ; qtot 94.747913
 2476         hx     95    bbb     H4   2476 0.11563300   1.008000   ; qtot 94.863546
 2477         hc     95    bbb     H5   2477 0.08347900   1.008000   ; qtot 94.947025
 2478         hc     95    bbb     H6   2478 0.08347900   1.008000   ; qtot 95.030504
 2479         hc     95    bbb     H7   2479 0.08347900   1.008000   ; qtot 95.113983
 2480         hc     95    bbb     H8   2480 0.08347900   1.008000   ; qtot 95.197462
 2481         hx     95    bbb     H9   2481 0.07988000   1.008000   ; qtot 95.277342
 2482         hx     95    bbb    H10   2482 0.07988000   1.008000   ; qtot 95.357222
 2483         h1     95    bbb    H11   2483 0.10618100   1.008000   ; qtot 95.463403
 2484         h1     95    bbb    H12   2484 0.10618100   1.008000   ; qtot 95.569584
 2485         hn     95    bbb    H13   2485 0.25916100   1.008000   ; qtot 95.828745
 2486         hn     95    bbb    H25   2486 0.17125500   1.008000   ; qtot 96.000000
; residue   96 bbb rtp bbb q 1.0
 2487         n4     96    bbb     N1   2487 -0.02747900  14.010000   ; qtot 95.972521
 2488         c3     96    bbb     C1   2488 -0.05097600  12.010000   ; qtot 95.921545
 2489         c3     96    bbb     C2   2489 -0.05097600  12.010000   ; qtot 95.870569
 2490         c3     96    bbb     C3   2490 -0.18457900  12.010000   ; qtot 95.685990
 2491          c     96    bbb     C4   2491 0.67254400  12.010000   ; qtot 96.358534
 2492         c3     96    bbb     C5   2492 -0.18457900  12.010000   ; qtot 96.173955
 2493          c     96    bbb     C6   2493 0.67254400  12.010000   ; qtot 96.846499
 2494         c3     96    bbb     C7   2494 -0.02083000  12.010000   ; qtot 96.825669
 2495         c3     96    bbb     C8   2495 -0.03328100  12.010000   ; qtot 96.792388
 2496          n     96    bbb     N2   2496 -0.33303000  14.010000   ; qtot 96.459358
 2497          o     96    bbb     O1   2497 -0.52917200  16.000000   ; qtot 95.930186
 2498          o     96    bbb     O2   2498 -0.52917200  16.000000   ; qtot 95.401014
 2499         hx     96    bbb     H1   2499 0.11563300   1.008000   ; qtot 95.516647
 2500         hx     96    bbb     H2   2500 0.11563300   1.008000   ; qtot 95.632280
 2501         hx     96    bbb     H3   2501 0.11563300   1.008000   ; qtot 95.747913
 2502         hx     96    bbb     H4   2502 0.11563300   1.008000   ; qtot 95.863546
 2503         hc     96    bbb     H5   2503 0.08347900   1.008000   ; qtot 95.947025
 2504         hc     96    bbb     H6   2504 0.08347900   1.008000   ; qtot 96.030504
 2505         hc     96    bbb     H7   2505 0.08347900   1.008000   ; qtot 96.113983
 2506         hc     96    bbb     H8   2506 0.08347900   1.008000   ; qtot 96.197462
 2507         hx     96    bbb     H9   2507 0.07988000   1.008000   ; qtot 96.277342
 2508         hx     96    bbb    H10   2508 0.07988000   1.008000   ; qtot 96.357222
 2509         h1     96    bbb    H11   2509 0.10618100   1.008000   ; qtot 96.463403
 2510         h1     96    bbb    H12   2510 0.10618100   1.008000   ; qtot 96.569584
 2511         hn     96    bbb    H13   2511 0.25916100   1.008000   ; qtot 96.828745
 2512         hn     96    bbb    H25   2512 0.17125500   1.008000   ; qtot 97.000000
; residue   97 bbb rtp bbb q 1.0
 2513         n4     97    bbb     N1   2513 -0.02747900  14.010000   ; qtot 96.972521
 2514         c3     97    bbb     C1   2514 -0.05097600  12.010000   ; qtot 96.921545
 2515         c3     97    bbb     C2   2515 -0.05097600  12.010000   ; qtot 96.870569
 2516         c3     97    bbb     C3   2516 -0.18457900  12.010000   ; qtot 96.685990
 2517          c     97    bbb     C4   2517 0.67254400  12.010000   ; qtot 97.358534
 2518         c3     97    bbb     C5   2518 -0.18457900  12.010000   ; qtot 97.173955
 2519          c     97    bbb     C6   2519 0.67254400  12.010000   ; qtot 97.846499
 2520         c3     97    bbb     C7   2520 -0.02083000  12.010000   ; qtot 97.825669
 2521         c3     97    bbb     C8   2521 -0.03328100  12.010000   ; qtot 97.792388
 2522          n     97    bbb     N2   2522 -0.33303000  14.010000   ; qtot 97.459358
 2523          o     97    bbb     O1   2523 -0.52917200  16.000000   ; qtot 96.930186
 2524          o     97    bbb     O2   2524 -0.52917200  16.000000   ; qtot 96.401014
 2525         hx     97    bbb     H1   2525 0.11563300   1.008000   ; qtot 96.516647
 2526         hx     97    bbb     H2   2526 0.11563300   1.008000   ; qtot 96.632280
 2527         hx     97    bbb     H3   2527 0.11563300   1.008000   ; qtot 96.747913
 2528         hx     97    bbb     H4   2528 0.11563300   1.008000   ; qtot 96.863546
 2529         hc     97    bbb     H5   2529 0.08347900   1.008000   ; qtot 96.947025
 2530         hc     97    bbb     H6   2530 0.08347900   1.008000   ; qtot 97.030504
 2531         hc     97    bbb     H7   2531 0.08347900   1.008000   ; qtot 97.113983
 2532         hc     97    bbb     H8   2532 0.08347900   1.008000   ; qtot 97.197462
 2533         hx     97    bbb     H9   2533 0.07988000   1.008000   ; qtot 97.277342
 2534         hx     97    bbb    H10   2534 0.07988000   1.008000   ; qtot 97.357222
 2535         h1     97    bbb    H11   2535 0.10618100   1.008000   ; qtot 97.463403
 2536         h1     97    bbb    H12   2536 0.10618100   1.008000   ; qtot 97.569584
 2537         hn     97    bbb    H13   2537 0.25916100   1.008000   ; qtot 97.828745
 2538         hn     97    bbb    H25   2538 0.17125500   1.008000   ; qtot 98.000000
; residue   98 bbb rtp bbb q 1.0
 2539         n4     98    bbb     N1   2539 -0.02747900  14.010000   ; qtot 97.972521
 2540         c3     98    bbb     C1   2540 -0.05097600  12.010000   ; qtot 97.921545
 2541         c3     98    bbb     C2   2541 -0.05097600  12.010000   ; qtot 97.870569
 2542         c3     98    bbb     C3   2542 -0.18457900  12.010000   ; qtot 97.685990
 2543          c     98    bbb     C4   2543 0.67254400  12.010000   ; qtot 98.358534
 2544         c3     98    bbb     C5   2544 -0.18457900  12.010000   ; qtot 98.173955
 2545          c     98    bbb     C6   2545 0.67254400  12.010000   ; qtot 98.846499
 2546         c3     98    bbb     C7   2546 -0.02083000  12.010000   ; qtot 98.825669
 2547         c3     98    bbb     C8   2547 -0.03328100  12.010000   ; qtot 98.792388
 2548          n     98    bbb     N2   2548 -0.33303000  14.010000   ; qtot 98.459358
 2549          o     98    bbb     O1   2549 -0.52917200  16.000000   ; qtot 97.930186
 2550          o     98    bbb     O2   2550 -0.52917200  16.000000   ; qtot 97.401014
 2551         hx     98    bbb     H1   2551 0.11563300   1.008000   ; qtot 97.516647
 2552         hx     98    bbb     H2   2552 0.11563300   1.008000   ; qtot 97.632280
 2553         hx     98    bbb     H3   2553 0.11563300   1.008000   ; qtot 97.747913
 2554         hx     98    bbb     H4   2554 0.11563300   1.008000   ; qtot 97.863546
 2555         hc     98    bbb     H5   2555 0.08347900   1.008000   ; qtot 97.947025
 2556         hc     98    bbb     H6   2556 0.08347900   1.008000   ; qtot 98.030504
 2557         hc     98    bbb     H7   2557 0.08347900   1.008000   ; qtot 98.113983
 2558         hc     98    bbb     H8   2558 0.08347900   1.008000   ; qtot 98.197462
 2559         hx     98    bbb     H9   2559 0.07988000   1.008000   ; qtot 98.277342
 2560         hx     98    bbb    H10   2560 0.07988000   1.008000   ; qtot 98.357222
 2561         h1     98    bbb    H11   2561 0.10618100   1.008000   ; qtot 98.463403
 2562         h1     98    bbb    H12   2562 0.10618100   1.008000   ; qtot 98.569584
 2563         hn     98    bbb    H13   2563 0.25916100   1.008000   ; qtot 98.828745
 2564         hn     98    bbb    H25   2564 0.17125500   1.008000   ; qtot 99.000000
; residue   99 bbb rtp bbb q 1.0
 2565         n4     99    bbb     N1   2565 -0.02747900  14.010000   ; qtot 98.972521
 2566         c3     99    bbb     C1   2566 -0.05097600  12.010000   ; qtot 98.921545
 2567         c3     99    bbb     C2   2567 -0.05097600  12.010000   ; qtot 98.870569
 2568         c3     99    bbb     C3   2568 -0.18457900  12.010000   ; qtot 98.685990
 2569          c     99    bbb     C4   2569 0.67254400  12.010000   ; qtot 99.358534
 2570         c3     99    bbb     C5   2570 -0.18457900  12.010000   ; qtot 99.173955
 2571          c     99    bbb     C6   2571 0.67254400  12.010000   ; qtot 99.846499
 2572         c3     99    bbb     C7   2572 -0.02083000  12.010000   ; qtot 99.825669
 2573         c3     99    bbb     C8   2573 -0.03328100  12.010000   ; qtot 99.792388
 2574          n     99    bbb     N2   2574 -0.33303000  14.010000   ; qtot 99.459358
 2575          o     99    bbb     O1   2575 -0.52917200  16.000000   ; qtot 98.930186
 2576          o     99    bbb     O2   2576 -0.52917200  16.000000   ; qtot 98.401014
 2577         hx     99    bbb     H1   2577 0.11563300   1.008000   ; qtot 98.516647
 2578         hx     99    bbb     H2   2578 0.11563300   1.008000   ; qtot 98.632280
 2579         hx     99    bbb     H3   2579 0.11563300   1.008000   ; qtot 98.747913
 2580         hx     99    bbb     H4   2580 0.11563300   1.008000   ; qtot 98.863546
 2581         hc     99    bbb     H5   2581 0.08347900   1.008000   ; qtot 98.947025
 2582         hc     99    bbb     H6   2582 0.08347900   1.008000   ; qtot 99.030504
 2583         hc     99    bbb     H7   2583 0.08347900   1.008000   ; qtot 99.113983
 2584         hc     99    bbb     H8   2584 0.08347900   1.008000   ; qtot 99.197462
 2585         hx     99    bbb     H9   2585 0.07988000   1.008000   ; qtot 99.277342
 2586         hx     99    bbb    H10   2586 0.07988000   1.008000   ; qtot 99.357222
 2587         h1     99    bbb    H11   2587 0.10618100   1.008000   ; qtot 99.463403
 2588         h1     99    bbb    H12   2588 0.10618100   1.008000   ; qtot 99.569584
 2589         hn     99    bbb    H13   2589 0.25916100   1.008000   ; qtot 99.828745
 2590         hn     99    bbb    H25   2590 0.17125500   1.008000   ; qtot 100.000000
; residue  100 bbb rtp bbb q 1.0
 2591         n4    100    bbb     N1   2591 -0.02747900  14.010000   ; qtot 99.972521
 2592         c3    100    bbb     C1   2592 -0.05097600  12.010000   ; qtot 99.921545
 2593         c3    100    bbb     C2   2593 -0.05097600  12.010000   ; qtot 99.870569
 2594         c3    100    bbb     C3   2594 -0.18457900  12.010000   ; qtot 99.685990
 2595          c    100    bbb     C4   2595 0.67254400  12.010000   ; qtot 100.358534
 2596         c3    100    bbb     C5   2596 -0.18457900  12.010000   ; qtot 100.173955
 2597          c    100    bbb     C6   2597 0.67254400  12.010000   ; qtot 100.846499
 2598         c3    100    bbb     C7   2598 -0.02083000  12.010000   ; qtot 100.825669
 2599         c3    100    bbb     C8   2599 -0.03328100  12.010000   ; qtot 100.792388
 2600          n    100    bbb     N2   2600 -0.33303000  14.010000   ; qtot 100.459358
 2601          o    100    bbb     O1   2601 -0.52917200  16.000000   ; qtot 99.930186
 2602          o    100    bbb     O2   2602 -0.52917200  16.000000   ; qtot 99.401014
 2603         hx    100    bbb     H1   2603 0.11563300   1.008000   ; qtot 99.516647
 2604         hx    100    bbb     H2   2604 0.11563300   1.008000   ; qtot 99.632280
 2605         hx    100    bbb     H3   2605 0.11563300   1.008000   ; qtot 99.747913
 2606         hx    100    bbb     H4   2606 0.11563300   1.008000   ; qtot 99.863546
 2607         hc    100    bbb     H5   2607 0.08347900   1.008000   ; qtot 99.947025
 2608         hc    100    bbb     H6   2608 0.08347900   1.008000   ; qtot 100.030504
 2609         hc    100    bbb     H7   2609 0.08347900   1.008000   ; qtot 100.113983
 2610         hc    100    bbb     H8   2610 0.08347900   1.008000   ; qtot 100.197462
 2611         hx    100    bbb     H9   2611 0.07988000   1.008000   ; qtot 100.277342
 2612         hx    100    bbb    H10   2612 0.07988000   1.008000   ; qtot 100.357222
 2613         h1    100    bbb    H11   2613 0.10618100   1.008000   ; qtot 100.463403
 2614         h1    100    bbb    H12   2614 0.10618100   1.008000   ; qtot 100.569584
 2615         hn    100    bbb    H13   2615 0.25916100   1.008000   ; qtot 100.828745
 2616         hn    100    bbb    H25   2616 0.17125500   1.008000   ; qtot 101.000000
; residue  101 bbb rtp bbb q 1.0
 2617         n4    101    bbb     N1   2617 -0.02747900  14.010000   ; qtot 100.972521
 2618         c3    101    bbb     C1   2618 -0.05097600  12.010000   ; qtot 100.921545
 2619         c3    101    bbb     C2   2619 -0.05097600  12.010000   ; qtot 100.870569
 2620         c3    101    bbb     C3   2620 -0.18457900  12.010000   ; qtot 100.685990
 2621          c    101    bbb     C4   2621 0.67254400  12.010000   ; qtot 101.358534
 2622         c3    101    bbb     C5   2622 -0.18457900  12.010000   ; qtot 101.173955
 2623          c    101    bbb     C6   2623 0.67254400  12.010000   ; qtot 101.846499
 2624         c3    101    bbb     C7   2624 -0.02083000  12.010000   ; qtot 101.825669
 2625         c3    101    bbb     C8   2625 -0.03328100  12.010000   ; qtot 101.792388
 2626          n    101    bbb     N2   2626 -0.33303000  14.010000   ; qtot 101.459358
 2627          o    101    bbb     O1   2627 -0.52917200  16.000000   ; qtot 100.930186
 2628          o    101    bbb     O2   2628 -0.52917200  16.000000   ; qtot 100.401014
 2629         hx    101    bbb     H1   2629 0.11563300   1.008000   ; qtot 100.516647
 2630         hx    101    bbb     H2   2630 0.11563300   1.008000   ; qtot 100.632280
 2631         hx    101    bbb     H3   2631 0.11563300   1.008000   ; qtot 100.747913
 2632         hx    101    bbb     H4   2632 0.11563300   1.008000   ; qtot 100.863546
 2633         hc    101    bbb     H5   2633 0.08347900   1.008000   ; qtot 100.947025
 2634         hc    101    bbb     H6   2634 0.08347900   1.008000   ; qtot 101.030504
 2635         hc    101    bbb     H7   2635 0.08347900   1.008000   ; qtot 101.113983
 2636         hc    101    bbb     H8   2636 0.08347900   1.008000   ; qtot 101.197462
 2637         hx    101    bbb     H9   2637 0.07988000   1.008000   ; qtot 101.277342
 2638         hx    101    bbb    H10   2638 0.07988000   1.008000   ; qtot 101.357222
 2639         h1    101    bbb    H11   2639 0.10618100   1.008000   ; qtot 101.463403
 2640         h1    101    bbb    H12   2640 0.10618100   1.008000   ; qtot 101.569584
 2641         hn    101    bbb    H13   2641 0.25916100   1.008000   ; qtot 101.828745
 2642         hn    101    bbb    H25   2642 0.17125500   1.008000   ; qtot 102.000000
; residue  102 bbb rtp bbb q 1.0
 2643         n4    102    bbb     N1   2643 -0.02747900  14.010000   ; qtot 101.972521
 2644         c3    102    bbb     C1   2644 -0.05097600  12.010000   ; qtot 101.921545
 2645         c3    102    bbb     C2   2645 -0.05097600  12.010000   ; qtot 101.870569
 2646         c3    102    bbb     C3   2646 -0.18457900  12.010000   ; qtot 101.685990
 2647          c    102    bbb     C4   2647 0.67254400  12.010000   ; qtot 102.358534
 2648         c3    102    bbb     C5   2648 -0.18457900  12.010000   ; qtot 102.173955
 2649          c    102    bbb     C6   2649 0.67254400  12.010000   ; qtot 102.846499
 2650         c3    102    bbb     C7   2650 -0.02083000  12.010000   ; qtot 102.825669
 2651         c3    102    bbb     C8   2651 -0.03328100  12.010000   ; qtot 102.792388
 2652          n    102    bbb     N2   2652 -0.33303000  14.010000   ; qtot 102.459358
 2653          o    102    bbb     O1   2653 -0.52917200  16.000000   ; qtot 101.930186
 2654          o    102    bbb     O2   2654 -0.52917200  16.000000   ; qtot 101.401014
 2655         hx    102    bbb     H1   2655 0.11563300   1.008000   ; qtot 101.516647
 2656         hx    102    bbb     H2   2656 0.11563300   1.008000   ; qtot 101.632280
 2657         hx    102    bbb     H3   2657 0.11563300   1.008000   ; qtot 101.747913
 2658         hx    102    bbb     H4   2658 0.11563300   1.008000   ; qtot 101.863546
 2659         hc    102    bbb     H5   2659 0.08347900   1.008000   ; qtot 101.947025
 2660         hc    102    bbb     H6   2660 0.08347900   1.008000   ; qtot 102.030504
 2661         hc    102    bbb     H7   2661 0.08347900   1.008000   ; qtot 102.113983
 2662         hc    102    bbb     H8   2662 0.08347900   1.008000   ; qtot 102.197462
 2663         hx    102    bbb     H9   2663 0.07988000   1.008000   ; qtot 102.277342
 2664         hx    102    bbb    H10   2664 0.07988000   1.008000   ; qtot 102.357222
 2665         h1    102    bbb    H11   2665 0.10618100   1.008000   ; qtot 102.463403
 2666         h1    102    bbb    H12   2666 0.10618100   1.008000   ; qtot 102.569584
 2667         hn    102    bbb    H13   2667 0.25916100   1.008000   ; qtot 102.828745
 2668         hn    102    bbb    H25   2668 0.17125500   1.008000   ; qtot 103.000000
; residue  103 bbb rtp bbb q 1.0
 2669         n4    103    bbb     N1   2669 -0.02747900  14.010000   ; qtot 102.972521
 2670         c3    103    bbb     C1   2670 -0.05097600  12.010000   ; qtot 102.921545
 2671         c3    103    bbb     C2   2671 -0.05097600  12.010000   ; qtot 102.870569
 2672         c3    103    bbb     C3   2672 -0.18457900  12.010000   ; qtot 102.685990
 2673          c    103    bbb     C4   2673 0.67254400  12.010000   ; qtot 103.358534
 2674         c3    103    bbb     C5   2674 -0.18457900  12.010000   ; qtot 103.173955
 2675          c    103    bbb     C6   2675 0.67254400  12.010000   ; qtot 103.846499
 2676         c3    103    bbb     C7   2676 -0.02083000  12.010000   ; qtot 103.825669
 2677         c3    103    bbb     C8   2677 -0.03328100  12.010000   ; qtot 103.792388
 2678          n    103    bbb     N2   2678 -0.33303000  14.010000   ; qtot 103.459358
 2679          o    103    bbb     O1   2679 -0.52917200  16.000000   ; qtot 102.930186
 2680          o    103    bbb     O2   2680 -0.52917200  16.000000   ; qtot 102.401014
 2681         hx    103    bbb     H1   2681 0.11563300   1.008000   ; qtot 102.516647
 2682         hx    103    bbb     H2   2682 0.11563300   1.008000   ; qtot 102.632280
 2683         hx    103    bbb     H3   2683 0.11563300   1.008000   ; qtot 102.747913
 2684         hx    103    bbb     H4   2684 0.11563300   1.008000   ; qtot 102.863546
 2685         hc    103    bbb     H5   2685 0.08347900   1.008000   ; qtot 102.947025
 2686         hc    103    bbb     H6   2686 0.08347900   1.008000   ; qtot 103.030504
 2687         hc    103    bbb     H7   2687 0.08347900   1.008000   ; qtot 103.113983
 2688         hc    103    bbb     H8   2688 0.08347900   1.008000   ; qtot 103.197462
 2689         hx    103    bbb     H9   2689 0.07988000   1.008000   ; qtot 103.277342
 2690         hx    103    bbb    H10   2690 0.07988000   1.008000   ; qtot 103.357222
 2691         h1    103    bbb    H11   2691 0.10618100   1.008000   ; qtot 103.463403
 2692         h1    103    bbb    H12   2692 0.10618100   1.008000   ; qtot 103.569584
 2693         hn    103    bbb    H13   2693 0.25916100   1.008000   ; qtot 103.828745
 2694         hn    103    bbb    H25   2694 0.17125500   1.008000   ; qtot 104.000000
; residue  104 bbb rtp bbb q 1.0
 2695         n4    104    bbb     N1   2695 -0.02747900  14.010000   ; qtot 103.972521
 2696         c3    104    bbb     C1   2696 -0.05097600  12.010000   ; qtot 103.921545
 2697         c3    104    bbb     C2   2697 -0.05097600  12.010000   ; qtot 103.870569
 2698         c3    104    bbb     C3   2698 -0.18457900  12.010000   ; qtot 103.685990
 2699          c    104    bbb     C4   2699 0.67254400  12.010000   ; qtot 104.358534
 2700         c3    104    bbb     C5   2700 -0.18457900  12.010000   ; qtot 104.173955
 2701          c    104    bbb     C6   2701 0.67254400  12.010000   ; qtot 104.846499
 2702         c3    104    bbb     C7   2702 -0.02083000  12.010000   ; qtot 104.825669
 2703         c3    104    bbb     C8   2703 -0.03328100  12.010000   ; qtot 104.792388
 2704          n    104    bbb     N2   2704 -0.33303000  14.010000   ; qtot 104.459358
 2705          o    104    bbb     O1   2705 -0.52917200  16.000000   ; qtot 103.930186
 2706          o    104    bbb     O2   2706 -0.52917200  16.000000   ; qtot 103.401014
 2707         hx    104    bbb     H1   2707 0.11563300   1.008000   ; qtot 103.516647
 2708         hx    104    bbb     H2   2708 0.11563300   1.008000   ; qtot 103.632280
 2709         hx    104    bbb     H3   2709 0.11563300   1.008000   ; qtot 103.747913
 2710         hx    104    bbb     H4   2710 0.11563300   1.008000   ; qtot 103.863546
 2711         hc    104    bbb     H5   2711 0.08347900   1.008000   ; qtot 103.947025
 2712         hc    104    bbb     H6   2712 0.08347900   1.008000   ; qtot 104.030504
 2713         hc    104    bbb     H7   2713 0.08347900   1.008000   ; qtot 104.113983
 2714         hc    104    bbb     H8   2714 0.08347900   1.008000   ; qtot 104.197462
 2715         hx    104    bbb     H9   2715 0.07988000   1.008000   ; qtot 104.277342
 2716         hx    104    bbb    H10   2716 0.07988000   1.008000   ; qtot 104.357222
 2717         h1    104    bbb    H11   2717 0.10618100   1.008000   ; qtot 104.463403
 2718         h1    104    bbb    H12   2718 0.10618100   1.008000   ; qtot 104.569584
 2719         hn    104    bbb    H13   2719 0.25916100   1.008000   ; qtot 104.828745
 2720         hn    104    bbb    H25   2720 0.17125500   1.008000   ; qtot 105.000000
; residue  105 bbb rtp bbb q 1.0
 2721         n4    105    bbb     N1   2721 -0.02747900  14.010000   ; qtot 104.972521
 2722         c3    105    bbb     C1   2722 -0.05097600  12.010000   ; qtot 104.921545
 2723         c3    105    bbb     C2   2723 -0.05097600  12.010000   ; qtot 104.870569
 2724         c3    105    bbb     C3   2724 -0.18457900  12.010000   ; qtot 104.685990
 2725          c    105    bbb     C4   2725 0.67254400  12.010000   ; qtot 105.358534
 2726         c3    105    bbb     C5   2726 -0.18457900  12.010000   ; qtot 105.173955
 2727          c    105    bbb     C6   2727 0.67254400  12.010000   ; qtot 105.846499
 2728         c3    105    bbb     C7   2728 -0.02083000  12.010000   ; qtot 105.825669
 2729         c3    105    bbb     C8   2729 -0.03328100  12.010000   ; qtot 105.792388
 2730          n    105    bbb     N2   2730 -0.33303000  14.010000   ; qtot 105.459358
 2731          o    105    bbb     O1   2731 -0.52917200  16.000000   ; qtot 104.930186
 2732          o    105    bbb     O2   2732 -0.52917200  16.000000   ; qtot 104.401014
 2733         hx    105    bbb     H1   2733 0.11563300   1.008000   ; qtot 104.516647
 2734         hx    105    bbb     H2   2734 0.11563300   1.008000   ; qtot 104.632280
 2735         hx    105    bbb     H3   2735 0.11563300   1.008000   ; qtot 104.747913
 2736         hx    105    bbb     H4   2736 0.11563300   1.008000   ; qtot 104.863546
 2737         hc    105    bbb     H5   2737 0.08347900   1.008000   ; qtot 104.947025
 2738         hc    105    bbb     H6   2738 0.08347900   1.008000   ; qtot 105.030504
 2739         hc    105    bbb     H7   2739 0.08347900   1.008000   ; qtot 105.113983
 2740         hc    105    bbb     H8   2740 0.08347900   1.008000   ; qtot 105.197462
 2741         hx    105    bbb     H9   2741 0.07988000   1.008000   ; qtot 105.277342
 2742         hx    105    bbb    H10   2742 0.07988000   1.008000   ; qtot 105.357222
 2743         h1    105    bbb    H11   2743 0.10618100   1.008000   ; qtot 105.463403
 2744         h1    105    bbb    H12   2744 0.10618100   1.008000   ; qtot 105.569584
 2745         hn    105    bbb    H13   2745 0.25916100   1.008000   ; qtot 105.828745
 2746         hn    105    bbb    H25   2746 0.17125500   1.008000   ; qtot 106.000000
; residue  106 bbb rtp bbb q 1.0
 2747         n4    106    bbb     N1   2747 -0.02747900  14.010000   ; qtot 105.972521
 2748         c3    106    bbb     C1   2748 -0.05097600  12.010000   ; qtot 105.921545
 2749         c3    106    bbb     C2   2749 -0.05097600  12.010000   ; qtot 105.870569
 2750         c3    106    bbb     C3   2750 -0.18457900  12.010000   ; qtot 105.685990
 2751          c    106    bbb     C4   2751 0.67254400  12.010000   ; qtot 106.358534
 2752         c3    106    bbb     C5   2752 -0.18457900  12.010000   ; qtot 106.173955
 2753          c    106    bbb     C6   2753 0.67254400  12.010000   ; qtot 106.846499
 2754         c3    106    bbb     C7   2754 -0.02083000  12.010000   ; qtot 106.825669
 2755         c3    106    bbb     C8   2755 -0.03328100  12.010000   ; qtot 106.792388
 2756          n    106    bbb     N2   2756 -0.33303000  14.010000   ; qtot 106.459358
 2757          o    106    bbb     O1   2757 -0.52917200  16.000000   ; qtot 105.930186
 2758          o    106    bbb     O2   2758 -0.52917200  16.000000   ; qtot 105.401014
 2759         hx    106    bbb     H1   2759 0.11563300   1.008000   ; qtot 105.516647
 2760         hx    106    bbb     H2   2760 0.11563300   1.008000   ; qtot 105.632280
 2761         hx    106    bbb     H3   2761 0.11563300   1.008000   ; qtot 105.747913
 2762         hx    106    bbb     H4   2762 0.11563300   1.008000   ; qtot 105.863546
 2763         hc    106    bbb     H5   2763 0.08347900   1.008000   ; qtot 105.947025
 2764         hc    106    bbb     H6   2764 0.08347900   1.008000   ; qtot 106.030504
 2765         hc    106    bbb     H7   2765 0.08347900   1.008000   ; qtot 106.113983
 2766         hc    106    bbb     H8   2766 0.08347900   1.008000   ; qtot 106.197462
 2767         hx    106    bbb     H9   2767 0.07988000   1.008000   ; qtot 106.277342
 2768         hx    106    bbb    H10   2768 0.07988000   1.008000   ; qtot 106.357222
 2769         h1    106    bbb    H11   2769 0.10618100   1.008000   ; qtot 106.463403
 2770         h1    106    bbb    H12   2770 0.10618100   1.008000   ; qtot 106.569584
 2771         hn    106    bbb    H13   2771 0.25916100   1.008000   ; qtot 106.828745
 2772         hn    106    bbb    H25   2772 0.17125500   1.008000   ; qtot 107.000000
; residue  107 bbb rtp bbb q 1.0
 2773         n4    107    bbb     N1   2773 -0.02747900  14.010000   ; qtot 106.972521
 2774         c3    107    bbb     C1   2774 -0.05097600  12.010000   ; qtot 106.921545
 2775         c3    107    bbb     C2   2775 -0.05097600  12.010000   ; qtot 106.870569
 2776         c3    107    bbb     C3   2776 -0.18457900  12.010000   ; qtot 106.685990
 2777          c    107    bbb     C4   2777 0.67254400  12.010000   ; qtot 107.358534
 2778         c3    107    bbb     C5   2778 -0.18457900  12.010000   ; qtot 107.173955
 2779          c    107    bbb     C6   2779 0.67254400  12.010000   ; qtot 107.846499
 2780         c3    107    bbb     C7   2780 -0.02083000  12.010000   ; qtot 107.825669
 2781         c3    107    bbb     C8   2781 -0.03328100  12.010000   ; qtot 107.792388
 2782          n    107    bbb     N2   2782 -0.33303000  14.010000   ; qtot 107.459358
 2783          o    107    bbb     O1   2783 -0.52917200  16.000000   ; qtot 106.930186
 2784          o    107    bbb     O2   2784 -0.52917200  16.000000   ; qtot 106.401014
 2785         hx    107    bbb     H1   2785 0.11563300   1.008000   ; qtot 106.516647
 2786         hx    107    bbb     H2   2786 0.11563300   1.008000   ; qtot 106.632280
 2787         hx    107    bbb     H3   2787 0.11563300   1.008000   ; qtot 106.747913
 2788         hx    107    bbb     H4   2788 0.11563300   1.008000   ; qtot 106.863546
 2789         hc    107    bbb     H5   2789 0.08347900   1.008000   ; qtot 106.947025
 2790         hc    107    bbb     H6   2790 0.08347900   1.008000   ; qtot 107.030504
 2791         hc    107    bbb     H7   2791 0.08347900   1.008000   ; qtot 107.113983
 2792         hc    107    bbb     H8   2792 0.08347900   1.008000   ; qtot 107.197462
 2793         hx    107    bbb     H9   2793 0.07988000   1.008000   ; qtot 107.277342
 2794         hx    107    bbb    H10   2794 0.07988000   1.008000   ; qtot 107.357222
 2795         h1    107    bbb    H11   2795 0.10618100   1.008000   ; qtot 107.463403
 2796         h1    107    bbb    H12   2796 0.10618100   1.008000   ; qtot 107.569584
 2797         hn    107    bbb    H13   2797 0.25916100   1.008000   ; qtot 107.828745
 2798         hn    107    bbb    H25   2798 0.17125500   1.008000   ; qtot 108.000000
; residue  108 bbb rtp bbb q 1.0
 2799         n4    108    bbb     N1   2799 -0.02747900  14.010000   ; qtot 107.972521
 2800         c3    108    bbb     C1   2800 -0.05097600  12.010000   ; qtot 107.921545
 2801         c3    108    bbb     C2   2801 -0.05097600  12.010000   ; qtot 107.870569
 2802         c3    108    bbb     C3   2802 -0.18457900  12.010000   ; qtot 107.685990
 2803          c    108    bbb     C4   2803 0.67254400  12.010000   ; qtot 108.358534
 2804         c3    108    bbb     C5   2804 -0.18457900  12.010000   ; qtot 108.173955
 2805          c    108    bbb     C6   2805 0.67254400  12.010000   ; qtot 108.846499
 2806         c3    108    bbb     C7   2806 -0.02083000  12.010000   ; qtot 108.825669
 2807         c3    108    bbb     C8   2807 -0.03328100  12.010000   ; qtot 108.792388
 2808          n    108    bbb     N2   2808 -0.33303000  14.010000   ; qtot 108.459358
 2809          o    108    bbb     O1   2809 -0.52917200  16.000000   ; qtot 107.930186
 2810          o    108    bbb     O2   2810 -0.52917200  16.000000   ; qtot 107.401014
 2811         hx    108    bbb     H1   2811 0.11563300   1.008000   ; qtot 107.516647
 2812         hx    108    bbb     H2   2812 0.11563300   1.008000   ; qtot 107.632280
 2813         hx    108    bbb     H3   2813 0.11563300   1.008000   ; qtot 107.747913
 2814         hx    108    bbb     H4   2814 0.11563300   1.008000   ; qtot 107.863546
 2815         hc    108    bbb     H5   2815 0.08347900   1.008000   ; qtot 107.947025
 2816         hc    108    bbb     H6   2816 0.08347900   1.008000   ; qtot 108.030504
 2817         hc    108    bbb     H7   2817 0.08347900   1.008000   ; qtot 108.113983
 2818         hc    108    bbb     H8   2818 0.08347900   1.008000   ; qtot 108.197462
 2819         hx    108    bbb     H9   2819 0.07988000   1.008000   ; qtot 108.277342
 2820         hx    108    bbb    H10   2820 0.07988000   1.008000   ; qtot 108.357222
 2821         h1    108    bbb    H11   2821 0.10618100   1.008000   ; qtot 108.463403
 2822         h1    108    bbb    H12   2822 0.10618100   1.008000   ; qtot 108.569584
 2823         hn    108    bbb    H13   2823 0.25916100   1.008000   ; qtot 108.828745
 2824         hn    108    bbb    H25   2824 0.17125500   1.008000   ; qtot 109.000000
; residue  109 bbb rtp bbb q 1.0
 2825         n4    109    bbb     N1   2825 -0.02747900  14.010000   ; qtot 108.972521
 2826         c3    109    bbb     C1   2826 -0.05097600  12.010000   ; qtot 108.921545
 2827         c3    109    bbb     C2   2827 -0.05097600  12.010000   ; qtot 108.870569
 2828         c3    109    bbb     C3   2828 -0.18457900  12.010000   ; qtot 108.685990
 2829          c    109    bbb     C4   2829 0.67254400  12.010000   ; qtot 109.358534
 2830         c3    109    bbb     C5   2830 -0.18457900  12.010000   ; qtot 109.173955
 2831          c    109    bbb     C6   2831 0.67254400  12.010000   ; qtot 109.846499
 2832         c3    109    bbb     C7   2832 -0.02083000  12.010000   ; qtot 109.825669
 2833         c3    109    bbb     C8   2833 -0.03328100  12.010000   ; qtot 109.792388
 2834          n    109    bbb     N2   2834 -0.33303000  14.010000   ; qtot 109.459358
 2835          o    109    bbb     O1   2835 -0.52917200  16.000000   ; qtot 108.930186
 2836          o    109    bbb     O2   2836 -0.52917200  16.000000   ; qtot 108.401014
 2837         hx    109    bbb     H1   2837 0.11563300   1.008000   ; qtot 108.516647
 2838         hx    109    bbb     H2   2838 0.11563300   1.008000   ; qtot 108.632280
 2839         hx    109    bbb     H3   2839 0.11563300   1.008000   ; qtot 108.747913
 2840         hx    109    bbb     H4   2840 0.11563300   1.008000   ; qtot 108.863546
 2841         hc    109    bbb     H5   2841 0.08347900   1.008000   ; qtot 108.947025
 2842         hc    109    bbb     H6   2842 0.08347900   1.008000   ; qtot 109.030504
 2843         hc    109    bbb     H7   2843 0.08347900   1.008000   ; qtot 109.113983
 2844         hc    109    bbb     H8   2844 0.08347900   1.008000   ; qtot 109.197462
 2845         hx    109    bbb     H9   2845 0.07988000   1.008000   ; qtot 109.277342
 2846         hx    109    bbb    H10   2846 0.07988000   1.008000   ; qtot 109.357222
 2847         h1    109    bbb    H11   2847 0.10618100   1.008000   ; qtot 109.463403
 2848         h1    109    bbb    H12   2848 0.10618100   1.008000   ; qtot 109.569584
 2849         hn    109    bbb    H13   2849 0.25916100   1.008000   ; qtot 109.828745
 2850         hn    109    bbb    H25   2850 0.17125500   1.008000   ; qtot 110.000000
; residue  110 bbb rtp bbb q 1.0
 2851         n4    110    bbb     N1   2851 -0.02747900  14.010000   ; qtot 109.972521
 2852         c3    110    bbb     C1   2852 -0.05097600  12.010000   ; qtot 109.921545
 2853         c3    110    bbb     C2   2853 -0.05097600  12.010000   ; qtot 109.870569
 2854         c3    110    bbb     C3   2854 -0.18457900  12.010000   ; qtot 109.685990
 2855          c    110    bbb     C4   2855 0.67254400  12.010000   ; qtot 110.358534
 2856         c3    110    bbb     C5   2856 -0.18457900  12.010000   ; qtot 110.173955
 2857          c    110    bbb     C6   2857 0.67254400  12.010000   ; qtot 110.846499
 2858         c3    110    bbb     C7   2858 -0.02083000  12.010000   ; qtot 110.825669
 2859         c3    110    bbb     C8   2859 -0.03328100  12.010000   ; qtot 110.792388
 2860          n    110    bbb     N2   2860 -0.33303000  14.010000   ; qtot 110.459358
 2861          o    110    bbb     O1   2861 -0.52917200  16.000000   ; qtot 109.930186
 2862          o    110    bbb     O2   2862 -0.52917200  16.000000   ; qtot 109.401014
 2863         hx    110    bbb     H1   2863 0.11563300   1.008000   ; qtot 109.516647
 2864         hx    110    bbb     H2   2864 0.11563300   1.008000   ; qtot 109.632280
 2865         hx    110    bbb     H3   2865 0.11563300   1.008000   ; qtot 109.747913
 2866         hx    110    bbb     H4   2866 0.11563300   1.008000   ; qtot 109.863546
 2867         hc    110    bbb     H5   2867 0.08347900   1.008000   ; qtot 109.947025
 2868         hc    110    bbb     H6   2868 0.08347900   1.008000   ; qtot 110.030504
 2869         hc    110    bbb     H7   2869 0.08347900   1.008000   ; qtot 110.113983
 2870         hc    110    bbb     H8   2870 0.08347900   1.008000   ; qtot 110.197462
 2871         hx    110    bbb     H9   2871 0.07988000   1.008000   ; qtot 110.277342
 2872         hx    110    bbb    H10   2872 0.07988000   1.008000   ; qtot 110.357222
 2873         h1    110    bbb    H11   2873 0.10618100   1.008000   ; qtot 110.463403
 2874         h1    110    bbb    H12   2874 0.10618100   1.008000   ; qtot 110.569584
 2875         hn    110    bbb    H13   2875 0.25916100   1.008000   ; qtot 110.828745
 2876         hn    110    bbb    H25   2876 0.17125500   1.008000   ; qtot 111.000000
; residue  111 bbb rtp bbb q 1.0
 2877         n4    111    bbb     N1   2877 -0.02747900  14.010000   ; qtot 110.972521
 2878         c3    111    bbb     C1   2878 -0.05097600  12.010000   ; qtot 110.921545
 2879         c3    111    bbb     C2   2879 -0.05097600  12.010000   ; qtot 110.870569
 2880         c3    111    bbb     C3   2880 -0.18457900  12.010000   ; qtot 110.685990
 2881          c    111    bbb     C4   2881 0.67254400  12.010000   ; qtot 111.358534
 2882         c3    111    bbb     C5   2882 -0.18457900  12.010000   ; qtot 111.173955
 2883          c    111    bbb     C6   2883 0.67254400  12.010000   ; qtot 111.846499
 2884         c3    111    bbb     C7   2884 -0.02083000  12.010000   ; qtot 111.825669
 2885         c3    111    bbb     C8   2885 -0.03328100  12.010000   ; qtot 111.792388
 2886          n    111    bbb     N2   2886 -0.33303000  14.010000   ; qtot 111.459358
 2887          o    111    bbb     O1   2887 -0.52917200  16.000000   ; qtot 110.930186
 2888          o    111    bbb     O2   2888 -0.52917200  16.000000   ; qtot 110.401014
 2889         hx    111    bbb     H1   2889 0.11563300   1.008000   ; qtot 110.516647
 2890         hx    111    bbb     H2   2890 0.11563300   1.008000   ; qtot 110.632280
 2891         hx    111    bbb     H3   2891 0.11563300   1.008000   ; qtot 110.747913
 2892         hx    111    bbb     H4   2892 0.11563300   1.008000   ; qtot 110.863546
 2893         hc    111    bbb     H5   2893 0.08347900   1.008000   ; qtot 110.947025
 2894         hc    111    bbb     H6   2894 0.08347900   1.008000   ; qtot 111.030504
 2895         hc    111    bbb     H7   2895 0.08347900   1.008000   ; qtot 111.113983
 2896         hc    111    bbb     H8   2896 0.08347900   1.008000   ; qtot 111.197462
 2897         hx    111    bbb     H9   2897 0.07988000   1.008000   ; qtot 111.277342
 2898         hx    111    bbb    H10   2898 0.07988000   1.008000   ; qtot 111.357222
 2899         h1    111    bbb    H11   2899 0.10618100   1.008000   ; qtot 111.463403
 2900         h1    111    bbb    H12   2900 0.10618100   1.008000   ; qtot 111.569584
 2901         hn    111    bbb    H13   2901 0.25916100   1.008000   ; qtot 111.828745
 2902         hn    111    bbb    H25   2902 0.17125500   1.008000   ; qtot 112.000000
; residue  112 bbb rtp bbb q 1.0
 2903         n4    112    bbb     N1   2903 -0.02747900  14.010000   ; qtot 111.972521
 2904         c3    112    bbb     C1   2904 -0.05097600  12.010000   ; qtot 111.921545
 2905         c3    112    bbb     C2   2905 -0.05097600  12.010000   ; qtot 111.870569
 2906         c3    112    bbb     C3   2906 -0.18457900  12.010000   ; qtot 111.685990
 2907          c    112    bbb     C4   2907 0.67254400  12.010000   ; qtot 112.358534
 2908         c3    112    bbb     C5   2908 -0.18457900  12.010000   ; qtot 112.173955
 2909          c    112    bbb     C6   2909 0.67254400  12.010000   ; qtot 112.846499
 2910         c3    112    bbb     C7   2910 -0.02083000  12.010000   ; qtot 112.825669
 2911         c3    112    bbb     C8   2911 -0.03328100  12.010000   ; qtot 112.792388
 2912          n    112    bbb     N2   2912 -0.33303000  14.010000   ; qtot 112.459358
 2913          o    112    bbb     O1   2913 -0.52917200  16.000000   ; qtot 111.930186
 2914          o    112    bbb     O2   2914 -0.52917200  16.000000   ; qtot 111.401014
 2915         hx    112    bbb     H1   2915 0.11563300   1.008000   ; qtot 111.516647
 2916         hx    112    bbb     H2   2916 0.11563300   1.008000   ; qtot 111.632280
 2917         hx    112    bbb     H3   2917 0.11563300   1.008000   ; qtot 111.747913
 2918         hx    112    bbb     H4   2918 0.11563300   1.008000   ; qtot 111.863546
 2919         hc    112    bbb     H5   2919 0.08347900   1.008000   ; qtot 111.947025
 2920         hc    112    bbb     H6   2920 0.08347900   1.008000   ; qtot 112.030504
 2921         hc    112    bbb     H7   2921 0.08347900   1.008000   ; qtot 112.113983
 2922         hc    112    bbb     H8   2922 0.08347900   1.008000   ; qtot 112.197462
 2923         hx    112    bbb     H9   2923 0.07988000   1.008000   ; qtot 112.277342
 2924         hx    112    bbb    H10   2924 0.07988000   1.008000   ; qtot 112.357222
 2925         h1    112    bbb    H11   2925 0.10618100   1.008000   ; qtot 112.463403
 2926         h1    112    bbb    H12   2926 0.10618100   1.008000   ; qtot 112.569584
 2927         hn    112    bbb    H13   2927 0.25916100   1.008000   ; qtot 112.828745
 2928         hn    112    bbb    H25   2928 0.17125500   1.008000   ; qtot 113.000000
; residue  113 bbb rtp bbb q 1.0
 2929         n4    113    bbb     N1   2929 -0.02747900  14.010000   ; qtot 112.972521
 2930         c3    113    bbb     C1   2930 -0.05097600  12.010000   ; qtot 112.921545
 2931         c3    113    bbb     C2   2931 -0.05097600  12.010000   ; qtot 112.870569
 2932         c3    113    bbb     C3   2932 -0.18457900  12.010000   ; qtot 112.685990
 2933          c    113    bbb     C4   2933 0.67254400  12.010000   ; qtot 113.358534
 2934         c3    113    bbb     C5   2934 -0.18457900  12.010000   ; qtot 113.173955
 2935          c    113    bbb     C6   2935 0.67254400  12.010000   ; qtot 113.846499
 2936         c3    113    bbb     C7   2936 -0.02083000  12.010000   ; qtot 113.825669
 2937         c3    113    bbb     C8   2937 -0.03328100  12.010000   ; qtot 113.792388
 2938          n    113    bbb     N2   2938 -0.33303000  14.010000   ; qtot 113.459358
 2939          o    113    bbb     O1   2939 -0.52917200  16.000000   ; qtot 112.930186
 2940          o    113    bbb     O2   2940 -0.52917200  16.000000   ; qtot 112.401014
 2941         hx    113    bbb     H1   2941 0.11563300   1.008000   ; qtot 112.516647
 2942         hx    113    bbb     H2   2942 0.11563300   1.008000   ; qtot 112.632280
 2943         hx    113    bbb     H3   2943 0.11563300   1.008000   ; qtot 112.747913
 2944         hx    113    bbb     H4   2944 0.11563300   1.008000   ; qtot 112.863546
 2945         hc    113    bbb     H5   2945 0.08347900   1.008000   ; qtot 112.947025
 2946         hc    113    bbb     H6   2946 0.08347900   1.008000   ; qtot 113.030504
 2947         hc    113    bbb     H7   2947 0.08347900   1.008000   ; qtot 113.113983
 2948         hc    113    bbb     H8   2948 0.08347900   1.008000   ; qtot 113.197462
 2949         hx    113    bbb     H9   2949 0.07988000   1.008000   ; qtot 113.277342
 2950         hx    113    bbb    H10   2950 0.07988000   1.008000   ; qtot 113.357222
 2951         h1    113    bbb    H11   2951 0.10618100   1.008000   ; qtot 113.463403
 2952         h1    113    bbb    H12   2952 0.10618100   1.008000   ; qtot 113.569584
 2953         hn    113    bbb    H13   2953 0.25916100   1.008000   ; qtot 113.828745
 2954         hn    113    bbb    H25   2954 0.17125500   1.008000   ; qtot 114.000000
; residue  114 bbb rtp bbb q 1.0
 2955         n4    114    bbb     N1   2955 -0.02747900  14.010000   ; qtot 113.972521
 2956         c3    114    bbb     C1   2956 -0.05097600  12.010000   ; qtot 113.921545
 2957         c3    114    bbb     C2   2957 -0.05097600  12.010000   ; qtot 113.870569
 2958         c3    114    bbb     C3   2958 -0.18457900  12.010000   ; qtot 113.685990
 2959          c    114    bbb     C4   2959 0.67254400  12.010000   ; qtot 114.358534
 2960         c3    114    bbb     C5   2960 -0.18457900  12.010000   ; qtot 114.173955
 2961          c    114    bbb     C6   2961 0.67254400  12.010000   ; qtot 114.846499
 2962         c3    114    bbb     C7   2962 -0.02083000  12.010000   ; qtot 114.825669
 2963         c3    114    bbb     C8   2963 -0.03328100  12.010000   ; qtot 114.792388
 2964          n    114    bbb     N2   2964 -0.33303000  14.010000   ; qtot 114.459358
 2965          o    114    bbb     O1   2965 -0.52917200  16.000000   ; qtot 113.930186
 2966          o    114    bbb     O2   2966 -0.52917200  16.000000   ; qtot 113.401014
 2967         hx    114    bbb     H1   2967 0.11563300   1.008000   ; qtot 113.516647
 2968         hx    114    bbb     H2   2968 0.11563300   1.008000   ; qtot 113.632280
 2969         hx    114    bbb     H3   2969 0.11563300   1.008000   ; qtot 113.747913
 2970         hx    114    bbb     H4   2970 0.11563300   1.008000   ; qtot 113.863546
 2971         hc    114    bbb     H5   2971 0.08347900   1.008000   ; qtot 113.947025
 2972         hc    114    bbb     H6   2972 0.08347900   1.008000   ; qtot 114.030504
 2973         hc    114    bbb     H7   2973 0.08347900   1.008000   ; qtot 114.113983
 2974         hc    114    bbb     H8   2974 0.08347900   1.008000   ; qtot 114.197462
 2975         hx    114    bbb     H9   2975 0.07988000   1.008000   ; qtot 114.277342
 2976         hx    114    bbb    H10   2976 0.07988000   1.008000   ; qtot 114.357222
 2977         h1    114    bbb    H11   2977 0.10618100   1.008000   ; qtot 114.463403
 2978         h1    114    bbb    H12   2978 0.10618100   1.008000   ; qtot 114.569584
 2979         hn    114    bbb    H13   2979 0.25916100   1.008000   ; qtot 114.828745
 2980         hn    114    bbb    H25   2980 0.17125500   1.008000   ; qtot 115.000000
; residue  115 bbb rtp bbb q 1.0
 2981         n4    115    bbb     N1   2981 -0.02747900  14.010000   ; qtot 114.972521
 2982         c3    115    bbb     C1   2982 -0.05097600  12.010000   ; qtot 114.921545
 2983         c3    115    bbb     C2   2983 -0.05097600  12.010000   ; qtot 114.870569
 2984         c3    115    bbb     C3   2984 -0.18457900  12.010000   ; qtot 114.685990
 2985          c    115    bbb     C4   2985 0.67254400  12.010000   ; qtot 115.358534
 2986         c3    115    bbb     C5   2986 -0.18457900  12.010000   ; qtot 115.173955
 2987          c    115    bbb     C6   2987 0.67254400  12.010000   ; qtot 115.846499
 2988         c3    115    bbb     C7   2988 -0.02083000  12.010000   ; qtot 115.825669
 2989         c3    115    bbb     C8   2989 -0.03328100  12.010000   ; qtot 115.792388
 2990          n    115    bbb     N2   2990 -0.33303000  14.010000   ; qtot 115.459358
 2991          o    115    bbb     O1   2991 -0.52917200  16.000000   ; qtot 114.930186
 2992          o    115    bbb     O2   2992 -0.52917200  16.000000   ; qtot 114.401014
 2993         hx    115    bbb     H1   2993 0.11563300   1.008000   ; qtot 114.516647
 2994         hx    115    bbb     H2   2994 0.11563300   1.008000   ; qtot 114.632280
 2995         hx    115    bbb     H3   2995 0.11563300   1.008000   ; qtot 114.747913
 2996         hx    115    bbb     H4   2996 0.11563300   1.008000   ; qtot 114.863546
 2997         hc    115    bbb     H5   2997 0.08347900   1.008000   ; qtot 114.947025
 2998         hc    115    bbb     H6   2998 0.08347900   1.008000   ; qtot 115.030504
 2999         hc    115    bbb     H7   2999 0.08347900   1.008000   ; qtot 115.113983
 3000         hc    115    bbb     H8   3000 0.08347900   1.008000   ; qtot 115.197462
 3001         hx    115    bbb     H9   3001 0.07988000   1.008000   ; qtot 115.277342
 3002         hx    115    bbb    H10   3002 0.07988000   1.008000   ; qtot 115.357222
 3003         h1    115    bbb    H11   3003 0.10618100   1.008000   ; qtot 115.463403
 3004         h1    115    bbb    H12   3004 0.10618100   1.008000   ; qtot 115.569584
 3005         hn    115    bbb    H13   3005 0.25916100   1.008000   ; qtot 115.828745
 3006         hn    115    bbb    H25   3006 0.17125500   1.008000   ; qtot 116.000000
; residue  116 bbb rtp bbb q 1.0
 3007         n4    116    bbb     N1   3007 -0.02747900  14.010000   ; qtot 115.972521
 3008         c3    116    bbb     C1   3008 -0.05097600  12.010000   ; qtot 115.921545
 3009         c3    116    bbb     C2   3009 -0.05097600  12.010000   ; qtot 115.870569
 3010         c3    116    bbb     C3   3010 -0.18457900  12.010000   ; qtot 115.685990
 3011          c    116    bbb     C4   3011 0.67254400  12.010000   ; qtot 116.358534
 3012         c3    116    bbb     C5   3012 -0.18457900  12.010000   ; qtot 116.173955
 3013          c    116    bbb     C6   3013 0.67254400  12.010000   ; qtot 116.846499
 3014         c3    116    bbb     C7   3014 -0.02083000  12.010000   ; qtot 116.825669
 3015         c3    116    bbb     C8   3015 -0.03328100  12.010000   ; qtot 116.792388
 3016          n    116    bbb     N2   3016 -0.33303000  14.010000   ; qtot 116.459358
 3017          o    116    bbb     O1   3017 -0.52917200  16.000000   ; qtot 115.930186
 3018          o    116    bbb     O2   3018 -0.52917200  16.000000   ; qtot 115.401014
 3019         hx    116    bbb     H1   3019 0.11563300   1.008000   ; qtot 115.516647
 3020         hx    116    bbb     H2   3020 0.11563300   1.008000   ; qtot 115.632280
 3021         hx    116    bbb     H3   3021 0.11563300   1.008000   ; qtot 115.747913
 3022         hx    116    bbb     H4   3022 0.11563300   1.008000   ; qtot 115.863546
 3023         hc    116    bbb     H5   3023 0.08347900   1.008000   ; qtot 115.947025
 3024         hc    116    bbb     H6   3024 0.08347900   1.008000   ; qtot 116.030504
 3025         hc    116    bbb     H7   3025 0.08347900   1.008000   ; qtot 116.113983
 3026         hc    116    bbb     H8   3026 0.08347900   1.008000   ; qtot 116.197462
 3027         hx    116    bbb     H9   3027 0.07988000   1.008000   ; qtot 116.277342
 3028         hx    116    bbb    H10   3028 0.07988000   1.008000   ; qtot 116.357222
 3029         h1    116    bbb    H11   3029 0.10618100   1.008000   ; qtot 116.463403
 3030         h1    116    bbb    H12   3030 0.10618100   1.008000   ; qtot 116.569584
 3031         hn    116    bbb    H13   3031 0.25916100   1.008000   ; qtot 116.828745
 3032         hn    116    bbb    H25   3032 0.17125500   1.008000   ; qtot 117.000000
; residue  117 bbb rtp bbb q 1.0
 3033         n4    117    bbb     N1   3033 -0.02747900  14.010000   ; qtot 116.972521
 3034         c3    117    bbb     C1   3034 -0.05097600  12.010000   ; qtot 116.921545
 3035         c3    117    bbb     C2   3035 -0.05097600  12.010000   ; qtot 116.870569
 3036         c3    117    bbb     C3   3036 -0.18457900  12.010000   ; qtot 116.685990
 3037          c    117    bbb     C4   3037 0.67254400  12.010000   ; qtot 117.358534
 3038         c3    117    bbb     C5   3038 -0.18457900  12.010000   ; qtot 117.173955
 3039          c    117    bbb     C6   3039 0.67254400  12.010000   ; qtot 117.846499
 3040         c3    117    bbb     C7   3040 -0.02083000  12.010000   ; qtot 117.825669
 3041         c3    117    bbb     C8   3041 -0.03328100  12.010000   ; qtot 117.792388
 3042          n    117    bbb     N2   3042 -0.33303000  14.010000   ; qtot 117.459358
 3043          o    117    bbb     O1   3043 -0.52917200  16.000000   ; qtot 116.930186
 3044          o    117    bbb     O2   3044 -0.52917200  16.000000   ; qtot 116.401014
 3045         hx    117    bbb     H1   3045 0.11563300   1.008000   ; qtot 116.516647
 3046         hx    117    bbb     H2   3046 0.11563300   1.008000   ; qtot 116.632280
 3047         hx    117    bbb     H3   3047 0.11563300   1.008000   ; qtot 116.747913
 3048         hx    117    bbb     H4   3048 0.11563300   1.008000   ; qtot 116.863546
 3049         hc    117    bbb     H5   3049 0.08347900   1.008000   ; qtot 116.947025
 3050         hc    117    bbb     H6   3050 0.08347900   1.008000   ; qtot 117.030504
 3051         hc    117    bbb     H7   3051 0.08347900   1.008000   ; qtot 117.113983
 3052         hc    117    bbb     H8   3052 0.08347900   1.008000   ; qtot 117.197462
 3053         hx    117    bbb     H9   3053 0.07988000   1.008000   ; qtot 117.277342
 3054         hx    117    bbb    H10   3054 0.07988000   1.008000   ; qtot 117.357222
 3055         h1    117    bbb    H11   3055 0.10618100   1.008000   ; qtot 117.463403
 3056         h1    117    bbb    H12   3056 0.10618100   1.008000   ; qtot 117.569584
 3057         hn    117    bbb    H13   3057 0.25916100   1.008000   ; qtot 117.828745
 3058         hn    117    bbb    H25   3058 0.17125500   1.008000   ; qtot 118.000000
; residue  118 bbb rtp bbb q 1.0
 3059         n4    118    bbb     N1   3059 -0.02747900  14.010000   ; qtot 117.972521
 3060         c3    118    bbb     C1   3060 -0.05097600  12.010000   ; qtot 117.921545
 3061         c3    118    bbb     C2   3061 -0.05097600  12.010000   ; qtot 117.870569
 3062         c3    118    bbb     C3   3062 -0.18457900  12.010000   ; qtot 117.685990
 3063          c    118    bbb     C4   3063 0.67254400  12.010000   ; qtot 118.358534
 3064         c3    118    bbb     C5   3064 -0.18457900  12.010000   ; qtot 118.173955
 3065          c    118    bbb     C6   3065 0.67254400  12.010000   ; qtot 118.846499
 3066         c3    118    bbb     C7   3066 -0.02083000  12.010000   ; qtot 118.825669
 3067         c3    118    bbb     C8   3067 -0.03328100  12.010000   ; qtot 118.792388
 3068          n    118    bbb     N2   3068 -0.33303000  14.010000   ; qtot 118.459358
 3069          o    118    bbb     O1   3069 -0.52917200  16.000000   ; qtot 117.930186
 3070          o    118    bbb     O2   3070 -0.52917200  16.000000   ; qtot 117.401014
 3071         hx    118    bbb     H1   3071 0.11563300   1.008000   ; qtot 117.516647
 3072         hx    118    bbb     H2   3072 0.11563300   1.008000   ; qtot 117.632280
 3073         hx    118    bbb     H3   3073 0.11563300   1.008000   ; qtot 117.747913
 3074         hx    118    bbb     H4   3074 0.11563300   1.008000   ; qtot 117.863546
 3075         hc    118    bbb     H5   3075 0.08347900   1.008000   ; qtot 117.947025
 3076         hc    118    bbb     H6   3076 0.08347900   1.008000   ; qtot 118.030504
 3077         hc    118    bbb     H7   3077 0.08347900   1.008000   ; qtot 118.113983
 3078         hc    118    bbb     H8   3078 0.08347900   1.008000   ; qtot 118.197462
 3079         hx    118    bbb     H9   3079 0.07988000   1.008000   ; qtot 118.277342
 3080         hx    118    bbb    H10   3080 0.07988000   1.008000   ; qtot 118.357222
 3081         h1    118    bbb    H11   3081 0.10618100   1.008000   ; qtot 118.463403
 3082         h1    118    bbb    H12   3082 0.10618100   1.008000   ; qtot 118.569584
 3083         hn    118    bbb    H13   3083 0.25916100   1.008000   ; qtot 118.828745
 3084         hn    118    bbb    H25   3084 0.17125500   1.008000   ; qtot 119.000000
; residue  119 bbb rtp bbb q 1.0
 3085         n4    119    bbb     N1   3085 -0.02747900  14.010000   ; qtot 118.972521
 3086         c3    119    bbb     C1   3086 -0.05097600  12.010000   ; qtot 118.921545
 3087         c3    119    bbb     C2   3087 -0.05097600  12.010000   ; qtot 118.870569
 3088         c3    119    bbb     C3   3088 -0.18457900  12.010000   ; qtot 118.685990
 3089          c    119    bbb     C4   3089 0.67254400  12.010000   ; qtot 119.358534
 3090         c3    119    bbb     C5   3090 -0.18457900  12.010000   ; qtot 119.173955
 3091          c    119    bbb     C6   3091 0.67254400  12.010000   ; qtot 119.846499
 3092         c3    119    bbb     C7   3092 -0.02083000  12.010000   ; qtot 119.825669
 3093         c3    119    bbb     C8   3093 -0.03328100  12.010000   ; qtot 119.792388
 3094          n    119    bbb     N2   3094 -0.33303000  14.010000   ; qtot 119.459358
 3095          o    119    bbb     O1   3095 -0.52917200  16.000000   ; qtot 118.930186
 3096          o    119    bbb     O2   3096 -0.52917200  16.000000   ; qtot 118.401014
 3097         hx    119    bbb     H1   3097 0.11563300   1.008000   ; qtot 118.516647
 3098         hx    119    bbb     H2   3098 0.11563300   1.008000   ; qtot 118.632280
 3099         hx    119    bbb     H3   3099 0.11563300   1.008000   ; qtot 118.747913
 3100         hx    119    bbb     H4   3100 0.11563300   1.008000   ; qtot 118.863546
 3101         hc    119    bbb     H5   3101 0.08347900   1.008000   ; qtot 118.947025
 3102         hc    119    bbb     H6   3102 0.08347900   1.008000   ; qtot 119.030504
 3103         hc    119    bbb     H7   3103 0.08347900   1.008000   ; qtot 119.113983
 3104         hc    119    bbb     H8   3104 0.08347900   1.008000   ; qtot 119.197462
 3105         hx    119    bbb     H9   3105 0.07988000   1.008000   ; qtot 119.277342
 3106         hx    119    bbb    H10   3106 0.07988000   1.008000   ; qtot 119.357222
 3107         h1    119    bbb    H11   3107 0.10618100   1.008000   ; qtot 119.463403
 3108         h1    119    bbb    H12   3108 0.10618100   1.008000   ; qtot 119.569584
 3109         hn    119    bbb    H13   3109 0.25916100   1.008000   ; qtot 119.828745
 3110         hn    119    bbb    H25   3110 0.17125500   1.008000   ; qtot 120.000000
; residue  120 bbb rtp bbb q 1.0
 3111         n4    120    bbb     N1   3111 -0.02747900  14.010000   ; qtot 119.972521
 3112         c3    120    bbb     C1   3112 -0.05097600  12.010000   ; qtot 119.921545
 3113         c3    120    bbb     C2   3113 -0.05097600  12.010000   ; qtot 119.870569
 3114         c3    120    bbb     C3   3114 -0.18457900  12.010000   ; qtot 119.685990
 3115          c    120    bbb     C4   3115 0.67254400  12.010000   ; qtot 120.358534
 3116         c3    120    bbb     C5   3116 -0.18457900  12.010000   ; qtot 120.173955
 3117          c    120    bbb     C6   3117 0.67254400  12.010000   ; qtot 120.846499
 3118         c3    120    bbb     C7   3118 -0.02083000  12.010000   ; qtot 120.825669
 3119         c3    120    bbb     C8   3119 -0.03328100  12.010000   ; qtot 120.792388
 3120          n    120    bbb     N2   3120 -0.33303000  14.010000   ; qtot 120.459358
 3121          o    120    bbb     O1   3121 -0.52917200  16.000000   ; qtot 119.930186
 3122          o    120    bbb     O2   3122 -0.52917200  16.000000   ; qtot 119.401014
 3123         hx    120    bbb     H1   3123 0.11563300   1.008000   ; qtot 119.516647
 3124         hx    120    bbb     H2   3124 0.11563300   1.008000   ; qtot 119.632280
 3125         hx    120    bbb     H3   3125 0.11563300   1.008000   ; qtot 119.747913
 3126         hx    120    bbb     H4   3126 0.11563300   1.008000   ; qtot 119.863546
 3127         hc    120    bbb     H5   3127 0.08347900   1.008000   ; qtot 119.947025
 3128         hc    120    bbb     H6   3128 0.08347900   1.008000   ; qtot 120.030504
 3129         hc    120    bbb     H7   3129 0.08347900   1.008000   ; qtot 120.113983
 3130         hc    120    bbb     H8   3130 0.08347900   1.008000   ; qtot 120.197462
 3131         hx    120    bbb     H9   3131 0.07988000   1.008000   ; qtot 120.277342
 3132         hx    120    bbb    H10   3132 0.07988000   1.008000   ; qtot 120.357222
 3133         h1    120    bbb    H11   3133 0.10618100   1.008000   ; qtot 120.463403
 3134         h1    120    bbb    H12   3134 0.10618100   1.008000   ; qtot 120.569584
 3135         hn    120    bbb    H13   3135 0.25916100   1.008000   ; qtot 120.828745
 3136         hn    120    bbb    H25   3136 0.17125500   1.008000   ; qtot 121.000000
; residue  121 bbb rtp bbb q 1.0
 3137         n4    121    bbb     N1   3137 -0.02747900  14.010000   ; qtot 120.972521
 3138         c3    121    bbb     C1   3138 -0.05097600  12.010000   ; qtot 120.921545
 3139         c3    121    bbb     C2   3139 -0.05097600  12.010000   ; qtot 120.870569
 3140         c3    121    bbb     C3   3140 -0.18457900  12.010000   ; qtot 120.685990
 3141          c    121    bbb     C4   3141 0.67254400  12.010000   ; qtot 121.358534
 3142         c3    121    bbb     C5   3142 -0.18457900  12.010000   ; qtot 121.173955
 3143          c    121    bbb     C6   3143 0.67254400  12.010000   ; qtot 121.846499
 3144         c3    121    bbb     C7   3144 -0.02083000  12.010000   ; qtot 121.825669
 3145         c3    121    bbb     C8   3145 -0.03328100  12.010000   ; qtot 121.792388
 3146          n    121    bbb     N2   3146 -0.33303000  14.010000   ; qtot 121.459358
 3147          o    121    bbb     O1   3147 -0.52917200  16.000000   ; qtot 120.930186
 3148          o    121    bbb     O2   3148 -0.52917200  16.000000   ; qtot 120.401014
 3149         hx    121    bbb     H1   3149 0.11563300   1.008000   ; qtot 120.516647
 3150         hx    121    bbb     H2   3150 0.11563300   1.008000   ; qtot 120.632280
 3151         hx    121    bbb     H3   3151 0.11563300   1.008000   ; qtot 120.747913
 3152         hx    121    bbb     H4   3152 0.11563300   1.008000   ; qtot 120.863546
 3153         hc    121    bbb     H5   3153 0.08347900   1.008000   ; qtot 120.947025
 3154         hc    121    bbb     H6   3154 0.08347900   1.008000   ; qtot 121.030504
 3155         hc    121    bbb     H7   3155 0.08347900   1.008000   ; qtot 121.113983
 3156         hc    121    bbb     H8   3156 0.08347900   1.008000   ; qtot 121.197462
 3157         hx    121    bbb     H9   3157 0.07988000   1.008000   ; qtot 121.277342
 3158         hx    121    bbb    H10   3158 0.07988000   1.008000   ; qtot 121.357222
 3159         h1    121    bbb    H11   3159 0.10618100   1.008000   ; qtot 121.463403
 3160         h1    121    bbb    H12   3160 0.10618100   1.008000   ; qtot 121.569584
 3161         hn    121    bbb    H13   3161 0.25916100   1.008000   ; qtot 121.828745
 3162         hn    121    bbb    H25   3162 0.17125500   1.008000   ; qtot 122.000000
; residue  122 bbb rtp bbb q 1.0
 3163         n4    122    bbb     N1   3163 -0.02747900  14.010000   ; qtot 121.972521
 3164         c3    122    bbb     C1   3164 -0.05097600  12.010000   ; qtot 121.921545
 3165         c3    122    bbb     C2   3165 -0.05097600  12.010000   ; qtot 121.870569
 3166         c3    122    bbb     C3   3166 -0.18457900  12.010000   ; qtot 121.685990
 3167          c    122    bbb     C4   3167 0.67254400  12.010000   ; qtot 122.358534
 3168         c3    122    bbb     C5   3168 -0.18457900  12.010000   ; qtot 122.173955
 3169          c    122    bbb     C6   3169 0.67254400  12.010000   ; qtot 122.846499
 3170         c3    122    bbb     C7   3170 -0.02083000  12.010000   ; qtot 122.825669
 3171         c3    122    bbb     C8   3171 -0.03328100  12.010000   ; qtot 122.792388
 3172          n    122    bbb     N2   3172 -0.33303000  14.010000   ; qtot 122.459358
 3173          o    122    bbb     O1   3173 -0.52917200  16.000000   ; qtot 121.930186
 3174          o    122    bbb     O2   3174 -0.52917200  16.000000   ; qtot 121.401014
 3175         hx    122    bbb     H1   3175 0.11563300   1.008000   ; qtot 121.516647
 3176         hx    122    bbb     H2   3176 0.11563300   1.008000   ; qtot 121.632280
 3177         hx    122    bbb     H3   3177 0.11563300   1.008000   ; qtot 121.747913
 3178         hx    122    bbb     H4   3178 0.11563300   1.008000   ; qtot 121.863546
 3179         hc    122    bbb     H5   3179 0.08347900   1.008000   ; qtot 121.947025
 3180         hc    122    bbb     H6   3180 0.08347900   1.008000   ; qtot 122.030504
 3181         hc    122    bbb     H7   3181 0.08347900   1.008000   ; qtot 122.113983
 3182         hc    122    bbb     H8   3182 0.08347900   1.008000   ; qtot 122.197462
 3183         hx    122    bbb     H9   3183 0.07988000   1.008000   ; qtot 122.277342
 3184         hx    122    bbb    H10   3184 0.07988000   1.008000   ; qtot 122.357222
 3185         h1    122    bbb    H11   3185 0.10618100   1.008000   ; qtot 122.463403
 3186         h1    122    bbb    H12   3186 0.10618100   1.008000   ; qtot 122.569584
 3187         hn    122    bbb    H13   3187 0.25916100   1.008000   ; qtot 122.828745
 3188         hn    122    bbb    H25   3188 0.17125500   1.008000   ; qtot 123.000000
; residue  123 bbb rtp bbb q 1.0
 3189         n4    123    bbb     N1   3189 -0.02747900  14.010000   ; qtot 122.972521
 3190         c3    123    bbb     C1   3190 -0.05097600  12.010000   ; qtot 122.921545
 3191         c3    123    bbb     C2   3191 -0.05097600  12.010000   ; qtot 122.870569
 3192         c3    123    bbb     C3   3192 -0.18457900  12.010000   ; qtot 122.685990
 3193          c    123    bbb     C4   3193 0.67254400  12.010000   ; qtot 123.358534
 3194         c3    123    bbb     C5   3194 -0.18457900  12.010000   ; qtot 123.173955
 3195          c    123    bbb     C6   3195 0.67254400  12.010000   ; qtot 123.846499
 3196         c3    123    bbb     C7   3196 -0.02083000  12.010000   ; qtot 123.825669
 3197         c3    123    bbb     C8   3197 -0.03328100  12.010000   ; qtot 123.792388
 3198          n    123    bbb     N2   3198 -0.33303000  14.010000   ; qtot 123.459358
 3199          o    123    bbb     O1   3199 -0.52917200  16.000000   ; qtot 122.930186
 3200          o    123    bbb     O2   3200 -0.52917200  16.000000   ; qtot 122.401014
 3201         hx    123    bbb     H1   3201 0.11563300   1.008000   ; qtot 122.516647
 3202         hx    123    bbb     H2   3202 0.11563300   1.008000   ; qtot 122.632280
 3203         hx    123    bbb     H3   3203 0.11563300   1.008000   ; qtot 122.747913
 3204         hx    123    bbb     H4   3204 0.11563300   1.008000   ; qtot 122.863546
 3205         hc    123    bbb     H5   3205 0.08347900   1.008000   ; qtot 122.947025
 3206         hc    123    bbb     H6   3206 0.08347900   1.008000   ; qtot 123.030504
 3207         hc    123    bbb     H7   3207 0.08347900   1.008000   ; qtot 123.113983
 3208         hc    123    bbb     H8   3208 0.08347900   1.008000   ; qtot 123.197462
 3209         hx    123    bbb     H9   3209 0.07988000   1.008000   ; qtot 123.277342
 3210         hx    123    bbb    H10   3210 0.07988000   1.008000   ; qtot 123.357222
 3211         h1    123    bbb    H11   3211 0.10618100   1.008000   ; qtot 123.463403
 3212         h1    123    bbb    H12   3212 0.10618100   1.008000   ; qtot 123.569584
 3213         hn    123    bbb    H13   3213 0.25916100   1.008000   ; qtot 123.828745
 3214         hn    123    bbb    H25   3214 0.17125500   1.008000   ; qtot 124.000000
; residue  124 bbb rtp bbb q 1.0
 3215         n4    124    bbb     N1   3215 -0.02747900  14.010000   ; qtot 123.972521
 3216         c3    124    bbb     C1   3216 -0.05097600  12.010000   ; qtot 123.921545
 3217         c3    124    bbb     C2   3217 -0.05097600  12.010000   ; qtot 123.870569
 3218         c3    124    bbb     C3   3218 -0.18457900  12.010000   ; qtot 123.685990
 3219          c    124    bbb     C4   3219 0.67254400  12.010000   ; qtot 124.358534
 3220         c3    124    bbb     C5   3220 -0.18457900  12.010000   ; qtot 124.173955
 3221          c    124    bbb     C6   3221 0.67254400  12.010000   ; qtot 124.846499
 3222         c3    124    bbb     C7   3222 -0.02083000  12.010000   ; qtot 124.825669
 3223         c3    124    bbb     C8   3223 -0.03328100  12.010000   ; qtot 124.792388
 3224          n    124    bbb     N2   3224 -0.33303000  14.010000   ; qtot 124.459358
 3225          o    124    bbb     O1   3225 -0.52917200  16.000000   ; qtot 123.930186
 3226          o    124    bbb     O2   3226 -0.52917200  16.000000   ; qtot 123.401014
 3227         hx    124    bbb     H1   3227 0.11563300   1.008000   ; qtot 123.516647
 3228         hx    124    bbb     H2   3228 0.11563300   1.008000   ; qtot 123.632280
 3229         hx    124    bbb     H3   3229 0.11563300   1.008000   ; qtot 123.747913
 3230         hx    124    bbb     H4   3230 0.11563300   1.008000   ; qtot 123.863546
 3231         hc    124    bbb     H5   3231 0.08347900   1.008000   ; qtot 123.947025
 3232         hc    124    bbb     H6   3232 0.08347900   1.008000   ; qtot 124.030504
 3233         hc    124    bbb     H7   3233 0.08347900   1.008000   ; qtot 124.113983
 3234         hc    124    bbb     H8   3234 0.08347900   1.008000   ; qtot 124.197462
 3235         hx    124    bbb     H9   3235 0.07988000   1.008000   ; qtot 124.277342
 3236         hx    124    bbb    H10   3236 0.07988000   1.008000   ; qtot 124.357222
 3237         h1    124    bbb    H11   3237 0.10618100   1.008000   ; qtot 124.463403
 3238         h1    124    bbb    H12   3238 0.10618100   1.008000   ; qtot 124.569584
 3239         hn    124    bbb    H13   3239 0.25916100   1.008000   ; qtot 124.828745
 3240         hn    124    bbb    H25   3240 0.17125500   1.008000   ; qtot 125.000000
; residue  125 bbb rtp bbb q 1.0
 3241         n4    125    bbb     N1   3241 -0.02747900  14.010000   ; qtot 124.972521
 3242         c3    125    bbb     C1   3242 -0.05097600  12.010000   ; qtot 124.921545
 3243         c3    125    bbb     C2   3243 -0.05097600  12.010000   ; qtot 124.870569
 3244         c3    125    bbb     C3   3244 -0.18457900  12.010000   ; qtot 124.685990
 3245          c    125    bbb     C4   3245 0.67254400  12.010000   ; qtot 125.358534
 3246         c3    125    bbb     C5   3246 -0.18457900  12.010000   ; qtot 125.173955
 3247          c    125    bbb     C6   3247 0.67254400  12.010000   ; qtot 125.846499
 3248         c3    125    bbb     C7   3248 -0.02083000  12.010000   ; qtot 125.825669
 3249         c3    125    bbb     C8   3249 -0.03328100  12.010000   ; qtot 125.792388
 3250          n    125    bbb     N2   3250 -0.33303000  14.010000   ; qtot 125.459358
 3251          o    125    bbb     O1   3251 -0.52917200  16.000000   ; qtot 124.930186
 3252          o    125    bbb     O2   3252 -0.52917200  16.000000   ; qtot 124.401014
 3253         hx    125    bbb     H1   3253 0.11563300   1.008000   ; qtot 124.516647
 3254         hx    125    bbb     H2   3254 0.11563300   1.008000   ; qtot 124.632280
 3255         hx    125    bbb     H3   3255 0.11563300   1.008000   ; qtot 124.747913
 3256         hx    125    bbb     H4   3256 0.11563300   1.008000   ; qtot 124.863546
 3257         hc    125    bbb     H5   3257 0.08347900   1.008000   ; qtot 124.947025
 3258         hc    125    bbb     H6   3258 0.08347900   1.008000   ; qtot 125.030504
 3259         hc    125    bbb     H7   3259 0.08347900   1.008000   ; qtot 125.113983
 3260         hc    125    bbb     H8   3260 0.08347900   1.008000   ; qtot 125.197462
 3261         hx    125    bbb     H9   3261 0.07988000   1.008000   ; qtot 125.277342
 3262         hx    125    bbb    H10   3262 0.07988000   1.008000   ; qtot 125.357222
 3263         h1    125    bbb    H11   3263 0.10618100   1.008000   ; qtot 125.463403
 3264         h1    125    bbb    H12   3264 0.10618100   1.008000   ; qtot 125.569584
 3265         hn    125    bbb    H13   3265 0.25916100   1.008000   ; qtot 125.828745
 3266         hn    125    bbb    H25   3266 0.17125500   1.008000   ; qtot 126.000000
; residue  126 ccc rtp ccc q 1.0
 3267          n    126    ccc     N1   3267 -0.26410000  14.010000   ; qtot 125.735900
 3268         hn    126    ccc     H4   3268 0.27630000   1.008000   ; qtot 126.012200
 3269         c3    126    ccc     C3   3269 -0.17900000  12.010000   ; qtot 125.833200
 3270         c3    126    ccc     C4   3270 0.08000000  12.010000   ; qtot 125.913200
 3271         h1    126    ccc     H5   3271 0.13870000   1.008000   ; qtot 126.051900
 3272         h1    126    ccc     H6   3272 0.13870000   1.008000   ; qtot 126.190600
 3273         hx    126    ccc     H7   3273 0.07790000   1.008000   ; qtot 126.268500
 3274         hx    126    ccc     H8   3274 0.07790000   1.008000   ; qtot 126.346400
 3275         n4    126    ccc     N2   3275 -0.16780000  14.010000   ; qtot 126.178600
 3276         hn    126    ccc     H9   3276 0.27380000   1.008000   ; qtot 126.452400
 3277         hn    126    ccc    H10   3277 0.27380000   1.008000   ; qtot 126.726200
 3278         hn    126    ccc    H11   3278 0.27380000   1.008000   ; qtot 127.000000
; residue  127 ccc rtp ccc q 1.0
 3279          n    127    ccc     N1   3279 -0.26410000  14.010000   ; qtot 126.735900
 3280         hn    127    ccc     H4   3280 0.27630000   1.008000   ; qtot 127.012200
 3281         c3    127    ccc     C3   3281 -0.17900000  12.010000   ; qtot 126.833200
 3282         c3    127    ccc     C4   3282 0.08000000  12.010000   ; qtot 126.913200
 3283         h1    127    ccc     H5   3283 0.13870000   1.008000   ; qtot 127.051900
 3284         h1    127    ccc     H6   3284 0.13870000   1.008000   ; qtot 127.190600
 3285         hx    127    ccc     H7   3285 0.07790000   1.008000   ; qtot 127.268500
 3286         hx    127    ccc     H8   3286 0.07790000   1.008000   ; qtot 127.346400
 3287         n4    127    ccc     N2   3287 -0.16780000  14.010000   ; qtot 127.178600
 3288         hn    127    ccc     H9   3288 0.27380000   1.008000   ; qtot 127.452400
 3289         hn    127    ccc    H10   3289 0.27380000   1.008000   ; qtot 127.726200
 3290         hn    127    ccc    H11   3290 0.27380000   1.008000   ; qtot 128.000000
; residue  128 ccc rtp ccc q 1.0
 3291          n    128    ccc     N1   3291 -0.26410000  14.010000   ; qtot 127.735900
 3292         hn    128    ccc     H4   3292 0.27630000   1.008000   ; qtot 128.012200
 3293         c3    128    ccc     C3   3293 -0.17900000  12.010000   ; qtot 127.833200
 3294         c3    128    ccc     C4   3294 0.08000000  12.010000   ; qtot 127.913200
 3295         h1    128    ccc     H5   3295 0.13870000   1.008000   ; qtot 128.051900
 3296         h1    128    ccc     H6   3296 0.13870000   1.008000   ; qtot 128.190600
 3297         hx    128    ccc     H7   3297 0.07790000   1.008000   ; qtot 128.268500
 3298         hx    128    ccc     H8   3298 0.07790000   1.008000   ; qtot 128.346400
 3299         n4    128    ccc     N2   3299 -0.16780000  14.010000   ; qtot 128.178600
 3300         hn    128    ccc     H9   3300 0.27380000   1.008000   ; qtot 128.452400
 3301         hn    128    ccc    H10   3301 0.27380000   1.008000   ; qtot 128.726200
 3302         hn    128    ccc    H11   3302 0.27380000   1.008000   ; qtot 129.000000
; residue  129 ccc rtp ccc q 1.0
 3303          n    129    ccc     N1   3303 -0.26410000  14.010000   ; qtot 128.735900
 3304         hn    129    ccc     H4   3304 0.27630000   1.008000   ; qtot 129.012200
 3305         c3    129    ccc     C3   3305 -0.17900000  12.010000   ; qtot 128.833200
 3306         c3    129    ccc     C4   3306 0.08000000  12.010000   ; qtot 128.913200
 3307         h1    129    ccc     H5   3307 0.13870000   1.008000   ; qtot 129.051900
 3308         h1    129    ccc     H6   3308 0.13870000   1.008000   ; qtot 129.190600
 3309         hx    129    ccc     H7   3309 0.07790000   1.008000   ; qtot 129.268500
 3310         hx    129    ccc     H8   3310 0.07790000   1.008000   ; qtot 129.346400
 3311         n4    129    ccc     N2   3311 -0.16780000  14.010000   ; qtot 129.178600
 3312         hn    129    ccc     H9   3312 0.27380000   1.008000   ; qtot 129.452400
 3313         hn    129    ccc    H10   3313 0.27380000   1.008000   ; qtot 129.726200
 3314         hn    129    ccc    H11   3314 0.27380000   1.008000   ; qtot 130.000000
; residue  130 ccc rtp ccc q 1.0
 3315          n    130    ccc     N1   3315 -0.26410000  14.010000   ; qtot 129.735900
 3316         hn    130    ccc     H4   3316 0.27630000   1.008000   ; qtot 130.012200
 3317         c3    130    ccc     C3   3317 -0.17900000  12.010000   ; qtot 129.833200
 3318         c3    130    ccc     C4   3318 0.08000000  12.010000   ; qtot 129.913200
 3319         h1    130    ccc     H5   3319 0.13870000   1.008000   ; qtot 130.051900
 3320         h1    130    ccc     H6   3320 0.13870000   1.008000   ; qtot 130.190600
 3321         hx    130    ccc     H7   3321 0.07790000   1.008000   ; qtot 130.268500
 3322         hx    130    ccc     H8   3322 0.07790000   1.008000   ; qtot 130.346400
 3323         n4    130    ccc     N2   3323 -0.16780000  14.010000   ; qtot 130.178600
 3324         hn    130    ccc     H9   3324 0.27380000   1.008000   ; qtot 130.452400
 3325         hn    130    ccc    H10   3325 0.27380000   1.008000   ; qtot 130.726200
 3326         hn    130    ccc    H11   3326 0.27380000   1.008000   ; qtot 131.000000
; residue  131 ccc rtp ccc q 1.0
 3327          n    131    ccc     N1   3327 -0.26410000  14.010000   ; qtot 130.735900
 3328         hn    131    ccc     H4   3328 0.27630000   1.008000   ; qtot 131.012200
 3329         c3    131    ccc     C3   3329 -0.17900000  12.010000   ; qtot 130.833200
 3330         c3    131    ccc     C4   3330 0.08000000  12.010000   ; qtot 130.913200
 3331         h1    131    ccc     H5   3331 0.13870000   1.008000   ; qtot 131.051900
 3332         h1    131    ccc     H6   3332 0.13870000   1.008000   ; qtot 131.190600
 3333         hx    131    ccc     H7   3333 0.07790000   1.008000   ; qtot 131.268500
 3334         hx    131    ccc     H8   3334 0.07790000   1.008000   ; qtot 131.346400
 3335         n4    131    ccc     N2   3335 -0.16780000  14.010000   ; qtot 131.178600
 3336         hn    131    ccc     H9   3336 0.27380000   1.008000   ; qtot 131.452400
 3337         hn    131    ccc    H10   3337 0.27380000   1.008000   ; qtot 131.726200
 3338         hn    131    ccc    H11   3338 0.27380000   1.008000   ; qtot 132.000000
; residue  132 ccc rtp ccc q 1.0
 3339          n    132    ccc     N1   3339 -0.26410000  14.010000   ; qtot 131.735900
 3340         hn    132    ccc     H4   3340 0.27630000   1.008000   ; qtot 132.012200
 3341         c3    132    ccc     C3   3341 -0.17900000  12.010000   ; qtot 131.833200
 3342         c3    132    ccc     C4   3342 0.08000000  12.010000   ; qtot 131.913200
 3343         h1    132    ccc     H5   3343 0.13870000   1.008000   ; qtot 132.051900
 3344         h1    132    ccc     H6   3344 0.13870000   1.008000   ; qtot 132.190600
 3345         hx    132    ccc     H7   3345 0.07790000   1.008000   ; qtot 132.268500
 3346         hx    132    ccc     H8   3346 0.07790000   1.008000   ; qtot 132.346400
 3347         n4    132    ccc     N2   3347 -0.16780000  14.010000   ; qtot 132.178600
 3348         hn    132    ccc     H9   3348 0.27380000   1.008000   ; qtot 132.452400
 3349         hn    132    ccc    H10   3349 0.27380000   1.008000   ; qtot 132.726200
 3350         hn    132    ccc    H11   3350 0.27380000   1.008000   ; qtot 133.000000
; residue  133 ccc rtp ccc q 1.0
 3351          n    133    ccc     N1   3351 -0.26410000  14.010000   ; qtot 132.735900
 3352         hn    133    ccc     H4   3352 0.27630000   1.008000   ; qtot 133.012200
 3353         c3    133    ccc     C3   3353 -0.17900000  12.010000   ; qtot 132.833200
 3354         c3    133    ccc     C4   3354 0.08000000  12.010000   ; qtot 132.913200
 3355         h1    133    ccc     H5   3355 0.13870000   1.008000   ; qtot 133.051900
 3356         h1    133    ccc     H6   3356 0.13870000   1.008000   ; qtot 133.190600
 3357         hx    133    ccc     H7   3357 0.07790000   1.008000   ; qtot 133.268500
 3358         hx    133    ccc     H8   3358 0.07790000   1.008000   ; qtot 133.346400
 3359         n4    133    ccc     N2   3359 -0.16780000  14.010000   ; qtot 133.178600
 3360         hn    133    ccc     H9   3360 0.27380000   1.008000   ; qtot 133.452400
 3361         hn    133    ccc    H10   3361 0.27380000   1.008000   ; qtot 133.726200
 3362         hn    133    ccc    H11   3362 0.27380000   1.008000   ; qtot 134.000000
; residue  134 ccc rtp ccc q 1.0
 3363          n    134    ccc     N1   3363 -0.26410000  14.010000   ; qtot 133.735900
 3364         hn    134    ccc     H4   3364 0.27630000   1.008000   ; qtot 134.012200
 3365         c3    134    ccc     C3   3365 -0.17900000  12.010000   ; qtot 133.833200
 3366         c3    134    ccc     C4   3366 0.08000000  12.010000   ; qtot 133.913200
 3367         h1    134    ccc     H5   3367 0.13870000   1.008000   ; qtot 134.051900
 3368         h1    134    ccc     H6   3368 0.13870000   1.008000   ; qtot 134.190600
 3369         hx    134    ccc     H7   3369 0.07790000   1.008000   ; qtot 134.268500
 3370         hx    134    ccc     H8   3370 0.07790000   1.008000   ; qtot 134.346400
 3371         n4    134    ccc     N2   3371 -0.16780000  14.010000   ; qtot 134.178600
 3372         hn    134    ccc     H9   3372 0.27380000   1.008000   ; qtot 134.452400
 3373         hn    134    ccc    H10   3373 0.27380000   1.008000   ; qtot 134.726200
 3374         hn    134    ccc    H11   3374 0.27380000   1.008000   ; qtot 135.000000
; residue  135 ccc rtp ccc q 1.0
 3375          n    135    ccc     N1   3375 -0.26410000  14.010000   ; qtot 134.735900
 3376         hn    135    ccc     H4   3376 0.27630000   1.008000   ; qtot 135.012200
 3377         c3    135    ccc     C3   3377 -0.17900000  12.010000   ; qtot 134.833200
 3378         c3    135    ccc     C4   3378 0.08000000  12.010000   ; qtot 134.913200
 3379         h1    135    ccc     H5   3379 0.13870000   1.008000   ; qtot 135.051900
 3380         h1    135    ccc     H6   3380 0.13870000   1.008000   ; qtot 135.190600
 3381         hx    135    ccc     H7   3381 0.07790000   1.008000   ; qtot 135.268500
 3382         hx    135    ccc     H8   3382 0.07790000   1.008000   ; qtot 135.346400
 3383         n4    135    ccc     N2   3383 -0.16780000  14.010000   ; qtot 135.178600
 3384         hn    135    ccc     H9   3384 0.27380000   1.008000   ; qtot 135.452400
 3385         hn    135    ccc    H10   3385 0.27380000   1.008000   ; qtot 135.726200
 3386         hn    135    ccc    H11   3386 0.27380000   1.008000   ; qtot 136.000000
; residue  136 ccc rtp ccc q 1.0
 3387          n    136    ccc     N1   3387 -0.26410000  14.010000   ; qtot 135.735900
 3388         hn    136    ccc     H4   3388 0.27630000   1.008000   ; qtot 136.012200
 3389         c3    136    ccc     C3   3389 -0.17900000  12.010000   ; qtot 135.833200
 3390         c3    136    ccc     C4   3390 0.08000000  12.010000   ; qtot 135.913200
 3391         h1    136    ccc     H5   3391 0.13870000   1.008000   ; qtot 136.051900
 3392         h1    136    ccc     H6   3392 0.13870000   1.008000   ; qtot 136.190600
 3393         hx    136    ccc     H7   3393 0.07790000   1.008000   ; qtot 136.268500
 3394         hx    136    ccc     H8   3394 0.07790000   1.008000   ; qtot 136.346400
 3395         n4    136    ccc     N2   3395 -0.16780000  14.010000   ; qtot 136.178600
 3396         hn    136    ccc     H9   3396 0.27380000   1.008000   ; qtot 136.452400
 3397         hn    136    ccc    H10   3397 0.27380000   1.008000   ; qtot 136.726200
 3398         hn    136    ccc    H11   3398 0.27380000   1.008000   ; qtot 137.000000
; residue  137 ccc rtp ccc q 1.0
 3399          n    137    ccc     N1   3399 -0.26410000  14.010000   ; qtot 136.735900
 3400         hn    137    ccc     H4   3400 0.27630000   1.008000   ; qtot 137.012200
 3401         c3    137    ccc     C3   3401 -0.17900000  12.010000   ; qtot 136.833200
 3402         c3    137    ccc     C4   3402 0.08000000  12.010000   ; qtot 136.913200
 3403         h1    137    ccc     H5   3403 0.13870000   1.008000   ; qtot 137.051900
 3404         h1    137    ccc     H6   3404 0.13870000   1.008000   ; qtot 137.190600
 3405         hx    137    ccc     H7   3405 0.07790000   1.008000   ; qtot 137.268500
 3406         hx    137    ccc     H8   3406 0.07790000   1.008000   ; qtot 137.346400
 3407         n4    137    ccc     N2   3407 -0.16780000  14.010000   ; qtot 137.178600
 3408         hn    137    ccc     H9   3408 0.27380000   1.008000   ; qtot 137.452400
 3409         hn    137    ccc    H10   3409 0.27380000   1.008000   ; qtot 137.726200
 3410         hn    137    ccc    H11   3410 0.27380000   1.008000   ; qtot 138.000000
; residue  138 ccc rtp ccc q 1.0
 3411          n    138    ccc     N1   3411 -0.26410000  14.010000   ; qtot 137.735900
 3412         hn    138    ccc     H4   3412 0.27630000   1.008000   ; qtot 138.012200
 3413         c3    138    ccc     C3   3413 -0.17900000  12.010000   ; qtot 137.833200
 3414         c3    138    ccc     C4   3414 0.08000000  12.010000   ; qtot 137.913200
 3415         h1    138    ccc     H5   3415 0.13870000   1.008000   ; qtot 138.051900
 3416         h1    138    ccc     H6   3416 0.13870000   1.008000   ; qtot 138.190600
 3417         hx    138    ccc     H7   3417 0.07790000   1.008000   ; qtot 138.268500
 3418         hx    138    ccc     H8   3418 0.07790000   1.008000   ; qtot 138.346400
 3419         n4    138    ccc     N2   3419 -0.16780000  14.010000   ; qtot 138.178600
 3420         hn    138    ccc     H9   3420 0.27380000   1.008000   ; qtot 138.452400
 3421         hn    138    ccc    H10   3421 0.27380000   1.008000   ; qtot 138.726200
 3422         hn    138    ccc    H11   3422 0.27380000   1.008000   ; qtot 139.000000
; residue  139 ccc rtp ccc q 1.0
 3423          n    139    ccc     N1   3423 -0.26410000  14.010000   ; qtot 138.735900
 3424         hn    139    ccc     H4   3424 0.27630000   1.008000   ; qtot 139.012200
 3425         c3    139    ccc     C3   3425 -0.17900000  12.010000   ; qtot 138.833200
 3426         c3    139    ccc     C4   3426 0.08000000  12.010000   ; qtot 138.913200
 3427         h1    139    ccc     H5   3427 0.13870000   1.008000   ; qtot 139.051900
 3428         h1    139    ccc     H6   3428 0.13870000   1.008000   ; qtot 139.190600
 3429         hx    139    ccc     H7   3429 0.07790000   1.008000   ; qtot 139.268500
 3430         hx    139    ccc     H8   3430 0.07790000   1.008000   ; qtot 139.346400
 3431         n4    139    ccc     N2   3431 -0.16780000  14.010000   ; qtot 139.178600
 3432         hn    139    ccc     H9   3432 0.27380000   1.008000   ; qtot 139.452400
 3433         hn    139    ccc    H10   3433 0.27380000   1.008000   ; qtot 139.726200
 3434         hn    139    ccc    H11   3434 0.27380000   1.008000   ; qtot 140.000000
; residue  140 ccc rtp ccc q 1.0
 3435          n    140    ccc     N1   3435 -0.26410000  14.010000   ; qtot 139.735900
 3436         hn    140    ccc     H4   3436 0.27630000   1.008000   ; qtot 140.012200
 3437         c3    140    ccc     C3   3437 -0.17900000  12.010000   ; qtot 139.833200
 3438         c3    140    ccc     C4   3438 0.08000000  12.010000   ; qtot 139.913200
 3439         h1    140    ccc     H5   3439 0.13870000   1.008000   ; qtot 140.051900
 3440         h1    140    ccc     H6   3440 0.13870000   1.008000   ; qtot 140.190600
 3441         hx    140    ccc     H7   3441 0.07790000   1.008000   ; qtot 140.268500
 3442         hx    140    ccc     H8   3442 0.07790000   1.008000   ; qtot 140.346400
 3443         n4    140    ccc     N2   3443 -0.16780000  14.010000   ; qtot 140.178600
 3444         hn    140    ccc     H9   3444 0.27380000   1.008000   ; qtot 140.452400
 3445         hn    140    ccc    H10   3445 0.27380000   1.008000   ; qtot 140.726200
 3446         hn    140    ccc    H11   3446 0.27380000   1.008000   ; qtot 141.000000
; residue  141 ccc rtp ccc q 1.0
 3447          n    141    ccc     N1   3447 -0.26410000  14.010000   ; qtot 140.735900
 3448         hn    141    ccc     H4   3448 0.27630000   1.008000   ; qtot 141.012200
 3449         c3    141    ccc     C3   3449 -0.17900000  12.010000   ; qtot 140.833200
 3450         c3    141    ccc     C4   3450 0.08000000  12.010000   ; qtot 140.913200
 3451         h1    141    ccc     H5   3451 0.13870000   1.008000   ; qtot 141.051900
 3452         h1    141    ccc     H6   3452 0.13870000   1.008000   ; qtot 141.190600
 3453         hx    141    ccc     H7   3453 0.07790000   1.008000   ; qtot 141.268500
 3454         hx    141    ccc     H8   3454 0.07790000   1.008000   ; qtot 141.346400
 3455         n4    141    ccc     N2   3455 -0.16780000  14.010000   ; qtot 141.178600
 3456         hn    141    ccc     H9   3456 0.27380000   1.008000   ; qtot 141.452400
 3457         hn    141    ccc    H10   3457 0.27380000   1.008000   ; qtot 141.726200
 3458         hn    141    ccc    H11   3458 0.27380000   1.008000   ; qtot 142.000000
; residue  142 ccc rtp ccc q 1.0
 3459          n    142    ccc     N1   3459 -0.26410000  14.010000   ; qtot 141.735900
 3460         hn    142    ccc     H4   3460 0.27630000   1.008000   ; qtot 142.012200
 3461         c3    142    ccc     C3   3461 -0.17900000  12.010000   ; qtot 141.833200
 3462         c3    142    ccc     C4   3462 0.08000000  12.010000   ; qtot 141.913200
 3463         h1    142    ccc     H5   3463 0.13870000   1.008000   ; qtot 142.051900
 3464         h1    142    ccc     H6   3464 0.13870000   1.008000   ; qtot 142.190600
 3465         hx    142    ccc     H7   3465 0.07790000   1.008000   ; qtot 142.268500
 3466         hx    142    ccc     H8   3466 0.07790000   1.008000   ; qtot 142.346400
 3467         n4    142    ccc     N2   3467 -0.16780000  14.010000   ; qtot 142.178600
 3468         hn    142    ccc     H9   3468 0.27380000   1.008000   ; qtot 142.452400
 3469         hn    142    ccc    H10   3469 0.27380000   1.008000   ; qtot 142.726200
 3470         hn    142    ccc    H11   3470 0.27380000   1.008000   ; qtot 143.000000
; residue  143 ccc rtp ccc q 1.0
 3471          n    143    ccc     N1   3471 -0.26410000  14.010000   ; qtot 142.735900
 3472         hn    143    ccc     H4   3472 0.27630000   1.008000   ; qtot 143.012200
 3473         c3    143    ccc     C3   3473 -0.17900000  12.010000   ; qtot 142.833200
 3474         c3    143    ccc     C4   3474 0.08000000  12.010000   ; qtot 142.913200
 3475         h1    143    ccc     H5   3475 0.13870000   1.008000   ; qtot 143.051900
 3476         h1    143    ccc     H6   3476 0.13870000   1.008000   ; qtot 143.190600
 3477         hx    143    ccc     H7   3477 0.07790000   1.008000   ; qtot 143.268500
 3478         hx    143    ccc     H8   3478 0.07790000   1.008000   ; qtot 143.346400
 3479         n4    143    ccc     N2   3479 -0.16780000  14.010000   ; qtot 143.178600
 3480         hn    143    ccc     H9   3480 0.27380000   1.008000   ; qtot 143.452400
 3481         hn    143    ccc    H10   3481 0.27380000   1.008000   ; qtot 143.726200
 3482         hn    143    ccc    H11   3482 0.27380000   1.008000   ; qtot 144.000000
; residue  144 ccc rtp ccc q 1.0
 3483          n    144    ccc     N1   3483 -0.26410000  14.010000   ; qtot 143.735900
 3484         hn    144    ccc     H4   3484 0.27630000   1.008000   ; qtot 144.012200
 3485         c3    144    ccc     C3   3485 -0.17900000  12.010000   ; qtot 143.833200
 3486         c3    144    ccc     C4   3486 0.08000000  12.010000   ; qtot 143.913200
 3487         h1    144    ccc     H5   3487 0.13870000   1.008000   ; qtot 144.051900
 3488         h1    144    ccc     H6   3488 0.13870000   1.008000   ; qtot 144.190600
 3489         hx    144    ccc     H7   3489 0.07790000   1.008000   ; qtot 144.268500
 3490         hx    144    ccc     H8   3490 0.07790000   1.008000   ; qtot 144.346400
 3491         n4    144    ccc     N2   3491 -0.16780000  14.010000   ; qtot 144.178600
 3492         hn    144    ccc     H9   3492 0.27380000   1.008000   ; qtot 144.452400
 3493         hn    144    ccc    H10   3493 0.27380000   1.008000   ; qtot 144.726200
 3494         hn    144    ccc    H11   3494 0.27380000   1.008000   ; qtot 145.000000
; residue  145 ccc rtp ccc q 1.0
 3495          n    145    ccc     N1   3495 -0.26410000  14.010000   ; qtot 144.735900
 3496         hn    145    ccc     H4   3496 0.27630000   1.008000   ; qtot 145.012200
 3497         c3    145    ccc     C3   3497 -0.17900000  12.010000   ; qtot 144.833200
 3498         c3    145    ccc     C4   3498 0.08000000  12.010000   ; qtot 144.913200
 3499         h1    145    ccc     H5   3499 0.13870000   1.008000   ; qtot 145.051900
 3500         h1    145    ccc     H6   3500 0.13870000   1.008000   ; qtot 145.190600
 3501         hx    145    ccc     H7   3501 0.07790000   1.008000   ; qtot 145.268500
 3502         hx    145    ccc     H8   3502 0.07790000   1.008000   ; qtot 145.346400
 3503         n4    145    ccc     N2   3503 -0.16780000  14.010000   ; qtot 145.178600
 3504         hn    145    ccc     H9   3504 0.27380000   1.008000   ; qtot 145.452400
 3505         hn    145    ccc    H10   3505 0.27380000   1.008000   ; qtot 145.726200
 3506         hn    145    ccc    H11   3506 0.27380000   1.008000   ; qtot 146.000000
; residue  146 ccc rtp ccc q 1.0
 3507          n    146    ccc     N1   3507 -0.26410000  14.010000   ; qtot 145.735900
 3508         hn    146    ccc     H4   3508 0.27630000   1.008000   ; qtot 146.012200
 3509         c3    146    ccc     C3   3509 -0.17900000  12.010000   ; qtot 145.833200
 3510         c3    146    ccc     C4   3510 0.08000000  12.010000   ; qtot 145.913200
 3511         h1    146    ccc     H5   3511 0.13870000   1.008000   ; qtot 146.051900
 3512         h1    146    ccc     H6   3512 0.13870000   1.008000   ; qtot 146.190600
 3513         hx    146    ccc     H7   3513 0.07790000   1.008000   ; qtot 146.268500
 3514         hx    146    ccc     H8   3514 0.07790000   1.008000   ; qtot 146.346400
 3515         n4    146    ccc     N2   3515 -0.16780000  14.010000   ; qtot 146.178600
 3516         hn    146    ccc     H9   3516 0.27380000   1.008000   ; qtot 146.452400
 3517         hn    146    ccc    H10   3517 0.27380000   1.008000   ; qtot 146.726200
 3518         hn    146    ccc    H11   3518 0.27380000   1.008000   ; qtot 147.000000
; residue  147 ccc rtp ccc q 1.0
 3519          n    147    ccc     N1   3519 -0.26410000  14.010000   ; qtot 146.735900
 3520         hn    147    ccc     H4   3520 0.27630000   1.008000   ; qtot 147.012200
 3521         c3    147    ccc     C3   3521 -0.17900000  12.010000   ; qtot 146.833200
 3522         c3    147    ccc     C4   3522 0.08000000  12.010000   ; qtot 146.913200
 3523         h1    147    ccc     H5   3523 0.13870000   1.008000   ; qtot 147.051900
 3524         h1    147    ccc     H6   3524 0.13870000   1.008000   ; qtot 147.190600
 3525         hx    147    ccc     H7   3525 0.07790000   1.008000   ; qtot 147.268500
 3526         hx    147    ccc     H8   3526 0.07790000   1.008000   ; qtot 147.346400
 3527         n4    147    ccc     N2   3527 -0.16780000  14.010000   ; qtot 147.178600
 3528         hn    147    ccc     H9   3528 0.27380000   1.008000   ; qtot 147.452400
 3529         hn    147    ccc    H10   3529 0.27380000   1.008000   ; qtot 147.726200
 3530         hn    147    ccc    H11   3530 0.27380000   1.008000   ; qtot 148.000000
; residue  148 ccc rtp ccc q 1.0
 3531          n    148    ccc     N1   3531 -0.26410000  14.010000   ; qtot 147.735900
 3532         hn    148    ccc     H4   3532 0.27630000   1.008000   ; qtot 148.012200
 3533         c3    148    ccc     C3   3533 -0.17900000  12.010000   ; qtot 147.833200
 3534         c3    148    ccc     C4   3534 0.08000000  12.010000   ; qtot 147.913200
 3535         h1    148    ccc     H5   3535 0.13870000   1.008000   ; qtot 148.051900
 3536         h1    148    ccc     H6   3536 0.13870000   1.008000   ; qtot 148.190600
 3537         hx    148    ccc     H7   3537 0.07790000   1.008000   ; qtot 148.268500
 3538         hx    148    ccc     H8   3538 0.07790000   1.008000   ; qtot 148.346400
 3539         n4    148    ccc     N2   3539 -0.16780000  14.010000   ; qtot 148.178600
 3540         hn    148    ccc     H9   3540 0.27380000   1.008000   ; qtot 148.452400
 3541         hn    148    ccc    H10   3541 0.27380000   1.008000   ; qtot 148.726200
 3542         hn    148    ccc    H11   3542 0.27380000   1.008000   ; qtot 149.000000
; residue  149 ccc rtp ccc q 1.0
 3543          n    149    ccc     N1   3543 -0.26410000  14.010000   ; qtot 148.735900
 3544         hn    149    ccc     H4   3544 0.27630000   1.008000   ; qtot 149.012200
 3545         c3    149    ccc     C3   3545 -0.17900000  12.010000   ; qtot 148.833200
 3546         c3    149    ccc     C4   3546 0.08000000  12.010000   ; qtot 148.913200
 3547         h1    149    ccc     H5   3547 0.13870000   1.008000   ; qtot 149.051900
 3548         h1    149    ccc     H6   3548 0.13870000   1.008000   ; qtot 149.190600
 3549         hx    149    ccc     H7   3549 0.07790000   1.008000   ; qtot 149.268500
 3550         hx    149    ccc     H8   3550 0.07790000   1.008000   ; qtot 149.346400
 3551         n4    149    ccc     N2   3551 -0.16780000  14.010000   ; qtot 149.178600
 3552         hn    149    ccc     H9   3552 0.27380000   1.008000   ; qtot 149.452400
 3553         hn    149    ccc    H10   3553 0.27380000   1.008000   ; qtot 149.726200
 3554         hn    149    ccc    H11   3554 0.27380000   1.008000   ; qtot 150.000000
; residue  150 ccc rtp ccc q 1.0
 3555          n    150    ccc     N1   3555 -0.26410000  14.010000   ; qtot 149.735900
 3556         hn    150    ccc     H4   3556 0.27630000   1.008000   ; qtot 150.012200
 3557         c3    150    ccc     C3   3557 -0.17900000  12.010000   ; qtot 149.833200
 3558         c3    150    ccc     C4   3558 0.08000000  12.010000   ; qtot 149.913200
 3559         h1    150    ccc     H5   3559 0.13870000   1.008000   ; qtot 150.051900
 3560         h1    150    ccc     H6   3560 0.13870000   1.008000   ; qtot 150.190600
 3561         hx    150    ccc     H7   3561 0.07790000   1.008000   ; qtot 150.268500
 3562         hx    150    ccc     H8   3562 0.07790000   1.008000   ; qtot 150.346400
 3563         n4    150    ccc     N2   3563 -0.16780000  14.010000   ; qtot 150.178600
 3564         hn    150    ccc     H9   3564 0.27380000   1.008000   ; qtot 150.452400
 3565         hn    150    ccc    H10   3565 0.27380000   1.008000   ; qtot 150.726200
 3566         hn    150    ccc    H11   3566 0.27380000   1.008000   ; qtot 151.000000
; residue  151 ccc rtp ccc q 1.0
 3567          n    151    ccc     N1   3567 -0.26410000  14.010000   ; qtot 150.735900
 3568         hn    151    ccc     H4   3568 0.27630000   1.008000   ; qtot 151.012200
 3569         c3    151    ccc     C3   3569 -0.17900000  12.010000   ; qtot 150.833200
 3570         c3    151    ccc     C4   3570 0.08000000  12.010000   ; qtot 150.913200
 3571         h1    151    ccc     H5   3571 0.13870000   1.008000   ; qtot 151.051900
 3572         h1    151    ccc     H6   3572 0.13870000   1.008000   ; qtot 151.190600
 3573         hx    151    ccc     H7   3573 0.07790000   1.008000   ; qtot 151.268500
 3574         hx    151    ccc     H8   3574 0.07790000   1.008000   ; qtot 151.346400
 3575         n4    151    ccc     N2   3575 -0.16780000  14.010000   ; qtot 151.178600
 3576         hn    151    ccc     H9   3576 0.27380000   1.008000   ; qtot 151.452400
 3577         hn    151    ccc    H10   3577 0.27380000   1.008000   ; qtot 151.726200
 3578         hn    151    ccc    H11   3578 0.27380000   1.008000   ; qtot 152.000000
; residue  152 ccc rtp ccc q 1.0
 3579          n    152    ccc     N1   3579 -0.26410000  14.010000   ; qtot 151.735900
 3580         hn    152    ccc     H4   3580 0.27630000   1.008000   ; qtot 152.012200
 3581         c3    152    ccc     C3   3581 -0.17900000  12.010000   ; qtot 151.833200
 3582         c3    152    ccc     C4   3582 0.08000000  12.010000   ; qtot 151.913200
 3583         h1    152    ccc     H5   3583 0.13870000   1.008000   ; qtot 152.051900
 3584         h1    152    ccc     H6   3584 0.13870000   1.008000   ; qtot 152.190600
 3585         hx    152    ccc     H7   3585 0.07790000   1.008000   ; qtot 152.268500
 3586         hx    152    ccc     H8   3586 0.07790000   1.008000   ; qtot 152.346400
 3587         n4    152    ccc     N2   3587 -0.16780000  14.010000   ; qtot 152.178600
 3588         hn    152    ccc     H9   3588 0.27380000   1.008000   ; qtot 152.452400
 3589         hn    152    ccc    H10   3589 0.27380000   1.008000   ; qtot 152.726200
 3590         hn    152    ccc    H11   3590 0.27380000   1.008000   ; qtot 153.000000
; residue  153 ccc rtp ccc q 1.0
 3591          n    153    ccc     N1   3591 -0.26410000  14.010000   ; qtot 152.735900
 3592         hn    153    ccc     H4   3592 0.27630000   1.008000   ; qtot 153.012200
 3593         c3    153    ccc     C3   3593 -0.17900000  12.010000   ; qtot 152.833200
 3594         c3    153    ccc     C4   3594 0.08000000  12.010000   ; qtot 152.913200
 3595         h1    153    ccc     H5   3595 0.13870000   1.008000   ; qtot 153.051900
 3596         h1    153    ccc     H6   3596 0.13870000   1.008000   ; qtot 153.190600
 3597         hx    153    ccc     H7   3597 0.07790000   1.008000   ; qtot 153.268500
 3598         hx    153    ccc     H8   3598 0.07790000   1.008000   ; qtot 153.346400
 3599         n4    153    ccc     N2   3599 -0.16780000  14.010000   ; qtot 153.178600
 3600         hn    153    ccc     H9   3600 0.27380000   1.008000   ; qtot 153.452400
 3601         hn    153    ccc    H10   3601 0.27380000   1.008000   ; qtot 153.726200
 3602         hn    153    ccc    H11   3602 0.27380000   1.008000   ; qtot 154.000000
; residue  154 ccc rtp ccc q 1.0
 3603          n    154    ccc     N1   3603 -0.26410000  14.010000   ; qtot 153.735900
 3604         hn    154    ccc     H4   3604 0.27630000   1.008000   ; qtot 154.012200
 3605         c3    154    ccc     C3   3605 -0.17900000  12.010000   ; qtot 153.833200
 3606         c3    154    ccc     C4   3606 0.08000000  12.010000   ; qtot 153.913200
 3607         h1    154    ccc     H5   3607 0.13870000   1.008000   ; qtot 154.051900
 3608         h1    154    ccc     H6   3608 0.13870000   1.008000   ; qtot 154.190600
 3609         hx    154    ccc     H7   3609 0.07790000   1.008000   ; qtot 154.268500
 3610         hx    154    ccc     H8   3610 0.07790000   1.008000   ; qtot 154.346400
 3611         n4    154    ccc     N2   3611 -0.16780000  14.010000   ; qtot 154.178600
 3612         hn    154    ccc     H9   3612 0.27380000   1.008000   ; qtot 154.452400
 3613         hn    154    ccc    H10   3613 0.27380000   1.008000   ; qtot 154.726200
 3614         hn    154    ccc    H11   3614 0.27380000   1.008000   ; qtot 155.000000
; residue  155 ccc rtp ccc q 1.0
 3615          n    155    ccc     N1   3615 -0.26410000  14.010000   ; qtot 154.735900
 3616         hn    155    ccc     H4   3616 0.27630000   1.008000   ; qtot 155.012200
 3617         c3    155    ccc     C3   3617 -0.17900000  12.010000   ; qtot 154.833200
 3618         c3    155    ccc     C4   3618 0.08000000  12.010000   ; qtot 154.913200
 3619         h1    155    ccc     H5   3619 0.13870000   1.008000   ; qtot 155.051900
 3620         h1    155    ccc     H6   3620 0.13870000   1.008000   ; qtot 155.190600
 3621         hx    155    ccc     H7   3621 0.07790000   1.008000   ; qtot 155.268500
 3622         hx    155    ccc     H8   3622 0.07790000   1.008000   ; qtot 155.346400
 3623         n4    155    ccc     N2   3623 -0.16780000  14.010000   ; qtot 155.178600
 3624         hn    155    ccc     H9   3624 0.27380000   1.008000   ; qtot 155.452400
 3625         hn    155    ccc    H10   3625 0.27380000   1.008000   ; qtot 155.726200
 3626         hn    155    ccc    H11   3626 0.27380000   1.008000   ; qtot 156.000000
; residue  156 ccc rtp ccc q 1.0
 3627          n    156    ccc     N1   3627 -0.26410000  14.010000   ; qtot 155.735900
 3628         hn    156    ccc     H4   3628 0.27630000   1.008000   ; qtot 156.012200
 3629         c3    156    ccc     C3   3629 -0.17900000  12.010000   ; qtot 155.833200
 3630         c3    156    ccc     C4   3630 0.08000000  12.010000   ; qtot 155.913200
 3631         h1    156    ccc     H5   3631 0.13870000   1.008000   ; qtot 156.051900
 3632         h1    156    ccc     H6   3632 0.13870000   1.008000   ; qtot 156.190600
 3633         hx    156    ccc     H7   3633 0.07790000   1.008000   ; qtot 156.268500
 3634         hx    156    ccc     H8   3634 0.07790000   1.008000   ; qtot 156.346400
 3635         n4    156    ccc     N2   3635 -0.16780000  14.010000   ; qtot 156.178600
 3636         hn    156    ccc     H9   3636 0.27380000   1.008000   ; qtot 156.452400
 3637         hn    156    ccc    H10   3637 0.27380000   1.008000   ; qtot 156.726200
 3638         hn    156    ccc    H11   3638 0.27380000   1.008000   ; qtot 157.000000
; residue  157 ccc rtp ccc q 1.0
 3639          n    157    ccc     N1   3639 -0.26410000  14.010000   ; qtot 156.735900
 3640         hn    157    ccc     H4   3640 0.27630000   1.008000   ; qtot 157.012200
 3641         c3    157    ccc     C3   3641 -0.17900000  12.010000   ; qtot 156.833200
 3642         c3    157    ccc     C4   3642 0.08000000  12.010000   ; qtot 156.913200
 3643         h1    157    ccc     H5   3643 0.13870000   1.008000   ; qtot 157.051900
 3644         h1    157    ccc     H6   3644 0.13870000   1.008000   ; qtot 157.190600
 3645         hx    157    ccc     H7   3645 0.07790000   1.008000   ; qtot 157.268500
 3646         hx    157    ccc     H8   3646 0.07790000   1.008000   ; qtot 157.346400
 3647         n4    157    ccc     N2   3647 -0.16780000  14.010000   ; qtot 157.178600
 3648         hn    157    ccc     H9   3648 0.27380000   1.008000   ; qtot 157.452400
 3649         hn    157    ccc    H10   3649 0.27380000   1.008000   ; qtot 157.726200
 3650         hn    157    ccc    H11   3650 0.27380000   1.008000   ; qtot 158.000000
; residue  158 ccc rtp ccc q 1.0
 3651          n    158    ccc     N1   3651 -0.26410000  14.010000   ; qtot 157.735900
 3652         hn    158    ccc     H4   3652 0.27630000   1.008000   ; qtot 158.012200
 3653         c3    158    ccc     C3   3653 -0.17900000  12.010000   ; qtot 157.833200
 3654         c3    158    ccc     C4   3654 0.08000000  12.010000   ; qtot 157.913200
 3655         h1    158    ccc     H5   3655 0.13870000   1.008000   ; qtot 158.051900
 3656         h1    158    ccc     H6   3656 0.13870000   1.008000   ; qtot 158.190600
 3657         hx    158    ccc     H7   3657 0.07790000   1.008000   ; qtot 158.268500
 3658         hx    158    ccc     H8   3658 0.07790000   1.008000   ; qtot 158.346400
 3659         n4    158    ccc     N2   3659 -0.16780000  14.010000   ; qtot 158.178600
 3660         hn    158    ccc     H9   3660 0.27380000   1.008000   ; qtot 158.452400
 3661         hn    158    ccc    H10   3661 0.27380000   1.008000   ; qtot 158.726200
 3662         hn    158    ccc    H11   3662 0.27380000   1.008000   ; qtot 159.000000
; residue  159 ccc rtp ccc q 1.0
 3663          n    159    ccc     N1   3663 -0.26410000  14.010000   ; qtot 158.735900
 3664         hn    159    ccc     H4   3664 0.27630000   1.008000   ; qtot 159.012200
 3665         c3    159    ccc     C3   3665 -0.17900000  12.010000   ; qtot 158.833200
 3666         c3    159    ccc     C4   3666 0.08000000  12.010000   ; qtot 158.913200
 3667         h1    159    ccc     H5   3667 0.13870000   1.008000   ; qtot 159.051900
 3668         h1    159    ccc     H6   3668 0.13870000   1.008000   ; qtot 159.190600
 3669         hx    159    ccc     H7   3669 0.07790000   1.008000   ; qtot 159.268500
 3670         hx    159    ccc     H8   3670 0.07790000   1.008000   ; qtot 159.346400
 3671         n4    159    ccc     N2   3671 -0.16780000  14.010000   ; qtot 159.178600
 3672         hn    159    ccc     H9   3672 0.27380000   1.008000   ; qtot 159.452400
 3673         hn    159    ccc    H10   3673 0.27380000   1.008000   ; qtot 159.726200
 3674         hn    159    ccc    H11   3674 0.27380000   1.008000   ; qtot 160.000000
; residue  160 ccc rtp ccc q 1.0
 3675          n    160    ccc     N1   3675 -0.26410000  14.010000   ; qtot 159.735900
 3676         hn    160    ccc     H4   3676 0.27630000   1.008000   ; qtot 160.012200
 3677         c3    160    ccc     C3   3677 -0.17900000  12.010000   ; qtot 159.833200
 3678         c3    160    ccc     C4   3678 0.08000000  12.010000   ; qtot 159.913200
 3679         h1    160    ccc     H5   3679 0.13870000   1.008000   ; qtot 160.051900
 3680         h1    160    ccc     H6   3680 0.13870000   1.008000   ; qtot 160.190600
 3681         hx    160    ccc     H7   3681 0.07790000   1.008000   ; qtot 160.268500
 3682         hx    160    ccc     H8   3682 0.07790000   1.008000   ; qtot 160.346400
 3683         n4    160    ccc     N2   3683 -0.16780000  14.010000   ; qtot 160.178600
 3684         hn    160    ccc     H9   3684 0.27380000   1.008000   ; qtot 160.452400
 3685         hn    160    ccc    H10   3685 0.27380000   1.008000   ; qtot 160.726200
 3686         hn    160    ccc    H11   3686 0.27380000   1.008000   ; qtot 161.000000
; residue  161 ccc rtp ccc q 1.0
 3687          n    161    ccc     N1   3687 -0.26410000  14.010000   ; qtot 160.735900
 3688         hn    161    ccc     H4   3688 0.27630000   1.008000   ; qtot 161.012200
 3689         c3    161    ccc     C3   3689 -0.17900000  12.010000   ; qtot 160.833200
 3690         c3    161    ccc     C4   3690 0.08000000  12.010000   ; qtot 160.913200
 3691         h1    161    ccc     H5   3691 0.13870000   1.008000   ; qtot 161.051900
 3692         h1    161    ccc     H6   3692 0.13870000   1.008000   ; qtot 161.190600
 3693         hx    161    ccc     H7   3693 0.07790000   1.008000   ; qtot 161.268500
 3694         hx    161    ccc     H8   3694 0.07790000   1.008000   ; qtot 161.346400
 3695         n4    161    ccc     N2   3695 -0.16780000  14.010000   ; qtot 161.178600
 3696         hn    161    ccc     H9   3696 0.27380000   1.008000   ; qtot 161.452400
 3697         hn    161    ccc    H10   3697 0.27380000   1.008000   ; qtot 161.726200
 3698         hn    161    ccc    H11   3698 0.27380000   1.008000   ; qtot 162.000000
; residue  162 ccc rtp ccc q 1.0
 3699          n    162    ccc     N1   3699 -0.26410000  14.010000   ; qtot 161.735900
 3700         hn    162    ccc     H4   3700 0.27630000   1.008000   ; qtot 162.012200
 3701         c3    162    ccc     C3   3701 -0.17900000  12.010000   ; qtot 161.833200
 3702         c3    162    ccc     C4   3702 0.08000000  12.010000   ; qtot 161.913200
 3703         h1    162    ccc     H5   3703 0.13870000   1.008000   ; qtot 162.051900
 3704         h1    162    ccc     H6   3704 0.13870000   1.008000   ; qtot 162.190600
 3705         hx    162    ccc     H7   3705 0.07790000   1.008000   ; qtot 162.268500
 3706         hx    162    ccc     H8   3706 0.07790000   1.008000   ; qtot 162.346400
 3707         n4    162    ccc     N2   3707 -0.16780000  14.010000   ; qtot 162.178600
 3708         hn    162    ccc     H9   3708 0.27380000   1.008000   ; qtot 162.452400
 3709         hn    162    ccc    H10   3709 0.27380000   1.008000   ; qtot 162.726200
 3710         hn    162    ccc    H11   3710 0.27380000   1.008000   ; qtot 163.000000
; residue  163 ccc rtp ccc q 1.0
 3711          n    163    ccc     N1   3711 -0.26410000  14.010000   ; qtot 162.735900
 3712         hn    163    ccc     H4   3712 0.27630000   1.008000   ; qtot 163.012200
 3713         c3    163    ccc     C3   3713 -0.17900000  12.010000   ; qtot 162.833200
 3714         c3    163    ccc     C4   3714 0.08000000  12.010000   ; qtot 162.913200
 3715         h1    163    ccc     H5   3715 0.13870000   1.008000   ; qtot 163.051900
 3716         h1    163    ccc     H6   3716 0.13870000   1.008000   ; qtot 163.190600
 3717         hx    163    ccc     H7   3717 0.07790000   1.008000   ; qtot 163.268500
 3718         hx    163    ccc     H8   3718 0.07790000   1.008000   ; qtot 163.346400
 3719         n4    163    ccc     N2   3719 -0.16780000  14.010000   ; qtot 163.178600
 3720         hn    163    ccc     H9   3720 0.27380000   1.008000   ; qtot 163.452400
 3721         hn    163    ccc    H10   3721 0.27380000   1.008000   ; qtot 163.726200
 3722         hn    163    ccc    H11   3722 0.27380000   1.008000   ; qtot 164.000000
; residue  164 ccc rtp ccc q 1.0
 3723          n    164    ccc     N1   3723 -0.26410000  14.010000   ; qtot 163.735900
 3724         hn    164    ccc     H4   3724 0.27630000   1.008000   ; qtot 164.012200
 3725         c3    164    ccc     C3   3725 -0.17900000  12.010000   ; qtot 163.833200
 3726         c3    164    ccc     C4   3726 0.08000000  12.010000   ; qtot 163.913200
 3727         h1    164    ccc     H5   3727 0.13870000   1.008000   ; qtot 164.051900
 3728         h1    164    ccc     H6   3728 0.13870000   1.008000   ; qtot 164.190600
 3729         hx    164    ccc     H7   3729 0.07790000   1.008000   ; qtot 164.268500
 3730         hx    164    ccc     H8   3730 0.07790000   1.008000   ; qtot 164.346400
 3731         n4    164    ccc     N2   3731 -0.16780000  14.010000   ; qtot 164.178600
 3732         hn    164    ccc     H9   3732 0.27380000   1.008000   ; qtot 164.452400
 3733         hn    164    ccc    H10   3733 0.27380000   1.008000   ; qtot 164.726200
 3734         hn    164    ccc    H11   3734 0.27380000   1.008000   ; qtot 165.000000
; residue  165 ccc rtp ccc q 1.0
 3735          n    165    ccc     N1   3735 -0.26410000  14.010000   ; qtot 164.735900
 3736         hn    165    ccc     H4   3736 0.27630000   1.008000   ; qtot 165.012200
 3737         c3    165    ccc     C3   3737 -0.17900000  12.010000   ; qtot 164.833200
 3738         c3    165    ccc     C4   3738 0.08000000  12.010000   ; qtot 164.913200
 3739         h1    165    ccc     H5   3739 0.13870000   1.008000   ; qtot 165.051900
 3740         h1    165    ccc     H6   3740 0.13870000   1.008000   ; qtot 165.190600
 3741         hx    165    ccc     H7   3741 0.07790000   1.008000   ; qtot 165.268500
 3742         hx    165    ccc     H8   3742 0.07790000   1.008000   ; qtot 165.346400
 3743         n4    165    ccc     N2   3743 -0.16780000  14.010000   ; qtot 165.178600
 3744         hn    165    ccc     H9   3744 0.27380000   1.008000   ; qtot 165.452400
 3745         hn    165    ccc    H10   3745 0.27380000   1.008000   ; qtot 165.726200
 3746         hn    165    ccc    H11   3746 0.27380000   1.008000   ; qtot 166.000000
; residue  166 ccc rtp ccc q 1.0
 3747          n    166    ccc     N1   3747 -0.26410000  14.010000   ; qtot 165.735900
 3748         hn    166    ccc     H4   3748 0.27630000   1.008000   ; qtot 166.012200
 3749         c3    166    ccc     C3   3749 -0.17900000  12.010000   ; qtot 165.833200
 3750         c3    166    ccc     C4   3750 0.08000000  12.010000   ; qtot 165.913200
 3751         h1    166    ccc     H5   3751 0.13870000   1.008000   ; qtot 166.051900
 3752         h1    166    ccc     H6   3752 0.13870000   1.008000   ; qtot 166.190600
 3753         hx    166    ccc     H7   3753 0.07790000   1.008000   ; qtot 166.268500
 3754         hx    166    ccc     H8   3754 0.07790000   1.008000   ; qtot 166.346400
 3755         n4    166    ccc     N2   3755 -0.16780000  14.010000   ; qtot 166.178600
 3756         hn    166    ccc     H9   3756 0.27380000   1.008000   ; qtot 166.452400
 3757         hn    166    ccc    H10   3757 0.27380000   1.008000   ; qtot 166.726200
 3758         hn    166    ccc    H11   3758 0.27380000   1.008000   ; qtot 167.000000
; residue  167 ccc rtp ccc q 1.0
 3759          n    167    ccc     N1   3759 -0.26410000  14.010000   ; qtot 166.735900
 3760         hn    167    ccc     H4   3760 0.27630000   1.008000   ; qtot 167.012200
 3761         c3    167    ccc     C3   3761 -0.17900000  12.010000   ; qtot 166.833200
 3762         c3    167    ccc     C4   3762 0.08000000  12.010000   ; qtot 166.913200
 3763         h1    167    ccc     H5   3763 0.13870000   1.008000   ; qtot 167.051900
 3764         h1    167    ccc     H6   3764 0.13870000   1.008000   ; qtot 167.190600
 3765         hx    167    ccc     H7   3765 0.07790000   1.008000   ; qtot 167.268500
 3766         hx    167    ccc     H8   3766 0.07790000   1.008000   ; qtot 167.346400
 3767         n4    167    ccc     N2   3767 -0.16780000  14.010000   ; qtot 167.178600
 3768         hn    167    ccc     H9   3768 0.27380000   1.008000   ; qtot 167.452400
 3769         hn    167    ccc    H10   3769 0.27380000   1.008000   ; qtot 167.726200
 3770         hn    167    ccc    H11   3770 0.27380000   1.008000   ; qtot 168.000000
; residue  168 ccc rtp ccc q 1.0
 3771          n    168    ccc     N1   3771 -0.26410000  14.010000   ; qtot 167.735900
 3772         hn    168    ccc     H4   3772 0.27630000   1.008000   ; qtot 168.012200
 3773         c3    168    ccc     C3   3773 -0.17900000  12.010000   ; qtot 167.833200
 3774         c3    168    ccc     C4   3774 0.08000000  12.010000   ; qtot 167.913200
 3775         h1    168    ccc     H5   3775 0.13870000   1.008000   ; qtot 168.051900
 3776         h1    168    ccc     H6   3776 0.13870000   1.008000   ; qtot 168.190600
 3777         hx    168    ccc     H7   3777 0.07790000   1.008000   ; qtot 168.268500
 3778         hx    168    ccc     H8   3778 0.07790000   1.008000   ; qtot 168.346400
 3779         n4    168    ccc     N2   3779 -0.16780000  14.010000   ; qtot 168.178600
 3780         hn    168    ccc     H9   3780 0.27380000   1.008000   ; qtot 168.452400
 3781         hn    168    ccc    H10   3781 0.27380000   1.008000   ; qtot 168.726200
 3782         hn    168    ccc    H11   3782 0.27380000   1.008000   ; qtot 169.000000
; residue  169 ccc rtp ccc q 1.0
 3783          n    169    ccc     N1   3783 -0.26410000  14.010000   ; qtot 168.735900
 3784         hn    169    ccc     H4   3784 0.27630000   1.008000   ; qtot 169.012200
 3785         c3    169    ccc     C3   3785 -0.17900000  12.010000   ; qtot 168.833200
 3786         c3    169    ccc     C4   3786 0.08000000  12.010000   ; qtot 168.913200
 3787         h1    169    ccc     H5   3787 0.13870000   1.008000   ; qtot 169.051900
 3788         h1    169    ccc     H6   3788 0.13870000   1.008000   ; qtot 169.190600
 3789         hx    169    ccc     H7   3789 0.07790000   1.008000   ; qtot 169.268500
 3790         hx    169    ccc     H8   3790 0.07790000   1.008000   ; qtot 169.346400
 3791         n4    169    ccc     N2   3791 -0.16780000  14.010000   ; qtot 169.178600
 3792         hn    169    ccc     H9   3792 0.27380000   1.008000   ; qtot 169.452400
 3793         hn    169    ccc    H10   3793 0.27380000   1.008000   ; qtot 169.726200
 3794         hn    169    ccc    H11   3794 0.27380000   1.008000   ; qtot 170.000000
; residue  170 ccc rtp ccc q 1.0
 3795          n    170    ccc     N1   3795 -0.26410000  14.010000   ; qtot 169.735900
 3796         hn    170    ccc     H4   3796 0.27630000   1.008000   ; qtot 170.012200
 3797         c3    170    ccc     C3   3797 -0.17900000  12.010000   ; qtot 169.833200
 3798         c3    170    ccc     C4   3798 0.08000000  12.010000   ; qtot 169.913200
 3799         h1    170    ccc     H5   3799 0.13870000   1.008000   ; qtot 170.051900
 3800         h1    170    ccc     H6   3800 0.13870000   1.008000   ; qtot 170.190600
 3801         hx    170    ccc     H7   3801 0.07790000   1.008000   ; qtot 170.268500
 3802         hx    170    ccc     H8   3802 0.07790000   1.008000   ; qtot 170.346400
 3803         n4    170    ccc     N2   3803 -0.16780000  14.010000   ; qtot 170.178600
 3804         hn    170    ccc     H9   3804 0.27380000   1.008000   ; qtot 170.452400
 3805         hn    170    ccc    H10   3805 0.27380000   1.008000   ; qtot 170.726200
 3806         hn    170    ccc    H11   3806 0.27380000   1.008000   ; qtot 171.000000
; residue  171 ccc rtp ccc q 1.0
 3807          n    171    ccc     N1   3807 -0.26410000  14.010000   ; qtot 170.735900
 3808         hn    171    ccc     H4   3808 0.27630000   1.008000   ; qtot 171.012200
 3809         c3    171    ccc     C3   3809 -0.17900000  12.010000   ; qtot 170.833200
 3810         c3    171    ccc     C4   3810 0.08000000  12.010000   ; qtot 170.913200
 3811         h1    171    ccc     H5   3811 0.13870000   1.008000   ; qtot 171.051900
 3812         h1    171    ccc     H6   3812 0.13870000   1.008000   ; qtot 171.190600
 3813         hx    171    ccc     H7   3813 0.07790000   1.008000   ; qtot 171.268500
 3814         hx    171    ccc     H8   3814 0.07790000   1.008000   ; qtot 171.346400
 3815         n4    171    ccc     N2   3815 -0.16780000  14.010000   ; qtot 171.178600
 3816         hn    171    ccc     H9   3816 0.27380000   1.008000   ; qtot 171.452400
 3817         hn    171    ccc    H10   3817 0.27380000   1.008000   ; qtot 171.726200
 3818         hn    171    ccc    H11   3818 0.27380000   1.008000   ; qtot 172.000000
; residue  172 ccc rtp ccc q 1.0
 3819          n    172    ccc     N1   3819 -0.26410000  14.010000   ; qtot 171.735900
 3820         hn    172    ccc     H4   3820 0.27630000   1.008000   ; qtot 172.012200
 3821         c3    172    ccc     C3   3821 -0.17900000  12.010000   ; qtot 171.833200
 3822         c3    172    ccc     C4   3822 0.08000000  12.010000   ; qtot 171.913200
 3823         h1    172    ccc     H5   3823 0.13870000   1.008000   ; qtot 172.051900
 3824         h1    172    ccc     H6   3824 0.13870000   1.008000   ; qtot 172.190600
 3825         hx    172    ccc     H7   3825 0.07790000   1.008000   ; qtot 172.268500
 3826         hx    172    ccc     H8   3826 0.07790000   1.008000   ; qtot 172.346400
 3827         n4    172    ccc     N2   3827 -0.16780000  14.010000   ; qtot 172.178600
 3828         hn    172    ccc     H9   3828 0.27380000   1.008000   ; qtot 172.452400
 3829         hn    172    ccc    H10   3829 0.27380000   1.008000   ; qtot 172.726200
 3830         hn    172    ccc    H11   3830 0.27380000   1.008000   ; qtot 173.000000
; residue  173 ccc rtp ccc q 1.0
 3831          n    173    ccc     N1   3831 -0.26410000  14.010000   ; qtot 172.735900
 3832         hn    173    ccc     H4   3832 0.27630000   1.008000   ; qtot 173.012200
 3833         c3    173    ccc     C3   3833 -0.17900000  12.010000   ; qtot 172.833200
 3834         c3    173    ccc     C4   3834 0.08000000  12.010000   ; qtot 172.913200
 3835         h1    173    ccc     H5   3835 0.13870000   1.008000   ; qtot 173.051900
 3836         h1    173    ccc     H6   3836 0.13870000   1.008000   ; qtot 173.190600
 3837         hx    173    ccc     H7   3837 0.07790000   1.008000   ; qtot 173.268500
 3838         hx    173    ccc     H8   3838 0.07790000   1.008000   ; qtot 173.346400
 3839         n4    173    ccc     N2   3839 -0.16780000  14.010000   ; qtot 173.178600
 3840         hn    173    ccc     H9   3840 0.27380000   1.008000   ; qtot 173.452400
 3841         hn    173    ccc    H10   3841 0.27380000   1.008000   ; qtot 173.726200
 3842         hn    173    ccc    H11   3842 0.27380000   1.008000   ; qtot 174.000000
; residue  174 ccc rtp ccc q 1.0
 3843          n    174    ccc     N1   3843 -0.26410000  14.010000   ; qtot 173.735900
 3844         hn    174    ccc     H4   3844 0.27630000   1.008000   ; qtot 174.012200
 3845         c3    174    ccc     C3   3845 -0.17900000  12.010000   ; qtot 173.833200
 3846         c3    174    ccc     C4   3846 0.08000000  12.010000   ; qtot 173.913200
 3847         h1    174    ccc     H5   3847 0.13870000   1.008000   ; qtot 174.051900
 3848         h1    174    ccc     H6   3848 0.13870000   1.008000   ; qtot 174.190600
 3849         hx    174    ccc     H7   3849 0.07790000   1.008000   ; qtot 174.268500
 3850         hx    174    ccc     H8   3850 0.07790000   1.008000   ; qtot 174.346400
 3851         n4    174    ccc     N2   3851 -0.16780000  14.010000   ; qtot 174.178600
 3852         hn    174    ccc     H9   3852 0.27380000   1.008000   ; qtot 174.452400
 3853         hn    174    ccc    H10   3853 0.27380000   1.008000   ; qtot 174.726200
 3854         hn    174    ccc    H11   3854 0.27380000   1.008000   ; qtot 175.000000
; residue  175 ccc rtp ccc q 1.0
 3855          n    175    ccc     N1   3855 -0.26410000  14.010000   ; qtot 174.735900
 3856         hn    175    ccc     H4   3856 0.27630000   1.008000   ; qtot 175.012200
 3857         c3    175    ccc     C3   3857 -0.17900000  12.010000   ; qtot 174.833200
 3858         c3    175    ccc     C4   3858 0.08000000  12.010000   ; qtot 174.913200
 3859         h1    175    ccc     H5   3859 0.13870000   1.008000   ; qtot 175.051900
 3860         h1    175    ccc     H6   3860 0.13870000   1.008000   ; qtot 175.190600
 3861         hx    175    ccc     H7   3861 0.07790000   1.008000   ; qtot 175.268500
 3862         hx    175    ccc     H8   3862 0.07790000   1.008000   ; qtot 175.346400
 3863         n4    175    ccc     N2   3863 -0.16780000  14.010000   ; qtot 175.178600
 3864         hn    175    ccc     H9   3864 0.27380000   1.008000   ; qtot 175.452400
 3865         hn    175    ccc    H10   3865 0.27380000   1.008000   ; qtot 175.726200
 3866         hn    175    ccc    H11   3866 0.27380000   1.008000   ; qtot 176.000000
; residue  176 ccc rtp ccc q 1.0
 3867          n    176    ccc     N1   3867 -0.26410000  14.010000   ; qtot 175.735900
 3868         hn    176    ccc     H4   3868 0.27630000   1.008000   ; qtot 176.012200
 3869         c3    176    ccc     C3   3869 -0.17900000  12.010000   ; qtot 175.833200
 3870         c3    176    ccc     C4   3870 0.08000000  12.010000   ; qtot 175.913200
 3871         h1    176    ccc     H5   3871 0.13870000   1.008000   ; qtot 176.051900
 3872         h1    176    ccc     H6   3872 0.13870000   1.008000   ; qtot 176.190600
 3873         hx    176    ccc     H7   3873 0.07790000   1.008000   ; qtot 176.268500
 3874         hx    176    ccc     H8   3874 0.07790000   1.008000   ; qtot 176.346400
 3875         n4    176    ccc     N2   3875 -0.16780000  14.010000   ; qtot 176.178600
 3876         hn    176    ccc     H9   3876 0.27380000   1.008000   ; qtot 176.452400
 3877         hn    176    ccc    H10   3877 0.27380000   1.008000   ; qtot 176.726200
 3878         hn    176    ccc    H11   3878 0.27380000   1.008000   ; qtot 177.000000
; residue  177 ccc rtp ccc q 1.0
 3879          n    177    ccc     N1   3879 -0.26410000  14.010000   ; qtot 176.735900
 3880         hn    177    ccc     H4   3880 0.27630000   1.008000   ; qtot 177.012200
 3881         c3    177    ccc     C3   3881 -0.17900000  12.010000   ; qtot 176.833200
 3882         c3    177    ccc     C4   3882 0.08000000  12.010000   ; qtot 176.913200
 3883         h1    177    ccc     H5   3883 0.13870000   1.008000   ; qtot 177.051900
 3884         h1    177    ccc     H6   3884 0.13870000   1.008000   ; qtot 177.190600
 3885         hx    177    ccc     H7   3885 0.07790000   1.008000   ; qtot 177.268500
 3886         hx    177    ccc     H8   3886 0.07790000   1.008000   ; qtot 177.346400
 3887         n4    177    ccc     N2   3887 -0.16780000  14.010000   ; qtot 177.178600
 3888         hn    177    ccc     H9   3888 0.27380000   1.008000   ; qtot 177.452400
 3889         hn    177    ccc    H10   3889 0.27380000   1.008000   ; qtot 177.726200
 3890         hn    177    ccc    H11   3890 0.27380000   1.008000   ; qtot 178.000000
; residue  178 ccc rtp ccc q 1.0
 3891          n    178    ccc     N1   3891 -0.26410000  14.010000   ; qtot 177.735900
 3892         hn    178    ccc     H4   3892 0.27630000   1.008000   ; qtot 178.012200
 3893         c3    178    ccc     C3   3893 -0.17900000  12.010000   ; qtot 177.833200
 3894         c3    178    ccc     C4   3894 0.08000000  12.010000   ; qtot 177.913200
 3895         h1    178    ccc     H5   3895 0.13870000   1.008000   ; qtot 178.051900
 3896         h1    178    ccc     H6   3896 0.13870000   1.008000   ; qtot 178.190600
 3897         hx    178    ccc     H7   3897 0.07790000   1.008000   ; qtot 178.268500
 3898         hx    178    ccc     H8   3898 0.07790000   1.008000   ; qtot 178.346400
 3899         n4    178    ccc     N2   3899 -0.16780000  14.010000   ; qtot 178.178600
 3900         hn    178    ccc     H9   3900 0.27380000   1.008000   ; qtot 178.452400
 3901         hn    178    ccc    H10   3901 0.27380000   1.008000   ; qtot 178.726200
 3902         hn    178    ccc    H11   3902 0.27380000   1.008000   ; qtot 179.000000
; residue  179 ccc rtp ccc q 1.0
 3903          n    179    ccc     N1   3903 -0.26410000  14.010000   ; qtot 178.735900
 3904         hn    179    ccc     H4   3904 0.27630000   1.008000   ; qtot 179.012200
 3905         c3    179    ccc     C3   3905 -0.17900000  12.010000   ; qtot 178.833200
 3906         c3    179    ccc     C4   3906 0.08000000  12.010000   ; qtot 178.913200
 3907         h1    179    ccc     H5   3907 0.13870000   1.008000   ; qtot 179.051900
 3908         h1    179    ccc     H6   3908 0.13870000   1.008000   ; qtot 179.190600
 3909         hx    179    ccc     H7   3909 0.07790000   1.008000   ; qtot 179.268500
 3910         hx    179    ccc     H8   3910 0.07790000   1.008000   ; qtot 179.346400
 3911         n4    179    ccc     N2   3911 -0.16780000  14.010000   ; qtot 179.178600
 3912         hn    179    ccc     H9   3912 0.27380000   1.008000   ; qtot 179.452400
 3913         hn    179    ccc    H10   3913 0.27380000   1.008000   ; qtot 179.726200
 3914         hn    179    ccc    H11   3914 0.27380000   1.008000   ; qtot 180.000000
; residue  180 ccc rtp ccc q 1.0
 3915          n    180    ccc     N1   3915 -0.26410000  14.010000   ; qtot 179.735900
 3916         hn    180    ccc     H4   3916 0.27630000   1.008000   ; qtot 180.012200
 3917         c3    180    ccc     C3   3917 -0.17900000  12.010000   ; qtot 179.833200
 3918         c3    180    ccc     C4   3918 0.08000000  12.010000   ; qtot 179.913200
 3919         h1    180    ccc     H5   3919 0.13870000   1.008000   ; qtot 180.051900
 3920         h1    180    ccc     H6   3920 0.13870000   1.008000   ; qtot 180.190600
 3921         hx    180    ccc     H7   3921 0.07790000   1.008000   ; qtot 180.268500
 3922         hx    180    ccc     H8   3922 0.07790000   1.008000   ; qtot 180.346400
 3923         n4    180    ccc     N2   3923 -0.16780000  14.010000   ; qtot 180.178600
 3924         hn    180    ccc     H9   3924 0.27380000   1.008000   ; qtot 180.452400
 3925         hn    180    ccc    H10   3925 0.27380000   1.008000   ; qtot 180.726200
 3926         hn    180    ccc    H11   3926 0.27380000   1.008000   ; qtot 181.000000
; residue  181 ccc rtp ccc q 1.0
 3927          n    181    ccc     N1   3927 -0.26410000  14.010000   ; qtot 180.735900
 3928         hn    181    ccc     H4   3928 0.27630000   1.008000   ; qtot 181.012200
 3929         c3    181    ccc     C3   3929 -0.17900000  12.010000   ; qtot 180.833200
 3930         c3    181    ccc     C4   3930 0.08000000  12.010000   ; qtot 180.913200
 3931         h1    181    ccc     H5   3931 0.13870000   1.008000   ; qtot 181.051900
 3932         h1    181    ccc     H6   3932 0.13870000   1.008000   ; qtot 181.190600
 3933         hx    181    ccc     H7   3933 0.07790000   1.008000   ; qtot 181.268500
 3934         hx    181    ccc     H8   3934 0.07790000   1.008000   ; qtot 181.346400
 3935         n4    181    ccc     N2   3935 -0.16780000  14.010000   ; qtot 181.178600
 3936         hn    181    ccc     H9   3936 0.27380000   1.008000   ; qtot 181.452400
 3937         hn    181    ccc    H10   3937 0.27380000   1.008000   ; qtot 181.726200
 3938         hn    181    ccc    H11   3938 0.27380000   1.008000   ; qtot 182.000000
; residue  182 ccc rtp ccc q 1.0
 3939          n    182    ccc     N1   3939 -0.26410000  14.010000   ; qtot 181.735900
 3940         hn    182    ccc     H4   3940 0.27630000   1.008000   ; qtot 182.012200
 3941         c3    182    ccc     C3   3941 -0.17900000  12.010000   ; qtot 181.833200
 3942         c3    182    ccc     C4   3942 0.08000000  12.010000   ; qtot 181.913200
 3943         h1    182    ccc     H5   3943 0.13870000   1.008000   ; qtot 182.051900
 3944         h1    182    ccc     H6   3944 0.13870000   1.008000   ; qtot 182.190600
 3945         hx    182    ccc     H7   3945 0.07790000   1.008000   ; qtot 182.268500
 3946         hx    182    ccc     H8   3946 0.07790000   1.008000   ; qtot 182.346400
 3947         n4    182    ccc     N2   3947 -0.16780000  14.010000   ; qtot 182.178600
 3948         hn    182    ccc     H9   3948 0.27380000   1.008000   ; qtot 182.452400
 3949         hn    182    ccc    H10   3949 0.27380000   1.008000   ; qtot 182.726200
 3950         hn    182    ccc    H11   3950 0.27380000   1.008000   ; qtot 183.000000
; residue  183 ccc rtp ccc q 1.0
 3951          n    183    ccc     N1   3951 -0.26410000  14.010000   ; qtot 182.735900
 3952         hn    183    ccc     H4   3952 0.27630000   1.008000   ; qtot 183.012200
 3953         c3    183    ccc     C3   3953 -0.17900000  12.010000   ; qtot 182.833200
 3954         c3    183    ccc     C4   3954 0.08000000  12.010000   ; qtot 182.913200
 3955         h1    183    ccc     H5   3955 0.13870000   1.008000   ; qtot 183.051900
 3956         h1    183    ccc     H6   3956 0.13870000   1.008000   ; qtot 183.190600
 3957         hx    183    ccc     H7   3957 0.07790000   1.008000   ; qtot 183.268500
 3958         hx    183    ccc     H8   3958 0.07790000   1.008000   ; qtot 183.346400
 3959         n4    183    ccc     N2   3959 -0.16780000  14.010000   ; qtot 183.178600
 3960         hn    183    ccc     H9   3960 0.27380000   1.008000   ; qtot 183.452400
 3961         hn    183    ccc    H10   3961 0.27380000   1.008000   ; qtot 183.726200
 3962         hn    183    ccc    H11   3962 0.27380000   1.008000   ; qtot 184.000000
; residue  184 ccc rtp ccc q 1.0
 3963          n    184    ccc     N1   3963 -0.26410000  14.010000   ; qtot 183.735900
 3964         hn    184    ccc     H4   3964 0.27630000   1.008000   ; qtot 184.012200
 3965         c3    184    ccc     C3   3965 -0.17900000  12.010000   ; qtot 183.833200
 3966         c3    184    ccc     C4   3966 0.08000000  12.010000   ; qtot 183.913200
 3967         h1    184    ccc     H5   3967 0.13870000   1.008000   ; qtot 184.051900
 3968         h1    184    ccc     H6   3968 0.13870000   1.008000   ; qtot 184.190600
 3969         hx    184    ccc     H7   3969 0.07790000   1.008000   ; qtot 184.268500
 3970         hx    184    ccc     H8   3970 0.07790000   1.008000   ; qtot 184.346400
 3971         n4    184    ccc     N2   3971 -0.16780000  14.010000   ; qtot 184.178600
 3972         hn    184    ccc     H9   3972 0.27380000   1.008000   ; qtot 184.452400
 3973         hn    184    ccc    H10   3973 0.27380000   1.008000   ; qtot 184.726200
 3974         hn    184    ccc    H11   3974 0.27380000   1.008000   ; qtot 185.000000
; residue  185 ccc rtp ccc q 1.0
 3975          n    185    ccc     N1   3975 -0.26410000  14.010000   ; qtot 184.735900
 3976         hn    185    ccc     H4   3976 0.27630000   1.008000   ; qtot 185.012200
 3977         c3    185    ccc     C3   3977 -0.17900000  12.010000   ; qtot 184.833200
 3978         c3    185    ccc     C4   3978 0.08000000  12.010000   ; qtot 184.913200
 3979         h1    185    ccc     H5   3979 0.13870000   1.008000   ; qtot 185.051900
 3980         h1    185    ccc     H6   3980 0.13870000   1.008000   ; qtot 185.190600
 3981         hx    185    ccc     H7   3981 0.07790000   1.008000   ; qtot 185.268500
 3982         hx    185    ccc     H8   3982 0.07790000   1.008000   ; qtot 185.346400
 3983         n4    185    ccc     N2   3983 -0.16780000  14.010000   ; qtot 185.178600
 3984         hn    185    ccc     H9   3984 0.27380000   1.008000   ; qtot 185.452400
 3985         hn    185    ccc    H10   3985 0.27380000   1.008000   ; qtot 185.726200
 3986         hn    185    ccc    H11   3986 0.27380000   1.008000   ; qtot 186.000000
; residue  186 ccc rtp ccc q 1.0
 3987          n    186    ccc     N1   3987 -0.26410000  14.010000   ; qtot 185.735900
 3988         hn    186    ccc     H4   3988 0.27630000   1.008000   ; qtot 186.012200
 3989         c3    186    ccc     C3   3989 -0.17900000  12.010000   ; qtot 185.833200
 3990         c3    186    ccc     C4   3990 0.08000000  12.010000   ; qtot 185.913200
 3991         h1    186    ccc     H5   3991 0.13870000   1.008000   ; qtot 186.051900
 3992         h1    186    ccc     H6   3992 0.13870000   1.008000   ; qtot 186.190600
 3993         hx    186    ccc     H7   3993 0.07790000   1.008000   ; qtot 186.268500
 3994         hx    186    ccc     H8   3994 0.07790000   1.008000   ; qtot 186.346400
 3995         n4    186    ccc     N2   3995 -0.16780000  14.010000   ; qtot 186.178600
 3996         hn    186    ccc     H9   3996 0.27380000   1.008000   ; qtot 186.452400
 3997         hn    186    ccc    H10   3997 0.27380000   1.008000   ; qtot 186.726200
 3998         hn    186    ccc    H11   3998 0.27380000   1.008000   ; qtot 187.000000
; residue  187 ccc rtp ccc q 1.0
 3999          n    187    ccc     N1   3999 -0.26410000  14.010000   ; qtot 186.735900
 4000         hn    187    ccc     H4   4000 0.27630000   1.008000   ; qtot 187.012200
 4001         c3    187    ccc     C3   4001 -0.17900000  12.010000   ; qtot 186.833200
 4002         c3    187    ccc     C4   4002 0.08000000  12.010000   ; qtot 186.913200
 4003         h1    187    ccc     H5   4003 0.13870000   1.008000   ; qtot 187.051900
 4004         h1    187    ccc     H6   4004 0.13870000   1.008000   ; qtot 187.190600
 4005         hx    187    ccc     H7   4005 0.07790000   1.008000   ; qtot 187.268500
 4006         hx    187    ccc     H8   4006 0.07790000   1.008000   ; qtot 187.346400
 4007         n4    187    ccc     N2   4007 -0.16780000  14.010000   ; qtot 187.178600
 4008         hn    187    ccc     H9   4008 0.27380000   1.008000   ; qtot 187.452400
 4009         hn    187    ccc    H10   4009 0.27380000   1.008000   ; qtot 187.726200
 4010         hn    187    ccc    H11   4010 0.27380000   1.008000   ; qtot 188.000000
; residue  188 ccc rtp ccc q 1.0
 4011          n    188    ccc     N1   4011 -0.26410000  14.010000   ; qtot 187.735900
 4012         hn    188    ccc     H4   4012 0.27630000   1.008000   ; qtot 188.012200
 4013         c3    188    ccc     C3   4013 -0.17900000  12.010000   ; qtot 187.833200
 4014         c3    188    ccc     C4   4014 0.08000000  12.010000   ; qtot 187.913200
 4015         h1    188    ccc     H5   4015 0.13870000   1.008000   ; qtot 188.051900
 4016         h1    188    ccc     H6   4016 0.13870000   1.008000   ; qtot 188.190600
 4017         hx    188    ccc     H7   4017 0.07790000   1.008000   ; qtot 188.268500
 4018         hx    188    ccc     H8   4018 0.07790000   1.008000   ; qtot 188.346400
 4019         n4    188    ccc     N2   4019 -0.16780000  14.010000   ; qtot 188.178600
 4020         hn    188    ccc     H9   4020 0.27380000   1.008000   ; qtot 188.452400
 4021         hn    188    ccc    H10   4021 0.27380000   1.008000   ; qtot 188.726200
 4022         hn    188    ccc    H11   4022 0.27380000   1.008000   ; qtot 189.000000
; residue  189 ccc rtp ccc q 1.0
 4023          n    189    ccc     N1   4023 -0.26410000  14.010000   ; qtot 188.735900
 4024         hn    189    ccc     H4   4024 0.27630000   1.008000   ; qtot 189.012200
 4025         c3    189    ccc     C3   4025 -0.17900000  12.010000   ; qtot 188.833200
 4026         c3    189    ccc     C4   4026 0.08000000  12.010000   ; qtot 188.913200
 4027         h1    189    ccc     H5   4027 0.13870000   1.008000   ; qtot 189.051900
 4028         h1    189    ccc     H6   4028 0.13870000   1.008000   ; qtot 189.190600
 4029         hx    189    ccc     H7   4029 0.07790000   1.008000   ; qtot 189.268500
 4030         hx    189    ccc     H8   4030 0.07790000   1.008000   ; qtot 189.346400
 4031         n4    189    ccc     N2   4031 -0.16780000  14.010000   ; qtot 189.178600
 4032         hn    189    ccc     H9   4032 0.27380000   1.008000   ; qtot 189.452400
 4033         hn    189    ccc    H10   4033 0.27380000   1.008000   ; qtot 189.726200
 4034         hn    189    ccc    H11   4034 0.27380000   1.008000   ; qtot 190.000000
; residue  190 ccc rtp ccc q 1.0
 4035          n    190    ccc     N1   4035 -0.26410000  14.010000   ; qtot 189.735900
 4036         hn    190    ccc     H4   4036 0.27630000   1.008000   ; qtot 190.012200
 4037         c3    190    ccc     C3   4037 -0.17900000  12.010000   ; qtot 189.833200
 4038         c3    190    ccc     C4   4038 0.08000000  12.010000   ; qtot 189.913200
 4039         h1    190    ccc     H5   4039 0.13870000   1.008000   ; qtot 190.051900
 4040         h1    190    ccc     H6   4040 0.13870000   1.008000   ; qtot 190.190600
 4041         hx    190    ccc     H7   4041 0.07790000   1.008000   ; qtot 190.268500
 4042         hx    190    ccc     H8   4042 0.07790000   1.008000   ; qtot 190.346400
 4043         n4    190    ccc     N2   4043 -0.16780000  14.010000   ; qtot 190.178600
 4044         hn    190    ccc     H9   4044 0.27380000   1.008000   ; qtot 190.452400
 4045         hn    190    ccc    H10   4045 0.27380000   1.008000   ; qtot 190.726200
 4046         hn    190    ccc    H11   4046 0.27380000   1.008000   ; qtot 191.000000
; residue  191 ccc rtp ccc q 1.0
 4047          n    191    ccc     N1   4047 -0.26410000  14.010000   ; qtot 190.735900
 4048         hn    191    ccc     H4   4048 0.27630000   1.008000   ; qtot 191.012200
 4049         c3    191    ccc     C3   4049 -0.17900000  12.010000   ; qtot 190.833200
 4050         c3    191    ccc     C4   4050 0.08000000  12.010000   ; qtot 190.913200
 4051         h1    191    ccc     H5   4051 0.13870000   1.008000   ; qtot 191.051900
 4052         h1    191    ccc     H6   4052 0.13870000   1.008000   ; qtot 191.190600
 4053         hx    191    ccc     H7   4053 0.07790000   1.008000   ; qtot 191.268500
 4054         hx    191    ccc     H8   4054 0.07790000   1.008000   ; qtot 191.346400
 4055         n4    191    ccc     N2   4055 -0.16780000  14.010000   ; qtot 191.178600
 4056         hn    191    ccc     H9   4056 0.27380000   1.008000   ; qtot 191.452400
 4057         hn    191    ccc    H10   4057 0.27380000   1.008000   ; qtot 191.726200
 4058         hn    191    ccc    H11   4058 0.27380000   1.008000   ; qtot 192.000000
; residue  192 ccc rtp ccc q 1.0
 4059          n    192    ccc     N1   4059 -0.26410000  14.010000   ; qtot 191.735900
 4060         hn    192    ccc     H4   4060 0.27630000   1.008000   ; qtot 192.012200
 4061         c3    192    ccc     C3   4061 -0.17900000  12.010000   ; qtot 191.833200
 4062         c3    192    ccc     C4   4062 0.08000000  12.010000   ; qtot 191.913200
 4063         h1    192    ccc     H5   4063 0.13870000   1.008000   ; qtot 192.051900
 4064         h1    192    ccc     H6   4064 0.13870000   1.008000   ; qtot 192.190600
 4065         hx    192    ccc     H7   4065 0.07790000   1.008000   ; qtot 192.268500
 4066         hx    192    ccc     H8   4066 0.07790000   1.008000   ; qtot 192.346400
 4067         n4    192    ccc     N2   4067 -0.16780000  14.010000   ; qtot 192.178600
 4068         hn    192    ccc     H9   4068 0.27380000   1.008000   ; qtot 192.452400
 4069         hn    192    ccc    H10   4069 0.27380000   1.008000   ; qtot 192.726200
 4070         hn    192    ccc    H11   4070 0.27380000   1.008000   ; qtot 193.000000
; residue  193 ccc rtp ccc q 1.0
 4071          n    193    ccc     N1   4071 -0.26410000  14.010000   ; qtot 192.735900
 4072         hn    193    ccc     H4   4072 0.27630000   1.008000   ; qtot 193.012200
 4073         c3    193    ccc     C3   4073 -0.17900000  12.010000   ; qtot 192.833200
 4074         c3    193    ccc     C4   4074 0.08000000  12.010000   ; qtot 192.913200
 4075         h1    193    ccc     H5   4075 0.13870000   1.008000   ; qtot 193.051900
 4076         h1    193    ccc     H6   4076 0.13870000   1.008000   ; qtot 193.190600
 4077         hx    193    ccc     H7   4077 0.07790000   1.008000   ; qtot 193.268500
 4078         hx    193    ccc     H8   4078 0.07790000   1.008000   ; qtot 193.346400
 4079         n4    193    ccc     N2   4079 -0.16780000  14.010000   ; qtot 193.178600
 4080         hn    193    ccc     H9   4080 0.27380000   1.008000   ; qtot 193.452400
 4081         hn    193    ccc    H10   4081 0.27380000   1.008000   ; qtot 193.726200
 4082         hn    193    ccc    H11   4082 0.27380000   1.008000   ; qtot 194.000000
; residue  194 ccc rtp ccc q 1.0
 4083          n    194    ccc     N1   4083 -0.26410000  14.010000   ; qtot 193.735900
 4084         hn    194    ccc     H4   4084 0.27630000   1.008000   ; qtot 194.012200
 4085         c3    194    ccc     C3   4085 -0.17900000  12.010000   ; qtot 193.833200
 4086         c3    194    ccc     C4   4086 0.08000000  12.010000   ; qtot 193.913200
 4087         h1    194    ccc     H5   4087 0.13870000   1.008000   ; qtot 194.051900
 4088         h1    194    ccc     H6   4088 0.13870000   1.008000   ; qtot 194.190600
 4089         hx    194    ccc     H7   4089 0.07790000   1.008000   ; qtot 194.268500
 4090         hx    194    ccc     H8   4090 0.07790000   1.008000   ; qtot 194.346400
 4091         n4    194    ccc     N2   4091 -0.16780000  14.010000   ; qtot 194.178600
 4092         hn    194    ccc     H9   4092 0.27380000   1.008000   ; qtot 194.452400
 4093         hn    194    ccc    H10   4093 0.27380000   1.008000   ; qtot 194.726200
 4094         hn    194    ccc    H11   4094 0.27380000   1.008000   ; qtot 195.000000
; residue  195 ccc rtp ccc q 1.0
 4095          n    195    ccc     N1   4095 -0.26410000  14.010000   ; qtot 194.735900
 4096         hn    195    ccc     H4   4096 0.27630000   1.008000   ; qtot 195.012200
 4097         c3    195    ccc     C3   4097 -0.17900000  12.010000   ; qtot 194.833200
 4098         c3    195    ccc     C4   4098 0.08000000  12.010000   ; qtot 194.913200
 4099         h1    195    ccc     H5   4099 0.13870000   1.008000   ; qtot 195.051900
 4100         h1    195    ccc     H6   4100 0.13870000   1.008000   ; qtot 195.190600
 4101         hx    195    ccc     H7   4101 0.07790000   1.008000   ; qtot 195.268500
 4102         hx    195    ccc     H8   4102 0.07790000   1.008000   ; qtot 195.346400
 4103         n4    195    ccc     N2   4103 -0.16780000  14.010000   ; qtot 195.178600
 4104         hn    195    ccc     H9   4104 0.27380000   1.008000   ; qtot 195.452400
 4105         hn    195    ccc    H10   4105 0.27380000   1.008000   ; qtot 195.726200
 4106         hn    195    ccc    H11   4106 0.27380000   1.008000   ; qtot 196.000000
; residue  196 ccc rtp ccc q 1.0
 4107          n    196    ccc     N1   4107 -0.26410000  14.010000   ; qtot 195.735900
 4108         hn    196    ccc     H4   4108 0.27630000   1.008000   ; qtot 196.012200
 4109         c3    196    ccc     C3   4109 -0.17900000  12.010000   ; qtot 195.833200
 4110         c3    196    ccc     C4   4110 0.08000000  12.010000   ; qtot 195.913200
 4111         h1    196    ccc     H5   4111 0.13870000   1.008000   ; qtot 196.051900
 4112         h1    196    ccc     H6   4112 0.13870000   1.008000   ; qtot 196.190600
 4113         hx    196    ccc     H7   4113 0.07790000   1.008000   ; qtot 196.268500
 4114         hx    196    ccc     H8   4114 0.07790000   1.008000   ; qtot 196.346400
 4115         n4    196    ccc     N2   4115 -0.16780000  14.010000   ; qtot 196.178600
 4116         hn    196    ccc     H9   4116 0.27380000   1.008000   ; qtot 196.452400
 4117         hn    196    ccc    H10   4117 0.27380000   1.008000   ; qtot 196.726200
 4118         hn    196    ccc    H11   4118 0.27380000   1.008000   ; qtot 197.000000
; residue  197 ccc rtp ccc q 1.0
 4119          n    197    ccc     N1   4119 -0.26410000  14.010000   ; qtot 196.735900
 4120         hn    197    ccc     H4   4120 0.27630000   1.008000   ; qtot 197.012200
 4121         c3    197    ccc     C3   4121 -0.17900000  12.010000   ; qtot 196.833200
 4122         c3    197    ccc     C4   4122 0.08000000  12.010000   ; qtot 196.913200
 4123         h1    197    ccc     H5   4123 0.13870000   1.008000   ; qtot 197.051900
 4124         h1    197    ccc     H6   4124 0.13870000   1.008000   ; qtot 197.190600
 4125         hx    197    ccc     H7   4125 0.07790000   1.008000   ; qtot 197.268500
 4126         hx    197    ccc     H8   4126 0.07790000   1.008000   ; qtot 197.346400
 4127         n4    197    ccc     N2   4127 -0.16780000  14.010000   ; qtot 197.178600
 4128         hn    197    ccc     H9   4128 0.27380000   1.008000   ; qtot 197.452400
 4129         hn    197    ccc    H10   4129 0.27380000   1.008000   ; qtot 197.726200
 4130         hn    197    ccc    H11   4130 0.27380000   1.008000   ; qtot 198.000000
; residue  198 ccc rtp ccc q 1.0
 4131          n    198    ccc     N1   4131 -0.26410000  14.010000   ; qtot 197.735900
 4132         hn    198    ccc     H4   4132 0.27630000   1.008000   ; qtot 198.012200
 4133         c3    198    ccc     C3   4133 -0.17900000  12.010000   ; qtot 197.833200
 4134         c3    198    ccc     C4   4134 0.08000000  12.010000   ; qtot 197.913200
 4135         h1    198    ccc     H5   4135 0.13870000   1.008000   ; qtot 198.051900
 4136         h1    198    ccc     H6   4136 0.13870000   1.008000   ; qtot 198.190600
 4137         hx    198    ccc     H7   4137 0.07790000   1.008000   ; qtot 198.268500
 4138         hx    198    ccc     H8   4138 0.07790000   1.008000   ; qtot 198.346400
 4139         n4    198    ccc     N2   4139 -0.16780000  14.010000   ; qtot 198.178600
 4140         hn    198    ccc     H9   4140 0.27380000   1.008000   ; qtot 198.452400
 4141         hn    198    ccc    H10   4141 0.27380000   1.008000   ; qtot 198.726200
 4142         hn    198    ccc    H11   4142 0.27380000   1.008000   ; qtot 199.000000
; residue  199 ccc rtp ccc q 1.0
 4143          n    199    ccc     N1   4143 -0.26410000  14.010000   ; qtot 198.735900
 4144         hn    199    ccc     H4   4144 0.27630000   1.008000   ; qtot 199.012200
 4145         c3    199    ccc     C3   4145 -0.17900000  12.010000   ; qtot 198.833200
 4146         c3    199    ccc     C4   4146 0.08000000  12.010000   ; qtot 198.913200
 4147         h1    199    ccc     H5   4147 0.13870000   1.008000   ; qtot 199.051900
 4148         h1    199    ccc     H6   4148 0.13870000   1.008000   ; qtot 199.190600
 4149         hx    199    ccc     H7   4149 0.07790000   1.008000   ; qtot 199.268500
 4150         hx    199    ccc     H8   4150 0.07790000   1.008000   ; qtot 199.346400
 4151         n4    199    ccc     N2   4151 -0.16780000  14.010000   ; qtot 199.178600
 4152         hn    199    ccc     H9   4152 0.27380000   1.008000   ; qtot 199.452400
 4153         hn    199    ccc    H10   4153 0.27380000   1.008000   ; qtot 199.726200
 4154         hn    199    ccc    H11   4154 0.27380000   1.008000   ; qtot 200.000000
; residue  200 ccc rtp ccc q 1.0
 4155          n    200    ccc     N1   4155 -0.26410000  14.010000   ; qtot 199.735900
 4156         hn    200    ccc     H4   4156 0.27630000   1.008000   ; qtot 200.012200
 4157         c3    200    ccc     C3   4157 -0.17900000  12.010000   ; qtot 199.833200
 4158         c3    200    ccc     C4   4158 0.08000000  12.010000   ; qtot 199.913200
 4159         h1    200    ccc     H5   4159 0.13870000   1.008000   ; qtot 200.051900
 4160         h1    200    ccc     H6   4160 0.13870000   1.008000   ; qtot 200.190600
 4161         hx    200    ccc     H7   4161 0.07790000   1.008000   ; qtot 200.268500
 4162         hx    200    ccc     H8   4162 0.07790000   1.008000   ; qtot 200.346400
 4163         n4    200    ccc     N2   4163 -0.16780000  14.010000   ; qtot 200.178600
 4164         hn    200    ccc     H9   4164 0.27380000   1.008000   ; qtot 200.452400
 4165         hn    200    ccc    H10   4165 0.27380000   1.008000   ; qtot 200.726200
 4166         hn    200    ccc    H11   4166 0.27380000   1.008000   ; qtot 201.000000
; residue  201 ccc rtp ccc q 1.0
 4167          n    201    ccc     N1   4167 -0.26410000  14.010000   ; qtot 200.735900
 4168         hn    201    ccc     H4   4168 0.27630000   1.008000   ; qtot 201.012200
 4169         c3    201    ccc     C3   4169 -0.17900000  12.010000   ; qtot 200.833200
 4170         c3    201    ccc     C4   4170 0.08000000  12.010000   ; qtot 200.913200
 4171         h1    201    ccc     H5   4171 0.13870000   1.008000   ; qtot 201.051900
 4172         h1    201    ccc     H6   4172 0.13870000   1.008000   ; qtot 201.190600
 4173         hx    201    ccc     H7   4173 0.07790000   1.008000   ; qtot 201.268500
 4174         hx    201    ccc     H8   4174 0.07790000   1.008000   ; qtot 201.346400
 4175         n4    201    ccc     N2   4175 -0.16780000  14.010000   ; qtot 201.178600
 4176         hn    201    ccc     H9   4176 0.27380000   1.008000   ; qtot 201.452400
 4177         hn    201    ccc    H10   4177 0.27380000   1.008000   ; qtot 201.726200
 4178         hn    201    ccc    H11   4178 0.27380000   1.008000   ; qtot 202.000000
; residue  202 ccc rtp ccc q 1.0
 4179          n    202    ccc     N1   4179 -0.26410000  14.010000   ; qtot 201.735900
 4180         hn    202    ccc     H4   4180 0.27630000   1.008000   ; qtot 202.012200
 4181         c3    202    ccc     C3   4181 -0.17900000  12.010000   ; qtot 201.833200
 4182         c3    202    ccc     C4   4182 0.08000000  12.010000   ; qtot 201.913200
 4183         h1    202    ccc     H5   4183 0.13870000   1.008000   ; qtot 202.051900
 4184         h1    202    ccc     H6   4184 0.13870000   1.008000   ; qtot 202.190600
 4185         hx    202    ccc     H7   4185 0.07790000   1.008000   ; qtot 202.268500
 4186         hx    202    ccc     H8   4186 0.07790000   1.008000   ; qtot 202.346400
 4187         n4    202    ccc     N2   4187 -0.16780000  14.010000   ; qtot 202.178600
 4188         hn    202    ccc     H9   4188 0.27380000   1.008000   ; qtot 202.452400
 4189         hn    202    ccc    H10   4189 0.27380000   1.008000   ; qtot 202.726200
 4190         hn    202    ccc    H11   4190 0.27380000   1.008000   ; qtot 203.000000
; residue  203 ccc rtp ccc q 1.0
 4191          n    203    ccc     N1   4191 -0.26410000  14.010000   ; qtot 202.735900
 4192         hn    203    ccc     H4   4192 0.27630000   1.008000   ; qtot 203.012200
 4193         c3    203    ccc     C3   4193 -0.17900000  12.010000   ; qtot 202.833200
 4194         c3    203    ccc     C4   4194 0.08000000  12.010000   ; qtot 202.913200
 4195         h1    203    ccc     H5   4195 0.13870000   1.008000   ; qtot 203.051900
 4196         h1    203    ccc     H6   4196 0.13870000   1.008000   ; qtot 203.190600
 4197         hx    203    ccc     H7   4197 0.07790000   1.008000   ; qtot 203.268500
 4198         hx    203    ccc     H8   4198 0.07790000   1.008000   ; qtot 203.346400
 4199         n4    203    ccc     N2   4199 -0.16780000  14.010000   ; qtot 203.178600
 4200         hn    203    ccc     H9   4200 0.27380000   1.008000   ; qtot 203.452400
 4201         hn    203    ccc    H10   4201 0.27380000   1.008000   ; qtot 203.726200
 4202         hn    203    ccc    H11   4202 0.27380000   1.008000   ; qtot 204.000000
; residue  204 ccc rtp ccc q 1.0
 4203          n    204    ccc     N1   4203 -0.26410000  14.010000   ; qtot 203.735900
 4204         hn    204    ccc     H4   4204 0.27630000   1.008000   ; qtot 204.012200
 4205         c3    204    ccc     C3   4205 -0.17900000  12.010000   ; qtot 203.833200
 4206         c3    204    ccc     C4   4206 0.08000000  12.010000   ; qtot 203.913200
 4207         h1    204    ccc     H5   4207 0.13870000   1.008000   ; qtot 204.051900
 4208         h1    204    ccc     H6   4208 0.13870000   1.008000   ; qtot 204.190600
 4209         hx    204    ccc     H7   4209 0.07790000   1.008000   ; qtot 204.268500
 4210         hx    204    ccc     H8   4210 0.07790000   1.008000   ; qtot 204.346400
 4211         n4    204    ccc     N2   4211 -0.16780000  14.010000   ; qtot 204.178600
 4212         hn    204    ccc     H9   4212 0.27380000   1.008000   ; qtot 204.452400
 4213         hn    204    ccc    H10   4213 0.27380000   1.008000   ; qtot 204.726200
 4214         hn    204    ccc    H11   4214 0.27380000   1.008000   ; qtot 205.000000
; residue  205 ccc rtp ccc q 1.0
 4215          n    205    ccc     N1   4215 -0.26410000  14.010000   ; qtot 204.735900
 4216         hn    205    ccc     H4   4216 0.27630000   1.008000   ; qtot 205.012200
 4217         c3    205    ccc     C3   4217 -0.17900000  12.010000   ; qtot 204.833200
 4218         c3    205    ccc     C4   4218 0.08000000  12.010000   ; qtot 204.913200
 4219         h1    205    ccc     H5   4219 0.13870000   1.008000   ; qtot 205.051900
 4220         h1    205    ccc     H6   4220 0.13870000   1.008000   ; qtot 205.190600
 4221         hx    205    ccc     H7   4221 0.07790000   1.008000   ; qtot 205.268500
 4222         hx    205    ccc     H8   4222 0.07790000   1.008000   ; qtot 205.346400
 4223         n4    205    ccc     N2   4223 -0.16780000  14.010000   ; qtot 205.178600
 4224         hn    205    ccc     H9   4224 0.27380000   1.008000   ; qtot 205.452400
 4225         hn    205    ccc    H10   4225 0.27380000   1.008000   ; qtot 205.726200
 4226         hn    205    ccc    H11   4226 0.27380000   1.008000   ; qtot 206.000000
; residue  206 ccc rtp ccc q 1.0
 4227          n    206    ccc     N1   4227 -0.26410000  14.010000   ; qtot 205.735900
 4228         hn    206    ccc     H4   4228 0.27630000   1.008000   ; qtot 206.012200
 4229         c3    206    ccc     C3   4229 -0.17900000  12.010000   ; qtot 205.833200
 4230         c3    206    ccc     C4   4230 0.08000000  12.010000   ; qtot 205.913200
 4231         h1    206    ccc     H5   4231 0.13870000   1.008000   ; qtot 206.051900
 4232         h1    206    ccc     H6   4232 0.13870000   1.008000   ; qtot 206.190600
 4233         hx    206    ccc     H7   4233 0.07790000   1.008000   ; qtot 206.268500
 4234         hx    206    ccc     H8   4234 0.07790000   1.008000   ; qtot 206.346400
 4235         n4    206    ccc     N2   4235 -0.16780000  14.010000   ; qtot 206.178600
 4236         hn    206    ccc     H9   4236 0.27380000   1.008000   ; qtot 206.452400
 4237         hn    206    ccc    H10   4237 0.27380000   1.008000   ; qtot 206.726200
 4238         hn    206    ccc    H11   4238 0.27380000   1.008000   ; qtot 207.000000
; residue  207 ccc rtp ccc q 1.0
 4239          n    207    ccc     N1   4239 -0.26410000  14.010000   ; qtot 206.735900
 4240         hn    207    ccc     H4   4240 0.27630000   1.008000   ; qtot 207.012200
 4241         c3    207    ccc     C3   4241 -0.17900000  12.010000   ; qtot 206.833200
 4242         c3    207    ccc     C4   4242 0.08000000  12.010000   ; qtot 206.913200
 4243         h1    207    ccc     H5   4243 0.13870000   1.008000   ; qtot 207.051900
 4244         h1    207    ccc     H6   4244 0.13870000   1.008000   ; qtot 207.190600
 4245         hx    207    ccc     H7   4245 0.07790000   1.008000   ; qtot 207.268500
 4246         hx    207    ccc     H8   4246 0.07790000   1.008000   ; qtot 207.346400
 4247         n4    207    ccc     N2   4247 -0.16780000  14.010000   ; qtot 207.178600
 4248         hn    207    ccc     H9   4248 0.27380000   1.008000   ; qtot 207.452400
 4249         hn    207    ccc    H10   4249 0.27380000   1.008000   ; qtot 207.726200
 4250         hn    207    ccc    H11   4250 0.27380000   1.008000   ; qtot 208.000000
; residue  208 ccc rtp ccc q 1.0
 4251          n    208    ccc     N1   4251 -0.26410000  14.010000   ; qtot 207.735900
 4252         hn    208    ccc     H4   4252 0.27630000   1.008000   ; qtot 208.012200
 4253         c3    208    ccc     C3   4253 -0.17900000  12.010000   ; qtot 207.833200
 4254         c3    208    ccc     C4   4254 0.08000000  12.010000   ; qtot 207.913200
 4255         h1    208    ccc     H5   4255 0.13870000   1.008000   ; qtot 208.051900
 4256         h1    208    ccc     H6   4256 0.13870000   1.008000   ; qtot 208.190600
 4257         hx    208    ccc     H7   4257 0.07790000   1.008000   ; qtot 208.268500
 4258         hx    208    ccc     H8   4258 0.07790000   1.008000   ; qtot 208.346400
 4259         n4    208    ccc     N2   4259 -0.16780000  14.010000   ; qtot 208.178600
 4260         hn    208    ccc     H9   4260 0.27380000   1.008000   ; qtot 208.452400
 4261         hn    208    ccc    H10   4261 0.27380000   1.008000   ; qtot 208.726200
 4262         hn    208    ccc    H11   4262 0.27380000   1.008000   ; qtot 209.000000
; residue  209 ccc rtp ccc q 1.0
 4263          n    209    ccc     N1   4263 -0.26410000  14.010000   ; qtot 208.735900
 4264         hn    209    ccc     H4   4264 0.27630000   1.008000   ; qtot 209.012200
 4265         c3    209    ccc     C3   4265 -0.17900000  12.010000   ; qtot 208.833200
 4266         c3    209    ccc     C4   4266 0.08000000  12.010000   ; qtot 208.913200
 4267         h1    209    ccc     H5   4267 0.13870000   1.008000   ; qtot 209.051900
 4268         h1    209    ccc     H6   4268 0.13870000   1.008000   ; qtot 209.190600
 4269         hx    209    ccc     H7   4269 0.07790000   1.008000   ; qtot 209.268500
 4270         hx    209    ccc     H8   4270 0.07790000   1.008000   ; qtot 209.346400
 4271         n4    209    ccc     N2   4271 -0.16780000  14.010000   ; qtot 209.178600
 4272         hn    209    ccc     H9   4272 0.27380000   1.008000   ; qtot 209.452400
 4273         hn    209    ccc    H10   4273 0.27380000   1.008000   ; qtot 209.726200
 4274         hn    209    ccc    H11   4274 0.27380000   1.008000   ; qtot 210.000000
; residue  210 ccc rtp ccc q 1.0
 4275          n    210    ccc     N1   4275 -0.26410000  14.010000   ; qtot 209.735900
 4276         hn    210    ccc     H4   4276 0.27630000   1.008000   ; qtot 210.012200
 4277         c3    210    ccc     C3   4277 -0.17900000  12.010000   ; qtot 209.833200
 4278         c3    210    ccc     C4   4278 0.08000000  12.010000   ; qtot 209.913200
 4279         h1    210    ccc     H5   4279 0.13870000   1.008000   ; qtot 210.051900
 4280         h1    210    ccc     H6   4280 0.13870000   1.008000   ; qtot 210.190600
 4281         hx    210    ccc     H7   4281 0.07790000   1.008000   ; qtot 210.268500
 4282         hx    210    ccc     H8   4282 0.07790000   1.008000   ; qtot 210.346400
 4283         n4    210    ccc     N2   4283 -0.16780000  14.010000   ; qtot 210.178600
 4284         hn    210    ccc     H9   4284 0.27380000   1.008000   ; qtot 210.452400
 4285         hn    210    ccc    H10   4285 0.27380000   1.008000   ; qtot 210.726200
 4286         hn    210    ccc    H11   4286 0.27380000   1.008000   ; qtot 211.000000
; residue  211 ccc rtp ccc q 1.0
 4287          n    211    ccc     N1   4287 -0.26410000  14.010000   ; qtot 210.735900
 4288         hn    211    ccc     H4   4288 0.27630000   1.008000   ; qtot 211.012200
 4289         c3    211    ccc     C3   4289 -0.17900000  12.010000   ; qtot 210.833200
 4290         c3    211    ccc     C4   4290 0.08000000  12.010000   ; qtot 210.913200
 4291         h1    211    ccc     H5   4291 0.13870000   1.008000   ; qtot 211.051900
 4292         h1    211    ccc     H6   4292 0.13870000   1.008000   ; qtot 211.190600
 4293         hx    211    ccc     H7   4293 0.07790000   1.008000   ; qtot 211.268500
 4294         hx    211    ccc     H8   4294 0.07790000   1.008000   ; qtot 211.346400
 4295         n4    211    ccc     N2   4295 -0.16780000  14.010000   ; qtot 211.178600
 4296         hn    211    ccc     H9   4296 0.27380000   1.008000   ; qtot 211.452400
 4297         hn    211    ccc    H10   4297 0.27380000   1.008000   ; qtot 211.726200
 4298         hn    211    ccc    H11   4298 0.27380000   1.008000   ; qtot 212.000000
; residue  212 ccc rtp ccc q 1.0
 4299          n    212    ccc     N1   4299 -0.26410000  14.010000   ; qtot 211.735900
 4300         hn    212    ccc     H4   4300 0.27630000   1.008000   ; qtot 212.012200
 4301         c3    212    ccc     C3   4301 -0.17900000  12.010000   ; qtot 211.833200
 4302         c3    212    ccc     C4   4302 0.08000000  12.010000   ; qtot 211.913200
 4303         h1    212    ccc     H5   4303 0.13870000   1.008000   ; qtot 212.051900
 4304         h1    212    ccc     H6   4304 0.13870000   1.008000   ; qtot 212.190600
 4305         hx    212    ccc     H7   4305 0.07790000   1.008000   ; qtot 212.268500
 4306         hx    212    ccc     H8   4306 0.07790000   1.008000   ; qtot 212.346400
 4307         n4    212    ccc     N2   4307 -0.16780000  14.010000   ; qtot 212.178600
 4308         hn    212    ccc     H9   4308 0.27380000   1.008000   ; qtot 212.452400
 4309         hn    212    ccc    H10   4309 0.27380000   1.008000   ; qtot 212.726200
 4310         hn    212    ccc    H11   4310 0.27380000   1.008000   ; qtot 213.000000
; residue  213 ccc rtp ccc q 1.0
 4311          n    213    ccc     N1   4311 -0.26410000  14.010000   ; qtot 212.735900
 4312         hn    213    ccc     H4   4312 0.27630000   1.008000   ; qtot 213.012200
 4313         c3    213    ccc     C3   4313 -0.17900000  12.010000   ; qtot 212.833200
 4314         c3    213    ccc     C4   4314 0.08000000  12.010000   ; qtot 212.913200
 4315         h1    213    ccc     H5   4315 0.13870000   1.008000   ; qtot 213.051900
 4316         h1    213    ccc     H6   4316 0.13870000   1.008000   ; qtot 213.190600
 4317         hx    213    ccc     H7   4317 0.07790000   1.008000   ; qtot 213.268500
 4318         hx    213    ccc     H8   4318 0.07790000   1.008000   ; qtot 213.346400
 4319         n4    213    ccc     N2   4319 -0.16780000  14.010000   ; qtot 213.178600
 4320         hn    213    ccc     H9   4320 0.27380000   1.008000   ; qtot 213.452400
 4321         hn    213    ccc    H10   4321 0.27380000   1.008000   ; qtot 213.726200
 4322         hn    213    ccc    H11   4322 0.27380000   1.008000   ; qtot 214.000000
; residue  214 ccc rtp ccc q 1.0
 4323          n    214    ccc     N1   4323 -0.26410000  14.010000   ; qtot 213.735900
 4324         hn    214    ccc     H4   4324 0.27630000   1.008000   ; qtot 214.012200
 4325         c3    214    ccc     C3   4325 -0.17900000  12.010000   ; qtot 213.833200
 4326         c3    214    ccc     C4   4326 0.08000000  12.010000   ; qtot 213.913200
 4327         h1    214    ccc     H5   4327 0.13870000   1.008000   ; qtot 214.051900
 4328         h1    214    ccc     H6   4328 0.13870000   1.008000   ; qtot 214.190600
 4329         hx    214    ccc     H7   4329 0.07790000   1.008000   ; qtot 214.268500
 4330         hx    214    ccc     H8   4330 0.07790000   1.008000   ; qtot 214.346400
 4331         n4    214    ccc     N2   4331 -0.16780000  14.010000   ; qtot 214.178600
 4332         hn    214    ccc     H9   4332 0.27380000   1.008000   ; qtot 214.452400
 4333         hn    214    ccc    H10   4333 0.27380000   1.008000   ; qtot 214.726200
 4334         hn    214    ccc    H11   4334 0.27380000   1.008000   ; qtot 215.000000
; residue  215 ccc rtp ccc q 1.0
 4335          n    215    ccc     N1   4335 -0.26410000  14.010000   ; qtot 214.735900
 4336         hn    215    ccc     H4   4336 0.27630000   1.008000   ; qtot 215.012200
 4337         c3    215    ccc     C3   4337 -0.17900000  12.010000   ; qtot 214.833200
 4338         c3    215    ccc     C4   4338 0.08000000  12.010000   ; qtot 214.913200
 4339         h1    215    ccc     H5   4339 0.13870000   1.008000   ; qtot 215.051900
 4340         h1    215    ccc     H6   4340 0.13870000   1.008000   ; qtot 215.190600
 4341         hx    215    ccc     H7   4341 0.07790000   1.008000   ; qtot 215.268500
 4342         hx    215    ccc     H8   4342 0.07790000   1.008000   ; qtot 215.346400
 4343         n4    215    ccc     N2   4343 -0.16780000  14.010000   ; qtot 215.178600
 4344         hn    215    ccc     H9   4344 0.27380000   1.008000   ; qtot 215.452400
 4345         hn    215    ccc    H10   4345 0.27380000   1.008000   ; qtot 215.726200
 4346         hn    215    ccc    H11   4346 0.27380000   1.008000   ; qtot 216.000000
; residue  216 ccc rtp ccc q 1.0
 4347          n    216    ccc     N1   4347 -0.26410000  14.010000   ; qtot 215.735900
 4348         hn    216    ccc     H4   4348 0.27630000   1.008000   ; qtot 216.012200
 4349         c3    216    ccc     C3   4349 -0.17900000  12.010000   ; qtot 215.833200
 4350         c3    216    ccc     C4   4350 0.08000000  12.010000   ; qtot 215.913200
 4351         h1    216    ccc     H5   4351 0.13870000   1.008000   ; qtot 216.051900
 4352         h1    216    ccc     H6   4352 0.13870000   1.008000   ; qtot 216.190600
 4353         hx    216    ccc     H7   4353 0.07790000   1.008000   ; qtot 216.268500
 4354         hx    216    ccc     H8   4354 0.07790000   1.008000   ; qtot 216.346400
 4355         n4    216    ccc     N2   4355 -0.16780000  14.010000   ; qtot 216.178600
 4356         hn    216    ccc     H9   4356 0.27380000   1.008000   ; qtot 216.452400
 4357         hn    216    ccc    H10   4357 0.27380000   1.008000   ; qtot 216.726200
 4358         hn    216    ccc    H11   4358 0.27380000   1.008000   ; qtot 217.000000
; residue  217 ccc rtp ccc q 1.0
 4359          n    217    ccc     N1   4359 -0.26410000  14.010000   ; qtot 216.735900
 4360         hn    217    ccc     H4   4360 0.27630000   1.008000   ; qtot 217.012200
 4361         c3    217    ccc     C3   4361 -0.17900000  12.010000   ; qtot 216.833200
 4362         c3    217    ccc     C4   4362 0.08000000  12.010000   ; qtot 216.913200
 4363         h1    217    ccc     H5   4363 0.13870000   1.008000   ; qtot 217.051900
 4364         h1    217    ccc     H6   4364 0.13870000   1.008000   ; qtot 217.190600
 4365         hx    217    ccc     H7   4365 0.07790000   1.008000   ; qtot 217.268500
 4366         hx    217    ccc     H8   4366 0.07790000   1.008000   ; qtot 217.346400
 4367         n4    217    ccc     N2   4367 -0.16780000  14.010000   ; qtot 217.178600
 4368         hn    217    ccc     H9   4368 0.27380000   1.008000   ; qtot 217.452400
 4369         hn    217    ccc    H10   4369 0.27380000   1.008000   ; qtot 217.726200
 4370         hn    217    ccc    H11   4370 0.27380000   1.008000   ; qtot 218.000000
; residue  218 ccc rtp ccc q 1.0
 4371          n    218    ccc     N1   4371 -0.26410000  14.010000   ; qtot 217.735900
 4372         hn    218    ccc     H4   4372 0.27630000   1.008000   ; qtot 218.012200
 4373         c3    218    ccc     C3   4373 -0.17900000  12.010000   ; qtot 217.833200
 4374         c3    218    ccc     C4   4374 0.08000000  12.010000   ; qtot 217.913200
 4375         h1    218    ccc     H5   4375 0.13870000   1.008000   ; qtot 218.051900
 4376         h1    218    ccc     H6   4376 0.13870000   1.008000   ; qtot 218.190600
 4377         hx    218    ccc     H7   4377 0.07790000   1.008000   ; qtot 218.268500
 4378         hx    218    ccc     H8   4378 0.07790000   1.008000   ; qtot 218.346400
 4379         n4    218    ccc     N2   4379 -0.16780000  14.010000   ; qtot 218.178600
 4380         hn    218    ccc     H9   4380 0.27380000   1.008000   ; qtot 218.452400
 4381         hn    218    ccc    H10   4381 0.27380000   1.008000   ; qtot 218.726200
 4382         hn    218    ccc    H11   4382 0.27380000   1.008000   ; qtot 219.000000
; residue  219 ccc rtp ccc q 1.0
 4383          n    219    ccc     N1   4383 -0.26410000  14.010000   ; qtot 218.735900
 4384         hn    219    ccc     H4   4384 0.27630000   1.008000   ; qtot 219.012200
 4385         c3    219    ccc     C3   4385 -0.17900000  12.010000   ; qtot 218.833200
 4386         c3    219    ccc     C4   4386 0.08000000  12.010000   ; qtot 218.913200
 4387         h1    219    ccc     H5   4387 0.13870000   1.008000   ; qtot 219.051900
 4388         h1    219    ccc     H6   4388 0.13870000   1.008000   ; qtot 219.190600
 4389         hx    219    ccc     H7   4389 0.07790000   1.008000   ; qtot 219.268500
 4390         hx    219    ccc     H8   4390 0.07790000   1.008000   ; qtot 219.346400
 4391         n4    219    ccc     N2   4391 -0.16780000  14.010000   ; qtot 219.178600
 4392         hn    219    ccc     H9   4392 0.27380000   1.008000   ; qtot 219.452400
 4393         hn    219    ccc    H10   4393 0.27380000   1.008000   ; qtot 219.726200
 4394         hn    219    ccc    H11   4394 0.27380000   1.008000   ; qtot 220.000000
; residue  220 ccc rtp ccc q 1.0
 4395          n    220    ccc     N1   4395 -0.26410000  14.010000   ; qtot 219.735900
 4396         hn    220    ccc     H4   4396 0.27630000   1.008000   ; qtot 220.012200
 4397         c3    220    ccc     C3   4397 -0.17900000  12.010000   ; qtot 219.833200
 4398         c3    220    ccc     C4   4398 0.08000000  12.010000   ; qtot 219.913200
 4399         h1    220    ccc     H5   4399 0.13870000   1.008000   ; qtot 220.051900
 4400         h1    220    ccc     H6   4400 0.13870000   1.008000   ; qtot 220.190600
 4401         hx    220    ccc     H7   4401 0.07790000   1.008000   ; qtot 220.268500
 4402         hx    220    ccc     H8   4402 0.07790000   1.008000   ; qtot 220.346400
 4403         n4    220    ccc     N2   4403 -0.16780000  14.010000   ; qtot 220.178600
 4404         hn    220    ccc     H9   4404 0.27380000   1.008000   ; qtot 220.452400
 4405         hn    220    ccc    H10   4405 0.27380000   1.008000   ; qtot 220.726200
 4406         hn    220    ccc    H11   4406 0.27380000   1.008000   ; qtot 221.000000
; residue  221 ccc rtp ccc q 1.0
 4407          n    221    ccc     N1   4407 -0.26410000  14.010000   ; qtot 220.735900
 4408         hn    221    ccc     H4   4408 0.27630000   1.008000   ; qtot 221.012200
 4409         c3    221    ccc     C3   4409 -0.17900000  12.010000   ; qtot 220.833200
 4410         c3    221    ccc     C4   4410 0.08000000  12.010000   ; qtot 220.913200
 4411         h1    221    ccc     H5   4411 0.13870000   1.008000   ; qtot 221.051900
 4412         h1    221    ccc     H6   4412 0.13870000   1.008000   ; qtot 221.190600
 4413         hx    221    ccc     H7   4413 0.07790000   1.008000   ; qtot 221.268500
 4414         hx    221    ccc     H8   4414 0.07790000   1.008000   ; qtot 221.346400
 4415         n4    221    ccc     N2   4415 -0.16780000  14.010000   ; qtot 221.178600
 4416         hn    221    ccc     H9   4416 0.27380000   1.008000   ; qtot 221.452400
 4417         hn    221    ccc    H10   4417 0.27380000   1.008000   ; qtot 221.726200
 4418         hn    221    ccc    H11   4418 0.27380000   1.008000   ; qtot 222.000000
; residue  222 ccc rtp ccc q 1.0
 4419          n    222    ccc     N1   4419 -0.26410000  14.010000   ; qtot 221.735900
 4420         hn    222    ccc     H4   4420 0.27630000   1.008000   ; qtot 222.012200
 4421         c3    222    ccc     C3   4421 -0.17900000  12.010000   ; qtot 221.833200
 4422         c3    222    ccc     C4   4422 0.08000000  12.010000   ; qtot 221.913200
 4423         h1    222    ccc     H5   4423 0.13870000   1.008000   ; qtot 222.051900
 4424         h1    222    ccc     H6   4424 0.13870000   1.008000   ; qtot 222.190600
 4425         hx    222    ccc     H7   4425 0.07790000   1.008000   ; qtot 222.268500
 4426         hx    222    ccc     H8   4426 0.07790000   1.008000   ; qtot 222.346400
 4427         n4    222    ccc     N2   4427 -0.16780000  14.010000   ; qtot 222.178600
 4428         hn    222    ccc     H9   4428 0.27380000   1.008000   ; qtot 222.452400
 4429         hn    222    ccc    H10   4429 0.27380000   1.008000   ; qtot 222.726200
 4430         hn    222    ccc    H11   4430 0.27380000   1.008000   ; qtot 223.000000
; residue  223 ccc rtp ccc q 1.0
 4431          n    223    ccc     N1   4431 -0.26410000  14.010000   ; qtot 222.735900
 4432         hn    223    ccc     H4   4432 0.27630000   1.008000   ; qtot 223.012200
 4433         c3    223    ccc     C3   4433 -0.17900000  12.010000   ; qtot 222.833200
 4434         c3    223    ccc     C4   4434 0.08000000  12.010000   ; qtot 222.913200
 4435         h1    223    ccc     H5   4435 0.13870000   1.008000   ; qtot 223.051900
 4436         h1    223    ccc     H6   4436 0.13870000   1.008000   ; qtot 223.190600
 4437         hx    223    ccc     H7   4437 0.07790000   1.008000   ; qtot 223.268500
 4438         hx    223    ccc     H8   4438 0.07790000   1.008000   ; qtot 223.346400
 4439         n4    223    ccc     N2   4439 -0.16780000  14.010000   ; qtot 223.178600
 4440         hn    223    ccc     H9   4440 0.27380000   1.008000   ; qtot 223.452400
 4441         hn    223    ccc    H10   4441 0.27380000   1.008000   ; qtot 223.726200
 4442         hn    223    ccc    H11   4442 0.27380000   1.008000   ; qtot 224.000000
; residue  224 ccc rtp ccc q 1.0
 4443          n    224    ccc     N1   4443 -0.26410000  14.010000   ; qtot 223.735900
 4444         hn    224    ccc     H4   4444 0.27630000   1.008000   ; qtot 224.012200
 4445         c3    224    ccc     C3   4445 -0.17900000  12.010000   ; qtot 223.833200
 4446         c3    224    ccc     C4   4446 0.08000000  12.010000   ; qtot 223.913200
 4447         h1    224    ccc     H5   4447 0.13870000   1.008000   ; qtot 224.051900
 4448         h1    224    ccc     H6   4448 0.13870000   1.008000   ; qtot 224.190600
 4449         hx    224    ccc     H7   4449 0.07790000   1.008000   ; qtot 224.268500
 4450         hx    224    ccc     H8   4450 0.07790000   1.008000   ; qtot 224.346400
 4451         n4    224    ccc     N2   4451 -0.16780000  14.010000   ; qtot 224.178600
 4452         hn    224    ccc     H9   4452 0.27380000   1.008000   ; qtot 224.452400
 4453         hn    224    ccc    H10   4453 0.27380000   1.008000   ; qtot 224.726200
 4454         hn    224    ccc    H11   4454 0.27380000   1.008000   ; qtot 225.000000
; residue  225 ccc rtp ccc q 1.0
 4455          n    225    ccc     N1   4455 -0.26410000  14.010000   ; qtot 224.735900
 4456         hn    225    ccc     H4   4456 0.27630000   1.008000   ; qtot 225.012200
 4457         c3    225    ccc     C3   4457 -0.17900000  12.010000   ; qtot 224.833200
 4458         c3    225    ccc     C4   4458 0.08000000  12.010000   ; qtot 224.913200
 4459         h1    225    ccc     H5   4459 0.13870000   1.008000   ; qtot 225.051900
 4460         h1    225    ccc     H6   4460 0.13870000   1.008000   ; qtot 225.190600
 4461         hx    225    ccc     H7   4461 0.07790000   1.008000   ; qtot 225.268500
 4462         hx    225    ccc     H8   4462 0.07790000   1.008000   ; qtot 225.346400
 4463         n4    225    ccc     N2   4463 -0.16780000  14.010000   ; qtot 225.178600
 4464         hn    225    ccc     H9   4464 0.27380000   1.008000   ; qtot 225.452400
 4465         hn    225    ccc    H10   4465 0.27380000   1.008000   ; qtot 225.726200
 4466         hn    225    ccc    H11   4466 0.27380000   1.008000   ; qtot 226.000000
; residue  226 ccc rtp ccc q 1.0
 4467          n    226    ccc     N1   4467 -0.26410000  14.010000   ; qtot 225.735900
 4468         hn    226    ccc     H4   4468 0.27630000   1.008000   ; qtot 226.012200
 4469         c3    226    ccc     C3   4469 -0.17900000  12.010000   ; qtot 225.833200
 4470         c3    226    ccc     C4   4470 0.08000000  12.010000   ; qtot 225.913200
 4471         h1    226    ccc     H5   4471 0.13870000   1.008000   ; qtot 226.051900
 4472         h1    226    ccc     H6   4472 0.13870000   1.008000   ; qtot 226.190600
 4473         hx    226    ccc     H7   4473 0.07790000   1.008000   ; qtot 226.268500
 4474         hx    226    ccc     H8   4474 0.07790000   1.008000   ; qtot 226.346400
 4475         n4    226    ccc     N2   4475 -0.16780000  14.010000   ; qtot 226.178600
 4476         hn    226    ccc     H9   4476 0.27380000   1.008000   ; qtot 226.452400
 4477         hn    226    ccc    H10   4477 0.27380000   1.008000   ; qtot 226.726200
 4478         hn    226    ccc    H11   4478 0.27380000   1.008000   ; qtot 227.000000
; residue  227 ccc rtp ccc q 1.0
 4479          n    227    ccc     N1   4479 -0.26410000  14.010000   ; qtot 226.735900
 4480         hn    227    ccc     H4   4480 0.27630000   1.008000   ; qtot 227.012200
 4481         c3    227    ccc     C3   4481 -0.17900000  12.010000   ; qtot 226.833200
 4482         c3    227    ccc     C4   4482 0.08000000  12.010000   ; qtot 226.913200
 4483         h1    227    ccc     H5   4483 0.13870000   1.008000   ; qtot 227.051900
 4484         h1    227    ccc     H6   4484 0.13870000   1.008000   ; qtot 227.190600
 4485         hx    227    ccc     H7   4485 0.07790000   1.008000   ; qtot 227.268500
 4486         hx    227    ccc     H8   4486 0.07790000   1.008000   ; qtot 227.346400
 4487         n4    227    ccc     N2   4487 -0.16780000  14.010000   ; qtot 227.178600
 4488         hn    227    ccc     H9   4488 0.27380000   1.008000   ; qtot 227.452400
 4489         hn    227    ccc    H10   4489 0.27380000   1.008000   ; qtot 227.726200
 4490         hn    227    ccc    H11   4490 0.27380000   1.008000   ; qtot 228.000000
; residue  228 ccc rtp ccc q 1.0
 4491          n    228    ccc     N1   4491 -0.26410000  14.010000   ; qtot 227.735900
 4492         hn    228    ccc     H4   4492 0.27630000   1.008000   ; qtot 228.012200
 4493         c3    228    ccc     C3   4493 -0.17900000  12.010000   ; qtot 227.833200
 4494         c3    228    ccc     C4   4494 0.08000000  12.010000   ; qtot 227.913200
 4495         h1    228    ccc     H5   4495 0.13870000   1.008000   ; qtot 228.051900
 4496         h1    228    ccc     H6   4496 0.13870000   1.008000   ; qtot 228.190600
 4497         hx    228    ccc     H7   4497 0.07790000   1.008000   ; qtot 228.268500
 4498         hx    228    ccc     H8   4498 0.07790000   1.008000   ; qtot 228.346400
 4499         n4    228    ccc     N2   4499 -0.16780000  14.010000   ; qtot 228.178600
 4500         hn    228    ccc     H9   4500 0.27380000   1.008000   ; qtot 228.452400
 4501         hn    228    ccc    H10   4501 0.27380000   1.008000   ; qtot 228.726200
 4502         hn    228    ccc    H11   4502 0.27380000   1.008000   ; qtot 229.000000
; residue  229 ccc rtp ccc q 1.0
 4503          n    229    ccc     N1   4503 -0.26410000  14.010000   ; qtot 228.735900
 4504         hn    229    ccc     H4   4504 0.27630000   1.008000   ; qtot 229.012200
 4505         c3    229    ccc     C3   4505 -0.17900000  12.010000   ; qtot 228.833200
 4506         c3    229    ccc     C4   4506 0.08000000  12.010000   ; qtot 228.913200
 4507         h1    229    ccc     H5   4507 0.13870000   1.008000   ; qtot 229.051900
 4508         h1    229    ccc     H6   4508 0.13870000   1.008000   ; qtot 229.190600
 4509         hx    229    ccc     H7   4509 0.07790000   1.008000   ; qtot 229.268500
 4510         hx    229    ccc     H8   4510 0.07790000   1.008000   ; qtot 229.346400
 4511         n4    229    ccc     N2   4511 -0.16780000  14.010000   ; qtot 229.178600
 4512         hn    229    ccc     H9   4512 0.27380000   1.008000   ; qtot 229.452400
 4513         hn    229    ccc    H10   4513 0.27380000   1.008000   ; qtot 229.726200
 4514         hn    229    ccc    H11   4514 0.27380000   1.008000   ; qtot 230.000000
; residue  230 ccc rtp ccc q 1.0
 4515          n    230    ccc     N1   4515 -0.26410000  14.010000   ; qtot 229.735900
 4516         hn    230    ccc     H4   4516 0.27630000   1.008000   ; qtot 230.012200
 4517         c3    230    ccc     C3   4517 -0.17900000  12.010000   ; qtot 229.833200
 4518         c3    230    ccc     C4   4518 0.08000000  12.010000   ; qtot 229.913200
 4519         h1    230    ccc     H5   4519 0.13870000   1.008000   ; qtot 230.051900
 4520         h1    230    ccc     H6   4520 0.13870000   1.008000   ; qtot 230.190600
 4521         hx    230    ccc     H7   4521 0.07790000   1.008000   ; qtot 230.268500
 4522         hx    230    ccc     H8   4522 0.07790000   1.008000   ; qtot 230.346400
 4523         n4    230    ccc     N2   4523 -0.16780000  14.010000   ; qtot 230.178600
 4524         hn    230    ccc     H9   4524 0.27380000   1.008000   ; qtot 230.452400
 4525         hn    230    ccc    H10   4525 0.27380000   1.008000   ; qtot 230.726200
 4526         hn    230    ccc    H11   4526 0.27380000   1.008000   ; qtot 231.000000
; residue  231 ccc rtp ccc q 1.0
 4527          n    231    ccc     N1   4527 -0.26410000  14.010000   ; qtot 230.735900
 4528         hn    231    ccc     H4   4528 0.27630000   1.008000   ; qtot 231.012200
 4529         c3    231    ccc     C3   4529 -0.17900000  12.010000   ; qtot 230.833200
 4530         c3    231    ccc     C4   4530 0.08000000  12.010000   ; qtot 230.913200
 4531         h1    231    ccc     H5   4531 0.13870000   1.008000   ; qtot 231.051900
 4532         h1    231    ccc     H6   4532 0.13870000   1.008000   ; qtot 231.190600
 4533         hx    231    ccc     H7   4533 0.07790000   1.008000   ; qtot 231.268500
 4534         hx    231    ccc     H8   4534 0.07790000   1.008000   ; qtot 231.346400
 4535         n4    231    ccc     N2   4535 -0.16780000  14.010000   ; qtot 231.178600
 4536         hn    231    ccc     H9   4536 0.27380000   1.008000   ; qtot 231.452400
 4537         hn    231    ccc    H10   4537 0.27380000   1.008000   ; qtot 231.726200
 4538         hn    231    ccc    H11   4538 0.27380000   1.008000   ; qtot 232.000000
; residue  232 ccc rtp ccc q 1.0
 4539          n    232    ccc     N1   4539 -0.26410000  14.010000   ; qtot 231.735900
 4540         hn    232    ccc     H4   4540 0.27630000   1.008000   ; qtot 232.012200
 4541         c3    232    ccc     C3   4541 -0.17900000  12.010000   ; qtot 231.833200
 4542         c3    232    ccc     C4   4542 0.08000000  12.010000   ; qtot 231.913200
 4543         h1    232    ccc     H5   4543 0.13870000   1.008000   ; qtot 232.051900
 4544         h1    232    ccc     H6   4544 0.13870000   1.008000   ; qtot 232.190600
 4545         hx    232    ccc     H7   4545 0.07790000   1.008000   ; qtot 232.268500
 4546         hx    232    ccc     H8   4546 0.07790000   1.008000   ; qtot 232.346400
 4547         n4    232    ccc     N2   4547 -0.16780000  14.010000   ; qtot 232.178600
 4548         hn    232    ccc     H9   4548 0.27380000   1.008000   ; qtot 232.452400
 4549         hn    232    ccc    H10   4549 0.27380000   1.008000   ; qtot 232.726200
 4550         hn    232    ccc    H11   4550 0.27380000   1.008000   ; qtot 233.000000
; residue  233 ccc rtp ccc q 1.0
 4551          n    233    ccc     N1   4551 -0.26410000  14.010000   ; qtot 232.735900
 4552         hn    233    ccc     H4   4552 0.27630000   1.008000   ; qtot 233.012200
 4553         c3    233    ccc     C3   4553 -0.17900000  12.010000   ; qtot 232.833200
 4554         c3    233    ccc     C4   4554 0.08000000  12.010000   ; qtot 232.913200
 4555         h1    233    ccc     H5   4555 0.13870000   1.008000   ; qtot 233.051900
 4556         h1    233    ccc     H6   4556 0.13870000   1.008000   ; qtot 233.190600
 4557         hx    233    ccc     H7   4557 0.07790000   1.008000   ; qtot 233.268500
 4558         hx    233    ccc     H8   4558 0.07790000   1.008000   ; qtot 233.346400
 4559         n4    233    ccc     N2   4559 -0.16780000  14.010000   ; qtot 233.178600
 4560         hn    233    ccc     H9   4560 0.27380000   1.008000   ; qtot 233.452400
 4561         hn    233    ccc    H10   4561 0.27380000   1.008000   ; qtot 233.726200
 4562         hn    233    ccc    H11   4562 0.27380000   1.008000   ; qtot 234.000000
; residue  234 ccc rtp ccc q 1.0
 4563          n    234    ccc     N1   4563 -0.26410000  14.010000   ; qtot 233.735900
 4564         hn    234    ccc     H4   4564 0.27630000   1.008000   ; qtot 234.012200
 4565         c3    234    ccc     C3   4565 -0.17900000  12.010000   ; qtot 233.833200
 4566         c3    234    ccc     C4   4566 0.08000000  12.010000   ; qtot 233.913200
 4567         h1    234    ccc     H5   4567 0.13870000   1.008000   ; qtot 234.051900
 4568         h1    234    ccc     H6   4568 0.13870000   1.008000   ; qtot 234.190600
 4569         hx    234    ccc     H7   4569 0.07790000   1.008000   ; qtot 234.268500
 4570         hx    234    ccc     H8   4570 0.07790000   1.008000   ; qtot 234.346400
 4571         n4    234    ccc     N2   4571 -0.16780000  14.010000   ; qtot 234.178600
 4572         hn    234    ccc     H9   4572 0.27380000   1.008000   ; qtot 234.452400
 4573         hn    234    ccc    H10   4573 0.27380000   1.008000   ; qtot 234.726200
 4574         hn    234    ccc    H11   4574 0.27380000   1.008000   ; qtot 235.000000
; residue  235 ccc rtp ccc q 1.0
 4575          n    235    ccc     N1   4575 -0.26410000  14.010000   ; qtot 234.735900
 4576         hn    235    ccc     H4   4576 0.27630000   1.008000   ; qtot 235.012200
 4577         c3    235    ccc     C3   4577 -0.17900000  12.010000   ; qtot 234.833200
 4578         c3    235    ccc     C4   4578 0.08000000  12.010000   ; qtot 234.913200
 4579         h1    235    ccc     H5   4579 0.13870000   1.008000   ; qtot 235.051900
 4580         h1    235    ccc     H6   4580 0.13870000   1.008000   ; qtot 235.190600
 4581         hx    235    ccc     H7   4581 0.07790000   1.008000   ; qtot 235.268500
 4582         hx    235    ccc     H8   4582 0.07790000   1.008000   ; qtot 235.346400
 4583         n4    235    ccc     N2   4583 -0.16780000  14.010000   ; qtot 235.178600
 4584         hn    235    ccc     H9   4584 0.27380000   1.008000   ; qtot 235.452400
 4585         hn    235    ccc    H10   4585 0.27380000   1.008000   ; qtot 235.726200
 4586         hn    235    ccc    H11   4586 0.27380000   1.008000   ; qtot 236.000000
; residue  236 ccc rtp ccc q 1.0
 4587          n    236    ccc     N1   4587 -0.26410000  14.010000   ; qtot 235.735900
 4588         hn    236    ccc     H4   4588 0.27630000   1.008000   ; qtot 236.012200
 4589         c3    236    ccc     C3   4589 -0.17900000  12.010000   ; qtot 235.833200
 4590         c3    236    ccc     C4   4590 0.08000000  12.010000   ; qtot 235.913200
 4591         h1    236    ccc     H5   4591 0.13870000   1.008000   ; qtot 236.051900
 4592         h1    236    ccc     H6   4592 0.13870000   1.008000   ; qtot 236.190600
 4593         hx    236    ccc     H7   4593 0.07790000   1.008000   ; qtot 236.268500
 4594         hx    236    ccc     H8   4594 0.07790000   1.008000   ; qtot 236.346400
 4595         n4    236    ccc     N2   4595 -0.16780000  14.010000   ; qtot 236.178600
 4596         hn    236    ccc     H9   4596 0.27380000   1.008000   ; qtot 236.452400
 4597         hn    236    ccc    H10   4597 0.27380000   1.008000   ; qtot 236.726200
 4598         hn    236    ccc    H11   4598 0.27380000   1.008000   ; qtot 237.000000
; residue  237 ccc rtp ccc q 1.0
 4599          n    237    ccc     N1   4599 -0.26410000  14.010000   ; qtot 236.735900
 4600         hn    237    ccc     H4   4600 0.27630000   1.008000   ; qtot 237.012200
 4601         c3    237    ccc     C3   4601 -0.17900000  12.010000   ; qtot 236.833200
 4602         c3    237    ccc     C4   4602 0.08000000  12.010000   ; qtot 236.913200
 4603         h1    237    ccc     H5   4603 0.13870000   1.008000   ; qtot 237.051900
 4604         h1    237    ccc     H6   4604 0.13870000   1.008000   ; qtot 237.190600
 4605         hx    237    ccc     H7   4605 0.07790000   1.008000   ; qtot 237.268500
 4606         hx    237    ccc     H8   4606 0.07790000   1.008000   ; qtot 237.346400
 4607         n4    237    ccc     N2   4607 -0.16780000  14.010000   ; qtot 237.178600
 4608         hn    237    ccc     H9   4608 0.27380000   1.008000   ; qtot 237.452400
 4609         hn    237    ccc    H10   4609 0.27380000   1.008000   ; qtot 237.726200
 4610         hn    237    ccc    H11   4610 0.27380000   1.008000   ; qtot 238.000000
; residue  238 ccc rtp ccc q 1.0
 4611          n    238    ccc     N1   4611 -0.26410000  14.010000   ; qtot 237.735900
 4612         hn    238    ccc     H4   4612 0.27630000   1.008000   ; qtot 238.012200
 4613         c3    238    ccc     C3   4613 -0.17900000  12.010000   ; qtot 237.833200
 4614         c3    238    ccc     C4   4614 0.08000000  12.010000   ; qtot 237.913200
 4615         h1    238    ccc     H5   4615 0.13870000   1.008000   ; qtot 238.051900
 4616         h1    238    ccc     H6   4616 0.13870000   1.008000   ; qtot 238.190600
 4617         hx    238    ccc     H7   4617 0.07790000   1.008000   ; qtot 238.268500
 4618         hx    238    ccc     H8   4618 0.07790000   1.008000   ; qtot 238.346400
 4619         n4    238    ccc     N2   4619 -0.16780000  14.010000   ; qtot 238.178600
 4620         hn    238    ccc     H9   4620 0.27380000   1.008000   ; qtot 238.452400
 4621         hn    238    ccc    H10   4621 0.27380000   1.008000   ; qtot 238.726200
 4622         hn    238    ccc    H11   4622 0.27380000   1.008000   ; qtot 239.000000
; residue  239 ccc rtp ccc q 1.0
 4623          n    239    ccc     N1   4623 -0.26410000  14.010000   ; qtot 238.735900
 4624         hn    239    ccc     H4   4624 0.27630000   1.008000   ; qtot 239.012200
 4625         c3    239    ccc     C3   4625 -0.17900000  12.010000   ; qtot 238.833200
 4626         c3    239    ccc     C4   4626 0.08000000  12.010000   ; qtot 238.913200
 4627         h1    239    ccc     H5   4627 0.13870000   1.008000   ; qtot 239.051900
 4628         h1    239    ccc     H6   4628 0.13870000   1.008000   ; qtot 239.190600
 4629         hx    239    ccc     H7   4629 0.07790000   1.008000   ; qtot 239.268500
 4630         hx    239    ccc     H8   4630 0.07790000   1.008000   ; qtot 239.346400
 4631         n4    239    ccc     N2   4631 -0.16780000  14.010000   ; qtot 239.178600
 4632         hn    239    ccc     H9   4632 0.27380000   1.008000   ; qtot 239.452400
 4633         hn    239    ccc    H10   4633 0.27380000   1.008000   ; qtot 239.726200
 4634         hn    239    ccc    H11   4634 0.27380000   1.008000   ; qtot 240.000000
; residue  240 ccc rtp ccc q 1.0
 4635          n    240    ccc     N1   4635 -0.26410000  14.010000   ; qtot 239.735900
 4636         hn    240    ccc     H4   4636 0.27630000   1.008000   ; qtot 240.012200
 4637         c3    240    ccc     C3   4637 -0.17900000  12.010000   ; qtot 239.833200
 4638         c3    240    ccc     C4   4638 0.08000000  12.010000   ; qtot 239.913200
 4639         h1    240    ccc     H5   4639 0.13870000   1.008000   ; qtot 240.051900
 4640         h1    240    ccc     H6   4640 0.13870000   1.008000   ; qtot 240.190600
 4641         hx    240    ccc     H7   4641 0.07790000   1.008000   ; qtot 240.268500
 4642         hx    240    ccc     H8   4642 0.07790000   1.008000   ; qtot 240.346400
 4643         n4    240    ccc     N2   4643 -0.16780000  14.010000   ; qtot 240.178600
 4644         hn    240    ccc     H9   4644 0.27380000   1.008000   ; qtot 240.452400
 4645         hn    240    ccc    H10   4645 0.27380000   1.008000   ; qtot 240.726200
 4646         hn    240    ccc    H11   4646 0.27380000   1.008000   ; qtot 241.000000
; residue  241 ccc rtp ccc q 1.0
 4647          n    241    ccc     N1   4647 -0.26410000  14.010000   ; qtot 240.735900
 4648         hn    241    ccc     H4   4648 0.27630000   1.008000   ; qtot 241.012200
 4649         c3    241    ccc     C3   4649 -0.17900000  12.010000   ; qtot 240.833200
 4650         c3    241    ccc     C4   4650 0.08000000  12.010000   ; qtot 240.913200
 4651         h1    241    ccc     H5   4651 0.13870000   1.008000   ; qtot 241.051900
 4652         h1    241    ccc     H6   4652 0.13870000   1.008000   ; qtot 241.190600
 4653         hx    241    ccc     H7   4653 0.07790000   1.008000   ; qtot 241.268500
 4654         hx    241    ccc     H8   4654 0.07790000   1.008000   ; qtot 241.346400
 4655         n4    241    ccc     N2   4655 -0.16780000  14.010000   ; qtot 241.178600
 4656         hn    241    ccc     H9   4656 0.27380000   1.008000   ; qtot 241.452400
 4657         hn    241    ccc    H10   4657 0.27380000   1.008000   ; qtot 241.726200
 4658         hn    241    ccc    H11   4658 0.27380000   1.008000   ; qtot 242.000000
; residue  242 ccc rtp ccc q 1.0
 4659          n    242    ccc     N1   4659 -0.26410000  14.010000   ; qtot 241.735900
 4660         hn    242    ccc     H4   4660 0.27630000   1.008000   ; qtot 242.012200
 4661         c3    242    ccc     C3   4661 -0.17900000  12.010000   ; qtot 241.833200
 4662         c3    242    ccc     C4   4662 0.08000000  12.010000   ; qtot 241.913200
 4663         h1    242    ccc     H5   4663 0.13870000   1.008000   ; qtot 242.051900
 4664         h1    242    ccc     H6   4664 0.13870000   1.008000   ; qtot 242.190600
 4665         hx    242    ccc     H7   4665 0.07790000   1.008000   ; qtot 242.268500
 4666         hx    242    ccc     H8   4666 0.07790000   1.008000   ; qtot 242.346400
 4667         n4    242    ccc     N2   4667 -0.16780000  14.010000   ; qtot 242.178600
 4668         hn    242    ccc     H9   4668 0.27380000   1.008000   ; qtot 242.452400
 4669         hn    242    ccc    H10   4669 0.27380000   1.008000   ; qtot 242.726200
 4670         hn    242    ccc    H11   4670 0.27380000   1.008000   ; qtot 243.000000
; residue  243 ccc rtp ccc q 1.0
 4671          n    243    ccc     N1   4671 -0.26410000  14.010000   ; qtot 242.735900
 4672         hn    243    ccc     H4   4672 0.27630000   1.008000   ; qtot 243.012200
 4673         c3    243    ccc     C3   4673 -0.17900000  12.010000   ; qtot 242.833200
 4674         c3    243    ccc     C4   4674 0.08000000  12.010000   ; qtot 242.913200
 4675         h1    243    ccc     H5   4675 0.13870000   1.008000   ; qtot 243.051900
 4676         h1    243    ccc     H6   4676 0.13870000   1.008000   ; qtot 243.190600
 4677         hx    243    ccc     H7   4677 0.07790000   1.008000   ; qtot 243.268500
 4678         hx    243    ccc     H8   4678 0.07790000   1.008000   ; qtot 243.346400
 4679         n4    243    ccc     N2   4679 -0.16780000  14.010000   ; qtot 243.178600
 4680         hn    243    ccc     H9   4680 0.27380000   1.008000   ; qtot 243.452400
 4681         hn    243    ccc    H10   4681 0.27380000   1.008000   ; qtot 243.726200
 4682         hn    243    ccc    H11   4682 0.27380000   1.008000   ; qtot 244.000000
; residue  244 ccc rtp ccc q 1.0
 4683          n    244    ccc     N1   4683 -0.26410000  14.010000   ; qtot 243.735900
 4684         hn    244    ccc     H4   4684 0.27630000   1.008000   ; qtot 244.012200
 4685         c3    244    ccc     C3   4685 -0.17900000  12.010000   ; qtot 243.833200
 4686         c3    244    ccc     C4   4686 0.08000000  12.010000   ; qtot 243.913200
 4687         h1    244    ccc     H5   4687 0.13870000   1.008000   ; qtot 244.051900
 4688         h1    244    ccc     H6   4688 0.13870000   1.008000   ; qtot 244.190600
 4689         hx    244    ccc     H7   4689 0.07790000   1.008000   ; qtot 244.268500
 4690         hx    244    ccc     H8   4690 0.07790000   1.008000   ; qtot 244.346400
 4691         n4    244    ccc     N2   4691 -0.16780000  14.010000   ; qtot 244.178600
 4692         hn    244    ccc     H9   4692 0.27380000   1.008000   ; qtot 244.452400
 4693         hn    244    ccc    H10   4693 0.27380000   1.008000   ; qtot 244.726200
 4694         hn    244    ccc    H11   4694 0.27380000   1.008000   ; qtot 245.000000
; residue  245 ccc rtp ccc q 1.0
 4695          n    245    ccc     N1   4695 -0.26410000  14.010000   ; qtot 244.735900
 4696         hn    245    ccc     H4   4696 0.27630000   1.008000   ; qtot 245.012200
 4697         c3    245    ccc     C3   4697 -0.17900000  12.010000   ; qtot 244.833200
 4698         c3    245    ccc     C4   4698 0.08000000  12.010000   ; qtot 244.913200
 4699         h1    245    ccc     H5   4699 0.13870000   1.008000   ; qtot 245.051900
 4700         h1    245    ccc     H6   4700 0.13870000   1.008000   ; qtot 245.190600
 4701         hx    245    ccc     H7   4701 0.07790000   1.008000   ; qtot 245.268500
 4702         hx    245    ccc     H8   4702 0.07790000   1.008000   ; qtot 245.346400
 4703         n4    245    ccc     N2   4703 -0.16780000  14.010000   ; qtot 245.178600
 4704         hn    245    ccc     H9   4704 0.27380000   1.008000   ; qtot 245.452400
 4705         hn    245    ccc    H10   4705 0.27380000   1.008000   ; qtot 245.726200
 4706         hn    245    ccc    H11   4706 0.27380000   1.008000   ; qtot 246.000000
; residue  246 ccc rtp ccc q 1.0
 4707          n    246    ccc     N1   4707 -0.26410000  14.010000   ; qtot 245.735900
 4708         hn    246    ccc     H4   4708 0.27630000   1.008000   ; qtot 246.012200
 4709         c3    246    ccc     C3   4709 -0.17900000  12.010000   ; qtot 245.833200
 4710         c3    246    ccc     C4   4710 0.08000000  12.010000   ; qtot 245.913200
 4711         h1    246    ccc     H5   4711 0.13870000   1.008000   ; qtot 246.051900
 4712         h1    246    ccc     H6   4712 0.13870000   1.008000   ; qtot 246.190600
 4713         hx    246    ccc     H7   4713 0.07790000   1.008000   ; qtot 246.268500
 4714         hx    246    ccc     H8   4714 0.07790000   1.008000   ; qtot 246.346400
 4715         n4    246    ccc     N2   4715 -0.16780000  14.010000   ; qtot 246.178600
 4716         hn    246    ccc     H9   4716 0.27380000   1.008000   ; qtot 246.452400
 4717         hn    246    ccc    H10   4717 0.27380000   1.008000   ; qtot 246.726200
 4718         hn    246    ccc    H11   4718 0.27380000   1.008000   ; qtot 247.000000
; residue  247 ccc rtp ccc q 1.0
 4719          n    247    ccc     N1   4719 -0.26410000  14.010000   ; qtot 246.735900
 4720         hn    247    ccc     H4   4720 0.27630000   1.008000   ; qtot 247.012200
 4721         c3    247    ccc     C3   4721 -0.17900000  12.010000   ; qtot 246.833200
 4722         c3    247    ccc     C4   4722 0.08000000  12.010000   ; qtot 246.913200
 4723         h1    247    ccc     H5   4723 0.13870000   1.008000   ; qtot 247.051900
 4724         h1    247    ccc     H6   4724 0.13870000   1.008000   ; qtot 247.190600
 4725         hx    247    ccc     H7   4725 0.07790000   1.008000   ; qtot 247.268500
 4726         hx    247    ccc     H8   4726 0.07790000   1.008000   ; qtot 247.346400
 4727         n4    247    ccc     N2   4727 -0.16780000  14.010000   ; qtot 247.178600
 4728         hn    247    ccc     H9   4728 0.27380000   1.008000   ; qtot 247.452400
 4729         hn    247    ccc    H10   4729 0.27380000   1.008000   ; qtot 247.726200
 4730         hn    247    ccc    H11   4730 0.27380000   1.008000   ; qtot 248.000000
; residue  248 ccc rtp ccc q 1.0
 4731          n    248    ccc     N1   4731 -0.26410000  14.010000   ; qtot 247.735900
 4732         hn    248    ccc     H4   4732 0.27630000   1.008000   ; qtot 248.012200
 4733         c3    248    ccc     C3   4733 -0.17900000  12.010000   ; qtot 247.833200
 4734         c3    248    ccc     C4   4734 0.08000000  12.010000   ; qtot 247.913200
 4735         h1    248    ccc     H5   4735 0.13870000   1.008000   ; qtot 248.051900
 4736         h1    248    ccc     H6   4736 0.13870000   1.008000   ; qtot 248.190600
 4737         hx    248    ccc     H7   4737 0.07790000   1.008000   ; qtot 248.268500
 4738         hx    248    ccc     H8   4738 0.07790000   1.008000   ; qtot 248.346400
 4739         n4    248    ccc     N2   4739 -0.16780000  14.010000   ; qtot 248.178600
 4740         hn    248    ccc     H9   4740 0.27380000   1.008000   ; qtot 248.452400
 4741         hn    248    ccc    H10   4741 0.27380000   1.008000   ; qtot 248.726200
 4742         hn    248    ccc    H11   4742 0.27380000   1.008000   ; qtot 249.000000
; residue  249 ccc rtp ccc q 1.0
 4743          n    249    ccc     N1   4743 -0.26410000  14.010000   ; qtot 248.735900
 4744         hn    249    ccc     H4   4744 0.27630000   1.008000   ; qtot 249.012200
 4745         c3    249    ccc     C3   4745 -0.17900000  12.010000   ; qtot 248.833200
 4746         c3    249    ccc     C4   4746 0.08000000  12.010000   ; qtot 248.913200
 4747         h1    249    ccc     H5   4747 0.13870000   1.008000   ; qtot 249.051900
 4748         h1    249    ccc     H6   4748 0.13870000   1.008000   ; qtot 249.190600
 4749         hx    249    ccc     H7   4749 0.07790000   1.008000   ; qtot 249.268500
 4750         hx    249    ccc     H8   4750 0.07790000   1.008000   ; qtot 249.346400
 4751         n4    249    ccc     N2   4751 -0.16780000  14.010000   ; qtot 249.178600
 4752         hn    249    ccc     H9   4752 0.27380000   1.008000   ; qtot 249.452400
 4753         hn    249    ccc    H10   4753 0.27380000   1.008000   ; qtot 249.726200
 4754         hn    249    ccc    H11   4754 0.27380000   1.008000   ; qtot 250.000000
; residue  250 ccc rtp ccc q 1.0
 4755          n    250    ccc     N1   4755 -0.26410000  14.010000   ; qtot 249.735900
 4756         hn    250    ccc     H4   4756 0.27630000   1.008000   ; qtot 250.012200
 4757         c3    250    ccc     C3   4757 -0.17900000  12.010000   ; qtot 249.833200
 4758         c3    250    ccc     C4   4758 0.08000000  12.010000   ; qtot 249.913200
 4759         h1    250    ccc     H5   4759 0.13870000   1.008000   ; qtot 250.051900
 4760         h1    250    ccc     H6   4760 0.13870000   1.008000   ; qtot 250.190600
 4761         hx    250    ccc     H7   4761 0.07790000   1.008000   ; qtot 250.268500
 4762         hx    250    ccc     H8   4762 0.07790000   1.008000   ; qtot 250.346400
 4763         n4    250    ccc     N2   4763 -0.16780000  14.010000   ; qtot 250.178600
 4764         hn    250    ccc     H9   4764 0.27380000   1.008000   ; qtot 250.452400
 4765         hn    250    ccc    H10   4765 0.27380000   1.008000   ; qtot 250.726200
 4766         hn    250    ccc    H11   4766 0.27380000   1.008000   ; qtot 251.000000
; residue  251 ccc rtp ccc q 1.0
 4767          n    251    ccc     N1   4767 -0.26410000  14.010000   ; qtot 250.735900
 4768         hn    251    ccc     H4   4768 0.27630000   1.008000   ; qtot 251.012200
 4769         c3    251    ccc     C3   4769 -0.17900000  12.010000   ; qtot 250.833200
 4770         c3    251    ccc     C4   4770 0.08000000  12.010000   ; qtot 250.913200
 4771         h1    251    ccc     H5   4771 0.13870000   1.008000   ; qtot 251.051900
 4772         h1    251    ccc     H6   4772 0.13870000   1.008000   ; qtot 251.190600
 4773         hx    251    ccc     H7   4773 0.07790000   1.008000   ; qtot 251.268500
 4774         hx    251    ccc     H8   4774 0.07790000   1.008000   ; qtot 251.346400
 4775         n4    251    ccc     N2   4775 -0.16780000  14.010000   ; qtot 251.178600
 4776         hn    251    ccc     H9   4776 0.27380000   1.008000   ; qtot 251.452400
 4777         hn    251    ccc    H10   4777 0.27380000   1.008000   ; qtot 251.726200
 4778         hn    251    ccc    H11   4778 0.27380000   1.008000   ; qtot 252.000000
; residue  252 ccc rtp ccc q 1.0
 4779          n    252    ccc     N1   4779 -0.26410000  14.010000   ; qtot 251.735900
 4780         hn    252    ccc     H4   4780 0.27630000   1.008000   ; qtot 252.012200
 4781         c3    252    ccc     C3   4781 -0.17900000  12.010000   ; qtot 251.833200
 4782         c3    252    ccc     C4   4782 0.08000000  12.010000   ; qtot 251.913200
 4783         h1    252    ccc     H5   4783 0.13870000   1.008000   ; qtot 252.051900
 4784         h1    252    ccc     H6   4784 0.13870000   1.008000   ; qtot 252.190600
 4785         hx    252    ccc     H7   4785 0.07790000   1.008000   ; qtot 252.268500
 4786         hx    252    ccc     H8   4786 0.07790000   1.008000   ; qtot 252.346400
 4787         n4    252    ccc     N2   4787 -0.16780000  14.010000   ; qtot 252.178600
 4788         hn    252    ccc     H9   4788 0.27380000   1.008000   ; qtot 252.452400
 4789         hn    252    ccc    H10   4789 0.27380000   1.008000   ; qtot 252.726200
 4790         hn    252    ccc    H11   4790 0.27380000   1.008000   ; qtot 253.000000
; residue  253 ccc rtp ccc q 1.0
 4791          n    253    ccc     N1   4791 -0.26410000  14.010000   ; qtot 252.735900
 4792         hn    253    ccc     H4   4792 0.27630000   1.008000   ; qtot 253.012200
 4793         c3    253    ccc     C3   4793 -0.17900000  12.010000   ; qtot 252.833200
 4794         c3    253    ccc     C4   4794 0.08000000  12.010000   ; qtot 252.913200
 4795         h1    253    ccc     H5   4795 0.13870000   1.008000   ; qtot 253.051900
 4796         h1    253    ccc     H6   4796 0.13870000   1.008000   ; qtot 253.190600
 4797         hx    253    ccc     H7   4797 0.07790000   1.008000   ; qtot 253.268500
 4798         hx    253    ccc     H8   4798 0.07790000   1.008000   ; qtot 253.346400
 4799         n4    253    ccc     N2   4799 -0.16780000  14.010000   ; qtot 253.178600
 4800         hn    253    ccc     H9   4800 0.27380000   1.008000   ; qtot 253.452400
 4801         hn    253    ccc    H10   4801 0.27380000   1.008000   ; qtot 253.726200
 4802         hn    253    ccc    H11   4802 0.27380000   1.008000   ; qtot 254.000000

[ bonds ]
;    ai     aj funct         c0         c1         c2         c3
      1      2     1   0.15110 237065.440000
      1      7     1   0.15110 237065.440000
      1      8     1   0.15110 237065.440000
      2      3     1   0.15375 251793.120000
      3      4     1   0.15110 237065.440000
      4      5     1   0.15110 237065.440000
      4      6     1   0.15110 237065.440000
      5     11     1   0.15375 251793.120000
      6      9     1   0.15375 251793.120000
      7     13     1   0.15375 251793.120000
      8     15     1   0.15375 251793.120000
      9     10     1   0.15241 261918.400000
     10     18     1   0.12183 533627.360000
     10     52     1   0.13789 357815.680000
     11     12     1   0.15241 261918.400000
     12     17     1   0.12183 533627.360000
     12     78     1   0.13789 357815.680000
     13     14     1   0.15241 261918.400000
     14     20     1   0.12183 533627.360000
     14    104     1   0.13789 357815.680000
     15     16     1   0.15241 261918.400000
     16     19     1   0.12183 533627.360000
     16    130     1   0.13789 357815.680000
     43     44     1   0.15110 237065.440000
     43     45     1   0.15110 237065.440000
     43     50     1   0.15110 237065.440000
     44     46     1   0.15375 251793.120000
     45     48     1   0.15375 251793.120000
     46     47     1   0.15241 261918.400000
     47     53     1   0.12183 533627.360000
     47    156     1   0.13789 357815.680000
     48     49     1   0.15241 261918.400000
     49     54     1   0.12183 533627.360000
     49    182     1   0.13789 357815.680000
     50     51     1   0.15375 251793.120000
     51     52     1   0.14619 275056.160000
     69     70     1   0.15110 237065.440000
     69     71     1   0.15110 237065.440000
     69     76     1   0.15110 237065.440000
     70     72     1   0.15375 251793.120000
     71     74     1   0.15375 251793.120000
     72     73     1   0.15241 261918.400000
     73     79     1   0.12183 533627.360000
     73    208     1   0.13789 357815.680000
     74     75     1   0.15241 261918.400000
     75     80     1   0.12183 533627.360000
     75    234     1   0.13789 357815.680000
     76     77     1   0.15375 251793.120000
     77     78     1   0.14619 275056.160000
     95     96     1   0.15110 237065.440000
     95     97     1   0.15110 237065.440000
     95    102     1   0.15110 237065.440000
     96     98     1   0.15375 251793.120000
     97    100     1   0.15375 251793.120000
     98     99     1   0.15241 261918.400000
     99    105     1   0.12183 533627.360000
     99    260     1   0.13789 357815.680000
    100    101     1   0.15241 261918.400000
    101    106     1   0.12183 533627.360000
    101    286     1   0.13789 357815.680000
    102    103     1   0.15375 251793.120000
    103    104     1   0.14619 275056.160000
    121    122     1   0.15110 237065.440000
    121    123     1   0.15110 237065.440000
    121    128     1   0.15110 237065.440000
    122    124     1   0.15375 251793.120000
    123    126     1   0.15375 251793.120000
    124    125     1   0.15241 261918.400000
    125    131     1   0.12183 533627.360000
    125    312     1   0.13789 357815.680000
    126    127     1   0.15241 261918.400000
    127    132     1   0.12183 533627.360000
    127    338     1   0.13789 357815.680000
    128    129     1   0.15375 251793.120000
    129    130     1   0.14619 275056.160000
    147    148     1   0.15110 237065.440000
    147    149     1   0.15110 237065.440000
    147    154     1   0.15110 237065.440000
    148    150     1   0.15375 251793.120000
    149    152     1   0.15375 251793.120000
    150    151     1   0.15241 261918.400000
    151    157     1   0.12183 533627.360000
    151    364     1   0.13789 357815.680000
    152    153     1   0.15241 261918.400000
    153    158     1   0.12183 533627.360000
    153    390     1   0.13789 357815.680000
    154    155     1   0.15375 251793.120000
    155    156     1   0.14619 275056.160000
    173    174     1   0.15110 237065.440000
    173    175     1   0.15110 237065.440000
    173    180     1   0.15110 237065.440000
    174    176     1   0.15375 251793.120000
    175    178     1   0.15375 251793.120000
    176    177     1   0.15241 261918.400000
    177    183     1   0.12183 533627.360000
    177    416     1   0.13789 357815.680000
    178    179     1   0.15241 261918.400000
    179    184     1   0.12183 533627.360000
    179    442     1   0.13789 357815.680000
    180    181     1   0.15375 251793.120000
    181    182     1   0.14619 275056.160000
    199    200     1   0.15110 237065.440000
    199    201     1   0.15110 237065.440000
    199    206     1   0.15110 237065.440000
    200    202     1   0.15375 251793.120000
    201    204     1   0.15375 251793.120000
    202    203     1   0.15241 261918.400000
    203    209     1   0.12183 533627.360000
    203    468     1   0.13789 357815.680000
    204    205     1   0.15241 261918.400000
    205    210     1   0.12183 533627.360000
    205    494     1   0.13789 357815.680000
    206    207     1   0.15375 251793.120000
    207    208     1   0.14619 275056.160000
    225    226     1   0.15110 237065.440000
    225    227     1   0.15110 237065.440000
    225    232     1   0.15110 237065.440000
    226    228     1   0.15375 251793.120000
    227    230     1   0.15375 251793.120000
    228    229     1   0.15241 261918.400000
    229    235     1   0.12183 533627.360000
    229    520     1   0.13789 357815.680000
    230    231     1   0.15241 261918.400000
    231    236     1   0.12183 533627.360000
    231    546     1   0.13789 357815.680000
    232    233     1   0.15375 251793.120000
    233    234     1   0.14619 275056.160000
    251    252     1   0.15110 237065.440000
    251    253     1   0.15110 237065.440000
    251    258     1   0.15110 237065.440000
    252    254     1   0.15375 251793.120000
    253    256     1   0.15375 251793.120000
    254    255     1   0.15241 261918.400000
    255    261     1   0.12183 533627.360000
    255    572     1   0.13789 357815.680000
    256    257     1   0.15241 261918.400000
    257    262     1   0.12183 533627.360000
    257    598     1   0.13789 357815.680000
    258    259     1   0.15375 251793.120000
    259    260     1   0.14619 275056.160000
    277    278     1   0.15110 237065.440000
    277    279     1   0.15110 237065.440000
    277    284     1   0.15110 237065.440000
    278    280     1   0.15375 251793.120000
    279    282     1   0.15375 251793.120000
    280    281     1   0.15241 261918.400000
    281    287     1   0.12183 533627.360000
    281    624     1   0.13789 357815.680000
    282    283     1   0.15241 261918.400000
    283    288     1   0.12183 533627.360000
    283    650     1   0.13789 357815.680000
    284    285     1   0.15375 251793.120000
    285    286     1   0.14619 275056.160000
    303    304     1   0.15110 237065.440000
    303    305     1   0.15110 237065.440000
    303    310     1   0.15110 237065.440000
    304    306     1   0.15375 251793.120000
    305    308     1   0.15375 251793.120000
    306    307     1   0.15241 261918.400000
    307    313     1   0.12183 533627.360000
    307    676     1   0.13789 357815.680000
    308    309     1   0.15241 261918.400000
    309    314     1   0.12183 533627.360000
    309    702     1   0.13789 357815.680000
    310    311     1   0.15375 251793.120000
    311    312     1   0.14619 275056.160000
    329    330     1   0.15110 237065.440000
    329    331     1   0.15110 237065.440000
    329    336     1   0.15110 237065.440000
    330    332     1   0.15375 251793.120000
    331    334     1   0.15375 251793.120000
    332    333     1   0.15241 261918.400000
    333    339     1   0.12183 533627.360000
    333    728     1   0.13789 357815.680000
    334    335     1   0.15241 261918.400000
    335    340     1   0.12183 533627.360000
    335    754     1   0.13789 357815.680000
    336    337     1   0.15375 251793.120000
    337    338     1   0.14619 275056.160000
    355    356     1   0.15110 237065.440000
    355    357     1   0.15110 237065.440000
    355    362     1   0.15110 237065.440000
    356    358     1   0.15375 251793.120000
    357    360     1   0.15375 251793.120000
    358    359     1   0.15241 261918.400000
    359    365     1   0.12183 533627.360000
    359    780     1   0.13789 357815.680000
    360    361     1   0.15241 261918.400000
    361    366     1   0.12183 533627.360000
    361    806     1   0.13789 357815.680000
    362    363     1   0.15375 251793.120000
    363    364     1   0.14619 275056.160000
    381    382     1   0.15110 237065.440000
    381    383     1   0.15110 237065.440000
    381    388     1   0.15110 237065.440000
    382    384     1   0.15375 251793.120000
    383    386     1   0.15375 251793.120000
    384    385     1   0.15241 261918.400000
    385    391     1   0.12183 533627.360000
    385    832     1   0.13789 357815.680000
    386    387     1   0.15241 261918.400000
    387    392     1   0.12183 533627.360000
    387    858     1   0.13789 357815.680000
    388    389     1   0.15375 251793.120000
    389    390     1   0.14619 275056.160000
    407    408     1   0.15110 237065.440000
    407    409     1   0.15110 237065.440000
    407    414     1   0.15110 237065.440000
    408    410     1   0.15375 251793.120000
    409    412     1   0.15375 251793.120000
    410    411     1   0.15241 261918.400000
    411    417     1   0.12183 533627.360000
    411    884     1   0.13789 357815.680000
    412    413     1   0.15241 261918.400000
    413    418     1   0.12183 533627.360000
    413    910     1   0.13789 357815.680000
    414    415     1   0.15375 251793.120000
    415    416     1   0.14619 275056.160000
    433    434     1   0.15110 237065.440000
    433    435     1   0.15110 237065.440000
    433    440     1   0.15110 237065.440000
    434    436     1   0.15375 251793.120000
    435    438     1   0.15375 251793.120000
    436    437     1   0.15241 261918.400000
    437    443     1   0.12183 533627.360000
    437    936     1   0.13789 357815.680000
    438    439     1   0.15241 261918.400000
    439    444     1   0.12183 533627.360000
    439    962     1   0.13789 357815.680000
    440    441     1   0.15375 251793.120000
    441    442     1   0.14619 275056.160000
    459    460     1   0.15110 237065.440000
    459    461     1   0.15110 237065.440000
    459    466     1   0.15110 237065.440000
    460    462     1   0.15375 251793.120000
    461    464     1   0.15375 251793.120000
    462    463     1   0.15241 261918.400000
    463    469     1   0.12183 533627.360000
    463    988     1   0.13789 357815.680000
    464    465     1   0.15241 261918.400000
    465    470     1   0.12183 533627.360000
    465   1014     1   0.13789 357815.680000
    466    467     1   0.15375 251793.120000
    467    468     1   0.14619 275056.160000
    485    486     1   0.15110 237065.440000
    485    487     1   0.15110 237065.440000
    485    492     1   0.15110 237065.440000
    486    488     1   0.15375 251793.120000
    487    490     1   0.15375 251793.120000
    488    489     1   0.15241 261918.400000
    489    495     1   0.12183 533627.360000
    489   1040     1   0.13789 357815.680000
    490    491     1   0.15241 261918.400000
    491    496     1   0.12183 533627.360000
    491   1066     1   0.13789 357815.680000
    492    493     1   0.15375 251793.120000
    493    494     1   0.14619 275056.160000
    511    512     1   0.15110 237065.440000
    511    513     1   0.15110 237065.440000
    511    518     1   0.15110 237065.440000
    512    514     1   0.15375 251793.120000
    513    516     1   0.15375 251793.120000
    514    515     1   0.15241 261918.400000
    515    521     1   0.12183 533627.360000
    515   1092     1   0.13789 357815.680000
    516    517     1   0.15241 261918.400000
    517    522     1   0.12183 533627.360000
    517   1118     1   0.13789 357815.680000
    518    519     1   0.15375 251793.120000
    519    520     1   0.14619 275056.160000
    537    538     1   0.15110 237065.440000
    537    539     1   0.15110 237065.440000
    537    544     1   0.15110 237065.440000
    538    540     1   0.15375 251793.120000
    539    542     1   0.15375 251793.120000
    540    541     1   0.15241 261918.400000
    541    547     1   0.12183 533627.360000
    541   1144     1   0.13789 357815.680000
    542    543     1   0.15241 261918.400000
    543    548     1   0.12183 533627.360000
    543   1170     1   0.13789 357815.680000
    544    545     1   0.15375 251793.120000
    545    546     1   0.14619 275056.160000
    563    564     1   0.15110 237065.440000
    563    565     1   0.15110 237065.440000
    563    570     1   0.15110 237065.440000
    564    566     1   0.15375 251793.120000
    565    568     1   0.15375 251793.120000
    566    567     1   0.15241 261918.400000
    567    573     1   0.12183 533627.360000
    567   1196     1   0.13789 357815.680000
    568    569     1   0.15241 261918.400000
    569    574     1   0.12183 533627.360000
    569   1222     1   0.13789 357815.680000
    570    571     1   0.15375 251793.120000
    571    572     1   0.14619 275056.160000
    589    590     1   0.15110 237065.440000
    589    591     1   0.15110 237065.440000
    589    596     1   0.15110 237065.440000
    590    592     1   0.15375 251793.120000
    591    594     1   0.15375 251793.120000
    592    593     1   0.15241 261918.400000
    593    599     1   0.12183 533627.360000
    593   1248     1   0.13789 357815.680000
    594    595     1   0.15241 261918.400000
    595    600     1   0.12183 533627.360000
    595   1274     1   0.13789 357815.680000
    596    597     1   0.15375 251793.120000
    597    598     1   0.14619 275056.160000
    615    616     1   0.15110 237065.440000
    615    617     1   0.15110 237065.440000
    615    622     1   0.15110 237065.440000
    616    618     1   0.15375 251793.120000
    617    620     1   0.15375 251793.120000
    618    619     1   0.15241 261918.400000
    619    625     1   0.12183 533627.360000
    619   1300     1   0.13789 357815.680000
    620    621     1   0.15241 261918.400000
    621    626     1   0.12183 533627.360000
    621   1326     1   0.13789 357815.680000
    622    623     1   0.15375 251793.120000
    623    624     1   0.14619 275056.160000
    641    642     1   0.15110 237065.440000
    641    643     1   0.15110 237065.440000
    641    648     1   0.15110 237065.440000
    642    644     1   0.15375 251793.120000
    643    646     1   0.15375 251793.120000
    644    645     1   0.15241 261918.400000
    645    651     1   0.12183 533627.360000
    645   1352     1   0.13789 357815.680000
    646    647     1   0.15241 261918.400000
    647    652     1   0.12183 533627.360000
    647   1378     1   0.13789 357815.680000
    648    649     1   0.15375 251793.120000
    649    650     1   0.14619 275056.160000
    667    668     1   0.15110 237065.440000
    667    669     1   0.15110 237065.440000
    667    674     1   0.15110 237065.440000
    668    670     1   0.15375 251793.120000
    669    672     1   0.15375 251793.120000
    670    671     1   0.15241 261918.400000
    671    677     1   0.12183 533627.360000
    671   1404     1   0.13789 357815.680000
    672    673     1   0.15241 261918.400000
    673    678     1   0.12183 533627.360000
    673   1430     1   0.13789 357815.680000
    674    675     1   0.15375 251793.120000
    675    676     1   0.14619 275056.160000
    693    694     1   0.15110 237065.440000
    693    695     1   0.15110 237065.440000
    693    700     1   0.15110 237065.440000
    694    696     1   0.15375 251793.120000
    695    698     1   0.15375 251793.120000
    696    697     1   0.15241 261918.400000
    697    703     1   0.12183 533627.360000
    697   1456     1   0.13789 357815.680000
    698    699     1   0.15241 261918.400000
    699    704     1   0.12183 533627.360000
    699   1482     1   0.13789 357815.680000
    700    701     1   0.15375 251793.120000
    701    702     1   0.14619 275056.160000
    719    720     1   0.15110 237065.440000
    719    721     1   0.15110 237065.440000
    719    726     1   0.15110 237065.440000
    720    722     1   0.15375 251793.120000
    721    724     1   0.15375 251793.120000
    722    723     1   0.15241 261918.400000
    723    729     1   0.12183 533627.360000
    723   1508     1   0.13789 357815.680000
    724    725     1   0.15241 261918.400000
    725    730     1   0.12183 533627.360000
    725   1534     1   0.13789 357815.680000
    726    727     1   0.15375 251793.120000
    727    728     1   0.14619 275056.160000
    745    746     1   0.15110 237065.440000
    745    747     1   0.15110 237065.440000
    745    752     1   0.15110 237065.440000
    746    748     1   0.15375 251793.120000
    747    750     1   0.15375 251793.120000
    748    749     1   0.15241 261918.400000
    749    755     1   0.12183 533627.360000
    749   1560     1   0.13789 357815.680000
    750    751     1   0.15241 261918.400000
    751    756     1   0.12183 533627.360000
    751   1586     1   0.13789 357815.680000
    752    753     1   0.15375 251793.120000
    753    754     1   0.14619 275056.160000
    771    772     1   0.15110 237065.440000
    771    773     1   0.15110 237065.440000
    771    778     1   0.15110 237065.440000
    772    774     1   0.15375 251793.120000
    773    776     1   0.15375 251793.120000
    774    775     1   0.15241 261918.400000
    775    781     1   0.12183 533627.360000
    775   1612     1   0.13789 357815.680000
    776    777     1   0.15241 261918.400000
    777    782     1   0.12183 533627.360000
    777   1638     1   0.13789 357815.680000
    778    779     1   0.15375 251793.120000
    779    780     1   0.14619 275056.160000
    797    798     1   0.15110 237065.440000
    797    799     1   0.15110 237065.440000
    797    804     1   0.15110 237065.440000
    798    800     1   0.15375 251793.120000
    799    802     1   0.15375 251793.120000
    800    801     1   0.15241 261918.400000
    801    807     1   0.12183 533627.360000
    801   1664     1   0.13789 357815.680000
    802    803     1   0.15241 261918.400000
    803    808     1   0.12183 533627.360000
    803   1690     1   0.13789 357815.680000
    804    805     1   0.15375 251793.120000
    805    806     1   0.14619 275056.160000
    823    824     1   0.15110 237065.440000
    823    825     1   0.15110 237065.440000
    823    830     1   0.15110 237065.440000
    824    826     1   0.15375 251793.120000
    825    828     1   0.15375 251793.120000
    826    827     1   0.15241 261918.400000
    827    833     1   0.12183 533627.360000
    827   1716     1   0.13789 357815.680000
    828    829     1   0.15241 261918.400000
    829    834     1   0.12183 533627.360000
    829   1742     1   0.13789 357815.680000
    830    831     1   0.15375 251793.120000
    831    832     1   0.14619 275056.160000
    849    850     1   0.15110 237065.440000
    849    851     1   0.15110 237065.440000
    849    856     1   0.15110 237065.440000
    850    852     1   0.15375 251793.120000
    851    854     1   0.15375 251793.120000
    852    853     1   0.15241 261918.400000
    853    859     1   0.12183 533627.360000
    853   1768     1   0.13789 357815.680000
    854    855     1   0.15241 261918.400000
    855    860     1   0.12183 533627.360000
    855   1794     1   0.13789 357815.680000
    856    857     1   0.15375 251793.120000
    857    858     1   0.14619 275056.160000
    875    876     1   0.15110 237065.440000
    875    877     1   0.15110 237065.440000
    875    882     1   0.15110 237065.440000
    876    878     1   0.15375 251793.120000
    877    880     1   0.15375 251793.120000
    878    879     1   0.15241 261918.400000
    879    885     1   0.12183 533627.360000
    879   1820     1   0.13789 357815.680000
    880    881     1   0.15241 261918.400000
    881    886     1   0.12183 533627.360000
    881   1846     1   0.13789 357815.680000
    882    883     1   0.15375 251793.120000
    883    884     1   0.14619 275056.160000
    901    902     1   0.15110 237065.440000
    901    903     1   0.15110 237065.440000
    901    908     1   0.15110 237065.440000
    902    904     1   0.15375 251793.120000
    903    906     1   0.15375 251793.120000
    904    905     1   0.15241 261918.400000
    905    911     1   0.12183 533627.360000
    905   1872     1   0.13789 357815.680000
    906    907     1   0.15241 261918.400000
    907    912     1   0.12183 533627.360000
    907   1898     1   0.13789 357815.680000
    908    909     1   0.15375 251793.120000
    909    910     1   0.14619 275056.160000
    927    928     1   0.15110 237065.440000
    927    929     1   0.15110 237065.440000
    927    934     1   0.15110 237065.440000
    928    930     1   0.15375 251793.120000
    929    932     1   0.15375 251793.120000
    930    931     1   0.15241 261918.400000
    931    937     1   0.12183 533627.360000
    931   1924     1   0.13789 357815.680000
    932    933     1   0.15241 261918.400000
    933    938     1   0.12183 533627.360000
    933   1950     1   0.13789 357815.680000
    934    935     1   0.15375 251793.120000
    935    936     1   0.14619 275056.160000
    953    954     1   0.15110 237065.440000
    953    955     1   0.15110 237065.440000
    953    960     1   0.15110 237065.440000
    954    956     1   0.15375 251793.120000
    955    958     1   0.15375 251793.120000
    956    957     1   0.15241 261918.400000
    957    963     1   0.12183 533627.360000
    957   1976     1   0.13789 357815.680000
    958    959     1   0.15241 261918.400000
    959    964     1   0.12183 533627.360000
    959   2002     1   0.13789 357815.680000
    960    961     1   0.15375 251793.120000
    961    962     1   0.14619 275056.160000
    979    980     1   0.15110 237065.440000
    979    981     1   0.15110 237065.440000
    979    986     1   0.15110 237065.440000
    980    982     1   0.15375 251793.120000
    981    984     1   0.15375 251793.120000
    982    983     1   0.15241 261918.400000
    983    989     1   0.12183 533627.360000
    983   2028     1   0.13789 357815.680000
    984    985     1   0.15241 261918.400000
    985    990     1   0.12183 533627.360000
    985   2054     1   0.13789 357815.680000
    986    987     1   0.15375 251793.120000
    987    988     1   0.14619 275056.160000
   1005   1006     1   0.15110 237065.440000
   1005   1007     1   0.15110 237065.440000
   1005   1012     1   0.15110 237065.440000
   1006   1008     1   0.15375 251793.120000
   1007   1010     1   0.15375 251793.120000
   1008   1009     1   0.15241 261918.400000
   1009   1015     1   0.12183 533627.360000
   1009   2080     1   0.13789 357815.680000
   1010   1011     1   0.15241 261918.400000
   1011   1016     1   0.12183 533627.360000
   1011   2106     1   0.13789 357815.680000
   1012   1013     1   0.15375 251793.120000
   1013   1014     1   0.14619 275056.160000
   1031   1032     1   0.15110 237065.440000
   1031   1033     1   0.15110 237065.440000
   1031   1038     1   0.15110 237065.440000
   1032   1034     1   0.15375 251793.120000
   1033   1036     1   0.15375 251793.120000
   1034   1035     1   0.15241 261918.400000
   1035   1041     1   0.12183 533627.360000
   1035   2132     1   0.13789 357815.680000
   1036   1037     1   0.15241 261918.400000
   1037   1042     1   0.12183 533627.360000
   1037   2158     1   0.13789 357815.680000
   1038   1039     1   0.15375 251793.120000
   1039   1040     1   0.14619 275056.160000
   1057   1058     1   0.15110 237065.440000
   1057   1059     1   0.15110 237065.440000
   1057   1064     1   0.15110 237065.440000
   1058   1060     1   0.15375 251793.120000
   1059   1062     1   0.15375 251793.120000
   1060   1061     1   0.15241 261918.400000
   1061   1067     1   0.12183 533627.360000
   1061   2184     1   0.13789 357815.680000
   1062   1063     1   0.15241 261918.400000
   1063   1068     1   0.12183 533627.360000
   1063   2210     1   0.13789 357815.680000
   1064   1065     1   0.15375 251793.120000
   1065   1066     1   0.14619 275056.160000
   1083   1084     1   0.15110 237065.440000
   1083   1085     1   0.15110 237065.440000
   1083   1090     1   0.15110 237065.440000
   1084   1086     1   0.15375 251793.120000
   1085   1088     1   0.15375 251793.120000
   1086   1087     1   0.15241 261918.400000
   1087   1093     1   0.12183 533627.360000
   1087   2236     1   0.13789 357815.680000
   1088   1089     1   0.15241 261918.400000
   1089   1094     1   0.12183 533627.360000
   1089   2262     1   0.13789 357815.680000
   1090   1091     1   0.15375 251793.120000
   1091   1092     1   0.14619 275056.160000
   1109   1110     1   0.15110 237065.440000
   1109   1111     1   0.15110 237065.440000
   1109   1116     1   0.15110 237065.440000
   1110   1112     1   0.15375 251793.120000
   1111   1114     1   0.15375 251793.120000
   1112   1113     1   0.15241 261918.400000
   1113   1119     1   0.12183 533627.360000
   1113   2288     1   0.13789 357815.680000
   1114   1115     1   0.15241 261918.400000
   1115   1120     1   0.12183 533627.360000
   1115   2314     1   0.13789 357815.680000
   1116   1117     1   0.15375 251793.120000
   1117   1118     1   0.14619 275056.160000
   1135   1136     1   0.15110 237065.440000
   1135   1137     1   0.15110 237065.440000
   1135   1142     1   0.15110 237065.440000
   1136   1138     1   0.15375 251793.120000
   1137   1140     1   0.15375 251793.120000
   1138   1139     1   0.15241 261918.400000
   1139   1145     1   0.12183 533627.360000
   1139   2340     1   0.13789 357815.680000
   1140   1141     1   0.15241 261918.400000
   1141   1146     1   0.12183 533627.360000
   1141   2366     1   0.13789 357815.680000
   1142   1143     1   0.15375 251793.120000
   1143   1144     1   0.14619 275056.160000
   1161   1162     1   0.15110 237065.440000
   1161   1163     1   0.15110 237065.440000
   1161   1168     1   0.15110 237065.440000
   1162   1164     1   0.15375 251793.120000
   1163   1166     1   0.15375 251793.120000
   1164   1165     1   0.15241 261918.400000
   1165   1171     1   0.12183 533627.360000
   1165   2392     1   0.13789 357815.680000
   1166   1167     1   0.15241 261918.400000
   1167   1172     1   0.12183 533627.360000
   1167   2418     1   0.13789 357815.680000
   1168   1169     1   0.15375 251793.120000
   1169   1170     1   0.14619 275056.160000
   1187   1188     1   0.15110 237065.440000
   1187   1189     1   0.15110 237065.440000
   1187   1194     1   0.15110 237065.440000
   1188   1190     1   0.15375 251793.120000
   1189   1192     1   0.15375 251793.120000
   1190   1191     1   0.15241 261918.400000
   1191   1197     1   0.12183 533627.360000
   1191   2444     1   0.13789 357815.680000
   1192   1193     1   0.15241 261918.400000
   1193   1198     1   0.12183 533627.360000
   1193   2470     1   0.13789 357815.680000
   1194   1195     1   0.15375 251793.120000
   1195   1196     1   0.14619 275056.160000
   1213   1214     1   0.15110 237065.440000
   1213   1215     1   0.15110 237065.440000
   1213   1220     1   0.15110 237065.440000
   1214   1216     1   0.15375 251793.120000
   1215   1218     1   0.15375 251793.120000
   1216   1217     1   0.15241 261918.400000
   1217   1223     1   0.12183 533627.360000
   1217   2496     1   0.13789 357815.680000
   1218   1219     1   0.15241 261918.400000
   1219   1224     1   0.12183 533627.360000
   1219   2522     1   0.13789 357815.680000
   1220   1221     1   0.15375 251793.120000
   1221   1222     1   0.14619 275056.160000
   1239   1240     1   0.15110 237065.440000
   1239   1241     1   0.15110 237065.440000
   1239   1246     1   0.15110 237065.440000
   1240   1242     1   0.15375 251793.120000
   1241   1244     1   0.15375 251793.120000
   1242   1243     1   0.15241 261918.400000
   1243   1249     1   0.12183 533627.360000
   1243   2548     1   0.13789 357815.680000
   1244   1245     1   0.15241 261918.400000
   1245   1250     1   0.12183 533627.360000
   1245   2574     1   0.13789 357815.680000
   1246   1247     1   0.15375 251793.120000
   1247   1248     1   0.14619 275056.160000
   1265   1266     1   0.15110 237065.440000
   1265   1267     1   0.15110 237065.440000
   1265   1272     1   0.15110 237065.440000
   1266   1268     1   0.15375 251793.120000
   1267   1270     1   0.15375 251793.120000
   1268   1269     1   0.15241 261918.400000
   1269   1275     1   0.12183 533627.360000
   1269   2600     1   0.13789 357815.680000
   1270   1271     1   0.15241 261918.400000
   1271   1276     1   0.12183 533627.360000
   1271   2626     1   0.13789 357815.680000
   1272   1273     1   0.15375 251793.120000
   1273   1274     1   0.14619 275056.160000
   1291   1292     1   0.15110 237065.440000
   1291   1293     1   0.15110 237065.440000
   1291   1298     1   0.15110 237065.440000
   1292   1294     1   0.15375 251793.120000
   1293   1296     1   0.15375 251793.120000
   1294   1295     1   0.15241 261918.400000
   1295   1301     1   0.12183 533627.360000
   1295   2652     1   0.13789 357815.680000
   1296   1297     1   0.15241 261918.400000
   1297   1302     1   0.12183 533627.360000
   1297   2678     1   0.13789 357815.680000
   1298   1299     1   0.15375 251793.120000
   1299   1300     1   0.14619 275056.160000
   1317   1318     1   0.15110 237065.440000
   1317   1319     1   0.15110 237065.440000
   1317   1324     1   0.15110 237065.440000
   1318   1320     1   0.15375 251793.120000
   1319   1322     1   0.15375 251793.120000
   1320   1321     1   0.15241 261918.400000
   1321   1327     1   0.12183 533627.360000
   1321   2704     1   0.13789 357815.680000
   1322   1323     1   0.15241 261918.400000
   1323   1328     1   0.12183 533627.360000
   1323   2730     1   0.13789 357815.680000
   1324   1325     1   0.15375 251793.120000
   1325   1326     1   0.14619 275056.160000
   1343   1344     1   0.15110 237065.440000
   1343   1345     1   0.15110 237065.440000
   1343   1350     1   0.15110 237065.440000
   1344   1346     1   0.15375 251793.120000
   1345   1348     1   0.15375 251793.120000
   1346   1347     1   0.15241 261918.400000
   1347   1353     1   0.12183 533627.360000
   1347   2756     1   0.13789 357815.680000
   1348   1349     1   0.15241 261918.400000
   1349   1354     1   0.12183 533627.360000
   1349   2782     1   0.13789 357815.680000
   1350   1351     1   0.15375 251793.120000
   1351   1352     1   0.14619 275056.160000
   1369   1370     1   0.15110 237065.440000
   1369   1371     1   0.15110 237065.440000
   1369   1376     1   0.15110 237065.440000
   1370   1372     1   0.15375 251793.120000
   1371   1374     1   0.15375 251793.120000
   1372   1373     1   0.15241 261918.400000
   1373   1379     1   0.12183 533627.360000
   1373   2808     1   0.13789 357815.680000
   1374   1375     1   0.15241 261918.400000
   1375   1380     1   0.12183 533627.360000
   1375   2834     1   0.13789 357815.680000
   1376   1377     1   0.15375 251793.120000
   1377   1378     1   0.14619 275056.160000
   1395   1396     1   0.15110 237065.440000
   1395   1397     1   0.15110 237065.440000
   1395   1402     1   0.15110 237065.440000
   1396   1398     1   0.15375 251793.120000
   1397   1400     1   0.15375 251793.120000
   1398   1399     1   0.15241 261918.400000
   1399   1405     1   0.12183 533627.360000
   1399   2860     1   0.13789 357815.680000
   1400   1401     1   0.15241 261918.400000
   1401   1406     1   0.12183 533627.360000
   1401   2886     1   0.13789 357815.680000
   1402   1403     1   0.15375 251793.120000
   1403   1404     1   0.14619 275056.160000
   1421   1422     1   0.15110 237065.440000
   1421   1423     1   0.15110 237065.440000
   1421   1428     1   0.15110 237065.440000
   1422   1424     1   0.15375 251793.120000
   1423   1426     1   0.15375 251793.120000
   1424   1425     1   0.15241 261918.400000
   1425   1431     1   0.12183 533627.360000
   1425   2912     1   0.13789 357815.680000
   1426   1427     1   0.15241 261918.400000
   1427   1432     1   0.12183 533627.360000
   1427   2938     1   0.13789 357815.680000
   1428   1429     1   0.15375 251793.120000
   1429   1430     1   0.14619 275056.160000
   1447   1448     1   0.15110 237065.440000
   1447   1449     1   0.15110 237065.440000
   1447   1454     1   0.15110 237065.440000
   1448   1450     1   0.15375 251793.120000
   1449   1452     1   0.15375 251793.120000
   1450   1451     1   0.15241 261918.400000
   1451   1457     1   0.12183 533627.360000
   1451   2964     1   0.13789 357815.680000
   1452   1453     1   0.15241 261918.400000
   1453   1458     1   0.12183 533627.360000
   1453   2990     1   0.13789 357815.680000
   1454   1455     1   0.15375 251793.120000
   1455   1456     1   0.14619 275056.160000
   1473   1474     1   0.15110 237065.440000
   1473   1475     1   0.15110 237065.440000
   1473   1480     1   0.15110 237065.440000
   1474   1476     1   0.15375 251793.120000
   1475   1478     1   0.15375 251793.120000
   1476   1477     1   0.15241 261918.400000
   1477   1483     1   0.12183 533627.360000
   1477   3016     1   0.13789 357815.680000
   1478   1479     1   0.15241 261918.400000
   1479   1484     1   0.12183 533627.360000
   1479   3042     1   0.13789 357815.680000
   1480   1481     1   0.15375 251793.120000
   1481   1482     1   0.14619 275056.160000
   1499   1500     1   0.15110 237065.440000
   1499   1501     1   0.15110 237065.440000
   1499   1506     1   0.15110 237065.440000
   1500   1502     1   0.15375 251793.120000
   1501   1504     1   0.15375 251793.120000
   1502   1503     1   0.15241 261918.400000
   1503   1509     1   0.12183 533627.360000
   1503   3068     1   0.13789 357815.680000
   1504   1505     1   0.15241 261918.400000
   1505   1510     1   0.12183 533627.360000
   1505   3094     1   0.13789 357815.680000
   1506   1507     1   0.15375 251793.120000
   1507   1508     1   0.14619 275056.160000
   1525   1526     1   0.15110 237065.440000
   1525   1527     1   0.15110 237065.440000
   1525   1532     1   0.15110 237065.440000
   1526   1528     1   0.15375 251793.120000
   1527   1530     1   0.15375 251793.120000
   1528   1529     1   0.15241 261918.400000
   1529   1535     1   0.12183 533627.360000
   1529   3120     1   0.13789 357815.680000
   1530   1531     1   0.15241 261918.400000
   1531   1536     1   0.12183 533627.360000
   1531   3146     1   0.13789 357815.680000
   1532   1533     1   0.15375 251793.120000
   1533   1534     1   0.14619 275056.160000
   1551   1552     1   0.15110 237065.440000
   1551   1553     1   0.15110 237065.440000
   1551   1558     1   0.15110 237065.440000
   1552   1554     1   0.15375 251793.120000
   1553   1556     1   0.15375 251793.120000
   1554   1555     1   0.15241 261918.400000
   1555   1561     1   0.12183 533627.360000
   1555   3172     1   0.13789 357815.680000
   1556   1557     1   0.15241 261918.400000
   1557   1562     1   0.12183 533627.360000
   1557   3198     1   0.13789 357815.680000
   1558   1559     1   0.15375 251793.120000
   1559   1560     1   0.14619 275056.160000
   1577   1578     1   0.15110 237065.440000
   1577   1579     1   0.15110 237065.440000
   1577   1584     1   0.15110 237065.440000
   1578   1580     1   0.15375 251793.120000
   1579   1582     1   0.15375 251793.120000
   1580   1581     1   0.15241 261918.400000
   1581   1587     1   0.12183 533627.360000
   1581   3224     1   0.13789 357815.680000
   1582   1583     1   0.15241 261918.400000
   1583   1588     1   0.12183 533627.360000
   1583   3250     1   0.13789 357815.680000
   1584   1585     1   0.15375 251793.120000
   1585   1586     1   0.14619 275056.160000
   1603   1604     1   0.15110 237065.440000
   1603   1605     1   0.15110 237065.440000
   1603   1610     1   0.15110 237065.440000
   1604   1606     1   0.15375 251793.120000
   1605   1608     1   0.15375 251793.120000
   1606   1607     1   0.15241 261918.400000
   1607   3267     1   0.13789 357815.680000
   1607   1613     1   0.12183 533627.360000
   1608   1609     1   0.15241 261918.400000
   1609   1614     1   0.12183 533627.360000
   1609   3279     1   0.13789 357815.680000
   1610   1611     1   0.15375 251793.120000
   1611   1612     1   0.14619 275056.160000
   1629   1630     1   0.15110 237065.440000
   1629   1631     1   0.15110 237065.440000
   1629   1636     1   0.15110 237065.440000
   1630   1632     1   0.15375 251793.120000
   1631   1634     1   0.15375 251793.120000
   1632   1633     1   0.15241 261918.400000
   1633   3291     1   0.13789 357815.680000
   1633   1639     1   0.12183 533627.360000
   1634   1635     1   0.15241 261918.400000
   1635   1640     1   0.12183 533627.360000
   1635   3303     1   0.13789 357815.680000
   1636   1637     1   0.15375 251793.120000
   1637   1638     1   0.14619 275056.160000
   1655   1656     1   0.15110 237065.440000
   1655   1657     1   0.15110 237065.440000
   1655   1662     1   0.15110 237065.440000
   1656   1658     1   0.15375 251793.120000
   1657   1660     1   0.15375 251793.120000
   1658   1659     1   0.15241 261918.400000
   1659   3315     1   0.13789 357815.680000
   1659   1665     1   0.12183 533627.360000
   1660   1661     1   0.15241 261918.400000
   1661   1666     1   0.12183 533627.360000
   1661   3327     1   0.13789 357815.680000
   1662   1663     1   0.15375 251793.120000
   1663   1664     1   0.14619 275056.160000
   1681   1682     1   0.15110 237065.440000
   1681   1683     1   0.15110 237065.440000
   1681   1688     1   0.15110 237065.440000
   1682   1684     1   0.15375 251793.120000
   1683   1686     1   0.15375 251793.120000
   1684   1685     1   0.15241 261918.400000
   1685   3339     1   0.13789 357815.680000
   1685   1691     1   0.12183 533627.360000
   1686   1687     1   0.15241 261918.400000
   1687   1692     1   0.12183 533627.360000
   1687   3351     1   0.13789 357815.680000
   1688   1689     1   0.15375 251793.120000
   1689   1690     1   0.14619 275056.160000
   1707   1708     1   0.15110 237065.440000
   1707   1709     1   0.15110 237065.440000
   1707   1714     1   0.15110 237065.440000
   1708   1710     1   0.15375 251793.120000
   1709   1712     1   0.15375 251793.120000
   1710   1711     1   0.15241 261918.400000
   1711   3363     1   0.13789 357815.680000
   1711   1717     1   0.12183 533627.360000
   1712   1713     1   0.15241 261918.400000
   1713   1718     1   0.12183 533627.360000
   1713   3375     1   0.13789 357815.680000
   1714   1715     1   0.15375 251793.120000
   1715   1716     1   0.14619 275056.160000
   1733   1734     1   0.15110 237065.440000
   1733   1735     1   0.15110 237065.440000
   1733   1740     1   0.15110 237065.440000
   1734   1736     1   0.15375 251793.120000
   1735   1738     1   0.15375 251793.120000
   1736   1737     1   0.15241 261918.400000
   1737   3387     1   0.13789 357815.680000
   1737   1743     1   0.12183 533627.360000
   1738   1739     1   0.15241 261918.400000
   1739   1744     1   0.12183 533627.360000
   1739   3399     1   0.13789 357815.680000
   1740   1741     1   0.15375 251793.120000
   1741   1742     1   0.14619 275056.160000
   1759   1760     1   0.15110 237065.440000
   1759   1761     1   0.15110 237065.440000
   1759   1766     1   0.15110 237065.440000
   1760   1762     1   0.15375 251793.120000
   1761   1764     1   0.15375 251793.120000
   1762   1763     1   0.15241 261918.400000
   1763   3411     1   0.13789 357815.680000
   1763   1769     1   0.12183 533627.360000
   1764   1765     1   0.15241 261918.400000
   1765   1770     1   0.12183 533627.360000
   1765   3423     1   0.13789 357815.680000
   1766   1767     1   0.15375 251793.120000
   1767   1768     1   0.14619 275056.160000
   1785   1786     1   0.15110 237065.440000
   1785   1787     1   0.15110 237065.440000
   1785   1792     1   0.15110 237065.440000
   1786   1788     1   0.15375 251793.120000
   1787   1790     1   0.15375 251793.120000
   1788   1789     1   0.15241 261918.400000
   1789   3435     1   0.13789 357815.680000
   1789   1795     1   0.12183 533627.360000
   1790   1791     1   0.15241 261918.400000
   1791   1796     1   0.12183 533627.360000
   1791   3447     1   0.13789 357815.680000
   1792   1793     1   0.15375 251793.120000
   1793   1794     1   0.14619 275056.160000
   1811   1812     1   0.15110 237065.440000
   1811   1813     1   0.15110 237065.440000
   1811   1818     1   0.15110 237065.440000
   1812   1814     1   0.15375 251793.120000
   1813   1816     1   0.15375 251793.120000
   1814   1815     1   0.15241 261918.400000
   1815   3459     1   0.13789 357815.680000
   1815   1821     1   0.12183 533627.360000
   1816   1817     1   0.15241 261918.400000
   1817   1822     1   0.12183 533627.360000
   1817   3471     1   0.13789 357815.680000
   1818   1819     1   0.15375 251793.120000
   1819   1820     1   0.14619 275056.160000
   1837   1838     1   0.15110 237065.440000
   1837   1839     1   0.15110 237065.440000
   1837   1844     1   0.15110 237065.440000
   1838   1840     1   0.15375 251793.120000
   1839   1842     1   0.15375 251793.120000
   1840   1841     1   0.15241 261918.400000
   1841   3483     1   0.13789 357815.680000
   1841   1847     1   0.12183 533627.360000
   1842   1843     1   0.15241 261918.400000
   1843   1848     1   0.12183 533627.360000
   1843   3495     1   0.13789 357815.680000
   1844   1845     1   0.15375 251793.120000
   1845   1846     1   0.14619 275056.160000
   1863   1864     1   0.15110 237065.440000
   1863   1865     1   0.15110 237065.440000
   1863   1870     1   0.15110 237065.440000
   1864   1866     1   0.15375 251793.120000
   1865   1868     1   0.15375 251793.120000
   1866   1867     1   0.15241 261918.400000
   1867   3507     1   0.13789 357815.680000
   1867   1873     1   0.12183 533627.360000
   1868   1869     1   0.15241 261918.400000
   1869   1874     1   0.12183 533627.360000
   1869   3519     1   0.13789 357815.680000
   1870   1871     1   0.15375 251793.120000
   1871   1872     1   0.14619 275056.160000
   1889   1890     1   0.15110 237065.440000
   1889   1891     1   0.15110 237065.440000
   1889   1896     1   0.15110 237065.440000
   1890   1892     1   0.15375 251793.120000
   1891   1894     1   0.15375 251793.120000
   1892   1893     1   0.15241 261918.400000
   1893   3531     1   0.13789 357815.680000
   1893   1899     1   0.12183 533627.360000
   1894   1895     1   0.15241 261918.400000
   1895   1900     1   0.12183 533627.360000
   1895   3543     1   0.13789 357815.680000
   1896   1897     1   0.15375 251793.120000
   1897   1898     1   0.14619 275056.160000
   1915   1916     1   0.15110 237065.440000
   1915   1917     1   0.15110 237065.440000
   1915   1922     1   0.15110 237065.440000
   1916   1918     1   0.15375 251793.120000
   1917   1920     1   0.15375 251793.120000
   1918   1919     1   0.15241 261918.400000
   1919   3555     1   0.13789 357815.680000
   1919   1925     1   0.12183 533627.360000
   1920   1921     1   0.15241 261918.400000
   1921   1926     1   0.12183 533627.360000
   1921   3567     1   0.13789 357815.680000
   1922   1923     1   0.15375 251793.120000
   1923   1924     1   0.14619 275056.160000
   1941   1942     1   0.15110 237065.440000
   1941   1943     1   0.15110 237065.440000
   1941   1948     1   0.15110 237065.440000
   1942   1944     1   0.15375 251793.120000
   1943   1946     1   0.15375 251793.120000
   1944   1945     1   0.15241 261918.400000
   1945   3579     1   0.13789 357815.680000
   1945   1951     1   0.12183 533627.360000
   1946   1947     1   0.15241 261918.400000
   1947   1952     1   0.12183 533627.360000
   1947   3591     1   0.13789 357815.680000
   1948   1949     1   0.15375 251793.120000
   1949   1950     1   0.14619 275056.160000
   1967   1968     1   0.15110 237065.440000
   1967   1969     1   0.15110 237065.440000
   1967   1974     1   0.15110 237065.440000
   1968   1970     1   0.15375 251793.120000
   1969   1972     1   0.15375 251793.120000
   1970   1971     1   0.15241 261918.400000
   1971   3603     1   0.13789 357815.680000
   1971   1977     1   0.12183 533627.360000
   1972   1973     1   0.15241 261918.400000
   1973   1978     1   0.12183 533627.360000
   1973   3615     1   0.13789 357815.680000
   1974   1975     1   0.15375 251793.120000
   1975   1976     1   0.14619 275056.160000
   1993   1994     1   0.15110 237065.440000
   1993   1995     1   0.15110 237065.440000
   1993   2000     1   0.15110 237065.440000
   1994   1996     1   0.15375 251793.120000
   1995   1998     1   0.15375 251793.120000
   1996   1997     1   0.15241 261918.400000
   1997   3627     1   0.13789 357815.680000
   1997   2003     1   0.12183 533627.360000
   1998   1999     1   0.15241 261918.400000
   1999   2004     1   0.12183 533627.360000
   1999   3639     1   0.13789 357815.680000
   2000   2001     1   0.15375 251793.120000
   2001   2002     1   0.14619 275056.160000
   2019   2020     1   0.15110 237065.440000
   2019   2021     1   0.15110 237065.440000
   2019   2026     1   0.15110 237065.440000
   2020   2022     1   0.15375 251793.120000
   2021   2024     1   0.15375 251793.120000
   2022   2023     1   0.15241 261918.400000
   2023   3651     1   0.13789 357815.680000
   2023   2029     1   0.12183 533627.360000
   2024   2025     1   0.15241 261918.400000
   2025   2030     1   0.12183 533627.360000
   2025   3663     1   0.13789 357815.680000
   2026   2027     1   0.15375 251793.120000
   2027   2028     1   0.14619 275056.160000
   2045   2046     1   0.15110 237065.440000
   2045   2047     1   0.15110 237065.440000
   2045   2052     1   0.15110 237065.440000
   2046   2048     1   0.15375 251793.120000
   2047   2050     1   0.15375 251793.120000
   2048   2049     1   0.15241 261918.400000
   2049   3675     1   0.13789 357815.680000
   2049   2055     1   0.12183 533627.360000
   2050   2051     1   0.15241 261918.400000
   2051   2056     1   0.12183 533627.360000
   2051   3687     1   0.13789 357815.680000
   2052   2053     1   0.15375 251793.120000
   2053   2054     1   0.14619 275056.160000
   2071   2072     1   0.15110 237065.440000
   2071   2073     1   0.15110 237065.440000
   2071   2078     1   0.15110 237065.440000
   2072   2074     1   0.15375 251793.120000
   2073   2076     1   0.15375 251793.120000
   2074   2075     1   0.15241 261918.400000
   2075   3699     1   0.13789 357815.680000
   2075   2081     1   0.12183 533627.360000
   2076   2077     1   0.15241 261918.400000
   2077   2082     1   0.12183 533627.360000
   2077   3711     1   0.13789 357815.680000
   2078   2079     1   0.15375 251793.120000
   2079   2080     1   0.14619 275056.160000
   2097   2098     1   0.15110 237065.440000
   2097   2099     1   0.15110 237065.440000
   2097   2104     1   0.15110 237065.440000
   2098   2100     1   0.15375 251793.120000
   2099   2102     1   0.15375 251793.120000
   2100   2101     1   0.15241 261918.400000
   2101   3723     1   0.13789 357815.680000
   2101   2107     1   0.12183 533627.360000
   2102   2103     1   0.15241 261918.400000
   2103   2108     1   0.12183 533627.360000
   2103   3735     1   0.13789 357815.680000
   2104   2105     1   0.15375 251793.120000
   2105   2106     1   0.14619 275056.160000
   2123   2124     1   0.15110 237065.440000
   2123   2125     1   0.15110 237065.440000
   2123   2130     1   0.15110 237065.440000
   2124   2126     1   0.15375 251793.120000
   2125   2128     1   0.15375 251793.120000
   2126   2127     1   0.15241 261918.400000
   2127   3747     1   0.13789 357815.680000
   2127   2133     1   0.12183 533627.360000
   2128   2129     1   0.15241 261918.400000
   2129   2134     1   0.12183 533627.360000
   2129   3759     1   0.13789 357815.680000
   2130   2131     1   0.15375 251793.120000
   2131   2132     1   0.14619 275056.160000
   2149   2150     1   0.15110 237065.440000
   2149   2151     1   0.15110 237065.440000
   2149   2156     1   0.15110 237065.440000
   2150   2152     1   0.15375 251793.120000
   2151   2154     1   0.15375 251793.120000
   2152   2153     1   0.15241 261918.400000
   2153   3771     1   0.13789 357815.680000
   2153   2159     1   0.12183 533627.360000
   2154   2155     1   0.15241 261918.400000
   2155   2160     1   0.12183 533627.360000
   2155   3783     1   0.13789 357815.680000
   2156   2157     1   0.15375 251793.120000
   2157   2158     1   0.14619 275056.160000
   2175   2176     1   0.15110 237065.440000
   2175   2177     1   0.15110 237065.440000
   2175   2182     1   0.15110 237065.440000
   2176   2178     1   0.15375 251793.120000
   2177   2180     1   0.15375 251793.120000
   2178   2179     1   0.15241 261918.400000
   2179   3795     1   0.13789 357815.680000
   2179   2185     1   0.12183 533627.360000
   2180   2181     1   0.15241 261918.400000
   2181   2186     1   0.12183 533627.360000
   2181   3807     1   0.13789 357815.680000
   2182   2183     1   0.15375 251793.120000
   2183   2184     1   0.14619 275056.160000
   2201   2202     1   0.15110 237065.440000
   2201   2203     1   0.15110 237065.440000
   2201   2208     1   0.15110 237065.440000
   2202   2204     1   0.15375 251793.120000
   2203   2206     1   0.15375 251793.120000
   2204   2205     1   0.15241 261918.400000
   2205   3819     1   0.13789 357815.680000
   2205   2211     1   0.12183 533627.360000
   2206   2207     1   0.15241 261918.400000
   2207   2212     1   0.12183 533627.360000
   2207   3831     1   0.13789 357815.680000
   2208   2209     1   0.15375 251793.120000
   2209   2210     1   0.14619 275056.160000
   2227   2228     1   0.15110 237065.440000
   2227   2229     1   0.15110 237065.440000
   2227   2234     1   0.15110 237065.440000
   2228   2230     1   0.15375 251793.120000
   2229   2232     1   0.15375 251793.120000
   2230   2231     1   0.15241 261918.400000
   2231   3843     1   0.13789 357815.680000
   2231   2237     1   0.12183 533627.360000
   2232   2233     1   0.15241 261918.400000
   2233   2238     1   0.12183 533627.360000
   2233   3855     1   0.13789 357815.680000
   2234   2235     1   0.15375 251793.120000
   2235   2236     1   0.14619 275056.160000
   2253   2254     1   0.15110 237065.440000
   2253   2255     1   0.15110 237065.440000
   2253   2260     1   0.15110 237065.440000
   2254   2256     1   0.15375 251793.120000
   2255   2258     1   0.15375 251793.120000
   2256   2257     1   0.15241 261918.400000
   2257   3867     1   0.13789 357815.680000
   2257   2263     1   0.12183 533627.360000
   2258   2259     1   0.15241 261918.400000
   2259   2264     1   0.12183 533627.360000
   2259   3879     1   0.13789 357815.680000
   2260   2261     1   0.15375 251793.120000
   2261   2262     1   0.14619 275056.160000
   2279   2280     1   0.15110 237065.440000
   2279   2281     1   0.15110 237065.440000
   2279   2286     1   0.15110 237065.440000
   2280   2282     1   0.15375 251793.120000
   2281   2284     1   0.15375 251793.120000
   2282   2283     1   0.15241 261918.400000
   2283   3891     1   0.13789 357815.680000
   2283   2289     1   0.12183 533627.360000
   2284   2285     1   0.15241 261918.400000
   2285   2290     1   0.12183 533627.360000
   2285   3903     1   0.13789 357815.680000
   2286   2287     1   0.15375 251793.120000
   2287   2288     1   0.14619 275056.160000
   2305   2306     1   0.15110 237065.440000
   2305   2307     1   0.15110 237065.440000
   2305   2312     1   0.15110 237065.440000
   2306   2308     1   0.15375 251793.120000
   2307   2310     1   0.15375 251793.120000
   2308   2309     1   0.15241 261918.400000
   2309   3915     1   0.13789 357815.680000
   2309   2315     1   0.12183 533627.360000
   2310   2311     1   0.15241 261918.400000
   2311   2316     1   0.12183 533627.360000
   2311   3927     1   0.13789 357815.680000
   2312   2313     1   0.15375 251793.120000
   2313   2314     1   0.14619 275056.160000
   2331   2332     1   0.15110 237065.440000
   2331   2333     1   0.15110 237065.440000
   2331   2338     1   0.15110 237065.440000
   2332   2334     1   0.15375 251793.120000
   2333   2336     1   0.15375 251793.120000
   2334   2335     1   0.15241 261918.400000
   2335   3939     1   0.13789 357815.680000
   2335   2341     1   0.12183 533627.360000
   2336   2337     1   0.15241 261918.400000
   2337   2342     1   0.12183 533627.360000
   2337   3951     1   0.13789 357815.680000
   2338   2339     1   0.15375 251793.120000
   2339   2340     1   0.14619 275056.160000
   2357   2358     1   0.15110 237065.440000
   2357   2359     1   0.15110 237065.440000
   2357   2364     1   0.15110 237065.440000
   2358   2360     1   0.15375 251793.120000
   2359   2362     1   0.15375 251793.120000
   2360   2361     1   0.15241 261918.400000
   2361   3963     1   0.13789 357815.680000
   2361   2367     1   0.12183 533627.360000
   2362   2363     1   0.15241 261918.400000
   2363   2368     1   0.12183 533627.360000
   2363   3975     1   0.13789 357815.680000
   2364   2365     1   0.15375 251793.120000
   2365   2366     1   0.14619 275056.160000
   2383   2384     1   0.15110 237065.440000
   2383   2385     1   0.15110 237065.440000
   2383   2390     1   0.15110 237065.440000
   2384   2386     1   0.15375 251793.120000
   2385   2388     1   0.15375 251793.120000
   2386   2387     1   0.15241 261918.400000
   2387   3987     1   0.13789 357815.680000
   2387   2393     1   0.12183 533627.360000
   2388   2389     1   0.15241 261918.400000
   2389   2394     1   0.12183 533627.360000
   2389   3999     1   0.13789 357815.680000
   2390   2391     1   0.15375 251793.120000
   2391   2392     1   0.14619 275056.160000
   2409   2410     1   0.15110 237065.440000
   2409   2411     1   0.15110 237065.440000
   2409   2416     1   0.15110 237065.440000
   2410   2412     1   0.15375 251793.120000
   2411   2414     1   0.15375 251793.120000
   2412   2413     1   0.15241 261918.400000
   2413   4011     1   0.13789 357815.680000
   2413   2419     1   0.12183 533627.360000
   2414   2415     1   0.15241 261918.400000
   2415   2420     1   0.12183 533627.360000
   2415   4023     1   0.13789 357815.680000
   2416   2417     1   0.15375 251793.120000
   2417   2418     1   0.14619 275056.160000
   2435   2436     1   0.15110 237065.440000
   2435   2437     1   0.15110 237065.440000
   2435   2442     1   0.15110 237065.440000
   2436   2438     1   0.15375 251793.120000
   2437   2440     1   0.15375 251793.120000
   2438   2439     1   0.15241 261918.400000
   2439   4035     1   0.13789 357815.680000
   2439   2445     1   0.12183 533627.360000
   2440   2441     1   0.15241 261918.400000
   2441   2446     1   0.12183 533627.360000
   2441   4047     1   0.13789 357815.680000
   2442   2443     1   0.15375 251793.120000
   2443   2444     1   0.14619 275056.160000
   2461   2462     1   0.15110 237065.440000
   2461   2463     1   0.15110 237065.440000
   2461   2468     1   0.15110 237065.440000
   2462   2464     1   0.15375 251793.120000
   2463   2466     1   0.15375 251793.120000
   2464   2465     1   0.15241 261918.400000
   2465   4059     1   0.13789 357815.680000
   2465   2471     1   0.12183 533627.360000
   2466   2467     1   0.15241 261918.400000
   2467   2472     1   0.12183 533627.360000
   2467   4071     1   0.13789 357815.680000
   2468   2469     1   0.15375 251793.120000
   2469   2470     1   0.14619 275056.160000
   2487   2488     1   0.15110 237065.440000
   2487   2489     1   0.15110 237065.440000
   2487   2494     1   0.15110 237065.440000
   2488   2490     1   0.15375 251793.120000
   2489   2492     1   0.15375 251793.120000
   2490   2491     1   0.15241 261918.400000
   2491   4083     1   0.13789 357815.680000
   2491   2497     1   0.12183 533627.360000
   2492   2493     1   0.15241 261918.400000
   2493   2498     1   0.12183 533627.360000
   2493   4095     1   0.13789 357815.680000
   2494   2495     1   0.15375 251793.120000
   2495   2496     1   0.14619 275056.160000
   2513   2514     1   0.15110 237065.440000
   2513   2515     1   0.15110 237065.440000
   2513   2520     1   0.15110 237065.440000
   2514   2516     1   0.15375 251793.120000
   2515   2518     1   0.15375 251793.120000
   2516   2517     1   0.15241 261918.400000
   2517   4107     1   0.13789 357815.680000
   2517   2523     1   0.12183 533627.360000
   2518   2519     1   0.15241 261918.400000
   2519   2524     1   0.12183 533627.360000
   2519   4119     1   0.13789 357815.680000
   2520   2521     1   0.15375 251793.120000
   2521   2522     1   0.14619 275056.160000
   2539   2540     1   0.15110 237065.440000
   2539   2541     1   0.15110 237065.440000
   2539   2546     1   0.15110 237065.440000
   2540   2542     1   0.15375 251793.120000
   2541   2544     1   0.15375 251793.120000
   2542   2543     1   0.15241 261918.400000
   2543   4131     1   0.13789 357815.680000
   2543   2549     1   0.12183 533627.360000
   2544   2545     1   0.15241 261918.400000
   2545   2550     1   0.12183 533627.360000
   2545   4143     1   0.13789 357815.680000
   2546   2547     1   0.15375 251793.120000
   2547   2548     1   0.14619 275056.160000
   2565   2566     1   0.15110 237065.440000
   2565   2567     1   0.15110 237065.440000
   2565   2572     1   0.15110 237065.440000
   2566   2568     1   0.15375 251793.120000
   2567   2570     1   0.15375 251793.120000
   2568   2569     1   0.15241 261918.400000
   2569   4155     1   0.13789 357815.680000
   2569   2575     1   0.12183 533627.360000
   2570   2571     1   0.15241 261918.400000
   2571   2576     1   0.12183 533627.360000
   2571   4167     1   0.13789 357815.680000
   2572   2573     1   0.15375 251793.120000
   2573   2574     1   0.14619 275056.160000
   2591   2592     1   0.15110 237065.440000
   2591   2593     1   0.15110 237065.440000
   2591   2598     1   0.15110 237065.440000
   2592   2594     1   0.15375 251793.120000
   2593   2596     1   0.15375 251793.120000
   2594   2595     1   0.15241 261918.400000
   2595   4179     1   0.13789 357815.680000
   2595   2601     1   0.12183 533627.360000
   2596   2597     1   0.15241 261918.400000
   2597   2602     1   0.12183 533627.360000
   2597   4191     1   0.13789 357815.680000
   2598   2599     1   0.15375 251793.120000
   2599   2600     1   0.14619 275056.160000
   2617   2618     1   0.15110 237065.440000
   2617   2619     1   0.15110 237065.440000
   2617   2624     1   0.15110 237065.440000
   2618   2620     1   0.15375 251793.120000
   2619   2622     1   0.15375 251793.120000
   2620   2621     1   0.15241 261918.400000
   2621   4203     1   0.13789 357815.680000
   2621   2627     1   0.12183 533627.360000
   2622   2623     1   0.15241 261918.400000
   2623   2628     1   0.12183 533627.360000
   2623   4215     1   0.13789 357815.680000
   2624   2625     1   0.15375 251793.120000
   2625   2626     1   0.14619 275056.160000
   2643   2644     1   0.15110 237065.440000
   2643   2645     1   0.15110 237065.440000
   2643   2650     1   0.15110 237065.440000
   2644   2646     1   0.15375 251793.120000
   2645   2648     1   0.15375 251793.120000
   2646   2647     1   0.15241 261918.400000
   2647   4227     1   0.13789 357815.680000
   2647   2653     1   0.12183 533627.360000
   2648   2649     1   0.15241 261918.400000
   2649   2654     1   0.12183 533627.360000
   2649   4239     1   0.13789 357815.680000
   2650   2651     1   0.15375 251793.120000
   2651   2652     1   0.14619 275056.160000
   2669   2670     1   0.15110 237065.440000
   2669   2671     1   0.15110 237065.440000
   2669   2676     1   0.15110 237065.440000
   2670   2672     1   0.15375 251793.120000
   2671   2674     1   0.15375 251793.120000
   2672   2673     1   0.15241 261918.400000
   2673   4251     1   0.13789 357815.680000
   2673   2679     1   0.12183 533627.360000
   2674   2675     1   0.15241 261918.400000
   2675   2680     1   0.12183 533627.360000
   2675   4263     1   0.13789 357815.680000
   2676   2677     1   0.15375 251793.120000
   2677   2678     1   0.14619 275056.160000
   2695   2696     1   0.15110 237065.440000
   2695   2697     1   0.15110 237065.440000
   2695   2702     1   0.15110 237065.440000
   2696   2698     1   0.15375 251793.120000
   2697   2700     1   0.15375 251793.120000
   2698   2699     1   0.15241 261918.400000
   2699   4275     1   0.13789 357815.680000
   2699   2705     1   0.12183 533627.360000
   2700   2701     1   0.15241 261918.400000
   2701   2706     1   0.12183 533627.360000
   2701   4287     1   0.13789 357815.680000
   2702   2703     1   0.15375 251793.120000
   2703   2704     1   0.14619 275056.160000
   2721   2722     1   0.15110 237065.440000
   2721   2723     1   0.15110 237065.440000
   2721   2728     1   0.15110 237065.440000
   2722   2724     1   0.15375 251793.120000
   2723   2726     1   0.15375 251793.120000
   2724   2725     1   0.15241 261918.400000
   2725   4299     1   0.13789 357815.680000
   2725   2731     1   0.12183 533627.360000
   2726   2727     1   0.15241 261918.400000
   2727   2732     1   0.12183 533627.360000
   2727   4311     1   0.13789 357815.680000
   2728   2729     1   0.15375 251793.120000
   2729   2730     1   0.14619 275056.160000
   2747   2748     1   0.15110 237065.440000
   2747   2749     1   0.15110 237065.440000
   2747   2754     1   0.15110 237065.440000
   2748   2750     1   0.15375 251793.120000
   2749   2752     1   0.15375 251793.120000
   2750   2751     1   0.15241 261918.400000
   2751   4323     1   0.13789 357815.680000
   2751   2757     1   0.12183 533627.360000
   2752   2753     1   0.15241 261918.400000
   2753   2758     1   0.12183 533627.360000
   2753   4335     1   0.13789 357815.680000
   2754   2755     1   0.15375 251793.120000
   2755   2756     1   0.14619 275056.160000
   2773   2774     1   0.15110 237065.440000
   2773   2775     1   0.15110 237065.440000
   2773   2780     1   0.15110 237065.440000
   2774   2776     1   0.15375 251793.120000
   2775   2778     1   0.15375 251793.120000
   2776   2777     1   0.15241 261918.400000
   2777   4347     1   0.13789 357815.680000
   2777   2783     1   0.12183 533627.360000
   2778   2779     1   0.15241 261918.400000
   2779   2784     1   0.12183 533627.360000
   2779   4359     1   0.13789 357815.680000
   2780   2781     1   0.15375 251793.120000
   2781   2782     1   0.14619 275056.160000
   2799   2800     1   0.15110 237065.440000
   2799   2801     1   0.15110 237065.440000
   2799   2806     1   0.15110 237065.440000
   2800   2802     1   0.15375 251793.120000
   2801   2804     1   0.15375 251793.120000
   2802   2803     1   0.15241 261918.400000
   2803   4371     1   0.13789 357815.680000
   2803   2809     1   0.12183 533627.360000
   2804   2805     1   0.15241 261918.400000
   2805   2810     1   0.12183 533627.360000
   2805   4383     1   0.13789 357815.680000
   2806   2807     1   0.15375 251793.120000
   2807   2808     1   0.14619 275056.160000
   2825   2826     1   0.15110 237065.440000
   2825   2827     1   0.15110 237065.440000
   2825   2832     1   0.15110 237065.440000
   2826   2828     1   0.15375 251793.120000
   2827   2830     1   0.15375 251793.120000
   2828   2829     1   0.15241 261918.400000
   2829   4395     1   0.13789 357815.680000
   2829   2835     1   0.12183 533627.360000
   2830   2831     1   0.15241 261918.400000
   2831   2836     1   0.12183 533627.360000
   2831   4407     1   0.13789 357815.680000
   2832   2833     1   0.15375 251793.120000
   2833   2834     1   0.14619 275056.160000
   2851   2852     1   0.15110 237065.440000
   2851   2853     1   0.15110 237065.440000
   2851   2858     1   0.15110 237065.440000
   2852   2854     1   0.15375 251793.120000
   2853   2856     1   0.15375 251793.120000
   2854   2855     1   0.15241 261918.400000
   2855   4419     1   0.13789 357815.680000
   2855   2861     1   0.12183 533627.360000
   2856   2857     1   0.15241 261918.400000
   2857   2862     1   0.12183 533627.360000
   2857   4431     1   0.13789 357815.680000
   2858   2859     1   0.15375 251793.120000
   2859   2860     1   0.14619 275056.160000
   2877   2878     1   0.15110 237065.440000
   2877   2879     1   0.15110 237065.440000
   2877   2884     1   0.15110 237065.440000
   2878   2880     1   0.15375 251793.120000
   2879   2882     1   0.15375 251793.120000
   2880   2881     1   0.15241 261918.400000
   2881   4443     1   0.13789 357815.680000
   2881   2887     1   0.12183 533627.360000
   2882   2883     1   0.15241 261918.400000
   2883   2888     1   0.12183 533627.360000
   2883   4455     1   0.13789 357815.680000
   2884   2885     1   0.15375 251793.120000
   2885   2886     1   0.14619 275056.160000
   2903   2904     1   0.15110 237065.440000
   2903   2905     1   0.15110 237065.440000
   2903   2910     1   0.15110 237065.440000
   2904   2906     1   0.15375 251793.120000
   2905   2908     1   0.15375 251793.120000
   2906   2907     1   0.15241 261918.400000
   2907   4467     1   0.13789 357815.680000
   2907   2913     1   0.12183 533627.360000
   2908   2909     1   0.15241 261918.400000
   2909   2914     1   0.12183 533627.360000
   2909   4479     1   0.13789 357815.680000
   2910   2911     1   0.15375 251793.120000
   2911   2912     1   0.14619 275056.160000
   2929   2930     1   0.15110 237065.440000
   2929   2931     1   0.15110 237065.440000
   2929   2936     1   0.15110 237065.440000
   2930   2932     1   0.15375 251793.120000
   2931   2934     1   0.15375 251793.120000
   2932   2933     1   0.15241 261918.400000
   2933   4491     1   0.13789 357815.680000
   2933   2939     1   0.12183 533627.360000
   2934   2935     1   0.15241 261918.400000
   2935   2940     1   0.12183 533627.360000
   2935   4503     1   0.13789 357815.680000
   2936   2937     1   0.15375 251793.120000
   2937   2938     1   0.14619 275056.160000
   2955   2956     1   0.15110 237065.440000
   2955   2957     1   0.15110 237065.440000
   2955   2962     1   0.15110 237065.440000
   2956   2958     1   0.15375 251793.120000
   2957   2960     1   0.15375 251793.120000
   2958   2959     1   0.15241 261918.400000
   2959   4515     1   0.13789 357815.680000
   2959   2965     1   0.12183 533627.360000
   2960   2961     1   0.15241 261918.400000
   2961   2966     1   0.12183 533627.360000
   2961   4527     1   0.13789 357815.680000
   2962   2963     1   0.15375 251793.120000
   2963   2964     1   0.14619 275056.160000
   2981   2982     1   0.15110 237065.440000
   2981   2983     1   0.15110 237065.440000
   2981   2988     1   0.15110 237065.440000
   2982   2984     1   0.15375 251793.120000
   2983   2986     1   0.15375 251793.120000
   2984   2985     1   0.15241 261918.400000
   2985   4539     1   0.13789 357815.680000
   2985   2991     1   0.12183 533627.360000
   2986   2987     1   0.15241 261918.400000
   2987   2992     1   0.12183 533627.360000
   2987   4551     1   0.13789 357815.680000
   2988   2989     1   0.15375 251793.120000
   2989   2990     1   0.14619 275056.160000
   3007   3008     1   0.15110 237065.440000
   3007   3009     1   0.15110 237065.440000
   3007   3014     1   0.15110 237065.440000
   3008   3010     1   0.15375 251793.120000
   3009   3012     1   0.15375 251793.120000
   3010   3011     1   0.15241 261918.400000
   3011   4563     1   0.13789 357815.680000
   3011   3017     1   0.12183 533627.360000
   3012   3013     1   0.15241 261918.400000
   3013   3018     1   0.12183 533627.360000
   3013   4575     1   0.13789 357815.680000
   3014   3015     1   0.15375 251793.120000
   3015   3016     1   0.14619 275056.160000
   3033   3034     1   0.15110 237065.440000
   3033   3035     1   0.15110 237065.440000
   3033   3040     1   0.15110 237065.440000
   3034   3036     1   0.15375 251793.120000
   3035   3038     1   0.15375 251793.120000
   3036   3037     1   0.15241 261918.400000
   3037   4587     1   0.13789 357815.680000
   3037   3043     1   0.12183 533627.360000
   3038   3039     1   0.15241 261918.400000
   3039   3044     1   0.12183 533627.360000
   3039   4599     1   0.13789 357815.680000
   3040   3041     1   0.15375 251793.120000
   3041   3042     1   0.14619 275056.160000
   3059   3060     1   0.15110 237065.440000
   3059   3061     1   0.15110 237065.440000
   3059   3066     1   0.15110 237065.440000
   3060   3062     1   0.15375 251793.120000
   3061   3064     1   0.15375 251793.120000
   3062   3063     1   0.15241 261918.400000
   3063   4611     1   0.13789 357815.680000
   3063   3069     1   0.12183 533627.360000
   3064   3065     1   0.15241 261918.400000
   3065   3070     1   0.12183 533627.360000
   3065   4623     1   0.13789 357815.680000
   3066   3067     1   0.15375 251793.120000
   3067   3068     1   0.14619 275056.160000
   3085   3086     1   0.15110 237065.440000
   3085   3087     1   0.15110 237065.440000
   3085   3092     1   0.15110 237065.440000
   3086   3088     1   0.15375 251793.120000
   3087   3090     1   0.15375 251793.120000
   3088   3089     1   0.15241 261918.400000
   3089   4635     1   0.13789 357815.680000
   3089   3095     1   0.12183 533627.360000
   3090   3091     1   0.15241 261918.400000
   3091   3096     1   0.12183 533627.360000
   3091   4647     1   0.13789 357815.680000
   3092   3093     1   0.15375 251793.120000
   3093   3094     1   0.14619 275056.160000
   3111   3112     1   0.15110 237065.440000
   3111   3113     1   0.15110 237065.440000
   3111   3118     1   0.15110 237065.440000
   3112   3114     1   0.15375 251793.120000
   3113   3116     1   0.15375 251793.120000
   3114   3115     1   0.15241 261918.400000
   3115   4659     1   0.13789 357815.680000
   3115   3121     1   0.12183 533627.360000
   3116   3117     1   0.15241 261918.400000
   3117   3122     1   0.12183 533627.360000
   3117   4671     1   0.13789 357815.680000
   3118   3119     1   0.15375 251793.120000
   3119   3120     1   0.14619 275056.160000
   3137   3138     1   0.15110 237065.440000
   3137   3139     1   0.15110 237065.440000
   3137   3144     1   0.15110 237065.440000
   3138   3140     1   0.15375 251793.120000
   3139   3142     1   0.15375 251793.120000
   3140   3141     1   0.15241 261918.400000
   3141   4683     1   0.13789 357815.680000
   3141   3147     1   0.12183 533627.360000
   3142   3143     1   0.15241 261918.400000
   3143   3148     1   0.12183 533627.360000
   3143   4695     1   0.13789 357815.680000
   3144   3145     1   0.15375 251793.120000
   3145   3146     1   0.14619 275056.160000
   3163   3164     1   0.15110 237065.440000
   3163   3165     1   0.15110 237065.440000
   3163   3170     1   0.15110 237065.440000
   3164   3166     1   0.15375 251793.120000
   3165   3168     1   0.15375 251793.120000
   3166   3167     1   0.15241 261918.400000
   3167   4707     1   0.13789 357815.680000
   3167   3173     1   0.12183 533627.360000
   3168   3169     1   0.15241 261918.400000
   3169   3174     1   0.12183 533627.360000
   3169   4719     1   0.13789 357815.680000
   3170   3171     1   0.15375 251793.120000
   3171   3172     1   0.14619 275056.160000
   3189   3190     1   0.15110 237065.440000
   3189   3191     1   0.15110 237065.440000
   3189   3196     1   0.15110 237065.440000
   3190   3192     1   0.15375 251793.120000
   3191   3194     1   0.15375 251793.120000
   3192   3193     1   0.15241 261918.400000
   3193   4731     1   0.13789 357815.680000
   3193   3199     1   0.12183 533627.360000
   3194   3195     1   0.15241 261918.400000
   3195   3200     1   0.12183 533627.360000
   3195   4743     1   0.13789 357815.680000
   3196   3197     1   0.15375 251793.120000
   3197   3198     1   0.14619 275056.160000
   3215   3216     1   0.15110 237065.440000
   3215   3217     1   0.15110 237065.440000
   3215   3222     1   0.15110 237065.440000
   3216   3218     1   0.15375 251793.120000
   3217   3220     1   0.15375 251793.120000
   3218   3219     1   0.15241 261918.400000
   3219   4755     1   0.13789 357815.680000
   3219   3225     1   0.12183 533627.360000
   3220   3221     1   0.15241 261918.400000
   3221   3226     1   0.12183 533627.360000
   3221   4767     1   0.13789 357815.680000
   3222   3223     1   0.15375 251793.120000
   3223   3224     1   0.14619 275056.160000
   3241   3242     1   0.15110 237065.440000
   3241   3243     1   0.15110 237065.440000
   3241   3248     1   0.15110 237065.440000
   3242   3244     1   0.15375 251793.120000
   3243   3246     1   0.15375 251793.120000
   3244   3245     1   0.15241 261918.400000
   3245   4779     1   0.13789 357815.680000
   3245   3251     1   0.12183 533627.360000
   3246   3247     1   0.15241 261918.400000
   3247   4791     1   0.13789 357815.680000
   3247   3252     1   0.12183 533627.360000
   3248   3249     1   0.15375 251793.120000
   3249   3250     1   0.14619 275056.160000
   3267   3269     1   0.14619 275056.160000
   3269   3270     1   0.15375 251793.120000
   3270   3275     1   0.15110 237065.440000
   3279   3281     1   0.14619 275056.160000
   3281   3282     1   0.15375 251793.120000
   3282   3287     1   0.15110 237065.440000
   3291   3293     1   0.14619 275056.160000
   3293   3294     1   0.15375 251793.120000
   3294   3299     1   0.15110 237065.440000
   3303   3305     1   0.14619 275056.160000
   3305   3306     1   0.15375 251793.120000
   3306   3311     1   0.15110 237065.440000
   3315   3317     1   0.14619 275056.160000
   3317   3318     1   0.15375 251793.120000
   3318   3323     1   0.15110 237065.440000
   3327   3329     1   0.14619 275056.160000
   3329   3330     1   0.15375 251793.120000
   3330   3335     1   0.15110 237065.440000
   3339   3341     1   0.14619 275056.160000
   3341   3342     1   0.15375 251793.120000
   3342   3347     1   0.15110 237065.440000
   3351   3353     1   0.14619 275056.160000
   3353   3354     1   0.15375 251793.120000
   3354   3359     1   0.15110 237065.440000
   3363   3365     1   0.14619 275056.160000
   3365   3366     1   0.15375 251793.120000
   3366   3371     1   0.15110 237065.440000
   3375   3377     1   0.14619 275056.160000
   3377   3378     1   0.15375 251793.120000
   3378   3383     1   0.15110 237065.440000
   3387   3389     1   0.14619 275056.160000
   3389   3390     1   0.15375 251793.120000
   3390   3395     1   0.15110 237065.440000
   3399   3401     1   0.14619 275056.160000
   3401   3402     1   0.15375 251793.120000
   3402   3407     1   0.15110 237065.440000
   3411   3413     1   0.14619 275056.160000
   3413   3414     1   0.15375 251793.120000
   3414   3419     1   0.15110 237065.440000
   3423   3425     1   0.14619 275056.160000
   3425   3426     1   0.15375 251793.120000
   3426   3431     1   0.15110 237065.440000
   3435   3437     1   0.14619 275056.160000
   3437   3438     1   0.15375 251793.120000
   3438   3443     1   0.15110 237065.440000
   3447   3449     1   0.14619 275056.160000
   3449   3450     1   0.15375 251793.120000
   3450   3455     1   0.15110 237065.440000
   3459   3461     1   0.14619 275056.160000
   3461   3462     1   0.15375 251793.120000
   3462   3467     1   0.15110 237065.440000
   3471   3473     1   0.14619 275056.160000
   3473   3474     1   0.15375 251793.120000
   3474   3479     1   0.15110 237065.440000
   3483   3485     1   0.14619 275056.160000
   3485   3486     1   0.15375 251793.120000
   3486   3491     1   0.15110 237065.440000
   3495   3497     1   0.14619 275056.160000
   3497   3498     1   0.15375 251793.120000
   3498   3503     1   0.15110 237065.440000
   3507   3509     1   0.14619 275056.160000
   3509   3510     1   0.15375 251793.120000
   3510   3515     1   0.15110 237065.440000
   3519   3521     1   0.14619 275056.160000
   3521   3522     1   0.15375 251793.120000
   3522   3527     1   0.15110 237065.440000
   3531   3533     1   0.14619 275056.160000
   3533   3534     1   0.15375 251793.120000
   3534   3539     1   0.15110 237065.440000
   3543   3545     1   0.14619 275056.160000
   3545   3546     1   0.15375 251793.120000
   3546   3551     1   0.15110 237065.440000
   3555   3557     1   0.14619 275056.160000
   3557   3558     1   0.15375 251793.120000
   3558   3563     1   0.15110 237065.440000
   3567   3569     1   0.14619 275056.160000
   3569   3570     1   0.15375 251793.120000
   3570   3575     1   0.15110 237065.440000
   3579   3581     1   0.14619 275056.160000
   3581   3582     1   0.15375 251793.120000
   3582   3587     1   0.15110 237065.440000
   3591   3593     1   0.14619 275056.160000
   3593   3594     1   0.15375 251793.120000
   3594   3599     1   0.15110 237065.440000
   3603   3605     1   0.14619 275056.160000
   3605   3606     1   0.15375 251793.120000
   3606   3611     1   0.15110 237065.440000
   3615   3617     1   0.14619 275056.160000
   3617   3618     1   0.15375 251793.120000
   3618   3623     1   0.15110 237065.440000
   3627   3629     1   0.14619 275056.160000
   3629   3630     1   0.15375 251793.120000
   3630   3635     1   0.15110 237065.440000
   3639   3641     1   0.14619 275056.160000
   3641   3642     1   0.15375 251793.120000
   3642   3647     1   0.15110 237065.440000
   3651   3653     1   0.14619 275056.160000
   3653   3654     1   0.15375 251793.120000
   3654   3659     1   0.15110 237065.440000
   3663   3665     1   0.14619 275056.160000
   3665   3666     1   0.15375 251793.120000
   3666   3671     1   0.15110 237065.440000
   3675   3677     1   0.14619 275056.160000
   3677   3678     1   0.15375 251793.120000
   3678   3683     1   0.15110 237065.440000
   3687   3689     1   0.14619 275056.160000
   3689   3690     1   0.15375 251793.120000
   3690   3695     1   0.15110 237065.440000
   3699   3701     1   0.14619 275056.160000
   3701   3702     1   0.15375 251793.120000
   3702   3707     1   0.15110 237065.440000
   3711   3713     1   0.14619 275056.160000
   3713   3714     1   0.15375 251793.120000
   3714   3719     1   0.15110 237065.440000
   3723   3725     1   0.14619 275056.160000
   3725   3726     1   0.15375 251793.120000
   3726   3731     1   0.15110 237065.440000
   3735   3737     1   0.14619 275056.160000
   3737   3738     1   0.15375 251793.120000
   3738   3743     1   0.15110 237065.440000
   3747   3749     1   0.14619 275056.160000
   3749   3750     1   0.15375 251793.120000
   3750   3755     1   0.15110 237065.440000
   3759   3761     1   0.14619 275056.160000
   3761   3762     1   0.15375 251793.120000
   3762   3767     1   0.15110 237065.440000
   3771   3773     1   0.14619 275056.160000
   3773   3774     1   0.15375 251793.120000
   3774   3779     1   0.15110 237065.440000
   3783   3785     1   0.14619 275056.160000
   3785   3786     1   0.15375 251793.120000
   3786   3791     1   0.15110 237065.440000
   3795   3797     1   0.14619 275056.160000
   3797   3798     1   0.15375 251793.120000
   3798   3803     1   0.15110 237065.440000
   3807   3809     1   0.14619 275056.160000
   3809   3810     1   0.15375 251793.120000
   3810   3815     1   0.15110 237065.440000
   3819   3821     1   0.14619 275056.160000
   3821   3822     1   0.15375 251793.120000
   3822   3827     1   0.15110 237065.440000
   3831   3833     1   0.14619 275056.160000
   3833   3834     1   0.15375 251793.120000
   3834   3839     1   0.15110 237065.440000
   3843   3845     1   0.14619 275056.160000
   3845   3846     1   0.15375 251793.120000
   3846   3851     1   0.15110 237065.440000
   3855   3857     1   0.14619 275056.160000
   3857   3858     1   0.15375 251793.120000
   3858   3863     1   0.15110 237065.440000
   3867   3869     1   0.14619 275056.160000
   3869   3870     1   0.15375 251793.120000
   3870   3875     1   0.15110 237065.440000
   3879   3881     1   0.14619 275056.160000
   3881   3882     1   0.15375 251793.120000
   3882   3887     1   0.15110 237065.440000
   3891   3893     1   0.14619 275056.160000
   3893   3894     1   0.15375 251793.120000
   3894   3899     1   0.15110 237065.440000
   3903   3905     1   0.14619 275056.160000
   3905   3906     1   0.15375 251793.120000
   3906   3911     1   0.15110 237065.440000
   3915   3917     1   0.14619 275056.160000
   3917   3918     1   0.15375 251793.120000
   3918   3923     1   0.15110 237065.440000
   3927   3929     1   0.14619 275056.160000
   3929   3930     1   0.15375 251793.120000
   3930   3935     1   0.15110 237065.440000
   3939   3941     1   0.14619 275056.160000
   3941   3942     1   0.15375 251793.120000
   3942   3947     1   0.15110 237065.440000
   3951   3953     1   0.14619 275056.160000
   3953   3954     1   0.15375 251793.120000
   3954   3959     1   0.15110 237065.440000
   3963   3965     1   0.14619 275056.160000
   3965   3966     1   0.15375 251793.120000
   3966   3971     1   0.15110 237065.440000
   3975   3977     1   0.14619 275056.160000
   3977   3978     1   0.15375 251793.120000
   3978   3983     1   0.15110 237065.440000
   3987   3989     1   0.14619 275056.160000
   3989   3990     1   0.15375 251793.120000
   3990   3995     1   0.15110 237065.440000
   3999   4001     1   0.14619 275056.160000
   4001   4002     1   0.15375 251793.120000
   4002   4007     1   0.15110 237065.440000
   4011   4013     1   0.14619 275056.160000
   4013   4014     1   0.15375 251793.120000
   4014   4019     1   0.15110 237065.440000
   4023   4025     1   0.14619 275056.160000
   4025   4026     1   0.15375 251793.120000
   4026   4031     1   0.15110 237065.440000
   4035   4037     1   0.14619 275056.160000
   4037   4038     1   0.15375 251793.120000
   4038   4043     1   0.15110 237065.440000
   4047   4049     1   0.14619 275056.160000
   4049   4050     1   0.15375 251793.120000
   4050   4055     1   0.15110 237065.440000
   4059   4061     1   0.14619 275056.160000
   4061   4062     1   0.15375 251793.120000
   4062   4067     1   0.15110 237065.440000
   4071   4073     1   0.14619 275056.160000
   4073   4074     1   0.15375 251793.120000
   4074   4079     1   0.15110 237065.440000
   4083   4085     1   0.14619 275056.160000
   4085   4086     1   0.15375 251793.120000
   4086   4091     1   0.15110 237065.440000
   4095   4097     1   0.14619 275056.160000
   4097   4098     1   0.15375 251793.120000
   4098   4103     1   0.15110 237065.440000
   4107   4109     1   0.14619 275056.160000
   4109   4110     1   0.15375 251793.120000
   4110   4115     1   0.15110 237065.440000
   4119   4121     1   0.14619 275056.160000
   4121   4122     1   0.15375 251793.120000
   4122   4127     1   0.15110 237065.440000
   4131   4133     1   0.14619 275056.160000
   4133   4134     1   0.15375 251793.120000
   4134   4139     1   0.15110 237065.440000
   4143   4145     1   0.14619 275056.160000
   4145   4146     1   0.15375 251793.120000
   4146   4151     1   0.15110 237065.440000
   4155   4157     1   0.14619 275056.160000
   4157   4158     1   0.15375 251793.120000
   4158   4163     1   0.15110 237065.440000
   4167   4169     1   0.14619 275056.160000
   4169   4170     1   0.15375 251793.120000
   4170   4175     1   0.15110 237065.440000
   4179   4181     1   0.14619 275056.160000
   4181   4182     1   0.15375 251793.120000
   4182   4187     1   0.15110 237065.440000
   4191   4193     1   0.14619 275056.160000
   4193   4194     1   0.15375 251793.120000
   4194   4199     1   0.15110 237065.440000
   4203   4205     1   0.14619 275056.160000
   4205   4206     1   0.15375 251793.120000
   4206   4211     1   0.15110 237065.440000
   4215   4217     1   0.14619 275056.160000
   4217   4218     1   0.15375 251793.120000
   4218   4223     1   0.15110 237065.440000
   4227   4229     1   0.14619 275056.160000
   4229   4230     1   0.15375 251793.120000
   4230   4235     1   0.15110 237065.440000
   4239   4241     1   0.14619 275056.160000
   4241   4242     1   0.15375 251793.120000
   4242   4247     1   0.15110 237065.440000
   4251   4253     1   0.14619 275056.160000
   4253   4254     1   0.15375 251793.120000
   4254   4259     1   0.15110 237065.440000
   4263   4265     1   0.14619 275056.160000
   4265   4266     1   0.15375 251793.120000
   4266   4271     1   0.15110 237065.440000
   4275   4277     1   0.14619 275056.160000
   4277   4278     1   0.15375 251793.120000
   4278   4283     1   0.15110 237065.440000
   4287   4289     1   0.14619 275056.160000
   4289   4290     1   0.15375 251793.120000
   4290   4295     1   0.15110 237065.440000
   4299   4301     1   0.14619 275056.160000
   4301   4302     1   0.15375 251793.120000
   4302   4307     1   0.15110 237065.440000
   4311   4313     1   0.14619 275056.160000
   4313   4314     1   0.15375 251793.120000
   4314   4319     1   0.15110 237065.440000
   4323   4325     1   0.14619 275056.160000
   4325   4326     1   0.15375 251793.120000
   4326   4331     1   0.15110 237065.440000
   4335   4337     1   0.14619 275056.160000
   4337   4338     1   0.15375 251793.120000
   4338   4343     1   0.15110 237065.440000
   4347   4349     1   0.14619 275056.160000
   4349   4350     1   0.15375 251793.120000
   4350   4355     1   0.15110 237065.440000
   4359   4361     1   0.14619 275056.160000
   4361   4362     1   0.15375 251793.120000
   4362   4367     1   0.15110 237065.440000
   4371   4373     1   0.14619 275056.160000
   4373   4374     1   0.15375 251793.120000
   4374   4379     1   0.15110 237065.440000
   4383   4385     1   0.14619 275056.160000
   4385   4386     1   0.15375 251793.120000
   4386   4391     1   0.15110 237065.440000
   4395   4397     1   0.14619 275056.160000
   4397   4398     1   0.15375 251793.120000
   4398   4403     1   0.15110 237065.440000
   4407   4409     1   0.14619 275056.160000
   4409   4410     1   0.15375 251793.120000
   4410   4415     1   0.15110 237065.440000
   4419   4421     1   0.14619 275056.160000
   4421   4422     1   0.15375 251793.120000
   4422   4427     1   0.15110 237065.440000
   4431   4433     1   0.14619 275056.160000
   4433   4434     1   0.15375 251793.120000
   4434   4439     1   0.15110 237065.440000
   4443   4445     1   0.14619 275056.160000
   4445   4446     1   0.15375 251793.120000
   4446   4451     1   0.15110 237065.440000
   4455   4457     1   0.14619 275056.160000
   4457   4458     1   0.15375 251793.120000
   4458   4463     1   0.15110 237065.440000
   4467   4469     1   0.14619 275056.160000
   4469   4470     1   0.15375 251793.120000
   4470   4475     1   0.15110 237065.440000
   4479   4481     1   0.14619 275056.160000
   4481   4482     1   0.15375 251793.120000
   4482   4487     1   0.15110 237065.440000
   4491   4493     1   0.14619 275056.160000
   4493   4494     1   0.15375 251793.120000
   4494   4499     1   0.15110 237065.440000
   4503   4505     1   0.14619 275056.160000
   4505   4506     1   0.15375 251793.120000
   4506   4511     1   0.15110 237065.440000
   4515   4517     1   0.14619 275056.160000
   4517   4518     1   0.15375 251793.120000
   4518   4523     1   0.15110 237065.440000
   4527   4529     1   0.14619 275056.160000
   4529   4530     1   0.15375 251793.120000
   4530   4535     1   0.15110 237065.440000
   4539   4541     1   0.14619 275056.160000
   4541   4542     1   0.15375 251793.120000
   4542   4547     1   0.15110 237065.440000
   4551   4553     1   0.14619 275056.160000
   4553   4554     1   0.15375 251793.120000
   4554   4559     1   0.15110 237065.440000
   4563   4565     1   0.14619 275056.160000
   4565   4566     1   0.15375 251793.120000
   4566   4571     1   0.15110 237065.440000
   4575   4577     1   0.14619 275056.160000
   4577   4578     1   0.15375 251793.120000
   4578   4583     1   0.15110 237065.440000
   4587   4589     1   0.14619 275056.160000
   4589   4590     1   0.15375 251793.120000
   4590   4595     1   0.15110 237065.440000
   4599   4601     1   0.14619 275056.160000
   4601   4602     1   0.15375 251793.120000
   4602   4607     1   0.15110 237065.440000
   4611   4613     1   0.14619 275056.160000
   4613   4614     1   0.15375 251793.120000
   4614   4619     1   0.15110 237065.440000
   4623   4625     1   0.14619 275056.160000
   4625   4626     1   0.15375 251793.120000
   4626   4631     1   0.15110 237065.440000
   4635   4637     1   0.14619 275056.160000
   4637   4638     1   0.15375 251793.120000
   4638   4643     1   0.15110 237065.440000
   4647   4649     1   0.14619 275056.160000
   4649   4650     1   0.15375 251793.120000
   4650   4655     1   0.15110 237065.440000
   4659   4661     1   0.14619 275056.160000
   4661   4662     1   0.15375 251793.120000
   4662   4667     1   0.15110 237065.440000
   4671   4673     1   0.14619 275056.160000
   4673   4674     1   0.15375 251793.120000
   4674   4679     1   0.15110 237065.440000
   4683   4685     1   0.14619 275056.160000
   4685   4686     1   0.15375 251793.120000
   4686   4691     1   0.15110 237065.440000
   4695   4697     1   0.14619 275056.160000
   4697   4698     1   0.15375 251793.120000
   4698   4703     1   0.15110 237065.440000
   4707   4709     1   0.14619 275056.160000
   4709   4710     1   0.15375 251793.120000
   4710   4715     1   0.15110 237065.440000
   4719   4721     1   0.14619 275056.160000
   4721   4722     1   0.15375 251793.120000
   4722   4727     1   0.15110 237065.440000
   4731   4733     1   0.14619 275056.160000
   4733   4734     1   0.15375 251793.120000
   4734   4739     1   0.15110 237065.440000
   4743   4745     1   0.14619 275056.160000
   4745   4746     1   0.15375 251793.120000
   4746   4751     1   0.15110 237065.440000
   4755   4757     1   0.14619 275056.160000
   4757   4758     1   0.15375 251793.120000
   4758   4763     1   0.15110 237065.440000
   4767   4769     1   0.14619 275056.160000
   4769   4770     1   0.15375 251793.120000
   4770   4775     1   0.15110 237065.440000
   4779   4781     1   0.14619 275056.160000
   4781   4782     1   0.15375 251793.120000
   4782   4787     1   0.15110 237065.440000
   4791   4793     1   0.14619 275056.160000
   4793   4794     1   0.15375 251793.120000
   4794   4799     1   0.15110 237065.440000
      1     41     1   0.10304 312293.760000
      2     21     1   0.10910 283424.160000
      2     22     1   0.10910 283424.160000
      3     23     1   0.10910 283424.160000
      3     24     1   0.10910 283424.160000
      4     42     1   0.10304 312293.760000
      5     25     1   0.10910 283424.160000
      5     26     1   0.10910 283424.160000
      6     27     1   0.10910 283424.160000
      6     28     1   0.10910 283424.160000
      7     29     1   0.10910 283424.160000
      7     30     1   0.10910 283424.160000
      8     31     1   0.10910 283424.160000
      8     32     1   0.10910 283424.160000
      9     33     1   0.10969 276646.080000
      9     34     1   0.10969 276646.080000
     11     35     1   0.10969 276646.080000
     11     36     1   0.10969 276646.080000
     13     37     1   0.10969 276646.080000
     13     38     1   0.10969 276646.080000
     15     39     1   0.10969 276646.080000
     15     40     1   0.10969 276646.080000
     43     68     1   0.10304 312293.760000
     44     55     1   0.10910 283424.160000
     44     56     1   0.10910 283424.160000
     45     57     1   0.10910 283424.160000
     45     58     1   0.10910 283424.160000
     46     59     1   0.10969 276646.080000
     46     60     1   0.10969 276646.080000
     48     61     1   0.10969 276646.080000
     48     62     1   0.10969 276646.080000
     50     63     1   0.10910 283424.160000
     50     64     1   0.10910 283424.160000
     51     65     1   0.10969 276646.080000
     51     66     1   0.10969 276646.080000
     52     67     1   0.10129 337397.760000
     69     94     1   0.10304 312293.760000
     70     81     1   0.10910 283424.160000
     70     82     1   0.10910 283424.160000
     71     83     1   0.10910 283424.160000
     71     84     1   0.10910 283424.160000
     72     85     1   0.10969 276646.080000
     72     86     1   0.10969 276646.080000
     74     87     1   0.10969 276646.080000
     74     88     1   0.10969 276646.080000
     76     89     1   0.10910 283424.160000
     76     90     1   0.10910 283424.160000
     77     91     1   0.10969 276646.080000
     77     92     1   0.10969 276646.080000
     78     93     1   0.10129 337397.760000
     95    120     1   0.10304 312293.760000
     96    107     1   0.10910 283424.160000
     96    108     1   0.10910 283424.160000
     97    109     1   0.10910 283424.160000
     97    110     1   0.10910 283424.160000
     98    111     1   0.10969 276646.080000
     98    112     1   0.10969 276646.080000
    100    113     1   0.10969 276646.080000
    100    114     1   0.10969 276646.080000
    102    115     1   0.10910 283424.160000
    102    116     1   0.10910 283424.160000
    103    117     1   0.10969 276646.080000
    103    118     1   0.10969 276646.080000
    104    119     1   0.10129 337397.760000
    121    146     1   0.10304 312293.760000
    122    133     1   0.10910 283424.160000
    122    134     1   0.10910 283424.160000
    123    135     1   0.10910 283424.160000
    123    136     1   0.10910 283424.160000
    124    137     1   0.10969 276646.080000
    124    138     1   0.10969 276646.080000
    126    139     1   0.10969 276646.080000
    126    140     1   0.10969 276646.080000
    128    141     1   0.10910 283424.160000
    128    142     1   0.10910 283424.160000
    129    143     1   0.10969 276646.080000
    129    144     1   0.10969 276646.080000
    130    145     1   0.10129 337397.760000
    147    172     1   0.10304 312293.760000
    148    159     1   0.10910 283424.160000
    148    160     1   0.10910 283424.160000
    149    161     1   0.10910 283424.160000
    149    162     1   0.10910 283424.160000
    150    163     1   0.10969 276646.080000
    150    164     1   0.10969 276646.080000
    152    165     1   0.10969 276646.080000
    152    166     1   0.10969 276646.080000
    154    167     1   0.10910 283424.160000
    154    168     1   0.10910 283424.160000
    155    169     1   0.10969 276646.080000
    155    170     1   0.10969 276646.080000
    156    171     1   0.10129 337397.760000
    173    198     1   0.10304 312293.760000
    174    185     1   0.10910 283424.160000
    174    186     1   0.10910 283424.160000
    175    187     1   0.10910 283424.160000
    175    188     1   0.10910 283424.160000
    176    189     1   0.10969 276646.080000
    176    190     1   0.10969 276646.080000
    178    191     1   0.10969 276646.080000
    178    192     1   0.10969 276646.080000
    180    193     1   0.10910 283424.160000
    180    194     1   0.10910 283424.160000
    181    195     1   0.10969 276646.080000
    181    196     1   0.10969 276646.080000
    182    197     1   0.10129 337397.760000
    199    224     1   0.10304 312293.760000
    200    211     1   0.10910 283424.160000
    200    212     1   0.10910 283424.160000
    201    213     1   0.10910 283424.160000
    201    214     1   0.10910 283424.160000
    202    215     1   0.10969 276646.080000
    202    216     1   0.10969 276646.080000
    204    217     1   0.10969 276646.080000
    204    218     1   0.10969 276646.080000
    206    219     1   0.10910 283424.160000
    206    220     1   0.10910 283424.160000
    207    221     1   0.10969 276646.080000
    207    222     1   0.10969 276646.080000
    208    223     1   0.10129 337397.760000
    225    250     1   0.10304 312293.760000
    226    237     1   0.10910 283424.160000
    226    238     1   0.10910 283424.160000
    227    239     1   0.10910 283424.160000
    227    240     1   0.10910 283424.160000
    228    241     1   0.10969 276646.080000
    228    242     1   0.10969 276646.080000
    230    243     1   0.10969 276646.080000
    230    244     1   0.10969 276646.080000
    232    245     1   0.10910 283424.160000
    232    246     1   0.10910 283424.160000
    233    247     1   0.10969 276646.080000
    233    248     1   0.10969 276646.080000
    234    249     1   0.10129 337397.760000
    251    276     1   0.10304 312293.760000
    252    263     1   0.10910 283424.160000
    252    264     1   0.10910 283424.160000
    253    265     1   0.10910 283424.160000
    253    266     1   0.10910 283424.160000
    254    267     1   0.10969 276646.080000
    254    268     1   0.10969 276646.080000
    256    269     1   0.10969 276646.080000
    256    270     1   0.10969 276646.080000
    258    271     1   0.10910 283424.160000
    258    272     1   0.10910 283424.160000
    259    273     1   0.10969 276646.080000
    259    274     1   0.10969 276646.080000
    260    275     1   0.10129 337397.760000
    277    302     1   0.10304 312293.760000
    278    289     1   0.10910 283424.160000
    278    290     1   0.10910 283424.160000
    279    291     1   0.10910 283424.160000
    279    292     1   0.10910 283424.160000
    280    293     1   0.10969 276646.080000
    280    294     1   0.10969 276646.080000
    282    295     1   0.10969 276646.080000
    282    296     1   0.10969 276646.080000
    284    297     1   0.10910 283424.160000
    284    298     1   0.10910 283424.160000
    285    299     1   0.10969 276646.080000
    285    300     1   0.10969 276646.080000
    286    301     1   0.10129 337397.760000
    303    328     1   0.10304 312293.760000
    304    315     1   0.10910 283424.160000
    304    316     1   0.10910 283424.160000
    305    317     1   0.10910 283424.160000
    305    318     1   0.10910 283424.160000
    306    319     1   0.10969 276646.080000
    306    320     1   0.10969 276646.080000
    308    321     1   0.10969 276646.080000
    308    322     1   0.10969 276646.080000
    310    323     1   0.10910 283424.160000
    310    324     1   0.10910 283424.160000
    311    325     1   0.10969 276646.080000
    311    326     1   0.10969 276646.080000
    312    327     1   0.10129 337397.760000
    329    354     1   0.10304 312293.760000
    330    341     1   0.10910 283424.160000
    330    342     1   0.10910 283424.160000
    331    343     1   0.10910 283424.160000
    331    344     1   0.10910 283424.160000
    332    345     1   0.10969 276646.080000
    332    346     1   0.10969 276646.080000
    334    347     1   0.10969 276646.080000
    334    348     1   0.10969 276646.080000
    336    349     1   0.10910 283424.160000
    336    350     1   0.10910 283424.160000
    337    351     1   0.10969 276646.080000
    337    352     1   0.10969 276646.080000
    338    353     1   0.10129 337397.760000
    355    380     1   0.10304 312293.760000
    356    367     1   0.10910 283424.160000
    356    368     1   0.10910 283424.160000
    357    369     1   0.10910 283424.160000
    357    370     1   0.10910 283424.160000
    358    371     1   0.10969 276646.080000
    358    372     1   0.10969 276646.080000
    360    373     1   0.10969 276646.080000
    360    374     1   0.10969 276646.080000
    362    375     1   0.10910 283424.160000
    362    376     1   0.10910 283424.160000
    363    377     1   0.10969 276646.080000
    363    378     1   0.10969 276646.080000
    364    379     1   0.10129 337397.760000
    381    406     1   0.10304 312293.760000
    382    393     1   0.10910 283424.160000
    382    394     1   0.10910 283424.160000
    383    395     1   0.10910 283424.160000
    383    396     1   0.10910 283424.160000
    384    397     1   0.10969 276646.080000
    384    398     1   0.10969 276646.080000
    386    399     1   0.10969 276646.080000
    386    400     1   0.10969 276646.080000
    388    401     1   0.10910 283424.160000
    388    402     1   0.10910 283424.160000
    389    403     1   0.10969 276646.080000
    389    404     1   0.10969 276646.080000
    390    405     1   0.10129 337397.760000
    407    432     1   0.10304 312293.760000
    408    419     1   0.10910 283424.160000
    408    420     1   0.10910 283424.160000
    409    421     1   0.10910 283424.160000
    409    422     1   0.10910 283424.160000
    410    423     1   0.10969 276646.080000
    410    424     1   0.10969 276646.080000
    412    425     1   0.10969 276646.080000
    412    426     1   0.10969 276646.080000
    414    427     1   0.10910 283424.160000
    414    428     1   0.10910 283424.160000
    415    429     1   0.10969 276646.080000
    415    430     1   0.10969 276646.080000
    416    431     1   0.10129 337397.760000
    433    458     1   0.10304 312293.760000
    434    445     1   0.10910 283424.160000
    434    446     1   0.10910 283424.160000
    435    447     1   0.10910 283424.160000
    435    448     1   0.10910 283424.160000
    436    449     1   0.10969 276646.080000
    436    450     1   0.10969 276646.080000
    438    451     1   0.10969 276646.080000
    438    452     1   0.10969 276646.080000
    440    453     1   0.10910 283424.160000
    440    454     1   0.10910 283424.160000
    441    455     1   0.10969 276646.080000
    441    456     1   0.10969 276646.080000
    442    457     1   0.10129 337397.760000
    459    484     1   0.10304 312293.760000
    460    471     1   0.10910 283424.160000
    460    472     1   0.10910 283424.160000
    461    473     1   0.10910 283424.160000
    461    474     1   0.10910 283424.160000
    462    475     1   0.10969 276646.080000
    462    476     1   0.10969 276646.080000
    464    477     1   0.10969 276646.080000
    464    478     1   0.10969 276646.080000
    466    479     1   0.10910 283424.160000
    466    480     1   0.10910 283424.160000
    467    481     1   0.10969 276646.080000
    467    482     1   0.10969 276646.080000
    468    483     1   0.10129 337397.760000
    485    510     1   0.10304 312293.760000
    486    497     1   0.10910 283424.160000
    486    498     1   0.10910 283424.160000
    487    499     1   0.10910 283424.160000
    487    500     1   0.10910 283424.160000
    488    501     1   0.10969 276646.080000
    488    502     1   0.10969 276646.080000
    490    503     1   0.10969 276646.080000
    490    504     1   0.10969 276646.080000
    492    505     1   0.10910 283424.160000
    492    506     1   0.10910 283424.160000
    493    507     1   0.10969 276646.080000
    493    508     1   0.10969 276646.080000
    494    509     1   0.10129 337397.760000
    511    536     1   0.10304 312293.760000
    512    523     1   0.10910 283424.160000
    512    524     1   0.10910 283424.160000
    513    525     1   0.10910 283424.160000
    513    526     1   0.10910 283424.160000
    514    527     1   0.10969 276646.080000
    514    528     1   0.10969 276646.080000
    516    529     1   0.10969 276646.080000
    516    530     1   0.10969 276646.080000
    518    531     1   0.10910 283424.160000
    518    532     1   0.10910 283424.160000
    519    533     1   0.10969 276646.080000
    519    534     1   0.10969 276646.080000
    520    535     1   0.10129 337397.760000
    537    562     1   0.10304 312293.760000
    538    549     1   0.10910 283424.160000
    538    550     1   0.10910 283424.160000
    539    551     1   0.10910 283424.160000
    539    552     1   0.10910 283424.160000
    540    553     1   0.10969 276646.080000
    540    554     1   0.10969 276646.080000
    542    555     1   0.10969 276646.080000
    542    556     1   0.10969 276646.080000
    544    557     1   0.10910 283424.160000
    544    558     1   0.10910 283424.160000
    545    559     1   0.10969 276646.080000
    545    560     1   0.10969 276646.080000
    546    561     1   0.10129 337397.760000
    563    588     1   0.10304 312293.760000
    564    575     1   0.10910 283424.160000
    564    576     1   0.10910 283424.160000
    565    577     1   0.10910 283424.160000
    565    578     1   0.10910 283424.160000
    566    579     1   0.10969 276646.080000
    566    580     1   0.10969 276646.080000
    568    581     1   0.10969 276646.080000
    568    582     1   0.10969 276646.080000
    570    583     1   0.10910 283424.160000
    570    584     1   0.10910 283424.160000
    571    585     1   0.10969 276646.080000
    571    586     1   0.10969 276646.080000
    572    587     1   0.10129 337397.760000
    589    614     1   0.10304 312293.760000
    590    601     1   0.10910 283424.160000
    590    602     1   0.10910 283424.160000
    591    603     1   0.10910 283424.160000
    591    604     1   0.10910 283424.160000
    592    605     1   0.10969 276646.080000
    592    606     1   0.10969 276646.080000
    594    607     1   0.10969 276646.080000
    594    608     1   0.10969 276646.080000
    596    609     1   0.10910 283424.160000
    596    610     1   0.10910 283424.160000
    597    611     1   0.10969 276646.080000
    597    612     1   0.10969 276646.080000
    598    613     1   0.10129 337397.760000
    615    640     1   0.10304 312293.760000
    616    627     1   0.10910 283424.160000
    616    628     1   0.10910 283424.160000
    617    629     1   0.10910 283424.160000
    617    630     1   0.10910 283424.160000
    618    631     1   0.10969 276646.080000
    618    632     1   0.10969 276646.080000
    620    633     1   0.10969 276646.080000
    620    634     1   0.10969 276646.080000
    622    635     1   0.10910 283424.160000
    622    636     1   0.10910 283424.160000
    623    637     1   0.10969 276646.080000
    623    638     1   0.10969 276646.080000
    624    639     1   0.10129 337397.760000
    641    666     1   0.10304 312293.760000
    642    653     1   0.10910 283424.160000
    642    654     1   0.10910 283424.160000
    643    655     1   0.10910 283424.160000
    643    656     1   0.10910 283424.160000
    644    657     1   0.10969 276646.080000
    644    658     1   0.10969 276646.080000
    646    659     1   0.10969 276646.080000
    646    660     1   0.10969 276646.080000
    648    661     1   0.10910 283424.160000
    648    662     1   0.10910 283424.160000
    649    663     1   0.10969 276646.080000
    649    664     1   0.10969 276646.080000
    650    665     1   0.10129 337397.760000
    667    692     1   0.10304 312293.760000
    668    679     1   0.10910 283424.160000
    668    680     1   0.10910 283424.160000
    669    681     1   0.10910 283424.160000
    669    682     1   0.10910 283424.160000
    670    683     1   0.10969 276646.080000
    670    684     1   0.10969 276646.080000
    672    685     1   0.10969 276646.080000
    672    686     1   0.10969 276646.080000
    674    687     1   0.10910 283424.160000
    674    688     1   0.10910 283424.160000
    675    689     1   0.10969 276646.080000
    675    690     1   0.10969 276646.080000
    676    691     1   0.10129 337397.760000
    693    718     1   0.10304 312293.760000
    694    705     1   0.10910 283424.160000
    694    706     1   0.10910 283424.160000
    695    707     1   0.10910 283424.160000
    695    708     1   0.10910 283424.160000
    696    709     1   0.10969 276646.080000
    696    710     1   0.10969 276646.080000
    698    711     1   0.10969 276646.080000
    698    712     1   0.10969 276646.080000
    700    713     1   0.10910 283424.160000
    700    714     1   0.10910 283424.160000
    701    715     1   0.10969 276646.080000
    701    716     1   0.10969 276646.080000
    702    717     1   0.10129 337397.760000
    719    744     1   0.10304 312293.760000
    720    731     1   0.10910 283424.160000
    720    732     1   0.10910 283424.160000
    721    733     1   0.10910 283424.160000
    721    734     1   0.10910 283424.160000
    722    735     1   0.10969 276646.080000
    722    736     1   0.10969 276646.080000
    724    737     1   0.10969 276646.080000
    724    738     1   0.10969 276646.080000
    726    739     1   0.10910 283424.160000
    726    740     1   0.10910 283424.160000
    727    741     1   0.10969 276646.080000
    727    742     1   0.10969 276646.080000
    728    743     1   0.10129 337397.760000
    745    770     1   0.10304 312293.760000
    746    757     1   0.10910 283424.160000
    746    758     1   0.10910 283424.160000
    747    759     1   0.10910 283424.160000
    747    760     1   0.10910 283424.160000
    748    761     1   0.10969 276646.080000
    748    762     1   0.10969 276646.080000
    750    763     1   0.10969 276646.080000
    750    764     1   0.10969 276646.080000
    752    765     1   0.10910 283424.160000
    752    766     1   0.10910 283424.160000
    753    767     1   0.10969 276646.080000
    753    768     1   0.10969 276646.080000
    754    769     1   0.10129 337397.760000
    771    796     1   0.10304 312293.760000
    772    783     1   0.10910 283424.160000
    772    784     1   0.10910 283424.160000
    773    785     1   0.10910 283424.160000
    773    786     1   0.10910 283424.160000
    774    787     1   0.10969 276646.080000
    774    788     1   0.10969 276646.080000
    776    789     1   0.10969 276646.080000
    776    790     1   0.10969 276646.080000
    778    791     1   0.10910 283424.160000
    778    792     1   0.10910 283424.160000
    779    793     1   0.10969 276646.080000
    779    794     1   0.10969 276646.080000
    780    795     1   0.10129 337397.760000
    797    822     1   0.10304 312293.760000
    798    809     1   0.10910 283424.160000
    798    810     1   0.10910 283424.160000
    799    811     1   0.10910 283424.160000
    799    812     1   0.10910 283424.160000
    800    813     1   0.10969 276646.080000
    800    814     1   0.10969 276646.080000
    802    815     1   0.10969 276646.080000
    802    816     1   0.10969 276646.080000
    804    817     1   0.10910 283424.160000
    804    818     1   0.10910 283424.160000
    805    819     1   0.10969 276646.080000
    805    820     1   0.10969 276646.080000
    806    821     1   0.10129 337397.760000
    823    848     1   0.10304 312293.760000
    824    835     1   0.10910 283424.160000
    824    836     1   0.10910 283424.160000
    825    837     1   0.10910 283424.160000
    825    838     1   0.10910 283424.160000
    826    839     1   0.10969 276646.080000
    826    840     1   0.10969 276646.080000
    828    841     1   0.10969 276646.080000
    828    842     1   0.10969 276646.080000
    830    843     1   0.10910 283424.160000
    830    844     1   0.10910 283424.160000
    831    845     1   0.10969 276646.080000
    831    846     1   0.10969 276646.080000
    832    847     1   0.10129 337397.760000
    849    874     1   0.10304 312293.760000
    850    861     1   0.10910 283424.160000
    850    862     1   0.10910 283424.160000
    851    863     1   0.10910 283424.160000
    851    864     1   0.10910 283424.160000
    852    865     1   0.10969 276646.080000
    852    866     1   0.10969 276646.080000
    854    867     1   0.10969 276646.080000
    854    868     1   0.10969 276646.080000
    856    869     1   0.10910 283424.160000
    856    870     1   0.10910 283424.160000
    857    871     1   0.10969 276646.080000
    857    872     1   0.10969 276646.080000
    858    873     1   0.10129 337397.760000
    875    900     1   0.10304 312293.760000
    876    887     1   0.10910 283424.160000
    876    888     1   0.10910 283424.160000
    877    889     1   0.10910 283424.160000
    877    890     1   0.10910 283424.160000
    878    891     1   0.10969 276646.080000
    878    892     1   0.10969 276646.080000
    880    893     1   0.10969 276646.080000
    880    894     1   0.10969 276646.080000
    882    895     1   0.10910 283424.160000
    882    896     1   0.10910 283424.160000
    883    897     1   0.10969 276646.080000
    883    898     1   0.10969 276646.080000
    884    899     1   0.10129 337397.760000
    901    926     1   0.10304 312293.760000
    902    913     1   0.10910 283424.160000
    902    914     1   0.10910 283424.160000
    903    915     1   0.10910 283424.160000
    903    916     1   0.10910 283424.160000
    904    917     1   0.10969 276646.080000
    904    918     1   0.10969 276646.080000
    906    919     1   0.10969 276646.080000
    906    920     1   0.10969 276646.080000
    908    921     1   0.10910 283424.160000
    908    922     1   0.10910 283424.160000
    909    923     1   0.10969 276646.080000
    909    924     1   0.10969 276646.080000
    910    925     1   0.10129 337397.760000
    927    952     1   0.10304 312293.760000
    928    939     1   0.10910 283424.160000
    928    940     1   0.10910 283424.160000
    929    941     1   0.10910 283424.160000
    929    942     1   0.10910 283424.160000
    930    943     1   0.10969 276646.080000
    930    944     1   0.10969 276646.080000
    932    945     1   0.10969 276646.080000
    932    946     1   0.10969 276646.080000
    934    947     1   0.10910 283424.160000
    934    948     1   0.10910 283424.160000
    935    949     1   0.10969 276646.080000
    935    950     1   0.10969 276646.080000
    936    951     1   0.10129 337397.760000
    953    978     1   0.10304 312293.760000
    954    965     1   0.10910 283424.160000
    954    966     1   0.10910 283424.160000
    955    967     1   0.10910 283424.160000
    955    968     1   0.10910 283424.160000
    956    969     1   0.10969 276646.080000
    956    970     1   0.10969 276646.080000
    958    971     1   0.10969 276646.080000
    958    972     1   0.10969 276646.080000
    960    973     1   0.10910 283424.160000
    960    974     1   0.10910 283424.160000
    961    975     1   0.10969 276646.080000
    961    976     1   0.10969 276646.080000
    962    977     1   0.10129 337397.760000
    979   1004     1   0.10304 312293.760000
    980    991     1   0.10910 283424.160000
    980    992     1   0.10910 283424.160000
    981    993     1   0.10910 283424.160000
    981    994     1   0.10910 283424.160000
    982    995     1   0.10969 276646.080000
    982    996     1   0.10969 276646.080000
    984    997     1   0.10969 276646.080000
    984    998     1   0.10969 276646.080000
    986    999     1   0.10910 283424.160000
    986   1000     1   0.10910 283424.160000
    987   1001     1   0.10969 276646.080000
    987   1002     1   0.10969 276646.080000
    988   1003     1   0.10129 337397.760000
   1005   1030     1   0.10304 312293.760000
   1006   1017     1   0.10910 283424.160000
   1006   1018     1   0.10910 283424.160000
   1007   1019     1   0.10910 283424.160000
   1007   1020     1   0.10910 283424.160000
   1008   1021     1   0.10969 276646.080000
   1008   1022     1   0.10969 276646.080000
   1010   1023     1   0.10969 276646.080000
   1010   1024     1   0.10969 276646.080000
   1012   1025     1   0.10910 283424.160000
   1012   1026     1   0.10910 283424.160000
   1013   1027     1   0.10969 276646.080000
   1013   1028     1   0.10969 276646.080000
   1014   1029     1   0.10129 337397.760000
   1031   1056     1   0.10304 312293.760000
   1032   1043     1   0.10910 283424.160000
   1032   1044     1   0.10910 283424.160000
   1033   1045     1   0.10910 283424.160000
   1033   1046     1   0.10910 283424.160000
   1034   1047     1   0.10969 276646.080000
   1034   1048     1   0.10969 276646.080000
   1036   1049     1   0.10969 276646.080000
   1036   1050     1   0.10969 276646.080000
   1038   1051     1   0.10910 283424.160000
   1038   1052     1   0.10910 283424.160000
   1039   1053     1   0.10969 276646.080000
   1039   1054     1   0.10969 276646.080000
   1040   1055     1   0.10129 337397.760000
   1057   1082     1   0.10304 312293.760000
   1058   1069     1   0.10910 283424.160000
   1058   1070     1   0.10910 283424.160000
   1059   1071     1   0.10910 283424.160000
   1059   1072     1   0.10910 283424.160000
   1060   1073     1   0.10969 276646.080000
   1060   1074     1   0.10969 276646.080000
   1062   1075     1   0.10969 276646.080000
   1062   1076     1   0.10969 276646.080000
   1064   1077     1   0.10910 283424.160000
   1064   1078     1   0.10910 283424.160000
   1065   1079     1   0.10969 276646.080000
   1065   1080     1   0.10969 276646.080000
   1066   1081     1   0.10129 337397.760000
   1083   1108     1   0.10304 312293.760000
   1084   1095     1   0.10910 283424.160000
   1084   1096     1   0.10910 283424.160000
   1085   1097     1   0.10910 283424.160000
   1085   1098     1   0.10910 283424.160000
   1086   1099     1   0.10969 276646.080000
   1086   1100     1   0.10969 276646.080000
   1088   1101     1   0.10969 276646.080000
   1088   1102     1   0.10969 276646.080000
   1090   1103     1   0.10910 283424.160000
   1090   1104     1   0.10910 283424.160000
   1091   1105     1   0.10969 276646.080000
   1091   1106     1   0.10969 276646.080000
   1092   1107     1   0.10129 337397.760000
   1109   1134     1   0.10304 312293.760000
   1110   1121     1   0.10910 283424.160000
   1110   1122     1   0.10910 283424.160000
   1111   1123     1   0.10910 283424.160000
   1111   1124     1   0.10910 283424.160000
   1112   1125     1   0.10969 276646.080000
   1112   1126     1   0.10969 276646.080000
   1114   1127     1   0.10969 276646.080000
   1114   1128     1   0.10969 276646.080000
   1116   1129     1   0.10910 283424.160000
   1116   1130     1   0.10910 283424.160000
   1117   1131     1   0.10969 276646.080000
   1117   1132     1   0.10969 276646.080000
   1118   1133     1   0.10129 337397.760000
   1135   1160     1   0.10304 312293.760000
   1136   1147     1   0.10910 283424.160000
   1136   1148     1   0.10910 283424.160000
   1137   1149     1   0.10910 283424.160000
   1137   1150     1   0.10910 283424.160000
   1138   1151     1   0.10969 276646.080000
   1138   1152     1   0.10969 276646.080000
   1140   1153     1   0.10969 276646.080000
   1140   1154     1   0.10969 276646.080000
   1142   1155     1   0.10910 283424.160000
   1142   1156     1   0.10910 283424.160000
   1143   1157     1   0.10969 276646.080000
   1143   1158     1   0.10969 276646.080000
   1144   1159     1   0.10129 337397.760000
   1161   1186     1   0.10304 312293.760000
   1162   1173     1   0.10910 283424.160000
   1162   1174     1   0.10910 283424.160000
   1163   1175     1   0.10910 283424.160000
   1163   1176     1   0.10910 283424.160000
   1164   1177     1   0.10969 276646.080000
   1164   1178     1   0.10969 276646.080000
   1166   1179     1   0.10969 276646.080000
   1166   1180     1   0.10969 276646.080000
   1168   1181     1   0.10910 283424.160000
   1168   1182     1   0.10910 283424.160000
   1169   1183     1   0.10969 276646.080000
   1169   1184     1   0.10969 276646.080000
   1170   1185     1   0.10129 337397.760000
   1187   1212     1   0.10304 312293.760000
   1188   1199     1   0.10910 283424.160000
   1188   1200     1   0.10910 283424.160000
   1189   1201     1   0.10910 283424.160000
   1189   1202     1   0.10910 283424.160000
   1190   1203     1   0.10969 276646.080000
   1190   1204     1   0.10969 276646.080000
   1192   1205     1   0.10969 276646.080000
   1192   1206     1   0.10969 276646.080000
   1194   1207     1   0.10910 283424.160000
   1194   1208     1   0.10910 283424.160000
   1195   1209     1   0.10969 276646.080000
   1195   1210     1   0.10969 276646.080000
   1196   1211     1   0.10129 337397.760000
   1213   1238     1   0.10304 312293.760000
   1214   1225     1   0.10910 283424.160000
   1214   1226     1   0.10910 283424.160000
   1215   1227     1   0.10910 283424.160000
   1215   1228     1   0.10910 283424.160000
   1216   1229     1   0.10969 276646.080000
   1216   1230     1   0.10969 276646.080000
   1218   1231     1   0.10969 276646.080000
   1218   1232     1   0.10969 276646.080000
   1220   1233     1   0.10910 283424.160000
   1220   1234     1   0.10910 283424.160000
   1221   1235     1   0.10969 276646.080000
   1221   1236     1   0.10969 276646.080000
   1222   1237     1   0.10129 337397.760000
   1239   1264     1   0.10304 312293.760000
   1240   1251     1   0.10910 283424.160000
   1240   1252     1   0.10910 283424.160000
   1241   1253     1   0.10910 283424.160000
   1241   1254     1   0.10910 283424.160000
   1242   1255     1   0.10969 276646.080000
   1242   1256     1   0.10969 276646.080000
   1244   1257     1   0.10969 276646.080000
   1244   1258     1   0.10969 276646.080000
   1246   1259     1   0.10910 283424.160000
   1246   1260     1   0.10910 283424.160000
   1247   1261     1   0.10969 276646.080000
   1247   1262     1   0.10969 276646.080000
   1248   1263     1   0.10129 337397.760000
   1265   1290     1   0.10304 312293.760000
   1266   1277     1   0.10910 283424.160000
   1266   1278     1   0.10910 283424.160000
   1267   1279     1   0.10910 283424.160000
   1267   1280     1   0.10910 283424.160000
   1268   1281     1   0.10969 276646.080000
   1268   1282     1   0.10969 276646.080000
   1270   1283     1   0.10969 276646.080000
   1270   1284     1   0.10969 276646.080000
   1272   1285     1   0.10910 283424.160000
   1272   1286     1   0.10910 283424.160000
   1273   1287     1   0.10969 276646.080000
   1273   1288     1   0.10969 276646.080000
   1274   1289     1   0.10129 337397.760000
   1291   1316     1   0.10304 312293.760000
   1292   1303     1   0.10910 283424.160000
   1292   1304     1   0.10910 283424.160000
   1293   1305     1   0.10910 283424.160000
   1293   1306     1   0.10910 283424.160000
   1294   1307     1   0.10969 276646.080000
   1294   1308     1   0.10969 276646.080000
   1296   1309     1   0.10969 276646.080000
   1296   1310     1   0.10969 276646.080000
   1298   1311     1   0.10910 283424.160000
   1298   1312     1   0.10910 283424.160000
   1299   1313     1   0.10969 276646.080000
   1299   1314     1   0.10969 276646.080000
   1300   1315     1   0.10129 337397.760000
   1317   1342     1   0.10304 312293.760000
   1318   1329     1   0.10910 283424.160000
   1318   1330     1   0.10910 283424.160000
   1319   1331     1   0.10910 283424.160000
   1319   1332     1   0.10910 283424.160000
   1320   1333     1   0.10969 276646.080000
   1320   1334     1   0.10969 276646.080000
   1322   1335     1   0.10969 276646.080000
   1322   1336     1   0.10969 276646.080000
   1324   1337     1   0.10910 283424.160000
   1324   1338     1   0.10910 283424.160000
   1325   1339     1   0.10969 276646.080000
   1325   1340     1   0.10969 276646.080000
   1326   1341     1   0.10129 337397.760000
   1343   1368     1   0.10304 312293.760000
   1344   1355     1   0.10910 283424.160000
   1344   1356     1   0.10910 283424.160000
   1345   1357     1   0.10910 283424.160000
   1345   1358     1   0.10910 283424.160000
   1346   1359     1   0.10969 276646.080000
   1346   1360     1   0.10969 276646.080000
   1348   1361     1   0.10969 276646.080000
   1348   1362     1   0.10969 276646.080000
   1350   1363     1   0.10910 283424.160000
   1350   1364     1   0.10910 283424.160000
   1351   1365     1   0.10969 276646.080000
   1351   1366     1   0.10969 276646.080000
   1352   1367     1   0.10129 337397.760000
   1369   1394     1   0.10304 312293.760000
   1370   1381     1   0.10910 283424.160000
   1370   1382     1   0.10910 283424.160000
   1371   1383     1   0.10910 283424.160000
   1371   1384     1   0.10910 283424.160000
   1372   1385     1   0.10969 276646.080000
   1372   1386     1   0.10969 276646.080000
   1374   1387     1   0.10969 276646.080000
   1374   1388     1   0.10969 276646.080000
   1376   1389     1   0.10910 283424.160000
   1376   1390     1   0.10910 283424.160000
   1377   1391     1   0.10969 276646.080000
   1377   1392     1   0.10969 276646.080000
   1378   1393     1   0.10129 337397.760000
   1395   1420     1   0.10304 312293.760000
   1396   1407     1   0.10910 283424.160000
   1396   1408     1   0.10910 283424.160000
   1397   1409     1   0.10910 283424.160000
   1397   1410     1   0.10910 283424.160000
   1398   1411     1   0.10969 276646.080000
   1398   1412     1   0.10969 276646.080000
   1400   1413     1   0.10969 276646.080000
   1400   1414     1   0.10969 276646.080000
   1402   1415     1   0.10910 283424.160000
   1402   1416     1   0.10910 283424.160000
   1403   1417     1   0.10969 276646.080000
   1403   1418     1   0.10969 276646.080000
   1404   1419     1   0.10129 337397.760000
   1421   1446     1   0.10304 312293.760000
   1422   1433     1   0.10910 283424.160000
   1422   1434     1   0.10910 283424.160000
   1423   1435     1   0.10910 283424.160000
   1423   1436     1   0.10910 283424.160000
   1424   1437     1   0.10969 276646.080000
   1424   1438     1   0.10969 276646.080000
   1426   1439     1   0.10969 276646.080000
   1426   1440     1   0.10969 276646.080000
   1428   1441     1   0.10910 283424.160000
   1428   1442     1   0.10910 283424.160000
   1429   1443     1   0.10969 276646.080000
   1429   1444     1   0.10969 276646.080000
   1430   1445     1   0.10129 337397.760000
   1447   1472     1   0.10304 312293.760000
   1448   1459     1   0.10910 283424.160000
   1448   1460     1   0.10910 283424.160000
   1449   1461     1   0.10910 283424.160000
   1449   1462     1   0.10910 283424.160000
   1450   1463     1   0.10969 276646.080000
   1450   1464     1   0.10969 276646.080000
   1452   1465     1   0.10969 276646.080000
   1452   1466     1   0.10969 276646.080000
   1454   1467     1   0.10910 283424.160000
   1454   1468     1   0.10910 283424.160000
   1455   1469     1   0.10969 276646.080000
   1455   1470     1   0.10969 276646.080000
   1456   1471     1   0.10129 337397.760000
   1473   1498     1   0.10304 312293.760000
   1474   1485     1   0.10910 283424.160000
   1474   1486     1   0.10910 283424.160000
   1475   1487     1   0.10910 283424.160000
   1475   1488     1   0.10910 283424.160000
   1476   1489     1   0.10969 276646.080000
   1476   1490     1   0.10969 276646.080000
   1478   1491     1   0.10969 276646.080000
   1478   1492     1   0.10969 276646.080000
   1480   1493     1   0.10910 283424.160000
   1480   1494     1   0.10910 283424.160000
   1481   1495     1   0.10969 276646.080000
   1481   1496     1   0.10969 276646.080000
   1482   1497     1   0.10129 337397.760000
   1499   1524     1   0.10304 312293.760000
   1500   1511     1   0.10910 283424.160000
   1500   1512     1   0.10910 283424.160000
   1501   1513     1   0.10910 283424.160000
   1501   1514     1   0.10910 283424.160000
   1502   1515     1   0.10969 276646.080000
   1502   1516     1   0.10969 276646.080000
   1504   1517     1   0.10969 276646.080000
   1504   1518     1   0.10969 276646.080000
   1506   1519     1   0.10910 283424.160000
   1506   1520     1   0.10910 283424.160000
   1507   1521     1   0.10969 276646.080000
   1507   1522     1   0.10969 276646.080000
   1508   1523     1   0.10129 337397.760000
   1525   1550     1   0.10304 312293.760000
   1526   1537     1   0.10910 283424.160000
   1526   1538     1   0.10910 283424.160000
   1527   1539     1   0.10910 283424.160000
   1527   1540     1   0.10910 283424.160000
   1528   1541     1   0.10969 276646.080000
   1528   1542     1   0.10969 276646.080000
   1530   1543     1   0.10969 276646.080000
   1530   1544     1   0.10969 276646.080000
   1532   1545     1   0.10910 283424.160000
   1532   1546     1   0.10910 283424.160000
   1533   1547     1   0.10969 276646.080000
   1533   1548     1   0.10969 276646.080000
   1534   1549     1   0.10129 337397.760000
   1551   1576     1   0.10304 312293.760000
   1552   1563     1   0.10910 283424.160000
   1552   1564     1   0.10910 283424.160000
   1553   1565     1   0.10910 283424.160000
   1553   1566     1   0.10910 283424.160000
   1554   1567     1   0.10969 276646.080000
   1554   1568     1   0.10969 276646.080000
   1556   1569     1   0.10969 276646.080000
   1556   1570     1   0.10969 276646.080000
   1558   1571     1   0.10910 283424.160000
   1558   1572     1   0.10910 283424.160000
   1559   1573     1   0.10969 276646.080000
   1559   1574     1   0.10969 276646.080000
   1560   1575     1   0.10129 337397.760000
   1577   1602     1   0.10304 312293.760000
   1578   1589     1   0.10910 283424.160000
   1578   1590     1   0.10910 283424.160000
   1579   1591     1   0.10910 283424.160000
   1579   1592     1   0.10910 283424.160000
   1580   1593     1   0.10969 276646.080000
   1580   1594     1   0.10969 276646.080000
   1582   1595     1   0.10969 276646.080000
   1582   1596     1   0.10969 276646.080000
   1584   1597     1   0.10910 283424.160000
   1584   1598     1   0.10910 283424.160000
   1585   1599     1   0.10969 276646.080000
   1585   1600     1   0.10969 276646.080000
   1586   1601     1   0.10129 337397.760000
   1603   1628     1   0.10304 312293.760000
   1604   1615     1   0.10910 283424.160000
   1604   1616     1   0.10910 283424.160000
   1605   1617     1   0.10910 283424.160000
   1605   1618     1   0.10910 283424.160000
   1606   1619     1   0.10969 276646.080000
   1606   1620     1   0.10969 276646.080000
   1608   1621     1   0.10969 276646.080000
   1608   1622     1   0.10969 276646.080000
   1610   1623     1   0.10910 283424.160000
   1610   1624     1   0.10910 283424.160000
   1611   1625     1   0.10969 276646.080000
   1611   1626     1   0.10969 276646.080000
   1612   1627     1   0.10129 337397.760000
   1629   1654     1   0.10304 312293.760000
   1630   1641     1   0.10910 283424.160000
   1630   1642     1   0.10910 283424.160000
   1631   1643     1   0.10910 283424.160000
   1631   1644     1   0.10910 283424.160000
   1632   1645     1   0.10969 276646.080000
   1632   1646     1   0.10969 276646.080000
   1634   1647     1   0.10969 276646.080000
   1634   1648     1   0.10969 276646.080000
   1636   1649     1   0.10910 283424.160000
   1636   1650     1   0.10910 283424.160000
   1637   1651     1   0.10969 276646.080000
   1637   1652     1   0.10969 276646.080000
   1638   1653     1   0.10129 337397.760000
   1655   1680     1   0.10304 312293.760000
   1656   1667     1   0.10910 283424.160000
   1656   1668     1   0.10910 283424.160000
   1657   1669     1   0.10910 283424.160000
   1657   1670     1   0.10910 283424.160000
   1658   1671     1   0.10969 276646.080000
   1658   1672     1   0.10969 276646.080000
   1660   1673     1   0.10969 276646.080000
   1660   1674     1   0.10969 276646.080000
   1662   1675     1   0.10910 283424.160000
   1662   1676     1   0.10910 283424.160000
   1663   1677     1   0.10969 276646.080000
   1663   1678     1   0.10969 276646.080000
   1664   1679     1   0.10129 337397.760000
   1681   1706     1   0.10304 312293.760000
   1682   1693     1   0.10910 283424.160000
   1682   1694     1   0.10910 283424.160000
   1683   1695     1   0.10910 283424.160000
   1683   1696     1   0.10910 283424.160000
   1684   1697     1   0.10969 276646.080000
   1684   1698     1   0.10969 276646.080000
   1686   1699     1   0.10969 276646.080000
   1686   1700     1   0.10969 276646.080000
   1688   1701     1   0.10910 283424.160000
   1688   1702     1   0.10910 283424.160000
   1689   1703     1   0.10969 276646.080000
   1689   1704     1   0.10969 276646.080000
   1690   1705     1   0.10129 337397.760000
   1707   1732     1   0.10304 312293.760000
   1708   1719     1   0.10910 283424.160000
   1708   1720     1   0.10910 283424.160000
   1709   1721     1   0.10910 283424.160000
   1709   1722     1   0.10910 283424.160000
   1710   1723     1   0.10969 276646.080000
   1710   1724     1   0.10969 276646.080000
   1712   1725     1   0.10969 276646.080000
   1712   1726     1   0.10969 276646.080000
   1714   1727     1   0.10910 283424.160000
   1714   1728     1   0.10910 283424.160000
   1715   1729     1   0.10969 276646.080000
   1715   1730     1   0.10969 276646.080000
   1716   1731     1   0.10129 337397.760000
   1733   1758     1   0.10304 312293.760000
   1734   1745     1   0.10910 283424.160000
   1734   1746     1   0.10910 283424.160000
   1735   1747     1   0.10910 283424.160000
   1735   1748     1   0.10910 283424.160000
   1736   1749     1   0.10969 276646.080000
   1736   1750     1   0.10969 276646.080000
   1738   1751     1   0.10969 276646.080000
   1738   1752     1   0.10969 276646.080000
   1740   1753     1   0.10910 283424.160000
   1740   1754     1   0.10910 283424.160000
   1741   1755     1   0.10969 276646.080000
   1741   1756     1   0.10969 276646.080000
   1742   1757     1   0.10129 337397.760000
   1759   1784     1   0.10304 312293.760000
   1760   1771     1   0.10910 283424.160000
   1760   1772     1   0.10910 283424.160000
   1761   1773     1   0.10910 283424.160000
   1761   1774     1   0.10910 283424.160000
   1762   1775     1   0.10969 276646.080000
   1762   1776     1   0.10969 276646.080000
   1764   1777     1   0.10969 276646.080000
   1764   1778     1   0.10969 276646.080000
   1766   1779     1   0.10910 283424.160000
   1766   1780     1   0.10910 283424.160000
   1767   1781     1   0.10969 276646.080000
   1767   1782     1   0.10969 276646.080000
   1768   1783     1   0.10129 337397.760000
   1785   1810     1   0.10304 312293.760000
   1786   1797     1   0.10910 283424.160000
   1786   1798     1   0.10910 283424.160000
   1787   1799     1   0.10910 283424.160000
   1787   1800     1   0.10910 283424.160000
   1788   1801     1   0.10969 276646.080000
   1788   1802     1   0.10969 276646.080000
   1790   1803     1   0.10969 276646.080000
   1790   1804     1   0.10969 276646.080000
   1792   1805     1   0.10910 283424.160000
   1792   1806     1   0.10910 283424.160000
   1793   1807     1   0.10969 276646.080000
   1793   1808     1   0.10969 276646.080000
   1794   1809     1   0.10129 337397.760000
   1811   1836     1   0.10304 312293.760000
   1812   1823     1   0.10910 283424.160000
   1812   1824     1   0.10910 283424.160000
   1813   1825     1   0.10910 283424.160000
   1813   1826     1   0.10910 283424.160000
   1814   1827     1   0.10969 276646.080000
   1814   1828     1   0.10969 276646.080000
   1816   1829     1   0.10969 276646.080000
   1816   1830     1   0.10969 276646.080000
   1818   1831     1   0.10910 283424.160000
   1818   1832     1   0.10910 283424.160000
   1819   1833     1   0.10969 276646.080000
   1819   1834     1   0.10969 276646.080000
   1820   1835     1   0.10129 337397.760000
   1837   1862     1   0.10304 312293.760000
   1838   1849     1   0.10910 283424.160000
   1838   1850     1   0.10910 283424.160000
   1839   1851     1   0.10910 283424.160000
   1839   1852     1   0.10910 283424.160000
   1840   1853     1   0.10969 276646.080000
   1840   1854     1   0.10969 276646.080000
   1842   1855     1   0.10969 276646.080000
   1842   1856     1   0.10969 276646.080000
   1844   1857     1   0.10910 283424.160000
   1844   1858     1   0.10910 283424.160000
   1845   1859     1   0.10969 276646.080000
   1845   1860     1   0.10969 276646.080000
   1846   1861     1   0.10129 337397.760000
   1863   1888     1   0.10304 312293.760000
   1864   1875     1   0.10910 283424.160000
   1864   1876     1   0.10910 283424.160000
   1865   1877     1   0.10910 283424.160000
   1865   1878     1   0.10910 283424.160000
   1866   1879     1   0.10969 276646.080000
   1866   1880     1   0.10969 276646.080000
   1868   1881     1   0.10969 276646.080000
   1868   1882     1   0.10969 276646.080000
   1870   1883     1   0.10910 283424.160000
   1870   1884     1   0.10910 283424.160000
   1871   1885     1   0.10969 276646.080000
   1871   1886     1   0.10969 276646.080000
   1872   1887     1   0.10129 337397.760000
   1889   1914     1   0.10304 312293.760000
   1890   1901     1   0.10910 283424.160000
   1890   1902     1   0.10910 283424.160000
   1891   1903     1   0.10910 283424.160000
   1891   1904     1   0.10910 283424.160000
   1892   1905     1   0.10969 276646.080000
   1892   1906     1   0.10969 276646.080000
   1894   1907     1   0.10969 276646.080000
   1894   1908     1   0.10969 276646.080000
   1896   1909     1   0.10910 283424.160000
   1896   1910     1   0.10910 283424.160000
   1897   1911     1   0.10969 276646.080000
   1897   1912     1   0.10969 276646.080000
   1898   1913     1   0.10129 337397.760000
   1915   1940     1   0.10304 312293.760000
   1916   1927     1   0.10910 283424.160000
   1916   1928     1   0.10910 283424.160000
   1917   1929     1   0.10910 283424.160000
   1917   1930     1   0.10910 283424.160000
   1918   1931     1   0.10969 276646.080000
   1918   1932     1   0.10969 276646.080000
   1920   1933     1   0.10969 276646.080000
   1920   1934     1   0.10969 276646.080000
   1922   1935     1   0.10910 283424.160000
   1922   1936     1   0.10910 283424.160000
   1923   1937     1   0.10969 276646.080000
   1923   1938     1   0.10969 276646.080000
   1924   1939     1   0.10129 337397.760000
   1941   1966     1   0.10304 312293.760000
   1942   1953     1   0.10910 283424.160000
   1942   1954     1   0.10910 283424.160000
   1943   1955     1   0.10910 283424.160000
   1943   1956     1   0.10910 283424.160000
   1944   1957     1   0.10969 276646.080000
   1944   1958     1   0.10969 276646.080000
   1946   1959     1   0.10969 276646.080000
   1946   1960     1   0.10969 276646.080000
   1948   1961     1   0.10910 283424.160000
   1948   1962     1   0.10910 283424.160000
   1949   1963     1   0.10969 276646.080000
   1949   1964     1   0.10969 276646.080000
   1950   1965     1   0.10129 337397.760000
   1967   1992     1   0.10304 312293.760000
   1968   1979     1   0.10910 283424.160000
   1968   1980     1   0.10910 283424.160000
   1969   1981     1   0.10910 283424.160000
   1969   1982     1   0.10910 283424.160000
   1970   1983     1   0.10969 276646.080000
   1970   1984     1   0.10969 276646.080000
   1972   1985     1   0.10969 276646.080000
   1972   1986     1   0.10969 276646.080000
   1974   1987     1   0.10910 283424.160000
   1974   1988     1   0.10910 283424.160000
   1975   1989     1   0.10969 276646.080000
   1975   1990     1   0.10969 276646.080000
   1976   1991     1   0.10129 337397.760000
   1993   2018     1   0.10304 312293.760000
   1994   2005     1   0.10910 283424.160000
   1994   2006     1   0.10910 283424.160000
   1995   2007     1   0.10910 283424.160000
   1995   2008     1   0.10910 283424.160000
   1996   2009     1   0.10969 276646.080000
   1996   2010     1   0.10969 276646.080000
   1998   2011     1   0.10969 276646.080000
   1998   2012     1   0.10969 276646.080000
   2000   2013     1   0.10910 283424.160000
   2000   2014     1   0.10910 283424.160000
   2001   2015     1   0.10969 276646.080000
   2001   2016     1   0.10969 276646.080000
   2002   2017     1   0.10129 337397.760000
   2019   2044     1   0.10304 312293.760000
   2020   2031     1   0.10910 283424.160000
   2020   2032     1   0.10910 283424.160000
   2021   2033     1   0.10910 283424.160000
   2021   2034     1   0.10910 283424.160000
   2022   2035     1   0.10969 276646.080000
   2022   2036     1   0.10969 276646.080000
   2024   2037     1   0.10969 276646.080000
   2024   2038     1   0.10969 276646.080000
   2026   2039     1   0.10910 283424.160000
   2026   2040     1   0.10910 283424.160000
   2027   2041     1   0.10969 276646.080000
   2027   2042     1   0.10969 276646.080000
   2028   2043     1   0.10129 337397.760000
   2045   2070     1   0.10304 312293.760000
   2046   2057     1   0.10910 283424.160000
   2046   2058     1   0.10910 283424.160000
   2047   2059     1   0.10910 283424.160000
   2047   2060     1   0.10910 283424.160000
   2048   2061     1   0.10969 276646.080000
   2048   2062     1   0.10969 276646.080000
   2050   2063     1   0.10969 276646.080000
   2050   2064     1   0.10969 276646.080000
   2052   2065     1   0.10910 283424.160000
   2052   2066     1   0.10910 283424.160000
   2053   2067     1   0.10969 276646.080000
   2053   2068     1   0.10969 276646.080000
   2054   2069     1   0.10129 337397.760000
   2071   2096     1   0.10304 312293.760000
   2072   2083     1   0.10910 283424.160000
   2072   2084     1   0.10910 283424.160000
   2073   2085     1   0.10910 283424.160000
   2073   2086     1   0.10910 283424.160000
   2074   2087     1   0.10969 276646.080000
   2074   2088     1   0.10969 276646.080000
   2076   2089     1   0.10969 276646.080000
   2076   2090     1   0.10969 276646.080000
   2078   2091     1   0.10910 283424.160000
   2078   2092     1   0.10910 283424.160000
   2079   2093     1   0.10969 276646.080000
   2079   2094     1   0.10969 276646.080000
   2080   2095     1   0.10129 337397.760000
   2097   2122     1   0.10304 312293.760000
   2098   2109     1   0.10910 283424.160000
   2098   2110     1   0.10910 283424.160000
   2099   2111     1   0.10910 283424.160000
   2099   2112     1   0.10910 283424.160000
   2100   2113     1   0.10969 276646.080000
   2100   2114     1   0.10969 276646.080000
   2102   2115     1   0.10969 276646.080000
   2102   2116     1   0.10969 276646.080000
   2104   2117     1   0.10910 283424.160000
   2104   2118     1   0.10910 283424.160000
   2105   2119     1   0.10969 276646.080000
   2105   2120     1   0.10969 276646.080000
   2106   2121     1   0.10129 337397.760000
   2123   2148     1   0.10304 312293.760000
   2124   2135     1   0.10910 283424.160000
   2124   2136     1   0.10910 283424.160000
   2125   2137     1   0.10910 283424.160000
   2125   2138     1   0.10910 283424.160000
   2126   2139     1   0.10969 276646.080000
   2126   2140     1   0.10969 276646.080000
   2128   2141     1   0.10969 276646.080000
   2128   2142     1   0.10969 276646.080000
   2130   2143     1   0.10910 283424.160000
   2130   2144     1   0.10910 283424.160000
   2131   2145     1   0.10969 276646.080000
   2131   2146     1   0.10969 276646.080000
   2132   2147     1   0.10129 337397.760000
   2149   2174     1   0.10304 312293.760000
   2150   2161     1   0.10910 283424.160000
   2150   2162     1   0.10910 283424.160000
   2151   2163     1   0.10910 283424.160000
   2151   2164     1   0.10910 283424.160000
   2152   2165     1   0.10969 276646.080000
   2152   2166     1   0.10969 276646.080000
   2154   2167     1   0.10969 276646.080000
   2154   2168     1   0.10969 276646.080000
   2156   2169     1   0.10910 283424.160000
   2156   2170     1   0.10910 283424.160000
   2157   2171     1   0.10969 276646.080000
   2157   2172     1   0.10969 276646.080000
   2158   2173     1   0.10129 337397.760000
   2175   2200     1   0.10304 312293.760000
   2176   2187     1   0.10910 283424.160000
   2176   2188     1   0.10910 283424.160000
   2177   2189     1   0.10910 283424.160000
   2177   2190     1   0.10910 283424.160000
   2178   2191     1   0.10969 276646.080000
   2178   2192     1   0.10969 276646.080000
   2180   2193     1   0.10969 276646.080000
   2180   2194     1   0.10969 276646.080000
   2182   2195     1   0.10910 283424.160000
   2182   2196     1   0.10910 283424.160000
   2183   2197     1   0.10969 276646.080000
   2183   2198     1   0.10969 276646.080000
   2184   2199     1   0.10129 337397.760000
   2201   2226     1   0.10304 312293.760000
   2202   2213     1   0.10910 283424.160000
   2202   2214     1   0.10910 283424.160000
   2203   2215     1   0.10910 283424.160000
   2203   2216     1   0.10910 283424.160000
   2204   2217     1   0.10969 276646.080000
   2204   2218     1   0.10969 276646.080000
   2206   2219     1   0.10969 276646.080000
   2206   2220     1   0.10969 276646.080000
   2208   2221     1   0.10910 283424.160000
   2208   2222     1   0.10910 283424.160000
   2209   2223     1   0.10969 276646.080000
   2209   2224     1   0.10969 276646.080000
   2210   2225     1   0.10129 337397.760000
   2227   2252     1   0.10304 312293.760000
   2228   2239     1   0.10910 283424.160000
   2228   2240     1   0.10910 283424.160000
   2229   2241     1   0.10910 283424.160000
   2229   2242     1   0.10910 283424.160000
   2230   2243     1   0.10969 276646.080000
   2230   2244     1   0.10969 276646.080000
   2232   2245     1   0.10969 276646.080000
   2232   2246     1   0.10969 276646.080000
   2234   2247     1   0.10910 283424.160000
   2234   2248     1   0.10910 283424.160000
   2235   2249     1   0.10969 276646.080000
   2235   2250     1   0.10969 276646.080000
   2236   2251     1   0.10129 337397.760000
   2253   2278     1   0.10304 312293.760000
   2254   2265     1   0.10910 283424.160000
   2254   2266     1   0.10910 283424.160000
   2255   2267     1   0.10910 283424.160000
   2255   2268     1   0.10910 283424.160000
   2256   2269     1   0.10969 276646.080000
   2256   2270     1   0.10969 276646.080000
   2258   2271     1   0.10969 276646.080000
   2258   2272     1   0.10969 276646.080000
   2260   2273     1   0.10910 283424.160000
   2260   2274     1   0.10910 283424.160000
   2261   2275     1   0.10969 276646.080000
   2261   2276     1   0.10969 276646.080000
   2262   2277     1   0.10129 337397.760000
   2279   2304     1   0.10304 312293.760000
   2280   2291     1   0.10910 283424.160000
   2280   2292     1   0.10910 283424.160000
   2281   2293     1   0.10910 283424.160000
   2281   2294     1   0.10910 283424.160000
   2282   2295     1   0.10969 276646.080000
   2282   2296     1   0.10969 276646.080000
   2284   2297     1   0.10969 276646.080000
   2284   2298     1   0.10969 276646.080000
   2286   2299     1   0.10910 283424.160000
   2286   2300     1   0.10910 283424.160000
   2287   2301     1   0.10969 276646.080000
   2287   2302     1   0.10969 276646.080000
   2288   2303     1   0.10129 337397.760000
   2305   2330     1   0.10304 312293.760000
   2306   2317     1   0.10910 283424.160000
   2306   2318     1   0.10910 283424.160000
   2307   2319     1   0.10910 283424.160000
   2307   2320     1   0.10910 283424.160000
   2308   2321     1   0.10969 276646.080000
   2308   2322     1   0.10969 276646.080000
   2310   2323     1   0.10969 276646.080000
   2310   2324     1   0.10969 276646.080000
   2312   2325     1   0.10910 283424.160000
   2312   2326     1   0.10910 283424.160000
   2313   2327     1   0.10969 276646.080000
   2313   2328     1   0.10969 276646.080000
   2314   2329     1   0.10129 337397.760000
   2331   2356     1   0.10304 312293.760000
   2332   2343     1   0.10910 283424.160000
   2332   2344     1   0.10910 283424.160000
   2333   2345     1   0.10910 283424.160000
   2333   2346     1   0.10910 283424.160000
   2334   2347     1   0.10969 276646.080000
   2334   2348     1   0.10969 276646.080000
   2336   2349     1   0.10969 276646.080000
   2336   2350     1   0.10969 276646.080000
   2338   2351     1   0.10910 283424.160000
   2338   2352     1   0.10910 283424.160000
   2339   2353     1   0.10969 276646.080000
   2339   2354     1   0.10969 276646.080000
   2340   2355     1   0.10129 337397.760000
   2357   2382     1   0.10304 312293.760000
   2358   2369     1   0.10910 283424.160000
   2358   2370     1   0.10910 283424.160000
   2359   2371     1   0.10910 283424.160000
   2359   2372     1   0.10910 283424.160000
   2360   2373     1   0.10969 276646.080000
   2360   2374     1   0.10969 276646.080000
   2362   2375     1   0.10969 276646.080000
   2362   2376     1   0.10969 276646.080000
   2364   2377     1   0.10910 283424.160000
   2364   2378     1   0.10910 283424.160000
   2365   2379     1   0.10969 276646.080000
   2365   2380     1   0.10969 276646.080000
   2366   2381     1   0.10129 337397.760000
   2383   2408     1   0.10304 312293.760000
   2384   2395     1   0.10910 283424.160000
   2384   2396     1   0.10910 283424.160000
   2385   2397     1   0.10910 283424.160000
   2385   2398     1   0.10910 283424.160000
   2386   2399     1   0.10969 276646.080000
   2386   2400     1   0.10969 276646.080000
   2388   2401     1   0.10969 276646.080000
   2388   2402     1   0.10969 276646.080000
   2390   2403     1   0.10910 283424.160000
   2390   2404     1   0.10910 283424.160000
   2391   2405     1   0.10969 276646.080000
   2391   2406     1   0.10969 276646.080000
   2392   2407     1   0.10129 337397.760000
   2409   2434     1   0.10304 312293.760000
   2410   2421     1   0.10910 283424.160000
   2410   2422     1   0.10910 283424.160000
   2411   2423     1   0.10910 283424.160000
   2411   2424     1   0.10910 283424.160000
   2412   2425     1   0.10969 276646.080000
   2412   2426     1   0.10969 276646.080000
   2414   2427     1   0.10969 276646.080000
   2414   2428     1   0.10969 276646.080000
   2416   2429     1   0.10910 283424.160000
   2416   2430     1   0.10910 283424.160000
   2417   2431     1   0.10969 276646.080000
   2417   2432     1   0.10969 276646.080000
   2418   2433     1   0.10129 337397.760000
   2435   2460     1   0.10304 312293.760000
   2436   2447     1   0.10910 283424.160000
   2436   2448     1   0.10910 283424.160000
   2437   2449     1   0.10910 283424.160000
   2437   2450     1   0.10910 283424.160000
   2438   2451     1   0.10969 276646.080000
   2438   2452     1   0.10969 276646.080000
   2440   2453     1   0.10969 276646.080000
   2440   2454     1   0.10969 276646.080000
   2442   2455     1   0.10910 283424.160000
   2442   2456     1   0.10910 283424.160000
   2443   2457     1   0.10969 276646.080000
   2443   2458     1   0.10969 276646.080000
   2444   2459     1   0.10129 337397.760000
   2461   2486     1   0.10304 312293.760000
   2462   2473     1   0.10910 283424.160000
   2462   2474     1   0.10910 283424.160000
   2463   2475     1   0.10910 283424.160000
   2463   2476     1   0.10910 283424.160000
   2464   2477     1   0.10969 276646.080000
   2464   2478     1   0.10969 276646.080000
   2466   2479     1   0.10969 276646.080000
   2466   2480     1   0.10969 276646.080000
   2468   2481     1   0.10910 283424.160000
   2468   2482     1   0.10910 283424.160000
   2469   2483     1   0.10969 276646.080000
   2469   2484     1   0.10969 276646.080000
   2470   2485     1   0.10129 337397.760000
   2487   2512     1   0.10304 312293.760000
   2488   2499     1   0.10910 283424.160000
   2488   2500     1   0.10910 283424.160000
   2489   2501     1   0.10910 283424.160000
   2489   2502     1   0.10910 283424.160000
   2490   2503     1   0.10969 276646.080000
   2490   2504     1   0.10969 276646.080000
   2492   2505     1   0.10969 276646.080000
   2492   2506     1   0.10969 276646.080000
   2494   2507     1   0.10910 283424.160000
   2494   2508     1   0.10910 283424.160000
   2495   2509     1   0.10969 276646.080000
   2495   2510     1   0.10969 276646.080000
   2496   2511     1   0.10129 337397.760000
   2513   2538     1   0.10304 312293.760000
   2514   2525     1   0.10910 283424.160000
   2514   2526     1   0.10910 283424.160000
   2515   2527     1   0.10910 283424.160000
   2515   2528     1   0.10910 283424.160000
   2516   2529     1   0.10969 276646.080000
   2516   2530     1   0.10969 276646.080000
   2518   2531     1   0.10969 276646.080000
   2518   2532     1   0.10969 276646.080000
   2520   2533     1   0.10910 283424.160000
   2520   2534     1   0.10910 283424.160000
   2521   2535     1   0.10969 276646.080000
   2521   2536     1   0.10969 276646.080000
   2522   2537     1   0.10129 337397.760000
   2539   2564     1   0.10304 312293.760000
   2540   2551     1   0.10910 283424.160000
   2540   2552     1   0.10910 283424.160000
   2541   2553     1   0.10910 283424.160000
   2541   2554     1   0.10910 283424.160000
   2542   2555     1   0.10969 276646.080000
   2542   2556     1   0.10969 276646.080000
   2544   2557     1   0.10969 276646.080000
   2544   2558     1   0.10969 276646.080000
   2546   2559     1   0.10910 283424.160000
   2546   2560     1   0.10910 283424.160000
   2547   2561     1   0.10969 276646.080000
   2547   2562     1   0.10969 276646.080000
   2548   2563     1   0.10129 337397.760000
   2565   2590     1   0.10304 312293.760000
   2566   2577     1   0.10910 283424.160000
   2566   2578     1   0.10910 283424.160000
   2567   2579     1   0.10910 283424.160000
   2567   2580     1   0.10910 283424.160000
   2568   2581     1   0.10969 276646.080000
   2568   2582     1   0.10969 276646.080000
   2570   2583     1   0.10969 276646.080000
   2570   2584     1   0.10969 276646.080000
   2572   2585     1   0.10910 283424.160000
   2572   2586     1   0.10910 283424.160000
   2573   2587     1   0.10969 276646.080000
   2573   2588     1   0.10969 276646.080000
   2574   2589     1   0.10129 337397.760000
   2591   2616     1   0.10304 312293.760000
   2592   2603     1   0.10910 283424.160000
   2592   2604     1   0.10910 283424.160000
   2593   2605     1   0.10910 283424.160000
   2593   2606     1   0.10910 283424.160000
   2594   2607     1   0.10969 276646.080000
   2594   2608     1   0.10969 276646.080000
   2596   2609     1   0.10969 276646.080000
   2596   2610     1   0.10969 276646.080000
   2598   2611     1   0.10910 283424.160000
   2598   2612     1   0.10910 283424.160000
   2599   2613     1   0.10969 276646.080000
   2599   2614     1   0.10969 276646.080000
   2600   2615     1   0.10129 337397.760000
   2617   2642     1   0.10304 312293.760000
   2618   2629     1   0.10910 283424.160000
   2618   2630     1   0.10910 283424.160000
   2619   2631     1   0.10910 283424.160000
   2619   2632     1   0.10910 283424.160000
   2620   2633     1   0.10969 276646.080000
   2620   2634     1   0.10969 276646.080000
   2622   2635     1   0.10969 276646.080000
   2622   2636     1   0.10969 276646.080000
   2624   2637     1   0.10910 283424.160000
   2624   2638     1   0.10910 283424.160000
   2625   2639     1   0.10969 276646.080000
   2625   2640     1   0.10969 276646.080000
   2626   2641     1   0.10129 337397.760000
   2643   2668     1   0.10304 312293.760000
   2644   2655     1   0.10910 283424.160000
   2644   2656     1   0.10910 283424.160000
   2645   2657     1   0.10910 283424.160000
   2645   2658     1   0.10910 283424.160000
   2646   2659     1   0.10969 276646.080000
   2646   2660     1   0.10969 276646.080000
   2648   2661     1   0.10969 276646.080000
   2648   2662     1   0.10969 276646.080000
   2650   2663     1   0.10910 283424.160000
   2650   2664     1   0.10910 283424.160000
   2651   2665     1   0.10969 276646.080000
   2651   2666     1   0.10969 276646.080000
   2652   2667     1   0.10129 337397.760000
   2669   2694     1   0.10304 312293.760000
   2670   2681     1   0.10910 283424.160000
   2670   2682     1   0.10910 283424.160000
   2671   2683     1   0.10910 283424.160000
   2671   2684     1   0.10910 283424.160000
   2672   2685     1   0.10969 276646.080000
   2672   2686     1   0.10969 276646.080000
   2674   2687     1   0.10969 276646.080000
   2674   2688     1   0.10969 276646.080000
   2676   2689     1   0.10910 283424.160000
   2676   2690     1   0.10910 283424.160000
   2677   2691     1   0.10969 276646.080000
   2677   2692     1   0.10969 276646.080000
   2678   2693     1   0.10129 337397.760000
   2695   2720     1   0.10304 312293.760000
   2696   2707     1   0.10910 283424.160000
   2696   2708     1   0.10910 283424.160000
   2697   2709     1   0.10910 283424.160000
   2697   2710     1   0.10910 283424.160000
   2698   2711     1   0.10969 276646.080000
   2698   2712     1   0.10969 276646.080000
   2700   2713     1   0.10969 276646.080000
   2700   2714     1   0.10969 276646.080000
   2702   2715     1   0.10910 283424.160000
   2702   2716     1   0.10910 283424.160000
   2703   2717     1   0.10969 276646.080000
   2703   2718     1   0.10969 276646.080000
   2704   2719     1   0.10129 337397.760000
   2721   2746     1   0.10304 312293.760000
   2722   2733     1   0.10910 283424.160000
   2722   2734     1   0.10910 283424.160000
   2723   2735     1   0.10910 283424.160000
   2723   2736     1   0.10910 283424.160000
   2724   2737     1   0.10969 276646.080000
   2724   2738     1   0.10969 276646.080000
   2726   2739     1   0.10969 276646.080000
   2726   2740     1   0.10969 276646.080000
   2728   2741     1   0.10910 283424.160000
   2728   2742     1   0.10910 283424.160000
   2729   2743     1   0.10969 276646.080000
   2729   2744     1   0.10969 276646.080000
   2730   2745     1   0.10129 337397.760000
   2747   2772     1   0.10304 312293.760000
   2748   2759     1   0.10910 283424.160000
   2748   2760     1   0.10910 283424.160000
   2749   2761     1   0.10910 283424.160000
   2749   2762     1   0.10910 283424.160000
   2750   2763     1   0.10969 276646.080000
   2750   2764     1   0.10969 276646.080000
   2752   2765     1   0.10969 276646.080000
   2752   2766     1   0.10969 276646.080000
   2754   2767     1   0.10910 283424.160000
   2754   2768     1   0.10910 283424.160000
   2755   2769     1   0.10969 276646.080000
   2755   2770     1   0.10969 276646.080000
   2756   2771     1   0.10129 337397.760000
   2773   2798     1   0.10304 312293.760000
   2774   2785     1   0.10910 283424.160000
   2774   2786     1   0.10910 283424.160000
   2775   2787     1   0.10910 283424.160000
   2775   2788     1   0.10910 283424.160000
   2776   2789     1   0.10969 276646.080000
   2776   2790     1   0.10969 276646.080000
   2778   2791     1   0.10969 276646.080000
   2778   2792     1   0.10969 276646.080000
   2780   2793     1   0.10910 283424.160000
   2780   2794     1   0.10910 283424.160000
   2781   2795     1   0.10969 276646.080000
   2781   2796     1   0.10969 276646.080000
   2782   2797     1   0.10129 337397.760000
   2799   2824     1   0.10304 312293.760000
   2800   2811     1   0.10910 283424.160000
   2800   2812     1   0.10910 283424.160000
   2801   2813     1   0.10910 283424.160000
   2801   2814     1   0.10910 283424.160000
   2802   2815     1   0.10969 276646.080000
   2802   2816     1   0.10969 276646.080000
   2804   2817     1   0.10969 276646.080000
   2804   2818     1   0.10969 276646.080000
   2806   2819     1   0.10910 283424.160000
   2806   2820     1   0.10910 283424.160000
   2807   2821     1   0.10969 276646.080000
   2807   2822     1   0.10969 276646.080000
   2808   2823     1   0.10129 337397.760000
   2825   2850     1   0.10304 312293.760000
   2826   2837     1   0.10910 283424.160000
   2826   2838     1   0.10910 283424.160000
   2827   2839     1   0.10910 283424.160000
   2827   2840     1   0.10910 283424.160000
   2828   2841     1   0.10969 276646.080000
   2828   2842     1   0.10969 276646.080000
   2830   2843     1   0.10969 276646.080000
   2830   2844     1   0.10969 276646.080000
   2832   2845     1   0.10910 283424.160000
   2832   2846     1   0.10910 283424.160000
   2833   2847     1   0.10969 276646.080000
   2833   2848     1   0.10969 276646.080000
   2834   2849     1   0.10129 337397.760000
   2851   2876     1   0.10304 312293.760000
   2852   2863     1   0.10910 283424.160000
   2852   2864     1   0.10910 283424.160000
   2853   2865     1   0.10910 283424.160000
   2853   2866     1   0.10910 283424.160000
   2854   2867     1   0.10969 276646.080000
   2854   2868     1   0.10969 276646.080000
   2856   2869     1   0.10969 276646.080000
   2856   2870     1   0.10969 276646.080000
   2858   2871     1   0.10910 283424.160000
   2858   2872     1   0.10910 283424.160000
   2859   2873     1   0.10969 276646.080000
   2859   2874     1   0.10969 276646.080000
   2860   2875     1   0.10129 337397.760000
   2877   2902     1   0.10304 312293.760000
   2878   2889     1   0.10910 283424.160000
   2878   2890     1   0.10910 283424.160000
   2879   2891     1   0.10910 283424.160000
   2879   2892     1   0.10910 283424.160000
   2880   2893     1   0.10969 276646.080000
   2880   2894     1   0.10969 276646.080000
   2882   2895     1   0.10969 276646.080000
   2882   2896     1   0.10969 276646.080000
   2884   2897     1   0.10910 283424.160000
   2884   2898     1   0.10910 283424.160000
   2885   2899     1   0.10969 276646.080000
   2885   2900     1   0.10969 276646.080000
   2886   2901     1   0.10129 337397.760000
   2903   2928     1   0.10304 312293.760000
   2904   2915     1   0.10910 283424.160000
   2904   2916     1   0.10910 283424.160000
   2905   2917     1   0.10910 283424.160000
   2905   2918     1   0.10910 283424.160000
   2906   2919     1   0.10969 276646.080000
   2906   2920     1   0.10969 276646.080000
   2908   2921     1   0.10969 276646.080000
   2908   2922     1   0.10969 276646.080000
   2910   2923     1   0.10910 283424.160000
   2910   2924     1   0.10910 283424.160000
   2911   2925     1   0.10969 276646.080000
   2911   2926     1   0.10969 276646.080000
   2912   2927     1   0.10129 337397.760000
   2929   2954     1   0.10304 312293.760000
   2930   2941     1   0.10910 283424.160000
   2930   2942     1   0.10910 283424.160000
   2931   2943     1   0.10910 283424.160000
   2931   2944     1   0.10910 283424.160000
   2932   2945     1   0.10969 276646.080000
   2932   2946     1   0.10969 276646.080000
   2934   2947     1   0.10969 276646.080000
   2934   2948     1   0.10969 276646.080000
   2936   2949     1   0.10910 283424.160000
   2936   2950     1   0.10910 283424.160000
   2937   2951     1   0.10969 276646.080000
   2937   2952     1   0.10969 276646.080000
   2938   2953     1   0.10129 337397.760000
   2955   2980     1   0.10304 312293.760000
   2956   2967     1   0.10910 283424.160000
   2956   2968     1   0.10910 283424.160000
   2957   2969     1   0.10910 283424.160000
   2957   2970     1   0.10910 283424.160000
   2958   2971     1   0.10969 276646.080000
   2958   2972     1   0.10969 276646.080000
   2960   2973     1   0.10969 276646.080000
   2960   2974     1   0.10969 276646.080000
   2962   2975     1   0.10910 283424.160000
   2962   2976     1   0.10910 283424.160000
   2963   2977     1   0.10969 276646.080000
   2963   2978     1   0.10969 276646.080000
   2964   2979     1   0.10129 337397.760000
   2981   3006     1   0.10304 312293.760000
   2982   2993     1   0.10910 283424.160000
   2982   2994     1   0.10910 283424.160000
   2983   2995     1   0.10910 283424.160000
   2983   2996     1   0.10910 283424.160000
   2984   2997     1   0.10969 276646.080000
   2984   2998     1   0.10969 276646.080000
   2986   2999     1   0.10969 276646.080000
   2986   3000     1   0.10969 276646.080000
   2988   3001     1   0.10910 283424.160000
   2988   3002     1   0.10910 283424.160000
   2989   3003     1   0.10969 276646.080000
   2989   3004     1   0.10969 276646.080000
   2990   3005     1   0.10129 337397.760000
   3007   3032     1   0.10304 312293.760000
   3008   3019     1   0.10910 283424.160000
   3008   3020     1   0.10910 283424.160000
   3009   3021     1   0.10910 283424.160000
   3009   3022     1   0.10910 283424.160000
   3010   3023     1   0.10969 276646.080000
   3010   3024     1   0.10969 276646.080000
   3012   3025     1   0.10969 276646.080000
   3012   3026     1   0.10969 276646.080000
   3014   3027     1   0.10910 283424.160000
   3014   3028     1   0.10910 283424.160000
   3015   3029     1   0.10969 276646.080000
   3015   3030     1   0.10969 276646.080000
   3016   3031     1   0.10129 337397.760000
   3033   3058     1   0.10304 312293.760000
   3034   3045     1   0.10910 283424.160000
   3034   3046     1   0.10910 283424.160000
   3035   3047     1   0.10910 283424.160000
   3035   3048     1   0.10910 283424.160000
   3036   3049     1   0.10969 276646.080000
   3036   3050     1   0.10969 276646.080000
   3038   3051     1   0.10969 276646.080000
   3038   3052     1   0.10969 276646.080000
   3040   3053     1   0.10910 283424.160000
   3040   3054     1   0.10910 283424.160000
   3041   3055     1   0.10969 276646.080000
   3041   3056     1   0.10969 276646.080000
   3042   3057     1   0.10129 337397.760000
   3059   3084     1   0.10304 312293.760000
   3060   3071     1   0.10910 283424.160000
   3060   3072     1   0.10910 283424.160000
   3061   3073     1   0.10910 283424.160000
   3061   3074     1   0.10910 283424.160000
   3062   3075     1   0.10969 276646.080000
   3062   3076     1   0.10969 276646.080000
   3064   3077     1   0.10969 276646.080000
   3064   3078     1   0.10969 276646.080000
   3066   3079     1   0.10910 283424.160000
   3066   3080     1   0.10910 283424.160000
   3067   3081     1   0.10969 276646.080000
   3067   3082     1   0.10969 276646.080000
   3068   3083     1   0.10129 337397.760000
   3085   3110     1   0.10304 312293.760000
   3086   3097     1   0.10910 283424.160000
   3086   3098     1   0.10910 283424.160000
   3087   3099     1   0.10910 283424.160000
   3087   3100     1   0.10910 283424.160000
   3088   3101     1   0.10969 276646.080000
   3088   3102     1   0.10969 276646.080000
   3090   3103     1   0.10969 276646.080000
   3090   3104     1   0.10969 276646.080000
   3092   3105     1   0.10910 283424.160000
   3092   3106     1   0.10910 283424.160000
   3093   3107     1   0.10969 276646.080000
   3093   3108     1   0.10969 276646.080000
   3094   3109     1   0.10129 337397.760000
   3111   3136     1   0.10304 312293.760000
   3112   3123     1   0.10910 283424.160000
   3112   3124     1   0.10910 283424.160000
   3113   3125     1   0.10910 283424.160000
   3113   3126     1   0.10910 283424.160000
   3114   3127     1   0.10969 276646.080000
   3114   3128     1   0.10969 276646.080000
   3116   3129     1   0.10969 276646.080000
   3116   3130     1   0.10969 276646.080000
   3118   3131     1   0.10910 283424.160000
   3118   3132     1   0.10910 283424.160000
   3119   3133     1   0.10969 276646.080000
   3119   3134     1   0.10969 276646.080000
   3120   3135     1   0.10129 337397.760000
   3137   3162     1   0.10304 312293.760000
   3138   3149     1   0.10910 283424.160000
   3138   3150     1   0.10910 283424.160000
   3139   3151     1   0.10910 283424.160000
   3139   3152     1   0.10910 283424.160000
   3140   3153     1   0.10969 276646.080000
   3140   3154     1   0.10969 276646.080000
   3142   3155     1   0.10969 276646.080000
   3142   3156     1   0.10969 276646.080000
   3144   3157     1   0.10910 283424.160000
   3144   3158     1   0.10910 283424.160000
   3145   3159     1   0.10969 276646.080000
   3145   3160     1   0.10969 276646.080000
   3146   3161     1   0.10129 337397.760000
   3163   3188     1   0.10304 312293.760000
   3164   3175     1   0.10910 283424.160000
   3164   3176     1   0.10910 283424.160000
   3165   3177     1   0.10910 283424.160000
   3165   3178     1   0.10910 283424.160000
   3166   3179     1   0.10969 276646.080000
   3166   3180     1   0.10969 276646.080000
   3168   3181     1   0.10969 276646.080000
   3168   3182     1   0.10969 276646.080000
   3170   3183     1   0.10910 283424.160000
   3170   3184     1   0.10910 283424.160000
   3171   3185     1   0.10969 276646.080000
   3171   3186     1   0.10969 276646.080000
   3172   3187     1   0.10129 337397.760000
   3189   3214     1   0.10304 312293.760000
   3190   3201     1   0.10910 283424.160000
   3190   3202     1   0.10910 283424.160000
   3191   3203     1   0.10910 283424.160000
   3191   3204     1   0.10910 283424.160000
   3192   3205     1   0.10969 276646.080000
   3192   3206     1   0.10969 276646.080000
   3194   3207     1   0.10969 276646.080000
   3194   3208     1   0.10969 276646.080000
   3196   3209     1   0.10910 283424.160000
   3196   3210     1   0.10910 283424.160000
   3197   3211     1   0.10969 276646.080000
   3197   3212     1   0.10969 276646.080000
   3198   3213     1   0.10129 337397.760000
   3215   3240     1   0.10304 312293.760000
   3216   3227     1   0.10910 283424.160000
   3216   3228     1   0.10910 283424.160000
   3217   3229     1   0.10910 283424.160000
   3217   3230     1   0.10910 283424.160000
   3218   3231     1   0.10969 276646.080000
   3218   3232     1   0.10969 276646.080000
   3220   3233     1   0.10969 276646.080000
   3220   3234     1   0.10969 276646.080000
   3222   3235     1   0.10910 283424.160000
   3222   3236     1   0.10910 283424.160000
   3223   3237     1   0.10969 276646.080000
   3223   3238     1   0.10969 276646.080000
   3224   3239     1   0.10129 337397.760000
   3241   3266     1   0.10304 312293.760000
   3242   3253     1   0.10910 283424.160000
   3242   3254     1   0.10910 283424.160000
   3243   3255     1   0.10910 283424.160000
   3243   3256     1   0.10910 283424.160000
   3244   3257     1   0.10969 276646.080000
   3244   3258     1   0.10969 276646.080000
   3246   3259     1   0.10969 276646.080000
   3246   3260     1   0.10969 276646.080000
   3248   3261     1   0.10910 283424.160000
   3248   3262     1   0.10910 283424.160000
   3249   3263     1   0.10969 276646.080000
   3249   3264     1   0.10969 276646.080000
   3250   3265     1   0.10129 337397.760000
   3267   3268     1   0.10129 337397.760000
   3269   3271     1   0.10969 276646.080000
   3269   3272     1   0.10969 276646.080000
   3270   3273     1   0.10910 283424.160000
   3270   3274     1   0.10910 283424.160000
   3275   3276     1   0.10304 312293.760000
   3275   3277     1   0.10304 312293.760000
   3275   3278     1   0.10304 312293.760000
   3279   3280     1   0.10129 337397.760000
   3281   3283     1   0.10969 276646.080000
   3281   3284     1   0.10969 276646.080000
   3282   3285     1   0.10910 283424.160000
   3282   3286     1   0.10910 283424.160000
   3287   3288     1   0.10304 312293.760000
   3287   3289     1   0.10304 312293.760000
   3287   3290     1   0.10304 312293.760000
   3291   3292     1   0.10129 337397.760000
   3293   3295     1   0.10969 276646.080000
   3293   3296     1   0.10969 276646.080000
   3294   3297     1   0.10910 283424.160000
   3294   3298     1   0.10910 283424.160000
   3299   3300     1   0.10304 312293.760000
   3299   3301     1   0.10304 312293.760000
   3299   3302     1   0.10304 312293.760000
   3303   3304     1   0.10129 337397.760000
   3305   3307     1   0.10969 276646.080000
   3305   3308     1   0.10969 276646.080000
   3306   3309     1   0.10910 283424.160000
   3306   3310     1   0.10910 283424.160000
   3311   3312     1   0.10304 312293.760000
   3311   3313     1   0.10304 312293.760000
   3311   3314     1   0.10304 312293.760000
   3315   3316     1   0.10129 337397.760000
   3317   3319     1   0.10969 276646.080000
   3317   3320     1   0.10969 276646.080000
   3318   3321     1   0.10910 283424.160000
   3318   3322     1   0.10910 283424.160000
   3323   3324     1   0.10304 312293.760000
   3323   3325     1   0.10304 312293.760000
   3323   3326     1   0.10304 312293.760000
   3327   3328     1   0.10129 337397.760000
   3329   3331     1   0.10969 276646.080000
   3329   3332     1   0.10969 276646.080000
   3330   3333     1   0.10910 283424.160000
   3330   3334     1   0.10910 283424.160000
   3335   3336     1   0.10304 312293.760000
   3335   3337     1   0.10304 312293.760000
   3335   3338     1   0.10304 312293.760000
   3339   3340     1   0.10129 337397.760000
   3341   3343     1   0.10969 276646.080000
   3341   3344     1   0.10969 276646.080000
   3342   3345     1   0.10910 283424.160000
   3342   3346     1   0.10910 283424.160000
   3347   3348     1   0.10304 312293.760000
   3347   3349     1   0.10304 312293.760000
   3347   3350     1   0.10304 312293.760000
   3351   3352     1   0.10129 337397.760000
   3353   3355     1   0.10969 276646.080000
   3353   3356     1   0.10969 276646.080000
   3354   3357     1   0.10910 283424.160000
   3354   3358     1   0.10910 283424.160000
   3359   3360     1   0.10304 312293.760000
   3359   3361     1   0.10304 312293.760000
   3359   3362     1   0.10304 312293.760000
   3363   3364     1   0.10129 337397.760000
   3365   3367     1   0.10969 276646.080000
   3365   3368     1   0.10969 276646.080000
   3366   3369     1   0.10910 283424.160000
   3366   3370     1   0.10910 283424.160000
   3371   3372     1   0.10304 312293.760000
   3371   3373     1   0.10304 312293.760000
   3371   3374     1   0.10304 312293.760000
   3375   3376     1   0.10129 337397.760000
   3377   3379     1   0.10969 276646.080000
   3377   3380     1   0.10969 276646.080000
   3378   3381     1   0.10910 283424.160000
   3378   3382     1   0.10910 283424.160000
   3383   3384     1   0.10304 312293.760000
   3383   3385     1   0.10304 312293.760000
   3383   3386     1   0.10304 312293.760000
   3387   3388     1   0.10129 337397.760000
   3389   3391     1   0.10969 276646.080000
   3389   3392     1   0.10969 276646.080000
   3390   3393     1   0.10910 283424.160000
   3390   3394     1   0.10910 283424.160000
   3395   3396     1   0.10304 312293.760000
   3395   3397     1   0.10304 312293.760000
   3395   3398     1   0.10304 312293.760000
   3399   3400     1   0.10129 337397.760000
   3401   3403     1   0.10969 276646.080000
   3401   3404     1   0.10969 276646.080000
   3402   3405     1   0.10910 283424.160000
   3402   3406     1   0.10910 283424.160000
   3407   3408     1   0.10304 312293.760000
   3407   3409     1   0.10304 312293.760000
   3407   3410     1   0.10304 312293.760000
   3411   3412     1   0.10129 337397.760000
   3413   3415     1   0.10969 276646.080000
   3413   3416     1   0.10969 276646.080000
   3414   3417     1   0.10910 283424.160000
   3414   3418     1   0.10910 283424.160000
   3419   3420     1   0.10304 312293.760000
   3419   3421     1   0.10304 312293.760000
   3419   3422     1   0.10304 312293.760000
   3423   3424     1   0.10129 337397.760000
   3425   3427     1   0.10969 276646.080000
   3425   3428     1   0.10969 276646.080000
   3426   3429     1   0.10910 283424.160000
   3426   3430     1   0.10910 283424.160000
   3431   3432     1   0.10304 312293.760000
   3431   3433     1   0.10304 312293.760000
   3431   3434     1   0.10304 312293.760000
   3435   3436     1   0.10129 337397.760000
   3437   3439     1   0.10969 276646.080000
   3437   3440     1   0.10969 276646.080000
   3438   3441     1   0.10910 283424.160000
   3438   3442     1   0.10910 283424.160000
   3443   3444     1   0.10304 312293.760000
   3443   3445     1   0.10304 312293.760000
   3443   3446     1   0.10304 312293.760000
   3447   3448     1   0.10129 337397.760000
   3449   3451     1   0.10969 276646.080000
   3449   3452     1   0.10969 276646.080000
   3450   3453     1   0.10910 283424.160000
   3450   3454     1   0.10910 283424.160000
   3455   3456     1   0.10304 312293.760000
   3455   3457     1   0.10304 312293.760000
   3455   3458     1   0.10304 312293.760000
   3459   3460     1   0.10129 337397.760000
   3461   3463     1   0.10969 276646.080000
   3461   3464     1   0.10969 276646.080000
   3462   3465     1   0.10910 283424.160000
   3462   3466     1   0.10910 283424.160000
   3467   3468     1   0.10304 312293.760000
   3467   3469     1   0.10304 312293.760000
   3467   3470     1   0.10304 312293.760000
   3471   3472     1   0.10129 337397.760000
   3473   3475     1   0.10969 276646.080000
   3473   3476     1   0.10969 276646.080000
   3474   3477     1   0.10910 283424.160000
   3474   3478     1   0.10910 283424.160000
   3479   3480     1   0.10304 312293.760000
   3479   3481     1   0.10304 312293.760000
   3479   3482     1   0.10304 312293.760000
   3483   3484     1   0.10129 337397.760000
   3485   3487     1   0.10969 276646.080000
   3485   3488     1   0.10969 276646.080000
   3486   3489     1   0.10910 283424.160000
   3486   3490     1   0.10910 283424.160000
   3491   3492     1   0.10304 312293.760000
   3491   3493     1   0.10304 312293.760000
   3491   3494     1   0.10304 312293.760000
   3495   3496     1   0.10129 337397.760000
   3497   3499     1   0.10969 276646.080000
   3497   3500     1   0.10969 276646.080000
   3498   3501     1   0.10910 283424.160000
   3498   3502     1   0.10910 283424.160000
   3503   3504     1   0.10304 312293.760000
   3503   3505     1   0.10304 312293.760000
   3503   3506     1   0.10304 312293.760000
   3507   3508     1   0.10129 337397.760000
   3509   3511     1   0.10969 276646.080000
   3509   3512     1   0.10969 276646.080000
   3510   3513     1   0.10910 283424.160000
   3510   3514     1   0.10910 283424.160000
   3515   3516     1   0.10304 312293.760000
   3515   3517     1   0.10304 312293.760000
   3515   3518     1   0.10304 312293.760000
   3519   3520     1   0.10129 337397.760000
   3521   3523     1   0.10969 276646.080000
   3521   3524     1   0.10969 276646.080000
   3522   3525     1   0.10910 283424.160000
   3522   3526     1   0.10910 283424.160000
   3527   3528     1   0.10304 312293.760000
   3527   3529     1   0.10304 312293.760000
   3527   3530     1   0.10304 312293.760000
   3531   3532     1   0.10129 337397.760000
   3533   3535     1   0.10969 276646.080000
   3533   3536     1   0.10969 276646.080000
   3534   3537     1   0.10910 283424.160000
   3534   3538     1   0.10910 283424.160000
   3539   3540     1   0.10304 312293.760000
   3539   3541     1   0.10304 312293.760000
   3539   3542     1   0.10304 312293.760000
   3543   3544     1   0.10129 337397.760000
   3545   3547     1   0.10969 276646.080000
   3545   3548     1   0.10969 276646.080000
   3546   3549     1   0.10910 283424.160000
   3546   3550     1   0.10910 283424.160000
   3551   3552     1   0.10304 312293.760000
   3551   3553     1   0.10304 312293.760000
   3551   3554     1   0.10304 312293.760000
   3555   3556     1   0.10129 337397.760000
   3557   3559     1   0.10969 276646.080000
   3557   3560     1   0.10969 276646.080000
   3558   3561     1   0.10910 283424.160000
   3558   3562     1   0.10910 283424.160000
   3563   3564     1   0.10304 312293.760000
   3563   3565     1   0.10304 312293.760000
   3563   3566     1   0.10304 312293.760000
   3567   3568     1   0.10129 337397.760000
   3569   3571     1   0.10969 276646.080000
   3569   3572     1   0.10969 276646.080000
   3570   3573     1   0.10910 283424.160000
   3570   3574     1   0.10910 283424.160000
   3575   3576     1   0.10304 312293.760000
   3575   3577     1   0.10304 312293.760000
   3575   3578     1   0.10304 312293.760000
   3579   3580     1   0.10129 337397.760000
   3581   3583     1   0.10969 276646.080000
   3581   3584     1   0.10969 276646.080000
   3582   3585     1   0.10910 283424.160000
   3582   3586     1   0.10910 283424.160000
   3587   3588     1   0.10304 312293.760000
   3587   3589     1   0.10304 312293.760000
   3587   3590     1   0.10304 312293.760000
   3591   3592     1   0.10129 337397.760000
   3593   3595     1   0.10969 276646.080000
   3593   3596     1   0.10969 276646.080000
   3594   3597     1   0.10910 283424.160000
   3594   3598     1   0.10910 283424.160000
   3599   3600     1   0.10304 312293.760000
   3599   3601     1   0.10304 312293.760000
   3599   3602     1   0.10304 312293.760000
   3603   3604     1   0.10129 337397.760000
   3605   3607     1   0.10969 276646.080000
   3605   3608     1   0.10969 276646.080000
   3606   3609     1   0.10910 283424.160000
   3606   3610     1   0.10910 283424.160000
   3611   3612     1   0.10304 312293.760000
   3611   3613     1   0.10304 312293.760000
   3611   3614     1   0.10304 312293.760000
   3615   3616     1   0.10129 337397.760000
   3617   3619     1   0.10969 276646.080000
   3617   3620     1   0.10969 276646.080000
   3618   3621     1   0.10910 283424.160000
   3618   3622     1   0.10910 283424.160000
   3623   3624     1   0.10304 312293.760000
   3623   3625     1   0.10304 312293.760000
   3623   3626     1   0.10304 312293.760000
   3627   3628     1   0.10129 337397.760000
   3629   3631     1   0.10969 276646.080000
   3629   3632     1   0.10969 276646.080000
   3630   3633     1   0.10910 283424.160000
   3630   3634     1   0.10910 283424.160000
   3635   3636     1   0.10304 312293.760000
   3635   3637     1   0.10304 312293.760000
   3635   3638     1   0.10304 312293.760000
   3639   3640     1   0.10129 337397.760000
   3641   3643     1   0.10969 276646.080000
   3641   3644     1   0.10969 276646.080000
   3642   3645     1   0.10910 283424.160000
   3642   3646     1   0.10910 283424.160000
   3647   3648     1   0.10304 312293.760000
   3647   3649     1   0.10304 312293.760000
   3647   3650     1   0.10304 312293.760000
   3651   3652     1   0.10129 337397.760000
   3653   3655     1   0.10969 276646.080000
   3653   3656     1   0.10969 276646.080000
   3654   3657     1   0.10910 283424.160000
   3654   3658     1   0.10910 283424.160000
   3659   3660     1   0.10304 312293.760000
   3659   3661     1   0.10304 312293.760000
   3659   3662     1   0.10304 312293.760000
   3663   3664     1   0.10129 337397.760000
   3665   3667     1   0.10969 276646.080000
   3665   3668     1   0.10969 276646.080000
   3666   3669     1   0.10910 283424.160000
   3666   3670     1   0.10910 283424.160000
   3671   3672     1   0.10304 312293.760000
   3671   3673     1   0.10304 312293.760000
   3671   3674     1   0.10304 312293.760000
   3675   3676     1   0.10129 337397.760000
   3677   3679     1   0.10969 276646.080000
   3677   3680     1   0.10969 276646.080000
   3678   3681     1   0.10910 283424.160000
   3678   3682     1   0.10910 283424.160000
   3683   3684     1   0.10304 312293.760000
   3683   3685     1   0.10304 312293.760000
   3683   3686     1   0.10304 312293.760000
   3687   3688     1   0.10129 337397.760000
   3689   3691     1   0.10969 276646.080000
   3689   3692     1   0.10969 276646.080000
   3690   3693     1   0.10910 283424.160000
   3690   3694     1   0.10910 283424.160000
   3695   3696     1   0.10304 312293.760000
   3695   3697     1   0.10304 312293.760000
   3695   3698     1   0.10304 312293.760000
   3699   3700     1   0.10129 337397.760000
   3701   3703     1   0.10969 276646.080000
   3701   3704     1   0.10969 276646.080000
   3702   3705     1   0.10910 283424.160000
   3702   3706     1   0.10910 283424.160000
   3707   3708     1   0.10304 312293.760000
   3707   3709     1   0.10304 312293.760000
   3707   3710     1   0.10304 312293.760000
   3711   3712     1   0.10129 337397.760000
   3713   3715     1   0.10969 276646.080000
   3713   3716     1   0.10969 276646.080000
   3714   3717     1   0.10910 283424.160000
   3714   3718     1   0.10910 283424.160000
   3719   3720     1   0.10304 312293.760000
   3719   3721     1   0.10304 312293.760000
   3719   3722     1   0.10304 312293.760000
   3723   3724     1   0.10129 337397.760000
   3725   3727     1   0.10969 276646.080000
   3725   3728     1   0.10969 276646.080000
   3726   3729     1   0.10910 283424.160000
   3726   3730     1   0.10910 283424.160000
   3731   3732     1   0.10304 312293.760000
   3731   3733     1   0.10304 312293.760000
   3731   3734     1   0.10304 312293.760000
   3735   3736     1   0.10129 337397.760000
   3737   3739     1   0.10969 276646.080000
   3737   3740     1   0.10969 276646.080000
   3738   3741     1   0.10910 283424.160000
   3738   3742     1   0.10910 283424.160000
   3743   3744     1   0.10304 312293.760000
   3743   3745     1   0.10304 312293.760000
   3743   3746     1   0.10304 312293.760000
   3747   3748     1   0.10129 337397.760000
   3749   3751     1   0.10969 276646.080000
   3749   3752     1   0.10969 276646.080000
   3750   3753     1   0.10910 283424.160000
   3750   3754     1   0.10910 283424.160000
   3755   3756     1   0.10304 312293.760000
   3755   3757     1   0.10304 312293.760000
   3755   3758     1   0.10304 312293.760000
   3759   3760     1   0.10129 337397.760000
   3761   3763     1   0.10969 276646.080000
   3761   3764     1   0.10969 276646.080000
   3762   3765     1   0.10910 283424.160000
   3762   3766     1   0.10910 283424.160000
   3767   3768     1   0.10304 312293.760000
   3767   3769     1   0.10304 312293.760000
   3767   3770     1   0.10304 312293.760000
   3771   3772     1   0.10129 337397.760000
   3773   3775     1   0.10969 276646.080000
   3773   3776     1   0.10969 276646.080000
   3774   3777     1   0.10910 283424.160000
   3774   3778     1   0.10910 283424.160000
   3779   3780     1   0.10304 312293.760000
   3779   3781     1   0.10304 312293.760000
   3779   3782     1   0.10304 312293.760000
   3783   3784     1   0.10129 337397.760000
   3785   3787     1   0.10969 276646.080000
   3785   3788     1   0.10969 276646.080000
   3786   3789     1   0.10910 283424.160000
   3786   3790     1   0.10910 283424.160000
   3791   3792     1   0.10304 312293.760000
   3791   3793     1   0.10304 312293.760000
   3791   3794     1   0.10304 312293.760000
   3795   3796     1   0.10129 337397.760000
   3797   3799     1   0.10969 276646.080000
   3797   3800     1   0.10969 276646.080000
   3798   3801     1   0.10910 283424.160000
   3798   3802     1   0.10910 283424.160000
   3803   3804     1   0.10304 312293.760000
   3803   3805     1   0.10304 312293.760000
   3803   3806     1   0.10304 312293.760000
   3807   3808     1   0.10129 337397.760000
   3809   3811     1   0.10969 276646.080000
   3809   3812     1   0.10969 276646.080000
   3810   3813     1   0.10910 283424.160000
   3810   3814     1   0.10910 283424.160000
   3815   3816     1   0.10304 312293.760000
   3815   3817     1   0.10304 312293.760000
   3815   3818     1   0.10304 312293.760000
   3819   3820     1   0.10129 337397.760000
   3821   3823     1   0.10969 276646.080000
   3821   3824     1   0.10969 276646.080000
   3822   3825     1   0.10910 283424.160000
   3822   3826     1   0.10910 283424.160000
   3827   3828     1   0.10304 312293.760000
   3827   3829     1   0.10304 312293.760000
   3827   3830     1   0.10304 312293.760000
   3831   3832     1   0.10129 337397.760000
   3833   3835     1   0.10969 276646.080000
   3833   3836     1   0.10969 276646.080000
   3834   3837     1   0.10910 283424.160000
   3834   3838     1   0.10910 283424.160000
   3839   3840     1   0.10304 312293.760000
   3839   3841     1   0.10304 312293.760000
   3839   3842     1   0.10304 312293.760000
   3843   3844     1   0.10129 337397.760000
   3845   3847     1   0.10969 276646.080000
   3845   3848     1   0.10969 276646.080000
   3846   3849     1   0.10910 283424.160000
   3846   3850     1   0.10910 283424.160000
   3851   3852     1   0.10304 312293.760000
   3851   3853     1   0.10304 312293.760000
   3851   3854     1   0.10304 312293.760000
   3855   3856     1   0.10129 337397.760000
   3857   3859     1   0.10969 276646.080000
   3857   3860     1   0.10969 276646.080000
   3858   3861     1   0.10910 283424.160000
   3858   3862     1   0.10910 283424.160000
   3863   3864     1   0.10304 312293.760000
   3863   3865     1   0.10304 312293.760000
   3863   3866     1   0.10304 312293.760000
   3867   3868     1   0.10129 337397.760000
   3869   3871     1   0.10969 276646.080000
   3869   3872     1   0.10969 276646.080000
   3870   3873     1   0.10910 283424.160000
   3870   3874     1   0.10910 283424.160000
   3875   3876     1   0.10304 312293.760000
   3875   3877     1   0.10304 312293.760000
   3875   3878     1   0.10304 312293.760000
   3879   3880     1   0.10129 337397.760000
   3881   3883     1   0.10969 276646.080000
   3881   3884     1   0.10969 276646.080000
   3882   3885     1   0.10910 283424.160000
   3882   3886     1   0.10910 283424.160000
   3887   3888     1   0.10304 312293.760000
   3887   3889     1   0.10304 312293.760000
   3887   3890     1   0.10304 312293.760000
   3891   3892     1   0.10129 337397.760000
   3893   3895     1   0.10969 276646.080000
   3893   3896     1   0.10969 276646.080000
   3894   3897     1   0.10910 283424.160000
   3894   3898     1   0.10910 283424.160000
   3899   3900     1   0.10304 312293.760000
   3899   3901     1   0.10304 312293.760000
   3899   3902     1   0.10304 312293.760000
   3903   3904     1   0.10129 337397.760000
   3905   3907     1   0.10969 276646.080000
   3905   3908     1   0.10969 276646.080000
   3906   3909     1   0.10910 283424.160000
   3906   3910     1   0.10910 283424.160000
   3911   3912     1   0.10304 312293.760000
   3911   3913     1   0.10304 312293.760000
   3911   3914     1   0.10304 312293.760000
   3915   3916     1   0.10129 337397.760000
   3917   3919     1   0.10969 276646.080000
   3917   3920     1   0.10969 276646.080000
   3918   3921     1   0.10910 283424.160000
   3918   3922     1   0.10910 283424.160000
   3923   3924     1   0.10304 312293.760000
   3923   3925     1   0.10304 312293.760000
   3923   3926     1   0.10304 312293.760000
   3927   3928     1   0.10129 337397.760000
   3929   3931     1   0.10969 276646.080000
   3929   3932     1   0.10969 276646.080000
   3930   3933     1   0.10910 283424.160000
   3930   3934     1   0.10910 283424.160000
   3935   3936     1   0.10304 312293.760000
   3935   3937     1   0.10304 312293.760000
   3935   3938     1   0.10304 312293.760000
   3939   3940     1   0.10129 337397.760000
   3941   3943     1   0.10969 276646.080000
   3941   3944     1   0.10969 276646.080000
   3942   3945     1   0.10910 283424.160000
   3942   3946     1   0.10910 283424.160000
   3947   3948     1   0.10304 312293.760000
   3947   3949     1   0.10304 312293.760000
   3947   3950     1   0.10304 312293.760000
   3951   3952     1   0.10129 337397.760000
   3953   3955     1   0.10969 276646.080000
   3953   3956     1   0.10969 276646.080000
   3954   3957     1   0.10910 283424.160000
   3954   3958     1   0.10910 283424.160000
   3959   3960     1   0.10304 312293.760000
   3959   3961     1   0.10304 312293.760000
   3959   3962     1   0.10304 312293.760000
   3963   3964     1   0.10129 337397.760000
   3965   3967     1   0.10969 276646.080000
   3965   3968     1   0.10969 276646.080000
   3966   3969     1   0.10910 283424.160000
   3966   3970     1   0.10910 283424.160000
   3971   3972     1   0.10304 312293.760000
   3971   3973     1   0.10304 312293.760000
   3971   3974     1   0.10304 312293.760000
   3975   3976     1   0.10129 337397.760000
   3977   3979     1   0.10969 276646.080000
   3977   3980     1   0.10969 276646.080000
   3978   3981     1   0.10910 283424.160000
   3978   3982     1   0.10910 283424.160000
   3983   3984     1   0.10304 312293.760000
   3983   3985     1   0.10304 312293.760000
   3983   3986     1   0.10304 312293.760000
   3987   3988     1   0.10129 337397.760000
   3989   3991     1   0.10969 276646.080000
   3989   3992     1   0.10969 276646.080000
   3990   3993     1   0.10910 283424.160000
   3990   3994     1   0.10910 283424.160000
   3995   3996     1   0.10304 312293.760000
   3995   3997     1   0.10304 312293.760000
   3995   3998     1   0.10304 312293.760000
   3999   4000     1   0.10129 337397.760000
   4001   4003     1   0.10969 276646.080000
   4001   4004     1   0.10969 276646.080000
   4002   4005     1   0.10910 283424.160000
   4002   4006     1   0.10910 283424.160000
   4007   4008     1   0.10304 312293.760000
   4007   4009     1   0.10304 312293.760000
   4007   4010     1   0.10304 312293.760000
   4011   4012     1   0.10129 337397.760000
   4013   4015     1   0.10969 276646.080000
   4013   4016     1   0.10969 276646.080000
   4014   4017     1   0.10910 283424.160000
   4014   4018     1   0.10910 283424.160000
   4019   4020     1   0.10304 312293.760000
   4019   4021     1   0.10304 312293.760000
   4019   4022     1   0.10304 312293.760000
   4023   4024     1   0.10129 337397.760000
   4025   4027     1   0.10969 276646.080000
   4025   4028     1   0.10969 276646.080000
   4026   4029     1   0.10910 283424.160000
   4026   4030     1   0.10910 283424.160000
   4031   4032     1   0.10304 312293.760000
   4031   4033     1   0.10304 312293.760000
   4031   4034     1   0.10304 312293.760000
   4035   4036     1   0.10129 337397.760000
   4037   4039     1   0.10969 276646.080000
   4037   4040     1   0.10969 276646.080000
   4038   4041     1   0.10910 283424.160000
   4038   4042     1   0.10910 283424.160000
   4043   4044     1   0.10304 312293.760000
   4043   4045     1   0.10304 312293.760000
   4043   4046     1   0.10304 312293.760000
   4047   4048     1   0.10129 337397.760000
   4049   4051     1   0.10969 276646.080000
   4049   4052     1   0.10969 276646.080000
   4050   4053     1   0.10910 283424.160000
   4050   4054     1   0.10910 283424.160000
   4055   4056     1   0.10304 312293.760000
   4055   4057     1   0.10304 312293.760000
   4055   4058     1   0.10304 312293.760000
   4059   4060     1   0.10129 337397.760000
   4061   4063     1   0.10969 276646.080000
   4061   4064     1   0.10969 276646.080000
   4062   4065     1   0.10910 283424.160000
   4062   4066     1   0.10910 283424.160000
   4067   4068     1   0.10304 312293.760000
   4067   4069     1   0.10304 312293.760000
   4067   4070     1   0.10304 312293.760000
   4071   4072     1   0.10129 337397.760000
   4073   4075     1   0.10969 276646.080000
   4073   4076     1   0.10969 276646.080000
   4074   4077     1   0.10910 283424.160000
   4074   4078     1   0.10910 283424.160000
   4079   4080     1   0.10304 312293.760000
   4079   4081     1   0.10304 312293.760000
   4079   4082     1   0.10304 312293.760000
   4083   4084     1   0.10129 337397.760000
   4085   4087     1   0.10969 276646.080000
   4085   4088     1   0.10969 276646.080000
   4086   4089     1   0.10910 283424.160000
   4086   4090     1   0.10910 283424.160000
   4091   4092     1   0.10304 312293.760000
   4091   4093     1   0.10304 312293.760000
   4091   4094     1   0.10304 312293.760000
   4095   4096     1   0.10129 337397.760000
   4097   4099     1   0.10969 276646.080000
   4097   4100     1   0.10969 276646.080000
   4098   4101     1   0.10910 283424.160000
   4098   4102     1   0.10910 283424.160000
   4103   4104     1   0.10304 312293.760000
   4103   4105     1   0.10304 312293.760000
   4103   4106     1   0.10304 312293.760000
   4107   4108     1   0.10129 337397.760000
   4109   4111     1   0.10969 276646.080000
   4109   4112     1   0.10969 276646.080000
   4110   4113     1   0.10910 283424.160000
   4110   4114     1   0.10910 283424.160000
   4115   4116     1   0.10304 312293.760000
   4115   4117     1   0.10304 312293.760000
   4115   4118     1   0.10304 312293.760000
   4119   4120     1   0.10129 337397.760000
   4121   4123     1   0.10969 276646.080000
   4121   4124     1   0.10969 276646.080000
   4122   4125     1   0.10910 283424.160000
   4122   4126     1   0.10910 283424.160000
   4127   4128     1   0.10304 312293.760000
   4127   4129     1   0.10304 312293.760000
   4127   4130     1   0.10304 312293.760000
   4131   4132     1   0.10129 337397.760000
   4133   4135     1   0.10969 276646.080000
   4133   4136     1   0.10969 276646.080000
   4134   4137     1   0.10910 283424.160000
   4134   4138     1   0.10910 283424.160000
   4139   4140     1   0.10304 312293.760000
   4139   4141     1   0.10304 312293.760000
   4139   4142     1   0.10304 312293.760000
   4143   4144     1   0.10129 337397.760000
   4145   4147     1   0.10969 276646.080000
   4145   4148     1   0.10969 276646.080000
   4146   4149     1   0.10910 283424.160000
   4146   4150     1   0.10910 283424.160000
   4151   4152     1   0.10304 312293.760000
   4151   4153     1   0.10304 312293.760000
   4151   4154     1   0.10304 312293.760000
   4155   4156     1   0.10129 337397.760000
   4157   4159     1   0.10969 276646.080000
   4157   4160     1   0.10969 276646.080000
   4158   4161     1   0.10910 283424.160000
   4158   4162     1   0.10910 283424.160000
   4163   4164     1   0.10304 312293.760000
   4163   4165     1   0.10304 312293.760000
   4163   4166     1   0.10304 312293.760000
   4167   4168     1   0.10129 337397.760000
   4169   4171     1   0.10969 276646.080000
   4169   4172     1   0.10969 276646.080000
   4170   4173     1   0.10910 283424.160000
   4170   4174     1   0.10910 283424.160000
   4175   4176     1   0.10304 312293.760000
   4175   4177     1   0.10304 312293.760000
   4175   4178     1   0.10304 312293.760000
   4179   4180     1   0.10129 337397.760000
   4181   4183     1   0.10969 276646.080000
   4181   4184     1   0.10969 276646.080000
   4182   4185     1   0.10910 283424.160000
   4182   4186     1   0.10910 283424.160000
   4187   4188     1   0.10304 312293.760000
   4187   4189     1   0.10304 312293.760000
   4187   4190     1   0.10304 312293.760000
   4191   4192     1   0.10129 337397.760000
   4193   4195     1   0.10969 276646.080000
   4193   4196     1   0.10969 276646.080000
   4194   4197     1   0.10910 283424.160000
   4194   4198     1   0.10910 283424.160000
   4199   4200     1   0.10304 312293.760000
   4199   4201     1   0.10304 312293.760000
   4199   4202     1   0.10304 312293.760000
   4203   4204     1   0.10129 337397.760000
   4205   4207     1   0.10969 276646.080000
   4205   4208     1   0.10969 276646.080000
   4206   4209     1   0.10910 283424.160000
   4206   4210     1   0.10910 283424.160000
   4211   4212     1   0.10304 312293.760000
   4211   4213     1   0.10304 312293.760000
   4211   4214     1   0.10304 312293.760000
   4215   4216     1   0.10129 337397.760000
   4217   4219     1   0.10969 276646.080000
   4217   4220     1   0.10969 276646.080000
   4218   4221     1   0.10910 283424.160000
   4218   4222     1   0.10910 283424.160000
   4223   4224     1   0.10304 312293.760000
   4223   4225     1   0.10304 312293.760000
   4223   4226     1   0.10304 312293.760000
   4227   4228     1   0.10129 337397.760000
   4229   4231     1   0.10969 276646.080000
   4229   4232     1   0.10969 276646.080000
   4230   4233     1   0.10910 283424.160000
   4230   4234     1   0.10910 283424.160000
   4235   4236     1   0.10304 312293.760000
   4235   4237     1   0.10304 312293.760000
   4235   4238     1   0.10304 312293.760000
   4239   4240     1   0.10129 337397.760000
   4241   4243     1   0.10969 276646.080000
   4241   4244     1   0.10969 276646.080000
   4242   4245     1   0.10910 283424.160000
   4242   4246     1   0.10910 283424.160000
   4247   4248     1   0.10304 312293.760000
   4247   4249     1   0.10304 312293.760000
   4247   4250     1   0.10304 312293.760000
   4251   4252     1   0.10129 337397.760000
   4253   4255     1   0.10969 276646.080000
   4253   4256     1   0.10969 276646.080000
   4254   4257     1   0.10910 283424.160000
   4254   4258     1   0.10910 283424.160000
   4259   4260     1   0.10304 312293.760000
   4259   4261     1   0.10304 312293.760000
   4259   4262     1   0.10304 312293.760000
   4263   4264     1   0.10129 337397.760000
   4265   4267     1   0.10969 276646.080000
   4265   4268     1   0.10969 276646.080000
   4266   4269     1   0.10910 283424.160000
   4266   4270     1   0.10910 283424.160000
   4271   4272     1   0.10304 312293.760000
   4271   4273     1   0.10304 312293.760000
   4271   4274     1   0.10304 312293.760000
   4275   4276     1   0.10129 337397.760000
   4277   4279     1   0.10969 276646.080000
   4277   4280     1   0.10969 276646.080000
   4278   4281     1   0.10910 283424.160000
   4278   4282     1   0.10910 283424.160000
   4283   4284     1   0.10304 312293.760000
   4283   4285     1   0.10304 312293.760000
   4283   4286     1   0.10304 312293.760000
   4287   4288     1   0.10129 337397.760000
   4289   4291     1   0.10969 276646.080000
   4289   4292     1   0.10969 276646.080000
   4290   4293     1   0.10910 283424.160000
   4290   4294     1   0.10910 283424.160000
   4295   4296     1   0.10304 312293.760000
   4295   4297     1   0.10304 312293.760000
   4295   4298     1   0.10304 312293.760000
   4299   4300     1   0.10129 337397.760000
   4301   4303     1   0.10969 276646.080000
   4301   4304     1   0.10969 276646.080000
   4302   4305     1   0.10910 283424.160000
   4302   4306     1   0.10910 283424.160000
   4307   4308     1   0.10304 312293.760000
   4307   4309     1   0.10304 312293.760000
   4307   4310     1   0.10304 312293.760000
   4311   4312     1   0.10129 337397.760000
   4313   4315     1   0.10969 276646.080000
   4313   4316     1   0.10969 276646.080000
   4314   4317     1   0.10910 283424.160000
   4314   4318     1   0.10910 283424.160000
   4319   4320     1   0.10304 312293.760000
   4319   4321     1   0.10304 312293.760000
   4319   4322     1   0.10304 312293.760000
   4323   4324     1   0.10129 337397.760000
   4325   4327     1   0.10969 276646.080000
   4325   4328     1   0.10969 276646.080000
   4326   4329     1   0.10910 283424.160000
   4326   4330     1   0.10910 283424.160000
   4331   4332     1   0.10304 312293.760000
   4331   4333     1   0.10304 312293.760000
   4331   4334     1   0.10304 312293.760000
   4335   4336     1   0.10129 337397.760000
   4337   4339     1   0.10969 276646.080000
   4337   4340     1   0.10969 276646.080000
   4338   4341     1   0.10910 283424.160000
   4338   4342     1   0.10910 283424.160000
   4343   4344     1   0.10304 312293.760000
   4343   4345     1   0.10304 312293.760000
   4343   4346     1   0.10304 312293.760000
   4347   4348     1   0.10129 337397.760000
   4349   4351     1   0.10969 276646.080000
   4349   4352     1   0.10969 276646.080000
   4350   4353     1   0.10910 283424.160000
   4350   4354     1   0.10910 283424.160000
   4355   4356     1   0.10304 312293.760000
   4355   4357     1   0.10304 312293.760000
   4355   4358     1   0.10304 312293.760000
   4359   4360     1   0.10129 337397.760000
   4361   4363     1   0.10969 276646.080000
   4361   4364     1   0.10969 276646.080000
   4362   4365     1   0.10910 283424.160000
   4362   4366     1   0.10910 283424.160000
   4367   4368     1   0.10304 312293.760000
   4367   4369     1   0.10304 312293.760000
   4367   4370     1   0.10304 312293.760000
   4371   4372     1   0.10129 337397.760000
   4373   4375     1   0.10969 276646.080000
   4373   4376     1   0.10969 276646.080000
   4374   4377     1   0.10910 283424.160000
   4374   4378     1   0.10910 283424.160000
   4379   4380     1   0.10304 312293.760000
   4379   4381     1   0.10304 312293.760000
   4379   4382     1   0.10304 312293.760000
   4383   4384     1   0.10129 337397.760000
   4385   4387     1   0.10969 276646.080000
   4385   4388     1   0.10969 276646.080000
   4386   4389     1   0.10910 283424.160000
   4386   4390     1   0.10910 283424.160000
   4391   4392     1   0.10304 312293.760000
   4391   4393     1   0.10304 312293.760000
   4391   4394     1   0.10304 312293.760000
   4395   4396     1   0.10129 337397.760000
   4397   4399     1   0.10969 276646.080000
   4397   4400     1   0.10969 276646.080000
   4398   4401     1   0.10910 283424.160000
   4398   4402     1   0.10910 283424.160000
   4403   4404     1   0.10304 312293.760000
   4403   4405     1   0.10304 312293.760000
   4403   4406     1   0.10304 312293.760000
   4407   4408     1   0.10129 337397.760000
   4409   4411     1   0.10969 276646.080000
   4409   4412     1   0.10969 276646.080000
   4410   4413     1   0.10910 283424.160000
   4410   4414     1   0.10910 283424.160000
   4415   4416     1   0.10304 312293.760000
   4415   4417     1   0.10304 312293.760000
   4415   4418     1   0.10304 312293.760000
   4419   4420     1   0.10129 337397.760000
   4421   4423     1   0.10969 276646.080000
   4421   4424     1   0.10969 276646.080000
   4422   4425     1   0.10910 283424.160000
   4422   4426     1   0.10910 283424.160000
   4427   4428     1   0.10304 312293.760000
   4427   4429     1   0.10304 312293.760000
   4427   4430     1   0.10304 312293.760000
   4431   4432     1   0.10129 337397.760000
   4433   4435     1   0.10969 276646.080000
   4433   4436     1   0.10969 276646.080000
   4434   4437     1   0.10910 283424.160000
   4434   4438     1   0.10910 283424.160000
   4439   4440     1   0.10304 312293.760000
   4439   4441     1   0.10304 312293.760000
   4439   4442     1   0.10304 312293.760000
   4443   4444     1   0.10129 337397.760000
   4445   4447     1   0.10969 276646.080000
   4445   4448     1   0.10969 276646.080000
   4446   4449     1   0.10910 283424.160000
   4446   4450     1   0.10910 283424.160000
   4451   4452     1   0.10304 312293.760000
   4451   4453     1   0.10304 312293.760000
   4451   4454     1   0.10304 312293.760000
   4455   4456     1   0.10129 337397.760000
   4457   4459     1   0.10969 276646.080000
   4457   4460     1   0.10969 276646.080000
   4458   4461     1   0.10910 283424.160000
   4458   4462     1   0.10910 283424.160000
   4463   4464     1   0.10304 312293.760000
   4463   4465     1   0.10304 312293.760000
   4463   4466     1   0.10304 312293.760000
   4467   4468     1   0.10129 337397.760000
   4469   4471     1   0.10969 276646.080000
   4469   4472     1   0.10969 276646.080000
   4470   4473     1   0.10910 283424.160000
   4470   4474     1   0.10910 283424.160000
   4475   4476     1   0.10304 312293.760000
   4475   4477     1   0.10304 312293.760000
   4475   4478     1   0.10304 312293.760000
   4479   4480     1   0.10129 337397.760000
   4481   4483     1   0.10969 276646.080000
   4481   4484     1   0.10969 276646.080000
   4482   4485     1   0.10910 283424.160000
   4482   4486     1   0.10910 283424.160000
   4487   4488     1   0.10304 312293.760000
   4487   4489     1   0.10304 312293.760000
   4487   4490     1   0.10304 312293.760000
   4491   4492     1   0.10129 337397.760000
   4493   4495     1   0.10969 276646.080000
   4493   4496     1   0.10969 276646.080000
   4494   4497     1   0.10910 283424.160000
   4494   4498     1   0.10910 283424.160000
   4499   4500     1   0.10304 312293.760000
   4499   4501     1   0.10304 312293.760000
   4499   4502     1   0.10304 312293.760000
   4503   4504     1   0.10129 337397.760000
   4505   4507     1   0.10969 276646.080000
   4505   4508     1   0.10969 276646.080000
   4506   4509     1   0.10910 283424.160000
   4506   4510     1   0.10910 283424.160000
   4511   4512     1   0.10304 312293.760000
   4511   4513     1   0.10304 312293.760000
   4511   4514     1   0.10304 312293.760000
   4515   4516     1   0.10129 337397.760000
   4517   4519     1   0.10969 276646.080000
   4517   4520     1   0.10969 276646.080000
   4518   4521     1   0.10910 283424.160000
   4518   4522     1   0.10910 283424.160000
   4523   4524     1   0.10304 312293.760000
   4523   4525     1   0.10304 312293.760000
   4523   4526     1   0.10304 312293.760000
   4527   4528     1   0.10129 337397.760000
   4529   4531     1   0.10969 276646.080000
   4529   4532     1   0.10969 276646.080000
   4530   4533     1   0.10910 283424.160000
   4530   4534     1   0.10910 283424.160000
   4535   4536     1   0.10304 312293.760000
   4535   4537     1   0.10304 312293.760000
   4535   4538     1   0.10304 312293.760000
   4539   4540     1   0.10129 337397.760000
   4541   4543     1   0.10969 276646.080000
   4541   4544     1   0.10969 276646.080000
   4542   4545     1   0.10910 283424.160000
   4542   4546     1   0.10910 283424.160000
   4547   4548     1   0.10304 312293.760000
   4547   4549     1   0.10304 312293.760000
   4547   4550     1   0.10304 312293.760000
   4551   4552     1   0.10129 337397.760000
   4553   4555     1   0.10969 276646.080000
   4553   4556     1   0.10969 276646.080000
   4554   4557     1   0.10910 283424.160000
   4554   4558     1   0.10910 283424.160000
   4559   4560     1   0.10304 312293.760000
   4559   4561     1   0.10304 312293.760000
   4559   4562     1   0.10304 312293.760000
   4563   4564     1   0.10129 337397.760000
   4565   4567     1   0.10969 276646.080000
   4565   4568     1   0.10969 276646.080000
   4566   4569     1   0.10910 283424.160000
   4566   4570     1   0.10910 283424.160000
   4571   4572     1   0.10304 312293.760000
   4571   4573     1   0.10304 312293.760000
   4571   4574     1   0.10304 312293.760000
   4575   4576     1   0.10129 337397.760000
   4577   4579     1   0.10969 276646.080000
   4577   4580     1   0.10969 276646.080000
   4578   4581     1   0.10910 283424.160000
   4578   4582     1   0.10910 283424.160000
   4583   4584     1   0.10304 312293.760000
   4583   4585     1   0.10304 312293.760000
   4583   4586     1   0.10304 312293.760000
   4587   4588     1   0.10129 337397.760000
   4589   4591     1   0.10969 276646.080000
   4589   4592     1   0.10969 276646.080000
   4590   4593     1   0.10910 283424.160000
   4590   4594     1   0.10910 283424.160000
   4595   4596     1   0.10304 312293.760000
   4595   4597     1   0.10304 312293.760000
   4595   4598     1   0.10304 312293.760000
   4599   4600     1   0.10129 337397.760000
   4601   4603     1   0.10969 276646.080000
   4601   4604     1   0.10969 276646.080000
   4602   4605     1   0.10910 283424.160000
   4602   4606     1   0.10910 283424.160000
   4607   4608     1   0.10304 312293.760000
   4607   4609     1   0.10304 312293.760000
   4607   4610     1   0.10304 312293.760000
   4611   4612     1   0.10129 337397.760000
   4613   4615     1   0.10969 276646.080000
   4613   4616     1   0.10969 276646.080000
   4614   4617     1   0.10910 283424.160000
   4614   4618     1   0.10910 283424.160000
   4619   4620     1   0.10304 312293.760000
   4619   4621     1   0.10304 312293.760000
   4619   4622     1   0.10304 312293.760000
   4623   4624     1   0.10129 337397.760000
   4625   4627     1   0.10969 276646.080000
   4625   4628     1   0.10969 276646.080000
   4626   4629     1   0.10910 283424.160000
   4626   4630     1   0.10910 283424.160000
   4631   4632     1   0.10304 312293.760000
   4631   4633     1   0.10304 312293.760000
   4631   4634     1   0.10304 312293.760000
   4635   4636     1   0.10129 337397.760000
   4637   4639     1   0.10969 276646.080000
   4637   4640     1   0.10969 276646.080000
   4638   4641     1   0.10910 283424.160000
   4638   4642     1   0.10910 283424.160000
   4643   4644     1   0.10304 312293.760000
   4643   4645     1   0.10304 312293.760000
   4643   4646     1   0.10304 312293.760000
   4647   4648     1   0.10129 337397.760000
   4649   4651     1   0.10969 276646.080000
   4649   4652     1   0.10969 276646.080000
   4650   4653     1   0.10910 283424.160000
   4650   4654     1   0.10910 283424.160000
   4655   4656     1   0.10304 312293.760000
   4655   4657     1   0.10304 312293.760000
   4655   4658     1   0.10304 312293.760000
   4659   4660     1   0.10129 337397.760000
   4661   4663     1   0.10969 276646.080000
   4661   4664     1   0.10969 276646.080000
   4662   4665     1   0.10910 283424.160000
   4662   4666     1   0.10910 283424.160000
   4667   4668     1   0.10304 312293.760000
   4667   4669     1   0.10304 312293.760000
   4667   4670     1   0.10304 312293.760000
   4671   4672     1   0.10129 337397.760000
   4673   4675     1   0.10969 276646.080000
   4673   4676     1   0.10969 276646.080000
   4674   4677     1   0.10910 283424.160000
   4674   4678     1   0.10910 283424.160000
   4679   4680     1   0.10304 312293.760000
   4679   4681     1   0.10304 312293.760000
   4679   4682     1   0.10304 312293.760000
   4683   4684     1   0.10129 337397.760000
   4685   4687     1   0.10969 276646.080000
   4685   4688     1   0.10969 276646.080000
   4686   4689     1   0.10910 283424.160000
   4686   4690     1   0.10910 283424.160000
   4691   4692     1   0.10304 312293.760000
   4691   4693     1   0.10304 312293.760000
   4691   4694     1   0.10304 312293.760000
   4695   4696     1   0.10129 337397.760000
   4697   4699     1   0.10969 276646.080000
   4697   4700     1   0.10969 276646.080000
   4698   4701     1   0.10910 283424.160000
   4698   4702     1   0.10910 283424.160000
   4703   4704     1   0.10304 312293.760000
   4703   4705     1   0.10304 312293.760000
   4703   4706     1   0.10304 312293.760000
   4707   4708     1   0.10129 337397.760000
   4709   4711     1   0.10969 276646.080000
   4709   4712     1   0.10969 276646.080000
   4710   4713     1   0.10910 283424.160000
   4710   4714     1   0.10910 283424.160000
   4715   4716     1   0.10304 312293.760000
   4715   4717     1   0.10304 312293.760000
   4715   4718     1   0.10304 312293.760000
   4719   4720     1   0.10129 337397.760000
   4721   4723     1   0.10969 276646.080000
   4721   4724     1   0.10969 276646.080000
   4722   4725     1   0.10910 283424.160000
   4722   4726     1   0.10910 283424.160000
   4727   4728     1   0.10304 312293.760000
   4727   4729     1   0.10304 312293.760000
   4727   4730     1   0.10304 312293.760000
   4731   4732     1   0.10129 337397.760000
   4733   4735     1   0.10969 276646.080000
   4733   4736     1   0.10969 276646.080000
   4734   4737     1   0.10910 283424.160000
   4734   4738     1   0.10910 283424.160000
   4739   4740     1   0.10304 312293.760000
   4739   4741     1   0.10304 312293.760000
   4739   4742     1   0.10304 312293.760000
   4743   4744     1   0.10129 337397.760000
   4745   4747     1   0.10969 276646.080000
   4745   4748     1   0.10969 276646.080000
   4746   4749     1   0.10910 283424.160000
   4746   4750     1   0.10910 283424.160000
   4751   4752     1   0.10304 312293.760000
   4751   4753     1   0.10304 312293.760000
   4751   4754     1   0.10304 312293.760000
   4755   4756     1   0.10129 337397.760000
   4757   4759     1   0.10969 276646.080000
   4757   4760     1   0.10969 276646.080000
   4758   4761     1   0.10910 283424.160000
   4758   4762     1   0.10910 283424.160000
   4763   4764     1   0.10304 312293.760000
   4763   4765     1   0.10304 312293.760000
   4763   4766     1   0.10304 312293.760000
   4767   4768     1   0.10129 337397.760000
   4769   4771     1   0.10969 276646.080000
   4769   4772     1   0.10969 276646.080000
   4770   4773     1   0.10910 283424.160000
   4770   4774     1   0.10910 283424.160000
   4775   4776     1   0.10304 312293.760000
   4775   4777     1   0.10304 312293.760000
   4775   4778     1   0.10304 312293.760000
   4779   4780     1   0.10129 337397.760000
   4781   4783     1   0.10969 276646.080000
   4781   4784     1   0.10969 276646.080000
   4782   4785     1   0.10910 283424.160000
   4782   4786     1   0.10910 283424.160000
   4787   4788     1   0.10304 312293.760000
   4787   4789     1   0.10304 312293.760000
   4787   4790     1   0.10304 312293.760000
   4791   4792     1   0.10129 337397.760000
   4793   4795     1   0.10969 276646.080000
   4793   4796     1   0.10969 276646.080000
   4794   4797     1   0.10910 283424.160000
   4794   4798     1   0.10910 283424.160000
   4799   4800     1   0.10304 312293.760000
   4799   4801     1   0.10304 312293.760000
   4799   4802     1   0.10304 312293.760000

[ pairs ]
;    ai     aj funct         c0         c1         c2         c3
      1      4     1
      1     14     1
      1     16     1
      2     13     1
      2     15     1
      2      5     1
      2      6     1
      7      3     1
      8      3     1
      3     11     1
      3      9     1
      4     12     1
      4     10     1
      5      9     1
      5     17     1
      5     78     1
      6     11     1
      6     18     1
      6     52     1
      7     15     1
      7     20     1
      7    104     1
      8     13     1
      8     19     1
      8    130     1
      9     51     1
     10     50     1
     11     77     1
     12     76     1
     13    103     1
     14    102     1
     15    129     1
     16    128     1
     17     77     1
     18     51     1
     19    129     1
     20    103     1
     43     47     1
     43     49     1
     43     52     1
     44     48     1
     44     51     1
     44     53     1
     44    156     1
     45     46     1
     45     51     1
     45     54     1
     45    182     1
     46     50     1
     46    155     1
     47    154     1
     48     50     1
     48    181     1
     49    180     1
     53    155     1
     54    181     1
     69     73     1
     69     75     1
     69     78     1
     70     74     1
     70     77     1
     70     79     1
     70    208     1
     71     72     1
     71     77     1
     71     80     1
     71    234     1
     72     76     1
     72    207     1
     73    206     1
     74     76     1
     74    233     1
     75    232     1
     79    207     1
     80    233     1
     95     99     1
     95    101     1
     95    104     1
     96    100     1
     96    103     1
     96    105     1
     96    260     1
     97     98     1
     97    103     1
     97    106     1
     97    286     1
     98    102     1
     98    259     1
     99    258     1
    100    102     1
    100    285     1
    101    284     1
    105    259     1
    106    285     1
    121    125     1
    121    127     1
    121    130     1
    122    126     1
    122    129     1
    122    131     1
    122    312     1
    123    124     1
    123    129     1
    123    132     1
    123    338     1
    124    128     1
    124    311     1
    125    310     1
    126    128     1
    126    337     1
    127    336     1
    131    311     1
    132    337     1
    147    151     1
    147    153     1
    147    156     1
    148    152     1
    148    155     1
    148    157     1
    148    364     1
    149    150     1
    149    155     1
    149    158     1
    149    390     1
    150    154     1
    150    363     1
    151    362     1
    152    154     1
    152    389     1
    153    388     1
    157    363     1
    158    389     1
    173    177     1
    173    179     1
    173    182     1
    174    178     1
    174    181     1
    174    183     1
    174    416     1
    175    176     1
    175    181     1
    175    184     1
    175    442     1
    176    180     1
    176    415     1
    177    414     1
    178    180     1
    178    441     1
    179    440     1
    183    415     1
    184    441     1
    199    203     1
    199    205     1
    199    208     1
    200    204     1
    200    207     1
    200    209     1
    200    468     1
    201    202     1
    201    207     1
    201    210     1
    201    494     1
    202    206     1
    202    467     1
    203    466     1
    204    206     1
    204    493     1
    205    492     1
    209    467     1
    210    493     1
    225    229     1
    225    231     1
    225    234     1
    226    230     1
    226    233     1
    226    235     1
    226    520     1
    227    228     1
    227    233     1
    227    236     1
    227    546     1
    228    232     1
    228    519     1
    229    518     1
    230    232     1
    230    545     1
    231    544     1
    235    519     1
    236    545     1
    251    255     1
    251    257     1
    251    260     1
    252    256     1
    252    259     1
    252    261     1
    252    572     1
    253    254     1
    253    259     1
    253    262     1
    253    598     1
    254    258     1
    254    571     1
    255    570     1
    256    258     1
    256    597     1
    257    596     1
    261    571     1
    262    597     1
    277    281     1
    277    283     1
    277    286     1
    278    282     1
    278    285     1
    278    287     1
    278    624     1
    279    280     1
    279    285     1
    279    288     1
    279    650     1
    280    284     1
    280    623     1
    281    622     1
    282    284     1
    282    649     1
    283    648     1
    287    623     1
    288    649     1
    303    307     1
    303    309     1
    303    312     1
    304    308     1
    304    311     1
    304    313     1
    304    676     1
    305    306     1
    305    311     1
    305    314     1
    305    702     1
    306    310     1
    306    675     1
    307    674     1
    308    310     1
    308    701     1
    309    700     1
    313    675     1
    314    701     1
    329    333     1
    329    335     1
    329    338     1
    330    334     1
    330    337     1
    330    339     1
    330    728     1
    331    332     1
    331    337     1
    331    340     1
    331    754     1
    332    336     1
    332    727     1
    333    726     1
    334    336     1
    334    753     1
    335    752     1
    339    727     1
    340    753     1
    355    359     1
    355    361     1
    355    364     1
    356    360     1
    356    363     1
    356    365     1
    356    780     1
    357    358     1
    357    363     1
    357    366     1
    357    806     1
    358    362     1
    358    779     1
    359    778     1
    360    362     1
    360    805     1
    361    804     1
    365    779     1
    366    805     1
    381    385     1
    381    387     1
    381    390     1
    382    386     1
    382    389     1
    382    391     1
    382    832     1
    383    384     1
    383    389     1
    383    392     1
    383    858     1
    384    388     1
    384    831     1
    385    830     1
    386    388     1
    386    857     1
    387    856     1
    391    831     1
    392    857     1
    407    411     1
    407    413     1
    407    416     1
    408    412     1
    408    415     1
    408    417     1
    408    884     1
    409    410     1
    409    415     1
    409    418     1
    409    910     1
    410    414     1
    410    883     1
    411    882     1
    412    414     1
    412    909     1
    413    908     1
    417    883     1
    418    909     1
    433    437     1
    433    439     1
    433    442     1
    434    438     1
    434    441     1
    434    443     1
    434    936     1
    435    436     1
    435    441     1
    435    444     1
    435    962     1
    436    440     1
    436    935     1
    437    934     1
    438    440     1
    438    961     1
    439    960     1
    443    935     1
    444    961     1
    459    463     1
    459    465     1
    459    468     1
    460    464     1
    460    467     1
    460    469     1
    460    988     1
    461    462     1
    461    467     1
    461    470     1
    461   1014     1
    462    466     1
    462    987     1
    463    986     1
    464    466     1
    464   1013     1
    465   1012     1
    469    987     1
    470   1013     1
    485    489     1
    485    491     1
    485    494     1
    486    490     1
    486    493     1
    486    495     1
    486   1040     1
    487    488     1
    487    493     1
    487    496     1
    487   1066     1
    488    492     1
    488   1039     1
    489   1038     1
    490    492     1
    490   1065     1
    491   1064     1
    495   1039     1
    496   1065     1
    511    515     1
    511    517     1
    511    520     1
    512    516     1
    512    519     1
    512    521     1
    512   1092     1
    513    514     1
    513    519     1
    513    522     1
    513   1118     1
    514    518     1
    514   1091     1
    515   1090     1
    516    518     1
    516   1117     1
    517   1116     1
    521   1091     1
    522   1117     1
    537    541     1
    537    543     1
    537    546     1
    538    542     1
    538    545     1
    538    547     1
    538   1144     1
    539    540     1
    539    545     1
    539    548     1
    539   1170     1
    540    544     1
    540   1143     1
    541   1142     1
    542    544     1
    542   1169     1
    543   1168     1
    547   1143     1
    548   1169     1
    563    567     1
    563    569     1
    563    572     1
    564    568     1
    564    571     1
    564    573     1
    564   1196     1
    565    566     1
    565    571     1
    565    574     1
    565   1222     1
    566    570     1
    566   1195     1
    567   1194     1
    568    570     1
    568   1221     1
    569   1220     1
    573   1195     1
    574   1221     1
    589    593     1
    589    595     1
    589    598     1
    590    594     1
    590    597     1
    590    599     1
    590   1248     1
    591    592     1
    591    597     1
    591    600     1
    591   1274     1
    592    596     1
    592   1247     1
    593   1246     1
    594    596     1
    594   1273     1
    595   1272     1
    599   1247     1
    600   1273     1
    615    619     1
    615    621     1
    615    624     1
    616    620     1
    616    623     1
    616    625     1
    616   1300     1
    617    618     1
    617    623     1
    617    626     1
    617   1326     1
    618    622     1
    618   1299     1
    619   1298     1
    620    622     1
    620   1325     1
    621   1324     1
    625   1299     1
    626   1325     1
    641    645     1
    641    647     1
    641    650     1
    642    646     1
    642    649     1
    642    651     1
    642   1352     1
    643    644     1
    643    649     1
    643    652     1
    643   1378     1
    644    648     1
    644   1351     1
    645   1350     1
    646    648     1
    646   1377     1
    647   1376     1
    651   1351     1
    652   1377     1
    667    671     1
    667    673     1
    667    676     1
    668    672     1
    668    675     1
    668    677     1
    668   1404     1
    669    670     1
    669    675     1
    669    678     1
    669   1430     1
    670    674     1
    670   1403     1
    671   1402     1
    672    674     1
    672   1429     1
    673   1428     1
    677   1403     1
    678   1429     1
    693    697     1
    693    699     1
    693    702     1
    694    698     1
    694    701     1
    694    703     1
    694   1456     1
    695    696     1
    695    701     1
    695    704     1
    695   1482     1
    696    700     1
    696   1455     1
    697   1454     1
    698    700     1
    698   1481     1
    699   1480     1
    703   1455     1
    704   1481     1
    719    723     1
    719    725     1
    719    728     1
    720    724     1
    720    727     1
    720    729     1
    720   1508     1
    721    722     1
    721    727     1
    721    730     1
    721   1534     1
    722    726     1
    722   1507     1
    723   1506     1
    724    726     1
    724   1533     1
    725   1532     1
    729   1507     1
    730   1533     1
    745    749     1
    745    751     1
    745    754     1
    746    750     1
    746    753     1
    746    755     1
    746   1560     1
    747    748     1
    747    753     1
    747    756     1
    747   1586     1
    748    752     1
    748   1559     1
    749   1558     1
    750    752     1
    750   1585     1
    751   1584     1
    755   1559     1
    756   1585     1
    771    775     1
    771    777     1
    771    780     1
    772    776     1
    772    779     1
    772    781     1
    772   1612     1
    773    774     1
    773    779     1
    773    782     1
    773   1638     1
    774    778     1
    774   1611     1
    775   1610     1
    776    778     1
    776   1637     1
    777   1636     1
    781   1611     1
    782   1637     1
    797    801     1
    797    803     1
    797    806     1
    798    802     1
    798    805     1
    798    807     1
    798   1664     1
    799    800     1
    799    805     1
    799    808     1
    799   1690     1
    800    804     1
    800   1663     1
    801   1662     1
    802    804     1
    802   1689     1
    803   1688     1
    807   1663     1
    808   1689     1
    823    827     1
    823    829     1
    823    832     1
    824    828     1
    824    831     1
    824    833     1
    824   1716     1
    825    826     1
    825    831     1
    825    834     1
    825   1742     1
    826    830     1
    826   1715     1
    827   1714     1
    828    830     1
    828   1741     1
    829   1740     1
    833   1715     1
    834   1741     1
    849    853     1
    849    855     1
    849    858     1
    850    854     1
    850    857     1
    850    859     1
    850   1768     1
    851    852     1
    851    857     1
    851    860     1
    851   1794     1
    852    856     1
    852   1767     1
    853   1766     1
    854    856     1
    854   1793     1
    855   1792     1
    859   1767     1
    860   1793     1
    875    879     1
    875    881     1
    875    884     1
    876    880     1
    876    883     1
    876    885     1
    876   1820     1
    877    878     1
    877    883     1
    877    886     1
    877   1846     1
    878    882     1
    878   1819     1
    879   1818     1
    880    882     1
    880   1845     1
    881   1844     1
    885   1819     1
    886   1845     1
    901    905     1
    901    907     1
    901    910     1
    902    906     1
    902    909     1
    902    911     1
    902   1872     1
    903    904     1
    903    909     1
    903    912     1
    903   1898     1
    904    908     1
    904   1871     1
    905   1870     1
    906    908     1
    906   1897     1
    907   1896     1
    911   1871     1
    912   1897     1
    927    931     1
    927    933     1
    927    936     1
    928    932     1
    928    935     1
    928    937     1
    928   1924     1
    929    930     1
    929    935     1
    929    938     1
    929   1950     1
    930    934     1
    930   1923     1
    931   1922     1
    932    934     1
    932   1949     1
    933   1948     1
    937   1923     1
    938   1949     1
    953    957     1
    953    959     1
    953    962     1
    954    958     1
    954    961     1
    954    963     1
    954   1976     1
    955    956     1
    955    961     1
    955    964     1
    955   2002     1
    956    960     1
    956   1975     1
    957   1974     1
    958    960     1
    958   2001     1
    959   2000     1
    963   1975     1
    964   2001     1
    979    983     1
    979    985     1
    979    988     1
    980    984     1
    980    987     1
    980    989     1
    980   2028     1
    981    982     1
    981    987     1
    981    990     1
    981   2054     1
    982    986     1
    982   2027     1
    983   2026     1
    984    986     1
    984   2053     1
    985   2052     1
    989   2027     1
    990   2053     1
   1005   1009     1
   1005   1011     1
   1005   1014     1
   1006   1010     1
   1006   1013     1
   1006   1015     1
   1006   2080     1
   1007   1008     1
   1007   1013     1
   1007   1016     1
   1007   2106     1
   1008   1012     1
   1008   2079     1
   1009   2078     1
   1010   1012     1
   1010   2105     1
   1011   2104     1
   1015   2079     1
   1016   2105     1
   1031   1035     1
   1031   1037     1
   1031   1040     1
   1032   1036     1
   1032   1039     1
   1032   1041     1
   1032   2132     1
   1033   1034     1
   1033   1039     1
   1033   1042     1
   1033   2158     1
   1034   1038     1
   1034   2131     1
   1035   2130     1
   1036   1038     1
   1036   2157     1
   1037   2156     1
   1041   2131     1
   1042   2157     1
   1057   1061     1
   1057   1063     1
   1057   1066     1
   1058   1062     1
   1058   1065     1
   1058   1067     1
   1058   2184     1
   1059   1060     1
   1059   1065     1
   1059   1068     1
   1059   2210     1
   1060   1064     1
   1060   2183     1
   1061   2182     1
   1062   1064     1
   1062   2209     1
   1063   2208     1
   1067   2183     1
   1068   2209     1
   1083   1087     1
   1083   1089     1
   1083   1092     1
   1084   1088     1
   1084   1091     1
   1084   1093     1
   1084   2236     1
   1085   1086     1
   1085   1091     1
   1085   1094     1
   1085   2262     1
   1086   1090     1
   1086   2235     1
   1087   2234     1
   1088   1090     1
   1088   2261     1
   1089   2260     1
   1093   2235     1
   1094   2261     1
   1109   1113     1
   1109   1115     1
   1109   1118     1
   1110   1114     1
   1110   1117     1
   1110   1119     1
   1110   2288     1
   1111   1112     1
   1111   1117     1
   1111   1120     1
   1111   2314     1
   1112   1116     1
   1112   2287     1
   1113   2286     1
   1114   1116     1
   1114   2313     1
   1115   2312     1
   1119   2287     1
   1120   2313     1
   1135   1139     1
   1135   1141     1
   1135   1144     1
   1136   1140     1
   1136   1143     1
   1136   1145     1
   1136   2340     1
   1137   1138     1
   1137   1143     1
   1137   1146     1
   1137   2366     1
   1138   1142     1
   1138   2339     1
   1139   2338     1
   1140   1142     1
   1140   2365     1
   1141   2364     1
   1145   2339     1
   1146   2365     1
   1161   1165     1
   1161   1167     1
   1161   1170     1
   1162   1166     1
   1162   1169     1
   1162   1171     1
   1162   2392     1
   1163   1164     1
   1163   1169     1
   1163   1172     1
   1163   2418     1
   1164   1168     1
   1164   2391     1
   1165   2390     1
   1166   1168     1
   1166   2417     1
   1167   2416     1
   1171   2391     1
   1172   2417     1
   1187   1191     1
   1187   1193     1
   1187   1196     1
   1188   1192     1
   1188   1195     1
   1188   1197     1
   1188   2444     1
   1189   1190     1
   1189   1195     1
   1189   1198     1
   1189   2470     1
   1190   1194     1
   1190   2443     1
   1191   2442     1
   1192   1194     1
   1192   2469     1
   1193   2468     1
   1197   2443     1
   1198   2469     1
   1213   1217     1
   1213   1219     1
   1213   1222     1
   1214   1218     1
   1214   1221     1
   1214   1223     1
   1214   2496     1
   1215   1216     1
   1215   1221     1
   1215   1224     1
   1215   2522     1
   1216   1220     1
   1216   2495     1
   1217   2494     1
   1218   1220     1
   1218   2521     1
   1219   2520     1
   1223   2495     1
   1224   2521     1
   1239   1243     1
   1239   1245     1
   1239   1248     1
   1240   1244     1
   1240   1247     1
   1240   1249     1
   1240   2548     1
   1241   1242     1
   1241   1247     1
   1241   1250     1
   1241   2574     1
   1242   1246     1
   1242   2547     1
   1243   2546     1
   1244   1246     1
   1244   2573     1
   1245   2572     1
   1249   2547     1
   1250   2573     1
   1265   1269     1
   1265   1271     1
   1265   1274     1
   1266   1270     1
   1266   1273     1
   1266   1275     1
   1266   2600     1
   1267   1268     1
   1267   1273     1
   1267   1276     1
   1267   2626     1
   1268   1272     1
   1268   2599     1
   1269   2598     1
   1270   1272     1
   1270   2625     1
   1271   2624     1
   1275   2599     1
   1276   2625     1
   1291   1295     1
   1291   1297     1
   1291   1300     1
   1292   1296     1
   1292   1299     1
   1292   1301     1
   1292   2652     1
   1293   1294     1
   1293   1299     1
   1293   1302     1
   1293   2678     1
   1294   1298     1
   1294   2651     1
   1295   2650     1
   1296   1298     1
   1296   2677     1
   1297   2676     1
   1301   2651     1
   1302   2677     1
   1317   1321     1
   1317   1323     1
   1317   1326     1
   1318   1322     1
   1318   1325     1
   1318   1327     1
   1318   2704     1
   1319   1320     1
   1319   1325     1
   1319   1328     1
   1319   2730     1
   1320   1324     1
   1320   2703     1
   1321   2702     1
   1322   1324     1
   1322   2729     1
   1323   2728     1
   1327   2703     1
   1328   2729     1
   1343   1347     1
   1343   1349     1
   1343   1352     1
   1344   1348     1
   1344   1351     1
   1344   1353     1
   1344   2756     1
   1345   1346     1
   1345   1351     1
   1345   1354     1
   1345   2782     1
   1346   1350     1
   1346   2755     1
   1347   2754     1
   1348   1350     1
   1348   2781     1
   1349   2780     1
   1353   2755     1
   1354   2781     1
   1369   1373     1
   1369   1375     1
   1369   1378     1
   1370   1374     1
   1370   1377     1
   1370   1379     1
   1370   2808     1
   1371   1372     1
   1371   1377     1
   1371   1380     1
   1371   2834     1
   1372   1376     1
   1372   2807     1
   1373   2806     1
   1374   1376     1
   1374   2833     1
   1375   2832     1
   1379   2807     1
   1380   2833     1
   1395   1399     1
   1395   1401     1
   1395   1404     1
   1396   1400     1
   1396   1403     1
   1396   1405     1
   1396   2860     1
   1397   1398     1
   1397   1403     1
   1397   1406     1
   1397   2886     1
   1398   1402     1
   1398   2859     1
   1399   2858     1
   1400   1402     1
   1400   2885     1
   1401   2884     1
   1405   2859     1
   1406   2885     1
   1421   1425     1
   1421   1427     1
   1421   1430     1
   1422   1426     1
   1422   1429     1
   1422   1431     1
   1422   2912     1
   1423   1424     1
   1423   1429     1
   1423   1432     1
   1423   2938     1
   1424   1428     1
   1424   2911     1
   1425   2910     1
   1426   1428     1
   1426   2937     1
   1427   2936     1
   1431   2911     1
   1432   2937     1
   1447   1451     1
   1447   1453     1
   1447   1456     1
   1448   1452     1
   1448   1455     1
   1448   1457     1
   1448   2964     1
   1449   1450     1
   1449   1455     1
   1449   1458     1
   1449   2990     1
   1450   1454     1
   1450   2963     1
   1451   2962     1
   1452   1454     1
   1452   2989     1
   1453   2988     1
   1457   2963     1
   1458   2989     1
   1473   1477     1
   1473   1479     1
   1473   1482     1
   1474   1478     1
   1474   1481     1
   1474   1483     1
   1474   3016     1
   1475   1476     1
   1475   1481     1
   1475   1484     1
   1475   3042     1
   1476   1480     1
   1476   3015     1
   1477   3014     1
   1478   1480     1
   1478   3041     1
   1479   3040     1
   1483   3015     1
   1484   3041     1
   1499   1503     1
   1499   1505     1
   1499   1508     1
   1500   1504     1
   1500   1507     1
   1500   1509     1
   1500   3068     1
   1501   1502     1
   1501   1507     1
   1501   1510     1
   1501   3094     1
   1502   1506     1
   1502   3067     1
   1503   3066     1
   1504   1506     1
   1504   3093     1
   1505   3092     1
   1509   3067     1
   1510   3093     1
   1525   1529     1
   1525   1531     1
   1525   1534     1
   1526   1530     1
   1526   1533     1
   1526   1535     1
   1526   3120     1
   1527   1528     1
   1527   1533     1
   1527   1536     1
   1527   3146     1
   1528   1532     1
   1528   3119     1
   1529   3118     1
   1530   1532     1
   1530   3145     1
   1531   3144     1
   1535   3119     1
   1536   3145     1
   1551   1555     1
   1551   1557     1
   1551   1560     1
   1552   1556     1
   1552   1559     1
   1552   1561     1
   1552   3172     1
   1553   1554     1
   1553   1559     1
   1553   1562     1
   1553   3198     1
   1554   1558     1
   1554   3171     1
   1555   3170     1
   1556   1558     1
   1556   3197     1
   1557   3196     1
   1561   3171     1
   1562   3197     1
   1577   1581     1
   1577   1583     1
   1577   1586     1
   1578   1582     1
   1578   1585     1
   1578   1587     1
   1578   3224     1
   1579   1580     1
   1579   1585     1
   1579   1588     1
   1579   3250     1
   1580   1584     1
   1580   3223     1
   1581   3222     1
   1582   1584     1
   1582   3249     1
   1583   3248     1
   1587   3223     1
   1588   3249     1
   1603   1607     1
   1603   1609     1
   1603   1612     1
   1604   1608     1
   1604   1611     1
   1604   3267     1
   1604   1613     1
   1605   1606     1
   1605   1611     1
   1605   1614     1
   1605   3279     1
   1606   1610     1
   1606   3269     1
   1607   3270     1
   1608   1610     1
   1608   3281     1
   1609   3282     1
   1613   3269     1
   1614   3281     1
   1629   1633     1
   1629   1635     1
   1629   1638     1
   1630   1634     1
   1630   1637     1
   1630   3291     1
   1630   1639     1
   1631   1632     1
   1631   1637     1
   1631   1640     1
   1631   3303     1
   1632   1636     1
   1632   3293     1
   1633   3294     1
   1634   1636     1
   1634   3305     1
   1635   3306     1
   1639   3293     1
   1640   3305     1
   1655   1659     1
   1655   1661     1
   1655   1664     1
   1656   1660     1
   1656   1663     1
   1656   3315     1
   1656   1665     1
   1657   1658     1
   1657   1663     1
   1657   1666     1
   1657   3327     1
   1658   1662     1
   1658   3317     1
   1659   3318     1
   1660   1662     1
   1660   3329     1
   1661   3330     1
   1665   3317     1
   1666   3329     1
   1681   1685     1
   1681   1687     1
   1681   1690     1
   1682   1686     1
   1682   1689     1
   1682   3339     1
   1682   1691     1
   1683   1684     1
   1683   1689     1
   1683   1692     1
   1683   3351     1
   1684   1688     1
   1684   3341     1
   1685   3342     1
   1686   1688     1
   1686   3353     1
   1687   3354     1
   1691   3341     1
   1692   3353     1
   1707   1711     1
   1707   1713     1
   1707   1716     1
   1708   1712     1
   1708   1715     1
   1708   3363     1
   1708   1717     1
   1709   1710     1
   1709   1715     1
   1709   1718     1
   1709   3375     1
   1710   1714     1
   1710   3365     1
   1711   3366     1
   1712   1714     1
   1712   3377     1
   1713   3378     1
   1717   3365     1
   1718   3377     1
   1733   1737     1
   1733   1739     1
   1733   1742     1
   1734   1738     1
   1734   1741     1
   1734   3387     1
   1734   1743     1
   1735   1736     1
   1735   1741     1
   1735   1744     1
   1735   3399     1
   1736   1740     1
   1736   3389     1
   1737   3390     1
   1738   1740     1
   1738   3401     1
   1739   3402     1
   1743   3389     1
   1744   3401     1
   1759   1763     1
   1759   1765     1
   1759   1768     1
   1760   1764     1
   1760   1767     1
   1760   3411     1
   1760   1769     1
   1761   1762     1
   1761   1767     1
   1761   1770     1
   1761   3423     1
   1762   1766     1
   1762   3413     1
   1763   3414     1
   1764   1766     1
   1764   3425     1
   1765   3426     1
   1769   3413     1
   1770   3425     1
   1785   1789     1
   1785   1791     1
   1785   1794     1
   1786   1790     1
   1786   1793     1
   1786   3435     1
   1786   1795     1
   1787   1788     1
   1787   1793     1
   1787   1796     1
   1787   3447     1
   1788   1792     1
   1788   3437     1
   1789   3438     1
   1790   1792     1
   1790   3449     1
   1791   3450     1
   1795   3437     1
   1796   3449     1
   1811   1815     1
   1811   1817     1
   1811   1820     1
   1812   1816     1
   1812   1819     1
   1812   3459     1
   1812   1821     1
   1813   1814     1
   1813   1819     1
   1813   1822     1
   1813   3471     1
   1814   1818     1
   1814   3461     1
   1815   3462     1
   1816   1818     1
   1816   3473     1
   1817   3474     1
   1821   3461     1
   1822   3473     1
   1837   1841     1
   1837   1843     1
   1837   1846     1
   1838   1842     1
   1838   1845     1
   1838   3483     1
   1838   1847     1
   1839   1840     1
   1839   1845     1
   1839   1848     1
   1839   3495     1
   1840   1844     1
   1840   3485     1
   1841   3486     1
   1842   1844     1
   1842   3497     1
   1843   3498     1
   1847   3485     1
   1848   3497     1
   1863   1867     1
   1863   1869     1
   1863   1872     1
   1864   1868     1
   1864   1871     1
   1864   3507     1
   1864   1873     1
   1865   1866     1
   1865   1871     1
   1865   1874     1
   1865   3519     1
   1866   1870     1
   1866   3509     1
   1867   3510     1
   1868   1870     1
   1868   3521     1
   1869   3522     1
   1873   3509     1
   1874   3521     1
   1889   1893     1
   1889   1895     1
   1889   1898     1
   1890   1894     1
   1890   1897     1
   1890   3531     1
   1890   1899     1
   1891   1892     1
   1891   1897     1
   1891   1900     1
   1891   3543     1
   1892   1896     1
   1892   3533     1
   1893   3534     1
   1894   1896     1
   1894   3545     1
   1895   3546     1
   1899   3533     1
   1900   3545     1
   1915   1919     1
   1915   1921     1
   1915   1924     1
   1916   1920     1
   1916   1923     1
   1916   3555     1
   1916   1925     1
   1917   1918     1
   1917   1923     1
   1917   1926     1
   1917   3567     1
   1918   1922     1
   1918   3557     1
   1919   3558     1
   1920   1922     1
   1920   3569     1
   1921   3570     1
   1925   3557     1
   1926   3569     1
   1941   1945     1
   1941   1947     1
   1941   1950     1
   1942   1946     1
   1942   1949     1
   1942   3579     1
   1942   1951     1
   1943   1944     1
   1943   1949     1
   1943   1952     1
   1943   3591     1
   1944   1948     1
   1944   3581     1
   1945   3582     1
   1946   1948     1
   1946   3593     1
   1947   3594     1
   1951   3581     1
   1952   3593     1
   1967   1971     1
   1967   1973     1
   1967   1976     1
   1968   1972     1
   1968   1975     1
   1968   3603     1
   1968   1977     1
   1969   1970     1
   1969   1975     1
   1969   1978     1
   1969   3615     1
   1970   1974     1
   1970   3605     1
   1971   3606     1
   1972   1974     1
   1972   3617     1
   1973   3618     1
   1977   3605     1
   1978   3617     1
   1993   1997     1
   1993   1999     1
   1993   2002     1
   1994   1998     1
   1994   2001     1
   1994   3627     1
   1994   2003     1
   1995   1996     1
   1995   2001     1
   1995   2004     1
   1995   3639     1
   1996   2000     1
   1996   3629     1
   1997   3630     1
   1998   2000     1
   1998   3641     1
   1999   3642     1
   2003   3629     1
   2004   3641     1
   2019   2023     1
   2019   2025     1
   2019   2028     1
   2020   2024     1
   2020   2027     1
   2020   3651     1
   2020   2029     1
   2021   2022     1
   2021   2027     1
   2021   2030     1
   2021   3663     1
   2022   2026     1
   2022   3653     1
   2023   3654     1
   2024   2026     1
   2024   3665     1
   2025   3666     1
   2029   3653     1
   2030   3665     1
   2045   2049     1
   2045   2051     1
   2045   2054     1
   2046   2050     1
   2046   2053     1
   2046   3675     1
   2046   2055     1
   2047   2048     1
   2047   2053     1
   2047   2056     1
   2047   3687     1
   2048   2052     1
   2048   3677     1
   2049   3678     1
   2050   2052     1
   2050   3689     1
   2051   3690     1
   2055   3677     1
   2056   3689     1
   2071   2075     1
   2071   2077     1
   2071   2080     1
   2072   2076     1
   2072   2079     1
   2072   3699     1
   2072   2081     1
   2073   2074     1
   2073   2079     1
   2073   2082     1
   2073   3711     1
   2074   2078     1
   2074   3701     1
   2075   3702     1
   2076   2078     1
   2076   3713     1
   2077   3714     1
   2081   3701     1
   2082   3713     1
   2097   2101     1
   2097   2103     1
   2097   2106     1
   2098   2102     1
   2098   2105     1
   2098   3723     1
   2098   2107     1
   2099   2100     1
   2099   2105     1
   2099   2108     1
   2099   3735     1
   2100   2104     1
   2100   3725     1
   2101   3726     1
   2102   2104     1
   2102   3737     1
   2103   3738     1
   2107   3725     1
   2108   3737     1
   2123   2127     1
   2123   2129     1
   2123   2132     1
   2124   2128     1
   2124   2131     1
   2124   3747     1
   2124   2133     1
   2125   2126     1
   2125   2131     1
   2125   2134     1
   2125   3759     1
   2126   2130     1
   2126   3749     1
   2127   3750     1
   2128   2130     1
   2128   3761     1
   2129   3762     1
   2133   3749     1
   2134   3761     1
   2149   2153     1
   2149   2155     1
   2149   2158     1
   2150   2154     1
   2150   2157     1
   2150   3771     1
   2150   2159     1
   2151   2152     1
   2151   2157     1
   2151   2160     1
   2151   3783     1
   2152   2156     1
   2152   3773     1
   2153   3774     1
   2154   2156     1
   2154   3785     1
   2155   3786     1
   2159   3773     1
   2160   3785     1
   2175   2179     1
   2175   2181     1
   2175   2184     1
   2176   2180     1
   2176   2183     1
   2176   3795     1
   2176   2185     1
   2177   2178     1
   2177   2183     1
   2177   2186     1
   2177   3807     1
   2178   2182     1
   2178   3797     1
   2179   3798     1
   2180   2182     1
   2180   3809     1
   2181   3810     1
   2185   3797     1
   2186   3809     1
   2201   2205     1
   2201   2207     1
   2201   2210     1
   2202   2206     1
   2202   2209     1
   2202   3819     1
   2202   2211     1
   2203   2204     1
   2203   2209     1
   2203   2212     1
   2203   3831     1
   2204   2208     1
   2204   3821     1
   2205   3822     1
   2206   2208     1
   2206   3833     1
   2207   3834     1
   2211   3821     1
   2212   3833     1
   2227   2231     1
   2227   2233     1
   2227   2236     1
   2228   2232     1
   2228   2235     1
   2228   3843     1
   2228   2237     1
   2229   2230     1
   2229   2235     1
   2229   2238     1
   2229   3855     1
   2230   2234     1
   2230   3845     1
   2231   3846     1
   2232   2234     1
   2232   3857     1
   2233   3858     1
   2237   3845     1
   2238   3857     1
   2253   2257     1
   2253   2259     1
   2253   2262     1
   2254   2258     1
   2254   2261     1
   2254   3867     1
   2254   2263     1
   2255   2256     1
   2255   2261     1
   2255   2264     1
   2255   3879     1
   2256   2260     1
   2256   3869     1
   2257   3870     1
   2258   2260     1
   2258   3881     1
   2259   3882     1
   2263   3869     1
   2264   3881     1
   2279   2283     1
   2279   2285     1
   2279   2288     1
   2280   2284     1
   2280   2287     1
   2280   3891     1
   2280   2289     1
   2281   2282     1
   2281   2287     1
   2281   2290     1
   2281   3903     1
   2282   2286     1
   2282   3893     1
   2283   3894     1
   2284   2286     1
   2284   3905     1
   2285   3906     1
   2289   3893     1
   2290   3905     1
   2305   2309     1
   2305   2311     1
   2305   2314     1
   2306   2310     1
   2306   2313     1
   2306   3915     1
   2306   2315     1
   2307   2308     1
   2307   2313     1
   2307   2316     1
   2307   3927     1
   2308   2312     1
   2308   3917     1
   2309   3918     1
   2310   2312     1
   2310   3929     1
   2311   3930     1
   2315   3917     1
   2316   3929     1
   2331   2335     1
   2331   2337     1
   2331   2340     1
   2332   2336     1
   2332   2339     1
   2332   3939     1
   2332   2341     1
   2333   2334     1
   2333   2339     1
   2333   2342     1
   2333   3951     1
   2334   2338     1
   2334   3941     1
   2335   3942     1
   2336   2338     1
   2336   3953     1
   2337   3954     1
   2341   3941     1
   2342   3953     1
   2357   2361     1
   2357   2363     1
   2357   2366     1
   2358   2362     1
   2358   2365     1
   2358   3963     1
   2358   2367     1
   2359   2360     1
   2359   2365     1
   2359   2368     1
   2359   3975     1
   2360   2364     1
   2360   3965     1
   2361   3966     1
   2362   2364     1
   2362   3977     1
   2363   3978     1
   2367   3965     1
   2368   3977     1
   2383   2387     1
   2383   2389     1
   2383   2392     1
   2384   2388     1
   2384   2391     1
   2384   3987     1
   2384   2393     1
   2385   2386     1
   2385   2391     1
   2385   2394     1
   2385   3999     1
   2386   2390     1
   2386   3989     1
   2387   3990     1
   2388   2390     1
   2388   4001     1
   2389   4002     1
   2393   3989     1
   2394   4001     1
   2409   2413     1
   2409   2415     1
   2409   2418     1
   2410   2414     1
   2410   2417     1
   2410   4011     1
   2410   2419     1
   2411   2412     1
   2411   2417     1
   2411   2420     1
   2411   4023     1
   2412   2416     1
   2412   4013     1
   2413   4014     1
   2414   2416     1
   2414   4025     1
   2415   4026     1
   2419   4013     1
   2420   4025     1
   2435   2439     1
   2435   2441     1
   2435   2444     1
   2436   2440     1
   2436   2443     1
   2436   4035     1
   2436   2445     1
   2437   2438     1
   2437   2443     1
   2437   2446     1
   2437   4047     1
   2438   2442     1
   2438   4037     1
   2439   4038     1
   2440   2442     1
   2440   4049     1
   2441   4050     1
   2445   4037     1
   2446   4049     1
   2461   2465     1
   2461   2467     1
   2461   2470     1
   2462   2466     1
   2462   2469     1
   2462   4059     1
   2462   2471     1
   2463   2464     1
   2463   2469     1
   2463   2472     1
   2463   4071     1
   2464   2468     1
   2464   4061     1
   2465   4062     1
   2466   2468     1
   2466   4073     1
   2467   4074     1
   2471   4061     1
   2472   4073     1
   2487   2491     1
   2487   2493     1
   2487   2496     1
   2488   2492     1
   2488   2495     1
   2488   4083     1
   2488   2497     1
   2489   2490     1
   2489   2495     1
   2489   2498     1
   2489   4095     1
   2490   2494     1
   2490   4085     1
   2491   4086     1
   2492   2494     1
   2492   4097     1
   2493   4098     1
   2497   4085     1
   2498   4097     1
   2513   2517     1
   2513   2519     1
   2513   2522     1
   2514   2518     1
   2514   2521     1
   2514   4107     1
   2514   2523     1
   2515   2516     1
   2515   2521     1
   2515   2524     1
   2515   4119     1
   2516   2520     1
   2516   4109     1
   2517   4110     1
   2518   2520     1
   2518   4121     1
   2519   4122     1
   2523   4109     1
   2524   4121     1
   2539   2543     1
   2539   2545     1
   2539   2548     1
   2540   2544     1
   2540   2547     1
   2540   4131     1
   2540   2549     1
   2541   2542     1
   2541   2547     1
   2541   2550     1
   2541   4143     1
   2542   2546     1
   2542   4133     1
   2543   4134     1
   2544   2546     1
   2544   4145     1
   2545   4146     1
   2549   4133     1
   2550   4145     1
   2565   2569     1
   2565   2571     1
   2565   2574     1
   2566   2570     1
   2566   2573     1
   2566   4155     1
   2566   2575     1
   2567   2568     1
   2567   2573     1
   2567   2576     1
   2567   4167     1
   2568   2572     1
   2568   4157     1
   2569   4158     1
   2570   2572     1
   2570   4169     1
   2571   4170     1
   2575   4157     1
   2576   4169     1
   2591   2595     1
   2591   2597     1
   2591   2600     1
   2592   2596     1
   2592   2599     1
   2592   4179     1
   2592   2601     1
   2593   2594     1
   2593   2599     1
   2593   2602     1
   2593   4191     1
   2594   2598     1
   2594   4181     1
   2595   4182     1
   2596   2598     1
   2596   4193     1
   2597   4194     1
   2601   4181     1
   2602   4193     1
   2617   2621     1
   2617   2623     1
   2617   2626     1
   2618   2622     1
   2618   2625     1
   2618   4203     1
   2618   2627     1
   2619   2620     1
   2619   2625     1
   2619   2628     1
   2619   4215     1
   2620   2624     1
   2620   4205     1
   2621   4206     1
   2622   2624     1
   2622   4217     1
   2623   4218     1
   2627   4205     1
   2628   4217     1
   2643   2647     1
   2643   2649     1
   2643   2652     1
   2644   2648     1
   2644   2651     1
   2644   4227     1
   2644   2653     1
   2645   2646     1
   2645   2651     1
   2645   2654     1
   2645   4239     1
   2646   2650     1
   2646   4229     1
   2647   4230     1
   2648   2650     1
   2648   4241     1
   2649   4242     1
   2653   4229     1
   2654   4241     1
   2669   2673     1
   2669   2675     1
   2669   2678     1
   2670   2674     1
   2670   2677     1
   2670   4251     1
   2670   2679     1
   2671   2672     1
   2671   2677     1
   2671   2680     1
   2671   4263     1
   2672   2676     1
   2672   4253     1
   2673   4254     1
   2674   2676     1
   2674   4265     1
   2675   4266     1
   2679   4253     1
   2680   4265     1
   2695   2699     1
   2695   2701     1
   2695   2704     1
   2696   2700     1
   2696   2703     1
   2696   4275     1
   2696   2705     1
   2697   2698     1
   2697   2703     1
   2697   2706     1
   2697   4287     1
   2698   2702     1
   2698   4277     1
   2699   4278     1
   2700   2702     1
   2700   4289     1
   2701   4290     1
   2705   4277     1
   2706   4289     1
   2721   2725     1
   2721   2727     1
   2721   2730     1
   2722   2726     1
   2722   2729     1
   2722   4299     1
   2722   2731     1
   2723   2724     1
   2723   2729     1
   2723   2732     1
   2723   4311     1
   2724   2728     1
   2724   4301     1
   2725   4302     1
   2726   2728     1
   2726   4313     1
   2727   4314     1
   2731   4301     1
   2732   4313     1
   2747   2751     1
   2747   2753     1
   2747   2756     1
   2748   2752     1
   2748   2755     1
   2748   4323     1
   2748   2757     1
   2749   2750     1
   2749   2755     1
   2749   2758     1
   2749   4335     1
   2750   2754     1
   2750   4325     1
   2751   4326     1
   2752   2754     1
   2752   4337     1
   2753   4338     1
   2757   4325     1
   2758   4337     1
   2773   2777     1
   2773   2779     1
   2773   2782     1
   2774   2778     1
   2774   2781     1
   2774   4347     1
   2774   2783     1
   2775   2776     1
   2775   2781     1
   2775   2784     1
   2775   4359     1
   2776   2780     1
   2776   4349     1
   2777   4350     1
   2778   2780     1
   2778   4361     1
   2779   4362     1
   2783   4349     1
   2784   4361     1
   2799   2803     1
   2799   2805     1
   2799   2808     1
   2800   2804     1
   2800   2807     1
   2800   4371     1
   2800   2809     1
   2801   2802     1
   2801   2807     1
   2801   2810     1
   2801   4383     1
   2802   2806     1
   2802   4373     1
   2803   4374     1
   2804   2806     1
   2804   4385     1
   2805   4386     1
   2809   4373     1
   2810   4385     1
   2825   2829     1
   2825   2831     1
   2825   2834     1
   2826   2830     1
   2826   2833     1
   2826   4395     1
   2826   2835     1
   2827   2828     1
   2827   2833     1
   2827   2836     1
   2827   4407     1
   2828   2832     1
   2828   4397     1
   2829   4398     1
   2830   2832     1
   2830   4409     1
   2831   4410     1
   2835   4397     1
   2836   4409     1
   2851   2855     1
   2851   2857     1
   2851   2860     1
   2852   2856     1
   2852   2859     1
   2852   4419     1
   2852   2861     1
   2853   2854     1
   2853   2859     1
   2853   2862     1
   2853   4431     1
   2854   2858     1
   2854   4421     1
   2855   4422     1
   2856   2858     1
   2856   4433     1
   2857   4434     1
   2861   4421     1
   2862   4433     1
   2877   2881     1
   2877   2883     1
   2877   2886     1
   2878   2882     1
   2878   2885     1
   2878   4443     1
   2878   2887     1
   2879   2880     1
   2879   2885     1
   2879   2888     1
   2879   4455     1
   2880   2884     1
   2880   4445     1
   2881   4446     1
   2882   2884     1
   2882   4457     1
   2883   4458     1
   2887   4445     1
   2888   4457     1
   2903   2907     1
   2903   2909     1
   2903   2912     1
   2904   2908     1
   2904   2911     1
   2904   4467     1
   2904   2913     1
   2905   2906     1
   2905   2911     1
   2905   2914     1
   2905   4479     1
   2906   2910     1
   2906   4469     1
   2907   4470     1
   2908   2910     1
   2908   4481     1
   2909   4482     1
   2913   4469     1
   2914   4481     1
   2929   2933     1
   2929   2935     1
   2929   2938     1
   2930   2934     1
   2930   2937     1
   2930   4491     1
   2930   2939     1
   2931   2932     1
   2931   2937     1
   2931   2940     1
   2931   4503     1
   2932   2936     1
   2932   4493     1
   2933   4494     1
   2934   2936     1
   2934   4505     1
   2935   4506     1
   2939   4493     1
   2940   4505     1
   2955   2959     1
   2955   2961     1
   2955   2964     1
   2956   2960     1
   2956   2963     1
   2956   4515     1
   2956   2965     1
   2957   2958     1
   2957   2963     1
   2957   2966     1
   2957   4527     1
   2958   2962     1
   2958   4517     1
   2959   4518     1
   2960   2962     1
   2960   4529     1
   2961   4530     1
   2965   4517     1
   2966   4529     1
   2981   2985     1
   2981   2987     1
   2981   2990     1
   2982   2986     1
   2982   2989     1
   2982   4539     1
   2982   2991     1
   2983   2984     1
   2983   2989     1
   2983   2992     1
   2983   4551     1
   2984   2988     1
   2984   4541     1
   2985   4542     1
   2986   2988     1
   2986   4553     1
   2987   4554     1
   2991   4541     1
   2992   4553     1
   3007   3011     1
   3007   3013     1
   3007   3016     1
   3008   3012     1
   3008   3015     1
   3008   4563     1
   3008   3017     1
   3009   3010     1
   3009   3015     1
   3009   3018     1
   3009   4575     1
   3010   3014     1
   3010   4565     1
   3011   4566     1
   3012   3014     1
   3012   4577     1
   3013   4578     1
   3017   4565     1
   3018   4577     1
   3033   3037     1
   3033   3039     1
   3033   3042     1
   3034   3038     1
   3034   3041     1
   3034   4587     1
   3034   3043     1
   3035   3036     1
   3035   3041     1
   3035   3044     1
   3035   4599     1
   3036   3040     1
   3036   4589     1
   3037   4590     1
   3038   3040     1
   3038   4601     1
   3039   4602     1
   3043   4589     1
   3044   4601     1
   3059   3063     1
   3059   3065     1
   3059   3068     1
   3060   3064     1
   3060   3067     1
   3060   4611     1
   3060   3069     1
   3061   3062     1
   3061   3067     1
   3061   3070     1
   3061   4623     1
   3062   3066     1
   3062   4613     1
   3063   4614     1
   3064   3066     1
   3064   4625     1
   3065   4626     1
   3069   4613     1
   3070   4625     1
   3085   3089     1
   3085   3091     1
   3085   3094     1
   3086   3090     1
   3086   3093     1
   3086   4635     1
   3086   3095     1
   3087   3088     1
   3087   3093     1
   3087   3096     1
   3087   4647     1
   3088   3092     1
   3088   4637     1
   3089   4638     1
   3090   3092     1
   3090   4649     1
   3091   4650     1
   3095   4637     1
   3096   4649     1
   3111   3115     1
   3111   3117     1
   3111   3120     1
   3112   3116     1
   3112   3119     1
   3112   4659     1
   3112   3121     1
   3113   3114     1
   3113   3119     1
   3113   3122     1
   3113   4671     1
   3114   3118     1
   3114   4661     1
   3115   4662     1
   3116   3118     1
   3116   4673     1
   3117   4674     1
   3121   4661     1
   3122   4673     1
   3137   3141     1
   3137   3143     1
   3137   3146     1
   3138   3142     1
   3138   3145     1
   3138   4683     1
   3138   3147     1
   3139   3140     1
   3139   3145     1
   3139   3148     1
   3139   4695     1
   3140   3144     1
   3140   4685     1
   3141   4686     1
   3142   3144     1
   3142   4697     1
   3143   4698     1
   3147   4685     1
   3148   4697     1
   3163   3167     1
   3163   3169     1
   3163   3172     1
   3164   3168     1
   3164   3171     1
   3164   4707     1
   3164   3173     1
   3165   3166     1
   3165   3171     1
   3165   3174     1
   3165   4719     1
   3166   3170     1
   3166   4709     1
   3167   4710     1
   3168   3170     1
   3168   4721     1
   3169   4722     1
   3173   4709     1
   3174   4721     1
   3189   3193     1
   3189   3195     1
   3189   3198     1
   3190   3194     1
   3190   3197     1
   3190   4731     1
   3190   3199     1
   3191   3192     1
   3191   3197     1
   3191   3200     1
   3191   4743     1
   3192   3196     1
   3192   4733     1
   3193   4734     1
   3194   3196     1
   3194   4745     1
   3195   4746     1
   3199   4733     1
   3200   4745     1
   3215   3219     1
   3215   3221     1
   3215   3224     1
   3216   3220     1
   3216   3223     1
   3216   4755     1
   3216   3225     1
   3217   3218     1
   3217   3223     1
   3217   3226     1
   3217   4767     1
   3218   3222     1
   3218   4757     1
   3219   4758     1
   3220   3222     1
   3220   4769     1
   3221   4770     1
   3225   4757     1
   3226   4769     1
   3241   3245     1
   3241   3247     1
   3241   3250     1
   3242   3246     1
   3242   3249     1
   3242   4779     1
   3242   3251     1
   3243   3244     1
   3243   3249     1
   3243   4791     1
   3243   3252     1
   3244   3248     1
   3244   4781     1
   3245   4782     1
   3246   3248     1
   3246   4793     1
   3247   4794     1
   3251   4781     1
   3252   4793     1
   3267   3275     1
   3279   3287     1
   3291   3299     1
   3303   3311     1
   3315   3323     1
   3327   3335     1
   3339   3347     1
   3351   3359     1
   3363   3371     1
   3375   3383     1
   3387   3395     1
   3399   3407     1
   3411   3419     1
   3423   3431     1
   3435   3443     1
   3447   3455     1
   3459   3467     1
   3471   3479     1
   3483   3491     1
   3495   3503     1
   3507   3515     1
   3519   3527     1
   3531   3539     1
   3543   3551     1
   3555   3563     1
   3567   3575     1
   3579   3587     1
   3591   3599     1
   3603   3611     1
   3615   3623     1
   3627   3635     1
   3639   3647     1
   3651   3659     1
   3663   3671     1
   3675   3683     1
   3687   3695     1
   3699   3707     1
   3711   3719     1
   3723   3731     1
   3735   3743     1
   3747   3755     1
   3759   3767     1
   3771   3779     1
   3783   3791     1
   3795   3803     1
   3807   3815     1
   3819   3827     1
   3831   3839     1
   3843   3851     1
   3855   3863     1
   3867   3875     1
   3879   3887     1
   3891   3899     1
   3903   3911     1
   3915   3923     1
   3927   3935     1
   3939   3947     1
   3951   3959     1
   3963   3971     1
   3975   3983     1
   3987   3995     1
   3999   4007     1
   4011   4019     1
   4023   4031     1
   4035   4043     1
   4047   4055     1
   4059   4067     1
   4071   4079     1
   4083   4091     1
   4095   4103     1
   4107   4115     1
   4119   4127     1
   4131   4139     1
   4143   4151     1
   4155   4163     1
   4167   4175     1
   4179   4187     1
   4191   4199     1
   4203   4211     1
   4215   4223     1
   4227   4235     1
   4239   4247     1
   4251   4259     1
   4263   4271     1
   4275   4283     1
   4287   4295     1
   4299   4307     1
   4311   4319     1
   4323   4331     1
   4335   4343     1
   4347   4355     1
   4359   4367     1
   4371   4379     1
   4383   4391     1
   4395   4403     1
   4407   4415     1
   4419   4427     1
   4431   4439     1
   4443   4451     1
   4455   4463     1
   4467   4475     1
   4479   4487     1
   4491   4499     1
   4503   4511     1
   4515   4523     1
   4527   4535     1
   4539   4547     1
   4551   4559     1
   4563   4571     1
   4575   4583     1
   4587   4595     1
   4599   4607     1
   4611   4619     1
   4623   4631     1
   4635   4643     1
   4647   4655     1
   4659   4667     1
   4671   4679     1
   4683   4691     1
   4695   4703     1
   4707   4715     1
   4719   4727     1
   4731   4739     1
   4743   4751     1
   4755   4763     1
   4767   4775     1
   4779   4787     1
   4791   4799     1
      1     23     1
      1     24     1
      1     37     1
      1     38     1
      1     39     1
      1     40     1
      2     29     1
      2     30     1
      2     31     1
      2     32     1
      2     42     1
     41      3     1
      3     25     1
      3     26     1
      3     27     1
      3     28     1
      4     21     1
      4     22     1
      4     35     1
      4     36     1
      4     33     1
      4     34     1
      5     23     1
      5     24     1
      5     27     1
      5     28     1
      6     23     1
      6     24     1
      6     25     1
      6     26     1
      7     21     1
      7     22     1
      7     31     1
      7     32     1
      8     21     1
      8     22     1
      8     29     1
      8     30     1
      9     42     1
      9     67     1
     10     27     1
     10     28     1
     10     65     1
     10     66     1
     11     42     1
     11     93     1
     12     25     1
     12     26     1
     12     91     1
     12     92     1
     41     13     1
     13    119     1
     14     29     1
     14     30     1
     14    117     1
     14    118     1
     41     15     1
     15    145     1
     16     31     1
     16     32     1
     16    143     1
     16    144     1
     17     35     1
     17     36     1
     17     93     1
     18     33     1
     18     34     1
     18     67     1
     19     39     1
     19     40     1
     19    145     1
     20     37     1
     20     38     1
     20    119     1
     41     21     1
     21     23     1
     21     24     1
     41     22     1
     22     23     1
     22     24     1
     23     42     1
     24     42     1
     25     42     1
     25     35     1
     25     36     1
     26     42     1
     26     35     1
     26     36     1
     27     42     1
     27     33     1
     27     34     1
     28     42     1
     28     33     1
     28     34     1
     41     29     1
     29     37     1
     29     38     1
     41     30     1
     30     37     1
     30     38     1
     41     31     1
     31     39     1
     31     40     1
     41     32     1
     32     39     1
     32     40     1
     33     52     1
     34     52     1
     35     78     1
     36     78     1
     37    104     1
     38    104     1
     39    130     1
     40    130     1
     43     59     1
     43     60     1
     43     61     1
     43     62     1
     43     65     1
     43     66     1
     44     57     1
     44     58     1
     44     63     1
     44     64     1
     45     55     1
     45     56     1
     45     63     1
     45     64     1
     46     68     1
     46    171     1
     47     55     1
     47     56     1
     47    169     1
     47    170     1
     48     68     1
     48    197     1
     49     57     1
     49     58     1
     49    195     1
     49    196     1
     50     55     1
     50     56     1
     50     57     1
     50     58     1
     50     67     1
     51     68     1
     52     63     1
     52     64     1
     53     59     1
     53     60     1
     53    171     1
     54     61     1
     54     62     1
     54    197     1
     55     68     1
     55     59     1
     55     60     1
     56     68     1
     56     59     1
     56     60     1
     57     68     1
     57     61     1
     57     62     1
     58     68     1
     58     61     1
     58     62     1
     59    156     1
     60    156     1
     61    182     1
     62    182     1
     63     68     1
     63     65     1
     63     66     1
     64     68     1
     64     65     1
     64     66     1
     65     67     1
     66     67     1
     69     85     1
     69     86     1
     69     87     1
     69     88     1
     69     91     1
     69     92     1
     70     83     1
     70     84     1
     70     89     1
     70     90     1
     71     81     1
     71     82     1
     71     89     1
     71     90     1
     72     94     1
     72    223     1
     73     81     1
     73     82     1
     73    221     1
     73    222     1
     74     94     1
     74    249     1
     75     83     1
     75     84     1
     75    247     1
     75    248     1
     76     81     1
     76     82     1
     76     83     1
     76     84     1
     76     93     1
     77     94     1
     78     89     1
     78     90     1
     79     85     1
     79     86     1
     79    223     1
     80     87     1
     80     88     1
     80    249     1
     81     94     1
     81     85     1
     81     86     1
     82     94     1
     82     85     1
     82     86     1
     83     94     1
     83     87     1
     83     88     1
     84     94     1
     84     87     1
     84     88     1
     85    208     1
     86    208     1
     87    234     1
     88    234     1
     89     94     1
     89     91     1
     89     92     1
     90     94     1
     90     91     1
     90     92     1
     91     93     1
     92     93     1
     95    111     1
     95    112     1
     95    113     1
     95    114     1
     95    117     1
     95    118     1
     96    109     1
     96    110     1
     96    115     1
     96    116     1
     97    107     1
     97    108     1
     97    115     1
     97    116     1
     98    120     1
     98    275     1
     99    107     1
     99    108     1
     99    273     1
     99    274     1
    100    120     1
    100    301     1
    101    109     1
    101    110     1
    101    299     1
    101    300     1
    102    107     1
    102    108     1
    102    109     1
    102    110     1
    102    119     1
    103    120     1
    104    115     1
    104    116     1
    105    111     1
    105    112     1
    105    275     1
    106    113     1
    106    114     1
    106    301     1
    107    120     1
    107    111     1
    107    112     1
    108    120     1
    108    111     1
    108    112     1
    109    120     1
    109    113     1
    109    114     1
    110    120     1
    110    113     1
    110    114     1
    111    260     1
    112    260     1
    113    286     1
    114    286     1
    115    120     1
    115    117     1
    115    118     1
    116    120     1
    116    117     1
    116    118     1
    117    119     1
    118    119     1
    121    137     1
    121    138     1
    121    139     1
    121    140     1
    121    143     1
    121    144     1
    122    135     1
    122    136     1
    122    141     1
    122    142     1
    123    133     1
    123    134     1
    123    141     1
    123    142     1
    124    146     1
    124    327     1
    125    133     1
    125    134     1
    125    325     1
    125    326     1
    126    146     1
    126    353     1
    127    135     1
    127    136     1
    127    351     1
    127    352     1
    128    133     1
    128    134     1
    128    135     1
    128    136     1
    128    145     1
    129    146     1
    130    141     1
    130    142     1
    131    137     1
    131    138     1
    131    327     1
    132    139     1
    132    140     1
    132    353     1
    133    146     1
    133    137     1
    133    138     1
    134    146     1
    134    137     1
    134    138     1
    135    146     1
    135    139     1
    135    140     1
    136    146     1
    136    139     1
    136    140     1
    137    312     1
    138    312     1
    139    338     1
    140    338     1
    141    146     1
    141    143     1
    141    144     1
    142    146     1
    142    143     1
    142    144     1
    143    145     1
    144    145     1
    147    163     1
    147    164     1
    147    165     1
    147    166     1
    147    169     1
    147    170     1
    148    161     1
    148    162     1
    148    167     1
    148    168     1
    149    159     1
    149    160     1
    149    167     1
    149    168     1
    150    172     1
    150    379     1
    151    159     1
    151    160     1
    151    377     1
    151    378     1
    152    172     1
    152    405     1
    153    161     1
    153    162     1
    153    403     1
    153    404     1
    154    159     1
    154    160     1
    154    161     1
    154    162     1
    154    171     1
    155    172     1
    156    167     1
    156    168     1
    157    163     1
    157    164     1
    157    379     1
    158    165     1
    158    166     1
    158    405     1
    159    172     1
    159    163     1
    159    164     1
    160    172     1
    160    163     1
    160    164     1
    161    172     1
    161    165     1
    161    166     1
    162    172     1
    162    165     1
    162    166     1
    163    364     1
    164    364     1
    165    390     1
    166    390     1
    167    172     1
    167    169     1
    167    170     1
    168    172     1
    168    169     1
    168    170     1
    169    171     1
    170    171     1
    173    189     1
    173    190     1
    173    191     1
    173    192     1
    173    195     1
    173    196     1
    174    187     1
    174    188     1
    174    193     1
    174    194     1
    175    185     1
    175    186     1
    175    193     1
    175    194     1
    176    198     1
    176    431     1
    177    185     1
    177    186     1
    177    429     1
    177    430     1
    178    198     1
    178    457     1
    179    187     1
    179    188     1
    179    455     1
    179    456     1
    180    185     1
    180    186     1
    180    187     1
    180    188     1
    180    197     1
    181    198     1
    182    193     1
    182    194     1
    183    189     1
    183    190     1
    183    431     1
    184    191     1
    184    192     1
    184    457     1
    185    198     1
    185    189     1
    185    190     1
    186    198     1
    186    189     1
    186    190     1
    187    198     1
    187    191     1
    187    192     1
    188    198     1
    188    191     1
    188    192     1
    189    416     1
    190    416     1
    191    442     1
    192    442     1
    193    198     1
    193    195     1
    193    196     1
    194    198     1
    194    195     1
    194    196     1
    195    197     1
    196    197     1
    199    215     1
    199    216     1
    199    217     1
    199    218     1
    199    221     1
    199    222     1
    200    213     1
    200    214     1
    200    219     1
    200    220     1
    201    211     1
    201    212     1
    201    219     1
    201    220     1
    202    224     1
    202    483     1
    203    211     1
    203    212     1
    203    481     1
    203    482     1
    204    224     1
    204    509     1
    205    213     1
    205    214     1
    205    507     1
    205    508     1
    206    211     1
    206    212     1
    206    213     1
    206    214     1
    206    223     1
    207    224     1
    208    219     1
    208    220     1
    209    215     1
    209    216     1
    209    483     1
    210    217     1
    210    218     1
    210    509     1
    211    224     1
    211    215     1
    211    216     1
    212    224     1
    212    215     1
    212    216     1
    213    224     1
    213    217     1
    213    218     1
    214    224     1
    214    217     1
    214    218     1
    215    468     1
    216    468     1
    217    494     1
    218    494     1
    219    224     1
    219    221     1
    219    222     1
    220    224     1
    220    221     1
    220    222     1
    221    223     1
    222    223     1
    225    241     1
    225    242     1
    225    243     1
    225    244     1
    225    247     1
    225    248     1
    226    239     1
    226    240     1
    226    245     1
    226    246     1
    227    237     1
    227    238     1
    227    245     1
    227    246     1
    228    250     1
    228    535     1
    229    237     1
    229    238     1
    229    533     1
    229    534     1
    230    250     1
    230    561     1
    231    239     1
    231    240     1
    231    559     1
    231    560     1
    232    237     1
    232    238     1
    232    239     1
    232    240     1
    232    249     1
    233    250     1
    234    245     1
    234    246     1
    235    241     1
    235    242     1
    235    535     1
    236    243     1
    236    244     1
    236    561     1
    237    250     1
    237    241     1
    237    242     1
    238    250     1
    238    241     1
    238    242     1
    239    250     1
    239    243     1
    239    244     1
    240    250     1
    240    243     1
    240    244     1
    241    520     1
    242    520     1
    243    546     1
    244    546     1
    245    250     1
    245    247     1
    245    248     1
    246    250     1
    246    247     1
    246    248     1
    247    249     1
    248    249     1
    251    267     1
    251    268     1
    251    269     1
    251    270     1
    251    273     1
    251    274     1
    252    265     1
    252    266     1
    252    271     1
    252    272     1
    253    263     1
    253    264     1
    253    271     1
    253    272     1
    254    276     1
    254    587     1
    255    263     1
    255    264     1
    255    585     1
    255    586     1
    256    276     1
    256    613     1
    257    265     1
    257    266     1
    257    611     1
    257    612     1
    258    263     1
    258    264     1
    258    265     1
    258    266     1
    258    275     1
    259    276     1
    260    271     1
    260    272     1
    261    267     1
    261    268     1
    261    587     1
    262    269     1
    262    270     1
    262    613     1
    263    276     1
    263    267     1
    263    268     1
    264    276     1
    264    267     1
    264    268     1
    265    276     1
    265    269     1
    265    270     1
    266    276     1
    266    269     1
    266    270     1
    267    572     1
    268    572     1
    269    598     1
    270    598     1
    271    276     1
    271    273     1
    271    274     1
    272    276     1
    272    273     1
    272    274     1
    273    275     1
    274    275     1
    277    293     1
    277    294     1
    277    295     1
    277    296     1
    277    299     1
    277    300     1
    278    291     1
    278    292     1
    278    297     1
    278    298     1
    279    289     1
    279    290     1
    279    297     1
    279    298     1
    280    302     1
    280    639     1
    281    289     1
    281    290     1
    281    637     1
    281    638     1
    282    302     1
    282    665     1
    283    291     1
    283    292     1
    283    663     1
    283    664     1
    284    289     1
    284    290     1
    284    291     1
    284    292     1
    284    301     1
    285    302     1
    286    297     1
    286    298     1
    287    293     1
    287    294     1
    287    639     1
    288    295     1
    288    296     1
    288    665     1
    289    302     1
    289    293     1
    289    294     1
    290    302     1
    290    293     1
    290    294     1
    291    302     1
    291    295     1
    291    296     1
    292    302     1
    292    295     1
    292    296     1
    293    624     1
    294    624     1
    295    650     1
    296    650     1
    297    302     1
    297    299     1
    297    300     1
    298    302     1
    298    299     1
    298    300     1
    299    301     1
    300    301     1
    303    319     1
    303    320     1
    303    321     1
    303    322     1
    303    325     1
    303    326     1
    304    317     1
    304    318     1
    304    323     1
    304    324     1
    305    315     1
    305    316     1
    305    323     1
    305    324     1
    306    328     1
    306    691     1
    307    315     1
    307    316     1
    307    689     1
    307    690     1
    308    328     1
    308    717     1
    309    317     1
    309    318     1
    309    715     1
    309    716     1
    310    315     1
    310    316     1
    310    317     1
    310    318     1
    310    327     1
    311    328     1
    312    323     1
    312    324     1
    313    319     1
    313    320     1
    313    691     1
    314    321     1
    314    322     1
    314    717     1
    315    328     1
    315    319     1
    315    320     1
    316    328     1
    316    319     1
    316    320     1
    317    328     1
    317    321     1
    317    322     1
    318    328     1
    318    321     1
    318    322     1
    319    676     1
    320    676     1
    321    702     1
    322    702     1
    323    328     1
    323    325     1
    323    326     1
    324    328     1
    324    325     1
    324    326     1
    325    327     1
    326    327     1
    329    345     1
    329    346     1
    329    347     1
    329    348     1
    329    351     1
    329    352     1
    330    343     1
    330    344     1
    330    349     1
    330    350     1
    331    341     1
    331    342     1
    331    349     1
    331    350     1
    332    354     1
    332    743     1
    333    341     1
    333    342     1
    333    741     1
    333    742     1
    334    354     1
    334    769     1
    335    343     1
    335    344     1
    335    767     1
    335    768     1
    336    341     1
    336    342     1
    336    343     1
    336    344     1
    336    353     1
    337    354     1
    338    349     1
    338    350     1
    339    345     1
    339    346     1
    339    743     1
    340    347     1
    340    348     1
    340    769     1
    341    354     1
    341    345     1
    341    346     1
    342    354     1
    342    345     1
    342    346     1
    343    354     1
    343    347     1
    343    348     1
    344    354     1
    344    347     1
    344    348     1
    345    728     1
    346    728     1
    347    754     1
    348    754     1
    349    354     1
    349    351     1
    349    352     1
    350    354     1
    350    351     1
    350    352     1
    351    353     1
    352    353     1
    355    371     1
    355    372     1
    355    373     1
    355    374     1
    355    377     1
    355    378     1
    356    369     1
    356    370     1
    356    375     1
    356    376     1
    357    367     1
    357    368     1
    357    375     1
    357    376     1
    358    380     1
    358    795     1
    359    367     1
    359    368     1
    359    793     1
    359    794     1
    360    380     1
    360    821     1
    361    369     1
    361    370     1
    361    819     1
    361    820     1
    362    367     1
    362    368     1
    362    369     1
    362    370     1
    362    379     1
    363    380     1
    364    375     1
    364    376     1
    365    371     1
    365    372     1
    365    795     1
    366    373     1
    366    374     1
    366    821     1
    367    380     1
    367    371     1
    367    372     1
    368    380     1
    368    371     1
    368    372     1
    369    380     1
    369    373     1
    369    374     1
    370    380     1
    370    373     1
    370    374     1
    371    780     1
    372    780     1
    373    806     1
    374    806     1
    375    380     1
    375    377     1
    375    378     1
    376    380     1
    376    377     1
    376    378     1
    377    379     1
    378    379     1
    381    397     1
    381    398     1
    381    399     1
    381    400     1
    381    403     1
    381    404     1
    382    395     1
    382    396     1
    382    401     1
    382    402     1
    383    393     1
    383    394     1
    383    401     1
    383    402     1
    384    406     1
    384    847     1
    385    393     1
    385    394     1
    385    845     1
    385    846     1
    386    406     1
    386    873     1
    387    395     1
    387    396     1
    387    871     1
    387    872     1
    388    393     1
    388    394     1
    388    395     1
    388    396     1
    388    405     1
    389    406     1
    390    401     1
    390    402     1
    391    397     1
    391    398     1
    391    847     1
    392    399     1
    392    400     1
    392    873     1
    393    406     1
    393    397     1
    393    398     1
    394    406     1
    394    397     1
    394    398     1
    395    406     1
    395    399     1
    395    400     1
    396    406     1
    396    399     1
    396    400     1
    397    832     1
    398    832     1
    399    858     1
    400    858     1
    401    406     1
    401    403     1
    401    404     1
    402    406     1
    402    403     1
    402    404     1
    403    405     1
    404    405     1
    407    423     1
    407    424     1
    407    425     1
    407    426     1
    407    429     1
    407    430     1
    408    421     1
    408    422     1
    408    427     1
    408    428     1
    409    419     1
    409    420     1
    409    427     1
    409    428     1
    410    432     1
    410    899     1
    411    419     1
    411    420     1
    411    897     1
    411    898     1
    412    432     1
    412    925     1
    413    421     1
    413    422     1
    413    923     1
    413    924     1
    414    419     1
    414    420     1
    414    421     1
    414    422     1
    414    431     1
    415    432     1
    416    427     1
    416    428     1
    417    423     1
    417    424     1
    417    899     1
    418    425     1
    418    426     1
    418    925     1
    419    432     1
    419    423     1
    419    424     1
    420    432     1
    420    423     1
    420    424     1
    421    432     1
    421    425     1
    421    426     1
    422    432     1
    422    425     1
    422    426     1
    423    884     1
    424    884     1
    425    910     1
    426    910     1
    427    432     1
    427    429     1
    427    430     1
    428    432     1
    428    429     1
    428    430     1
    429    431     1
    430    431     1
    433    449     1
    433    450     1
    433    451     1
    433    452     1
    433    455     1
    433    456     1
    434    447     1
    434    448     1
    434    453     1
    434    454     1
    435    445     1
    435    446     1
    435    453     1
    435    454     1
    436    458     1
    436    951     1
    437    445     1
    437    446     1
    437    949     1
    437    950     1
    438    458     1
    438    977     1
    439    447     1
    439    448     1
    439    975     1
    439    976     1
    440    445     1
    440    446     1
    440    447     1
    440    448     1
    440    457     1
    441    458     1
    442    453     1
    442    454     1
    443    449     1
    443    450     1
    443    951     1
    444    451     1
    444    452     1
    444    977     1
    445    458     1
    445    449     1
    445    450     1
    446    458     1
    446    449     1
    446    450     1
    447    458     1
    447    451     1
    447    452     1
    448    458     1
    448    451     1
    448    452     1
    449    936     1
    450    936     1
    451    962     1
    452    962     1
    453    458     1
    453    455     1
    453    456     1
    454    458     1
    454    455     1
    454    456     1
    455    457     1
    456    457     1
    459    475     1
    459    476     1
    459    477     1
    459    478     1
    459    481     1
    459    482     1
    460    473     1
    460    474     1
    460    479     1
    460    480     1
    461    471     1
    461    472     1
    461    479     1
    461    480     1
    462    484     1
    462   1003     1
    463    471     1
    463    472     1
    463   1001     1
    463   1002     1
    464    484     1
    464   1029     1
    465    473     1
    465    474     1
    465   1027     1
    465   1028     1
    466    471     1
    466    472     1
    466    473     1
    466    474     1
    466    483     1
    467    484     1
    468    479     1
    468    480     1
    469    475     1
    469    476     1
    469   1003     1
    470    477     1
    470    478     1
    470   1029     1
    471    484     1
    471    475     1
    471    476     1
    472    484     1
    472    475     1
    472    476     1
    473    484     1
    473    477     1
    473    478     1
    474    484     1
    474    477     1
    474    478     1
    475    988     1
    476    988     1
    477   1014     1
    478   1014     1
    479    484     1
    479    481     1
    479    482     1
    480    484     1
    480    481     1
    480    482     1
    481    483     1
    482    483     1
    485    501     1
    485    502     1
    485    503     1
    485    504     1
    485    507     1
    485    508     1
    486    499     1
    486    500     1
    486    505     1
    486    506     1
    487    497     1
    487    498     1
    487    505     1
    487    506     1
    488    510     1
    488   1055     1
    489    497     1
    489    498     1
    489   1053     1
    489   1054     1
    490    510     1
    490   1081     1
    491    499     1
    491    500     1
    491   1079     1
    491   1080     1
    492    497     1
    492    498     1
    492    499     1
    492    500     1
    492    509     1
    493    510     1
    494    505     1
    494    506     1
    495    501     1
    495    502     1
    495   1055     1
    496    503     1
    496    504     1
    496   1081     1
    497    510     1
    497    501     1
    497    502     1
    498    510     1
    498    501     1
    498    502     1
    499    510     1
    499    503     1
    499    504     1
    500    510     1
    500    503     1
    500    504     1
    501   1040     1
    502   1040     1
    503   1066     1
    504   1066     1
    505    510     1
    505    507     1
    505    508     1
    506    510     1
    506    507     1
    506    508     1
    507    509     1
    508    509     1
    511    527     1
    511    528     1
    511    529     1
    511    530     1
    511    533     1
    511    534     1
    512    525     1
    512    526     1
    512    531     1
    512    532     1
    513    523     1
    513    524     1
    513    531     1
    513    532     1
    514    536     1
    514   1107     1
    515    523     1
    515    524     1
    515   1105     1
    515   1106     1
    516    536     1
    516   1133     1
    517    525     1
    517    526     1
    517   1131     1
    517   1132     1
    518    523     1
    518    524     1
    518    525     1
    518    526     1
    518    535     1
    519    536     1
    520    531     1
    520    532     1
    521    527     1
    521    528     1
    521   1107     1
    522    529     1
    522    530     1
    522   1133     1
    523    536     1
    523    527     1
    523    528     1
    524    536     1
    524    527     1
    524    528     1
    525    536     1
    525    529     1
    525    530     1
    526    536     1
    526    529     1
    526    530     1
    527   1092     1
    528   1092     1
    529   1118     1
    530   1118     1
    531    536     1
    531    533     1
    531    534     1
    532    536     1
    532    533     1
    532    534     1
    533    535     1
    534    535     1
    537    553     1
    537    554     1
    537    555     1
    537    556     1
    537    559     1
    537    560     1
    538    551     1
    538    552     1
    538    557     1
    538    558     1
    539    549     1
    539    550     1
    539    557     1
    539    558     1
    540    562     1
    540   1159     1
    541    549     1
    541    550     1
    541   1157     1
    541   1158     1
    542    562     1
    542   1185     1
    543    551     1
    543    552     1
    543   1183     1
    543   1184     1
    544    549     1
    544    550     1
    544    551     1
    544    552     1
    544    561     1
    545    562     1
    546    557     1
    546    558     1
    547    553     1
    547    554     1
    547   1159     1
    548    555     1
    548    556     1
    548   1185     1
    549    562     1
    549    553     1
    549    554     1
    550    562     1
    550    553     1
    550    554     1
    551    562     1
    551    555     1
    551    556     1
    552    562     1
    552    555     1
    552    556     1
    553   1144     1
    554   1144     1
    555   1170     1
    556   1170     1
    557    562     1
    557    559     1
    557    560     1
    558    562     1
    558    559     1
    558    560     1
    559    561     1
    560    561     1
    563    579     1
    563    580     1
    563    581     1
    563    582     1
    563    585     1
    563    586     1
    564    577     1
    564    578     1
    564    583     1
    564    584     1
    565    575     1
    565    576     1
    565    583     1
    565    584     1
    566    588     1
    566   1211     1
    567    575     1
    567    576     1
    567   1209     1
    567   1210     1
    568    588     1
    568   1237     1
    569    577     1
    569    578     1
    569   1235     1
    569   1236     1
    570    575     1
    570    576     1
    570    577     1
    570    578     1
    570    587     1
    571    588     1
    572    583     1
    572    584     1
    573    579     1
    573    580     1
    573   1211     1
    574    581     1
    574    582     1
    574   1237     1
    575    588     1
    575    579     1
    575    580     1
    576    588     1
    576    579     1
    576    580     1
    577    588     1
    577    581     1
    577    582     1
    578    588     1
    578    581     1
    578    582     1
    579   1196     1
    580   1196     1
    581   1222     1
    582   1222     1
    583    588     1
    583    585     1
    583    586     1
    584    588     1
    584    585     1
    584    586     1
    585    587     1
    586    587     1
    589    605     1
    589    606     1
    589    607     1
    589    608     1
    589    611     1
    589    612     1
    590    603     1
    590    604     1
    590    609     1
    590    610     1
    591    601     1
    591    602     1
    591    609     1
    591    610     1
    592    614     1
    592   1263     1
    593    601     1
    593    602     1
    593   1261     1
    593   1262     1
    594    614     1
    594   1289     1
    595    603     1
    595    604     1
    595   1287     1
    595   1288     1
    596    601     1
    596    602     1
    596    603     1
    596    604     1
    596    613     1
    597    614     1
    598    609     1
    598    610     1
    599    605     1
    599    606     1
    599   1263     1
    600    607     1
    600    608     1
    600   1289     1
    601    614     1
    601    605     1
    601    606     1
    602    614     1
    602    605     1
    602    606     1
    603    614     1
    603    607     1
    603    608     1
    604    614     1
    604    607     1
    604    608     1
    605   1248     1
    606   1248     1
    607   1274     1
    608   1274     1
    609    614     1
    609    611     1
    609    612     1
    610    614     1
    610    611     1
    610    612     1
    611    613     1
    612    613     1
    615    631     1
    615    632     1
    615    633     1
    615    634     1
    615    637     1
    615    638     1
    616    629     1
    616    630     1
    616    635     1
    616    636     1
    617    627     1
    617    628     1
    617    635     1
    617    636     1
    618    640     1
    618   1315     1
    619    627     1
    619    628     1
    619   1313     1
    619   1314     1
    620    640     1
    620   1341     1
    621    629     1
    621    630     1
    621   1339     1
    621   1340     1
    622    627     1
    622    628     1
    622    629     1
    622    630     1
    622    639     1
    623    640     1
    624    635     1
    624    636     1
    625    631     1
    625    632     1
    625   1315     1
    626    633     1
    626    634     1
    626   1341     1
    627    640     1
    627    631     1
    627    632     1
    628    640     1
    628    631     1
    628    632     1
    629    640     1
    629    633     1
    629    634     1
    630    640     1
    630    633     1
    630    634     1
    631   1300     1
    632   1300     1
    633   1326     1
    634   1326     1
    635    640     1
    635    637     1
    635    638     1
    636    640     1
    636    637     1
    636    638     1
    637    639     1
    638    639     1
    641    657     1
    641    658     1
    641    659     1
    641    660     1
    641    663     1
    641    664     1
    642    655     1
    642    656     1
    642    661     1
    642    662     1
    643    653     1
    643    654     1
    643    661     1
    643    662     1
    644    666     1
    644   1367     1
    645    653     1
    645    654     1
    645   1365     1
    645   1366     1
    646    666     1
    646   1393     1
    647    655     1
    647    656     1
    647   1391     1
    647   1392     1
    648    653     1
    648    654     1
    648    655     1
    648    656     1
    648    665     1
    649    666     1
    650    661     1
    650    662     1
    651    657     1
    651    658     1
    651   1367     1
    652    659     1
    652    660     1
    652   1393     1
    653    666     1
    653    657     1
    653    658     1
    654    666     1
    654    657     1
    654    658     1
    655    666     1
    655    659     1
    655    660     1
    656    666     1
    656    659     1
    656    660     1
    657   1352     1
    658   1352     1
    659   1378     1
    660   1378     1
    661    666     1
    661    663     1
    661    664     1
    662    666     1
    662    663     1
    662    664     1
    663    665     1
    664    665     1
    667    683     1
    667    684     1
    667    685     1
    667    686     1
    667    689     1
    667    690     1
    668    681     1
    668    682     1
    668    687     1
    668    688     1
    669    679     1
    669    680     1
    669    687     1
    669    688     1
    670    692     1
    670   1419     1
    671    679     1
    671    680     1
    671   1417     1
    671   1418     1
    672    692     1
    672   1445     1
    673    681     1
    673    682     1
    673   1443     1
    673   1444     1
    674    679     1
    674    680     1
    674    681     1
    674    682     1
    674    691     1
    675    692     1
    676    687     1
    676    688     1
    677    683     1
    677    684     1
    677   1419     1
    678    685     1
    678    686     1
    678   1445     1
    679    692     1
    679    683     1
    679    684     1
    680    692     1
    680    683     1
    680    684     1
    681    692     1
    681    685     1
    681    686     1
    682    692     1
    682    685     1
    682    686     1
    683   1404     1
    684   1404     1
    685   1430     1
    686   1430     1
    687    692     1
    687    689     1
    687    690     1
    688    692     1
    688    689     1
    688    690     1
    689    691     1
    690    691     1
    693    709     1
    693    710     1
    693    711     1
    693    712     1
    693    715     1
    693    716     1
    694    707     1
    694    708     1
    694    713     1
    694    714     1
    695    705     1
    695    706     1
    695    713     1
    695    714     1
    696    718     1
    696   1471     1
    697    705     1
    697    706     1
    697   1469     1
    697   1470     1
    698    718     1
    698   1497     1
    699    707     1
    699    708     1
    699   1495     1
    699   1496     1
    700    705     1
    700    706     1
    700    707     1
    700    708     1
    700    717     1
    701    718     1
    702    713     1
    702    714     1
    703    709     1
    703    710     1
    703   1471     1
    704    711     1
    704    712     1
    704   1497     1
    705    718     1
    705    709     1
    705    710     1
    706    718     1
    706    709     1
    706    710     1
    707    718     1
    707    711     1
    707    712     1
    708    718     1
    708    711     1
    708    712     1
    709   1456     1
    710   1456     1
    711   1482     1
    712   1482     1
    713    718     1
    713    715     1
    713    716     1
    714    718     1
    714    715     1
    714    716     1
    715    717     1
    716    717     1
    719    735     1
    719    736     1
    719    737     1
    719    738     1
    719    741     1
    719    742     1
    720    733     1
    720    734     1
    720    739     1
    720    740     1
    721    731     1
    721    732     1
    721    739     1
    721    740     1
    722    744     1
    722   1523     1
    723    731     1
    723    732     1
    723   1521     1
    723   1522     1
    724    744     1
    724   1549     1
    725    733     1
    725    734     1
    725   1547     1
    725   1548     1
    726    731     1
    726    732     1
    726    733     1
    726    734     1
    726    743     1
    727    744     1
    728    739     1
    728    740     1
    729    735     1
    729    736     1
    729   1523     1
    730    737     1
    730    738     1
    730   1549     1
    731    744     1
    731    735     1
    731    736     1
    732    744     1
    732    735     1
    732    736     1
    733    744     1
    733    737     1
    733    738     1
    734    744     1
    734    737     1
    734    738     1
    735   1508     1
    736   1508     1
    737   1534     1
    738   1534     1
    739    744     1
    739    741     1
    739    742     1
    740    744     1
    740    741     1
    740    742     1
    741    743     1
    742    743     1
    745    761     1
    745    762     1
    745    763     1
    745    764     1
    745    767     1
    745    768     1
    746    759     1
    746    760     1
    746    765     1
    746    766     1
    747    757     1
    747    758     1
    747    765     1
    747    766     1
    748    770     1
    748   1575     1
    749    757     1
    749    758     1
    749   1573     1
    749   1574     1
    750    770     1
    750   1601     1
    751    759     1
    751    760     1
    751   1599     1
    751   1600     1
    752    757     1
    752    758     1
    752    759     1
    752    760     1
    752    769     1
    753    770     1
    754    765     1
    754    766     1
    755    761     1
    755    762     1
    755   1575     1
    756    763     1
    756    764     1
    756   1601     1
    757    770     1
    757    761     1
    757    762     1
    758    770     1
    758    761     1
    758    762     1
    759    770     1
    759    763     1
    759    764     1
    760    770     1
    760    763     1
    760    764     1
    761   1560     1
    762   1560     1
    763   1586     1
    764   1586     1
    765    770     1
    765    767     1
    765    768     1
    766    770     1
    766    767     1
    766    768     1
    767    769     1
    768    769     1
    771    787     1
    771    788     1
    771    789     1
    771    790     1
    771    793     1
    771    794     1
    772    785     1
    772    786     1
    772    791     1
    772    792     1
    773    783     1
    773    784     1
    773    791     1
    773    792     1
    774    796     1
    774   1627     1
    775    783     1
    775    784     1
    775   1625     1
    775   1626     1
    776    796     1
    776   1653     1
    777    785     1
    777    786     1
    777   1651     1
    777   1652     1
    778    783     1
    778    784     1
    778    785     1
    778    786     1
    778    795     1
    779    796     1
    780    791     1
    780    792     1
    781    787     1
    781    788     1
    781   1627     1
    782    789     1
    782    790     1
    782   1653     1
    783    796     1
    783    787     1
    783    788     1
    784    796     1
    784    787     1
    784    788     1
    785    796     1
    785    789     1
    785    790     1
    786    796     1
    786    789     1
    786    790     1
    787   1612     1
    788   1612     1
    789   1638     1
    790   1638     1
    791    796     1
    791    793     1
    791    794     1
    792    796     1
    792    793     1
    792    794     1
    793    795     1
    794    795     1
    797    813     1
    797    814     1
    797    815     1
    797    816     1
    797    819     1
    797    820     1
    798    811     1
    798    812     1
    798    817     1
    798    818     1
    799    809     1
    799    810     1
    799    817     1
    799    818     1
    800    822     1
    800   1679     1
    801    809     1
    801    810     1
    801   1677     1
    801   1678     1
    802    822     1
    802   1705     1
    803    811     1
    803    812     1
    803   1703     1
    803   1704     1
    804    809     1
    804    810     1
    804    811     1
    804    812     1
    804    821     1
    805    822     1
    806    817     1
    806    818     1
    807    813     1
    807    814     1
    807   1679     1
    808    815     1
    808    816     1
    808   1705     1
    809    822     1
    809    813     1
    809    814     1
    810    822     1
    810    813     1
    810    814     1
    811    822     1
    811    815     1
    811    816     1
    812    822     1
    812    815     1
    812    816     1
    813   1664     1
    814   1664     1
    815   1690     1
    816   1690     1
    817    822     1
    817    819     1
    817    820     1
    818    822     1
    818    819     1
    818    820     1
    819    821     1
    820    821     1
    823    839     1
    823    840     1
    823    841     1
    823    842     1
    823    845     1
    823    846     1
    824    837     1
    824    838     1
    824    843     1
    824    844     1
    825    835     1
    825    836     1
    825    843     1
    825    844     1
    826    848     1
    826   1731     1
    827    835     1
    827    836     1
    827   1729     1
    827   1730     1
    828    848     1
    828   1757     1
    829    837     1
    829    838     1
    829   1755     1
    829   1756     1
    830    835     1
    830    836     1
    830    837     1
    830    838     1
    830    847     1
    831    848     1
    832    843     1
    832    844     1
    833    839     1
    833    840     1
    833   1731     1
    834    841     1
    834    842     1
    834   1757     1
    835    848     1
    835    839     1
    835    840     1
    836    848     1
    836    839     1
    836    840     1
    837    848     1
    837    841     1
    837    842     1
    838    848     1
    838    841     1
    838    842     1
    839   1716     1
    840   1716     1
    841   1742     1
    842   1742     1
    843    848     1
    843    845     1
    843    846     1
    844    848     1
    844    845     1
    844    846     1
    845    847     1
    846    847     1
    849    865     1
    849    866     1
    849    867     1
    849    868     1
    849    871     1
    849    872     1
    850    863     1
    850    864     1
    850    869     1
    850    870     1
    851    861     1
    851    862     1
    851    869     1
    851    870     1
    852    874     1
    852   1783     1
    853    861     1
    853    862     1
    853   1781     1
    853   1782     1
    854    874     1
    854   1809     1
    855    863     1
    855    864     1
    855   1807     1
    855   1808     1
    856    861     1
    856    862     1
    856    863     1
    856    864     1
    856    873     1
    857    874     1
    858    869     1
    858    870     1
    859    865     1
    859    866     1
    859   1783     1
    860    867     1
    860    868     1
    860   1809     1
    861    874     1
    861    865     1
    861    866     1
    862    874     1
    862    865     1
    862    866     1
    863    874     1
    863    867     1
    863    868     1
    864    874     1
    864    867     1
    864    868     1
    865   1768     1
    866   1768     1
    867   1794     1
    868   1794     1
    869    874     1
    869    871     1
    869    872     1
    870    874     1
    870    871     1
    870    872     1
    871    873     1
    872    873     1
    875    891     1
    875    892     1
    875    893     1
    875    894     1
    875    897     1
    875    898     1
    876    889     1
    876    890     1
    876    895     1
    876    896     1
    877    887     1
    877    888     1
    877    895     1
    877    896     1
    878    900     1
    878   1835     1
    879    887     1
    879    888     1
    879   1833     1
    879   1834     1
    880    900     1
    880   1861     1
    881    889     1
    881    890     1
    881   1859     1
    881   1860     1
    882    887     1
    882    888     1
    882    889     1
    882    890     1
    882    899     1
    883    900     1
    884    895     1
    884    896     1
    885    891     1
    885    892     1
    885   1835     1
    886    893     1
    886    894     1
    886   1861     1
    887    900     1
    887    891     1
    887    892     1
    888    900     1
    888    891     1
    888    892     1
    889    900     1
    889    893     1
    889    894     1
    890    900     1
    890    893     1
    890    894     1
    891   1820     1
    892   1820     1
    893   1846     1
    894   1846     1
    895    900     1
    895    897     1
    895    898     1
    896    900     1
    896    897     1
    896    898     1
    897    899     1
    898    899     1
    901    917     1
    901    918     1
    901    919     1
    901    920     1
    901    923     1
    901    924     1
    902    915     1
    902    916     1
    902    921     1
    902    922     1
    903    913     1
    903    914     1
    903    921     1
    903    922     1
    904    926     1
    904   1887     1
    905    913     1
    905    914     1
    905   1885     1
    905   1886     1
    906    926     1
    906   1913     1
    907    915     1
    907    916     1
    907   1911     1
    907   1912     1
    908    913     1
    908    914     1
    908    915     1
    908    916     1
    908    925     1
    909    926     1
    910    921     1
    910    922     1
    911    917     1
    911    918     1
    911   1887     1
    912    919     1
    912    920     1
    912   1913     1
    913    926     1
    913    917     1
    913    918     1
    914    926     1
    914    917     1
    914    918     1
    915    926     1
    915    919     1
    915    920     1
    916    926     1
    916    919     1
    916    920     1
    917   1872     1
    918   1872     1
    919   1898     1
    920   1898     1
    921    926     1
    921    923     1
    921    924     1
    922    926     1
    922    923     1
    922    924     1
    923    925     1
    924    925     1
    927    943     1
    927    944     1
    927    945     1
    927    946     1
    927    949     1
    927    950     1
    928    941     1
    928    942     1
    928    947     1
    928    948     1
    929    939     1
    929    940     1
    929    947     1
    929    948     1
    930    952     1
    930   1939     1
    931    939     1
    931    940     1
    931   1937     1
    931   1938     1
    932    952     1
    932   1965     1
    933    941     1
    933    942     1
    933   1963     1
    933   1964     1
    934    939     1
    934    940     1
    934    941     1
    934    942     1
    934    951     1
    935    952     1
    936    947     1
    936    948     1
    937    943     1
    937    944     1
    937   1939     1
    938    945     1
    938    946     1
    938   1965     1
    939    952     1
    939    943     1
    939    944     1
    940    952     1
    940    943     1
    940    944     1
    941    952     1
    941    945     1
    941    946     1
    942    952     1
    942    945     1
    942    946     1
    943   1924     1
    944   1924     1
    945   1950     1
    946   1950     1
    947    952     1
    947    949     1
    947    950     1
    948    952     1
    948    949     1
    948    950     1
    949    951     1
    950    951     1
    953    969     1
    953    970     1
    953    971     1
    953    972     1
    953    975     1
    953    976     1
    954    967     1
    954    968     1
    954    973     1
    954    974     1
    955    965     1
    955    966     1
    955    973     1
    955    974     1
    956    978     1
    956   1991     1
    957    965     1
    957    966     1
    957   1989     1
    957   1990     1
    958    978     1
    958   2017     1
    959    967     1
    959    968     1
    959   2015     1
    959   2016     1
    960    965     1
    960    966     1
    960    967     1
    960    968     1
    960    977     1
    961    978     1
    962    973     1
    962    974     1
    963    969     1
    963    970     1
    963   1991     1
    964    971     1
    964    972     1
    964   2017     1
    965    978     1
    965    969     1
    965    970     1
    966    978     1
    966    969     1
    966    970     1
    967    978     1
    967    971     1
    967    972     1
    968    978     1
    968    971     1
    968    972     1
    969   1976     1
    970   1976     1
    971   2002     1
    972   2002     1
    973    978     1
    973    975     1
    973    976     1
    974    978     1
    974    975     1
    974    976     1
    975    977     1
    976    977     1
    979    995     1
    979    996     1
    979    997     1
    979    998     1
    979   1001     1
    979   1002     1
    980    993     1
    980    994     1
    980    999     1
    980   1000     1
    981    991     1
    981    992     1
    981    999     1
    981   1000     1
    982   1004     1
    982   2043     1
    983    991     1
    983    992     1
    983   2041     1
    983   2042     1
    984   1004     1
    984   2069     1
    985    993     1
    985    994     1
    985   2067     1
    985   2068     1
    986    991     1
    986    992     1
    986    993     1
    986    994     1
    986   1003     1
    987   1004     1
    988    999     1
    988   1000     1
    989    995     1
    989    996     1
    989   2043     1
    990    997     1
    990    998     1
    990   2069     1
    991   1004     1
    991    995     1
    991    996     1
    992   1004     1
    992    995     1
    992    996     1
    993   1004     1
    993    997     1
    993    998     1
    994   1004     1
    994    997     1
    994    998     1
    995   2028     1
    996   2028     1
    997   2054     1
    998   2054     1
    999   1004     1
    999   1001     1
    999   1002     1
   1000   1004     1
   1000   1001     1
   1000   1002     1
   1001   1003     1
   1002   1003     1
   1005   1021     1
   1005   1022     1
   1005   1023     1
   1005   1024     1
   1005   1027     1
   1005   1028     1
   1006   1019     1
   1006   1020     1
   1006   1025     1
   1006   1026     1
   1007   1017     1
   1007   1018     1
   1007   1025     1
   1007   1026     1
   1008   1030     1
   1008   2095     1
   1009   1017     1
   1009   1018     1
   1009   2093     1
   1009   2094     1
   1010   1030     1
   1010   2121     1
   1011   1019     1
   1011   1020     1
   1011   2119     1
   1011   2120     1
   1012   1017     1
   1012   1018     1
   1012   1019     1
   1012   1020     1
   1012   1029     1
   1013   1030     1
   1014   1025     1
   1014   1026     1
   1015   1021     1
   1015   1022     1
   1015   2095     1
   1016   1023     1
   1016   1024     1
   1016   2121     1
   1017   1030     1
   1017   1021     1
   1017   1022     1
   1018   1030     1
   1018   1021     1
   1018   1022     1
   1019   1030     1
   1019   1023     1
   1019   1024     1
   1020   1030     1
   1020   1023     1
   1020   1024     1
   1021   2080     1
   1022   2080     1
   1023   2106     1
   1024   2106     1
   1025   1030     1
   1025   1027     1
   1025   1028     1
   1026   1030     1
   1026   1027     1
   1026   1028     1
   1027   1029     1
   1028   1029     1
   1031   1047     1
   1031   1048     1
   1031   1049     1
   1031   1050     1
   1031   1053     1
   1031   1054     1
   1032   1045     1
   1032   1046     1
   1032   1051     1
   1032   1052     1
   1033   1043     1
   1033   1044     1
   1033   1051     1
   1033   1052     1
   1034   1056     1
   1034   2147     1
   1035   1043     1
   1035   1044     1
   1035   2145     1
   1035   2146     1
   1036   1056     1
   1036   2173     1
   1037   1045     1
   1037   1046     1
   1037   2171     1
   1037   2172     1
   1038   1043     1
   1038   1044     1
   1038   1045     1
   1038   1046     1
   1038   1055     1
   1039   1056     1
   1040   1051     1
   1040   1052     1
   1041   1047     1
   1041   1048     1
   1041   2147     1
   1042   1049     1
   1042   1050     1
   1042   2173     1
   1043   1056     1
   1043   1047     1
   1043   1048     1
   1044   1056     1
   1044   1047     1
   1044   1048     1
   1045   1056     1
   1045   1049     1
   1045   1050     1
   1046   1056     1
   1046   1049     1
   1046   1050     1
   1047   2132     1
   1048   2132     1
   1049   2158     1
   1050   2158     1
   1051   1056     1
   1051   1053     1
   1051   1054     1
   1052   1056     1
   1052   1053     1
   1052   1054     1
   1053   1055     1
   1054   1055     1
   1057   1073     1
   1057   1074     1
   1057   1075     1
   1057   1076     1
   1057   1079     1
   1057   1080     1
   1058   1071     1
   1058   1072     1
   1058   1077     1
   1058   1078     1
   1059   1069     1
   1059   1070     1
   1059   1077     1
   1059   1078     1
   1060   1082     1
   1060   2199     1
   1061   1069     1
   1061   1070     1
   1061   2197     1
   1061   2198     1
   1062   1082     1
   1062   2225     1
   1063   1071     1
   1063   1072     1
   1063   2223     1
   1063   2224     1
   1064   1069     1
   1064   1070     1
   1064   1071     1
   1064   1072     1
   1064   1081     1
   1065   1082     1
   1066   1077     1
   1066   1078     1
   1067   1073     1
   1067   1074     1
   1067   2199     1
   1068   1075     1
   1068   1076     1
   1068   2225     1
   1069   1082     1
   1069   1073     1
   1069   1074     1
   1070   1082     1
   1070   1073     1
   1070   1074     1
   1071   1082     1
   1071   1075     1
   1071   1076     1
   1072   1082     1
   1072   1075     1
   1072   1076     1
   1073   2184     1
   1074   2184     1
   1075   2210     1
   1076   2210     1
   1077   1082     1
   1077   1079     1
   1077   1080     1
   1078   1082     1
   1078   1079     1
   1078   1080     1
   1079   1081     1
   1080   1081     1
   1083   1099     1
   1083   1100     1
   1083   1101     1
   1083   1102     1
   1083   1105     1
   1083   1106     1
   1084   1097     1
   1084   1098     1
   1084   1103     1
   1084   1104     1
   1085   1095     1
   1085   1096     1
   1085   1103     1
   1085   1104     1
   1086   1108     1
   1086   2251     1
   1087   1095     1
   1087   1096     1
   1087   2249     1
   1087   2250     1
   1088   1108     1
   1088   2277     1
   1089   1097     1
   1089   1098     1
   1089   2275     1
   1089   2276     1
   1090   1095     1
   1090   1096     1
   1090   1097     1
   1090   1098     1
   1090   1107     1
   1091   1108     1
   1092   1103     1
   1092   1104     1
   1093   1099     1
   1093   1100     1
   1093   2251     1
   1094   1101     1
   1094   1102     1
   1094   2277     1
   1095   1108     1
   1095   1099     1
   1095   1100     1
   1096   1108     1
   1096   1099     1
   1096   1100     1
   1097   1108     1
   1097   1101     1
   1097   1102     1
   1098   1108     1
   1098   1101     1
   1098   1102     1
   1099   2236     1
   1100   2236     1
   1101   2262     1
   1102   2262     1
   1103   1108     1
   1103   1105     1
   1103   1106     1
   1104   1108     1
   1104   1105     1
   1104   1106     1
   1105   1107     1
   1106   1107     1
   1109   1125     1
   1109   1126     1
   1109   1127     1
   1109   1128     1
   1109   1131     1
   1109   1132     1
   1110   1123     1
   1110   1124     1
   1110   1129     1
   1110   1130     1
   1111   1121     1
   1111   1122     1
   1111   1129     1
   1111   1130     1
   1112   1134     1
   1112   2303     1
   1113   1121     1
   1113   1122     1
   1113   2301     1
   1113   2302     1
   1114   1134     1
   1114   2329     1
   1115   1123     1
   1115   1124     1
   1115   2327     1
   1115   2328     1
   1116   1121     1
   1116   1122     1
   1116   1123     1
   1116   1124     1
   1116   1133     1
   1117   1134     1
   1118   1129     1
   1118   1130     1
   1119   1125     1
   1119   1126     1
   1119   2303     1
   1120   1127     1
   1120   1128     1
   1120   2329     1
   1121   1134     1
   1121   1125     1
   1121   1126     1
   1122   1134     1
   1122   1125     1
   1122   1126     1
   1123   1134     1
   1123   1127     1
   1123   1128     1
   1124   1134     1
   1124   1127     1
   1124   1128     1
   1125   2288     1
   1126   2288     1
   1127   2314     1
   1128   2314     1
   1129   1134     1
   1129   1131     1
   1129   1132     1
   1130   1134     1
   1130   1131     1
   1130   1132     1
   1131   1133     1
   1132   1133     1
   1135   1151     1
   1135   1152     1
   1135   1153     1
   1135   1154     1
   1135   1157     1
   1135   1158     1
   1136   1149     1
   1136   1150     1
   1136   1155     1
   1136   1156     1
   1137   1147     1
   1137   1148     1
   1137   1155     1
   1137   1156     1
   1138   1160     1
   1138   2355     1
   1139   1147     1
   1139   1148     1
   1139   2353     1
   1139   2354     1
   1140   1160     1
   1140   2381     1
   1141   1149     1
   1141   1150     1
   1141   2379     1
   1141   2380     1
   1142   1147     1
   1142   1148     1
   1142   1149     1
   1142   1150     1
   1142   1159     1
   1143   1160     1
   1144   1155     1
   1144   1156     1
   1145   1151     1
   1145   1152     1
   1145   2355     1
   1146   1153     1
   1146   1154     1
   1146   2381     1
   1147   1160     1
   1147   1151     1
   1147   1152     1
   1148   1160     1
   1148   1151     1
   1148   1152     1
   1149   1160     1
   1149   1153     1
   1149   1154     1
   1150   1160     1
   1150   1153     1
   1150   1154     1
   1151   2340     1
   1152   2340     1
   1153   2366     1
   1154   2366     1
   1155   1160     1
   1155   1157     1
   1155   1158     1
   1156   1160     1
   1156   1157     1
   1156   1158     1
   1157   1159     1
   1158   1159     1
   1161   1177     1
   1161   1178     1
   1161   1179     1
   1161   1180     1
   1161   1183     1
   1161   1184     1
   1162   1175     1
   1162   1176     1
   1162   1181     1
   1162   1182     1
   1163   1173     1
   1163   1174     1
   1163   1181     1
   1163   1182     1
   1164   1186     1
   1164   2407     1
   1165   1173     1
   1165   1174     1
   1165   2405     1
   1165   2406     1
   1166   1186     1
   1166   2433     1
   1167   1175     1
   1167   1176     1
   1167   2431     1
   1167   2432     1
   1168   1173     1
   1168   1174     1
   1168   1175     1
   1168   1176     1
   1168   1185     1
   1169   1186     1
   1170   1181     1
   1170   1182     1
   1171   1177     1
   1171   1178     1
   1171   2407     1
   1172   1179     1
   1172   1180     1
   1172   2433     1
   1173   1186     1
   1173   1177     1
   1173   1178     1
   1174   1186     1
   1174   1177     1
   1174   1178     1
   1175   1186     1
   1175   1179     1
   1175   1180     1
   1176   1186     1
   1176   1179     1
   1176   1180     1
   1177   2392     1
   1178   2392     1
   1179   2418     1
   1180   2418     1
   1181   1186     1
   1181   1183     1
   1181   1184     1
   1182   1186     1
   1182   1183     1
   1182   1184     1
   1183   1185     1
   1184   1185     1
   1187   1203     1
   1187   1204     1
   1187   1205     1
   1187   1206     1
   1187   1209     1
   1187   1210     1
   1188   1201     1
   1188   1202     1
   1188   1207     1
   1188   1208     1
   1189   1199     1
   1189   1200     1
   1189   1207     1
   1189   1208     1
   1190   1212     1
   1190   2459     1
   1191   1199     1
   1191   1200     1
   1191   2457     1
   1191   2458     1
   1192   1212     1
   1192   2485     1
   1193   1201     1
   1193   1202     1
   1193   2483     1
   1193   2484     1
   1194   1199     1
   1194   1200     1
   1194   1201     1
   1194   1202     1
   1194   1211     1
   1195   1212     1
   1196   1207     1
   1196   1208     1
   1197   1203     1
   1197   1204     1
   1197   2459     1
   1198   1205     1
   1198   1206     1
   1198   2485     1
   1199   1212     1
   1199   1203     1
   1199   1204     1
   1200   1212     1
   1200   1203     1
   1200   1204     1
   1201   1212     1
   1201   1205     1
   1201   1206     1
   1202   1212     1
   1202   1205     1
   1202   1206     1
   1203   2444     1
   1204   2444     1
   1205   2470     1
   1206   2470     1
   1207   1212     1
   1207   1209     1
   1207   1210     1
   1208   1212     1
   1208   1209     1
   1208   1210     1
   1209   1211     1
   1210   1211     1
   1213   1229     1
   1213   1230     1
   1213   1231     1
   1213   1232     1
   1213   1235     1
   1213   1236     1
   1214   1227     1
   1214   1228     1
   1214   1233     1
   1214   1234     1
   1215   1225     1
   1215   1226     1
   1215   1233     1
   1215   1234     1
   1216   1238     1
   1216   2511     1
   1217   1225     1
   1217   1226     1
   1217   2509     1
   1217   2510     1
   1218   1238     1
   1218   2537     1
   1219   1227     1
   1219   1228     1
   1219   2535     1
   1219   2536     1
   1220   1225     1
   1220   1226     1
   1220   1227     1
   1220   1228     1
   1220   1237     1
   1221   1238     1
   1222   1233     1
   1222   1234     1
   1223   1229     1
   1223   1230     1
   1223   2511     1
   1224   1231     1
   1224   1232     1
   1224   2537     1
   1225   1238     1
   1225   1229     1
   1225   1230     1
   1226   1238     1
   1226   1229     1
   1226   1230     1
   1227   1238     1
   1227   1231     1
   1227   1232     1
   1228   1238     1
   1228   1231     1
   1228   1232     1
   1229   2496     1
   1230   2496     1
   1231   2522     1
   1232   2522     1
   1233   1238     1
   1233   1235     1
   1233   1236     1
   1234   1238     1
   1234   1235     1
   1234   1236     1
   1235   1237     1
   1236   1237     1
   1239   1255     1
   1239   1256     1
   1239   1257     1
   1239   1258     1
   1239   1261     1
   1239   1262     1
   1240   1253     1
   1240   1254     1
   1240   1259     1
   1240   1260     1
   1241   1251     1
   1241   1252     1
   1241   1259     1
   1241   1260     1
   1242   1264     1
   1242   2563     1
   1243   1251     1
   1243   1252     1
   1243   2561     1
   1243   2562     1
   1244   1264     1
   1244   2589     1
   1245   1253     1
   1245   1254     1
   1245   2587     1
   1245   2588     1
   1246   1251     1
   1246   1252     1
   1246   1253     1
   1246   1254     1
   1246   1263     1
   1247   1264     1
   1248   1259     1
   1248   1260     1
   1249   1255     1
   1249   1256     1
   1249   2563     1
   1250   1257     1
   1250   1258     1
   1250   2589     1
   1251   1264     1
   1251   1255     1
   1251   1256     1
   1252   1264     1
   1252   1255     1
   1252   1256     1
   1253   1264     1
   1253   1257     1
   1253   1258     1
   1254   1264     1
   1254   1257     1
   1254   1258     1
   1255   2548     1
   1256   2548     1
   1257   2574     1
   1258   2574     1
   1259   1264     1
   1259   1261     1
   1259   1262     1
   1260   1264     1
   1260   1261     1
   1260   1262     1
   1261   1263     1
   1262   1263     1
   1265   1281     1
   1265   1282     1
   1265   1283     1
   1265   1284     1
   1265   1287     1
   1265   1288     1
   1266   1279     1
   1266   1280     1
   1266   1285     1
   1266   1286     1
   1267   1277     1
   1267   1278     1
   1267   1285     1
   1267   1286     1
   1268   1290     1
   1268   2615     1
   1269   1277     1
   1269   1278     1
   1269   2613     1
   1269   2614     1
   1270   1290     1
   1270   2641     1
   1271   1279     1
   1271   1280     1
   1271   2639     1
   1271   2640     1
   1272   1277     1
   1272   1278     1
   1272   1279     1
   1272   1280     1
   1272   1289     1
   1273   1290     1
   1274   1285     1
   1274   1286     1
   1275   1281     1
   1275   1282     1
   1275   2615     1
   1276   1283     1
   1276   1284     1
   1276   2641     1
   1277   1290     1
   1277   1281     1
   1277   1282     1
   1278   1290     1
   1278   1281     1
   1278   1282     1
   1279   1290     1
   1279   1283     1
   1279   1284     1
   1280   1290     1
   1280   1283     1
   1280   1284     1
   1281   2600     1
   1282   2600     1
   1283   2626     1
   1284   2626     1
   1285   1290     1
   1285   1287     1
   1285   1288     1
   1286   1290     1
   1286   1287     1
   1286   1288     1
   1287   1289     1
   1288   1289     1
   1291   1307     1
   1291   1308     1
   1291   1309     1
   1291   1310     1
   1291   1313     1
   1291   1314     1
   1292   1305     1
   1292   1306     1
   1292   1311     1
   1292   1312     1
   1293   1303     1
   1293   1304     1
   1293   1311     1
   1293   1312     1
   1294   1316     1
   1294   2667     1
   1295   1303     1
   1295   1304     1
   1295   2665     1
   1295   2666     1
   1296   1316     1
   1296   2693     1
   1297   1305     1
   1297   1306     1
   1297   2691     1
   1297   2692     1
   1298   1303     1
   1298   1304     1
   1298   1305     1
   1298   1306     1
   1298   1315     1
   1299   1316     1
   1300   1311     1
   1300   1312     1
   1301   1307     1
   1301   1308     1
   1301   2667     1
   1302   1309     1
   1302   1310     1
   1302   2693     1
   1303   1316     1
   1303   1307     1
   1303   1308     1
   1304   1316     1
   1304   1307     1
   1304   1308     1
   1305   1316     1
   1305   1309     1
   1305   1310     1
   1306   1316     1
   1306   1309     1
   1306   1310     1
   1307   2652     1
   1308   2652     1
   1309   2678     1
   1310   2678     1
   1311   1316     1
   1311   1313     1
   1311   1314     1
   1312   1316     1
   1312   1313     1
   1312   1314     1
   1313   1315     1
   1314   1315     1
   1317   1333     1
   1317   1334     1
   1317   1335     1
   1317   1336     1
   1317   1339     1
   1317   1340     1
   1318   1331     1
   1318   1332     1
   1318   1337     1
   1318   1338     1
   1319   1329     1
   1319   1330     1
   1319   1337     1
   1319   1338     1
   1320   1342     1
   1320   2719     1
   1321   1329     1
   1321   1330     1
   1321   2717     1
   1321   2718     1
   1322   1342     1
   1322   2745     1
   1323   1331     1
   1323   1332     1
   1323   2743     1
   1323   2744     1
   1324   1329     1
   1324   1330     1
   1324   1331     1
   1324   1332     1
   1324   1341     1
   1325   1342     1
   1326   1337     1
   1326   1338     1
   1327   1333     1
   1327   1334     1
   1327   2719     1
   1328   1335     1
   1328   1336     1
   1328   2745     1
   1329   1342     1
   1329   1333     1
   1329   1334     1
   1330   1342     1
   1330   1333     1
   1330   1334     1
   1331   1342     1
   1331   1335     1
   1331   1336     1
   1332   1342     1
   1332   1335     1
   1332   1336     1
   1333   2704     1
   1334   2704     1
   1335   2730     1
   1336   2730     1
   1337   1342     1
   1337   1339     1
   1337   1340     1
   1338   1342     1
   1338   1339     1
   1338   1340     1
   1339   1341     1
   1340   1341     1
   1343   1359     1
   1343   1360     1
   1343   1361     1
   1343   1362     1
   1343   1365     1
   1343   1366     1
   1344   1357     1
   1344   1358     1
   1344   1363     1
   1344   1364     1
   1345   1355     1
   1345   1356     1
   1345   1363     1
   1345   1364     1
   1346   1368     1
   1346   2771     1
   1347   1355     1
   1347   1356     1
   1347   2769     1
   1347   2770     1
   1348   1368     1
   1348   2797     1
   1349   1357     1
   1349   1358     1
   1349   2795     1
   1349   2796     1
   1350   1355     1
   1350   1356     1
   1350   1357     1
   1350   1358     1
   1350   1367     1
   1351   1368     1
   1352   1363     1
   1352   1364     1
   1353   1359     1
   1353   1360     1
   1353   2771     1
   1354   1361     1
   1354   1362     1
   1354   2797     1
   1355   1368     1
   1355   1359     1
   1355   1360     1
   1356   1368     1
   1356   1359     1
   1356   1360     1
   1357   1368     1
   1357   1361     1
   1357   1362     1
   1358   1368     1
   1358   1361     1
   1358   1362     1
   1359   2756     1
   1360   2756     1
   1361   2782     1
   1362   2782     1
   1363   1368     1
   1363   1365     1
   1363   1366     1
   1364   1368     1
   1364   1365     1
   1364   1366     1
   1365   1367     1
   1366   1367     1
   1369   1385     1
   1369   1386     1
   1369   1387     1
   1369   1388     1
   1369   1391     1
   1369   1392     1
   1370   1383     1
   1370   1384     1
   1370   1389     1
   1370   1390     1
   1371   1381     1
   1371   1382     1
   1371   1389     1
   1371   1390     1
   1372   1394     1
   1372   2823     1
   1373   1381     1
   1373   1382     1
   1373   2821     1
   1373   2822     1
   1374   1394     1
   1374   2849     1
   1375   1383     1
   1375   1384     1
   1375   2847     1
   1375   2848     1
   1376   1381     1
   1376   1382     1
   1376   1383     1
   1376   1384     1
   1376   1393     1
   1377   1394     1
   1378   1389     1
   1378   1390     1
   1379   1385     1
   1379   1386     1
   1379   2823     1
   1380   1387     1
   1380   1388     1
   1380   2849     1
   1381   1394     1
   1381   1385     1
   1381   1386     1
   1382   1394     1
   1382   1385     1
   1382   1386     1
   1383   1394     1
   1383   1387     1
   1383   1388     1
   1384   1394     1
   1384   1387     1
   1384   1388     1
   1385   2808     1
   1386   2808     1
   1387   2834     1
   1388   2834     1
   1389   1394     1
   1389   1391     1
   1389   1392     1
   1390   1394     1
   1390   1391     1
   1390   1392     1
   1391   1393     1
   1392   1393     1
   1395   1411     1
   1395   1412     1
   1395   1413     1
   1395   1414     1
   1395   1417     1
   1395   1418     1
   1396   1409     1
   1396   1410     1
   1396   1415     1
   1396   1416     1
   1397   1407     1
   1397   1408     1
   1397   1415     1
   1397   1416     1
   1398   1420     1
   1398   2875     1
   1399   1407     1
   1399   1408     1
   1399   2873     1
   1399   2874     1
   1400   1420     1
   1400   2901     1
   1401   1409     1
   1401   1410     1
   1401   2899     1
   1401   2900     1
   1402   1407     1
   1402   1408     1
   1402   1409     1
   1402   1410     1
   1402   1419     1
   1403   1420     1
   1404   1415     1
   1404   1416     1
   1405   1411     1
   1405   1412     1
   1405   2875     1
   1406   1413     1
   1406   1414     1
   1406   2901     1
   1407   1420     1
   1407   1411     1
   1407   1412     1
   1408   1420     1
   1408   1411     1
   1408   1412     1
   1409   1420     1
   1409   1413     1
   1409   1414     1
   1410   1420     1
   1410   1413     1
   1410   1414     1
   1411   2860     1
   1412   2860     1
   1413   2886     1
   1414   2886     1
   1415   1420     1
   1415   1417     1
   1415   1418     1
   1416   1420     1
   1416   1417     1
   1416   1418     1
   1417   1419     1
   1418   1419     1
   1421   1437     1
   1421   1438     1
   1421   1439     1
   1421   1440     1
   1421   1443     1
   1421   1444     1
   1422   1435     1
   1422   1436     1
   1422   1441     1
   1422   1442     1
   1423   1433     1
   1423   1434     1
   1423   1441     1
   1423   1442     1
   1424   1446     1
   1424   2927     1
   1425   1433     1
   1425   1434     1
   1425   2925     1
   1425   2926     1
   1426   1446     1
   1426   2953     1
   1427   1435     1
   1427   1436     1
   1427   2951     1
   1427   2952     1
   1428   1433     1
   1428   1434     1
   1428   1435     1
   1428   1436     1
   1428   1445     1
   1429   1446     1
   1430   1441     1
   1430   1442     1
   1431   1437     1
   1431   1438     1
   1431   2927     1
   1432   1439     1
   1432   1440     1
   1432   2953     1
   1433   1446     1
   1433   1437     1
   1433   1438     1
   1434   1446     1
   1434   1437     1
   1434   1438     1
   1435   1446     1
   1435   1439     1
   1435   1440     1
   1436   1446     1
   1436   1439     1
   1436   1440     1
   1437   2912     1
   1438   2912     1
   1439   2938     1
   1440   2938     1
   1441   1446     1
   1441   1443     1
   1441   1444     1
   1442   1446     1
   1442   1443     1
   1442   1444     1
   1443   1445     1
   1444   1445     1
   1447   1463     1
   1447   1464     1
   1447   1465     1
   1447   1466     1
   1447   1469     1
   1447   1470     1
   1448   1461     1
   1448   1462     1
   1448   1467     1
   1448   1468     1
   1449   1459     1
   1449   1460     1
   1449   1467     1
   1449   1468     1
   1450   1472     1
   1450   2979     1
   1451   1459     1
   1451   1460     1
   1451   2977     1
   1451   2978     1
   1452   1472     1
   1452   3005     1
   1453   1461     1
   1453   1462     1
   1453   3003     1
   1453   3004     1
   1454   1459     1
   1454   1460     1
   1454   1461     1
   1454   1462     1
   1454   1471     1
   1455   1472     1
   1456   1467     1
   1456   1468     1
   1457   1463     1
   1457   1464     1
   1457   2979     1
   1458   1465     1
   1458   1466     1
   1458   3005     1
   1459   1472     1
   1459   1463     1
   1459   1464     1
   1460   1472     1
   1460   1463     1
   1460   1464     1
   1461   1472     1
   1461   1465     1
   1461   1466     1
   1462   1472     1
   1462   1465     1
   1462   1466     1
   1463   2964     1
   1464   2964     1
   1465   2990     1
   1466   2990     1
   1467   1472     1
   1467   1469     1
   1467   1470     1
   1468   1472     1
   1468   1469     1
   1468   1470     1
   1469   1471     1
   1470   1471     1
   1473   1489     1
   1473   1490     1
   1473   1491     1
   1473   1492     1
   1473   1495     1
   1473   1496     1
   1474   1487     1
   1474   1488     1
   1474   1493     1
   1474   1494     1
   1475   1485     1
   1475   1486     1
   1475   1493     1
   1475   1494     1
   1476   1498     1
   1476   3031     1
   1477   1485     1
   1477   1486     1
   1477   3029     1
   1477   3030     1
   1478   1498     1
   1478   3057     1
   1479   1487     1
   1479   1488     1
   1479   3055     1
   1479   3056     1
   1480   1485     1
   1480   1486     1
   1480   1487     1
   1480   1488     1
   1480   1497     1
   1481   1498     1
   1482   1493     1
   1482   1494     1
   1483   1489     1
   1483   1490     1
   1483   3031     1
   1484   1491     1
   1484   1492     1
   1484   3057     1
   1485   1498     1
   1485   1489     1
   1485   1490     1
   1486   1498     1
   1486   1489     1
   1486   1490     1
   1487   1498     1
   1487   1491     1
   1487   1492     1
   1488   1498     1
   1488   1491     1
   1488   1492     1
   1489   3016     1
   1490   3016     1
   1491   3042     1
   1492   3042     1
   1493   1498     1
   1493   1495     1
   1493   1496     1
   1494   1498     1
   1494   1495     1
   1494   1496     1
   1495   1497     1
   1496   1497     1
   1499   1515     1
   1499   1516     1
   1499   1517     1
   1499   1518     1
   1499   1521     1
   1499   1522     1
   1500   1513     1
   1500   1514     1
   1500   1519     1
   1500   1520     1
   1501   1511     1
   1501   1512     1
   1501   1519     1
   1501   1520     1
   1502   1524     1
   1502   3083     1
   1503   1511     1
   1503   1512     1
   1503   3081     1
   1503   3082     1
   1504   1524     1
   1504   3109     1
   1505   1513     1
   1505   1514     1
   1505   3107     1
   1505   3108     1
   1506   1511     1
   1506   1512     1
   1506   1513     1
   1506   1514     1
   1506   1523     1
   1507   1524     1
   1508   1519     1
   1508   1520     1
   1509   1515     1
   1509   1516     1
   1509   3083     1
   1510   1517     1
   1510   1518     1
   1510   3109     1
   1511   1524     1
   1511   1515     1
   1511   1516     1
   1512   1524     1
   1512   1515     1
   1512   1516     1
   1513   1524     1
   1513   1517     1
   1513   1518     1
   1514   1524     1
   1514   1517     1
   1514   1518     1
   1515   3068     1
   1516   3068     1
   1517   3094     1
   1518   3094     1
   1519   1524     1
   1519   1521     1
   1519   1522     1
   1520   1524     1
   1520   1521     1
   1520   1522     1
   1521   1523     1
   1522   1523     1
   1525   1541     1
   1525   1542     1
   1525   1543     1
   1525   1544     1
   1525   1547     1
   1525   1548     1
   1526   1539     1
   1526   1540     1
   1526   1545     1
   1526   1546     1
   1527   1537     1
   1527   1538     1
   1527   1545     1
   1527   1546     1
   1528   1550     1
   1528   3135     1
   1529   1537     1
   1529   1538     1
   1529   3133     1
   1529   3134     1
   1530   1550     1
   1530   3161     1
   1531   1539     1
   1531   1540     1
   1531   3159     1
   1531   3160     1
   1532   1537     1
   1532   1538     1
   1532   1539     1
   1532   1540     1
   1532   1549     1
   1533   1550     1
   1534   1545     1
   1534   1546     1
   1535   1541     1
   1535   1542     1
   1535   3135     1
   1536   1543     1
   1536   1544     1
   1536   3161     1
   1537   1550     1
   1537   1541     1
   1537   1542     1
   1538   1550     1
   1538   1541     1
   1538   1542     1
   1539   1550     1
   1539   1543     1
   1539   1544     1
   1540   1550     1
   1540   1543     1
   1540   1544     1
   1541   3120     1
   1542   3120     1
   1543   3146     1
   1544   3146     1
   1545   1550     1
   1545   1547     1
   1545   1548     1
   1546   1550     1
   1546   1547     1
   1546   1548     1
   1547   1549     1
   1548   1549     1
   1551   1567     1
   1551   1568     1
   1551   1569     1
   1551   1570     1
   1551   1573     1
   1551   1574     1
   1552   1565     1
   1552   1566     1
   1552   1571     1
   1552   1572     1
   1553   1563     1
   1553   1564     1
   1553   1571     1
   1553   1572     1
   1554   1576     1
   1554   3187     1
   1555   1563     1
   1555   1564     1
   1555   3185     1
   1555   3186     1
   1556   1576     1
   1556   3213     1
   1557   1565     1
   1557   1566     1
   1557   3211     1
   1557   3212     1
   1558   1563     1
   1558   1564     1
   1558   1565     1
   1558   1566     1
   1558   1575     1
   1559   1576     1
   1560   1571     1
   1560   1572     1
   1561   1567     1
   1561   1568     1
   1561   3187     1
   1562   1569     1
   1562   1570     1
   1562   3213     1
   1563   1576     1
   1563   1567     1
   1563   1568     1
   1564   1576     1
   1564   1567     1
   1564   1568     1
   1565   1576     1
   1565   1569     1
   1565   1570     1
   1566   1576     1
   1566   1569     1
   1566   1570     1
   1567   3172     1
   1568   3172     1
   1569   3198     1
   1570   3198     1
   1571   1576     1
   1571   1573     1
   1571   1574     1
   1572   1576     1
   1572   1573     1
   1572   1574     1
   1573   1575     1
   1574   1575     1
   1577   1593     1
   1577   1594     1
   1577   1595     1
   1577   1596     1
   1577   1599     1
   1577   1600     1
   1578   1591     1
   1578   1592     1
   1578   1597     1
   1578   1598     1
   1579   1589     1
   1579   1590     1
   1579   1597     1
   1579   1598     1
   1580   1602     1
   1580   3239     1
   1581   1589     1
   1581   1590     1
   1581   3237     1
   1581   3238     1
   1582   1602     1
   1582   3265     1
   1583   1591     1
   1583   1592     1
   1583   3263     1
   1583   3264     1
   1584   1589     1
   1584   1590     1
   1584   1591     1
   1584   1592     1
   1584   1601     1
   1585   1602     1
   1586   1597     1
   1586   1598     1
   1587   1593     1
   1587   1594     1
   1587   3239     1
   1588   1595     1
   1588   1596     1
   1588   3265     1
   1589   1602     1
   1589   1593     1
   1589   1594     1
   1590   1602     1
   1590   1593     1
   1590   1594     1
   1591   1602     1
   1591   1595     1
   1591   1596     1
   1592   1602     1
   1592   1595     1
   1592   1596     1
   1593   3224     1
   1594   3224     1
   1595   3250     1
   1596   3250     1
   1597   1602     1
   1597   1599     1
   1597   1600     1
   1598   1602     1
   1598   1599     1
   1598   1600     1
   1599   1601     1
   1600   1601     1
   1603   1619     1
   1603   1620     1
   1603   1621     1
   1603   1622     1
   1603   1625     1
   1603   1626     1
   1604   1617     1
   1604   1618     1
   1604   1623     1
   1604   1624     1
   1605   1615     1
   1605   1616     1
   1605   1623     1
   1605   1624     1
   1606   1628     1
   1606   3268     1
   1607   1615     1
   1607   1616     1
   1607   3271     1
   1607   3272     1
   1608   1628     1
   1608   3280     1
   1609   1617     1
   1609   1618     1
   1609   3283     1
   1609   3284     1
   1610   1615     1
   1610   1616     1
   1610   1617     1
   1610   1618     1
   1610   1627     1
   1611   1628     1
   1612   1623     1
   1612   1624     1
   1613   1619     1
   1613   1620     1
   1613   3268     1
   1614   1621     1
   1614   1622     1
   1614   3280     1
   1615   1628     1
   1615   1619     1
   1615   1620     1
   1616   1628     1
   1616   1619     1
   1616   1620     1
   1617   1628     1
   1617   1621     1
   1617   1622     1
   1618   1628     1
   1618   1621     1
   1618   1622     1
   1619   3267     1
   1620   3267     1
   1621   3279     1
   1622   3279     1
   1623   1628     1
   1623   1625     1
   1623   1626     1
   1624   1628     1
   1624   1625     1
   1624   1626     1
   1625   1627     1
   1626   1627     1
   1629   1645     1
   1629   1646     1
   1629   1647     1
   1629   1648     1
   1629   1651     1
   1629   1652     1
   1630   1643     1
   1630   1644     1
   1630   1649     1
   1630   1650     1
   1631   1641     1
   1631   1642     1
   1631   1649     1
   1631   1650     1
   1632   1654     1
   1632   3292     1
   1633   1641     1
   1633   1642     1
   1633   3295     1
   1633   3296     1
   1634   1654     1
   1634   3304     1
   1635   1643     1
   1635   1644     1
   1635   3307     1
   1635   3308     1
   1636   1641     1
   1636   1642     1
   1636   1643     1
   1636   1644     1
   1636   1653     1
   1637   1654     1
   1638   1649     1
   1638   1650     1
   1639   1645     1
   1639   1646     1
   1639   3292     1
   1640   1647     1
   1640   1648     1
   1640   3304     1
   1641   1654     1
   1641   1645     1
   1641   1646     1
   1642   1654     1
   1642   1645     1
   1642   1646     1
   1643   1654     1
   1643   1647     1
   1643   1648     1
   1644   1654     1
   1644   1647     1
   1644   1648     1
   1645   3291     1
   1646   3291     1
   1647   3303     1
   1648   3303     1
   1649   1654     1
   1649   1651     1
   1649   1652     1
   1650   1654     1
   1650   1651     1
   1650   1652     1
   1651   1653     1
   1652   1653     1
   1655   1671     1
   1655   1672     1
   1655   1673     1
   1655   1674     1
   1655   1677     1
   1655   1678     1
   1656   1669     1
   1656   1670     1
   1656   1675     1
   1656   1676     1
   1657   1667     1
   1657   1668     1
   1657   1675     1
   1657   1676     1
   1658   1680     1
   1658   3316     1
   1659   1667     1
   1659   1668     1
   1659   3319     1
   1659   3320     1
   1660   1680     1
   1660   3328     1
   1661   1669     1
   1661   1670     1
   1661   3331     1
   1661   3332     1
   1662   1667     1
   1662   1668     1
   1662   1669     1
   1662   1670     1
   1662   1679     1
   1663   1680     1
   1664   1675     1
   1664   1676     1
   1665   1671     1
   1665   1672     1
   1665   3316     1
   1666   1673     1
   1666   1674     1
   1666   3328     1
   1667   1680     1
   1667   1671     1
   1667   1672     1
   1668   1680     1
   1668   1671     1
   1668   1672     1
   1669   1680     1
   1669   1673     1
   1669   1674     1
   1670   1680     1
   1670   1673     1
   1670   1674     1
   1671   3315     1
   1672   3315     1
   1673   3327     1
   1674   3327     1
   1675   1680     1
   1675   1677     1
   1675   1678     1
   1676   1680     1
   1676   1677     1
   1676   1678     1
   1677   1679     1
   1678   1679     1
   1681   1697     1
   1681   1698     1
   1681   1699     1
   1681   1700     1
   1681   1703     1
   1681   1704     1
   1682   1695     1
   1682   1696     1
   1682   1701     1
   1682   1702     1
   1683   1693     1
   1683   1694     1
   1683   1701     1
   1683   1702     1
   1684   1706     1
   1684   3340     1
   1685   1693     1
   1685   1694     1
   1685   3343     1
   1685   3344     1
   1686   1706     1
   1686   3352     1
   1687   1695     1
   1687   1696     1
   1687   3355     1
   1687   3356     1
   1688   1693     1
   1688   1694     1
   1688   1695     1
   1688   1696     1
   1688   1705     1
   1689   1706     1
   1690   1701     1
   1690   1702     1
   1691   1697     1
   1691   1698     1
   1691   3340     1
   1692   1699     1
   1692   1700     1
   1692   3352     1
   1693   1706     1
   1693   1697     1
   1693   1698     1
   1694   1706     1
   1694   1697     1
   1694   1698     1
   1695   1706     1
   1695   1699     1
   1695   1700     1
   1696   1706     1
   1696   1699     1
   1696   1700     1
   1697   3339     1
   1698   3339     1
   1699   3351     1
   1700   3351     1
   1701   1706     1
   1701   1703     1
   1701   1704     1
   1702   1706     1
   1702   1703     1
   1702   1704     1
   1703   1705     1
   1704   1705     1
   1707   1723     1
   1707   1724     1
   1707   1725     1
   1707   1726     1
   1707   1729     1
   1707   1730     1
   1708   1721     1
   1708   1722     1
   1708   1727     1
   1708   1728     1
   1709   1719     1
   1709   1720     1
   1709   1727     1
   1709   1728     1
   1710   1732     1
   1710   3364     1
   1711   1719     1
   1711   1720     1
   1711   3367     1
   1711   3368     1
   1712   1732     1
   1712   3376     1
   1713   1721     1
   1713   1722     1
   1713   3379     1
   1713   3380     1
   1714   1719     1
   1714   1720     1
   1714   1721     1
   1714   1722     1
   1714   1731     1
   1715   1732     1
   1716   1727     1
   1716   1728     1
   1717   1723     1
   1717   1724     1
   1717   3364     1
   1718   1725     1
   1718   1726     1
   1718   3376     1
   1719   1732     1
   1719   1723     1
   1719   1724     1
   1720   1732     1
   1720   1723     1
   1720   1724     1
   1721   1732     1
   1721   1725     1
   1721   1726     1
   1722   1732     1
   1722   1725     1
   1722   1726     1
   1723   3363     1
   1724   3363     1
   1725   3375     1
   1726   3375     1
   1727   1732     1
   1727   1729     1
   1727   1730     1
   1728   1732     1
   1728   1729     1
   1728   1730     1
   1729   1731     1
   1730   1731     1
   1733   1749     1
   1733   1750     1
   1733   1751     1
   1733   1752     1
   1733   1755     1
   1733   1756     1
   1734   1747     1
   1734   1748     1
   1734   1753     1
   1734   1754     1
   1735   1745     1
   1735   1746     1
   1735   1753     1
   1735   1754     1
   1736   1758     1
   1736   3388     1
   1737   1745     1
   1737   1746     1
   1737   3391     1
   1737   3392     1
   1738   1758     1
   1738   3400     1
   1739   1747     1
   1739   1748     1
   1739   3403     1
   1739   3404     1
   1740   1745     1
   1740   1746     1
   1740   1747     1
   1740   1748     1
   1740   1757     1
   1741   1758     1
   1742   1753     1
   1742   1754     1
   1743   1749     1
   1743   1750     1
   1743   3388     1
   1744   1751     1
   1744   1752     1
   1744   3400     1
   1745   1758     1
   1745   1749     1
   1745   1750     1
   1746   1758     1
   1746   1749     1
   1746   1750     1
   1747   1758     1
   1747   1751     1
   1747   1752     1
   1748   1758     1
   1748   1751     1
   1748   1752     1
   1749   3387     1
   1750   3387     1
   1751   3399     1
   1752   3399     1
   1753   1758     1
   1753   1755     1
   1753   1756     1
   1754   1758     1
   1754   1755     1
   1754   1756     1
   1755   1757     1
   1756   1757     1
   1759   1775     1
   1759   1776     1
   1759   1777     1
   1759   1778     1
   1759   1781     1
   1759   1782     1
   1760   1773     1
   1760   1774     1
   1760   1779     1
   1760   1780     1
   1761   1771     1
   1761   1772     1
   1761   1779     1
   1761   1780     1
   1762   1784     1
   1762   3412     1
   1763   1771     1
   1763   1772     1
   1763   3415     1
   1763   3416     1
   1764   1784     1
   1764   3424     1
   1765   1773     1
   1765   1774     1
   1765   3427     1
   1765   3428     1
   1766   1771     1
   1766   1772     1
   1766   1773     1
   1766   1774     1
   1766   1783     1
   1767   1784     1
   1768   1779     1
   1768   1780     1
   1769   1775     1
   1769   1776     1
   1769   3412     1
   1770   1777     1
   1770   1778     1
   1770   3424     1
   1771   1784     1
   1771   1775     1
   1771   1776     1
   1772   1784     1
   1772   1775     1
   1772   1776     1
   1773   1784     1
   1773   1777     1
   1773   1778     1
   1774   1784     1
   1774   1777     1
   1774   1778     1
   1775   3411     1
   1776   3411     1
   1777   3423     1
   1778   3423     1
   1779   1784     1
   1779   1781     1
   1779   1782     1
   1780   1784     1
   1780   1781     1
   1780   1782     1
   1781   1783     1
   1782   1783     1
   1785   1801     1
   1785   1802     1
   1785   1803     1
   1785   1804     1
   1785   1807     1
   1785   1808     1
   1786   1799     1
   1786   1800     1
   1786   1805     1
   1786   1806     1
   1787   1797     1
   1787   1798     1
   1787   1805     1
   1787   1806     1
   1788   1810     1
   1788   3436     1
   1789   1797     1
   1789   1798     1
   1789   3439     1
   1789   3440     1
   1790   1810     1
   1790   3448     1
   1791   1799     1
   1791   1800     1
   1791   3451     1
   1791   3452     1
   1792   1797     1
   1792   1798     1
   1792   1799     1
   1792   1800     1
   1792   1809     1
   1793   1810     1
   1794   1805     1
   1794   1806     1
   1795   1801     1
   1795   1802     1
   1795   3436     1
   1796   1803     1
   1796   1804     1
   1796   3448     1
   1797   1810     1
   1797   1801     1
   1797   1802     1
   1798   1810     1
   1798   1801     1
   1798   1802     1
   1799   1810     1
   1799   1803     1
   1799   1804     1
   1800   1810     1
   1800   1803     1
   1800   1804     1
   1801   3435     1
   1802   3435     1
   1803   3447     1
   1804   3447     1
   1805   1810     1
   1805   1807     1
   1805   1808     1
   1806   1810     1
   1806   1807     1
   1806   1808     1
   1807   1809     1
   1808   1809     1
   1811   1827     1
   1811   1828     1
   1811   1829     1
   1811   1830     1
   1811   1833     1
   1811   1834     1
   1812   1825     1
   1812   1826     1
   1812   1831     1
   1812   1832     1
   1813   1823     1
   1813   1824     1
   1813   1831     1
   1813   1832     1
   1814   1836     1
   1814   3460     1
   1815   1823     1
   1815   1824     1
   1815   3463     1
   1815   3464     1
   1816   1836     1
   1816   3472     1
   1817   1825     1
   1817   1826     1
   1817   3475     1
   1817   3476     1
   1818   1823     1
   1818   1824     1
   1818   1825     1
   1818   1826     1
   1818   1835     1
   1819   1836     1
   1820   1831     1
   1820   1832     1
   1821   1827     1
   1821   1828     1
   1821   3460     1
   1822   1829     1
   1822   1830     1
   1822   3472     1
   1823   1836     1
   1823   1827     1
   1823   1828     1
   1824   1836     1
   1824   1827     1
   1824   1828     1
   1825   1836     1
   1825   1829     1
   1825   1830     1
   1826   1836     1
   1826   1829     1
   1826   1830     1
   1827   3459     1
   1828   3459     1
   1829   3471     1
   1830   3471     1
   1831   1836     1
   1831   1833     1
   1831   1834     1
   1832   1836     1
   1832   1833     1
   1832   1834     1
   1833   1835     1
   1834   1835     1
   1837   1853     1
   1837   1854     1
   1837   1855     1
   1837   1856     1
   1837   1859     1
   1837   1860     1
   1838   1851     1
   1838   1852     1
   1838   1857     1
   1838   1858     1
   1839   1849     1
   1839   1850     1
   1839   1857     1
   1839   1858     1
   1840   1862     1
   1840   3484     1
   1841   1849     1
   1841   1850     1
   1841   3487     1
   1841   3488     1
   1842   1862     1
   1842   3496     1
   1843   1851     1
   1843   1852     1
   1843   3499     1
   1843   3500     1
   1844   1849     1
   1844   1850     1
   1844   1851     1
   1844   1852     1
   1844   1861     1
   1845   1862     1
   1846   1857     1
   1846   1858     1
   1847   1853     1
   1847   1854     1
   1847   3484     1
   1848   1855     1
   1848   1856     1
   1848   3496     1
   1849   1862     1
   1849   1853     1
   1849   1854     1
   1850   1862     1
   1850   1853     1
   1850   1854     1
   1851   1862     1
   1851   1855     1
   1851   1856     1
   1852   1862     1
   1852   1855     1
   1852   1856     1
   1853   3483     1
   1854   3483     1
   1855   3495     1
   1856   3495     1
   1857   1862     1
   1857   1859     1
   1857   1860     1
   1858   1862     1
   1858   1859     1
   1858   1860     1
   1859   1861     1
   1860   1861     1
   1863   1879     1
   1863   1880     1
   1863   1881     1
   1863   1882     1
   1863   1885     1
   1863   1886     1
   1864   1877     1
   1864   1878     1
   1864   1883     1
   1864   1884     1
   1865   1875     1
   1865   1876     1
   1865   1883     1
   1865   1884     1
   1866   1888     1
   1866   3508     1
   1867   1875     1
   1867   1876     1
   1867   3511     1
   1867   3512     1
   1868   1888     1
   1868   3520     1
   1869   1877     1
   1869   1878     1
   1869   3523     1
   1869   3524     1
   1870   1875     1
   1870   1876     1
   1870   1877     1
   1870   1878     1
   1870   1887     1
   1871   1888     1
   1872   1883     1
   1872   1884     1
   1873   1879     1
   1873   1880     1
   1873   3508     1
   1874   1881     1
   1874   1882     1
   1874   3520     1
   1875   1888     1
   1875   1879     1
   1875   1880     1
   1876   1888     1
   1876   1879     1
   1876   1880     1
   1877   1888     1
   1877   1881     1
   1877   1882     1
   1878   1888     1
   1878   1881     1
   1878   1882     1
   1879   3507     1
   1880   3507     1
   1881   3519     1
   1882   3519     1
   1883   1888     1
   1883   1885     1
   1883   1886     1
   1884   1888     1
   1884   1885     1
   1884   1886     1
   1885   1887     1
   1886   1887     1
   1889   1905     1
   1889   1906     1
   1889   1907     1
   1889   1908     1
   1889   1911     1
   1889   1912     1
   1890   1903     1
   1890   1904     1
   1890   1909     1
   1890   1910     1
   1891   1901     1
   1891   1902     1
   1891   1909     1
   1891   1910     1
   1892   1914     1
   1892   3532     1
   1893   1901     1
   1893   1902     1
   1893   3535     1
   1893   3536     1
   1894   1914     1
   1894   3544     1
   1895   1903     1
   1895   1904     1
   1895   3547     1
   1895   3548     1
   1896   1901     1
   1896   1902     1
   1896   1903     1
   1896   1904     1
   1896   1913     1
   1897   1914     1
   1898   1909     1
   1898   1910     1
   1899   1905     1
   1899   1906     1
   1899   3532     1
   1900   1907     1
   1900   1908     1
   1900   3544     1
   1901   1914     1
   1901   1905     1
   1901   1906     1
   1902   1914     1
   1902   1905     1
   1902   1906     1
   1903   1914     1
   1903   1907     1
   1903   1908     1
   1904   1914     1
   1904   1907     1
   1904   1908     1
   1905   3531     1
   1906   3531     1
   1907   3543     1
   1908   3543     1
   1909   1914     1
   1909   1911     1
   1909   1912     1
   1910   1914     1
   1910   1911     1
   1910   1912     1
   1911   1913     1
   1912   1913     1
   1915   1931     1
   1915   1932     1
   1915   1933     1
   1915   1934     1
   1915   1937     1
   1915   1938     1
   1916   1929     1
   1916   1930     1
   1916   1935     1
   1916   1936     1
   1917   1927     1
   1917   1928     1
   1917   1935     1
   1917   1936     1
   1918   1940     1
   1918   3556     1
   1919   1927     1
   1919   1928     1
   1919   3559     1
   1919   3560     1
   1920   1940     1
   1920   3568     1
   1921   1929     1
   1921   1930     1
   1921   3571     1
   1921   3572     1
   1922   1927     1
   1922   1928     1
   1922   1929     1
   1922   1930     1
   1922   1939     1
   1923   1940     1
   1924   1935     1
   1924   1936     1
   1925   1931     1
   1925   1932     1
   1925   3556     1
   1926   1933     1
   1926   1934     1
   1926   3568     1
   1927   1940     1
   1927   1931     1
   1927   1932     1
   1928   1940     1
   1928   1931     1
   1928   1932     1
   1929   1940     1
   1929   1933     1
   1929   1934     1
   1930   1940     1
   1930   1933     1
   1930   1934     1
   1931   3555     1
   1932   3555     1
   1933   3567     1
   1934   3567     1
   1935   1940     1
   1935   1937     1
   1935   1938     1
   1936   1940     1
   1936   1937     1
   1936   1938     1
   1937   1939     1
   1938   1939     1
   1941   1957     1
   1941   1958     1
   1941   1959     1
   1941   1960     1
   1941   1963     1
   1941   1964     1
   1942   1955     1
   1942   1956     1
   1942   1961     1
   1942   1962     1
   1943   1953     1
   1943   1954     1
   1943   1961     1
   1943   1962     1
   1944   1966     1
   1944   3580     1
   1945   1953     1
   1945   1954     1
   1945   3583     1
   1945   3584     1
   1946   1966     1
   1946   3592     1
   1947   1955     1
   1947   1956     1
   1947   3595     1
   1947   3596     1
   1948   1953     1
   1948   1954     1
   1948   1955     1
   1948   1956     1
   1948   1965     1
   1949   1966     1
   1950   1961     1
   1950   1962     1
   1951   1957     1
   1951   1958     1
   1951   3580     1
   1952   1959     1
   1952   1960     1
   1952   3592     1
   1953   1966     1
   1953   1957     1
   1953   1958     1
   1954   1966     1
   1954   1957     1
   1954   1958     1
   1955   1966     1
   1955   1959     1
   1955   1960     1
   1956   1966     1
   1956   1959     1
   1956   1960     1
   1957   3579     1
   1958   3579     1
   1959   3591     1
   1960   3591     1
   1961   1966     1
   1961   1963     1
   1961   1964     1
   1962   1966     1
   1962   1963     1
   1962   1964     1
   1963   1965     1
   1964   1965     1
   1967   1983     1
   1967   1984     1
   1967   1985     1
   1967   1986     1
   1967   1989     1
   1967   1990     1
   1968   1981     1
   1968   1982     1
   1968   1987     1
   1968   1988     1
   1969   1979     1
   1969   1980     1
   1969   1987     1
   1969   1988     1
   1970   1992     1
   1970   3604     1
   1971   1979     1
   1971   1980     1
   1971   3607     1
   1971   3608     1
   1972   1992     1
   1972   3616     1
   1973   1981     1
   1973   1982     1
   1973   3619     1
   1973   3620     1
   1974   1979     1
   1974   1980     1
   1974   1981     1
   1974   1982     1
   1974   1991     1
   1975   1992     1
   1976   1987     1
   1976   1988     1
   1977   1983     1
   1977   1984     1
   1977   3604     1
   1978   1985     1
   1978   1986     1
   1978   3616     1
   1979   1992     1
   1979   1983     1
   1979   1984     1
   1980   1992     1
   1980   1983     1
   1980   1984     1
   1981   1992     1
   1981   1985     1
   1981   1986     1
   1982   1992     1
   1982   1985     1
   1982   1986     1
   1983   3603     1
   1984   3603     1
   1985   3615     1
   1986   3615     1
   1987   1992     1
   1987   1989     1
   1987   1990     1
   1988   1992     1
   1988   1989     1
   1988   1990     1
   1989   1991     1
   1990   1991     1
   1993   2009     1
   1993   2010     1
   1993   2011     1
   1993   2012     1
   1993   2015     1
   1993   2016     1
   1994   2007     1
   1994   2008     1
   1994   2013     1
   1994   2014     1
   1995   2005     1
   1995   2006     1
   1995   2013     1
   1995   2014     1
   1996   2018     1
   1996   3628     1
   1997   2005     1
   1997   2006     1
   1997   3631     1
   1997   3632     1
   1998   2018     1
   1998   3640     1
   1999   2007     1
   1999   2008     1
   1999   3643     1
   1999   3644     1
   2000   2005     1
   2000   2006     1
   2000   2007     1
   2000   2008     1
   2000   2017     1
   2001   2018     1
   2002   2013     1
   2002   2014     1
   2003   2009     1
   2003   2010     1
   2003   3628     1
   2004   2011     1
   2004   2012     1
   2004   3640     1
   2005   2018     1
   2005   2009     1
   2005   2010     1
   2006   2018     1
   2006   2009     1
   2006   2010     1
   2007   2018     1
   2007   2011     1
   2007   2012     1
   2008   2018     1
   2008   2011     1
   2008   2012     1
   2009   3627     1
   2010   3627     1
   2011   3639     1
   2012   3639     1
   2013   2018     1
   2013   2015     1
   2013   2016     1
   2014   2018     1
   2014   2015     1
   2014   2016     1
   2015   2017     1
   2016   2017     1
   2019   2035     1
   2019   2036     1
   2019   2037     1
   2019   2038     1
   2019   2041     1
   2019   2042     1
   2020   2033     1
   2020   2034     1
   2020   2039     1
   2020   2040     1
   2021   2031     1
   2021   2032     1
   2021   2039     1
   2021   2040     1
   2022   2044     1
   2022   3652     1
   2023   2031     1
   2023   2032     1
   2023   3655     1
   2023   3656     1
   2024   2044     1
   2024   3664     1
   2025   2033     1
   2025   2034     1
   2025   3667     1
   2025   3668     1
   2026   2031     1
   2026   2032     1
   2026   2033     1
   2026   2034     1
   2026   2043     1
   2027   2044     1
   2028   2039     1
   2028   2040     1
   2029   2035     1
   2029   2036     1
   2029   3652     1
   2030   2037     1
   2030   2038     1
   2030   3664     1
   2031   2044     1
   2031   2035     1
   2031   2036     1
   2032   2044     1
   2032   2035     1
   2032   2036     1
   2033   2044     1
   2033   2037     1
   2033   2038     1
   2034   2044     1
   2034   2037     1
   2034   2038     1
   2035   3651     1
   2036   3651     1
   2037   3663     1
   2038   3663     1
   2039   2044     1
   2039   2041     1
   2039   2042     1
   2040   2044     1
   2040   2041     1
   2040   2042     1
   2041   2043     1
   2042   2043     1
   2045   2061     1
   2045   2062     1
   2045   2063     1
   2045   2064     1
   2045   2067     1
   2045   2068     1
   2046   2059     1
   2046   2060     1
   2046   2065     1
   2046   2066     1
   2047   2057     1
   2047   2058     1
   2047   2065     1
   2047   2066     1
   2048   2070     1
   2048   3676     1
   2049   2057     1
   2049   2058     1
   2049   3679     1
   2049   3680     1
   2050   2070     1
   2050   3688     1
   2051   2059     1
   2051   2060     1
   2051   3691     1
   2051   3692     1
   2052   2057     1
   2052   2058     1
   2052   2059     1
   2052   2060     1
   2052   2069     1
   2053   2070     1
   2054   2065     1
   2054   2066     1
   2055   2061     1
   2055   2062     1
   2055   3676     1
   2056   2063     1
   2056   2064     1
   2056   3688     1
   2057   2070     1
   2057   2061     1
   2057   2062     1
   2058   2070     1
   2058   2061     1
   2058   2062     1
   2059   2070     1
   2059   2063     1
   2059   2064     1
   2060   2070     1
   2060   2063     1
   2060   2064     1
   2061   3675     1
   2062   3675     1
   2063   3687     1
   2064   3687     1
   2065   2070     1
   2065   2067     1
   2065   2068     1
   2066   2070     1
   2066   2067     1
   2066   2068     1
   2067   2069     1
   2068   2069     1
   2071   2087     1
   2071   2088     1
   2071   2089     1
   2071   2090     1
   2071   2093     1
   2071   2094     1
   2072   2085     1
   2072   2086     1
   2072   2091     1
   2072   2092     1
   2073   2083     1
   2073   2084     1
   2073   2091     1
   2073   2092     1
   2074   2096     1
   2074   3700     1
   2075   2083     1
   2075   2084     1
   2075   3703     1
   2075   3704     1
   2076   2096     1
   2076   3712     1
   2077   2085     1
   2077   2086     1
   2077   3715     1
   2077   3716     1
   2078   2083     1
   2078   2084     1
   2078   2085     1
   2078   2086     1
   2078   2095     1
   2079   2096     1
   2080   2091     1
   2080   2092     1
   2081   2087     1
   2081   2088     1
   2081   3700     1
   2082   2089     1
   2082   2090     1
   2082   3712     1
   2083   2096     1
   2083   2087     1
   2083   2088     1
   2084   2096     1
   2084   2087     1
   2084   2088     1
   2085   2096     1
   2085   2089     1
   2085   2090     1
   2086   2096     1
   2086   2089     1
   2086   2090     1
   2087   3699     1
   2088   3699     1
   2089   3711     1
   2090   3711     1
   2091   2096     1
   2091   2093     1
   2091   2094     1
   2092   2096     1
   2092   2093     1
   2092   2094     1
   2093   2095     1
   2094   2095     1
   2097   2113     1
   2097   2114     1
   2097   2115     1
   2097   2116     1
   2097   2119     1
   2097   2120     1
   2098   2111     1
   2098   2112     1
   2098   2117     1
   2098   2118     1
   2099   2109     1
   2099   2110     1
   2099   2117     1
   2099   2118     1
   2100   2122     1
   2100   3724     1
   2101   2109     1
   2101   2110     1
   2101   3727     1
   2101   3728     1
   2102   2122     1
   2102   3736     1
   2103   2111     1
   2103   2112     1
   2103   3739     1
   2103   3740     1
   2104   2109     1
   2104   2110     1
   2104   2111     1
   2104   2112     1
   2104   2121     1
   2105   2122     1
   2106   2117     1
   2106   2118     1
   2107   2113     1
   2107   2114     1
   2107   3724     1
   2108   2115     1
   2108   2116     1
   2108   3736     1
   2109   2122     1
   2109   2113     1
   2109   2114     1
   2110   2122     1
   2110   2113     1
   2110   2114     1
   2111   2122     1
   2111   2115     1
   2111   2116     1
   2112   2122     1
   2112   2115     1
   2112   2116     1
   2113   3723     1
   2114   3723     1
   2115   3735     1
   2116   3735     1
   2117   2122     1
   2117   2119     1
   2117   2120     1
   2118   2122     1
   2118   2119     1
   2118   2120     1
   2119   2121     1
   2120   2121     1
   2123   2139     1
   2123   2140     1
   2123   2141     1
   2123   2142     1
   2123   2145     1
   2123   2146     1
   2124   2137     1
   2124   2138     1
   2124   2143     1
   2124   2144     1
   2125   2135     1
   2125   2136     1
   2125   2143     1
   2125   2144     1
   2126   2148     1
   2126   3748     1
   2127   2135     1
   2127   2136     1
   2127   3751     1
   2127   3752     1
   2128   2148     1
   2128   3760     1
   2129   2137     1
   2129   2138     1
   2129   3763     1
   2129   3764     1
   2130   2135     1
   2130   2136     1
   2130   2137     1
   2130   2138     1
   2130   2147     1
   2131   2148     1
   2132   2143     1
   2132   2144     1
   2133   2139     1
   2133   2140     1
   2133   3748     1
   2134   2141     1
   2134   2142     1
   2134   3760     1
   2135   2148     1
   2135   2139     1
   2135   2140     1
   2136   2148     1
   2136   2139     1
   2136   2140     1
   2137   2148     1
   2137   2141     1
   2137   2142     1
   2138   2148     1
   2138   2141     1
   2138   2142     1
   2139   3747     1
   2140   3747     1
   2141   3759     1
   2142   3759     1
   2143   2148     1
   2143   2145     1
   2143   2146     1
   2144   2148     1
   2144   2145     1
   2144   2146     1
   2145   2147     1
   2146   2147     1
   2149   2165     1
   2149   2166     1
   2149   2167     1
   2149   2168     1
   2149   2171     1
   2149   2172     1
   2150   2163     1
   2150   2164     1
   2150   2169     1
   2150   2170     1
   2151   2161     1
   2151   2162     1
   2151   2169     1
   2151   2170     1
   2152   2174     1
   2152   3772     1
   2153   2161     1
   2153   2162     1
   2153   3775     1
   2153   3776     1
   2154   2174     1
   2154   3784     1
   2155   2163     1
   2155   2164     1
   2155   3787     1
   2155   3788     1
   2156   2161     1
   2156   2162     1
   2156   2163     1
   2156   2164     1
   2156   2173     1
   2157   2174     1
   2158   2169     1
   2158   2170     1
   2159   2165     1
   2159   2166     1
   2159   3772     1
   2160   2167     1
   2160   2168     1
   2160   3784     1
   2161   2174     1
   2161   2165     1
   2161   2166     1
   2162   2174     1
   2162   2165     1
   2162   2166     1
   2163   2174     1
   2163   2167     1
   2163   2168     1
   2164   2174     1
   2164   2167     1
   2164   2168     1
   2165   3771     1
   2166   3771     1
   2167   3783     1
   2168   3783     1
   2169   2174     1
   2169   2171     1
   2169   2172     1
   2170   2174     1
   2170   2171     1
   2170   2172     1
   2171   2173     1
   2172   2173     1
   2175   2191     1
   2175   2192     1
   2175   2193     1
   2175   2194     1
   2175   2197     1
   2175   2198     1
   2176   2189     1
   2176   2190     1
   2176   2195     1
   2176   2196     1
   2177   2187     1
   2177   2188     1
   2177   2195     1
   2177   2196     1
   2178   2200     1
   2178   3796     1
   2179   2187     1
   2179   2188     1
   2179   3799     1
   2179   3800     1
   2180   2200     1
   2180   3808     1
   2181   2189     1
   2181   2190     1
   2181   3811     1
   2181   3812     1
   2182   2187     1
   2182   2188     1
   2182   2189     1
   2182   2190     1
   2182   2199     1
   2183   2200     1
   2184   2195     1
   2184   2196     1
   2185   2191     1
   2185   2192     1
   2185   3796     1
   2186   2193     1
   2186   2194     1
   2186   3808     1
   2187   2200     1
   2187   2191     1
   2187   2192     1
   2188   2200     1
   2188   2191     1
   2188   2192     1
   2189   2200     1
   2189   2193     1
   2189   2194     1
   2190   2200     1
   2190   2193     1
   2190   2194     1
   2191   3795     1
   2192   3795     1
   2193   3807     1
   2194   3807     1
   2195   2200     1
   2195   2197     1
   2195   2198     1
   2196   2200     1
   2196   2197     1
   2196   2198     1
   2197   2199     1
   2198   2199     1
   2201   2217     1
   2201   2218     1
   2201   2219     1
   2201   2220     1
   2201   2223     1
   2201   2224     1
   2202   2215     1
   2202   2216     1
   2202   2221     1
   2202   2222     1
   2203   2213     1
   2203   2214     1
   2203   2221     1
   2203   2222     1
   2204   2226     1
   2204   3820     1
   2205   2213     1
   2205   2214     1
   2205   3823     1
   2205   3824     1
   2206   2226     1
   2206   3832     1
   2207   2215     1
   2207   2216     1
   2207   3835     1
   2207   3836     1
   2208   2213     1
   2208   2214     1
   2208   2215     1
   2208   2216     1
   2208   2225     1
   2209   2226     1
   2210   2221     1
   2210   2222     1
   2211   2217     1
   2211   2218     1
   2211   3820     1
   2212   2219     1
   2212   2220     1
   2212   3832     1
   2213   2226     1
   2213   2217     1
   2213   2218     1
   2214   2226     1
   2214   2217     1
   2214   2218     1
   2215   2226     1
   2215   2219     1
   2215   2220     1
   2216   2226     1
   2216   2219     1
   2216   2220     1
   2217   3819     1
   2218   3819     1
   2219   3831     1
   2220   3831     1
   2221   2226     1
   2221   2223     1
   2221   2224     1
   2222   2226     1
   2222   2223     1
   2222   2224     1
   2223   2225     1
   2224   2225     1
   2227   2243     1
   2227   2244     1
   2227   2245     1
   2227   2246     1
   2227   2249     1
   2227   2250     1
   2228   2241     1
   2228   2242     1
   2228   2247     1
   2228   2248     1
   2229   2239     1
   2229   2240     1
   2229   2247     1
   2229   2248     1
   2230   2252     1
   2230   3844     1
   2231   2239     1
   2231   2240     1
   2231   3847     1
   2231   3848     1
   2232   2252     1
   2232   3856     1
   2233   2241     1
   2233   2242     1
   2233   3859     1
   2233   3860     1
   2234   2239     1
   2234   2240     1
   2234   2241     1
   2234   2242     1
   2234   2251     1
   2235   2252     1
   2236   2247     1
   2236   2248     1
   2237   2243     1
   2237   2244     1
   2237   3844     1
   2238   2245     1
   2238   2246     1
   2238   3856     1
   2239   2252     1
   2239   2243     1
   2239   2244     1
   2240   2252     1
   2240   2243     1
   2240   2244     1
   2241   2252     1
   2241   2245     1
   2241   2246     1
   2242   2252     1
   2242   2245     1
   2242   2246     1
   2243   3843     1
   2244   3843     1
   2245   3855     1
   2246   3855     1
   2247   2252     1
   2247   2249     1
   2247   2250     1
   2248   2252     1
   2248   2249     1
   2248   2250     1
   2249   2251     1
   2250   2251     1
   2253   2269     1
   2253   2270     1
   2253   2271     1
   2253   2272     1
   2253   2275     1
   2253   2276     1
   2254   2267     1
   2254   2268     1
   2254   2273     1
   2254   2274     1
   2255   2265     1
   2255   2266     1
   2255   2273     1
   2255   2274     1
   2256   2278     1
   2256   3868     1
   2257   2265     1
   2257   2266     1
   2257   3871     1
   2257   3872     1
   2258   2278     1
   2258   3880     1
   2259   2267     1
   2259   2268     1
   2259   3883     1
   2259   3884     1
   2260   2265     1
   2260   2266     1
   2260   2267     1
   2260   2268     1
   2260   2277     1
   2261   2278     1
   2262   2273     1
   2262   2274     1
   2263   2269     1
   2263   2270     1
   2263   3868     1
   2264   2271     1
   2264   2272     1
   2264   3880     1
   2265   2278     1
   2265   2269     1
   2265   2270     1
   2266   2278     1
   2266   2269     1
   2266   2270     1
   2267   2278     1
   2267   2271     1
   2267   2272     1
   2268   2278     1
   2268   2271     1
   2268   2272     1
   2269   3867     1
   2270   3867     1
   2271   3879     1
   2272   3879     1
   2273   2278     1
   2273   2275     1
   2273   2276     1
   2274   2278     1
   2274   2275     1
   2274   2276     1
   2275   2277     1
   2276   2277     1
   2279   2295     1
   2279   2296     1
   2279   2297     1
   2279   2298     1
   2279   2301     1
   2279   2302     1
   2280   2293     1
   2280   2294     1
   2280   2299     1
   2280   2300     1
   2281   2291     1
   2281   2292     1
   2281   2299     1
   2281   2300     1
   2282   2304     1
   2282   3892     1
   2283   2291     1
   2283   2292     1
   2283   3895     1
   2283   3896     1
   2284   2304     1
   2284   3904     1
   2285   2293     1
   2285   2294     1
   2285   3907     1
   2285   3908     1
   2286   2291     1
   2286   2292     1
   2286   2293     1
   2286   2294     1
   2286   2303     1
   2287   2304     1
   2288   2299     1
   2288   2300     1
   2289   2295     1
   2289   2296     1
   2289   3892     1
   2290   2297     1
   2290   2298     1
   2290   3904     1
   2291   2304     1
   2291   2295     1
   2291   2296     1
   2292   2304     1
   2292   2295     1
   2292   2296     1
   2293   2304     1
   2293   2297     1
   2293   2298     1
   2294   2304     1
   2294   2297     1
   2294   2298     1
   2295   3891     1
   2296   3891     1
   2297   3903     1
   2298   3903     1
   2299   2304     1
   2299   2301     1
   2299   2302     1
   2300   2304     1
   2300   2301     1
   2300   2302     1
   2301   2303     1
   2302   2303     1
   2305   2321     1
   2305   2322     1
   2305   2323     1
   2305   2324     1
   2305   2327     1
   2305   2328     1
   2306   2319     1
   2306   2320     1
   2306   2325     1
   2306   2326     1
   2307   2317     1
   2307   2318     1
   2307   2325     1
   2307   2326     1
   2308   2330     1
   2308   3916     1
   2309   2317     1
   2309   2318     1
   2309   3919     1
   2309   3920     1
   2310   2330     1
   2310   3928     1
   2311   2319     1
   2311   2320     1
   2311   3931     1
   2311   3932     1
   2312   2317     1
   2312   2318     1
   2312   2319     1
   2312   2320     1
   2312   2329     1
   2313   2330     1
   2314   2325     1
   2314   2326     1
   2315   2321     1
   2315   2322     1
   2315   3916     1
   2316   2323     1
   2316   2324     1
   2316   3928     1
   2317   2330     1
   2317   2321     1
   2317   2322     1
   2318   2330     1
   2318   2321     1
   2318   2322     1
   2319   2330     1
   2319   2323     1
   2319   2324     1
   2320   2330     1
   2320   2323     1
   2320   2324     1
   2321   3915     1
   2322   3915     1
   2323   3927     1
   2324   3927     1
   2325   2330     1
   2325   2327     1
   2325   2328     1
   2326   2330     1
   2326   2327     1
   2326   2328     1
   2327   2329     1
   2328   2329     1
   2331   2347     1
   2331   2348     1
   2331   2349     1
   2331   2350     1
   2331   2353     1
   2331   2354     1
   2332   2345     1
   2332   2346     1
   2332   2351     1
   2332   2352     1
   2333   2343     1
   2333   2344     1
   2333   2351     1
   2333   2352     1
   2334   2356     1
   2334   3940     1
   2335   2343     1
   2335   2344     1
   2335   3943     1
   2335   3944     1
   2336   2356     1
   2336   3952     1
   2337   2345     1
   2337   2346     1
   2337   3955     1
   2337   3956     1
   2338   2343     1
   2338   2344     1
   2338   2345     1
   2338   2346     1
   2338   2355     1
   2339   2356     1
   2340   2351     1
   2340   2352     1
   2341   2347     1
   2341   2348     1
   2341   3940     1
   2342   2349     1
   2342   2350     1
   2342   3952     1
   2343   2356     1
   2343   2347     1
   2343   2348     1
   2344   2356     1
   2344   2347     1
   2344   2348     1
   2345   2356     1
   2345   2349     1
   2345   2350     1
   2346   2356     1
   2346   2349     1
   2346   2350     1
   2347   3939     1
   2348   3939     1
   2349   3951     1
   2350   3951     1
   2351   2356     1
   2351   2353     1
   2351   2354     1
   2352   2356     1
   2352   2353     1
   2352   2354     1
   2353   2355     1
   2354   2355     1
   2357   2373     1
   2357   2374     1
   2357   2375     1
   2357   2376     1
   2357   2379     1
   2357   2380     1
   2358   2371     1
   2358   2372     1
   2358   2377     1
   2358   2378     1
   2359   2369     1
   2359   2370     1
   2359   2377     1
   2359   2378     1
   2360   2382     1
   2360   3964     1
   2361   2369     1
   2361   2370     1
   2361   3967     1
   2361   3968     1
   2362   2382     1
   2362   3976     1
   2363   2371     1
   2363   2372     1
   2363   3979     1
   2363   3980     1
   2364   2369     1
   2364   2370     1
   2364   2371     1
   2364   2372     1
   2364   2381     1
   2365   2382     1
   2366   2377     1
   2366   2378     1
   2367   2373     1
   2367   2374     1
   2367   3964     1
   2368   2375     1
   2368   2376     1
   2368   3976     1
   2369   2382     1
   2369   2373     1
   2369   2374     1
   2370   2382     1
   2370   2373     1
   2370   2374     1
   2371   2382     1
   2371   2375     1
   2371   2376     1
   2372   2382     1
   2372   2375     1
   2372   2376     1
   2373   3963     1
   2374   3963     1
   2375   3975     1
   2376   3975     1
   2377   2382     1
   2377   2379     1
   2377   2380     1
   2378   2382     1
   2378   2379     1
   2378   2380     1
   2379   2381     1
   2380   2381     1
   2383   2399     1
   2383   2400     1
   2383   2401     1
   2383   2402     1
   2383   2405     1
   2383   2406     1
   2384   2397     1
   2384   2398     1
   2384   2403     1
   2384   2404     1
   2385   2395     1
   2385   2396     1
   2385   2403     1
   2385   2404     1
   2386   2408     1
   2386   3988     1
   2387   2395     1
   2387   2396     1
   2387   3991     1
   2387   3992     1
   2388   2408     1
   2388   4000     1
   2389   2397     1
   2389   2398     1
   2389   4003     1
   2389   4004     1
   2390   2395     1
   2390   2396     1
   2390   2397     1
   2390   2398     1
   2390   2407     1
   2391   2408     1
   2392   2403     1
   2392   2404     1
   2393   2399     1
   2393   2400     1
   2393   3988     1
   2394   2401     1
   2394   2402     1
   2394   4000     1
   2395   2408     1
   2395   2399     1
   2395   2400     1
   2396   2408     1
   2396   2399     1
   2396   2400     1
   2397   2408     1
   2397   2401     1
   2397   2402     1
   2398   2408     1
   2398   2401     1
   2398   2402     1
   2399   3987     1
   2400   3987     1
   2401   3999     1
   2402   3999     1
   2403   2408     1
   2403   2405     1
   2403   2406     1
   2404   2408     1
   2404   2405     1
   2404   2406     1
   2405   2407     1
   2406   2407     1
   2409   2425     1
   2409   2426     1
   2409   2427     1
   2409   2428     1
   2409   2431     1
   2409   2432     1
   2410   2423     1
   2410   2424     1
   2410   2429     1
   2410   2430     1
   2411   2421     1
   2411   2422     1
   2411   2429     1
   2411   2430     1
   2412   2434     1
   2412   4012     1
   2413   2421     1
   2413   2422     1
   2413   4015     1
   2413   4016     1
   2414   2434     1
   2414   4024     1
   2415   2423     1
   2415   2424     1
   2415   4027     1
   2415   4028     1
   2416   2421     1
   2416   2422     1
   2416   2423     1
   2416   2424     1
   2416   2433     1
   2417   2434     1
   2418   2429     1
   2418   2430     1
   2419   2425     1
   2419   2426     1
   2419   4012     1
   2420   2427     1
   2420   2428     1
   2420   4024     1
   2421   2434     1
   2421   2425     1
   2421   2426     1
   2422   2434     1
   2422   2425     1
   2422   2426     1
   2423   2434     1
   2423   2427     1
   2423   2428     1
   2424   2434     1
   2424   2427     1
   2424   2428     1
   2425   4011     1
   2426   4011     1
   2427   4023     1
   2428   4023     1
   2429   2434     1
   2429   2431     1
   2429   2432     1
   2430   2434     1
   2430   2431     1
   2430   2432     1
   2431   2433     1
   2432   2433     1
   2435   2451     1
   2435   2452     1
   2435   2453     1
   2435   2454     1
   2435   2457     1
   2435   2458     1
   2436   2449     1
   2436   2450     1
   2436   2455     1
   2436   2456     1
   2437   2447     1
   2437   2448     1
   2437   2455     1
   2437   2456     1
   2438   2460     1
   2438   4036     1
   2439   2447     1
   2439   2448     1
   2439   4039     1
   2439   4040     1
   2440   2460     1
   2440   4048     1
   2441   2449     1
   2441   2450     1
   2441   4051     1
   2441   4052     1
   2442   2447     1
   2442   2448     1
   2442   2449     1
   2442   2450     1
   2442   2459     1
   2443   2460     1
   2444   2455     1
   2444   2456     1
   2445   2451     1
   2445   2452     1
   2445   4036     1
   2446   2453     1
   2446   2454     1
   2446   4048     1
   2447   2460     1
   2447   2451     1
   2447   2452     1
   2448   2460     1
   2448   2451     1
   2448   2452     1
   2449   2460     1
   2449   2453     1
   2449   2454     1
   2450   2460     1
   2450   2453     1
   2450   2454     1
   2451   4035     1
   2452   4035     1
   2453   4047     1
   2454   4047     1
   2455   2460     1
   2455   2457     1
   2455   2458     1
   2456   2460     1
   2456   2457     1
   2456   2458     1
   2457   2459     1
   2458   2459     1
   2461   2477     1
   2461   2478     1
   2461   2479     1
   2461   2480     1
   2461   2483     1
   2461   2484     1
   2462   2475     1
   2462   2476     1
   2462   2481     1
   2462   2482     1
   2463   2473     1
   2463   2474     1
   2463   2481     1
   2463   2482     1
   2464   2486     1
   2464   4060     1
   2465   2473     1
   2465   2474     1
   2465   4063     1
   2465   4064     1
   2466   2486     1
   2466   4072     1
   2467   2475     1
   2467   2476     1
   2467   4075     1
   2467   4076     1
   2468   2473     1
   2468   2474     1
   2468   2475     1
   2468   2476     1
   2468   2485     1
   2469   2486     1
   2470   2481     1
   2470   2482     1
   2471   2477     1
   2471   2478     1
   2471   4060     1
   2472   2479     1
   2472   2480     1
   2472   4072     1
   2473   2486     1
   2473   2477     1
   2473   2478     1
   2474   2486     1
   2474   2477     1
   2474   2478     1
   2475   2486     1
   2475   2479     1
   2475   2480     1
   2476   2486     1
   2476   2479     1
   2476   2480     1
   2477   4059     1
   2478   4059     1
   2479   4071     1
   2480   4071     1
   2481   2486     1
   2481   2483     1
   2481   2484     1
   2482   2486     1
   2482   2483     1
   2482   2484     1
   2483   2485     1
   2484   2485     1
   2487   2503     1
   2487   2504     1
   2487   2505     1
   2487   2506     1
   2487   2509     1
   2487   2510     1
   2488   2501     1
   2488   2502     1
   2488   2507     1
   2488   2508     1
   2489   2499     1
   2489   2500     1
   2489   2507     1
   2489   2508     1
   2490   2512     1
   2490   4084     1
   2491   2499     1
   2491   2500     1
   2491   4087     1
   2491   4088     1
   2492   2512     1
   2492   4096     1
   2493   2501     1
   2493   2502     1
   2493   4099     1
   2493   4100     1
   2494   2499     1
   2494   2500     1
   2494   2501     1
   2494   2502     1
   2494   2511     1
   2495   2512     1
   2496   2507     1
   2496   2508     1
   2497   2503     1
   2497   2504     1
   2497   4084     1
   2498   2505     1
   2498   2506     1
   2498   4096     1
   2499   2512     1
   2499   2503     1
   2499   2504     1
   2500   2512     1
   2500   2503     1
   2500   2504     1
   2501   2512     1
   2501   2505     1
   2501   2506     1
   2502   2512     1
   2502   2505     1
   2502   2506     1
   2503   4083     1
   2504   4083     1
   2505   4095     1
   2506   4095     1
   2507   2512     1
   2507   2509     1
   2507   2510     1
   2508   2512     1
   2508   2509     1
   2508   2510     1
   2509   2511     1
   2510   2511     1
   2513   2529     1
   2513   2530     1
   2513   2531     1
   2513   2532     1
   2513   2535     1
   2513   2536     1
   2514   2527     1
   2514   2528     1
   2514   2533     1
   2514   2534     1
   2515   2525     1
   2515   2526     1
   2515   2533     1
   2515   2534     1
   2516   2538     1
   2516   4108     1
   2517   2525     1
   2517   2526     1
   2517   4111     1
   2517   4112     1
   2518   2538     1
   2518   4120     1
   2519   2527     1
   2519   2528     1
   2519   4123     1
   2519   4124     1
   2520   2525     1
   2520   2526     1
   2520   2527     1
   2520   2528     1
   2520   2537     1
   2521   2538     1
   2522   2533     1
   2522   2534     1
   2523   2529     1
   2523   2530     1
   2523   4108     1
   2524   2531     1
   2524   2532     1
   2524   4120     1
   2525   2538     1
   2525   2529     1
   2525   2530     1
   2526   2538     1
   2526   2529     1
   2526   2530     1
   2527   2538     1
   2527   2531     1
   2527   2532     1
   2528   2538     1
   2528   2531     1
   2528   2532     1
   2529   4107     1
   2530   4107     1
   2531   4119     1
   2532   4119     1
   2533   2538     1
   2533   2535     1
   2533   2536     1
   2534   2538     1
   2534   2535     1
   2534   2536     1
   2535   2537     1
   2536   2537     1
   2539   2555     1
   2539   2556     1
   2539   2557     1
   2539   2558     1
   2539   2561     1
   2539   2562     1
   2540   2553     1
   2540   2554     1
   2540   2559     1
   2540   2560     1
   2541   2551     1
   2541   2552     1
   2541   2559     1
   2541   2560     1
   2542   2564     1
   2542   4132     1
   2543   2551     1
   2543   2552     1
   2543   4135     1
   2543   4136     1
   2544   2564     1
   2544   4144     1
   2545   2553     1
   2545   2554     1
   2545   4147     1
   2545   4148     1
   2546   2551     1
   2546   2552     1
   2546   2553     1
   2546   2554     1
   2546   2563     1
   2547   2564     1
   2548   2559     1
   2548   2560     1
   2549   2555     1
   2549   2556     1
   2549   4132     1
   2550   2557     1
   2550   2558     1
   2550   4144     1
   2551   2564     1
   2551   2555     1
   2551   2556     1
   2552   2564     1
   2552   2555     1
   2552   2556     1
   2553   2564     1
   2553   2557     1
   2553   2558     1
   2554   2564     1
   2554   2557     1
   2554   2558     1
   2555   4131     1
   2556   4131     1
   2557   4143     1
   2558   4143     1
   2559   2564     1
   2559   2561     1
   2559   2562     1
   2560   2564     1
   2560   2561     1
   2560   2562     1
   2561   2563     1
   2562   2563     1
   2565   2581     1
   2565   2582     1
   2565   2583     1
   2565   2584     1
   2565   2587     1
   2565   2588     1
   2566   2579     1
   2566   2580     1
   2566   2585     1
   2566   2586     1
   2567   2577     1
   2567   2578     1
   2567   2585     1
   2567   2586     1
   2568   2590     1
   2568   4156     1
   2569   2577     1
   2569   2578     1
   2569   4159     1
   2569   4160     1
   2570   2590     1
   2570   4168     1
   2571   2579     1
   2571   2580     1
   2571   4171     1
   2571   4172     1
   2572   2577     1
   2572   2578     1
   2572   2579     1
   2572   2580     1
   2572   2589     1
   2573   2590     1
   2574   2585     1
   2574   2586     1
   2575   2581     1
   2575   2582     1
   2575   4156     1
   2576   2583     1
   2576   2584     1
   2576   4168     1
   2577   2590     1
   2577   2581     1
   2577   2582     1
   2578   2590     1
   2578   2581     1
   2578   2582     1
   2579   2590     1
   2579   2583     1
   2579   2584     1
   2580   2590     1
   2580   2583     1
   2580   2584     1
   2581   4155     1
   2582   4155     1
   2583   4167     1
   2584   4167     1
   2585   2590     1
   2585   2587     1
   2585   2588     1
   2586   2590     1
   2586   2587     1
   2586   2588     1
   2587   2589     1
   2588   2589     1
   2591   2607     1
   2591   2608     1
   2591   2609     1
   2591   2610     1
   2591   2613     1
   2591   2614     1
   2592   2605     1
   2592   2606     1
   2592   2611     1
   2592   2612     1
   2593   2603     1
   2593   2604     1
   2593   2611     1
   2593   2612     1
   2594   2616     1
   2594   4180     1
   2595   2603     1
   2595   2604     1
   2595   4183     1
   2595   4184     1
   2596   2616     1
   2596   4192     1
   2597   2605     1
   2597   2606     1
   2597   4195     1
   2597   4196     1
   2598   2603     1
   2598   2604     1
   2598   2605     1
   2598   2606     1
   2598   2615     1
   2599   2616     1
   2600   2611     1
   2600   2612     1
   2601   2607     1
   2601   2608     1
   2601   4180     1
   2602   2609     1
   2602   2610     1
   2602   4192     1
   2603   2616     1
   2603   2607     1
   2603   2608     1
   2604   2616     1
   2604   2607     1
   2604   2608     1
   2605   2616     1
   2605   2609     1
   2605   2610     1
   2606   2616     1
   2606   2609     1
   2606   2610     1
   2607   4179     1
   2608   4179     1
   2609   4191     1
   2610   4191     1
   2611   2616     1
   2611   2613     1
   2611   2614     1
   2612   2616     1
   2612   2613     1
   2612   2614     1
   2613   2615     1
   2614   2615     1
   2617   2633     1
   2617   2634     1
   2617   2635     1
   2617   2636     1
   2617   2639     1
   2617   2640     1
   2618   2631     1
   2618   2632     1
   2618   2637     1
   2618   2638     1
   2619   2629     1
   2619   2630     1
   2619   2637     1
   2619   2638     1
   2620   2642     1
   2620   4204     1
   2621   2629     1
   2621   2630     1
   2621   4207     1
   2621   4208     1
   2622   2642     1
   2622   4216     1
   2623   2631     1
   2623   2632     1
   2623   4219     1
   2623   4220     1
   2624   2629     1
   2624   2630     1
   2624   2631     1
   2624   2632     1
   2624   2641     1
   2625   2642     1
   2626   2637     1
   2626   2638     1
   2627   2633     1
   2627   2634     1
   2627   4204     1
   2628   2635     1
   2628   2636     1
   2628   4216     1
   2629   2642     1
   2629   2633     1
   2629   2634     1
   2630   2642     1
   2630   2633     1
   2630   2634     1
   2631   2642     1
   2631   2635     1
   2631   2636     1
   2632   2642     1
   2632   2635     1
   2632   2636     1
   2633   4203     1
   2634   4203     1
   2635   4215     1
   2636   4215     1
   2637   2642     1
   2637   2639     1
   2637   2640     1
   2638   2642     1
   2638   2639     1
   2638   2640     1
   2639   2641     1
   2640   2641     1
   2643   2659     1
   2643   2660     1
   2643   2661     1
   2643   2662     1
   2643   2665     1
   2643   2666     1
   2644   2657     1
   2644   2658     1
   2644   2663     1
   2644   2664     1
   2645   2655     1
   2645   2656     1
   2645   2663     1
   2645   2664     1
   2646   2668     1
   2646   4228     1
   2647   2655     1
   2647   2656     1
   2647   4231     1
   2647   4232     1
   2648   2668     1
   2648   4240     1
   2649   2657     1
   2649   2658     1
   2649   4243     1
   2649   4244     1
   2650   2655     1
   2650   2656     1
   2650   2657     1
   2650   2658     1
   2650   2667     1
   2651   2668     1
   2652   2663     1
   2652   2664     1
   2653   2659     1
   2653   2660     1
   2653   4228     1
   2654   2661     1
   2654   2662     1
   2654   4240     1
   2655   2668     1
   2655   2659     1
   2655   2660     1
   2656   2668     1
   2656   2659     1
   2656   2660     1
   2657   2668     1
   2657   2661     1
   2657   2662     1
   2658   2668     1
   2658   2661     1
   2658   2662     1
   2659   4227     1
   2660   4227     1
   2661   4239     1
   2662   4239     1
   2663   2668     1
   2663   2665     1
   2663   2666     1
   2664   2668     1
   2664   2665     1
   2664   2666     1
   2665   2667     1
   2666   2667     1
   2669   2685     1
   2669   2686     1
   2669   2687     1
   2669   2688     1
   2669   2691     1
   2669   2692     1
   2670   2683     1
   2670   2684     1
   2670   2689     1
   2670   2690     1
   2671   2681     1
   2671   2682     1
   2671   2689     1
   2671   2690     1
   2672   2694     1
   2672   4252     1
   2673   2681     1
   2673   2682     1
   2673   4255     1
   2673   4256     1
   2674   2694     1
   2674   4264     1
   2675   2683     1
   2675   2684     1
   2675   4267     1
   2675   4268     1
   2676   2681     1
   2676   2682     1
   2676   2683     1
   2676   2684     1
   2676   2693     1
   2677   2694     1
   2678   2689     1
   2678   2690     1
   2679   2685     1
   2679   2686     1
   2679   4252     1
   2680   2687     1
   2680   2688     1
   2680   4264     1
   2681   2694     1
   2681   2685     1
   2681   2686     1
   2682   2694     1
   2682   2685     1
   2682   2686     1
   2683   2694     1
   2683   2687     1
   2683   2688     1
   2684   2694     1
   2684   2687     1
   2684   2688     1
   2685   4251     1
   2686   4251     1
   2687   4263     1
   2688   4263     1
   2689   2694     1
   2689   2691     1
   2689   2692     1
   2690   2694     1
   2690   2691     1
   2690   2692     1
   2691   2693     1
   2692   2693     1
   2695   2711     1
   2695   2712     1
   2695   2713     1
   2695   2714     1
   2695   2717     1
   2695   2718     1
   2696   2709     1
   2696   2710     1
   2696   2715     1
   2696   2716     1
   2697   2707     1
   2697   2708     1
   2697   2715     1
   2697   2716     1
   2698   2720     1
   2698   4276     1
   2699   2707     1
   2699   2708     1
   2699   4279     1
   2699   4280     1
   2700   2720     1
   2700   4288     1
   2701   2709     1
   2701   2710     1
   2701   4291     1
   2701   4292     1
   2702   2707     1
   2702   2708     1
   2702   2709     1
   2702   2710     1
   2702   2719     1
   2703   2720     1
   2704   2715     1
   2704   2716     1
   2705   2711     1
   2705   2712     1
   2705   4276     1
   2706   2713     1
   2706   2714     1
   2706   4288     1
   2707   2720     1
   2707   2711     1
   2707   2712     1
   2708   2720     1
   2708   2711     1
   2708   2712     1
   2709   2720     1
   2709   2713     1
   2709   2714     1
   2710   2720     1
   2710   2713     1
   2710   2714     1
   2711   4275     1
   2712   4275     1
   2713   4287     1
   2714   4287     1
   2715   2720     1
   2715   2717     1
   2715   2718     1
   2716   2720     1
   2716   2717     1
   2716   2718     1
   2717   2719     1
   2718   2719     1
   2721   2737     1
   2721   2738     1
   2721   2739     1
   2721   2740     1
   2721   2743     1
   2721   2744     1
   2722   2735     1
   2722   2736     1
   2722   2741     1
   2722   2742     1
   2723   2733     1
   2723   2734     1
   2723   2741     1
   2723   2742     1
   2724   2746     1
   2724   4300     1
   2725   2733     1
   2725   2734     1
   2725   4303     1
   2725   4304     1
   2726   2746     1
   2726   4312     1
   2727   2735     1
   2727   2736     1
   2727   4315     1
   2727   4316     1
   2728   2733     1
   2728   2734     1
   2728   2735     1
   2728   2736     1
   2728   2745     1
   2729   2746     1
   2730   2741     1
   2730   2742     1
   2731   2737     1
   2731   2738     1
   2731   4300     1
   2732   2739     1
   2732   2740     1
   2732   4312     1
   2733   2746     1
   2733   2737     1
   2733   2738     1
   2734   2746     1
   2734   2737     1
   2734   2738     1
   2735   2746     1
   2735   2739     1
   2735   2740     1
   2736   2746     1
   2736   2739     1
   2736   2740     1
   2737   4299     1
   2738   4299     1
   2739   4311     1
   2740   4311     1
   2741   2746     1
   2741   2743     1
   2741   2744     1
   2742   2746     1
   2742   2743     1
   2742   2744     1
   2743   2745     1
   2744   2745     1
   2747   2763     1
   2747   2764     1
   2747   2765     1
   2747   2766     1
   2747   2769     1
   2747   2770     1
   2748   2761     1
   2748   2762     1
   2748   2767     1
   2748   2768     1
   2749   2759     1
   2749   2760     1
   2749   2767     1
   2749   2768     1
   2750   2772     1
   2750   4324     1
   2751   2759     1
   2751   2760     1
   2751   4327     1
   2751   4328     1
   2752   2772     1
   2752   4336     1
   2753   2761     1
   2753   2762     1
   2753   4339     1
   2753   4340     1
   2754   2759     1
   2754   2760     1
   2754   2761     1
   2754   2762     1
   2754   2771     1
   2755   2772     1
   2756   2767     1
   2756   2768     1
   2757   2763     1
   2757   2764     1
   2757   4324     1
   2758   2765     1
   2758   2766     1
   2758   4336     1
   2759   2772     1
   2759   2763     1
   2759   2764     1
   2760   2772     1
   2760   2763     1
   2760   2764     1
   2761   2772     1
   2761   2765     1
   2761   2766     1
   2762   2772     1
   2762   2765     1
   2762   2766     1
   2763   4323     1
   2764   4323     1
   2765   4335     1
   2766   4335     1
   2767   2772     1
   2767   2769     1
   2767   2770     1
   2768   2772     1
   2768   2769     1
   2768   2770     1
   2769   2771     1
   2770   2771     1
   2773   2789     1
   2773   2790     1
   2773   2791     1
   2773   2792     1
   2773   2795     1
   2773   2796     1
   2774   2787     1
   2774   2788     1
   2774   2793     1
   2774   2794     1
   2775   2785     1
   2775   2786     1
   2775   2793     1
   2775   2794     1
   2776   2798     1
   2776   4348     1
   2777   2785     1
   2777   2786     1
   2777   4351     1
   2777   4352     1
   2778   2798     1
   2778   4360     1
   2779   2787     1
   2779   2788     1
   2779   4363     1
   2779   4364     1
   2780   2785     1
   2780   2786     1
   2780   2787     1
   2780   2788     1
   2780   2797     1
   2781   2798     1
   2782   2793     1
   2782   2794     1
   2783   2789     1
   2783   2790     1
   2783   4348     1
   2784   2791     1
   2784   2792     1
   2784   4360     1
   2785   2798     1
   2785   2789     1
   2785   2790     1
   2786   2798     1
   2786   2789     1
   2786   2790     1
   2787   2798     1
   2787   2791     1
   2787   2792     1
   2788   2798     1
   2788   2791     1
   2788   2792     1
   2789   4347     1
   2790   4347     1
   2791   4359     1
   2792   4359     1
   2793   2798     1
   2793   2795     1
   2793   2796     1
   2794   2798     1
   2794   2795     1
   2794   2796     1
   2795   2797     1
   2796   2797     1
   2799   2815     1
   2799   2816     1
   2799   2817     1
   2799   2818     1
   2799   2821     1
   2799   2822     1
   2800   2813     1
   2800   2814     1
   2800   2819     1
   2800   2820     1
   2801   2811     1
   2801   2812     1
   2801   2819     1
   2801   2820     1
   2802   2824     1
   2802   4372     1
   2803   2811     1
   2803   2812     1
   2803   4375     1
   2803   4376     1
   2804   2824     1
   2804   4384     1
   2805   2813     1
   2805   2814     1
   2805   4387     1
   2805   4388     1
   2806   2811     1
   2806   2812     1
   2806   2813     1
   2806   2814     1
   2806   2823     1
   2807   2824     1
   2808   2819     1
   2808   2820     1
   2809   2815     1
   2809   2816     1
   2809   4372     1
   2810   2817     1
   2810   2818     1
   2810   4384     1
   2811   2824     1
   2811   2815     1
   2811   2816     1
   2812   2824     1
   2812   2815     1
   2812   2816     1
   2813   2824     1
   2813   2817     1
   2813   2818     1
   2814   2824     1
   2814   2817     1
   2814   2818     1
   2815   4371     1
   2816   4371     1
   2817   4383     1
   2818   4383     1
   2819   2824     1
   2819   2821     1
   2819   2822     1
   2820   2824     1
   2820   2821     1
   2820   2822     1
   2821   2823     1
   2822   2823     1
   2825   2841     1
   2825   2842     1
   2825   2843     1
   2825   2844     1
   2825   2847     1
   2825   2848     1
   2826   2839     1
   2826   2840     1
   2826   2845     1
   2826   2846     1
   2827   2837     1
   2827   2838     1
   2827   2845     1
   2827   2846     1
   2828   2850     1
   2828   4396     1
   2829   2837     1
   2829   2838     1
   2829   4399     1
   2829   4400     1
   2830   2850     1
   2830   4408     1
   2831   2839     1
   2831   2840     1
   2831   4411     1
   2831   4412     1
   2832   2837     1
   2832   2838     1
   2832   2839     1
   2832   2840     1
   2832   2849     1
   2833   2850     1
   2834   2845     1
   2834   2846     1
   2835   2841     1
   2835   2842     1
   2835   4396     1
   2836   2843     1
   2836   2844     1
   2836   4408     1
   2837   2850     1
   2837   2841     1
   2837   2842     1
   2838   2850     1
   2838   2841     1
   2838   2842     1
   2839   2850     1
   2839   2843     1
   2839   2844     1
   2840   2850     1
   2840   2843     1
   2840   2844     1
   2841   4395     1
   2842   4395     1
   2843   4407     1
   2844   4407     1
   2845   2850     1
   2845   2847     1
   2845   2848     1
   2846   2850     1
   2846   2847     1
   2846   2848     1
   2847   2849     1
   2848   2849     1
   2851   2867     1
   2851   2868     1
   2851   2869     1
   2851   2870     1
   2851   2873     1
   2851   2874     1
   2852   2865     1
   2852   2866     1
   2852   2871     1
   2852   2872     1
   2853   2863     1
   2853   2864     1
   2853   2871     1
   2853   2872     1
   2854   2876     1
   2854   4420     1
   2855   2863     1
   2855   2864     1
   2855   4423     1
   2855   4424     1
   2856   2876     1
   2856   4432     1
   2857   2865     1
   2857   2866     1
   2857   4435     1
   2857   4436     1
   2858   2863     1
   2858   2864     1
   2858   2865     1
   2858   2866     1
   2858   2875     1
   2859   2876     1
   2860   2871     1
   2860   2872     1
   2861   2867     1
   2861   2868     1
   2861   4420     1
   2862   2869     1
   2862   2870     1
   2862   4432     1
   2863   2876     1
   2863   2867     1
   2863   2868     1
   2864   2876     1
   2864   2867     1
   2864   2868     1
   2865   2876     1
   2865   2869     1
   2865   2870     1
   2866   2876     1
   2866   2869     1
   2866   2870     1
   2867   4419     1
   2868   4419     1
   2869   4431     1
   2870   4431     1
   2871   2876     1
   2871   2873     1
   2871   2874     1
   2872   2876     1
   2872   2873     1
   2872   2874     1
   2873   2875     1
   2874   2875     1
   2877   2893     1
   2877   2894     1
   2877   2895     1
   2877   2896     1
   2877   2899     1
   2877   2900     1
   2878   2891     1
   2878   2892     1
   2878   2897     1
   2878   2898     1
   2879   2889     1
   2879   2890     1
   2879   2897     1
   2879   2898     1
   2880   2902     1
   2880   4444     1
   2881   2889     1
   2881   2890     1
   2881   4447     1
   2881   4448     1
   2882   2902     1
   2882   4456     1
   2883   2891     1
   2883   2892     1
   2883   4459     1
   2883   4460     1
   2884   2889     1
   2884   2890     1
   2884   2891     1
   2884   2892     1
   2884   2901     1
   2885   2902     1
   2886   2897     1
   2886   2898     1
   2887   2893     1
   2887   2894     1
   2887   4444     1
   2888   2895     1
   2888   2896     1
   2888   4456     1
   2889   2902     1
   2889   2893     1
   2889   2894     1
   2890   2902     1
   2890   2893     1
   2890   2894     1
   2891   2902     1
   2891   2895     1
   2891   2896     1
   2892   2902     1
   2892   2895     1
   2892   2896     1
   2893   4443     1
   2894   4443     1
   2895   4455     1
   2896   4455     1
   2897   2902     1
   2897   2899     1
   2897   2900     1
   2898   2902     1
   2898   2899     1
   2898   2900     1
   2899   2901     1
   2900   2901     1
   2903   2919     1
   2903   2920     1
   2903   2921     1
   2903   2922     1
   2903   2925     1
   2903   2926     1
   2904   2917     1
   2904   2918     1
   2904   2923     1
   2904   2924     1
   2905   2915     1
   2905   2916     1
   2905   2923     1
   2905   2924     1
   2906   2928     1
   2906   4468     1
   2907   2915     1
   2907   2916     1
   2907   4471     1
   2907   4472     1
   2908   2928     1
   2908   4480     1
   2909   2917     1
   2909   2918     1
   2909   4483     1
   2909   4484     1
   2910   2915     1
   2910   2916     1
   2910   2917     1
   2910   2918     1
   2910   2927     1
   2911   2928     1
   2912   2923     1
   2912   2924     1
   2913   2919     1
   2913   2920     1
   2913   4468     1
   2914   2921     1
   2914   2922     1
   2914   4480     1
   2915   2928     1
   2915   2919     1
   2915   2920     1
   2916   2928     1
   2916   2919     1
   2916   2920     1
   2917   2928     1
   2917   2921     1
   2917   2922     1
   2918   2928     1
   2918   2921     1
   2918   2922     1
   2919   4467     1
   2920   4467     1
   2921   4479     1
   2922   4479     1
   2923   2928     1
   2923   2925     1
   2923   2926     1
   2924   2928     1
   2924   2925     1
   2924   2926     1
   2925   2927     1
   2926   2927     1
   2929   2945     1
   2929   2946     1
   2929   2947     1
   2929   2948     1
   2929   2951     1
   2929   2952     1
   2930   2943     1
   2930   2944     1
   2930   2949     1
   2930   2950     1
   2931   2941     1
   2931   2942     1
   2931   2949     1
   2931   2950     1
   2932   2954     1
   2932   4492     1
   2933   2941     1
   2933   2942     1
   2933   4495     1
   2933   4496     1
   2934   2954     1
   2934   4504     1
   2935   2943     1
   2935   2944     1
   2935   4507     1
   2935   4508     1
   2936   2941     1
   2936   2942     1
   2936   2943     1
   2936   2944     1
   2936   2953     1
   2937   2954     1
   2938   2949     1
   2938   2950     1
   2939   2945     1
   2939   2946     1
   2939   4492     1
   2940   2947     1
   2940   2948     1
   2940   4504     1
   2941   2954     1
   2941   2945     1
   2941   2946     1
   2942   2954     1
   2942   2945     1
   2942   2946     1
   2943   2954     1
   2943   2947     1
   2943   2948     1
   2944   2954     1
   2944   2947     1
   2944   2948     1
   2945   4491     1
   2946   4491     1
   2947   4503     1
   2948   4503     1
   2949   2954     1
   2949   2951     1
   2949   2952     1
   2950   2954     1
   2950   2951     1
   2950   2952     1
   2951   2953     1
   2952   2953     1
   2955   2971     1
   2955   2972     1
   2955   2973     1
   2955   2974     1
   2955   2977     1
   2955   2978     1
   2956   2969     1
   2956   2970     1
   2956   2975     1
   2956   2976     1
   2957   2967     1
   2957   2968     1
   2957   2975     1
   2957   2976     1
   2958   2980     1
   2958   4516     1
   2959   2967     1
   2959   2968     1
   2959   4519     1
   2959   4520     1
   2960   2980     1
   2960   4528     1
   2961   2969     1
   2961   2970     1
   2961   4531     1
   2961   4532     1
   2962   2967     1
   2962   2968     1
   2962   2969     1
   2962   2970     1
   2962   2979     1
   2963   2980     1
   2964   2975     1
   2964   2976     1
   2965   2971     1
   2965   2972     1
   2965   4516     1
   2966   2973     1
   2966   2974     1
   2966   4528     1
   2967   2980     1
   2967   2971     1
   2967   2972     1
   2968   2980     1
   2968   2971     1
   2968   2972     1
   2969   2980     1
   2969   2973     1
   2969   2974     1
   2970   2980     1
   2970   2973     1
   2970   2974     1
   2971   4515     1
   2972   4515     1
   2973   4527     1
   2974   4527     1
   2975   2980     1
   2975   2977     1
   2975   2978     1
   2976   2980     1
   2976   2977     1
   2976   2978     1
   2977   2979     1
   2978   2979     1
   2981   2997     1
   2981   2998     1
   2981   2999     1
   2981   3000     1
   2981   3003     1
   2981   3004     1
   2982   2995     1
   2982   2996     1
   2982   3001     1
   2982   3002     1
   2983   2993     1
   2983   2994     1
   2983   3001     1
   2983   3002     1
   2984   3006     1
   2984   4540     1
   2985   2993     1
   2985   2994     1
   2985   4543     1
   2985   4544     1
   2986   3006     1
   2986   4552     1
   2987   2995     1
   2987   2996     1
   2987   4555     1
   2987   4556     1
   2988   2993     1
   2988   2994     1
   2988   2995     1
   2988   2996     1
   2988   3005     1
   2989   3006     1
   2990   3001     1
   2990   3002     1
   2991   2997     1
   2991   2998     1
   2991   4540     1
   2992   2999     1
   2992   3000     1
   2992   4552     1
   2993   3006     1
   2993   2997     1
   2993   2998     1
   2994   3006     1
   2994   2997     1
   2994   2998     1
   2995   3006     1
   2995   2999     1
   2995   3000     1
   2996   3006     1
   2996   2999     1
   2996   3000     1
   2997   4539     1
   2998   4539     1
   2999   4551     1
   3000   4551     1
   3001   3006     1
   3001   3003     1
   3001   3004     1
   3002   3006     1
   3002   3003     1
   3002   3004     1
   3003   3005     1
   3004   3005     1
   3007   3023     1
   3007   3024     1
   3007   3025     1
   3007   3026     1
   3007   3029     1
   3007   3030     1
   3008   3021     1
   3008   3022     1
   3008   3027     1
   3008   3028     1
   3009   3019     1
   3009   3020     1
   3009   3027     1
   3009   3028     1
   3010   3032     1
   3010   4564     1
   3011   3019     1
   3011   3020     1
   3011   4567     1
   3011   4568     1
   3012   3032     1
   3012   4576     1
   3013   3021     1
   3013   3022     1
   3013   4579     1
   3013   4580     1
   3014   3019     1
   3014   3020     1
   3014   3021     1
   3014   3022     1
   3014   3031     1
   3015   3032     1
   3016   3027     1
   3016   3028     1
   3017   3023     1
   3017   3024     1
   3017   4564     1
   3018   3025     1
   3018   3026     1
   3018   4576     1
   3019   3032     1
   3019   3023     1
   3019   3024     1
   3020   3032     1
   3020   3023     1
   3020   3024     1
   3021   3032     1
   3021   3025     1
   3021   3026     1
   3022   3032     1
   3022   3025     1
   3022   3026     1
   3023   4563     1
   3024   4563     1
   3025   4575     1
   3026   4575     1
   3027   3032     1
   3027   3029     1
   3027   3030     1
   3028   3032     1
   3028   3029     1
   3028   3030     1
   3029   3031     1
   3030   3031     1
   3033   3049     1
   3033   3050     1
   3033   3051     1
   3033   3052     1
   3033   3055     1
   3033   3056     1
   3034   3047     1
   3034   3048     1
   3034   3053     1
   3034   3054     1
   3035   3045     1
   3035   3046     1
   3035   3053     1
   3035   3054     1
   3036   3058     1
   3036   4588     1
   3037   3045     1
   3037   3046     1
   3037   4591     1
   3037   4592     1
   3038   3058     1
   3038   4600     1
   3039   3047     1
   3039   3048     1
   3039   4603     1
   3039   4604     1
   3040   3045     1
   3040   3046     1
   3040   3047     1
   3040   3048     1
   3040   3057     1
   3041   3058     1
   3042   3053     1
   3042   3054     1
   3043   3049     1
   3043   3050     1
   3043   4588     1
   3044   3051     1
   3044   3052     1
   3044   4600     1
   3045   3058     1
   3045   3049     1
   3045   3050     1
   3046   3058     1
   3046   3049     1
   3046   3050     1
   3047   3058     1
   3047   3051     1
   3047   3052     1
   3048   3058     1
   3048   3051     1
   3048   3052     1
   3049   4587     1
   3050   4587     1
   3051   4599     1
   3052   4599     1
   3053   3058     1
   3053   3055     1
   3053   3056     1
   3054   3058     1
   3054   3055     1
   3054   3056     1
   3055   3057     1
   3056   3057     1
   3059   3075     1
   3059   3076     1
   3059   3077     1
   3059   3078     1
   3059   3081     1
   3059   3082     1
   3060   3073     1
   3060   3074     1
   3060   3079     1
   3060   3080     1
   3061   3071     1
   3061   3072     1
   3061   3079     1
   3061   3080     1
   3062   3084     1
   3062   4612     1
   3063   3071     1
   3063   3072     1
   3063   4615     1
   3063   4616     1
   3064   3084     1
   3064   4624     1
   3065   3073     1
   3065   3074     1
   3065   4627     1
   3065   4628     1
   3066   3071     1
   3066   3072     1
   3066   3073     1
   3066   3074     1
   3066   3083     1
   3067   3084     1
   3068   3079     1
   3068   3080     1
   3069   3075     1
   3069   3076     1
   3069   4612     1
   3070   3077     1
   3070   3078     1
   3070   4624     1
   3071   3084     1
   3071   3075     1
   3071   3076     1
   3072   3084     1
   3072   3075     1
   3072   3076     1
   3073   3084     1
   3073   3077     1
   3073   3078     1
   3074   3084     1
   3074   3077     1
   3074   3078     1
   3075   4611     1
   3076   4611     1
   3077   4623     1
   3078   4623     1
   3079   3084     1
   3079   3081     1
   3079   3082     1
   3080   3084     1
   3080   3081     1
   3080   3082     1
   3081   3083     1
   3082   3083     1
   3085   3101     1
   3085   3102     1
   3085   3103     1
   3085   3104     1
   3085   3107     1
   3085   3108     1
   3086   3099     1
   3086   3100     1
   3086   3105     1
   3086   3106     1
   3087   3097     1
   3087   3098     1
   3087   3105     1
   3087   3106     1
   3088   3110     1
   3088   4636     1
   3089   3097     1
   3089   3098     1
   3089   4639     1
   3089   4640     1
   3090   3110     1
   3090   4648     1
   3091   3099     1
   3091   3100     1
   3091   4651     1
   3091   4652     1
   3092   3097     1
   3092   3098     1
   3092   3099     1
   3092   3100     1
   3092   3109     1
   3093   3110     1
   3094   3105     1
   3094   3106     1
   3095   3101     1
   3095   3102     1
   3095   4636     1
   3096   3103     1
   3096   3104     1
   3096   4648     1
   3097   3110     1
   3097   3101     1
   3097   3102     1
   3098   3110     1
   3098   3101     1
   3098   3102     1
   3099   3110     1
   3099   3103     1
   3099   3104     1
   3100   3110     1
   3100   3103     1
   3100   3104     1
   3101   4635     1
   3102   4635     1
   3103   4647     1
   3104   4647     1
   3105   3110     1
   3105   3107     1
   3105   3108     1
   3106   3110     1
   3106   3107     1
   3106   3108     1
   3107   3109     1
   3108   3109     1
   3111   3127     1
   3111   3128     1
   3111   3129     1
   3111   3130     1
   3111   3133     1
   3111   3134     1
   3112   3125     1
   3112   3126     1
   3112   3131     1
   3112   3132     1
   3113   3123     1
   3113   3124     1
   3113   3131     1
   3113   3132     1
   3114   3136     1
   3114   4660     1
   3115   3123     1
   3115   3124     1
   3115   4663     1
   3115   4664     1
   3116   3136     1
   3116   4672     1
   3117   3125     1
   3117   3126     1
   3117   4675     1
   3117   4676     1
   3118   3123     1
   3118   3124     1
   3118   3125     1
   3118   3126     1
   3118   3135     1
   3119   3136     1
   3120   3131     1
   3120   3132     1
   3121   3127     1
   3121   3128     1
   3121   4660     1
   3122   3129     1
   3122   3130     1
   3122   4672     1
   3123   3136     1
   3123   3127     1
   3123   3128     1
   3124   3136     1
   3124   3127     1
   3124   3128     1
   3125   3136     1
   3125   3129     1
   3125   3130     1
   3126   3136     1
   3126   3129     1
   3126   3130     1
   3127   4659     1
   3128   4659     1
   3129   4671     1
   3130   4671     1
   3131   3136     1
   3131   3133     1
   3131   3134     1
   3132   3136     1
   3132   3133     1
   3132   3134     1
   3133   3135     1
   3134   3135     1
   3137   3153     1
   3137   3154     1
   3137   3155     1
   3137   3156     1
   3137   3159     1
   3137   3160     1
   3138   3151     1
   3138   3152     1
   3138   3157     1
   3138   3158     1
   3139   3149     1
   3139   3150     1
   3139   3157     1
   3139   3158     1
   3140   3162     1
   3140   4684     1
   3141   3149     1
   3141   3150     1
   3141   4687     1
   3141   4688     1
   3142   3162     1
   3142   4696     1
   3143   3151     1
   3143   3152     1
   3143   4699     1
   3143   4700     1
   3144   3149     1
   3144   3150     1
   3144   3151     1
   3144   3152     1
   3144   3161     1
   3145   3162     1
   3146   3157     1
   3146   3158     1
   3147   3153     1
   3147   3154     1
   3147   4684     1
   3148   3155     1
   3148   3156     1
   3148   4696     1
   3149   3162     1
   3149   3153     1
   3149   3154     1
   3150   3162     1
   3150   3153     1
   3150   3154     1
   3151   3162     1
   3151   3155     1
   3151   3156     1
   3152   3162     1
   3152   3155     1
   3152   3156     1
   3153   4683     1
   3154   4683     1
   3155   4695     1
   3156   4695     1
   3157   3162     1
   3157   3159     1
   3157   3160     1
   3158   3162     1
   3158   3159     1
   3158   3160     1
   3159   3161     1
   3160   3161     1
   3163   3179     1
   3163   3180     1
   3163   3181     1
   3163   3182     1
   3163   3185     1
   3163   3186     1
   3164   3177     1
   3164   3178     1
   3164   3183     1
   3164   3184     1
   3165   3175     1
   3165   3176     1
   3165   3183     1
   3165   3184     1
   3166   3188     1
   3166   4708     1
   3167   3175     1
   3167   3176     1
   3167   4711     1
   3167   4712     1
   3168   3188     1
   3168   4720     1
   3169   3177     1
   3169   3178     1
   3169   4723     1
   3169   4724     1
   3170   3175     1
   3170   3176     1
   3170   3177     1
   3170   3178     1
   3170   3187     1
   3171   3188     1
   3172   3183     1
   3172   3184     1
   3173   3179     1
   3173   3180     1
   3173   4708     1
   3174   3181     1
   3174   3182     1
   3174   4720     1
   3175   3188     1
   3175   3179     1
   3175   3180     1
   3176   3188     1
   3176   3179     1
   3176   3180     1
   3177   3188     1
   3177   3181     1
   3177   3182     1
   3178   3188     1
   3178   3181     1
   3178   3182     1
   3179   4707     1
   3180   4707     1
   3181   4719     1
   3182   4719     1
   3183   3188     1
   3183   3185     1
   3183   3186     1
   3184   3188     1
   3184   3185     1
   3184   3186     1
   3185   3187     1
   3186   3187     1
   3189   3205     1
   3189   3206     1
   3189   3207     1
   3189   3208     1
   3189   3211     1
   3189   3212     1
   3190   3203     1
   3190   3204     1
   3190   3209     1
   3190   3210     1
   3191   3201     1
   3191   3202     1
   3191   3209     1
   3191   3210     1
   3192   3214     1
   3192   4732     1
   3193   3201     1
   3193   3202     1
   3193   4735     1
   3193   4736     1
   3194   3214     1
   3194   4744     1
   3195   3203     1
   3195   3204     1
   3195   4747     1
   3195   4748     1
   3196   3201     1
   3196   3202     1
   3196   3203     1
   3196   3204     1
   3196   3213     1
   3197   3214     1
   3198   3209     1
   3198   3210     1
   3199   3205     1
   3199   3206     1
   3199   4732     1
   3200   3207     1
   3200   3208     1
   3200   4744     1
   3201   3214     1
   3201   3205     1
   3201   3206     1
   3202   3214     1
   3202   3205     1
   3202   3206     1
   3203   3214     1
   3203   3207     1
   3203   3208     1
   3204   3214     1
   3204   3207     1
   3204   3208     1
   3205   4731     1
   3206   4731     1
   3207   4743     1
   3208   4743     1
   3209   3214     1
   3209   3211     1
   3209   3212     1
   3210   3214     1
   3210   3211     1
   3210   3212     1
   3211   3213     1
   3212   3213     1
   3215   3231     1
   3215   3232     1
   3215   3233     1
   3215   3234     1
   3215   3237     1
   3215   3238     1
   3216   3229     1
   3216   3230     1
   3216   3235     1
   3216   3236     1
   3217   3227     1
   3217   3228     1
   3217   3235     1
   3217   3236     1
   3218   3240     1
   3218   4756     1
   3219   3227     1
   3219   3228     1
   3219   4759     1
   3219   4760     1
   3220   3240     1
   3220   4768     1
   3221   3229     1
   3221   3230     1
   3221   4771     1
   3221   4772     1
   3222   3227     1
   3222   3228     1
   3222   3229     1
   3222   3230     1
   3222   3239     1
   3223   3240     1
   3224   3235     1
   3224   3236     1
   3225   3231     1
   3225   3232     1
   3225   4756     1
   3226   3233     1
   3226   3234     1
   3226   4768     1
   3227   3240     1
   3227   3231     1
   3227   3232     1
   3228   3240     1
   3228   3231     1
   3228   3232     1
   3229   3240     1
   3229   3233     1
   3229   3234     1
   3230   3240     1
   3230   3233     1
   3230   3234     1
   3231   4755     1
   3232   4755     1
   3233   4767     1
   3234   4767     1
   3235   3240     1
   3235   3237     1
   3235   3238     1
   3236   3240     1
   3236   3237     1
   3236   3238     1
   3237   3239     1
   3238   3239     1
   3241   3257     1
   3241   3258     1
   3241   3259     1
   3241   3260     1
   3241   3263     1
   3241   3264     1
   3242   3255     1
   3242   3256     1
   3242   3261     1
   3242   3262     1
   3243   3253     1
   3243   3254     1
   3243   3261     1
   3243   3262     1
   3244   3266     1
   3244   4780     1
   3245   3253     1
   3245   3254     1
   3245   4783     1
   3245   4784     1
   3246   3266     1
   3246   4792     1
   3247   3255     1
   3247   3256     1
   3247   4795     1
   3247   4796     1
   3248   3253     1
   3248   3254     1
   3248   3255     1
   3248   3256     1
   3248   3265     1
   3249   3266     1
   3250   3261     1
   3250   3262     1
   3251   3257     1
   3251   3258     1
   3251   4780     1
   3252   3259     1
   3252   3260     1
   3252   4792     1
   3253   3266     1
   3253   3257     1
   3253   3258     1
   3254   3266     1
   3254   3257     1
   3254   3258     1
   3255   3266     1
   3255   3259     1
   3255   3260     1
   3256   3266     1
   3256   3259     1
   3256   3260     1
   3257   4779     1
   3258   4779     1
   3259   4791     1
   3260   4791     1
   3261   3266     1
   3261   3263     1
   3261   3264     1
   3262   3266     1
   3262   3263     1
   3262   3264     1
   3263   3265     1
   3264   3265     1
   3267   3273     1
   3267   3274     1
   3268   3270     1
   3268   3271     1
   3268   3272     1
   3269   3276     1
   3269   3277     1
   3269   3278     1
   3271   3275     1
   3271   3273     1
   3271   3274     1
   3272   3275     1
   3272   3273     1
   3272   3274     1
   3273   3276     1
   3273   3277     1
   3273   3278     1
   3274   3276     1
   3274   3277     1
   3274   3278     1
   3279   3285     1
   3279   3286     1
   3280   3282     1
   3280   3283     1
   3280   3284     1
   3281   3288     1
   3281   3289     1
   3281   3290     1
   3283   3287     1
   3283   3285     1
   3283   3286     1
   3284   3287     1
   3284   3285     1
   3284   3286     1
   3285   3288     1
   3285   3289     1
   3285   3290     1
   3286   3288     1
   3286   3289     1
   3286   3290     1
   3291   3297     1
   3291   3298     1
   3292   3294     1
   3292   3295     1
   3292   3296     1
   3293   3300     1
   3293   3301     1
   3293   3302     1
   3295   3299     1
   3295   3297     1
   3295   3298     1
   3296   3299     1
   3296   3297     1
   3296   3298     1
   3297   3300     1
   3297   3301     1
   3297   3302     1
   3298   3300     1
   3298   3301     1
   3298   3302     1
   3303   3309     1
   3303   3310     1
   3304   3306     1
   3304   3307     1
   3304   3308     1
   3305   3312     1
   3305   3313     1
   3305   3314     1
   3307   3311     1
   3307   3309     1
   3307   3310     1
   3308   3311     1
   3308   3309     1
   3308   3310     1
   3309   3312     1
   3309   3313     1
   3309   3314     1
   3310   3312     1
   3310   3313     1
   3310   3314     1
   3315   3321     1
   3315   3322     1
   3316   3318     1
   3316   3319     1
   3316   3320     1
   3317   3324     1
   3317   3325     1
   3317   3326     1
   3319   3323     1
   3319   3321     1
   3319   3322     1
   3320   3323     1
   3320   3321     1
   3320   3322     1
   3321   3324     1
   3321   3325     1
   3321   3326     1
   3322   3324     1
   3322   3325     1
   3322   3326     1
   3327   3333     1
   3327   3334     1
   3328   3330     1
   3328   3331     1
   3328   3332     1
   3329   3336     1
   3329   3337     1
   3329   3338     1
   3331   3335     1
   3331   3333     1
   3331   3334     1
   3332   3335     1
   3332   3333     1
   3332   3334     1
   3333   3336     1
   3333   3337     1
   3333   3338     1
   3334   3336     1
   3334   3337     1
   3334   3338     1
   3339   3345     1
   3339   3346     1
   3340   3342     1
   3340   3343     1
   3340   3344     1
   3341   3348     1
   3341   3349     1
   3341   3350     1
   3343   3347     1
   3343   3345     1
   3343   3346     1
   3344   3347     1
   3344   3345     1
   3344   3346     1
   3345   3348     1
   3345   3349     1
   3345   3350     1
   3346   3348     1
   3346   3349     1
   3346   3350     1
   3351   3357     1
   3351   3358     1
   3352   3354     1
   3352   3355     1
   3352   3356     1
   3353   3360     1
   3353   3361     1
   3353   3362     1
   3355   3359     1
   3355   3357     1
   3355   3358     1
   3356   3359     1
   3356   3357     1
   3356   3358     1
   3357   3360     1
   3357   3361     1
   3357   3362     1
   3358   3360     1
   3358   3361     1
   3358   3362     1
   3363   3369     1
   3363   3370     1
   3364   3366     1
   3364   3367     1
   3364   3368     1
   3365   3372     1
   3365   3373     1
   3365   3374     1
   3367   3371     1
   3367   3369     1
   3367   3370     1
   3368   3371     1
   3368   3369     1
   3368   3370     1
   3369   3372     1
   3369   3373     1
   3369   3374     1
   3370   3372     1
   3370   3373     1
   3370   3374     1
   3375   3381     1
   3375   3382     1
   3376   3378     1
   3376   3379     1
   3376   3380     1
   3377   3384     1
   3377   3385     1
   3377   3386     1
   3379   3383     1
   3379   3381     1
   3379   3382     1
   3380   3383     1
   3380   3381     1
   3380   3382     1
   3381   3384     1
   3381   3385     1
   3381   3386     1
   3382   3384     1
   3382   3385     1
   3382   3386     1
   3387   3393     1
   3387   3394     1
   3388   3390     1
   3388   3391     1
   3388   3392     1
   3389   3396     1
   3389   3397     1
   3389   3398     1
   3391   3395     1
   3391   3393     1
   3391   3394     1
   3392   3395     1
   3392   3393     1
   3392   3394     1
   3393   3396     1
   3393   3397     1
   3393   3398     1
   3394   3396     1
   3394   3397     1
   3394   3398     1
   3399   3405     1
   3399   3406     1
   3400   3402     1
   3400   3403     1
   3400   3404     1
   3401   3408     1
   3401   3409     1
   3401   3410     1
   3403   3407     1
   3403   3405     1
   3403   3406     1
   3404   3407     1
   3404   3405     1
   3404   3406     1
   3405   3408     1
   3405   3409     1
   3405   3410     1
   3406   3408     1
   3406   3409     1
   3406   3410     1
   3411   3417     1
   3411   3418     1
   3412   3414     1
   3412   3415     1
   3412   3416     1
   3413   3420     1
   3413   3421     1
   3413   3422     1
   3415   3419     1
   3415   3417     1
   3415   3418     1
   3416   3419     1
   3416   3417     1
   3416   3418     1
   3417   3420     1
   3417   3421     1
   3417   3422     1
   3418   3420     1
   3418   3421     1
   3418   3422     1
   3423   3429     1
   3423   3430     1
   3424   3426     1
   3424   3427     1
   3424   3428     1
   3425   3432     1
   3425   3433     1
   3425   3434     1
   3427   3431     1
   3427   3429     1
   3427   3430     1
   3428   3431     1
   3428   3429     1
   3428   3430     1
   3429   3432     1
   3429   3433     1
   3429   3434     1
   3430   3432     1
   3430   3433     1
   3430   3434     1
   3435   3441     1
   3435   3442     1
   3436   3438     1
   3436   3439     1
   3436   3440     1
   3437   3444     1
   3437   3445     1
   3437   3446     1
   3439   3443     1
   3439   3441     1
   3439   3442     1
   3440   3443     1
   3440   3441     1
   3440   3442     1
   3441   3444     1
   3441   3445     1
   3441   3446     1
   3442   3444     1
   3442   3445     1
   3442   3446     1
   3447   3453     1
   3447   3454     1
   3448   3450     1
   3448   3451     1
   3448   3452     1
   3449   3456     1
   3449   3457     1
   3449   3458     1
   3451   3455     1
   3451   3453     1
   3451   3454     1
   3452   3455     1
   3452   3453     1
   3452   3454     1
   3453   3456     1
   3453   3457     1
   3453   3458     1
   3454   3456     1
   3454   3457     1
   3454   3458     1
   3459   3465     1
   3459   3466     1
   3460   3462     1
   3460   3463     1
   3460   3464     1
   3461   3468     1
   3461   3469     1
   3461   3470     1
   3463   3467     1
   3463   3465     1
   3463   3466     1
   3464   3467     1
   3464   3465     1
   3464   3466     1
   3465   3468     1
   3465   3469     1
   3465   3470     1
   3466   3468     1
   3466   3469     1
   3466   3470     1
   3471   3477     1
   3471   3478     1
   3472   3474     1
   3472   3475     1
   3472   3476     1
   3473   3480     1
   3473   3481     1
   3473   3482     1
   3475   3479     1
   3475   3477     1
   3475   3478     1
   3476   3479     1
   3476   3477     1
   3476   3478     1
   3477   3480     1
   3477   3481     1
   3477   3482     1
   3478   3480     1
   3478   3481     1
   3478   3482     1
   3483   3489     1
   3483   3490     1
   3484   3486     1
   3484   3487     1
   3484   3488     1
   3485   3492     1
   3485   3493     1
   3485   3494     1
   3487   3491     1
   3487   3489     1
   3487   3490     1
   3488   3491     1
   3488   3489     1
   3488   3490     1
   3489   3492     1
   3489   3493     1
   3489   3494     1
   3490   3492     1
   3490   3493     1
   3490   3494     1
   3495   3501     1
   3495   3502     1
   3496   3498     1
   3496   3499     1
   3496   3500     1
   3497   3504     1
   3497   3505     1
   3497   3506     1
   3499   3503     1
   3499   3501     1
   3499   3502     1
   3500   3503     1
   3500   3501     1
   3500   3502     1
   3501   3504     1
   3501   3505     1
   3501   3506     1
   3502   3504     1
   3502   3505     1
   3502   3506     1
   3507   3513     1
   3507   3514     1
   3508   3510     1
   3508   3511     1
   3508   3512     1
   3509   3516     1
   3509   3517     1
   3509   3518     1
   3511   3515     1
   3511   3513     1
   3511   3514     1
   3512   3515     1
   3512   3513     1
   3512   3514     1
   3513   3516     1
   3513   3517     1
   3513   3518     1
   3514   3516     1
   3514   3517     1
   3514   3518     1
   3519   3525     1
   3519   3526     1
   3520   3522     1
   3520   3523     1
   3520   3524     1
   3521   3528     1
   3521   3529     1
   3521   3530     1
   3523   3527     1
   3523   3525     1
   3523   3526     1
   3524   3527     1
   3524   3525     1
   3524   3526     1
   3525   3528     1
   3525   3529     1
   3525   3530     1
   3526   3528     1
   3526   3529     1
   3526   3530     1
   3531   3537     1
   3531   3538     1
   3532   3534     1
   3532   3535     1
   3532   3536     1
   3533   3540     1
   3533   3541     1
   3533   3542     1
   3535   3539     1
   3535   3537     1
   3535   3538     1
   3536   3539     1
   3536   3537     1
   3536   3538     1
   3537   3540     1
   3537   3541     1
   3537   3542     1
   3538   3540     1
   3538   3541     1
   3538   3542     1
   3543   3549     1
   3543   3550     1
   3544   3546     1
   3544   3547     1
   3544   3548     1
   3545   3552     1
   3545   3553     1
   3545   3554     1
   3547   3551     1
   3547   3549     1
   3547   3550     1
   3548   3551     1
   3548   3549     1
   3548   3550     1
   3549   3552     1
   3549   3553     1
   3549   3554     1
   3550   3552     1
   3550   3553     1
   3550   3554     1
   3555   3561     1
   3555   3562     1
   3556   3558     1
   3556   3559     1
   3556   3560     1
   3557   3564     1
   3557   3565     1
   3557   3566     1
   3559   3563     1
   3559   3561     1
   3559   3562     1
   3560   3563     1
   3560   3561     1
   3560   3562     1
   3561   3564     1
   3561   3565     1
   3561   3566     1
   3562   3564     1
   3562   3565     1
   3562   3566     1
   3567   3573     1
   3567   3574     1
   3568   3570     1
   3568   3571     1
   3568   3572     1
   3569   3576     1
   3569   3577     1
   3569   3578     1
   3571   3575     1
   3571   3573     1
   3571   3574     1
   3572   3575     1
   3572   3573     1
   3572   3574     1
   3573   3576     1
   3573   3577     1
   3573   3578     1
   3574   3576     1
   3574   3577     1
   3574   3578     1
   3579   3585     1
   3579   3586     1
   3580   3582     1
   3580   3583     1
   3580   3584     1
   3581   3588     1
   3581   3589     1
   3581   3590     1
   3583   3587     1
   3583   3585     1
   3583   3586     1
   3584   3587     1
   3584   3585     1
   3584   3586     1
   3585   3588     1
   3585   3589     1
   3585   3590     1
   3586   3588     1
   3586   3589     1
   3586   3590     1
   3591   3597     1
   3591   3598     1
   3592   3594     1
   3592   3595     1
   3592   3596     1
   3593   3600     1
   3593   3601     1
   3593   3602     1
   3595   3599     1
   3595   3597     1
   3595   3598     1
   3596   3599     1
   3596   3597     1
   3596   3598     1
   3597   3600     1
   3597   3601     1
   3597   3602     1
   3598   3600     1
   3598   3601     1
   3598   3602     1
   3603   3609     1
   3603   3610     1
   3604   3606     1
   3604   3607     1
   3604   3608     1
   3605   3612     1
   3605   3613     1
   3605   3614     1
   3607   3611     1
   3607   3609     1
   3607   3610     1
   3608   3611     1
   3608   3609     1
   3608   3610     1
   3609   3612     1
   3609   3613     1
   3609   3614     1
   3610   3612     1
   3610   3613     1
   3610   3614     1
   3615   3621     1
   3615   3622     1
   3616   3618     1
   3616   3619     1
   3616   3620     1
   3617   3624     1
   3617   3625     1
   3617   3626     1
   3619   3623     1
   3619   3621     1
   3619   3622     1
   3620   3623     1
   3620   3621     1
   3620   3622     1
   3621   3624     1
   3621   3625     1
   3621   3626     1
   3622   3624     1
   3622   3625     1
   3622   3626     1
   3627   3633     1
   3627   3634     1
   3628   3630     1
   3628   3631     1
   3628   3632     1
   3629   3636     1
   3629   3637     1
   3629   3638     1
   3631   3635     1
   3631   3633     1
   3631   3634     1
   3632   3635     1
   3632   3633     1
   3632   3634     1
   3633   3636     1
   3633   3637     1
   3633   3638     1
   3634   3636     1
   3634   3637     1
   3634   3638     1
   3639   3645     1
   3639   3646     1
   3640   3642     1
   3640   3643     1
   3640   3644     1
   3641   3648     1
   3641   3649     1
   3641   3650     1
   3643   3647     1
   3643   3645     1
   3643   3646     1
   3644   3647     1
   3644   3645     1
   3644   3646     1
   3645   3648     1
   3645   3649     1
   3645   3650     1
   3646   3648     1
   3646   3649     1
   3646   3650     1
   3651   3657     1
   3651   3658     1
   3652   3654     1
   3652   3655     1
   3652   3656     1
   3653   3660     1
   3653   3661     1
   3653   3662     1
   3655   3659     1
   3655   3657     1
   3655   3658     1
   3656   3659     1
   3656   3657     1
   3656   3658     1
   3657   3660     1
   3657   3661     1
   3657   3662     1
   3658   3660     1
   3658   3661     1
   3658   3662     1
   3663   3669     1
   3663   3670     1
   3664   3666     1
   3664   3667     1
   3664   3668     1
   3665   3672     1
   3665   3673     1
   3665   3674     1
   3667   3671     1
   3667   3669     1
   3667   3670     1
   3668   3671     1
   3668   3669     1
   3668   3670     1
   3669   3672     1
   3669   3673     1
   3669   3674     1
   3670   3672     1
   3670   3673     1
   3670   3674     1
   3675   3681     1
   3675   3682     1
   3676   3678     1
   3676   3679     1
   3676   3680     1
   3677   3684     1
   3677   3685     1
   3677   3686     1
   3679   3683     1
   3679   3681     1
   3679   3682     1
   3680   3683     1
   3680   3681     1
   3680   3682     1
   3681   3684     1
   3681   3685     1
   3681   3686     1
   3682   3684     1
   3682   3685     1
   3682   3686     1
   3687   3693     1
   3687   3694     1
   3688   3690     1
   3688   3691     1
   3688   3692     1
   3689   3696     1
   3689   3697     1
   3689   3698     1
   3691   3695     1
   3691   3693     1
   3691   3694     1
   3692   3695     1
   3692   3693     1
   3692   3694     1
   3693   3696     1
   3693   3697     1
   3693   3698     1
   3694   3696     1
   3694   3697     1
   3694   3698     1
   3699   3705     1
   3699   3706     1
   3700   3702     1
   3700   3703     1
   3700   3704     1
   3701   3708     1
   3701   3709     1
   3701   3710     1
   3703   3707     1
   3703   3705     1
   3703   3706     1
   3704   3707     1
   3704   3705     1
   3704   3706     1
   3705   3708     1
   3705   3709     1
   3705   3710     1
   3706   3708     1
   3706   3709     1
   3706   3710     1
   3711   3717     1
   3711   3718     1
   3712   3714     1
   3712   3715     1
   3712   3716     1
   3713   3720     1
   3713   3721     1
   3713   3722     1
   3715   3719     1
   3715   3717     1
   3715   3718     1
   3716   3719     1
   3716   3717     1
   3716   3718     1
   3717   3720     1
   3717   3721     1
   3717   3722     1
   3718   3720     1
   3718   3721     1
   3718   3722     1
   3723   3729     1
   3723   3730     1
   3724   3726     1
   3724   3727     1
   3724   3728     1
   3725   3732     1
   3725   3733     1
   3725   3734     1
   3727   3731     1
   3727   3729     1
   3727   3730     1
   3728   3731     1
   3728   3729     1
   3728   3730     1
   3729   3732     1
   3729   3733     1
   3729   3734     1
   3730   3732     1
   3730   3733     1
   3730   3734     1
   3735   3741     1
   3735   3742     1
   3736   3738     1
   3736   3739     1
   3736   3740     1
   3737   3744     1
   3737   3745     1
   3737   3746     1
   3739   3743     1
   3739   3741     1
   3739   3742     1
   3740   3743     1
   3740   3741     1
   3740   3742     1
   3741   3744     1
   3741   3745     1
   3741   3746     1
   3742   3744     1
   3742   3745     1
   3742   3746     1
   3747   3753     1
   3747   3754     1
   3748   3750     1
   3748   3751     1
   3748   3752     1
   3749   3756     1
   3749   3757     1
   3749   3758     1
   3751   3755     1
   3751   3753     1
   3751   3754     1
   3752   3755     1
   3752   3753     1
   3752   3754     1
   3753   3756     1
   3753   3757     1
   3753   3758     1
   3754   3756     1
   3754   3757     1
   3754   3758     1
   3759   3765     1
   3759   3766     1
   3760   3762     1
   3760   3763     1
   3760   3764     1
   3761   3768     1
   3761   3769     1
   3761   3770     1
   3763   3767     1
   3763   3765     1
   3763   3766     1
   3764   3767     1
   3764   3765     1
   3764   3766     1
   3765   3768     1
   3765   3769     1
   3765   3770     1
   3766   3768     1
   3766   3769     1
   3766   3770     1
   3771   3777     1
   3771   3778     1
   3772   3774     1
   3772   3775     1
   3772   3776     1
   3773   3780     1
   3773   3781     1
   3773   3782     1
   3775   3779     1
   3775   3777     1
   3775   3778     1
   3776   3779     1
   3776   3777     1
   3776   3778     1
   3777   3780     1
   3777   3781     1
   3777   3782     1
   3778   3780     1
   3778   3781     1
   3778   3782     1
   3783   3789     1
   3783   3790     1
   3784   3786     1
   3784   3787     1
   3784   3788     1
   3785   3792     1
   3785   3793     1
   3785   3794     1
   3787   3791     1
   3787   3789     1
   3787   3790     1
   3788   3791     1
   3788   3789     1
   3788   3790     1
   3789   3792     1
   3789   3793     1
   3789   3794     1
   3790   3792     1
   3790   3793     1
   3790   3794     1
   3795   3801     1
   3795   3802     1
   3796   3798     1
   3796   3799     1
   3796   3800     1
   3797   3804     1
   3797   3805     1
   3797   3806     1
   3799   3803     1
   3799   3801     1
   3799   3802     1
   3800   3803     1
   3800   3801     1
   3800   3802     1
   3801   3804     1
   3801   3805     1
   3801   3806     1
   3802   3804     1
   3802   3805     1
   3802   3806     1
   3807   3813     1
   3807   3814     1
   3808   3810     1
   3808   3811     1
   3808   3812     1
   3809   3816     1
   3809   3817     1
   3809   3818     1
   3811   3815     1
   3811   3813     1
   3811   3814     1
   3812   3815     1
   3812   3813     1
   3812   3814     1
   3813   3816     1
   3813   3817     1
   3813   3818     1
   3814   3816     1
   3814   3817     1
   3814   3818     1
   3819   3825     1
   3819   3826     1
   3820   3822     1
   3820   3823     1
   3820   3824     1
   3821   3828     1
   3821   3829     1
   3821   3830     1
   3823   3827     1
   3823   3825     1
   3823   3826     1
   3824   3827     1
   3824   3825     1
   3824   3826     1
   3825   3828     1
   3825   3829     1
   3825   3830     1
   3826   3828     1
   3826   3829     1
   3826   3830     1
   3831   3837     1
   3831   3838     1
   3832   3834     1
   3832   3835     1
   3832   3836     1
   3833   3840     1
   3833   3841     1
   3833   3842     1
   3835   3839     1
   3835   3837     1
   3835   3838     1
   3836   3839     1
   3836   3837     1
   3836   3838     1
   3837   3840     1
   3837   3841     1
   3837   3842     1
   3838   3840     1
   3838   3841     1
   3838   3842     1
   3843   3849     1
   3843   3850     1
   3844   3846     1
   3844   3847     1
   3844   3848     1
   3845   3852     1
   3845   3853     1
   3845   3854     1
   3847   3851     1
   3847   3849     1
   3847   3850     1
   3848   3851     1
   3848   3849     1
   3848   3850     1
   3849   3852     1
   3849   3853     1
   3849   3854     1
   3850   3852     1
   3850   3853     1
   3850   3854     1
   3855   3861     1
   3855   3862     1
   3856   3858     1
   3856   3859     1
   3856   3860     1
   3857   3864     1
   3857   3865     1
   3857   3866     1
   3859   3863     1
   3859   3861     1
   3859   3862     1
   3860   3863     1
   3860   3861     1
   3860   3862     1
   3861   3864     1
   3861   3865     1
   3861   3866     1
   3862   3864     1
   3862   3865     1
   3862   3866     1
   3867   3873     1
   3867   3874     1
   3868   3870     1
   3868   3871     1
   3868   3872     1
   3869   3876     1
   3869   3877     1
   3869   3878     1
   3871   3875     1
   3871   3873     1
   3871   3874     1
   3872   3875     1
   3872   3873     1
   3872   3874     1
   3873   3876     1
   3873   3877     1
   3873   3878     1
   3874   3876     1
   3874   3877     1
   3874   3878     1
   3879   3885     1
   3879   3886     1
   3880   3882     1
   3880   3883     1
   3880   3884     1
   3881   3888     1
   3881   3889     1
   3881   3890     1
   3883   3887     1
   3883   3885     1
   3883   3886     1
   3884   3887     1
   3884   3885     1
   3884   3886     1
   3885   3888     1
   3885   3889     1
   3885   3890     1
   3886   3888     1
   3886   3889     1
   3886   3890     1
   3891   3897     1
   3891   3898     1
   3892   3894     1
   3892   3895     1
   3892   3896     1
   3893   3900     1
   3893   3901     1
   3893   3902     1
   3895   3899     1
   3895   3897     1
   3895   3898     1
   3896   3899     1
   3896   3897     1
   3896   3898     1
   3897   3900     1
   3897   3901     1
   3897   3902     1
   3898   3900     1
   3898   3901     1
   3898   3902     1
   3903   3909     1
   3903   3910     1
   3904   3906     1
   3904   3907     1
   3904   3908     1
   3905   3912     1
   3905   3913     1
   3905   3914     1
   3907   3911     1
   3907   3909     1
   3907   3910     1
   3908   3911     1
   3908   3909     1
   3908   3910     1
   3909   3912     1
   3909   3913     1
   3909   3914     1
   3910   3912     1
   3910   3913     1
   3910   3914     1
   3915   3921     1
   3915   3922     1
   3916   3918     1
   3916   3919     1
   3916   3920     1
   3917   3924     1
   3917   3925     1
   3917   3926     1
   3919   3923     1
   3919   3921     1
   3919   3922     1
   3920   3923     1
   3920   3921     1
   3920   3922     1
   3921   3924     1
   3921   3925     1
   3921   3926     1
   3922   3924     1
   3922   3925     1
   3922   3926     1
   3927   3933     1
   3927   3934     1
   3928   3930     1
   3928   3931     1
   3928   3932     1
   3929   3936     1
   3929   3937     1
   3929   3938     1
   3931   3935     1
   3931   3933     1
   3931   3934     1
   3932   3935     1
   3932   3933     1
   3932   3934     1
   3933   3936     1
   3933   3937     1
   3933   3938     1
   3934   3936     1
   3934   3937     1
   3934   3938     1
   3939   3945     1
   3939   3946     1
   3940   3942     1
   3940   3943     1
   3940   3944     1
   3941   3948     1
   3941   3949     1
   3941   3950     1
   3943   3947     1
   3943   3945     1
   3943   3946     1
   3944   3947     1
   3944   3945     1
   3944   3946     1
   3945   3948     1
   3945   3949     1
   3945   3950     1
   3946   3948     1
   3946   3949     1
   3946   3950     1
   3951   3957     1
   3951   3958     1
   3952   3954     1
   3952   3955     1
   3952   3956     1
   3953   3960     1
   3953   3961     1
   3953   3962     1
   3955   3959     1
   3955   3957     1
   3955   3958     1
   3956   3959     1
   3956   3957     1
   3956   3958     1
   3957   3960     1
   3957   3961     1
   3957   3962     1
   3958   3960     1
   3958   3961     1
   3958   3962     1
   3963   3969     1
   3963   3970     1
   3964   3966     1
   3964   3967     1
   3964   3968     1
   3965   3972     1
   3965   3973     1
   3965   3974     1
   3967   3971     1
   3967   3969     1
   3967   3970     1
   3968   3971     1
   3968   3969     1
   3968   3970     1
   3969   3972     1
   3969   3973     1
   3969   3974     1
   3970   3972     1
   3970   3973     1
   3970   3974     1
   3975   3981     1
   3975   3982     1
   3976   3978     1
   3976   3979     1
   3976   3980     1
   3977   3984     1
   3977   3985     1
   3977   3986     1
   3979   3983     1
   3979   3981     1
   3979   3982     1
   3980   3983     1
   3980   3981     1
   3980   3982     1
   3981   3984     1
   3981   3985     1
   3981   3986     1
   3982   3984     1
   3982   3985     1
   3982   3986     1
   3987   3993     1
   3987   3994     1
   3988   3990     1
   3988   3991     1
   3988   3992     1
   3989   3996     1
   3989   3997     1
   3989   3998     1
   3991   3995     1
   3991   3993     1
   3991   3994     1
   3992   3995     1
   3992   3993     1
   3992   3994     1
   3993   3996     1
   3993   3997     1
   3993   3998     1
   3994   3996     1
   3994   3997     1
   3994   3998     1
   3999   4005     1
   3999   4006     1
   4000   4002     1
   4000   4003     1
   4000   4004     1
   4001   4008     1
   4001   4009     1
   4001   4010     1
   4003   4007     1
   4003   4005     1
   4003   4006     1
   4004   4007     1
   4004   4005     1
   4004   4006     1
   4005   4008     1
   4005   4009     1
   4005   4010     1
   4006   4008     1
   4006   4009     1
   4006   4010     1
   4011   4017     1
   4011   4018     1
   4012   4014     1
   4012   4015     1
   4012   4016     1
   4013   4020     1
   4013   4021     1
   4013   4022     1
   4015   4019     1
   4015   4017     1
   4015   4018     1
   4016   4019     1
   4016   4017     1
   4016   4018     1
   4017   4020     1
   4017   4021     1
   4017   4022     1
   4018   4020     1
   4018   4021     1
   4018   4022     1
   4023   4029     1
   4023   4030     1
   4024   4026     1
   4024   4027     1
   4024   4028     1
   4025   4032     1
   4025   4033     1
   4025   4034     1
   4027   4031     1
   4027   4029     1
   4027   4030     1
   4028   4031     1
   4028   4029     1
   4028   4030     1
   4029   4032     1
   4029   4033     1
   4029   4034     1
   4030   4032     1
   4030   4033     1
   4030   4034     1
   4035   4041     1
   4035   4042     1
   4036   4038     1
   4036   4039     1
   4036   4040     1
   4037   4044     1
   4037   4045     1
   4037   4046     1
   4039   4043     1
   4039   4041     1
   4039   4042     1
   4040   4043     1
   4040   4041     1
   4040   4042     1
   4041   4044     1
   4041   4045     1
   4041   4046     1
   4042   4044     1
   4042   4045     1
   4042   4046     1
   4047   4053     1
   4047   4054     1
   4048   4050     1
   4048   4051     1
   4048   4052     1
   4049   4056     1
   4049   4057     1
   4049   4058     1
   4051   4055     1
   4051   4053     1
   4051   4054     1
   4052   4055     1
   4052   4053     1
   4052   4054     1
   4053   4056     1
   4053   4057     1
   4053   4058     1
   4054   4056     1
   4054   4057     1
   4054   4058     1
   4059   4065     1
   4059   4066     1
   4060   4062     1
   4060   4063     1
   4060   4064     1
   4061   4068     1
   4061   4069     1
   4061   4070     1
   4063   4067     1
   4063   4065     1
   4063   4066     1
   4064   4067     1
   4064   4065     1
   4064   4066     1
   4065   4068     1
   4065   4069     1
   4065   4070     1
   4066   4068     1
   4066   4069     1
   4066   4070     1
   4071   4077     1
   4071   4078     1
   4072   4074     1
   4072   4075     1
   4072   4076     1
   4073   4080     1
   4073   4081     1
   4073   4082     1
   4075   4079     1
   4075   4077     1
   4075   4078     1
   4076   4079     1
   4076   4077     1
   4076   4078     1
   4077   4080     1
   4077   4081     1
   4077   4082     1
   4078   4080     1
   4078   4081     1
   4078   4082     1
   4083   4089     1
   4083   4090     1
   4084   4086     1
   4084   4087     1
   4084   4088     1
   4085   4092     1
   4085   4093     1
   4085   4094     1
   4087   4091     1
   4087   4089     1
   4087   4090     1
   4088   4091     1
   4088   4089     1
   4088   4090     1
   4089   4092     1
   4089   4093     1
   4089   4094     1
   4090   4092     1
   4090   4093     1
   4090   4094     1
   4095   4101     1
   4095   4102     1
   4096   4098     1
   4096   4099     1
   4096   4100     1
   4097   4104     1
   4097   4105     1
   4097   4106     1
   4099   4103     1
   4099   4101     1
   4099   4102     1
   4100   4103     1
   4100   4101     1
   4100   4102     1
   4101   4104     1
   4101   4105     1
   4101   4106     1
   4102   4104     1
   4102   4105     1
   4102   4106     1
   4107   4113     1
   4107   4114     1
   4108   4110     1
   4108   4111     1
   4108   4112     1
   4109   4116     1
   4109   4117     1
   4109   4118     1
   4111   4115     1
   4111   4113     1
   4111   4114     1
   4112   4115     1
   4112   4113     1
   4112   4114     1
   4113   4116     1
   4113   4117     1
   4113   4118     1
   4114   4116     1
   4114   4117     1
   4114   4118     1
   4119   4125     1
   4119   4126     1
   4120   4122     1
   4120   4123     1
   4120   4124     1
   4121   4128     1
   4121   4129     1
   4121   4130     1
   4123   4127     1
   4123   4125     1
   4123   4126     1
   4124   4127     1
   4124   4125     1
   4124   4126     1
   4125   4128     1
   4125   4129     1
   4125   4130     1
   4126   4128     1
   4126   4129     1
   4126   4130     1
   4131   4137     1
   4131   4138     1
   4132   4134     1
   4132   4135     1
   4132   4136     1
   4133   4140     1
   4133   4141     1
   4133   4142     1
   4135   4139     1
   4135   4137     1
   4135   4138     1
   4136   4139     1
   4136   4137     1
   4136   4138     1
   4137   4140     1
   4137   4141     1
   4137   4142     1
   4138   4140     1
   4138   4141     1
   4138   4142     1
   4143   4149     1
   4143   4150     1
   4144   4146     1
   4144   4147     1
   4144   4148     1
   4145   4152     1
   4145   4153     1
   4145   4154     1
   4147   4151     1
   4147   4149     1
   4147   4150     1
   4148   4151     1
   4148   4149     1
   4148   4150     1
   4149   4152     1
   4149   4153     1
   4149   4154     1
   4150   4152     1
   4150   4153     1
   4150   4154     1
   4155   4161     1
   4155   4162     1
   4156   4158     1
   4156   4159     1
   4156   4160     1
   4157   4164     1
   4157   4165     1
   4157   4166     1
   4159   4163     1
   4159   4161     1
   4159   4162     1
   4160   4163     1
   4160   4161     1
   4160   4162     1
   4161   4164     1
   4161   4165     1
   4161   4166     1
   4162   4164     1
   4162   4165     1
   4162   4166     1
   4167   4173     1
   4167   4174     1
   4168   4170     1
   4168   4171     1
   4168   4172     1
   4169   4176     1
   4169   4177     1
   4169   4178     1
   4171   4175     1
   4171   4173     1
   4171   4174     1
   4172   4175     1
   4172   4173     1
   4172   4174     1
   4173   4176     1
   4173   4177     1
   4173   4178     1
   4174   4176     1
   4174   4177     1
   4174   4178     1
   4179   4185     1
   4179   4186     1
   4180   4182     1
   4180   4183     1
   4180   4184     1
   4181   4188     1
   4181   4189     1
   4181   4190     1
   4183   4187     1
   4183   4185     1
   4183   4186     1
   4184   4187     1
   4184   4185     1
   4184   4186     1
   4185   4188     1
   4185   4189     1
   4185   4190     1
   4186   4188     1
   4186   4189     1
   4186   4190     1
   4191   4197     1
   4191   4198     1
   4192   4194     1
   4192   4195     1
   4192   4196     1
   4193   4200     1
   4193   4201     1
   4193   4202     1
   4195   4199     1
   4195   4197     1
   4195   4198     1
   4196   4199     1
   4196   4197     1
   4196   4198     1
   4197   4200     1
   4197   4201     1
   4197   4202     1
   4198   4200     1
   4198   4201     1
   4198   4202     1
   4203   4209     1
   4203   4210     1
   4204   4206     1
   4204   4207     1
   4204   4208     1
   4205   4212     1
   4205   4213     1
   4205   4214     1
   4207   4211     1
   4207   4209     1
   4207   4210     1
   4208   4211     1
   4208   4209     1
   4208   4210     1
   4209   4212     1
   4209   4213     1
   4209   4214     1
   4210   4212     1
   4210   4213     1
   4210   4214     1
   4215   4221     1
   4215   4222     1
   4216   4218     1
   4216   4219     1
   4216   4220     1
   4217   4224     1
   4217   4225     1
   4217   4226     1
   4219   4223     1
   4219   4221     1
   4219   4222     1
   4220   4223     1
   4220   4221     1
   4220   4222     1
   4221   4224     1
   4221   4225     1
   4221   4226     1
   4222   4224     1
   4222   4225     1
   4222   4226     1
   4227   4233     1
   4227   4234     1
   4228   4230     1
   4228   4231     1
   4228   4232     1
   4229   4236     1
   4229   4237     1
   4229   4238     1
   4231   4235     1
   4231   4233     1
   4231   4234     1
   4232   4235     1
   4232   4233     1
   4232   4234     1
   4233   4236     1
   4233   4237     1
   4233   4238     1
   4234   4236     1
   4234   4237     1
   4234   4238     1
   4239   4245     1
   4239   4246     1
   4240   4242     1
   4240   4243     1
   4240   4244     1
   4241   4248     1
   4241   4249     1
   4241   4250     1
   4243   4247     1
   4243   4245     1
   4243   4246     1
   4244   4247     1
   4244   4245     1
   4244   4246     1
   4245   4248     1
   4245   4249     1
   4245   4250     1
   4246   4248     1
   4246   4249     1
   4246   4250     1
   4251   4257     1
   4251   4258     1
   4252   4254     1
   4252   4255     1
   4252   4256     1
   4253   4260     1
   4253   4261     1
   4253   4262     1
   4255   4259     1
   4255   4257     1
   4255   4258     1
   4256   4259     1
   4256   4257     1
   4256   4258     1
   4257   4260     1
   4257   4261     1
   4257   4262     1
   4258   4260     1
   4258   4261     1
   4258   4262     1
   4263   4269     1
   4263   4270     1
   4264   4266     1
   4264   4267     1
   4264   4268     1
   4265   4272     1
   4265   4273     1
   4265   4274     1
   4267   4271     1
   4267   4269     1
   4267   4270     1
   4268   4271     1
   4268   4269     1
   4268   4270     1
   4269   4272     1
   4269   4273     1
   4269   4274     1
   4270   4272     1
   4270   4273     1
   4270   4274     1
   4275   4281     1
   4275   4282     1
   4276   4278     1
   4276   4279     1
   4276   4280     1
   4277   4284     1
   4277   4285     1
   4277   4286     1
   4279   4283     1
   4279   4281     1
   4279   4282     1
   4280   4283     1
   4280   4281     1
   4280   4282     1
   4281   4284     1
   4281   4285     1
   4281   4286     1
   4282   4284     1
   4282   4285     1
   4282   4286     1
   4287   4293     1
   4287   4294     1
   4288   4290     1
   4288   4291     1
   4288   4292     1
   4289   4296     1
   4289   4297     1
   4289   4298     1
   4291   4295     1
   4291   4293     1
   4291   4294     1
   4292   4295     1
   4292   4293     1
   4292   4294     1
   4293   4296     1
   4293   4297     1
   4293   4298     1
   4294   4296     1
   4294   4297     1
   4294   4298     1
   4299   4305     1
   4299   4306     1
   4300   4302     1
   4300   4303     1
   4300   4304     1
   4301   4308     1
   4301   4309     1
   4301   4310     1
   4303   4307     1
   4303   4305     1
   4303   4306     1
   4304   4307     1
   4304   4305     1
   4304   4306     1
   4305   4308     1
   4305   4309     1
   4305   4310     1
   4306   4308     1
   4306   4309     1
   4306   4310     1
   4311   4317     1
   4311   4318     1
   4312   4314     1
   4312   4315     1
   4312   4316     1
   4313   4320     1
   4313   4321     1
   4313   4322     1
   4315   4319     1
   4315   4317     1
   4315   4318     1
   4316   4319     1
   4316   4317     1
   4316   4318     1
   4317   4320     1
   4317   4321     1
   4317   4322     1
   4318   4320     1
   4318   4321     1
   4318   4322     1
   4323   4329     1
   4323   4330     1
   4324   4326     1
   4324   4327     1
   4324   4328     1
   4325   4332     1
   4325   4333     1
   4325   4334     1
   4327   4331     1
   4327   4329     1
   4327   4330     1
   4328   4331     1
   4328   4329     1
   4328   4330     1
   4329   4332     1
   4329   4333     1
   4329   4334     1
   4330   4332     1
   4330   4333     1
   4330   4334     1
   4335   4341     1
   4335   4342     1
   4336   4338     1
   4336   4339     1
   4336   4340     1
   4337   4344     1
   4337   4345     1
   4337   4346     1
   4339   4343     1
   4339   4341     1
   4339   4342     1
   4340   4343     1
   4340   4341     1
   4340   4342     1
   4341   4344     1
   4341   4345     1
   4341   4346     1
   4342   4344     1
   4342   4345     1
   4342   4346     1
   4347   4353     1
   4347   4354     1
   4348   4350     1
   4348   4351     1
   4348   4352     1
   4349   4356     1
   4349   4357     1
   4349   4358     1
   4351   4355     1
   4351   4353     1
   4351   4354     1
   4352   4355     1
   4352   4353     1
   4352   4354     1
   4353   4356     1
   4353   4357     1
   4353   4358     1
   4354   4356     1
   4354   4357     1
   4354   4358     1
   4359   4365     1
   4359   4366     1
   4360   4362     1
   4360   4363     1
   4360   4364     1
   4361   4368     1
   4361   4369     1
   4361   4370     1
   4363   4367     1
   4363   4365     1
   4363   4366     1
   4364   4367     1
   4364   4365     1
   4364   4366     1
   4365   4368     1
   4365   4369     1
   4365   4370     1
   4366   4368     1
   4366   4369     1
   4366   4370     1
   4371   4377     1
   4371   4378     1
   4372   4374     1
   4372   4375     1
   4372   4376     1
   4373   4380     1
   4373   4381     1
   4373   4382     1
   4375   4379     1
   4375   4377     1
   4375   4378     1
   4376   4379     1
   4376   4377     1
   4376   4378     1
   4377   4380     1
   4377   4381     1
   4377   4382     1
   4378   4380     1
   4378   4381     1
   4378   4382     1
   4383   4389     1
   4383   4390     1
   4384   4386     1
   4384   4387     1
   4384   4388     1
   4385   4392     1
   4385   4393     1
   4385   4394     1
   4387   4391     1
   4387   4389     1
   4387   4390     1
   4388   4391     1
   4388   4389     1
   4388   4390     1
   4389   4392     1
   4389   4393     1
   4389   4394     1
   4390   4392     1
   4390   4393     1
   4390   4394     1
   4395   4401     1
   4395   4402     1
   4396   4398     1
   4396   4399     1
   4396   4400     1
   4397   4404     1
   4397   4405     1
   4397   4406     1
   4399   4403     1
   4399   4401     1
   4399   4402     1
   4400   4403     1
   4400   4401     1
   4400   4402     1
   4401   4404     1
   4401   4405     1
   4401   4406     1
   4402   4404     1
   4402   4405     1
   4402   4406     1
   4407   4413     1
   4407   4414     1
   4408   4410     1
   4408   4411     1
   4408   4412     1
   4409   4416     1
   4409   4417     1
   4409   4418     1
   4411   4415     1
   4411   4413     1
   4411   4414     1
   4412   4415     1
   4412   4413     1
   4412   4414     1
   4413   4416     1
   4413   4417     1
   4413   4418     1
   4414   4416     1
   4414   4417     1
   4414   4418     1
   4419   4425     1
   4419   4426     1
   4420   4422     1
   4420   4423     1
   4420   4424     1
   4421   4428     1
   4421   4429     1
   4421   4430     1
   4423   4427     1
   4423   4425     1
   4423   4426     1
   4424   4427     1
   4424   4425     1
   4424   4426     1
   4425   4428     1
   4425   4429     1
   4425   4430     1
   4426   4428     1
   4426   4429     1
   4426   4430     1
   4431   4437     1
   4431   4438     1
   4432   4434     1
   4432   4435     1
   4432   4436     1
   4433   4440     1
   4433   4441     1
   4433   4442     1
   4435   4439     1
   4435   4437     1
   4435   4438     1
   4436   4439     1
   4436   4437     1
   4436   4438     1
   4437   4440     1
   4437   4441     1
   4437   4442     1
   4438   4440     1
   4438   4441     1
   4438   4442     1
   4443   4449     1
   4443   4450     1
   4444   4446     1
   4444   4447     1
   4444   4448     1
   4445   4452     1
   4445   4453     1
   4445   4454     1
   4447   4451     1
   4447   4449     1
   4447   4450     1
   4448   4451     1
   4448   4449     1
   4448   4450     1
   4449   4452     1
   4449   4453     1
   4449   4454     1
   4450   4452     1
   4450   4453     1
   4450   4454     1
   4455   4461     1
   4455   4462     1
   4456   4458     1
   4456   4459     1
   4456   4460     1
   4457   4464     1
   4457   4465     1
   4457   4466     1
   4459   4463     1
   4459   4461     1
   4459   4462     1
   4460   4463     1
   4460   4461     1
   4460   4462     1
   4461   4464     1
   4461   4465     1
   4461   4466     1
   4462   4464     1
   4462   4465     1
   4462   4466     1
   4467   4473     1
   4467   4474     1
   4468   4470     1
   4468   4471     1
   4468   4472     1
   4469   4476     1
   4469   4477     1
   4469   4478     1
   4471   4475     1
   4471   4473     1
   4471   4474     1
   4472   4475     1
   4472   4473     1
   4472   4474     1
   4473   4476     1
   4473   4477     1
   4473   4478     1
   4474   4476     1
   4474   4477     1
   4474   4478     1
   4479   4485     1
   4479   4486     1
   4480   4482     1
   4480   4483     1
   4480   4484     1
   4481   4488     1
   4481   4489     1
   4481   4490     1
   4483   4487     1
   4483   4485     1
   4483   4486     1
   4484   4487     1
   4484   4485     1
   4484   4486     1
   4485   4488     1
   4485   4489     1
   4485   4490     1
   4486   4488     1
   4486   4489     1
   4486   4490     1
   4491   4497     1
   4491   4498     1
   4492   4494     1
   4492   4495     1
   4492   4496     1
   4493   4500     1
   4493   4501     1
   4493   4502     1
   4495   4499     1
   4495   4497     1
   4495   4498     1
   4496   4499     1
   4496   4497     1
   4496   4498     1
   4497   4500     1
   4497   4501     1
   4497   4502     1
   4498   4500     1
   4498   4501     1
   4498   4502     1
   4503   4509     1
   4503   4510     1
   4504   4506     1
   4504   4507     1
   4504   4508     1
   4505   4512     1
   4505   4513     1
   4505   4514     1
   4507   4511     1
   4507   4509     1
   4507   4510     1
   4508   4511     1
   4508   4509     1
   4508   4510     1
   4509   4512     1
   4509   4513     1
   4509   4514     1
   4510   4512     1
   4510   4513     1
   4510   4514     1
   4515   4521     1
   4515   4522     1
   4516   4518     1
   4516   4519     1
   4516   4520     1
   4517   4524     1
   4517   4525     1
   4517   4526     1
   4519   4523     1
   4519   4521     1
   4519   4522     1
   4520   4523     1
   4520   4521     1
   4520   4522     1
   4521   4524     1
   4521   4525     1
   4521   4526     1
   4522   4524     1
   4522   4525     1
   4522   4526     1
   4527   4533     1
   4527   4534     1
   4528   4530     1
   4528   4531     1
   4528   4532     1
   4529   4536     1
   4529   4537     1
   4529   4538     1
   4531   4535     1
   4531   4533     1
   4531   4534     1
   4532   4535     1
   4532   4533     1
   4532   4534     1
   4533   4536     1
   4533   4537     1
   4533   4538     1
   4534   4536     1
   4534   4537     1
   4534   4538     1
   4539   4545     1
   4539   4546     1
   4540   4542     1
   4540   4543     1
   4540   4544     1
   4541   4548     1
   4541   4549     1
   4541   4550     1
   4543   4547     1
   4543   4545     1
   4543   4546     1
   4544   4547     1
   4544   4545     1
   4544   4546     1
   4545   4548     1
   4545   4549     1
   4545   4550     1
   4546   4548     1
   4546   4549     1
   4546   4550     1
   4551   4557     1
   4551   4558     1
   4552   4554     1
   4552   4555     1
   4552   4556     1
   4553   4560     1
   4553   4561     1
   4553   4562     1
   4555   4559     1
   4555   4557     1
   4555   4558     1
   4556   4559     1
   4556   4557     1
   4556   4558     1
   4557   4560     1
   4557   4561     1
   4557   4562     1
   4558   4560     1
   4558   4561     1
   4558   4562     1
   4563   4569     1
   4563   4570     1
   4564   4566     1
   4564   4567     1
   4564   4568     1
   4565   4572     1
   4565   4573     1
   4565   4574     1
   4567   4571     1
   4567   4569     1
   4567   4570     1
   4568   4571     1
   4568   4569     1
   4568   4570     1
   4569   4572     1
   4569   4573     1
   4569   4574     1
   4570   4572     1
   4570   4573     1
   4570   4574     1
   4575   4581     1
   4575   4582     1
   4576   4578     1
   4576   4579     1
   4576   4580     1
   4577   4584     1
   4577   4585     1
   4577   4586     1
   4579   4583     1
   4579   4581     1
   4579   4582     1
   4580   4583     1
   4580   4581     1
   4580   4582     1
   4581   4584     1
   4581   4585     1
   4581   4586     1
   4582   4584     1
   4582   4585     1
   4582   4586     1
   4587   4593     1
   4587   4594     1
   4588   4590     1
   4588   4591     1
   4588   4592     1
   4589   4596     1
   4589   4597     1
   4589   4598     1
   4591   4595     1
   4591   4593     1
   4591   4594     1
   4592   4595     1
   4592   4593     1
   4592   4594     1
   4593   4596     1
   4593   4597     1
   4593   4598     1
   4594   4596     1
   4594   4597     1
   4594   4598     1
   4599   4605     1
   4599   4606     1
   4600   4602     1
   4600   4603     1
   4600   4604     1
   4601   4608     1
   4601   4609     1
   4601   4610     1
   4603   4607     1
   4603   4605     1
   4603   4606     1
   4604   4607     1
   4604   4605     1
   4604   4606     1
   4605   4608     1
   4605   4609     1
   4605   4610     1
   4606   4608     1
   4606   4609     1
   4606   4610     1
   4611   4617     1
   4611   4618     1
   4612   4614     1
   4612   4615     1
   4612   4616     1
   4613   4620     1
   4613   4621     1
   4613   4622     1
   4615   4619     1
   4615   4617     1
   4615   4618     1
   4616   4619     1
   4616   4617     1
   4616   4618     1
   4617   4620     1
   4617   4621     1
   4617   4622     1
   4618   4620     1
   4618   4621     1
   4618   4622     1
   4623   4629     1
   4623   4630     1
   4624   4626     1
   4624   4627     1
   4624   4628     1
   4625   4632     1
   4625   4633     1
   4625   4634     1
   4627   4631     1
   4627   4629     1
   4627   4630     1
   4628   4631     1
   4628   4629     1
   4628   4630     1
   4629   4632     1
   4629   4633     1
   4629   4634     1
   4630   4632     1
   4630   4633     1
   4630   4634     1
   4635   4641     1
   4635   4642     1
   4636   4638     1
   4636   4639     1
   4636   4640     1
   4637   4644     1
   4637   4645     1
   4637   4646     1
   4639   4643     1
   4639   4641     1
   4639   4642     1
   4640   4643     1
   4640   4641     1
   4640   4642     1
   4641   4644     1
   4641   4645     1
   4641   4646     1
   4642   4644     1
   4642   4645     1
   4642   4646     1
   4647   4653     1
   4647   4654     1
   4648   4650     1
   4648   4651     1
   4648   4652     1
   4649   4656     1
   4649   4657     1
   4649   4658     1
   4651   4655     1
   4651   4653     1
   4651   4654     1
   4652   4655     1
   4652   4653     1
   4652   4654     1
   4653   4656     1
   4653   4657     1
   4653   4658     1
   4654   4656     1
   4654   4657     1
   4654   4658     1
   4659   4665     1
   4659   4666     1
   4660   4662     1
   4660   4663     1
   4660   4664     1
   4661   4668     1
   4661   4669     1
   4661   4670     1
   4663   4667     1
   4663   4665     1
   4663   4666     1
   4664   4667     1
   4664   4665     1
   4664   4666     1
   4665   4668     1
   4665   4669     1
   4665   4670     1
   4666   4668     1
   4666   4669     1
   4666   4670     1
   4671   4677     1
   4671   4678     1
   4672   4674     1
   4672   4675     1
   4672   4676     1
   4673   4680     1
   4673   4681     1
   4673   4682     1
   4675   4679     1
   4675   4677     1
   4675   4678     1
   4676   4679     1
   4676   4677     1
   4676   4678     1
   4677   4680     1
   4677   4681     1
   4677   4682     1
   4678   4680     1
   4678   4681     1
   4678   4682     1
   4683   4689     1
   4683   4690     1
   4684   4686     1
   4684   4687     1
   4684   4688     1
   4685   4692     1
   4685   4693     1
   4685   4694     1
   4687   4691     1
   4687   4689     1
   4687   4690     1
   4688   4691     1
   4688   4689     1
   4688   4690     1
   4689   4692     1
   4689   4693     1
   4689   4694     1
   4690   4692     1
   4690   4693     1
   4690   4694     1
   4695   4701     1
   4695   4702     1
   4696   4698     1
   4696   4699     1
   4696   4700     1
   4697   4704     1
   4697   4705     1
   4697   4706     1
   4699   4703     1
   4699   4701     1
   4699   4702     1
   4700   4703     1
   4700   4701     1
   4700   4702     1
   4701   4704     1
   4701   4705     1
   4701   4706     1
   4702   4704     1
   4702   4705     1
   4702   4706     1
   4707   4713     1
   4707   4714     1
   4708   4710     1
   4708   4711     1
   4708   4712     1
   4709   4716     1
   4709   4717     1
   4709   4718     1
   4711   4715     1
   4711   4713     1
   4711   4714     1
   4712   4715     1
   4712   4713     1
   4712   4714     1
   4713   4716     1
   4713   4717     1
   4713   4718     1
   4714   4716     1
   4714   4717     1
   4714   4718     1
   4719   4725     1
   4719   4726     1
   4720   4722     1
   4720   4723     1
   4720   4724     1
   4721   4728     1
   4721   4729     1
   4721   4730     1
   4723   4727     1
   4723   4725     1
   4723   4726     1
   4724   4727     1
   4724   4725     1
   4724   4726     1
   4725   4728     1
   4725   4729     1
   4725   4730     1
   4726   4728     1
   4726   4729     1
   4726   4730     1
   4731   4737     1
   4731   4738     1
   4732   4734     1
   4732   4735     1
   4732   4736     1
   4733   4740     1
   4733   4741     1
   4733   4742     1
   4735   4739     1
   4735   4737     1
   4735   4738     1
   4736   4739     1
   4736   4737     1
   4736   4738     1
   4737   4740     1
   4737   4741     1
   4737   4742     1
   4738   4740     1
   4738   4741     1
   4738   4742     1
   4743   4749     1
   4743   4750     1
   4744   4746     1
   4744   4747     1
   4744   4748     1
   4745   4752     1
   4745   4753     1
   4745   4754     1
   4747   4751     1
   4747   4749     1
   4747   4750     1
   4748   4751     1
   4748   4749     1
   4748   4750     1
   4749   4752     1
   4749   4753     1
   4749   4754     1
   4750   4752     1
   4750   4753     1
   4750   4754     1
   4755   4761     1
   4755   4762     1
   4756   4758     1
   4756   4759     1
   4756   4760     1
   4757   4764     1
   4757   4765     1
   4757   4766     1
   4759   4763     1
   4759   4761     1
   4759   4762     1
   4760   4763     1
   4760   4761     1
   4760   4762     1
   4761   4764     1
   4761   4765     1
   4761   4766     1
   4762   4764     1
   4762   4765     1
   4762   4766     1
   4767   4773     1
   4767   4774     1
   4768   4770     1
   4768   4771     1
   4768   4772     1
   4769   4776     1
   4769   4777     1
   4769   4778     1
   4771   4775     1
   4771   4773     1
   4771   4774     1
   4772   4775     1
   4772   4773     1
   4772   4774     1
   4773   4776     1
   4773   4777     1
   4773   4778     1
   4774   4776     1
   4774   4777     1
   4774   4778     1
   4779   4785     1
   4779   4786     1
   4780   4782     1
   4780   4783     1
   4780   4784     1
   4781   4788     1
   4781   4789     1
   4781   4790     1
   4783   4787     1
   4783   4785     1
   4783   4786     1
   4784   4787     1
   4784   4785     1
   4784   4786     1
   4785   4788     1
   4785   4789     1
   4785   4790     1
   4786   4788     1
   4786   4789     1
   4786   4790     1
   4791   4797     1
   4791   4798     1
   4792   4794     1
   4792   4795     1
   4792   4796     1
   4793   4800     1
   4793   4801     1
   4793   4802     1
   4795   4799     1
   4795   4797     1
   4795   4798     1
   4796   4799     1
   4796   4797     1
   4796   4798     1
   4797   4800     1
   4797   4801     1
   4797   4802     1
   4798   4800     1
   4798   4801     1
   4798   4802     1

[ angles ]
;    ai     aj     ak funct         c0         c1         c2         c3
      1      2      3     1   114.2100488 537.225600
      1      7     13     1   114.2100488 537.225600
      1      8     15     1   114.2100488 537.225600
      2      1      7     1   109.6600471 523.836800
      2      1      8     1   109.6600471 523.836800
      2      3      4     1   114.2100488 537.225600
      3      4      5     1   109.6600471 523.836800
      3      4      6     1   109.6600471 523.836800
      4      5     11     1   114.2100488 537.225600
      4      6      9     1   114.2100488 537.225600
      5      4      6     1   109.6600471 523.836800
      5     11     12     1   111.0400475 529.694400
      6      9     10     1   111.0400475 529.694400
      7      1      8     1   109.6600471 523.836800
      7     13     14     1   111.0400475 529.694400
      8     15     16     1   111.0400475 529.694400
      9     10     18     1   123.2000528 564.003200
      9     10     52     1   115.1800491 558.982400
     10     52     51     1   120.6900519 530.531200
     11     12     17     1   123.2000528 564.003200
     11     12     78     1   115.1800491 558.982400
     12     78     77     1   120.6900519 530.531200
     13     14     20     1   123.2000528 564.003200
     13     14    104     1   115.1800491 558.982400
     14    104    103     1   120.6900519 530.531200
     15     16     19     1   123.2000528 564.003200
     15     16    130     1   115.1800491 558.982400
     16    130    129     1   120.6900519 530.531200
     17     12     78     1   123.0500530 620.905600
     18     10     52     1   123.0500530 620.905600
     19     16    130     1   123.0500530 620.905600
     20     14    104     1   123.0500530 620.905600
     43     44     46     1   114.2100488 537.225600
     43     45     48     1   114.2100488 537.225600
     43     50     51     1   114.2100488 537.225600
     44     43     45     1   109.6600471 523.836800
     44     43     50     1   109.6600471 523.836800
     44     46     47     1   111.0400475 529.694400
     45     43     50     1   109.6600471 523.836800
     45     48     49     1   111.0400475 529.694400
     46     47     53     1   123.2000528 564.003200
     46     47    156     1   115.1800491 558.982400
     47    156    155     1   120.6900519 530.531200
     48     49     54     1   123.2000528 564.003200
     48     49    182     1   115.1800491 558.982400
     49    182    181     1   120.6900519 530.531200
     50     51     52     1   111.6100477 551.451200
     53     47    156     1   123.0500530 620.905600
     54     49    182     1   123.0500530 620.905600
     69     70     72     1   114.2100488 537.225600
     69     71     74     1   114.2100488 537.225600
     69     76     77     1   114.2100488 537.225600
     70     69     71     1   109.6600471 523.836800
     70     69     76     1   109.6600471 523.836800
     70     72     73     1   111.0400475 529.694400
     71     69     76     1   109.6600471 523.836800
     71     74     75     1   111.0400475 529.694400
     72     73     79     1   123.2000528 564.003200
     72     73    208     1   115.1800491 558.982400
     73    208    207     1   120.6900519 530.531200
     74     75     80     1   123.2000528 564.003200
     74     75    234     1   115.1800491 558.982400
     75    234    233     1   120.6900519 530.531200
     76     77     78     1   111.6100477 551.451200
     79     73    208     1   123.0500530 620.905600
     80     75    234     1   123.0500530 620.905600
     95     96     98     1   114.2100488 537.225600
     95     97    100     1   114.2100488 537.225600
     95    102    103     1   114.2100488 537.225600
     96     95     97     1   109.6600471 523.836800
     96     95    102     1   109.6600471 523.836800
     96     98     99     1   111.0400475 529.694400
     97     95    102     1   109.6600471 523.836800
     97    100    101     1   111.0400475 529.694400
     98     99    105     1   123.2000528 564.003200
     98     99    260     1   115.1800491 558.982400
     99    260    259     1   120.6900519 530.531200
    100    101    106     1   123.2000528 564.003200
    100    101    286     1   115.1800491 558.982400
    101    286    285     1   120.6900519 530.531200
    102    103    104     1   111.6100477 551.451200
    105     99    260     1   123.0500530 620.905600
    106    101    286     1   123.0500530 620.905600
    121    122    124     1   114.2100488 537.225600
    121    123    126     1   114.2100488 537.225600
    121    128    129     1   114.2100488 537.225600
    122    121    123     1   109.6600471 523.836800
    122    121    128     1   109.6600471 523.836800
    122    124    125     1   111.0400475 529.694400
    123    121    128     1   109.6600471 523.836800
    123    126    127     1   111.0400475 529.694400
    124    125    131     1   123.2000528 564.003200
    124    125    312     1   115.1800491 558.982400
    125    312    311     1   120.6900519 530.531200
    126    127    132     1   123.2000528 564.003200
    126    127    338     1   115.1800491 558.982400
    127    338    337     1   120.6900519 530.531200
    128    129    130     1   111.6100477 551.451200
    131    125    312     1   123.0500530 620.905600
    132    127    338     1   123.0500530 620.905600
    147    148    150     1   114.2100488 537.225600
    147    149    152     1   114.2100488 537.225600
    147    154    155     1   114.2100488 537.225600
    148    147    149     1   109.6600471 523.836800
    148    147    154     1   109.6600471 523.836800
    148    150    151     1   111.0400475 529.694400
    149    147    154     1   109.6600471 523.836800
    149    152    153     1   111.0400475 529.694400
    150    151    157     1   123.2000528 564.003200
    150    151    364     1   115.1800491 558.982400
    151    364    363     1   120.6900519 530.531200
    152    153    158     1   123.2000528 564.003200
    152    153    390     1   115.1800491 558.982400
    153    390    389     1   120.6900519 530.531200
    154    155    156     1   111.6100477 551.451200
    157    151    364     1   123.0500530 620.905600
    158    153    390     1   123.0500530 620.905600
    173    174    176     1   114.2100488 537.225600
    173    175    178     1   114.2100488 537.225600
    173    180    181     1   114.2100488 537.225600
    174    173    175     1   109.6600471 523.836800
    174    173    180     1   109.6600471 523.836800
    174    176    177     1   111.0400475 529.694400
    175    173    180     1   109.6600471 523.836800
    175    178    179     1   111.0400475 529.694400
    176    177    183     1   123.2000528 564.003200
    176    177    416     1   115.1800491 558.982400
    177    416    415     1   120.6900519 530.531200
    178    179    184     1   123.2000528 564.003200
    178    179    442     1   115.1800491 558.982400
    179    442    441     1   120.6900519 530.531200
    180    181    182     1   111.6100477 551.451200
    183    177    416     1   123.0500530 620.905600
    184    179    442     1   123.0500530 620.905600
    199    200    202     1   114.2100488 537.225600
    199    201    204     1   114.2100488 537.225600
    199    206    207     1   114.2100488 537.225600
    200    199    201     1   109.6600471 523.836800
    200    199    206     1   109.6600471 523.836800
    200    202    203     1   111.0400475 529.694400
    201    199    206     1   109.6600471 523.836800
    201    204    205     1   111.0400475 529.694400
    202    203    209     1   123.2000528 564.003200
    202    203    468     1   115.1800491 558.982400
    203    468    467     1   120.6900519 530.531200
    204    205    210     1   123.2000528 564.003200
    204    205    494     1   115.1800491 558.982400
    205    494    493     1   120.6900519 530.531200
    206    207    208     1   111.6100477 551.451200
    209    203    468     1   123.0500530 620.905600
    210    205    494     1   123.0500530 620.905600
    225    226    228     1   114.2100488 537.225600
    225    227    230     1   114.2100488 537.225600
    225    232    233     1   114.2100488 537.225600
    226    225    227     1   109.6600471 523.836800
    226    225    232     1   109.6600471 523.836800
    226    228    229     1   111.0400475 529.694400
    227    225    232     1   109.6600471 523.836800
    227    230    231     1   111.0400475 529.694400
    228    229    235     1   123.2000528 564.003200
    228    229    520     1   115.1800491 558.982400
    229    520    519     1   120.6900519 530.531200
    230    231    236     1   123.2000528 564.003200
    230    231    546     1   115.1800491 558.982400
    231    546    545     1   120.6900519 530.531200
    232    233    234     1   111.6100477 551.451200
    235    229    520     1   123.0500530 620.905600
    236    231    546     1   123.0500530 620.905600
    251    252    254     1   114.2100488 537.225600
    251    253    256     1   114.2100488 537.225600
    251    258    259     1   114.2100488 537.225600
    252    251    253     1   109.6600471 523.836800
    252    251    258     1   109.6600471 523.836800
    252    254    255     1   111.0400475 529.694400
    253    251    258     1   109.6600471 523.836800
    253    256    257     1   111.0400475 529.694400
    254    255    261     1   123.2000528 564.003200
    254    255    572     1   115.1800491 558.982400
    255    572    571     1   120.6900519 530.531200
    256    257    262     1   123.2000528 564.003200
    256    257    598     1   115.1800491 558.982400
    257    598    597     1   120.6900519 530.531200
    258    259    260     1   111.6100477 551.451200
    261    255    572     1   123.0500530 620.905600
    262    257    598     1   123.0500530 620.905600
    277    278    280     1   114.2100488 537.225600
    277    279    282     1   114.2100488 537.225600
    277    284    285     1   114.2100488 537.225600
    278    277    279     1   109.6600471 523.836800
    278    277    284     1   109.6600471 523.836800
    278    280    281     1   111.0400475 529.694400
    279    277    284     1   109.6600471 523.836800
    279    282    283     1   111.0400475 529.694400
    280    281    287     1   123.2000528 564.003200
    280    281    624     1   115.1800491 558.982400
    281    624    623     1   120.6900519 530.531200
    282    283    288     1   123.2000528 564.003200
    282    283    650     1   115.1800491 558.982400
    283    650    649     1   120.6900519 530.531200
    284    285    286     1   111.6100477 551.451200
    287    281    624     1   123.0500530 620.905600
    288    283    650     1   123.0500530 620.905600
    303    304    306     1   114.2100488 537.225600
    303    305    308     1   114.2100488 537.225600
    303    310    311     1   114.2100488 537.225600
    304    303    305     1   109.6600471 523.836800
    304    303    310     1   109.6600471 523.836800
    304    306    307     1   111.0400475 529.694400
    305    303    310     1   109.6600471 523.836800
    305    308    309     1   111.0400475 529.694400
    306    307    313     1   123.2000528 564.003200
    306    307    676     1   115.1800491 558.982400
    307    676    675     1   120.6900519 530.531200
    308    309    314     1   123.2000528 564.003200
    308    309    702     1   115.1800491 558.982400
    309    702    701     1   120.6900519 530.531200
    310    311    312     1   111.6100477 551.451200
    313    307    676     1   123.0500530 620.905600
    314    309    702     1   123.0500530 620.905600
    329    330    332     1   114.2100488 537.225600
    329    331    334     1   114.2100488 537.225600
    329    336    337     1   114.2100488 537.225600
    330    329    331     1   109.6600471 523.836800
    330    329    336     1   109.6600471 523.836800
    330    332    333     1   111.0400475 529.694400
    331    329    336     1   109.6600471 523.836800
    331    334    335     1   111.0400475 529.694400
    332    333    339     1   123.2000528 564.003200
    332    333    728     1   115.1800491 558.982400
    333    728    727     1   120.6900519 530.531200
    334    335    340     1   123.2000528 564.003200
    334    335    754     1   115.1800491 558.982400
    335    754    753     1   120.6900519 530.531200
    336    337    338     1   111.6100477 551.451200
    339    333    728     1   123.0500530 620.905600
    340    335    754     1   123.0500530 620.905600
    355    356    358     1   114.2100488 537.225600
    355    357    360     1   114.2100488 537.225600
    355    362    363     1   114.2100488 537.225600
    356    355    357     1   109.6600471 523.836800
    356    355    362     1   109.6600471 523.836800
    356    358    359     1   111.0400475 529.694400
    357    355    362     1   109.6600471 523.836800
    357    360    361     1   111.0400475 529.694400
    358    359    365     1   123.2000528 564.003200
    358    359    780     1   115.1800491 558.982400
    359    780    779     1   120.6900519 530.531200
    360    361    366     1   123.2000528 564.003200
    360    361    806     1   115.1800491 558.982400
    361    806    805     1   120.6900519 530.531200
    362    363    364     1   111.6100477 551.451200
    365    359    780     1   123.0500530 620.905600
    366    361    806     1   123.0500530 620.905600
    381    382    384     1   114.2100488 537.225600
    381    383    386     1   114.2100488 537.225600
    381    388    389     1   114.2100488 537.225600
    382    381    383     1   109.6600471 523.836800
    382    381    388     1   109.6600471 523.836800
    382    384    385     1   111.0400475 529.694400
    383    381    388     1   109.6600471 523.836800
    383    386    387     1   111.0400475 529.694400
    384    385    391     1   123.2000528 564.003200
    384    385    832     1   115.1800491 558.982400
    385    832    831     1   120.6900519 530.531200
    386    387    392     1   123.2000528 564.003200
    386    387    858     1   115.1800491 558.982400
    387    858    857     1   120.6900519 530.531200
    388    389    390     1   111.6100477 551.451200
    391    385    832     1   123.0500530 620.905600
    392    387    858     1   123.0500530 620.905600
    407    408    410     1   114.2100488 537.225600
    407    409    412     1   114.2100488 537.225600
    407    414    415     1   114.2100488 537.225600
    408    407    409     1   109.6600471 523.836800
    408    407    414     1   109.6600471 523.836800
    408    410    411     1   111.0400475 529.694400
    409    407    414     1   109.6600471 523.836800
    409    412    413     1   111.0400475 529.694400
    410    411    417     1   123.2000528 564.003200
    410    411    884     1   115.1800491 558.982400
    411    884    883     1   120.6900519 530.531200
    412    413    418     1   123.2000528 564.003200
    412    413    910     1   115.1800491 558.982400
    413    910    909     1   120.6900519 530.531200
    414    415    416     1   111.6100477 551.451200
    417    411    884     1   123.0500530 620.905600
    418    413    910     1   123.0500530 620.905600
    433    434    436     1   114.2100488 537.225600
    433    435    438     1   114.2100488 537.225600
    433    440    441     1   114.2100488 537.225600
    434    433    435     1   109.6600471 523.836800
    434    433    440     1   109.6600471 523.836800
    434    436    437     1   111.0400475 529.694400
    435    433    440     1   109.6600471 523.836800
    435    438    439     1   111.0400475 529.694400
    436    437    443     1   123.2000528 564.003200
    436    437    936     1   115.1800491 558.982400
    437    936    935     1   120.6900519 530.531200
    438    439    444     1   123.2000528 564.003200
    438    439    962     1   115.1800491 558.982400
    439    962    961     1   120.6900519 530.531200
    440    441    442     1   111.6100477 551.451200
    443    437    936     1   123.0500530 620.905600
    444    439    962     1   123.0500530 620.905600
    459    460    462     1   114.2100488 537.225600
    459    461    464     1   114.2100488 537.225600
    459    466    467     1   114.2100488 537.225600
    460    459    461     1   109.6600471 523.836800
    460    459    466     1   109.6600471 523.836800
    460    462    463     1   111.0400475 529.694400
    461    459    466     1   109.6600471 523.836800
    461    464    465     1   111.0400475 529.694400
    462    463    469     1   123.2000528 564.003200
    462    463    988     1   115.1800491 558.982400
    463    988    987     1   120.6900519 530.531200
    464    465    470     1   123.2000528 564.003200
    464    465   1014     1   115.1800491 558.982400
    465   1014   1013     1   120.6900519 530.531200
    466    467    468     1   111.6100477 551.451200
    469    463    988     1   123.0500530 620.905600
    470    465   1014     1   123.0500530 620.905600
    485    486    488     1   114.2100488 537.225600
    485    487    490     1   114.2100488 537.225600
    485    492    493     1   114.2100488 537.225600
    486    485    487     1   109.6600471 523.836800
    486    485    492     1   109.6600471 523.836800
    486    488    489     1   111.0400475 529.694400
    487    485    492     1   109.6600471 523.836800
    487    490    491     1   111.0400475 529.694400
    488    489    495     1   123.2000528 564.003200
    488    489   1040     1   115.1800491 558.982400
    489   1040   1039     1   120.6900519 530.531200
    490    491    496     1   123.2000528 564.003200
    490    491   1066     1   115.1800491 558.982400
    491   1066   1065     1   120.6900519 530.531200
    492    493    494     1   111.6100477 551.451200
    495    489   1040     1   123.0500530 620.905600
    496    491   1066     1   123.0500530 620.905600
    511    512    514     1   114.2100488 537.225600
    511    513    516     1   114.2100488 537.225600
    511    518    519     1   114.2100488 537.225600
    512    511    513     1   109.6600471 523.836800
    512    511    518     1   109.6600471 523.836800
    512    514    515     1   111.0400475 529.694400
    513    511    518     1   109.6600471 523.836800
    513    516    517     1   111.0400475 529.694400
    514    515    521     1   123.2000528 564.003200
    514    515   1092     1   115.1800491 558.982400
    515   1092   1091     1   120.6900519 530.531200
    516    517    522     1   123.2000528 564.003200
    516    517   1118     1   115.1800491 558.982400
    517   1118   1117     1   120.6900519 530.531200
    518    519    520     1   111.6100477 551.451200
    521    515   1092     1   123.0500530 620.905600
    522    517   1118     1   123.0500530 620.905600
    537    538    540     1   114.2100488 537.225600
    537    539    542     1   114.2100488 537.225600
    537    544    545     1   114.2100488 537.225600
    538    537    539     1   109.6600471 523.836800
    538    537    544     1   109.6600471 523.836800
    538    540    541     1   111.0400475 529.694400
    539    537    544     1   109.6600471 523.836800
    539    542    543     1   111.0400475 529.694400
    540    541    547     1   123.2000528 564.003200
    540    541   1144     1   115.1800491 558.982400
    541   1144   1143     1   120.6900519 530.531200
    542    543    548     1   123.2000528 564.003200
    542    543   1170     1   115.1800491 558.982400
    543   1170   1169     1   120.6900519 530.531200
    544    545    546     1   111.6100477 551.451200
    547    541   1144     1   123.0500530 620.905600
    548    543   1170     1   123.0500530 620.905600
    563    564    566     1   114.2100488 537.225600
    563    565    568     1   114.2100488 537.225600
    563    570    571     1   114.2100488 537.225600
    564    563    565     1   109.6600471 523.836800
    564    563    570     1   109.6600471 523.836800
    564    566    567     1   111.0400475 529.694400
    565    563    570     1   109.6600471 523.836800
    565    568    569     1   111.0400475 529.694400
    566    567    573     1   123.2000528 564.003200
    566    567   1196     1   115.1800491 558.982400
    567   1196   1195     1   120.6900519 530.531200
    568    569    574     1   123.2000528 564.003200
    568    569   1222     1   115.1800491 558.982400
    569   1222   1221     1   120.6900519 530.531200
    570    571    572     1   111.6100477 551.451200
    573    567   1196     1   123.0500530 620.905600
    574    569   1222     1   123.0500530 620.905600
    589    590    592     1   114.2100488 537.225600
    589    591    594     1   114.2100488 537.225600
    589    596    597     1   114.2100488 537.225600
    590    589    591     1   109.6600471 523.836800
    590    589    596     1   109.6600471 523.836800
    590    592    593     1   111.0400475 529.694400
    591    589    596     1   109.6600471 523.836800
    591    594    595     1   111.0400475 529.694400
    592    593    599     1   123.2000528 564.003200
    592    593   1248     1   115.1800491 558.982400
    593   1248   1247     1   120.6900519 530.531200
    594    595    600     1   123.2000528 564.003200
    594    595   1274     1   115.1800491 558.982400
    595   1274   1273     1   120.6900519 530.531200
    596    597    598     1   111.6100477 551.451200
    599    593   1248     1   123.0500530 620.905600
    600    595   1274     1   123.0500530 620.905600
    615    616    618     1   114.2100488 537.225600
    615    617    620     1   114.2100488 537.225600
    615    622    623     1   114.2100488 537.225600
    616    615    617     1   109.6600471 523.836800
    616    615    622     1   109.6600471 523.836800
    616    618    619     1   111.0400475 529.694400
    617    615    622     1   109.6600471 523.836800
    617    620    621     1   111.0400475 529.694400
    618    619    625     1   123.2000528 564.003200
    618    619   1300     1   115.1800491 558.982400
    619   1300   1299     1   120.6900519 530.531200
    620    621    626     1   123.2000528 564.003200
    620    621   1326     1   115.1800491 558.982400
    621   1326   1325     1   120.6900519 530.531200
    622    623    624     1   111.6100477 551.451200
    625    619   1300     1   123.0500530 620.905600
    626    621   1326     1   123.0500530 620.905600
    641    642    644     1   114.2100488 537.225600
    641    643    646     1   114.2100488 537.225600
    641    648    649     1   114.2100488 537.225600
    642    641    643     1   109.6600471 523.836800
    642    641    648     1   109.6600471 523.836800
    642    644    645     1   111.0400475 529.694400
    643    641    648     1   109.6600471 523.836800
    643    646    647     1   111.0400475 529.694400
    644    645    651     1   123.2000528 564.003200
    644    645   1352     1   115.1800491 558.982400
    645   1352   1351     1   120.6900519 530.531200
    646    647    652     1   123.2000528 564.003200
    646    647   1378     1   115.1800491 558.982400
    647   1378   1377     1   120.6900519 530.531200
    648    649    650     1   111.6100477 551.451200
    651    645   1352     1   123.0500530 620.905600
    652    647   1378     1   123.0500530 620.905600
    667    668    670     1   114.2100488 537.225600
    667    669    672     1   114.2100488 537.225600
    667    674    675     1   114.2100488 537.225600
    668    667    669     1   109.6600471 523.836800
    668    667    674     1   109.6600471 523.836800
    668    670    671     1   111.0400475 529.694400
    669    667    674     1   109.6600471 523.836800
    669    672    673     1   111.0400475 529.694400
    670    671    677     1   123.2000528 564.003200
    670    671   1404     1   115.1800491 558.982400
    671   1404   1403     1   120.6900519 530.531200
    672    673    678     1   123.2000528 564.003200
    672    673   1430     1   115.1800491 558.982400
    673   1430   1429     1   120.6900519 530.531200
    674    675    676     1   111.6100477 551.451200
    677    671   1404     1   123.0500530 620.905600
    678    673   1430     1   123.0500530 620.905600
    693    694    696     1   114.2100488 537.225600
    693    695    698     1   114.2100488 537.225600
    693    700    701     1   114.2100488 537.225600
    694    693    695     1   109.6600471 523.836800
    694    693    700     1   109.6600471 523.836800
    694    696    697     1   111.0400475 529.694400
    695    693    700     1   109.6600471 523.836800
    695    698    699     1   111.0400475 529.694400
    696    697    703     1   123.2000528 564.003200
    696    697   1456     1   115.1800491 558.982400
    697   1456   1455     1   120.6900519 530.531200
    698    699    704     1   123.2000528 564.003200
    698    699   1482     1   115.1800491 558.982400
    699   1482   1481     1   120.6900519 530.531200
    700    701    702     1   111.6100477 551.451200
    703    697   1456     1   123.0500530 620.905600
    704    699   1482     1   123.0500530 620.905600
    719    720    722     1   114.2100488 537.225600
    719    721    724     1   114.2100488 537.225600
    719    726    727     1   114.2100488 537.225600
    720    719    721     1   109.6600471 523.836800
    720    719    726     1   109.6600471 523.836800
    720    722    723     1   111.0400475 529.694400
    721    719    726     1   109.6600471 523.836800
    721    724    725     1   111.0400475 529.694400
    722    723    729     1   123.2000528 564.003200
    722    723   1508     1   115.1800491 558.982400
    723   1508   1507     1   120.6900519 530.531200
    724    725    730     1   123.2000528 564.003200
    724    725   1534     1   115.1800491 558.982400
    725   1534   1533     1   120.6900519 530.531200
    726    727    728     1   111.6100477 551.451200
    729    723   1508     1   123.0500530 620.905600
    730    725   1534     1   123.0500530 620.905600
    745    746    748     1   114.2100488 537.225600
    745    747    750     1   114.2100488 537.225600
    745    752    753     1   114.2100488 537.225600
    746    745    747     1   109.6600471 523.836800
    746    745    752     1   109.6600471 523.836800
    746    748    749     1   111.0400475 529.694400
    747    745    752     1   109.6600471 523.836800
    747    750    751     1   111.0400475 529.694400
    748    749    755     1   123.2000528 564.003200
    748    749   1560     1   115.1800491 558.982400
    749   1560   1559     1   120.6900519 530.531200
    750    751    756     1   123.2000528 564.003200
    750    751   1586     1   115.1800491 558.982400
    751   1586   1585     1   120.6900519 530.531200
    752    753    754     1   111.6100477 551.451200
    755    749   1560     1   123.0500530 620.905600
    756    751   1586     1   123.0500530 620.905600
    771    772    774     1   114.2100488 537.225600
    771    773    776     1   114.2100488 537.225600
    771    778    779     1   114.2100488 537.225600
    772    771    773     1   109.6600471 523.836800
    772    771    778     1   109.6600471 523.836800
    772    774    775     1   111.0400475 529.694400
    773    771    778     1   109.6600471 523.836800
    773    776    777     1   111.0400475 529.694400
    774    775    781     1   123.2000528 564.003200
    774    775   1612     1   115.1800491 558.982400
    775   1612   1611     1   120.6900519 530.531200
    776    777    782     1   123.2000528 564.003200
    776    777   1638     1   115.1800491 558.982400
    777   1638   1637     1   120.6900519 530.531200
    778    779    780     1   111.6100477 551.451200
    781    775   1612     1   123.0500530 620.905600
    782    777   1638     1   123.0500530 620.905600
    797    798    800     1   114.2100488 537.225600
    797    799    802     1   114.2100488 537.225600
    797    804    805     1   114.2100488 537.225600
    798    797    799     1   109.6600471 523.836800
    798    797    804     1   109.6600471 523.836800
    798    800    801     1   111.0400475 529.694400
    799    797    804     1   109.6600471 523.836800
    799    802    803     1   111.0400475 529.694400
    800    801    807     1   123.2000528 564.003200
    800    801   1664     1   115.1800491 558.982400
    801   1664   1663     1   120.6900519 530.531200
    802    803    808     1   123.2000528 564.003200
    802    803   1690     1   115.1800491 558.982400
    803   1690   1689     1   120.6900519 530.531200
    804    805    806     1   111.6100477 551.451200
    807    801   1664     1   123.0500530 620.905600
    808    803   1690     1   123.0500530 620.905600
    823    824    826     1   114.2100488 537.225600
    823    825    828     1   114.2100488 537.225600
    823    830    831     1   114.2100488 537.225600
    824    823    825     1   109.6600471 523.836800
    824    823    830     1   109.6600471 523.836800
    824    826    827     1   111.0400475 529.694400
    825    823    830     1   109.6600471 523.836800
    825    828    829     1   111.0400475 529.694400
    826    827    833     1   123.2000528 564.003200
    826    827   1716     1   115.1800491 558.982400
    827   1716   1715     1   120.6900519 530.531200
    828    829    834     1   123.2000528 564.003200
    828    829   1742     1   115.1800491 558.982400
    829   1742   1741     1   120.6900519 530.531200
    830    831    832     1   111.6100477 551.451200
    833    827   1716     1   123.0500530 620.905600
    834    829   1742     1   123.0500530 620.905600
    849    850    852     1   114.2100488 537.225600
    849    851    854     1   114.2100488 537.225600
    849    856    857     1   114.2100488 537.225600
    850    849    851     1   109.6600471 523.836800
    850    849    856     1   109.6600471 523.836800
    850    852    853     1   111.0400475 529.694400
    851    849    856     1   109.6600471 523.836800
    851    854    855     1   111.0400475 529.694400
    852    853    859     1   123.2000528 564.003200
    852    853   1768     1   115.1800491 558.982400
    853   1768   1767     1   120.6900519 530.531200
    854    855    860     1   123.2000528 564.003200
    854    855   1794     1   115.1800491 558.982400
    855   1794   1793     1   120.6900519 530.531200
    856    857    858     1   111.6100477 551.451200
    859    853   1768     1   123.0500530 620.905600
    860    855   1794     1   123.0500530 620.905600
    875    876    878     1   114.2100488 537.225600
    875    877    880     1   114.2100488 537.225600
    875    882    883     1   114.2100488 537.225600
    876    875    877     1   109.6600471 523.836800
    876    875    882     1   109.6600471 523.836800
    876    878    879     1   111.0400475 529.694400
    877    875    882     1   109.6600471 523.836800
    877    880    881     1   111.0400475 529.694400
    878    879    885     1   123.2000528 564.003200
    878    879   1820     1   115.1800491 558.982400
    879   1820   1819     1   120.6900519 530.531200
    880    881    886     1   123.2000528 564.003200
    880    881   1846     1   115.1800491 558.982400
    881   1846   1845     1   120.6900519 530.531200
    882    883    884     1   111.6100477 551.451200
    885    879   1820     1   123.0500530 620.905600
    886    881   1846     1   123.0500530 620.905600
    901    902    904     1   114.2100488 537.225600
    901    903    906     1   114.2100488 537.225600
    901    908    909     1   114.2100488 537.225600
    902    901    903     1   109.6600471 523.836800
    902    901    908     1   109.6600471 523.836800
    902    904    905     1   111.0400475 529.694400
    903    901    908     1   109.6600471 523.836800
    903    906    907     1   111.0400475 529.694400
    904    905    911     1   123.2000528 564.003200
    904    905   1872     1   115.1800491 558.982400
    905   1872   1871     1   120.6900519 530.531200
    906    907    912     1   123.2000528 564.003200
    906    907   1898     1   115.1800491 558.982400
    907   1898   1897     1   120.6900519 530.531200
    908    909    910     1   111.6100477 551.451200
    911    905   1872     1   123.0500530 620.905600
    912    907   1898     1   123.0500530 620.905600
    927    928    930     1   114.2100488 537.225600
    927    929    932     1   114.2100488 537.225600
    927    934    935     1   114.2100488 537.225600
    928    927    929     1   109.6600471 523.836800
    928    927    934     1   109.6600471 523.836800
    928    930    931     1   111.0400475 529.694400
    929    927    934     1   109.6600471 523.836800
    929    932    933     1   111.0400475 529.694400
    930    931    937     1   123.2000528 564.003200
    930    931   1924     1   115.1800491 558.982400
    931   1924   1923     1   120.6900519 530.531200
    932    933    938     1   123.2000528 564.003200
    932    933   1950     1   115.1800491 558.982400
    933   1950   1949     1   120.6900519 530.531200
    934    935    936     1   111.6100477 551.451200
    937    931   1924     1   123.0500530 620.905600
    938    933   1950     1   123.0500530 620.905600
    953    954    956     1   114.2100488 537.225600
    953    955    958     1   114.2100488 537.225600
    953    960    961     1   114.2100488 537.225600
    954    953    955     1   109.6600471 523.836800
    954    953    960     1   109.6600471 523.836800
    954    956    957     1   111.0400475 529.694400
    955    953    960     1   109.6600471 523.836800
    955    958    959     1   111.0400475 529.694400
    956    957    963     1   123.2000528 564.003200
    956    957   1976     1   115.1800491 558.982400
    957   1976   1975     1   120.6900519 530.531200
    958    959    964     1   123.2000528 564.003200
    958    959   2002     1   115.1800491 558.982400
    959   2002   2001     1   120.6900519 530.531200
    960    961    962     1   111.6100477 551.451200
    963    957   1976     1   123.0500530 620.905600
    964    959   2002     1   123.0500530 620.905600
    979    980    982     1   114.2100488 537.225600
    979    981    984     1   114.2100488 537.225600
    979    986    987     1   114.2100488 537.225600
    980    979    981     1   109.6600471 523.836800
    980    979    986     1   109.6600471 523.836800
    980    982    983     1   111.0400475 529.694400
    981    979    986     1   109.6600471 523.836800
    981    984    985     1   111.0400475 529.694400
    982    983    989     1   123.2000528 564.003200
    982    983   2028     1   115.1800491 558.982400
    983   2028   2027     1   120.6900519 530.531200
    984    985    990     1   123.2000528 564.003200
    984    985   2054     1   115.1800491 558.982400
    985   2054   2053     1   120.6900519 530.531200
    986    987    988     1   111.6100477 551.451200
    989    983   2028     1   123.0500530 620.905600
    990    985   2054     1   123.0500530 620.905600
   1005   1006   1008     1   114.2100488 537.225600
   1005   1007   1010     1   114.2100488 537.225600
   1005   1012   1013     1   114.2100488 537.225600
   1006   1005   1007     1   109.6600471 523.836800
   1006   1005   1012     1   109.6600471 523.836800
   1006   1008   1009     1   111.0400475 529.694400
   1007   1005   1012     1   109.6600471 523.836800
   1007   1010   1011     1   111.0400475 529.694400
   1008   1009   1015     1   123.2000528 564.003200
   1008   1009   2080     1   115.1800491 558.982400
   1009   2080   2079     1   120.6900519 530.531200
   1010   1011   1016     1   123.2000528 564.003200
   1010   1011   2106     1   115.1800491 558.982400
   1011   2106   2105     1   120.6900519 530.531200
   1012   1013   1014     1   111.6100477 551.451200
   1015   1009   2080     1   123.0500530 620.905600
   1016   1011   2106     1   123.0500530 620.905600
   1031   1032   1034     1   114.2100488 537.225600
   1031   1033   1036     1   114.2100488 537.225600
   1031   1038   1039     1   114.2100488 537.225600
   1032   1031   1033     1   109.6600471 523.836800
   1032   1031   1038     1   109.6600471 523.836800
   1032   1034   1035     1   111.0400475 529.694400
   1033   1031   1038     1   109.6600471 523.836800
   1033   1036   1037     1   111.0400475 529.694400
   1034   1035   1041     1   123.2000528 564.003200
   1034   1035   2132     1   115.1800491 558.982400
   1035   2132   2131     1   120.6900519 530.531200
   1036   1037   1042     1   123.2000528 564.003200
   1036   1037   2158     1   115.1800491 558.982400
   1037   2158   2157     1   120.6900519 530.531200
   1038   1039   1040     1   111.6100477 551.451200
   1041   1035   2132     1   123.0500530 620.905600
   1042   1037   2158     1   123.0500530 620.905600
   1057   1058   1060     1   114.2100488 537.225600
   1057   1059   1062     1   114.2100488 537.225600
   1057   1064   1065     1   114.2100488 537.225600
   1058   1057   1059     1   109.6600471 523.836800
   1058   1057   1064     1   109.6600471 523.836800
   1058   1060   1061     1   111.0400475 529.694400
   1059   1057   1064     1   109.6600471 523.836800
   1059   1062   1063     1   111.0400475 529.694400
   1060   1061   1067     1   123.2000528 564.003200
   1060   1061   2184     1   115.1800491 558.982400
   1061   2184   2183     1   120.6900519 530.531200
   1062   1063   1068     1   123.2000528 564.003200
   1062   1063   2210     1   115.1800491 558.982400
   1063   2210   2209     1   120.6900519 530.531200
   1064   1065   1066     1   111.6100477 551.451200
   1067   1061   2184     1   123.0500530 620.905600
   1068   1063   2210     1   123.0500530 620.905600
   1083   1084   1086     1   114.2100488 537.225600
   1083   1085   1088     1   114.2100488 537.225600
   1083   1090   1091     1   114.2100488 537.225600
   1084   1083   1085     1   109.6600471 523.836800
   1084   1083   1090     1   109.6600471 523.836800
   1084   1086   1087     1   111.0400475 529.694400
   1085   1083   1090     1   109.6600471 523.836800
   1085   1088   1089     1   111.0400475 529.694400
   1086   1087   1093     1   123.2000528 564.003200
   1086   1087   2236     1   115.1800491 558.982400
   1087   2236   2235     1   120.6900519 530.531200
   1088   1089   1094     1   123.2000528 564.003200
   1088   1089   2262     1   115.1800491 558.982400
   1089   2262   2261     1   120.6900519 530.531200
   1090   1091   1092     1   111.6100477 551.451200
   1093   1087   2236     1   123.0500530 620.905600
   1094   1089   2262     1   123.0500530 620.905600
   1109   1110   1112     1   114.2100488 537.225600
   1109   1111   1114     1   114.2100488 537.225600
   1109   1116   1117     1   114.2100488 537.225600
   1110   1109   1111     1   109.6600471 523.836800
   1110   1109   1116     1   109.6600471 523.836800
   1110   1112   1113     1   111.0400475 529.694400
   1111   1109   1116     1   109.6600471 523.836800
   1111   1114   1115     1   111.0400475 529.694400
   1112   1113   1119     1   123.2000528 564.003200
   1112   1113   2288     1   115.1800491 558.982400
   1113   2288   2287     1   120.6900519 530.531200
   1114   1115   1120     1   123.2000528 564.003200
   1114   1115   2314     1   115.1800491 558.982400
   1115   2314   2313     1   120.6900519 530.531200
   1116   1117   1118     1   111.6100477 551.451200
   1119   1113   2288     1   123.0500530 620.905600
   1120   1115   2314     1   123.0500530 620.905600
   1135   1136   1138     1   114.2100488 537.225600
   1135   1137   1140     1   114.2100488 537.225600
   1135   1142   1143     1   114.2100488 537.225600
   1136   1135   1137     1   109.6600471 523.836800
   1136   1135   1142     1   109.6600471 523.836800
   1136   1138   1139     1   111.0400475 529.694400
   1137   1135   1142     1   109.6600471 523.836800
   1137   1140   1141     1   111.0400475 529.694400
   1138   1139   1145     1   123.2000528 564.003200
   1138   1139   2340     1   115.1800491 558.982400
   1139   2340   2339     1   120.6900519 530.531200
   1140   1141   1146     1   123.2000528 564.003200
   1140   1141   2366     1   115.1800491 558.982400
   1141   2366   2365     1   120.6900519 530.531200
   1142   1143   1144     1   111.6100477 551.451200
   1145   1139   2340     1   123.0500530 620.905600
   1146   1141   2366     1   123.0500530 620.905600
   1161   1162   1164     1   114.2100488 537.225600
   1161   1163   1166     1   114.2100488 537.225600
   1161   1168   1169     1   114.2100488 537.225600
   1162   1161   1163     1   109.6600471 523.836800
   1162   1161   1168     1   109.6600471 523.836800
   1162   1164   1165     1   111.0400475 529.694400
   1163   1161   1168     1   109.6600471 523.836800
   1163   1166   1167     1   111.0400475 529.694400
   1164   1165   1171     1   123.2000528 564.003200
   1164   1165   2392     1   115.1800491 558.982400
   1165   2392   2391     1   120.6900519 530.531200
   1166   1167   1172     1   123.2000528 564.003200
   1166   1167   2418     1   115.1800491 558.982400
   1167   2418   2417     1   120.6900519 530.531200
   1168   1169   1170     1   111.6100477 551.451200
   1171   1165   2392     1   123.0500530 620.905600
   1172   1167   2418     1   123.0500530 620.905600
   1187   1188   1190     1   114.2100488 537.225600
   1187   1189   1192     1   114.2100488 537.225600
   1187   1194   1195     1   114.2100488 537.225600
   1188   1187   1189     1   109.6600471 523.836800
   1188   1187   1194     1   109.6600471 523.836800
   1188   1190   1191     1   111.0400475 529.694400
   1189   1187   1194     1   109.6600471 523.836800
   1189   1192   1193     1   111.0400475 529.694400
   1190   1191   1197     1   123.2000528 564.003200
   1190   1191   2444     1   115.1800491 558.982400
   1191   2444   2443     1   120.6900519 530.531200
   1192   1193   1198     1   123.2000528 564.003200
   1192   1193   2470     1   115.1800491 558.982400
   1193   2470   2469     1   120.6900519 530.531200
   1194   1195   1196     1   111.6100477 551.451200
   1197   1191   2444     1   123.0500530 620.905600
   1198   1193   2470     1   123.0500530 620.905600
   1213   1214   1216     1   114.2100488 537.225600
   1213   1215   1218     1   114.2100488 537.225600
   1213   1220   1221     1   114.2100488 537.225600
   1214   1213   1215     1   109.6600471 523.836800
   1214   1213   1220     1   109.6600471 523.836800
   1214   1216   1217     1   111.0400475 529.694400
   1215   1213   1220     1   109.6600471 523.836800
   1215   1218   1219     1   111.0400475 529.694400
   1216   1217   1223     1   123.2000528 564.003200
   1216   1217   2496     1   115.1800491 558.982400
   1217   2496   2495     1   120.6900519 530.531200
   1218   1219   1224     1   123.2000528 564.003200
   1218   1219   2522     1   115.1800491 558.982400
   1219   2522   2521     1   120.6900519 530.531200
   1220   1221   1222     1   111.6100477 551.451200
   1223   1217   2496     1   123.0500530 620.905600
   1224   1219   2522     1   123.0500530 620.905600
   1239   1240   1242     1   114.2100488 537.225600
   1239   1241   1244     1   114.2100488 537.225600
   1239   1246   1247     1   114.2100488 537.225600
   1240   1239   1241     1   109.6600471 523.836800
   1240   1239   1246     1   109.6600471 523.836800
   1240   1242   1243     1   111.0400475 529.694400
   1241   1239   1246     1   109.6600471 523.836800
   1241   1244   1245     1   111.0400475 529.694400
   1242   1243   1249     1   123.2000528 564.003200
   1242   1243   2548     1   115.1800491 558.982400
   1243   2548   2547     1   120.6900519 530.531200
   1244   1245   1250     1   123.2000528 564.003200
   1244   1245   2574     1   115.1800491 558.982400
   1245   2574   2573     1   120.6900519 530.531200
   1246   1247   1248     1   111.6100477 551.451200
   1249   1243   2548     1   123.0500530 620.905600
   1250   1245   2574     1   123.0500530 620.905600
   1265   1266   1268     1   114.2100488 537.225600
   1265   1267   1270     1   114.2100488 537.225600
   1265   1272   1273     1   114.2100488 537.225600
   1266   1265   1267     1   109.6600471 523.836800
   1266   1265   1272     1   109.6600471 523.836800
   1266   1268   1269     1   111.0400475 529.694400
   1267   1265   1272     1   109.6600471 523.836800
   1267   1270   1271     1   111.0400475 529.694400
   1268   1269   1275     1   123.2000528 564.003200
   1268   1269   2600     1   115.1800491 558.982400
   1269   2600   2599     1   120.6900519 530.531200
   1270   1271   1276     1   123.2000528 564.003200
   1270   1271   2626     1   115.1800491 558.982400
   1271   2626   2625     1   120.6900519 530.531200
   1272   1273   1274     1   111.6100477 551.451200
   1275   1269   2600     1   123.0500530 620.905600
   1276   1271   2626     1   123.0500530 620.905600
   1291   1292   1294     1   114.2100488 537.225600
   1291   1293   1296     1   114.2100488 537.225600
   1291   1298   1299     1   114.2100488 537.225600
   1292   1291   1293     1   109.6600471 523.836800
   1292   1291   1298     1   109.6600471 523.836800
   1292   1294   1295     1   111.0400475 529.694400
   1293   1291   1298     1   109.6600471 523.836800
   1293   1296   1297     1   111.0400475 529.694400
   1294   1295   1301     1   123.2000528 564.003200
   1294   1295   2652     1   115.1800491 558.982400
   1295   2652   2651     1   120.6900519 530.531200
   1296   1297   1302     1   123.2000528 564.003200
   1296   1297   2678     1   115.1800491 558.982400
   1297   2678   2677     1   120.6900519 530.531200
   1298   1299   1300     1   111.6100477 551.451200
   1301   1295   2652     1   123.0500530 620.905600
   1302   1297   2678     1   123.0500530 620.905600
   1317   1318   1320     1   114.2100488 537.225600
   1317   1319   1322     1   114.2100488 537.225600
   1317   1324   1325     1   114.2100488 537.225600
   1318   1317   1319     1   109.6600471 523.836800
   1318   1317   1324     1   109.6600471 523.836800
   1318   1320   1321     1   111.0400475 529.694400
   1319   1317   1324     1   109.6600471 523.836800
   1319   1322   1323     1   111.0400475 529.694400
   1320   1321   1327     1   123.2000528 564.003200
   1320   1321   2704     1   115.1800491 558.982400
   1321   2704   2703     1   120.6900519 530.531200
   1322   1323   1328     1   123.2000528 564.003200
   1322   1323   2730     1   115.1800491 558.982400
   1323   2730   2729     1   120.6900519 530.531200
   1324   1325   1326     1   111.6100477 551.451200
   1327   1321   2704     1   123.0500530 620.905600
   1328   1323   2730     1   123.0500530 620.905600
   1343   1344   1346     1   114.2100488 537.225600
   1343   1345   1348     1   114.2100488 537.225600
   1343   1350   1351     1   114.2100488 537.225600
   1344   1343   1345     1   109.6600471 523.836800
   1344   1343   1350     1   109.6600471 523.836800
   1344   1346   1347     1   111.0400475 529.694400
   1345   1343   1350     1   109.6600471 523.836800
   1345   1348   1349     1   111.0400475 529.694400
   1346   1347   1353     1   123.2000528 564.003200
   1346   1347   2756     1   115.1800491 558.982400
   1347   2756   2755     1   120.6900519 530.531200
   1348   1349   1354     1   123.2000528 564.003200
   1348   1349   2782     1   115.1800491 558.982400
   1349   2782   2781     1   120.6900519 530.531200
   1350   1351   1352     1   111.6100477 551.451200
   1353   1347   2756     1   123.0500530 620.905600
   1354   1349   2782     1   123.0500530 620.905600
   1369   1370   1372     1   114.2100488 537.225600
   1369   1371   1374     1   114.2100488 537.225600
   1369   1376   1377     1   114.2100488 537.225600
   1370   1369   1371     1   109.6600471 523.836800
   1370   1369   1376     1   109.6600471 523.836800
   1370   1372   1373     1   111.0400475 529.694400
   1371   1369   1376     1   109.6600471 523.836800
   1371   1374   1375     1   111.0400475 529.694400
   1372   1373   1379     1   123.2000528 564.003200
   1372   1373   2808     1   115.1800491 558.982400
   1373   2808   2807     1   120.6900519 530.531200
   1374   1375   1380     1   123.2000528 564.003200
   1374   1375   2834     1   115.1800491 558.982400
   1375   2834   2833     1   120.6900519 530.531200
   1376   1377   1378     1   111.6100477 551.451200
   1379   1373   2808     1   123.0500530 620.905600
   1380   1375   2834     1   123.0500530 620.905600
   1395   1396   1398     1   114.2100488 537.225600
   1395   1397   1400     1   114.2100488 537.225600
   1395   1402   1403     1   114.2100488 537.225600
   1396   1395   1397     1   109.6600471 523.836800
   1396   1395   1402     1   109.6600471 523.836800
   1396   1398   1399     1   111.0400475 529.694400
   1397   1395   1402     1   109.6600471 523.836800
   1397   1400   1401     1   111.0400475 529.694400
   1398   1399   1405     1   123.2000528 564.003200
   1398   1399   2860     1   115.1800491 558.982400
   1399   2860   2859     1   120.6900519 530.531200
   1400   1401   1406     1   123.2000528 564.003200
   1400   1401   2886     1   115.1800491 558.982400
   1401   2886   2885     1   120.6900519 530.531200
   1402   1403   1404     1   111.6100477 551.451200
   1405   1399   2860     1   123.0500530 620.905600
   1406   1401   2886     1   123.0500530 620.905600
   1421   1422   1424     1   114.2100488 537.225600
   1421   1423   1426     1   114.2100488 537.225600
   1421   1428   1429     1   114.2100488 537.225600
   1422   1421   1423     1   109.6600471 523.836800
   1422   1421   1428     1   109.6600471 523.836800
   1422   1424   1425     1   111.0400475 529.694400
   1423   1421   1428     1   109.6600471 523.836800
   1423   1426   1427     1   111.0400475 529.694400
   1424   1425   1431     1   123.2000528 564.003200
   1424   1425   2912     1   115.1800491 558.982400
   1425   2912   2911     1   120.6900519 530.531200
   1426   1427   1432     1   123.2000528 564.003200
   1426   1427   2938     1   115.1800491 558.982400
   1427   2938   2937     1   120.6900519 530.531200
   1428   1429   1430     1   111.6100477 551.451200
   1431   1425   2912     1   123.0500530 620.905600
   1432   1427   2938     1   123.0500530 620.905600
   1447   1448   1450     1   114.2100488 537.225600
   1447   1449   1452     1   114.2100488 537.225600
   1447   1454   1455     1   114.2100488 537.225600
   1448   1447   1449     1   109.6600471 523.836800
   1448   1447   1454     1   109.6600471 523.836800
   1448   1450   1451     1   111.0400475 529.694400
   1449   1447   1454     1   109.6600471 523.836800
   1449   1452   1453     1   111.0400475 529.694400
   1450   1451   1457     1   123.2000528 564.003200
   1450   1451   2964     1   115.1800491 558.982400
   1451   2964   2963     1   120.6900519 530.531200
   1452   1453   1458     1   123.2000528 564.003200
   1452   1453   2990     1   115.1800491 558.982400
   1453   2990   2989     1   120.6900519 530.531200
   1454   1455   1456     1   111.6100477 551.451200
   1457   1451   2964     1   123.0500530 620.905600
   1458   1453   2990     1   123.0500530 620.905600
   1473   1474   1476     1   114.2100488 537.225600
   1473   1475   1478     1   114.2100488 537.225600
   1473   1480   1481     1   114.2100488 537.225600
   1474   1473   1475     1   109.6600471 523.836800
   1474   1473   1480     1   109.6600471 523.836800
   1474   1476   1477     1   111.0400475 529.694400
   1475   1473   1480     1   109.6600471 523.836800
   1475   1478   1479     1   111.0400475 529.694400
   1476   1477   1483     1   123.2000528 564.003200
   1476   1477   3016     1   115.1800491 558.982400
   1477   3016   3015     1   120.6900519 530.531200
   1478   1479   1484     1   123.2000528 564.003200
   1478   1479   3042     1   115.1800491 558.982400
   1479   3042   3041     1   120.6900519 530.531200
   1480   1481   1482     1   111.6100477 551.451200
   1483   1477   3016     1   123.0500530 620.905600
   1484   1479   3042     1   123.0500530 620.905600
   1499   1500   1502     1   114.2100488 537.225600
   1499   1501   1504     1   114.2100488 537.225600
   1499   1506   1507     1   114.2100488 537.225600
   1500   1499   1501     1   109.6600471 523.836800
   1500   1499   1506     1   109.6600471 523.836800
   1500   1502   1503     1   111.0400475 529.694400
   1501   1499   1506     1   109.6600471 523.836800
   1501   1504   1505     1   111.0400475 529.694400
   1502   1503   1509     1   123.2000528 564.003200
   1502   1503   3068     1   115.1800491 558.982400
   1503   3068   3067     1   120.6900519 530.531200
   1504   1505   1510     1   123.2000528 564.003200
   1504   1505   3094     1   115.1800491 558.982400
   1505   3094   3093     1   120.6900519 530.531200
   1506   1507   1508     1   111.6100477 551.451200
   1509   1503   3068     1   123.0500530 620.905600
   1510   1505   3094     1   123.0500530 620.905600
   1525   1526   1528     1   114.2100488 537.225600
   1525   1527   1530     1   114.2100488 537.225600
   1525   1532   1533     1   114.2100488 537.225600
   1526   1525   1527     1   109.6600471 523.836800
   1526   1525   1532     1   109.6600471 523.836800
   1526   1528   1529     1   111.0400475 529.694400
   1527   1525   1532     1   109.6600471 523.836800
   1527   1530   1531     1   111.0400475 529.694400
   1528   1529   1535     1   123.2000528 564.003200
   1528   1529   3120     1   115.1800491 558.982400
   1529   3120   3119     1   120.6900519 530.531200
   1530   1531   1536     1   123.2000528 564.003200
   1530   1531   3146     1   115.1800491 558.982400
   1531   3146   3145     1   120.6900519 530.531200
   1532   1533   1534     1   111.6100477 551.451200
   1535   1529   3120     1   123.0500530 620.905600
   1536   1531   3146     1   123.0500530 620.905600
   1551   1552   1554     1   114.2100488 537.225600
   1551   1553   1556     1   114.2100488 537.225600
   1551   1558   1559     1   114.2100488 537.225600
   1552   1551   1553     1   109.6600471 523.836800
   1552   1551   1558     1   109.6600471 523.836800
   1552   1554   1555     1   111.0400475 529.694400
   1553   1551   1558     1   109.6600471 523.836800
   1553   1556   1557     1   111.0400475 529.694400
   1554   1555   1561     1   123.2000528 564.003200
   1554   1555   3172     1   115.1800491 558.982400
   1555   3172   3171     1   120.6900519 530.531200
   1556   1557   1562     1   123.2000528 564.003200
   1556   1557   3198     1   115.1800491 558.982400
   1557   3198   3197     1   120.6900519 530.531200
   1558   1559   1560     1   111.6100477 551.451200
   1561   1555   3172     1   123.0500530 620.905600
   1562   1557   3198     1   123.0500530 620.905600
   1577   1578   1580     1   114.2100488 537.225600
   1577   1579   1582     1   114.2100488 537.225600
   1577   1584   1585     1   114.2100488 537.225600
   1578   1577   1579     1   109.6600471 523.836800
   1578   1577   1584     1   109.6600471 523.836800
   1578   1580   1581     1   111.0400475 529.694400
   1579   1577   1584     1   109.6600471 523.836800
   1579   1582   1583     1   111.0400475 529.694400
   1580   1581   1587     1   123.2000528 564.003200
   1580   1581   3224     1   115.1800491 558.982400
   1581   3224   3223     1   120.6900519 530.531200
   1582   1583   1588     1   123.2000528 564.003200
   1582   1583   3250     1   115.1800491 558.982400
   1583   3250   3249     1   120.6900519 530.531200
   1584   1585   1586     1   111.6100477 551.451200
   1587   1581   3224     1   123.0500530 620.905600
   1588   1583   3250     1   123.0500530 620.905600
   1603   1604   1606     1   114.2100488 537.225600
   1603   1605   1608     1   114.2100488 537.225600
   1603   1610   1611     1   114.2100488 537.225600
   1604   1603   1605     1   109.6600471 523.836800
   1604   1603   1610     1   109.6600471 523.836800
   1604   1606   1607     1   111.0400475 529.694400
   1605   1603   1610     1   109.6600471 523.836800
   1605   1608   1609     1   111.0400475 529.694400
   1606   1607   3267     1   115.1800491 558.982400
   1606   1607   1613     1   123.2000528 564.003200
   1607   3267   3269     1   120.6900519 530.531200
   1608   1609   1614     1   123.2000528 564.003200
   1608   1609   3279     1   115.1800491 558.982400
   1609   3279   3281     1   120.6900519 530.531200
   1610   1611   1612     1   111.6100477 551.451200
   1613   1607   3267     1   123.0500530 620.905600
   1614   1609   3279     1   123.0500530 620.905600
   1629   1630   1632     1   114.2100488 537.225600
   1629   1631   1634     1   114.2100488 537.225600
   1629   1636   1637     1   114.2100488 537.225600
   1630   1629   1631     1   109.6600471 523.836800
   1630   1629   1636     1   109.6600471 523.836800
   1630   1632   1633     1   111.0400475 529.694400
   1631   1629   1636     1   109.6600471 523.836800
   1631   1634   1635     1   111.0400475 529.694400
   1632   1633   3291     1   115.1800491 558.982400
   1632   1633   1639     1   123.2000528 564.003200
   1633   3291   3293     1   120.6900519 530.531200
   1634   1635   1640     1   123.2000528 564.003200
   1634   1635   3303     1   115.1800491 558.982400
   1635   3303   3305     1   120.6900519 530.531200
   1636   1637   1638     1   111.6100477 551.451200
   1639   1633   3291     1   123.0500530 620.905600
   1640   1635   3303     1   123.0500530 620.905600
   1655   1656   1658     1   114.2100488 537.225600
   1655   1657   1660     1   114.2100488 537.225600
   1655   1662   1663     1   114.2100488 537.225600
   1656   1655   1657     1   109.6600471 523.836800
   1656   1655   1662     1   109.6600471 523.836800
   1656   1658   1659     1   111.0400475 529.694400
   1657   1655   1662     1   109.6600471 523.836800
   1657   1660   1661     1   111.0400475 529.694400
   1658   1659   3315     1   115.1800491 558.982400
   1658   1659   1665     1   123.2000528 564.003200
   1659   3315   3317     1   120.6900519 530.531200
   1660   1661   1666     1   123.2000528 564.003200
   1660   1661   3327     1   115.1800491 558.982400
   1661   3327   3329     1   120.6900519 530.531200
   1662   1663   1664     1   111.6100477 551.451200
   1665   1659   3315     1   123.0500530 620.905600
   1666   1661   3327     1   123.0500530 620.905600
   1681   1682   1684     1   114.2100488 537.225600
   1681   1683   1686     1   114.2100488 537.225600
   1681   1688   1689     1   114.2100488 537.225600
   1682   1681   1683     1   109.6600471 523.836800
   1682   1681   1688     1   109.6600471 523.836800
   1682   1684   1685     1   111.0400475 529.694400
   1683   1681   1688     1   109.6600471 523.836800
   1683   1686   1687     1   111.0400475 529.694400
   1684   1685   3339     1   115.1800491 558.982400
   1684   1685   1691     1   123.2000528 564.003200
   1685   3339   3341     1   120.6900519 530.531200
   1686   1687   1692     1   123.2000528 564.003200
   1686   1687   3351     1   115.1800491 558.982400
   1687   3351   3353     1   120.6900519 530.531200
   1688   1689   1690     1   111.6100477 551.451200
   1691   1685   3339     1   123.0500530 620.905600
   1692   1687   3351     1   123.0500530 620.905600
   1707   1708   1710     1   114.2100488 537.225600
   1707   1709   1712     1   114.2100488 537.225600
   1707   1714   1715     1   114.2100488 537.225600
   1708   1707   1709     1   109.6600471 523.836800
   1708   1707   1714     1   109.6600471 523.836800
   1708   1710   1711     1   111.0400475 529.694400
   1709   1707   1714     1   109.6600471 523.836800
   1709   1712   1713     1   111.0400475 529.694400
   1710   1711   3363     1   115.1800491 558.982400
   1710   1711   1717     1   123.2000528 564.003200
   1711   3363   3365     1   120.6900519 530.531200
   1712   1713   1718     1   123.2000528 564.003200
   1712   1713   3375     1   115.1800491 558.982400
   1713   3375   3377     1   120.6900519 530.531200
   1714   1715   1716     1   111.6100477 551.451200
   1717   1711   3363     1   123.0500530 620.905600
   1718   1713   3375     1   123.0500530 620.905600
   1733   1734   1736     1   114.2100488 537.225600
   1733   1735   1738     1   114.2100488 537.225600
   1733   1740   1741     1   114.2100488 537.225600
   1734   1733   1735     1   109.6600471 523.836800
   1734   1733   1740     1   109.6600471 523.836800
   1734   1736   1737     1   111.0400475 529.694400
   1735   1733   1740     1   109.6600471 523.836800
   1735   1738   1739     1   111.0400475 529.694400
   1736   1737   3387     1   115.1800491 558.982400
   1736   1737   1743     1   123.2000528 564.003200
   1737   3387   3389     1   120.6900519 530.531200
   1738   1739   1744     1   123.2000528 564.003200
   1738   1739   3399     1   115.1800491 558.982400
   1739   3399   3401     1   120.6900519 530.531200
   1740   1741   1742     1   111.6100477 551.451200
   1743   1737   3387     1   123.0500530 620.905600
   1744   1739   3399     1   123.0500530 620.905600
   1759   1760   1762     1   114.2100488 537.225600
   1759   1761   1764     1   114.2100488 537.225600
   1759   1766   1767     1   114.2100488 537.225600
   1760   1759   1761     1   109.6600471 523.836800
   1760   1759   1766     1   109.6600471 523.836800
   1760   1762   1763     1   111.0400475 529.694400
   1761   1759   1766     1   109.6600471 523.836800
   1761   1764   1765     1   111.0400475 529.694400
   1762   1763   3411     1   115.1800491 558.982400
   1762   1763   1769     1   123.2000528 564.003200
   1763   3411   3413     1   120.6900519 530.531200
   1764   1765   1770     1   123.2000528 564.003200
   1764   1765   3423     1   115.1800491 558.982400
   1765   3423   3425     1   120.6900519 530.531200
   1766   1767   1768     1   111.6100477 551.451200
   1769   1763   3411     1   123.0500530 620.905600
   1770   1765   3423     1   123.0500530 620.905600
   1785   1786   1788     1   114.2100488 537.225600
   1785   1787   1790     1   114.2100488 537.225600
   1785   1792   1793     1   114.2100488 537.225600
   1786   1785   1787     1   109.6600471 523.836800
   1786   1785   1792     1   109.6600471 523.836800
   1786   1788   1789     1   111.0400475 529.694400
   1787   1785   1792     1   109.6600471 523.836800
   1787   1790   1791     1   111.0400475 529.694400
   1788   1789   3435     1   115.1800491 558.982400
   1788   1789   1795     1   123.2000528 564.003200
   1789   3435   3437     1   120.6900519 530.531200
   1790   1791   1796     1   123.2000528 564.003200
   1790   1791   3447     1   115.1800491 558.982400
   1791   3447   3449     1   120.6900519 530.531200
   1792   1793   1794     1   111.6100477 551.451200
   1795   1789   3435     1   123.0500530 620.905600
   1796   1791   3447     1   123.0500530 620.905600
   1811   1812   1814     1   114.2100488 537.225600
   1811   1813   1816     1   114.2100488 537.225600
   1811   1818   1819     1   114.2100488 537.225600
   1812   1811   1813     1   109.6600471 523.836800
   1812   1811   1818     1   109.6600471 523.836800
   1812   1814   1815     1   111.0400475 529.694400
   1813   1811   1818     1   109.6600471 523.836800
   1813   1816   1817     1   111.0400475 529.694400
   1814   1815   3459     1   115.1800491 558.982400
   1814   1815   1821     1   123.2000528 564.003200
   1815   3459   3461     1   120.6900519 530.531200
   1816   1817   1822     1   123.2000528 564.003200
   1816   1817   3471     1   115.1800491 558.982400
   1817   3471   3473     1   120.6900519 530.531200
   1818   1819   1820     1   111.6100477 551.451200
   1821   1815   3459     1   123.0500530 620.905600
   1822   1817   3471     1   123.0500530 620.905600
   1837   1838   1840     1   114.2100488 537.225600
   1837   1839   1842     1   114.2100488 537.225600
   1837   1844   1845     1   114.2100488 537.225600
   1838   1837   1839     1   109.6600471 523.836800
   1838   1837   1844     1   109.6600471 523.836800
   1838   1840   1841     1   111.0400475 529.694400
   1839   1837   1844     1   109.6600471 523.836800
   1839   1842   1843     1   111.0400475 529.694400
   1840   1841   3483     1   115.1800491 558.982400
   1840   1841   1847     1   123.2000528 564.003200
   1841   3483   3485     1   120.6900519 530.531200
   1842   1843   1848     1   123.2000528 564.003200
   1842   1843   3495     1   115.1800491 558.982400
   1843   3495   3497     1   120.6900519 530.531200
   1844   1845   1846     1   111.6100477 551.451200
   1847   1841   3483     1   123.0500530 620.905600
   1848   1843   3495     1   123.0500530 620.905600
   1863   1864   1866     1   114.2100488 537.225600
   1863   1865   1868     1   114.2100488 537.225600
   1863   1870   1871     1   114.2100488 537.225600
   1864   1863   1865     1   109.6600471 523.836800
   1864   1863   1870     1   109.6600471 523.836800
   1864   1866   1867     1   111.0400475 529.694400
   1865   1863   1870     1   109.6600471 523.836800
   1865   1868   1869     1   111.0400475 529.694400
   1866   1867   3507     1   115.1800491 558.982400
   1866   1867   1873     1   123.2000528 564.003200
   1867   3507   3509     1   120.6900519 530.531200
   1868   1869   1874     1   123.2000528 564.003200
   1868   1869   3519     1   115.1800491 558.982400
   1869   3519   3521     1   120.6900519 530.531200
   1870   1871   1872     1   111.6100477 551.451200
   1873   1867   3507     1   123.0500530 620.905600
   1874   1869   3519     1   123.0500530 620.905600
   1889   1890   1892     1   114.2100488 537.225600
   1889   1891   1894     1   114.2100488 537.225600
   1889   1896   1897     1   114.2100488 537.225600
   1890   1889   1891     1   109.6600471 523.836800
   1890   1889   1896     1   109.6600471 523.836800
   1890   1892   1893     1   111.0400475 529.694400
   1891   1889   1896     1   109.6600471 523.836800
   1891   1894   1895     1   111.0400475 529.694400
   1892   1893   3531     1   115.1800491 558.982400
   1892   1893   1899     1   123.2000528 564.003200
   1893   3531   3533     1   120.6900519 530.531200
   1894   1895   1900     1   123.2000528 564.003200
   1894   1895   3543     1   115.1800491 558.982400
   1895   3543   3545     1   120.6900519 530.531200
   1896   1897   1898     1   111.6100477 551.451200
   1899   1893   3531     1   123.0500530 620.905600
   1900   1895   3543     1   123.0500530 620.905600
   1915   1916   1918     1   114.2100488 537.225600
   1915   1917   1920     1   114.2100488 537.225600
   1915   1922   1923     1   114.2100488 537.225600
   1916   1915   1917     1   109.6600471 523.836800
   1916   1915   1922     1   109.6600471 523.836800
   1916   1918   1919     1   111.0400475 529.694400
   1917   1915   1922     1   109.6600471 523.836800
   1917   1920   1921     1   111.0400475 529.694400
   1918   1919   3555     1   115.1800491 558.982400
   1918   1919   1925     1   123.2000528 564.003200
   1919   3555   3557     1   120.6900519 530.531200
   1920   1921   1926     1   123.2000528 564.003200
   1920   1921   3567     1   115.1800491 558.982400
   1921   3567   3569     1   120.6900519 530.531200
   1922   1923   1924     1   111.6100477 551.451200
   1925   1919   3555     1   123.0500530 620.905600
   1926   1921   3567     1   123.0500530 620.905600
   1941   1942   1944     1   114.2100488 537.225600
   1941   1943   1946     1   114.2100488 537.225600
   1941   1948   1949     1   114.2100488 537.225600
   1942   1941   1943     1   109.6600471 523.836800
   1942   1941   1948     1   109.6600471 523.836800
   1942   1944   1945     1   111.0400475 529.694400
   1943   1941   1948     1   109.6600471 523.836800
   1943   1946   1947     1   111.0400475 529.694400
   1944   1945   3579     1   115.1800491 558.982400
   1944   1945   1951     1   123.2000528 564.003200
   1945   3579   3581     1   120.6900519 530.531200
   1946   1947   1952     1   123.2000528 564.003200
   1946   1947   3591     1   115.1800491 558.982400
   1947   3591   3593     1   120.6900519 530.531200
   1948   1949   1950     1   111.6100477 551.451200
   1951   1945   3579     1   123.0500530 620.905600
   1952   1947   3591     1   123.0500530 620.905600
   1967   1968   1970     1   114.2100488 537.225600
   1967   1969   1972     1   114.2100488 537.225600
   1967   1974   1975     1   114.2100488 537.225600
   1968   1967   1969     1   109.6600471 523.836800
   1968   1967   1974     1   109.6600471 523.836800
   1968   1970   1971     1   111.0400475 529.694400
   1969   1967   1974     1   109.6600471 523.836800
   1969   1972   1973     1   111.0400475 529.694400
   1970   1971   3603     1   115.1800491 558.982400
   1970   1971   1977     1   123.2000528 564.003200
   1971   3603   3605     1   120.6900519 530.531200
   1972   1973   1978     1   123.2000528 564.003200
   1972   1973   3615     1   115.1800491 558.982400
   1973   3615   3617     1   120.6900519 530.531200
   1974   1975   1976     1   111.6100477 551.451200
   1977   1971   3603     1   123.0500530 620.905600
   1978   1973   3615     1   123.0500530 620.905600
   1993   1994   1996     1   114.2100488 537.225600
   1993   1995   1998     1   114.2100488 537.225600
   1993   2000   2001     1   114.2100488 537.225600
   1994   1993   1995     1   109.6600471 523.836800
   1994   1993   2000     1   109.6600471 523.836800
   1994   1996   1997     1   111.0400475 529.694400
   1995   1993   2000     1   109.6600471 523.836800
   1995   1998   1999     1   111.0400475 529.694400
   1996   1997   3627     1   115.1800491 558.982400
   1996   1997   2003     1   123.2000528 564.003200
   1997   3627   3629     1   120.6900519 530.531200
   1998   1999   2004     1   123.2000528 564.003200
   1998   1999   3639     1   115.1800491 558.982400
   1999   3639   3641     1   120.6900519 530.531200
   2000   2001   2002     1   111.6100477 551.451200
   2003   1997   3627     1   123.0500530 620.905600
   2004   1999   3639     1   123.0500530 620.905600
   2019   2020   2022     1   114.2100488 537.225600
   2019   2021   2024     1   114.2100488 537.225600
   2019   2026   2027     1   114.2100488 537.225600
   2020   2019   2021     1   109.6600471 523.836800
   2020   2019   2026     1   109.6600471 523.836800
   2020   2022   2023     1   111.0400475 529.694400
   2021   2019   2026     1   109.6600471 523.836800
   2021   2024   2025     1   111.0400475 529.694400
   2022   2023   3651     1   115.1800491 558.982400
   2022   2023   2029     1   123.2000528 564.003200
   2023   3651   3653     1   120.6900519 530.531200
   2024   2025   2030     1   123.2000528 564.003200
   2024   2025   3663     1   115.1800491 558.982400
   2025   3663   3665     1   120.6900519 530.531200
   2026   2027   2028     1   111.6100477 551.451200
   2029   2023   3651     1   123.0500530 620.905600
   2030   2025   3663     1   123.0500530 620.905600
   2045   2046   2048     1   114.2100488 537.225600
   2045   2047   2050     1   114.2100488 537.225600
   2045   2052   2053     1   114.2100488 537.225600
   2046   2045   2047     1   109.6600471 523.836800
   2046   2045   2052     1   109.6600471 523.836800
   2046   2048   2049     1   111.0400475 529.694400
   2047   2045   2052     1   109.6600471 523.836800
   2047   2050   2051     1   111.0400475 529.694400
   2048   2049   3675     1   115.1800491 558.982400
   2048   2049   2055     1   123.2000528 564.003200
   2049   3675   3677     1   120.6900519 530.531200
   2050   2051   2056     1   123.2000528 564.003200
   2050   2051   3687     1   115.1800491 558.982400
   2051   3687   3689     1   120.6900519 530.531200
   2052   2053   2054     1   111.6100477 551.451200
   2055   2049   3675     1   123.0500530 620.905600
   2056   2051   3687     1   123.0500530 620.905600
   2071   2072   2074     1   114.2100488 537.225600
   2071   2073   2076     1   114.2100488 537.225600
   2071   2078   2079     1   114.2100488 537.225600
   2072   2071   2073     1   109.6600471 523.836800
   2072   2071   2078     1   109.6600471 523.836800
   2072   2074   2075     1   111.0400475 529.694400
   2073   2071   2078     1   109.6600471 523.836800
   2073   2076   2077     1   111.0400475 529.694400
   2074   2075   3699     1   115.1800491 558.982400
   2074   2075   2081     1   123.2000528 564.003200
   2075   3699   3701     1   120.6900519 530.531200
   2076   2077   2082     1   123.2000528 564.003200
   2076   2077   3711     1   115.1800491 558.982400
   2077   3711   3713     1   120.6900519 530.531200
   2078   2079   2080     1   111.6100477 551.451200
   2081   2075   3699     1   123.0500530 620.905600
   2082   2077   3711     1   123.0500530 620.905600
   2097   2098   2100     1   114.2100488 537.225600
   2097   2099   2102     1   114.2100488 537.225600
   2097   2104   2105     1   114.2100488 537.225600
   2098   2097   2099     1   109.6600471 523.836800
   2098   2097   2104     1   109.6600471 523.836800
   2098   2100   2101     1   111.0400475 529.694400
   2099   2097   2104     1   109.6600471 523.836800
   2099   2102   2103     1   111.0400475 529.694400
   2100   2101   3723     1   115.1800491 558.982400
   2100   2101   2107     1   123.2000528 564.003200
   2101   3723   3725     1   120.6900519 530.531200
   2102   2103   2108     1   123.2000528 564.003200
   2102   2103   3735     1   115.1800491 558.982400
   2103   3735   3737     1   120.6900519 530.531200
   2104   2105   2106     1   111.6100477 551.451200
   2107   2101   3723     1   123.0500530 620.905600
   2108   2103   3735     1   123.0500530 620.905600
   2123   2124   2126     1   114.2100488 537.225600
   2123   2125   2128     1   114.2100488 537.225600
   2123   2130   2131     1   114.2100488 537.225600
   2124   2123   2125     1   109.6600471 523.836800
   2124   2123   2130     1   109.6600471 523.836800
   2124   2126   2127     1   111.0400475 529.694400
   2125   2123   2130     1   109.6600471 523.836800
   2125   2128   2129     1   111.0400475 529.694400
   2126   2127   3747     1   115.1800491 558.982400
   2126   2127   2133     1   123.2000528 564.003200
   2127   3747   3749     1   120.6900519 530.531200
   2128   2129   2134     1   123.2000528 564.003200
   2128   2129   3759     1   115.1800491 558.982400
   2129   3759   3761     1   120.6900519 530.531200
   2130   2131   2132     1   111.6100477 551.451200
   2133   2127   3747     1   123.0500530 620.905600
   2134   2129   3759     1   123.0500530 620.905600
   2149   2150   2152     1   114.2100488 537.225600
   2149   2151   2154     1   114.2100488 537.225600
   2149   2156   2157     1   114.2100488 537.225600
   2150   2149   2151     1   109.6600471 523.836800
   2150   2149   2156     1   109.6600471 523.836800
   2150   2152   2153     1   111.0400475 529.694400
   2151   2149   2156     1   109.6600471 523.836800
   2151   2154   2155     1   111.0400475 529.694400
   2152   2153   3771     1   115.1800491 558.982400
   2152   2153   2159     1   123.2000528 564.003200
   2153   3771   3773     1   120.6900519 530.531200
   2154   2155   2160     1   123.2000528 564.003200
   2154   2155   3783     1   115.1800491 558.982400
   2155   3783   3785     1   120.6900519 530.531200
   2156   2157   2158     1   111.6100477 551.451200
   2159   2153   3771     1   123.0500530 620.905600
   2160   2155   3783     1   123.0500530 620.905600
   2175   2176   2178     1   114.2100488 537.225600
   2175   2177   2180     1   114.2100488 537.225600
   2175   2182   2183     1   114.2100488 537.225600
   2176   2175   2177     1   109.6600471 523.836800
   2176   2175   2182     1   109.6600471 523.836800
   2176   2178   2179     1   111.0400475 529.694400
   2177   2175   2182     1   109.6600471 523.836800
   2177   2180   2181     1   111.0400475 529.694400
   2178   2179   3795     1   115.1800491 558.982400
   2178   2179   2185     1   123.2000528 564.003200
   2179   3795   3797     1   120.6900519 530.531200
   2180   2181   2186     1   123.2000528 564.003200
   2180   2181   3807     1   115.1800491 558.982400
   2181   3807   3809     1   120.6900519 530.531200
   2182   2183   2184     1   111.6100477 551.451200
   2185   2179   3795     1   123.0500530 620.905600
   2186   2181   3807     1   123.0500530 620.905600
   2201   2202   2204     1   114.2100488 537.225600
   2201   2203   2206     1   114.2100488 537.225600
   2201   2208   2209     1   114.2100488 537.225600
   2202   2201   2203     1   109.6600471 523.836800
   2202   2201   2208     1   109.6600471 523.836800
   2202   2204   2205     1   111.0400475 529.694400
   2203   2201   2208     1   109.6600471 523.836800
   2203   2206   2207     1   111.0400475 529.694400
   2204   2205   3819     1   115.1800491 558.982400
   2204   2205   2211     1   123.2000528 564.003200
   2205   3819   3821     1   120.6900519 530.531200
   2206   2207   2212     1   123.2000528 564.003200
   2206   2207   3831     1   115.1800491 558.982400
   2207   3831   3833     1   120.6900519 530.531200
   2208   2209   2210     1   111.6100477 551.451200
   2211   2205   3819     1   123.0500530 620.905600
   2212   2207   3831     1   123.0500530 620.905600
   2227   2228   2230     1   114.2100488 537.225600
   2227   2229   2232     1   114.2100488 537.225600
   2227   2234   2235     1   114.2100488 537.225600
   2228   2227   2229     1   109.6600471 523.836800
   2228   2227   2234     1   109.6600471 523.836800
   2228   2230   2231     1   111.0400475 529.694400
   2229   2227   2234     1   109.6600471 523.836800
   2229   2232   2233     1   111.0400475 529.694400
   2230   2231   3843     1   115.1800491 558.982400
   2230   2231   2237     1   123.2000528 564.003200
   2231   3843   3845     1   120.6900519 530.531200
   2232   2233   2238     1   123.2000528 564.003200
   2232   2233   3855     1   115.1800491 558.982400
   2233   3855   3857     1   120.6900519 530.531200
   2234   2235   2236     1   111.6100477 551.451200
   2237   2231   3843     1   123.0500530 620.905600
   2238   2233   3855     1   123.0500530 620.905600
   2253   2254   2256     1   114.2100488 537.225600
   2253   2255   2258     1   114.2100488 537.225600
   2253   2260   2261     1   114.2100488 537.225600
   2254   2253   2255     1   109.6600471 523.836800
   2254   2253   2260     1   109.6600471 523.836800
   2254   2256   2257     1   111.0400475 529.694400
   2255   2253   2260     1   109.6600471 523.836800
   2255   2258   2259     1   111.0400475 529.694400
   2256   2257   3867     1   115.1800491 558.982400
   2256   2257   2263     1   123.2000528 564.003200
   2257   3867   3869     1   120.6900519 530.531200
   2258   2259   2264     1   123.2000528 564.003200
   2258   2259   3879     1   115.1800491 558.982400
   2259   3879   3881     1   120.6900519 530.531200
   2260   2261   2262     1   111.6100477 551.451200
   2263   2257   3867     1   123.0500530 620.905600
   2264   2259   3879     1   123.0500530 620.905600
   2279   2280   2282     1   114.2100488 537.225600
   2279   2281   2284     1   114.2100488 537.225600
   2279   2286   2287     1   114.2100488 537.225600
   2280   2279   2281     1   109.6600471 523.836800
   2280   2279   2286     1   109.6600471 523.836800
   2280   2282   2283     1   111.0400475 529.694400
   2281   2279   2286     1   109.6600471 523.836800
   2281   2284   2285     1   111.0400475 529.694400
   2282   2283   3891     1   115.1800491 558.982400
   2282   2283   2289     1   123.2000528 564.003200
   2283   3891   3893     1   120.6900519 530.531200
   2284   2285   2290     1   123.2000528 564.003200
   2284   2285   3903     1   115.1800491 558.982400
   2285   3903   3905     1   120.6900519 530.531200
   2286   2287   2288     1   111.6100477 551.451200
   2289   2283   3891     1   123.0500530 620.905600
   2290   2285   3903     1   123.0500530 620.905600
   2305   2306   2308     1   114.2100488 537.225600
   2305   2307   2310     1   114.2100488 537.225600
   2305   2312   2313     1   114.2100488 537.225600
   2306   2305   2307     1   109.6600471 523.836800
   2306   2305   2312     1   109.6600471 523.836800
   2306   2308   2309     1   111.0400475 529.694400
   2307   2305   2312     1   109.6600471 523.836800
   2307   2310   2311     1   111.0400475 529.694400
   2308   2309   3915     1   115.1800491 558.982400
   2308   2309   2315     1   123.2000528 564.003200
   2309   3915   3917     1   120.6900519 530.531200
   2310   2311   2316     1   123.2000528 564.003200
   2310   2311   3927     1   115.1800491 558.982400
   2311   3927   3929     1   120.6900519 530.531200
   2312   2313   2314     1   111.6100477 551.451200
   2315   2309   3915     1   123.0500530 620.905600
   2316   2311   3927     1   123.0500530 620.905600
   2331   2332   2334     1   114.2100488 537.225600
   2331   2333   2336     1   114.2100488 537.225600
   2331   2338   2339     1   114.2100488 537.225600
   2332   2331   2333     1   109.6600471 523.836800
   2332   2331   2338     1   109.6600471 523.836800
   2332   2334   2335     1   111.0400475 529.694400
   2333   2331   2338     1   109.6600471 523.836800
   2333   2336   2337     1   111.0400475 529.694400
   2334   2335   3939     1   115.1800491 558.982400
   2334   2335   2341     1   123.2000528 564.003200
   2335   3939   3941     1   120.6900519 530.531200
   2336   2337   2342     1   123.2000528 564.003200
   2336   2337   3951     1   115.1800491 558.982400
   2337   3951   3953     1   120.6900519 530.531200
   2338   2339   2340     1   111.6100477 551.451200
   2341   2335   3939     1   123.0500530 620.905600
   2342   2337   3951     1   123.0500530 620.905600
   2357   2358   2360     1   114.2100488 537.225600
   2357   2359   2362     1   114.2100488 537.225600
   2357   2364   2365     1   114.2100488 537.225600
   2358   2357   2359     1   109.6600471 523.836800
   2358   2357   2364     1   109.6600471 523.836800
   2358   2360   2361     1   111.0400475 529.694400
   2359   2357   2364     1   109.6600471 523.836800
   2359   2362   2363     1   111.0400475 529.694400
   2360   2361   3963     1   115.1800491 558.982400
   2360   2361   2367     1   123.2000528 564.003200
   2361   3963   3965     1   120.6900519 530.531200
   2362   2363   2368     1   123.2000528 564.003200
   2362   2363   3975     1   115.1800491 558.982400
   2363   3975   3977     1   120.6900519 530.531200
   2364   2365   2366     1   111.6100477 551.451200
   2367   2361   3963     1   123.0500530 620.905600
   2368   2363   3975     1   123.0500530 620.905600
   2383   2384   2386     1   114.2100488 537.225600
   2383   2385   2388     1   114.2100488 537.225600
   2383   2390   2391     1   114.2100488 537.225600
   2384   2383   2385     1   109.6600471 523.836800
   2384   2383   2390     1   109.6600471 523.836800
   2384   2386   2387     1   111.0400475 529.694400
   2385   2383   2390     1   109.6600471 523.836800
   2385   2388   2389     1   111.0400475 529.694400
   2386   2387   3987     1   115.1800491 558.982400
   2386   2387   2393     1   123.2000528 564.003200
   2387   3987   3989     1   120.6900519 530.531200
   2388   2389   2394     1   123.2000528 564.003200
   2388   2389   3999     1   115.1800491 558.982400
   2389   3999   4001     1   120.6900519 530.531200
   2390   2391   2392     1   111.6100477 551.451200
   2393   2387   3987     1   123.0500530 620.905600
   2394   2389   3999     1   123.0500530 620.905600
   2409   2410   2412     1   114.2100488 537.225600
   2409   2411   2414     1   114.2100488 537.225600
   2409   2416   2417     1   114.2100488 537.225600
   2410   2409   2411     1   109.6600471 523.836800
   2410   2409   2416     1   109.6600471 523.836800
   2410   2412   2413     1   111.0400475 529.694400
   2411   2409   2416     1   109.6600471 523.836800
   2411   2414   2415     1   111.0400475 529.694400
   2412   2413   4011     1   115.1800491 558.982400
   2412   2413   2419     1   123.2000528 564.003200
   2413   4011   4013     1   120.6900519 530.531200
   2414   2415   2420     1   123.2000528 564.003200
   2414   2415   4023     1   115.1800491 558.982400
   2415   4023   4025     1   120.6900519 530.531200
   2416   2417   2418     1   111.6100477 551.451200
   2419   2413   4011     1   123.0500530 620.905600
   2420   2415   4023     1   123.0500530 620.905600
   2435   2436   2438     1   114.2100488 537.225600
   2435   2437   2440     1   114.2100488 537.225600
   2435   2442   2443     1   114.2100488 537.225600
   2436   2435   2437     1   109.6600471 523.836800
   2436   2435   2442     1   109.6600471 523.836800
   2436   2438   2439     1   111.0400475 529.694400
   2437   2435   2442     1   109.6600471 523.836800
   2437   2440   2441     1   111.0400475 529.694400
   2438   2439   4035     1   115.1800491 558.982400
   2438   2439   2445     1   123.2000528 564.003200
   2439   4035   4037     1   120.6900519 530.531200
   2440   2441   2446     1   123.2000528 564.003200
   2440   2441   4047     1   115.1800491 558.982400
   2441   4047   4049     1   120.6900519 530.531200
   2442   2443   2444     1   111.6100477 551.451200
   2445   2439   4035     1   123.0500530 620.905600
   2446   2441   4047     1   123.0500530 620.905600
   2461   2462   2464     1   114.2100488 537.225600
   2461   2463   2466     1   114.2100488 537.225600
   2461   2468   2469     1   114.2100488 537.225600
   2462   2461   2463     1   109.6600471 523.836800
   2462   2461   2468     1   109.6600471 523.836800
   2462   2464   2465     1   111.0400475 529.694400
   2463   2461   2468     1   109.6600471 523.836800
   2463   2466   2467     1   111.0400475 529.694400
   2464   2465   4059     1   115.1800491 558.982400
   2464   2465   2471     1   123.2000528 564.003200
   2465   4059   4061     1   120.6900519 530.531200
   2466   2467   2472     1   123.2000528 564.003200
   2466   2467   4071     1   115.1800491 558.982400
   2467   4071   4073     1   120.6900519 530.531200
   2468   2469   2470     1   111.6100477 551.451200
   2471   2465   4059     1   123.0500530 620.905600
   2472   2467   4071     1   123.0500530 620.905600
   2487   2488   2490     1   114.2100488 537.225600
   2487   2489   2492     1   114.2100488 537.225600
   2487   2494   2495     1   114.2100488 537.225600
   2488   2487   2489     1   109.6600471 523.836800
   2488   2487   2494     1   109.6600471 523.836800
   2488   2490   2491     1   111.0400475 529.694400
   2489   2487   2494     1   109.6600471 523.836800
   2489   2492   2493     1   111.0400475 529.694400
   2490   2491   4083     1   115.1800491 558.982400
   2490   2491   2497     1   123.2000528 564.003200
   2491   4083   4085     1   120.6900519 530.531200
   2492   2493   2498     1   123.2000528 564.003200
   2492   2493   4095     1   115.1800491 558.982400
   2493   4095   4097     1   120.6900519 530.531200
   2494   2495   2496     1   111.6100477 551.451200
   2497   2491   4083     1   123.0500530 620.905600
   2498   2493   4095     1   123.0500530 620.905600
   2513   2514   2516     1   114.2100488 537.225600
   2513   2515   2518     1   114.2100488 537.225600
   2513   2520   2521     1   114.2100488 537.225600
   2514   2513   2515     1   109.6600471 523.836800
   2514   2513   2520     1   109.6600471 523.836800
   2514   2516   2517     1   111.0400475 529.694400
   2515   2513   2520     1   109.6600471 523.836800
   2515   2518   2519     1   111.0400475 529.694400
   2516   2517   4107     1   115.1800491 558.982400
   2516   2517   2523     1   123.2000528 564.003200
   2517   4107   4109     1   120.6900519 530.531200
   2518   2519   2524     1   123.2000528 564.003200
   2518   2519   4119     1   115.1800491 558.982400
   2519   4119   4121     1   120.6900519 530.531200
   2520   2521   2522     1   111.6100477 551.451200
   2523   2517   4107     1   123.0500530 620.905600
   2524   2519   4119     1   123.0500530 620.905600
   2539   2540   2542     1   114.2100488 537.225600
   2539   2541   2544     1   114.2100488 537.225600
   2539   2546   2547     1   114.2100488 537.225600
   2540   2539   2541     1   109.6600471 523.836800
   2540   2539   2546     1   109.6600471 523.836800
   2540   2542   2543     1   111.0400475 529.694400
   2541   2539   2546     1   109.6600471 523.836800
   2541   2544   2545     1   111.0400475 529.694400
   2542   2543   4131     1   115.1800491 558.982400
   2542   2543   2549     1   123.2000528 564.003200
   2543   4131   4133     1   120.6900519 530.531200
   2544   2545   2550     1   123.2000528 564.003200
   2544   2545   4143     1   115.1800491 558.982400
   2545   4143   4145     1   120.6900519 530.531200
   2546   2547   2548     1   111.6100477 551.451200
   2549   2543   4131     1   123.0500530 620.905600
   2550   2545   4143     1   123.0500530 620.905600
   2565   2566   2568     1   114.2100488 537.225600
   2565   2567   2570     1   114.2100488 537.225600
   2565   2572   2573     1   114.2100488 537.225600
   2566   2565   2567     1   109.6600471 523.836800
   2566   2565   2572     1   109.6600471 523.836800
   2566   2568   2569     1   111.0400475 529.694400
   2567   2565   2572     1   109.6600471 523.836800
   2567   2570   2571     1   111.0400475 529.694400
   2568   2569   4155     1   115.1800491 558.982400
   2568   2569   2575     1   123.2000528 564.003200
   2569   4155   4157     1   120.6900519 530.531200
   2570   2571   2576     1   123.2000528 564.003200
   2570   2571   4167     1   115.1800491 558.982400
   2571   4167   4169     1   120.6900519 530.531200
   2572   2573   2574     1   111.6100477 551.451200
   2575   2569   4155     1   123.0500530 620.905600
   2576   2571   4167     1   123.0500530 620.905600
   2591   2592   2594     1   114.2100488 537.225600
   2591   2593   2596     1   114.2100488 537.225600
   2591   2598   2599     1   114.2100488 537.225600
   2592   2591   2593     1   109.6600471 523.836800
   2592   2591   2598     1   109.6600471 523.836800
   2592   2594   2595     1   111.0400475 529.694400
   2593   2591   2598     1   109.6600471 523.836800
   2593   2596   2597     1   111.0400475 529.694400
   2594   2595   4179     1   115.1800491 558.982400
   2594   2595   2601     1   123.2000528 564.003200
   2595   4179   4181     1   120.6900519 530.531200
   2596   2597   2602     1   123.2000528 564.003200
   2596   2597   4191     1   115.1800491 558.982400
   2597   4191   4193     1   120.6900519 530.531200
   2598   2599   2600     1   111.6100477 551.451200
   2601   2595   4179     1   123.0500530 620.905600
   2602   2597   4191     1   123.0500530 620.905600
   2617   2618   2620     1   114.2100488 537.225600
   2617   2619   2622     1   114.2100488 537.225600
   2617   2624   2625     1   114.2100488 537.225600
   2618   2617   2619     1   109.6600471 523.836800
   2618   2617   2624     1   109.6600471 523.836800
   2618   2620   2621     1   111.0400475 529.694400
   2619   2617   2624     1   109.6600471 523.836800
   2619   2622   2623     1   111.0400475 529.694400
   2620   2621   4203     1   115.1800491 558.982400
   2620   2621   2627     1   123.2000528 564.003200
   2621   4203   4205     1   120.6900519 530.531200
   2622   2623   2628     1   123.2000528 564.003200
   2622   2623   4215     1   115.1800491 558.982400
   2623   4215   4217     1   120.6900519 530.531200
   2624   2625   2626     1   111.6100477 551.451200
   2627   2621   4203     1   123.0500530 620.905600
   2628   2623   4215     1   123.0500530 620.905600
   2643   2644   2646     1   114.2100488 537.225600
   2643   2645   2648     1   114.2100488 537.225600
   2643   2650   2651     1   114.2100488 537.225600
   2644   2643   2645     1   109.6600471 523.836800
   2644   2643   2650     1   109.6600471 523.836800
   2644   2646   2647     1   111.0400475 529.694400
   2645   2643   2650     1   109.6600471 523.836800
   2645   2648   2649     1   111.0400475 529.694400
   2646   2647   4227     1   115.1800491 558.982400
   2646   2647   2653     1   123.2000528 564.003200
   2647   4227   4229     1   120.6900519 530.531200
   2648   2649   2654     1   123.2000528 564.003200
   2648   2649   4239     1   115.1800491 558.982400
   2649   4239   4241     1   120.6900519 530.531200
   2650   2651   2652     1   111.6100477 551.451200
   2653   2647   4227     1   123.0500530 620.905600
   2654   2649   4239     1   123.0500530 620.905600
   2669   2670   2672     1   114.2100488 537.225600
   2669   2671   2674     1   114.2100488 537.225600
   2669   2676   2677     1   114.2100488 537.225600
   2670   2669   2671     1   109.6600471 523.836800
   2670   2669   2676     1   109.6600471 523.836800
   2670   2672   2673     1   111.0400475 529.694400
   2671   2669   2676     1   109.6600471 523.836800
   2671   2674   2675     1   111.0400475 529.694400
   2672   2673   4251     1   115.1800491 558.982400
   2672   2673   2679     1   123.2000528 564.003200
   2673   4251   4253     1   120.6900519 530.531200
   2674   2675   2680     1   123.2000528 564.003200
   2674   2675   4263     1   115.1800491 558.982400
   2675   4263   4265     1   120.6900519 530.531200
   2676   2677   2678     1   111.6100477 551.451200
   2679   2673   4251     1   123.0500530 620.905600
   2680   2675   4263     1   123.0500530 620.905600
   2695   2696   2698     1   114.2100488 537.225600
   2695   2697   2700     1   114.2100488 537.225600
   2695   2702   2703     1   114.2100488 537.225600
   2696   2695   2697     1   109.6600471 523.836800
   2696   2695   2702     1   109.6600471 523.836800
   2696   2698   2699     1   111.0400475 529.694400
   2697   2695   2702     1   109.6600471 523.836800
   2697   2700   2701     1   111.0400475 529.694400
   2698   2699   4275     1   115.1800491 558.982400
   2698   2699   2705     1   123.2000528 564.003200
   2699   4275   4277     1   120.6900519 530.531200
   2700   2701   2706     1   123.2000528 564.003200
   2700   2701   4287     1   115.1800491 558.982400
   2701   4287   4289     1   120.6900519 530.531200
   2702   2703   2704     1   111.6100477 551.451200
   2705   2699   4275     1   123.0500530 620.905600
   2706   2701   4287     1   123.0500530 620.905600
   2721   2722   2724     1   114.2100488 537.225600
   2721   2723   2726     1   114.2100488 537.225600
   2721   2728   2729     1   114.2100488 537.225600
   2722   2721   2723     1   109.6600471 523.836800
   2722   2721   2728     1   109.6600471 523.836800
   2722   2724   2725     1   111.0400475 529.694400
   2723   2721   2728     1   109.6600471 523.836800
   2723   2726   2727     1   111.0400475 529.694400
   2724   2725   4299     1   115.1800491 558.982400
   2724   2725   2731     1   123.2000528 564.003200
   2725   4299   4301     1   120.6900519 530.531200
   2726   2727   2732     1   123.2000528 564.003200
   2726   2727   4311     1   115.1800491 558.982400
   2727   4311   4313     1   120.6900519 530.531200
   2728   2729   2730     1   111.6100477 551.451200
   2731   2725   4299     1   123.0500530 620.905600
   2732   2727   4311     1   123.0500530 620.905600
   2747   2748   2750     1   114.2100488 537.225600
   2747   2749   2752     1   114.2100488 537.225600
   2747   2754   2755     1   114.2100488 537.225600
   2748   2747   2749     1   109.6600471 523.836800
   2748   2747   2754     1   109.6600471 523.836800
   2748   2750   2751     1   111.0400475 529.694400
   2749   2747   2754     1   109.6600471 523.836800
   2749   2752   2753     1   111.0400475 529.694400
   2750   2751   4323     1   115.1800491 558.982400
   2750   2751   2757     1   123.2000528 564.003200
   2751   4323   4325     1   120.6900519 530.531200
   2752   2753   2758     1   123.2000528 564.003200
   2752   2753   4335     1   115.1800491 558.982400
   2753   4335   4337     1   120.6900519 530.531200
   2754   2755   2756     1   111.6100477 551.451200
   2757   2751   4323     1   123.0500530 620.905600
   2758   2753   4335     1   123.0500530 620.905600
   2773   2774   2776     1   114.2100488 537.225600
   2773   2775   2778     1   114.2100488 537.225600
   2773   2780   2781     1   114.2100488 537.225600
   2774   2773   2775     1   109.6600471 523.836800
   2774   2773   2780     1   109.6600471 523.836800
   2774   2776   2777     1   111.0400475 529.694400
   2775   2773   2780     1   109.6600471 523.836800
   2775   2778   2779     1   111.0400475 529.694400
   2776   2777   4347     1   115.1800491 558.982400
   2776   2777   2783     1   123.2000528 564.003200
   2777   4347   4349     1   120.6900519 530.531200
   2778   2779   2784     1   123.2000528 564.003200
   2778   2779   4359     1   115.1800491 558.982400
   2779   4359   4361     1   120.6900519 530.531200
   2780   2781   2782     1   111.6100477 551.451200
   2783   2777   4347     1   123.0500530 620.905600
   2784   2779   4359     1   123.0500530 620.905600
   2799   2800   2802     1   114.2100488 537.225600
   2799   2801   2804     1   114.2100488 537.225600
   2799   2806   2807     1   114.2100488 537.225600
   2800   2799   2801     1   109.6600471 523.836800
   2800   2799   2806     1   109.6600471 523.836800
   2800   2802   2803     1   111.0400475 529.694400
   2801   2799   2806     1   109.6600471 523.836800
   2801   2804   2805     1   111.0400475 529.694400
   2802   2803   4371     1   115.1800491 558.982400
   2802   2803   2809     1   123.2000528 564.003200
   2803   4371   4373     1   120.6900519 530.531200
   2804   2805   2810     1   123.2000528 564.003200
   2804   2805   4383     1   115.1800491 558.982400
   2805   4383   4385     1   120.6900519 530.531200
   2806   2807   2808     1   111.6100477 551.451200
   2809   2803   4371     1   123.0500530 620.905600
   2810   2805   4383     1   123.0500530 620.905600
   2825   2826   2828     1   114.2100488 537.225600
   2825   2827   2830     1   114.2100488 537.225600
   2825   2832   2833     1   114.2100488 537.225600
   2826   2825   2827     1   109.6600471 523.836800
   2826   2825   2832     1   109.6600471 523.836800
   2826   2828   2829     1   111.0400475 529.694400
   2827   2825   2832     1   109.6600471 523.836800
   2827   2830   2831     1   111.0400475 529.694400
   2828   2829   4395     1   115.1800491 558.982400
   2828   2829   2835     1   123.2000528 564.003200
   2829   4395   4397     1   120.6900519 530.531200
   2830   2831   2836     1   123.2000528 564.003200
   2830   2831   4407     1   115.1800491 558.982400
   2831   4407   4409     1   120.6900519 530.531200
   2832   2833   2834     1   111.6100477 551.451200
   2835   2829   4395     1   123.0500530 620.905600
   2836   2831   4407     1   123.0500530 620.905600
   2851   2852   2854     1   114.2100488 537.225600
   2851   2853   2856     1   114.2100488 537.225600
   2851   2858   2859     1   114.2100488 537.225600
   2852   2851   2853     1   109.6600471 523.836800
   2852   2851   2858     1   109.6600471 523.836800
   2852   2854   2855     1   111.0400475 529.694400
   2853   2851   2858     1   109.6600471 523.836800
   2853   2856   2857     1   111.0400475 529.694400
   2854   2855   4419     1   115.1800491 558.982400
   2854   2855   2861     1   123.2000528 564.003200
   2855   4419   4421     1   120.6900519 530.531200
   2856   2857   2862     1   123.2000528 564.003200
   2856   2857   4431     1   115.1800491 558.982400
   2857   4431   4433     1   120.6900519 530.531200
   2858   2859   2860     1   111.6100477 551.451200
   2861   2855   4419     1   123.0500530 620.905600
   2862   2857   4431     1   123.0500530 620.905600
   2877   2878   2880     1   114.2100488 537.225600
   2877   2879   2882     1   114.2100488 537.225600
   2877   2884   2885     1   114.2100488 537.225600
   2878   2877   2879     1   109.6600471 523.836800
   2878   2877   2884     1   109.6600471 523.836800
   2878   2880   2881     1   111.0400475 529.694400
   2879   2877   2884     1   109.6600471 523.836800
   2879   2882   2883     1   111.0400475 529.694400
   2880   2881   4443     1   115.1800491 558.982400
   2880   2881   2887     1   123.2000528 564.003200
   2881   4443   4445     1   120.6900519 530.531200
   2882   2883   2888     1   123.2000528 564.003200
   2882   2883   4455     1   115.1800491 558.982400
   2883   4455   4457     1   120.6900519 530.531200
   2884   2885   2886     1   111.6100477 551.451200
   2887   2881   4443     1   123.0500530 620.905600
   2888   2883   4455     1   123.0500530 620.905600
   2903   2904   2906     1   114.2100488 537.225600
   2903   2905   2908     1   114.2100488 537.225600
   2903   2910   2911     1   114.2100488 537.225600
   2904   2903   2905     1   109.6600471 523.836800
   2904   2903   2910     1   109.6600471 523.836800
   2904   2906   2907     1   111.0400475 529.694400
   2905   2903   2910     1   109.6600471 523.836800
   2905   2908   2909     1   111.0400475 529.694400
   2906   2907   4467     1   115.1800491 558.982400
   2906   2907   2913     1   123.2000528 564.003200
   2907   4467   4469     1   120.6900519 530.531200
   2908   2909   2914     1   123.2000528 564.003200
   2908   2909   4479     1   115.1800491 558.982400
   2909   4479   4481     1   120.6900519 530.531200
   2910   2911   2912     1   111.6100477 551.451200
   2913   2907   4467     1   123.0500530 620.905600
   2914   2909   4479     1   123.0500530 620.905600
   2929   2930   2932     1   114.2100488 537.225600
   2929   2931   2934     1   114.2100488 537.225600
   2929   2936   2937     1   114.2100488 537.225600
   2930   2929   2931     1   109.6600471 523.836800
   2930   2929   2936     1   109.6600471 523.836800
   2930   2932   2933     1   111.0400475 529.694400
   2931   2929   2936     1   109.6600471 523.836800
   2931   2934   2935     1   111.0400475 529.694400
   2932   2933   4491     1   115.1800491 558.982400
   2932   2933   2939     1   123.2000528 564.003200
   2933   4491   4493     1   120.6900519 530.531200
   2934   2935   2940     1   123.2000528 564.003200
   2934   2935   4503     1   115.1800491 558.982400
   2935   4503   4505     1   120.6900519 530.531200
   2936   2937   2938     1   111.6100477 551.451200
   2939   2933   4491     1   123.0500530 620.905600
   2940   2935   4503     1   123.0500530 620.905600
   2955   2956   2958     1   114.2100488 537.225600
   2955   2957   2960     1   114.2100488 537.225600
   2955   2962   2963     1   114.2100488 537.225600
   2956   2955   2957     1   109.6600471 523.836800
   2956   2955   2962     1   109.6600471 523.836800
   2956   2958   2959     1   111.0400475 529.694400
   2957   2955   2962     1   109.6600471 523.836800
   2957   2960   2961     1   111.0400475 529.694400
   2958   2959   4515     1   115.1800491 558.982400
   2958   2959   2965     1   123.2000528 564.003200
   2959   4515   4517     1   120.6900519 530.531200
   2960   2961   2966     1   123.2000528 564.003200
   2960   2961   4527     1   115.1800491 558.982400
   2961   4527   4529     1   120.6900519 530.531200
   2962   2963   2964     1   111.6100477 551.451200
   2965   2959   4515     1   123.0500530 620.905600
   2966   2961   4527     1   123.0500530 620.905600
   2981   2982   2984     1   114.2100488 537.225600
   2981   2983   2986     1   114.2100488 537.225600
   2981   2988   2989     1   114.2100488 537.225600
   2982   2981   2983     1   109.6600471 523.836800
   2982   2981   2988     1   109.6600471 523.836800
   2982   2984   2985     1   111.0400475 529.694400
   2983   2981   2988     1   109.6600471 523.836800
   2983   2986   2987     1   111.0400475 529.694400
   2984   2985   4539     1   115.1800491 558.982400
   2984   2985   2991     1   123.2000528 564.003200
   2985   4539   4541     1   120.6900519 530.531200
   2986   2987   2992     1   123.2000528 564.003200
   2986   2987   4551     1   115.1800491 558.982400
   2987   4551   4553     1   120.6900519 530.531200
   2988   2989   2990     1   111.6100477 551.451200
   2991   2985   4539     1   123.0500530 620.905600
   2992   2987   4551     1   123.0500530 620.905600
   3007   3008   3010     1   114.2100488 537.225600
   3007   3009   3012     1   114.2100488 537.225600
   3007   3014   3015     1   114.2100488 537.225600
   3008   3007   3009     1   109.6600471 523.836800
   3008   3007   3014     1   109.6600471 523.836800
   3008   3010   3011     1   111.0400475 529.694400
   3009   3007   3014     1   109.6600471 523.836800
   3009   3012   3013     1   111.0400475 529.694400
   3010   3011   4563     1   115.1800491 558.982400
   3010   3011   3017     1   123.2000528 564.003200
   3011   4563   4565     1   120.6900519 530.531200
   3012   3013   3018     1   123.2000528 564.003200
   3012   3013   4575     1   115.1800491 558.982400
   3013   4575   4577     1   120.6900519 530.531200
   3014   3015   3016     1   111.6100477 551.451200
   3017   3011   4563     1   123.0500530 620.905600
   3018   3013   4575     1   123.0500530 620.905600
   3033   3034   3036     1   114.2100488 537.225600
   3033   3035   3038     1   114.2100488 537.225600
   3033   3040   3041     1   114.2100488 537.225600
   3034   3033   3035     1   109.6600471 523.836800
   3034   3033   3040     1   109.6600471 523.836800
   3034   3036   3037     1   111.0400475 529.694400
   3035   3033   3040     1   109.6600471 523.836800
   3035   3038   3039     1   111.0400475 529.694400
   3036   3037   4587     1   115.1800491 558.982400
   3036   3037   3043     1   123.2000528 564.003200
   3037   4587   4589     1   120.6900519 530.531200
   3038   3039   3044     1   123.2000528 564.003200
   3038   3039   4599     1   115.1800491 558.982400
   3039   4599   4601     1   120.6900519 530.531200
   3040   3041   3042     1   111.6100477 551.451200
   3043   3037   4587     1   123.0500530 620.905600
   3044   3039   4599     1   123.0500530 620.905600
   3059   3060   3062     1   114.2100488 537.225600
   3059   3061   3064     1   114.2100488 537.225600
   3059   3066   3067     1   114.2100488 537.225600
   3060   3059   3061     1   109.6600471 523.836800
   3060   3059   3066     1   109.6600471 523.836800
   3060   3062   3063     1   111.0400475 529.694400
   3061   3059   3066     1   109.6600471 523.836800
   3061   3064   3065     1   111.0400475 529.694400
   3062   3063   4611     1   115.1800491 558.982400
   3062   3063   3069     1   123.2000528 564.003200
   3063   4611   4613     1   120.6900519 530.531200
   3064   3065   3070     1   123.2000528 564.003200
   3064   3065   4623     1   115.1800491 558.982400
   3065   4623   4625     1   120.6900519 530.531200
   3066   3067   3068     1   111.6100477 551.451200
   3069   3063   4611     1   123.0500530 620.905600
   3070   3065   4623     1   123.0500530 620.905600
   3085   3086   3088     1   114.2100488 537.225600
   3085   3087   3090     1   114.2100488 537.225600
   3085   3092   3093     1   114.2100488 537.225600
   3086   3085   3087     1   109.6600471 523.836800
   3086   3085   3092     1   109.6600471 523.836800
   3086   3088   3089     1   111.0400475 529.694400
   3087   3085   3092     1   109.6600471 523.836800
   3087   3090   3091     1   111.0400475 529.694400
   3088   3089   4635     1   115.1800491 558.982400
   3088   3089   3095     1   123.2000528 564.003200
   3089   4635   4637     1   120.6900519 530.531200
   3090   3091   3096     1   123.2000528 564.003200
   3090   3091   4647     1   115.1800491 558.982400
   3091   4647   4649     1   120.6900519 530.531200
   3092   3093   3094     1   111.6100477 551.451200
   3095   3089   4635     1   123.0500530 620.905600
   3096   3091   4647     1   123.0500530 620.905600
   3111   3112   3114     1   114.2100488 537.225600
   3111   3113   3116     1   114.2100488 537.225600
   3111   3118   3119     1   114.2100488 537.225600
   3112   3111   3113     1   109.6600471 523.836800
   3112   3111   3118     1   109.6600471 523.836800
   3112   3114   3115     1   111.0400475 529.694400
   3113   3111   3118     1   109.6600471 523.836800
   3113   3116   3117     1   111.0400475 529.694400
   3114   3115   4659     1   115.1800491 558.982400
   3114   3115   3121     1   123.2000528 564.003200
   3115   4659   4661     1   120.6900519 530.531200
   3116   3117   3122     1   123.2000528 564.003200
   3116   3117   4671     1   115.1800491 558.982400
   3117   4671   4673     1   120.6900519 530.531200
   3118   3119   3120     1   111.6100477 551.451200
   3121   3115   4659     1   123.0500530 620.905600
   3122   3117   4671     1   123.0500530 620.905600
   3137   3138   3140     1   114.2100488 537.225600
   3137   3139   3142     1   114.2100488 537.225600
   3137   3144   3145     1   114.2100488 537.225600
   3138   3137   3139     1   109.6600471 523.836800
   3138   3137   3144     1   109.6600471 523.836800
   3138   3140   3141     1   111.0400475 529.694400
   3139   3137   3144     1   109.6600471 523.836800
   3139   3142   3143     1   111.0400475 529.694400
   3140   3141   4683     1   115.1800491 558.982400
   3140   3141   3147     1   123.2000528 564.003200
   3141   4683   4685     1   120.6900519 530.531200
   3142   3143   3148     1   123.2000528 564.003200
   3142   3143   4695     1   115.1800491 558.982400
   3143   4695   4697     1   120.6900519 530.531200
   3144   3145   3146     1   111.6100477 551.451200
   3147   3141   4683     1   123.0500530 620.905600
   3148   3143   4695     1   123.0500530 620.905600
   3163   3164   3166     1   114.2100488 537.225600
   3163   3165   3168     1   114.2100488 537.225600
   3163   3170   3171     1   114.2100488 537.225600
   3164   3163   3165     1   109.6600471 523.836800
   3164   3163   3170     1   109.6600471 523.836800
   3164   3166   3167     1   111.0400475 529.694400
   3165   3163   3170     1   109.6600471 523.836800
   3165   3168   3169     1   111.0400475 529.694400
   3166   3167   4707     1   115.1800491 558.982400
   3166   3167   3173     1   123.2000528 564.003200
   3167   4707   4709     1   120.6900519 530.531200
   3168   3169   3174     1   123.2000528 564.003200
   3168   3169   4719     1   115.1800491 558.982400
   3169   4719   4721     1   120.6900519 530.531200
   3170   3171   3172     1   111.6100477 551.451200
   3173   3167   4707     1   123.0500530 620.905600
   3174   3169   4719     1   123.0500530 620.905600
   3189   3190   3192     1   114.2100488 537.225600
   3189   3191   3194     1   114.2100488 537.225600
   3189   3196   3197     1   114.2100488 537.225600
   3190   3189   3191     1   109.6600471 523.836800
   3190   3189   3196     1   109.6600471 523.836800
   3190   3192   3193     1   111.0400475 529.694400
   3191   3189   3196     1   109.6600471 523.836800
   3191   3194   3195     1   111.0400475 529.694400
   3192   3193   4731     1   115.1800491 558.982400
   3192   3193   3199     1   123.2000528 564.003200
   3193   4731   4733     1   120.6900519 530.531200
   3194   3195   3200     1   123.2000528 564.003200
   3194   3195   4743     1   115.1800491 558.982400
   3195   4743   4745     1   120.6900519 530.531200
   3196   3197   3198     1   111.6100477 551.451200
   3199   3193   4731     1   123.0500530 620.905600
   3200   3195   4743     1   123.0500530 620.905600
   3215   3216   3218     1   114.2100488 537.225600
   3215   3217   3220     1   114.2100488 537.225600
   3215   3222   3223     1   114.2100488 537.225600
   3216   3215   3217     1   109.6600471 523.836800
   3216   3215   3222     1   109.6600471 523.836800
   3216   3218   3219     1   111.0400475 529.694400
   3217   3215   3222     1   109.6600471 523.836800
   3217   3220   3221     1   111.0400475 529.694400
   3218   3219   4755     1   115.1800491 558.982400
   3218   3219   3225     1   123.2000528 564.003200
   3219   4755   4757     1   120.6900519 530.531200
   3220   3221   3226     1   123.2000528 564.003200
   3220   3221   4767     1   115.1800491 558.982400
   3221   4767   4769     1   120.6900519 530.531200
   3222   3223   3224     1   111.6100477 551.451200
   3225   3219   4755     1   123.0500530 620.905600
   3226   3221   4767     1   123.0500530 620.905600
   3241   3242   3244     1   114.2100488 537.225600
   3241   3243   3246     1   114.2100488 537.225600
   3241   3248   3249     1   114.2100488 537.225600
   3242   3241   3243     1   109.6600471 523.836800
   3242   3241   3248     1   109.6600471 523.836800
   3242   3244   3245     1   111.0400475 529.694400
   3243   3241   3248     1   109.6600471 523.836800
   3243   3246   3247     1   111.0400475 529.694400
   3244   3245   4779     1   115.1800491 558.982400
   3244   3245   3251     1   123.2000528 564.003200
   3245   4779   4781     1   120.6900519 530.531200
   3246   3247   4791     1   115.1800491 558.982400
   3246   3247   3252     1   123.2000528 564.003200
   3247   4791   4793     1   120.6900519 530.531200
   3248   3249   3250     1   111.6100477 551.451200
   3251   3245   4779     1   123.0500530 620.905600
   3252   3247   4791     1   123.0500530 620.905600
   3267   3269   3270     1   111.6100477 551.451200
   3269   3270   3275     1   114.2100488 537.225600
   3279   3281   3282     1   111.6100477 551.451200
   3281   3282   3287     1   114.2100488 537.225600
   3291   3293   3294     1   111.6100477 551.451200
   3293   3294   3299     1   114.2100488 537.225600
   3303   3305   3306     1   111.6100477 551.451200
   3305   3306   3311     1   114.2100488 537.225600
   3315   3317   3318     1   111.6100477 551.451200
   3317   3318   3323     1   114.2100488 537.225600
   3327   3329   3330     1   111.6100477 551.451200
   3329   3330   3335     1   114.2100488 537.225600
   3339   3341   3342     1   111.6100477 551.451200
   3341   3342   3347     1   114.2100488 537.225600
   3351   3353   3354     1   111.6100477 551.451200
   3353   3354   3359     1   114.2100488 537.225600
   3363   3365   3366     1   111.6100477 551.451200
   3365   3366   3371     1   114.2100488 537.225600
   3375   3377   3378     1   111.6100477 551.451200
   3377   3378   3383     1   114.2100488 537.225600
   3387   3389   3390     1   111.6100477 551.451200
   3389   3390   3395     1   114.2100488 537.225600
   3399   3401   3402     1   111.6100477 551.451200
   3401   3402   3407     1   114.2100488 537.225600
   3411   3413   3414     1   111.6100477 551.451200
   3413   3414   3419     1   114.2100488 537.225600
   3423   3425   3426     1   111.6100477 551.451200
   3425   3426   3431     1   114.2100488 537.225600
   3435   3437   3438     1   111.6100477 551.451200
   3437   3438   3443     1   114.2100488 537.225600
   3447   3449   3450     1   111.6100477 551.451200
   3449   3450   3455     1   114.2100488 537.225600
   3459   3461   3462     1   111.6100477 551.451200
   3461   3462   3467     1   114.2100488 537.225600
   3471   3473   3474     1   111.6100477 551.451200
   3473   3474   3479     1   114.2100488 537.225600
   3483   3485   3486     1   111.6100477 551.451200
   3485   3486   3491     1   114.2100488 537.225600
   3495   3497   3498     1   111.6100477 551.451200
   3497   3498   3503     1   114.2100488 537.225600
   3507   3509   3510     1   111.6100477 551.451200
   3509   3510   3515     1   114.2100488 537.225600
   3519   3521   3522     1   111.6100477 551.451200
   3521   3522   3527     1   114.2100488 537.225600
   3531   3533   3534     1   111.6100477 551.451200
   3533   3534   3539     1   114.2100488 537.225600
   3543   3545   3546     1   111.6100477 551.451200
   3545   3546   3551     1   114.2100488 537.225600
   3555   3557   3558     1   111.6100477 551.451200
   3557   3558   3563     1   114.2100488 537.225600
   3567   3569   3570     1   111.6100477 551.451200
   3569   3570   3575     1   114.2100488 537.225600
   3579   3581   3582     1   111.6100477 551.451200
   3581   3582   3587     1   114.2100488 537.225600
   3591   3593   3594     1   111.6100477 551.451200
   3593   3594   3599     1   114.2100488 537.225600
   3603   3605   3606     1   111.6100477 551.451200
   3605   3606   3611     1   114.2100488 537.225600
   3615   3617   3618     1   111.6100477 551.451200
   3617   3618   3623     1   114.2100488 537.225600
   3627   3629   3630     1   111.6100477 551.451200
   3629   3630   3635     1   114.2100488 537.225600
   3639   3641   3642     1   111.6100477 551.451200
   3641   3642   3647     1   114.2100488 537.225600
   3651   3653   3654     1   111.6100477 551.451200
   3653   3654   3659     1   114.2100488 537.225600
   3663   3665   3666     1   111.6100477 551.451200
   3665   3666   3671     1   114.2100488 537.225600
   3675   3677   3678     1   111.6100477 551.451200
   3677   3678   3683     1   114.2100488 537.225600
   3687   3689   3690     1   111.6100477 551.451200
   3689   3690   3695     1   114.2100488 537.225600
   3699   3701   3702     1   111.6100477 551.451200
   3701   3702   3707     1   114.2100488 537.225600
   3711   3713   3714     1   111.6100477 551.451200
   3713   3714   3719     1   114.2100488 537.225600
   3723   3725   3726     1   111.6100477 551.451200
   3725   3726   3731     1   114.2100488 537.225600
   3735   3737   3738     1   111.6100477 551.451200
   3737   3738   3743     1   114.2100488 537.225600
   3747   3749   3750     1   111.6100477 551.451200
   3749   3750   3755     1   114.2100488 537.225600
   3759   3761   3762     1   111.6100477 551.451200
   3761   3762   3767     1   114.2100488 537.225600
   3771   3773   3774     1   111.6100477 551.451200
   3773   3774   3779     1   114.2100488 537.225600
   3783   3785   3786     1   111.6100477 551.451200
   3785   3786   3791     1   114.2100488 537.225600
   3795   3797   3798     1   111.6100477 551.451200
   3797   3798   3803     1   114.2100488 537.225600
   3807   3809   3810     1   111.6100477 551.451200
   3809   3810   3815     1   114.2100488 537.225600
   3819   3821   3822     1   111.6100477 551.451200
   3821   3822   3827     1   114.2100488 537.225600
   3831   3833   3834     1   111.6100477 551.451200
   3833   3834   3839     1   114.2100488 537.225600
   3843   3845   3846     1   111.6100477 551.451200
   3845   3846   3851     1   114.2100488 537.225600
   3855   3857   3858     1   111.6100477 551.451200
   3857   3858   3863     1   114.2100488 537.225600
   3867   3869   3870     1   111.6100477 551.451200
   3869   3870   3875     1   114.2100488 537.225600
   3879   3881   3882     1   111.6100477 551.451200
   3881   3882   3887     1   114.2100488 537.225600
   3891   3893   3894     1   111.6100477 551.451200
   3893   3894   3899     1   114.2100488 537.225600
   3903   3905   3906     1   111.6100477 551.451200
   3905   3906   3911     1   114.2100488 537.225600
   3915   3917   3918     1   111.6100477 551.451200
   3917   3918   3923     1   114.2100488 537.225600
   3927   3929   3930     1   111.6100477 551.451200
   3929   3930   3935     1   114.2100488 537.225600
   3939   3941   3942     1   111.6100477 551.451200
   3941   3942   3947     1   114.2100488 537.225600
   3951   3953   3954     1   111.6100477 551.451200
   3953   3954   3959     1   114.2100488 537.225600
   3963   3965   3966     1   111.6100477 551.451200
   3965   3966   3971     1   114.2100488 537.225600
   3975   3977   3978     1   111.6100477 551.451200
   3977   3978   3983     1   114.2100488 537.225600
   3987   3989   3990     1   111.6100477 551.451200
   3989   3990   3995     1   114.2100488 537.225600
   3999   4001   4002     1   111.6100477 551.451200
   4001   4002   4007     1   114.2100488 537.225600
   4011   4013   4014     1   111.6100477 551.451200
   4013   4014   4019     1   114.2100488 537.225600
   4023   4025   4026     1   111.6100477 551.451200
   4025   4026   4031     1   114.2100488 537.225600
   4035   4037   4038     1   111.6100477 551.451200
   4037   4038   4043     1   114.2100488 537.225600
   4047   4049   4050     1   111.6100477 551.451200
   4049   4050   4055     1   114.2100488 537.225600
   4059   4061   4062     1   111.6100477 551.451200
   4061   4062   4067     1   114.2100488 537.225600
   4071   4073   4074     1   111.6100477 551.451200
   4073   4074   4079     1   114.2100488 537.225600
   4083   4085   4086     1   111.6100477 551.451200
   4085   4086   4091     1   114.2100488 537.225600
   4095   4097   4098     1   111.6100477 551.451200
   4097   4098   4103     1   114.2100488 537.225600
   4107   4109   4110     1   111.6100477 551.451200
   4109   4110   4115     1   114.2100488 537.225600
   4119   4121   4122     1   111.6100477 551.451200
   4121   4122   4127     1   114.2100488 537.225600
   4131   4133   4134     1   111.6100477 551.451200
   4133   4134   4139     1   114.2100488 537.225600
   4143   4145   4146     1   111.6100477 551.451200
   4145   4146   4151     1   114.2100488 537.225600
   4155   4157   4158     1   111.6100477 551.451200
   4157   4158   4163     1   114.2100488 537.225600
   4167   4169   4170     1   111.6100477 551.451200
   4169   4170   4175     1   114.2100488 537.225600
   4179   4181   4182     1   111.6100477 551.451200
   4181   4182   4187     1   114.2100488 537.225600
   4191   4193   4194     1   111.6100477 551.451200
   4193   4194   4199     1   114.2100488 537.225600
   4203   4205   4206     1   111.6100477 551.451200
   4205   4206   4211     1   114.2100488 537.225600
   4215   4217   4218     1   111.6100477 551.451200
   4217   4218   4223     1   114.2100488 537.225600
   4227   4229   4230     1   111.6100477 551.451200
   4229   4230   4235     1   114.2100488 537.225600
   4239   4241   4242     1   111.6100477 551.451200
   4241   4242   4247     1   114.2100488 537.225600
   4251   4253   4254     1   111.6100477 551.451200
   4253   4254   4259     1   114.2100488 537.225600
   4263   4265   4266     1   111.6100477 551.451200
   4265   4266   4271     1   114.2100488 537.225600
   4275   4277   4278     1   111.6100477 551.451200
   4277   4278   4283     1   114.2100488 537.225600
   4287   4289   4290     1   111.6100477 551.451200
   4289   4290   4295     1   114.2100488 537.225600
   4299   4301   4302     1   111.6100477 551.451200
   4301   4302   4307     1   114.2100488 537.225600
   4311   4313   4314     1   111.6100477 551.451200
   4313   4314   4319     1   114.2100488 537.225600
   4323   4325   4326     1   111.6100477 551.451200
   4325   4326   4331     1   114.2100488 537.225600
   4335   4337   4338     1   111.6100477 551.451200
   4337   4338   4343     1   114.2100488 537.225600
   4347   4349   4350     1   111.6100477 551.451200
   4349   4350   4355     1   114.2100488 537.225600
   4359   4361   4362     1   111.6100477 551.451200
   4361   4362   4367     1   114.2100488 537.225600
   4371   4373   4374     1   111.6100477 551.451200
   4373   4374   4379     1   114.2100488 537.225600
   4383   4385   4386     1   111.6100477 551.451200
   4385   4386   4391     1   114.2100488 537.225600
   4395   4397   4398     1   111.6100477 551.451200
   4397   4398   4403     1   114.2100488 537.225600
   4407   4409   4410     1   111.6100477 551.451200
   4409   4410   4415     1   114.2100488 537.225600
   4419   4421   4422     1   111.6100477 551.451200
   4421   4422   4427     1   114.2100488 537.225600
   4431   4433   4434     1   111.6100477 551.451200
   4433   4434   4439     1   114.2100488 537.225600
   4443   4445   4446     1   111.6100477 551.451200
   4445   4446   4451     1   114.2100488 537.225600
   4455   4457   4458     1   111.6100477 551.451200
   4457   4458   4463     1   114.2100488 537.225600
   4467   4469   4470     1   111.6100477 551.451200
   4469   4470   4475     1   114.2100488 537.225600
   4479   4481   4482     1   111.6100477 551.451200
   4481   4482   4487     1   114.2100488 537.225600
   4491   4493   4494     1   111.6100477 551.451200
   4493   4494   4499     1   114.2100488 537.225600
   4503   4505   4506     1   111.6100477 551.451200
   4505   4506   4511     1   114.2100488 537.225600
   4515   4517   4518     1   111.6100477 551.451200
   4517   4518   4523     1   114.2100488 537.225600
   4527   4529   4530     1   111.6100477 551.451200
   4529   4530   4535     1   114.2100488 537.225600
   4539   4541   4542     1   111.6100477 551.451200
   4541   4542   4547     1   114.2100488 537.225600
   4551   4553   4554     1   111.6100477 551.451200
   4553   4554   4559     1   114.2100488 537.225600
   4563   4565   4566     1   111.6100477 551.451200
   4565   4566   4571     1   114.2100488 537.225600
   4575   4577   4578     1   111.6100477 551.451200
   4577   4578   4583     1   114.2100488 537.225600
   4587   4589   4590     1   111.6100477 551.451200
   4589   4590   4595     1   114.2100488 537.225600
   4599   4601   4602     1   111.6100477 551.451200
   4601   4602   4607     1   114.2100488 537.225600
   4611   4613   4614     1   111.6100477 551.451200
   4613   4614   4619     1   114.2100488 537.225600
   4623   4625   4626     1   111.6100477 551.451200
   4625   4626   4631     1   114.2100488 537.225600
   4635   4637   4638     1   111.6100477 551.451200
   4637   4638   4643     1   114.2100488 537.225600
   4647   4649   4650     1   111.6100477 551.451200
   4649   4650   4655     1   114.2100488 537.225600
   4659   4661   4662     1   111.6100477 551.451200
   4661   4662   4667     1   114.2100488 537.225600
   4671   4673   4674     1   111.6100477 551.451200
   4673   4674   4679     1   114.2100488 537.225600
   4683   4685   4686     1   111.6100477 551.451200
   4685   4686   4691     1   114.2100488 537.225600
   4695   4697   4698     1   111.6100477 551.451200
   4697   4698   4703     1   114.2100488 537.225600
   4707   4709   4710     1   111.6100477 551.451200
   4709   4710   4715     1   114.2100488 537.225600
   4719   4721   4722     1   111.6100477 551.451200
   4721   4722   4727     1   114.2100488 537.225600
   4731   4733   4734     1   111.6100477 551.451200
   4733   4734   4739     1   114.2100488 537.225600
   4743   4745   4746     1   111.6100477 551.451200
   4745   4746   4751     1   114.2100488 537.225600
   4755   4757   4758     1   111.6100477 551.451200
   4757   4758   4763     1   114.2100488 537.225600
   4767   4769   4770     1   111.6100477 551.451200
   4769   4770   4775     1   114.2100488 537.225600
   4779   4781   4782     1   111.6100477 551.451200
   4781   4782   4787     1   114.2100488 537.225600
   4791   4793   4794     1   111.6100477 551.451200
   4793   4794   4799     1   114.2100488 537.225600
      1      2     21     1   108.0100461 406.684800
      1      2     22     1   108.0100461 406.684800
      1      7     29     1   108.0100461 406.684800
      1      7     30     1   108.0100461 406.684800
      1      8     31     1   108.0100461 406.684800
      1      8     32     1   108.0100461 406.684800
      2      1     41     1   110.1100470 384.091200
      2      3     23     1   110.5600475 386.601600
      2      3     24     1   110.5600475 386.601600
      3      2     21     1   110.5600475 386.601600
      3      2     22     1   110.5600475 386.601600
      3      4     42     1   110.1100470 384.091200
      4      3     23     1   108.0100461 406.684800
      4      3     24     1   108.0100461 406.684800
      4      5     25     1   108.0100461 406.684800
      4      5     26     1   108.0100461 406.684800
      4      6     27     1   108.0100461 406.684800
      4      6     28     1   108.0100461 406.684800
      5      4     42     1   110.1100470 384.091200
      5     11     35     1   109.8000471 387.438400
      5     11     36     1   109.8000471 387.438400
      6      4     42     1   110.1100470 384.091200
      6      9     33     1   109.8000471 387.438400
      6      9     34     1   109.8000471 387.438400
      7      1     41     1   110.1100470 384.091200
      7     13     37     1   109.8000471 387.438400
      7     13     38     1   109.8000471 387.438400
      8      1     41     1   110.1100470 384.091200
      8     15     39     1   109.8000471 387.438400
      8     15     40     1   109.8000471 387.438400
      9      6     27     1   110.5600475 386.601600
      9      6     28     1   110.5600475 386.601600
     10      9     33     1   108.7700466 392.459200
     10      9     34     1   108.7700466 392.459200
     10     52     67     1   117.5500507 404.174400
     11      5     25     1   110.5600475 386.601600
     11      5     26     1   110.5600475 386.601600
     12     11     35     1   108.7700466 392.459200
     12     11     36     1   108.7700466 392.459200
     12     78     93     1   117.5500507 404.174400
     13      7     29     1   110.5600475 386.601600
     13      7     30     1   110.5600475 386.601600
     14     13     37     1   108.7700466 392.459200
     14     13     38     1   108.7700466 392.459200
     14    104    119     1   117.5500507 404.174400
     15      8     31     1   110.5600475 386.601600
     15      8     32     1   110.5600475 386.601600
     16     15     39     1   108.7700466 392.459200
     16     15     40     1   108.7700466 392.459200
     16    130    145     1   117.5500507 404.174400
     21      2     22     1   109.7500473 328.025600
     23      3     24     1   109.7500473 328.025600
     25      5     26     1   109.7500473 328.025600
     27      6     28     1   109.7500473 328.025600
     29      7     30     1   109.7500473 328.025600
     31      8     32     1   109.7500473 328.025600
     33      9     34     1   107.5800459 329.699200
     35     11     36     1   107.5800459 329.699200
     37     13     38     1   107.5800459 329.699200
     39     15     40     1   107.5800459 329.699200
     43     44     55     1   108.0100461 406.684800
     43     44     56     1   108.0100461 406.684800
     43     45     57     1   108.0100461 406.684800
     43     45     58     1   108.0100461 406.684800
     43     50     63     1   108.0100461 406.684800
     43     50     64     1   108.0100461 406.684800
     44     43     68     1   110.1100470 384.091200
     44     46     59     1   109.8000471 387.438400
     44     46     60     1   109.8000471 387.438400
     45     43     68     1   110.1100470 384.091200
     45     48     61     1   109.8000471 387.438400
     45     48     62     1   109.8000471 387.438400
     46     44     55     1   110.5600475 386.601600
     46     44     56     1   110.5600475 386.601600
     47     46     59     1   108.7700466 392.459200
     47     46     60     1   108.7700466 392.459200
     47    156    171     1   117.5500507 404.174400
     48     45     57     1   110.5600475 386.601600
     48     45     58     1   110.5600475 386.601600
     49     48     61     1   108.7700466 392.459200
     49     48     62     1   108.7700466 392.459200
     49    182    197     1   117.5500507 404.174400
     50     43     68     1   110.1100470 384.091200
     50     51     65     1   109.5600471 388.275200
     50     51     66     1   109.5600471 388.275200
     51     50     63     1   110.5600475 386.601600
     51     50     64     1   110.5600475 386.601600
     51     52     67     1   117.6800502 383.254400
     52     51     65     1   108.8800464 416.726400
     52     51     66     1   108.8800464 416.726400
     55     44     56     1   109.7500473 328.025600
     57     45     58     1   109.7500473 328.025600
     59     46     60     1   107.5800459 329.699200
     61     48     62     1   107.5800459 329.699200
     63     50     64     1   109.7500473 328.025600
     65     51     66     1   108.4600466 328.025600
     69     70     81     1   108.0100461 406.684800
     69     70     82     1   108.0100461 406.684800
     69     71     83     1   108.0100461 406.684800
     69     71     84     1   108.0100461 406.684800
     69     76     89     1   108.0100461 406.684800
     69     76     90     1   108.0100461 406.684800
     70     69     94     1   110.1100470 384.091200
     70     72     85     1   109.8000471 387.438400
     70     72     86     1   109.8000471 387.438400
     71     69     94     1   110.1100470 384.091200
     71     74     87     1   109.8000471 387.438400
     71     74     88     1   109.8000471 387.438400
     72     70     81     1   110.5600475 386.601600
     72     70     82     1   110.5600475 386.601600
     73     72     85     1   108.7700466 392.459200
     73     72     86     1   108.7700466 392.459200
     73    208    223     1   117.5500507 404.174400
     74     71     83     1   110.5600475 386.601600
     74     71     84     1   110.5600475 386.601600
     75     74     87     1   108.7700466 392.459200
     75     74     88     1   108.7700466 392.459200
     75    234    249     1   117.5500507 404.174400
     76     69     94     1   110.1100470 384.091200
     76     77     91     1   109.5600471 388.275200
     76     77     92     1   109.5600471 388.275200
     77     76     89     1   110.5600475 386.601600
     77     76     90     1   110.5600475 386.601600
     77     78     93     1   117.6800502 383.254400
     78     77     91     1   108.8800464 416.726400
     78     77     92     1   108.8800464 416.726400
     81     70     82     1   109.7500473 328.025600
     83     71     84     1   109.7500473 328.025600
     85     72     86     1   107.5800459 329.699200
     87     74     88     1   107.5800459 329.699200
     89     76     90     1   109.7500473 328.025600
     91     77     92     1   108.4600466 328.025600
     95     96    107     1   108.0100461 406.684800
     95     96    108     1   108.0100461 406.684800
     95     97    109     1   108.0100461 406.684800
     95     97    110     1   108.0100461 406.684800
     95    102    115     1   108.0100461 406.684800
     95    102    116     1   108.0100461 406.684800
     96     95    120     1   110.1100470 384.091200
     96     98    111     1   109.8000471 387.438400
     96     98    112     1   109.8000471 387.438400
     97     95    120     1   110.1100470 384.091200
     97    100    113     1   109.8000471 387.438400
     97    100    114     1   109.8000471 387.438400
     98     96    107     1   110.5600475 386.601600
     98     96    108     1   110.5600475 386.601600
     99     98    111     1   108.7700466 392.459200
     99     98    112     1   108.7700466 392.459200
     99    260    275     1   117.5500507 404.174400
    100     97    109     1   110.5600475 386.601600
    100     97    110     1   110.5600475 386.601600
    101    100    113     1   108.7700466 392.459200
    101    100    114     1   108.7700466 392.459200
    101    286    301     1   117.5500507 404.174400
    102     95    120     1   110.1100470 384.091200
    102    103    117     1   109.5600471 388.275200
    102    103    118     1   109.5600471 388.275200
    103    102    115     1   110.5600475 386.601600
    103    102    116     1   110.5600475 386.601600
    103    104    119     1   117.6800502 383.254400
    104    103    117     1   108.8800464 416.726400
    104    103    118     1   108.8800464 416.726400
    107     96    108     1   109.7500473 328.025600
    109     97    110     1   109.7500473 328.025600
    111     98    112     1   107.5800459 329.699200
    113    100    114     1   107.5800459 329.699200
    115    102    116     1   109.7500473 328.025600
    117    103    118     1   108.4600466 328.025600
    121    122    133     1   108.0100461 406.684800
    121    122    134     1   108.0100461 406.684800
    121    123    135     1   108.0100461 406.684800
    121    123    136     1   108.0100461 406.684800
    121    128    141     1   108.0100461 406.684800
    121    128    142     1   108.0100461 406.684800
    122    121    146     1   110.1100470 384.091200
    122    124    137     1   109.8000471 387.438400
    122    124    138     1   109.8000471 387.438400
    123    121    146     1   110.1100470 384.091200
    123    126    139     1   109.8000471 387.438400
    123    126    140     1   109.8000471 387.438400
    124    122    133     1   110.5600475 386.601600
    124    122    134     1   110.5600475 386.601600
    125    124    137     1   108.7700466 392.459200
    125    124    138     1   108.7700466 392.459200
    125    312    327     1   117.5500507 404.174400
    126    123    135     1   110.5600475 386.601600
    126    123    136     1   110.5600475 386.601600
    127    126    139     1   108.7700466 392.459200
    127    126    140     1   108.7700466 392.459200
    127    338    353     1   117.5500507 404.174400
    128    121    146     1   110.1100470 384.091200
    128    129    143     1   109.5600471 388.275200
    128    129    144     1   109.5600471 388.275200
    129    128    141     1   110.5600475 386.601600
    129    128    142     1   110.5600475 386.601600
    129    130    145     1   117.6800502 383.254400
    130    129    143     1   108.8800464 416.726400
    130    129    144     1   108.8800464 416.726400
    133    122    134     1   109.7500473 328.025600
    135    123    136     1   109.7500473 328.025600
    137    124    138     1   107.5800459 329.699200
    139    126    140     1   107.5800459 329.699200
    141    128    142     1   109.7500473 328.025600
    143    129    144     1   108.4600466 328.025600
    147    148    159     1   108.0100461 406.684800
    147    148    160     1   108.0100461 406.684800
    147    149    161     1   108.0100461 406.684800
    147    149    162     1   108.0100461 406.684800
    147    154    167     1   108.0100461 406.684800
    147    154    168     1   108.0100461 406.684800
    148    147    172     1   110.1100470 384.091200
    148    150    163     1   109.8000471 387.438400
    148    150    164     1   109.8000471 387.438400
    149    147    172     1   110.1100470 384.091200
    149    152    165     1   109.8000471 387.438400
    149    152    166     1   109.8000471 387.438400
    150    148    159     1   110.5600475 386.601600
    150    148    160     1   110.5600475 386.601600
    151    150    163     1   108.7700466 392.459200
    151    150    164     1   108.7700466 392.459200
    151    364    379     1   117.5500507 404.174400
    152    149    161     1   110.5600475 386.601600
    152    149    162     1   110.5600475 386.601600
    153    152    165     1   108.7700466 392.459200
    153    152    166     1   108.7700466 392.459200
    153    390    405     1   117.5500507 404.174400
    154    147    172     1   110.1100470 384.091200
    154    155    169     1   109.5600471 388.275200
    154    155    170     1   109.5600471 388.275200
    155    154    167     1   110.5600475 386.601600
    155    154    168     1   110.5600475 386.601600
    155    156    171     1   117.6800502 383.254400
    156    155    169     1   108.8800464 416.726400
    156    155    170     1   108.8800464 416.726400
    159    148    160     1   109.7500473 328.025600
    161    149    162     1   109.7500473 328.025600
    163    150    164     1   107.5800459 329.699200
    165    152    166     1   107.5800459 329.699200
    167    154    168     1   109.7500473 328.025600
    169    155    170     1   108.4600466 328.025600
    173    174    185     1   108.0100461 406.684800
    173    174    186     1   108.0100461 406.684800
    173    175    187     1   108.0100461 406.684800
    173    175    188     1   108.0100461 406.684800
    173    180    193     1   108.0100461 406.684800
    173    180    194     1   108.0100461 406.684800
    174    173    198     1   110.1100470 384.091200
    174    176    189     1   109.8000471 387.438400
    174    176    190     1   109.8000471 387.438400
    175    173    198     1   110.1100470 384.091200
    175    178    191     1   109.8000471 387.438400
    175    178    192     1   109.8000471 387.438400
    176    174    185     1   110.5600475 386.601600
    176    174    186     1   110.5600475 386.601600
    177    176    189     1   108.7700466 392.459200
    177    176    190     1   108.7700466 392.459200
    177    416    431     1   117.5500507 404.174400
    178    175    187     1   110.5600475 386.601600
    178    175    188     1   110.5600475 386.601600
    179    178    191     1   108.7700466 392.459200
    179    178    192     1   108.7700466 392.459200
    179    442    457     1   117.5500507 404.174400
    180    173    198     1   110.1100470 384.091200
    180    181    195     1   109.5600471 388.275200
    180    181    196     1   109.5600471 388.275200
    181    180    193     1   110.5600475 386.601600
    181    180    194     1   110.5600475 386.601600
    181    182    197     1   117.6800502 383.254400
    182    181    195     1   108.8800464 416.726400
    182    181    196     1   108.8800464 416.726400
    185    174    186     1   109.7500473 328.025600
    187    175    188     1   109.7500473 328.025600
    189    176    190     1   107.5800459 329.699200
    191    178    192     1   107.5800459 329.699200
    193    180    194     1   109.7500473 328.025600
    195    181    196     1   108.4600466 328.025600
    199    200    211     1   108.0100461 406.684800
    199    200    212     1   108.0100461 406.684800
    199    201    213     1   108.0100461 406.684800
    199    201    214     1   108.0100461 406.684800
    199    206    219     1   108.0100461 406.684800
    199    206    220     1   108.0100461 406.684800
    200    199    224     1   110.1100470 384.091200
    200    202    215     1   109.8000471 387.438400
    200    202    216     1   109.8000471 387.438400
    201    199    224     1   110.1100470 384.091200
    201    204    217     1   109.8000471 387.438400
    201    204    218     1   109.8000471 387.438400
    202    200    211     1   110.5600475 386.601600
    202    200    212     1   110.5600475 386.601600
    203    202    215     1   108.7700466 392.459200
    203    202    216     1   108.7700466 392.459200
    203    468    483     1   117.5500507 404.174400
    204    201    213     1   110.5600475 386.601600
    204    201    214     1   110.5600475 386.601600
    205    204    217     1   108.7700466 392.459200
    205    204    218     1   108.7700466 392.459200
    205    494    509     1   117.5500507 404.174400
    206    199    224     1   110.1100470 384.091200
    206    207    221     1   109.5600471 388.275200
    206    207    222     1   109.5600471 388.275200
    207    206    219     1   110.5600475 386.601600
    207    206    220     1   110.5600475 386.601600
    207    208    223     1   117.6800502 383.254400
    208    207    221     1   108.8800464 416.726400
    208    207    222     1   108.8800464 416.726400
    211    200    212     1   109.7500473 328.025600
    213    201    214     1   109.7500473 328.025600
    215    202    216     1   107.5800459 329.699200
    217    204    218     1   107.5800459 329.699200
    219    206    220     1   109.7500473 328.025600
    221    207    222     1   108.4600466 328.025600
    225    226    237     1   108.0100461 406.684800
    225    226    238     1   108.0100461 406.684800
    225    227    239     1   108.0100461 406.684800
    225    227    240     1   108.0100461 406.684800
    225    232    245     1   108.0100461 406.684800
    225    232    246     1   108.0100461 406.684800
    226    225    250     1   110.1100470 384.091200
    226    228    241     1   109.8000471 387.438400
    226    228    242     1   109.8000471 387.438400
    227    225    250     1   110.1100470 384.091200
    227    230    243     1   109.8000471 387.438400
    227    230    244     1   109.8000471 387.438400
    228    226    237     1   110.5600475 386.601600
    228    226    238     1   110.5600475 386.601600
    229    228    241     1   108.7700466 392.459200
    229    228    242     1   108.7700466 392.459200
    229    520    535     1   117.5500507 404.174400
    230    227    239     1   110.5600475 386.601600
    230    227    240     1   110.5600475 386.601600
    231    230    243     1   108.7700466 392.459200
    231    230    244     1   108.7700466 392.459200
    231    546    561     1   117.5500507 404.174400
    232    225    250     1   110.1100470 384.091200
    232    233    247     1   109.5600471 388.275200
    232    233    248     1   109.5600471 388.275200
    233    232    245     1   110.5600475 386.601600
    233    232    246     1   110.5600475 386.601600
    233    234    249     1   117.6800502 383.254400
    234    233    247     1   108.8800464 416.726400
    234    233    248     1   108.8800464 416.726400
    237    226    238     1   109.7500473 328.025600
    239    227    240     1   109.7500473 328.025600
    241    228    242     1   107.5800459 329.699200
    243    230    244     1   107.5800459 329.699200
    245    232    246     1   109.7500473 328.025600
    247    233    248     1   108.4600466 328.025600
    251    252    263     1   108.0100461 406.684800
    251    252    264     1   108.0100461 406.684800
    251    253    265     1   108.0100461 406.684800
    251    253    266     1   108.0100461 406.684800
    251    258    271     1   108.0100461 406.684800
    251    258    272     1   108.0100461 406.684800
    252    251    276     1   110.1100470 384.091200
    252    254    267     1   109.8000471 387.438400
    252    254    268     1   109.8000471 387.438400
    253    251    276     1   110.1100470 384.091200
    253    256    269     1   109.8000471 387.438400
    253    256    270     1   109.8000471 387.438400
    254    252    263     1   110.5600475 386.601600
    254    252    264     1   110.5600475 386.601600
    255    254    267     1   108.7700466 392.459200
    255    254    268     1   108.7700466 392.459200
    255    572    587     1   117.5500507 404.174400
    256    253    265     1   110.5600475 386.601600
    256    253    266     1   110.5600475 386.601600
    257    256    269     1   108.7700466 392.459200
    257    256    270     1   108.7700466 392.459200
    257    598    613     1   117.5500507 404.174400
    258    251    276     1   110.1100470 384.091200
    258    259    273     1   109.5600471 388.275200
    258    259    274     1   109.5600471 388.275200
    259    258    271     1   110.5600475 386.601600
    259    258    272     1   110.5600475 386.601600
    259    260    275     1   117.6800502 383.254400
    260    259    273     1   108.8800464 416.726400
    260    259    274     1   108.8800464 416.726400
    263    252    264     1   109.7500473 328.025600
    265    253    266     1   109.7500473 328.025600
    267    254    268     1   107.5800459 329.699200
    269    256    270     1   107.5800459 329.699200
    271    258    272     1   109.7500473 328.025600
    273    259    274     1   108.4600466 328.025600
    277    278    289     1   108.0100461 406.684800
    277    278    290     1   108.0100461 406.684800
    277    279    291     1   108.0100461 406.684800
    277    279    292     1   108.0100461 406.684800
    277    284    297     1   108.0100461 406.684800
    277    284    298     1   108.0100461 406.684800
    278    277    302     1   110.1100470 384.091200
    278    280    293     1   109.8000471 387.438400
    278    280    294     1   109.8000471 387.438400
    279    277    302     1   110.1100470 384.091200
    279    282    295     1   109.8000471 387.438400
    279    282    296     1   109.8000471 387.438400
    280    278    289     1   110.5600475 386.601600
    280    278    290     1   110.5600475 386.601600
    281    280    293     1   108.7700466 392.459200
    281    280    294     1   108.7700466 392.459200
    281    624    639     1   117.5500507 404.174400
    282    279    291     1   110.5600475 386.601600
    282    279    292     1   110.5600475 386.601600
    283    282    295     1   108.7700466 392.459200
    283    282    296     1   108.7700466 392.459200
    283    650    665     1   117.5500507 404.174400
    284    277    302     1   110.1100470 384.091200
    284    285    299     1   109.5600471 388.275200
    284    285    300     1   109.5600471 388.275200
    285    284    297     1   110.5600475 386.601600
    285    284    298     1   110.5600475 386.601600
    285    286    301     1   117.6800502 383.254400
    286    285    299     1   108.8800464 416.726400
    286    285    300     1   108.8800464 416.726400
    289    278    290     1   109.7500473 328.025600
    291    279    292     1   109.7500473 328.025600
    293    280    294     1   107.5800459 329.699200
    295    282    296     1   107.5800459 329.699200
    297    284    298     1   109.7500473 328.025600
    299    285    300     1   108.4600466 328.025600
    303    304    315     1   108.0100461 406.684800
    303    304    316     1   108.0100461 406.684800
    303    305    317     1   108.0100461 406.684800
    303    305    318     1   108.0100461 406.684800
    303    310    323     1   108.0100461 406.684800
    303    310    324     1   108.0100461 406.684800
    304    303    328     1   110.1100470 384.091200
    304    306    319     1   109.8000471 387.438400
    304    306    320     1   109.8000471 387.438400
    305    303    328     1   110.1100470 384.091200
    305    308    321     1   109.8000471 387.438400
    305    308    322     1   109.8000471 387.438400
    306    304    315     1   110.5600475 386.601600
    306    304    316     1   110.5600475 386.601600
    307    306    319     1   108.7700466 392.459200
    307    306    320     1   108.7700466 392.459200
    307    676    691     1   117.5500507 404.174400
    308    305    317     1   110.5600475 386.601600
    308    305    318     1   110.5600475 386.601600
    309    308    321     1   108.7700466 392.459200
    309    308    322     1   108.7700466 392.459200
    309    702    717     1   117.5500507 404.174400
    310    303    328     1   110.1100470 384.091200
    310    311    325     1   109.5600471 388.275200
    310    311    326     1   109.5600471 388.275200
    311    310    323     1   110.5600475 386.601600
    311    310    324     1   110.5600475 386.601600
    311    312    327     1   117.6800502 383.254400
    312    311    325     1   108.8800464 416.726400
    312    311    326     1   108.8800464 416.726400
    315    304    316     1   109.7500473 328.025600
    317    305    318     1   109.7500473 328.025600
    319    306    320     1   107.5800459 329.699200
    321    308    322     1   107.5800459 329.699200
    323    310    324     1   109.7500473 328.025600
    325    311    326     1   108.4600466 328.025600
    329    330    341     1   108.0100461 406.684800
    329    330    342     1   108.0100461 406.684800
    329    331    343     1   108.0100461 406.684800
    329    331    344     1   108.0100461 406.684800
    329    336    349     1   108.0100461 406.684800
    329    336    350     1   108.0100461 406.684800
    330    329    354     1   110.1100470 384.091200
    330    332    345     1   109.8000471 387.438400
    330    332    346     1   109.8000471 387.438400
    331    329    354     1   110.1100470 384.091200
    331    334    347     1   109.8000471 387.438400
    331    334    348     1   109.8000471 387.438400
    332    330    341     1   110.5600475 386.601600
    332    330    342     1   110.5600475 386.601600
    333    332    345     1   108.7700466 392.459200
    333    332    346     1   108.7700466 392.459200
    333    728    743     1   117.5500507 404.174400
    334    331    343     1   110.5600475 386.601600
    334    331    344     1   110.5600475 386.601600
    335    334    347     1   108.7700466 392.459200
    335    334    348     1   108.7700466 392.459200
    335    754    769     1   117.5500507 404.174400
    336    329    354     1   110.1100470 384.091200
    336    337    351     1   109.5600471 388.275200
    336    337    352     1   109.5600471 388.275200
    337    336    349     1   110.5600475 386.601600
    337    336    350     1   110.5600475 386.601600
    337    338    353     1   117.6800502 383.254400
    338    337    351     1   108.8800464 416.726400
    338    337    352     1   108.8800464 416.726400
    341    330    342     1   109.7500473 328.025600
    343    331    344     1   109.7500473 328.025600
    345    332    346     1   107.5800459 329.699200
    347    334    348     1   107.5800459 329.699200
    349    336    350     1   109.7500473 328.025600
    351    337    352     1   108.4600466 328.025600
    355    356    367     1   108.0100461 406.684800
    355    356    368     1   108.0100461 406.684800
    355    357    369     1   108.0100461 406.684800
    355    357    370     1   108.0100461 406.684800
    355    362    375     1   108.0100461 406.684800
    355    362    376     1   108.0100461 406.684800
    356    355    380     1   110.1100470 384.091200
    356    358    371     1   109.8000471 387.438400
    356    358    372     1   109.8000471 387.438400
    357    355    380     1   110.1100470 384.091200
    357    360    373     1   109.8000471 387.438400
    357    360    374     1   109.8000471 387.438400
    358    356    367     1   110.5600475 386.601600
    358    356    368     1   110.5600475 386.601600
    359    358    371     1   108.7700466 392.459200
    359    358    372     1   108.7700466 392.459200
    359    780    795     1   117.5500507 404.174400
    360    357    369     1   110.5600475 386.601600
    360    357    370     1   110.5600475 386.601600
    361    360    373     1   108.7700466 392.459200
    361    360    374     1   108.7700466 392.459200
    361    806    821     1   117.5500507 404.174400
    362    355    380     1   110.1100470 384.091200
    362    363    377     1   109.5600471 388.275200
    362    363    378     1   109.5600471 388.275200
    363    362    375     1   110.5600475 386.601600
    363    362    376     1   110.5600475 386.601600
    363    364    379     1   117.6800502 383.254400
    364    363    377     1   108.8800464 416.726400
    364    363    378     1   108.8800464 416.726400
    367    356    368     1   109.7500473 328.025600
    369    357    370     1   109.7500473 328.025600
    371    358    372     1   107.5800459 329.699200
    373    360    374     1   107.5800459 329.699200
    375    362    376     1   109.7500473 328.025600
    377    363    378     1   108.4600466 328.025600
    381    382    393     1   108.0100461 406.684800
    381    382    394     1   108.0100461 406.684800
    381    383    395     1   108.0100461 406.684800
    381    383    396     1   108.0100461 406.684800
    381    388    401     1   108.0100461 406.684800
    381    388    402     1   108.0100461 406.684800
    382    381    406     1   110.1100470 384.091200
    382    384    397     1   109.8000471 387.438400
    382    384    398     1   109.8000471 387.438400
    383    381    406     1   110.1100470 384.091200
    383    386    399     1   109.8000471 387.438400
    383    386    400     1   109.8000471 387.438400
    384    382    393     1   110.5600475 386.601600
    384    382    394     1   110.5600475 386.601600
    385    384    397     1   108.7700466 392.459200
    385    384    398     1   108.7700466 392.459200
    385    832    847     1   117.5500507 404.174400
    386    383    395     1   110.5600475 386.601600
    386    383    396     1   110.5600475 386.601600
    387    386    399     1   108.7700466 392.459200
    387    386    400     1   108.7700466 392.459200
    387    858    873     1   117.5500507 404.174400
    388    381    406     1   110.1100470 384.091200
    388    389    403     1   109.5600471 388.275200
    388    389    404     1   109.5600471 388.275200
    389    388    401     1   110.5600475 386.601600
    389    388    402     1   110.5600475 386.601600
    389    390    405     1   117.6800502 383.254400
    390    389    403     1   108.8800464 416.726400
    390    389    404     1   108.8800464 416.726400
    393    382    394     1   109.7500473 328.025600
    395    383    396     1   109.7500473 328.025600
    397    384    398     1   107.5800459 329.699200
    399    386    400     1   107.5800459 329.699200
    401    388    402     1   109.7500473 328.025600
    403    389    404     1   108.4600466 328.025600
    407    408    419     1   108.0100461 406.684800
    407    408    420     1   108.0100461 406.684800
    407    409    421     1   108.0100461 406.684800
    407    409    422     1   108.0100461 406.684800
    407    414    427     1   108.0100461 406.684800
    407    414    428     1   108.0100461 406.684800
    408    407    432     1   110.1100470 384.091200
    408    410    423     1   109.8000471 387.438400
    408    410    424     1   109.8000471 387.438400
    409    407    432     1   110.1100470 384.091200
    409    412    425     1   109.8000471 387.438400
    409    412    426     1   109.8000471 387.438400
    410    408    419     1   110.5600475 386.601600
    410    408    420     1   110.5600475 386.601600
    411    410    423     1   108.7700466 392.459200
    411    410    424     1   108.7700466 392.459200
    411    884    899     1   117.5500507 404.174400
    412    409    421     1   110.5600475 386.601600
    412    409    422     1   110.5600475 386.601600
    413    412    425     1   108.7700466 392.459200
    413    412    426     1   108.7700466 392.459200
    413    910    925     1   117.5500507 404.174400
    414    407    432     1   110.1100470 384.091200
    414    415    429     1   109.5600471 388.275200
    414    415    430     1   109.5600471 388.275200
    415    414    427     1   110.5600475 386.601600
    415    414    428     1   110.5600475 386.601600
    415    416    431     1   117.6800502 383.254400
    416    415    429     1   108.8800464 416.726400
    416    415    430     1   108.8800464 416.726400
    419    408    420     1   109.7500473 328.025600
    421    409    422     1   109.7500473 328.025600
    423    410    424     1   107.5800459 329.699200
    425    412    426     1   107.5800459 329.699200
    427    414    428     1   109.7500473 328.025600
    429    415    430     1   108.4600466 328.025600
    433    434    445     1   108.0100461 406.684800
    433    434    446     1   108.0100461 406.684800
    433    435    447     1   108.0100461 406.684800
    433    435    448     1   108.0100461 406.684800
    433    440    453     1   108.0100461 406.684800
    433    440    454     1   108.0100461 406.684800
    434    433    458     1   110.1100470 384.091200
    434    436    449     1   109.8000471 387.438400
    434    436    450     1   109.8000471 387.438400
    435    433    458     1   110.1100470 384.091200
    435    438    451     1   109.8000471 387.438400
    435    438    452     1   109.8000471 387.438400
    436    434    445     1   110.5600475 386.601600
    436    434    446     1   110.5600475 386.601600
    437    436    449     1   108.7700466 392.459200
    437    436    450     1   108.7700466 392.459200
    437    936    951     1   117.5500507 404.174400
    438    435    447     1   110.5600475 386.601600
    438    435    448     1   110.5600475 386.601600
    439    438    451     1   108.7700466 392.459200
    439    438    452     1   108.7700466 392.459200
    439    962    977     1   117.5500507 404.174400
    440    433    458     1   110.1100470 384.091200
    440    441    455     1   109.5600471 388.275200
    440    441    456     1   109.5600471 388.275200
    441    440    453     1   110.5600475 386.601600
    441    440    454     1   110.5600475 386.601600
    441    442    457     1   117.6800502 383.254400
    442    441    455     1   108.8800464 416.726400
    442    441    456     1   108.8800464 416.726400
    445    434    446     1   109.7500473 328.025600
    447    435    448     1   109.7500473 328.025600
    449    436    450     1   107.5800459 329.699200
    451    438    452     1   107.5800459 329.699200
    453    440    454     1   109.7500473 328.025600
    455    441    456     1   108.4600466 328.025600
    459    460    471     1   108.0100461 406.684800
    459    460    472     1   108.0100461 406.684800
    459    461    473     1   108.0100461 406.684800
    459    461    474     1   108.0100461 406.684800
    459    466    479     1   108.0100461 406.684800
    459    466    480     1   108.0100461 406.684800
    460    459    484     1   110.1100470 384.091200
    460    462    475     1   109.8000471 387.438400
    460    462    476     1   109.8000471 387.438400
    461    459    484     1   110.1100470 384.091200
    461    464    477     1   109.8000471 387.438400
    461    464    478     1   109.8000471 387.438400
    462    460    471     1   110.5600475 386.601600
    462    460    472     1   110.5600475 386.601600
    463    462    475     1   108.7700466 392.459200
    463    462    476     1   108.7700466 392.459200
    463    988   1003     1   117.5500507 404.174400
    464    461    473     1   110.5600475 386.601600
    464    461    474     1   110.5600475 386.601600
    465    464    477     1   108.7700466 392.459200
    465    464    478     1   108.7700466 392.459200
    465   1014   1029     1   117.5500507 404.174400
    466    459    484     1   110.1100470 384.091200
    466    467    481     1   109.5600471 388.275200
    466    467    482     1   109.5600471 388.275200
    467    466    479     1   110.5600475 386.601600
    467    466    480     1   110.5600475 386.601600
    467    468    483     1   117.6800502 383.254400
    468    467    481     1   108.8800464 416.726400
    468    467    482     1   108.8800464 416.726400
    471    460    472     1   109.7500473 328.025600
    473    461    474     1   109.7500473 328.025600
    475    462    476     1   107.5800459 329.699200
    477    464    478     1   107.5800459 329.699200
    479    466    480     1   109.7500473 328.025600
    481    467    482     1   108.4600466 328.025600
    485    486    497     1   108.0100461 406.684800
    485    486    498     1   108.0100461 406.684800
    485    487    499     1   108.0100461 406.684800
    485    487    500     1   108.0100461 406.684800
    485    492    505     1   108.0100461 406.684800
    485    492    506     1   108.0100461 406.684800
    486    485    510     1   110.1100470 384.091200
    486    488    501     1   109.8000471 387.438400
    486    488    502     1   109.8000471 387.438400
    487    485    510     1   110.1100470 384.091200
    487    490    503     1   109.8000471 387.438400
    487    490    504     1   109.8000471 387.438400
    488    486    497     1   110.5600475 386.601600
    488    486    498     1   110.5600475 386.601600
    489    488    501     1   108.7700466 392.459200
    489    488    502     1   108.7700466 392.459200
    489   1040   1055     1   117.5500507 404.174400
    490    487    499     1   110.5600475 386.601600
    490    487    500     1   110.5600475 386.601600
    491    490    503     1   108.7700466 392.459200
    491    490    504     1   108.7700466 392.459200
    491   1066   1081     1   117.5500507 404.174400
    492    485    510     1   110.1100470 384.091200
    492    493    507     1   109.5600471 388.275200
    492    493    508     1   109.5600471 388.275200
    493    492    505     1   110.5600475 386.601600
    493    492    506     1   110.5600475 386.601600
    493    494    509     1   117.6800502 383.254400
    494    493    507     1   108.8800464 416.726400
    494    493    508     1   108.8800464 416.726400
    497    486    498     1   109.7500473 328.025600
    499    487    500     1   109.7500473 328.025600
    501    488    502     1   107.5800459 329.699200
    503    490    504     1   107.5800459 329.699200
    505    492    506     1   109.7500473 328.025600
    507    493    508     1   108.4600466 328.025600
    511    512    523     1   108.0100461 406.684800
    511    512    524     1   108.0100461 406.684800
    511    513    525     1   108.0100461 406.684800
    511    513    526     1   108.0100461 406.684800
    511    518    531     1   108.0100461 406.684800
    511    518    532     1   108.0100461 406.684800
    512    511    536     1   110.1100470 384.091200
    512    514    527     1   109.8000471 387.438400
    512    514    528     1   109.8000471 387.438400
    513    511    536     1   110.1100470 384.091200
    513    516    529     1   109.8000471 387.438400
    513    516    530     1   109.8000471 387.438400
    514    512    523     1   110.5600475 386.601600
    514    512    524     1   110.5600475 386.601600
    515    514    527     1   108.7700466 392.459200
    515    514    528     1   108.7700466 392.459200
    515   1092   1107     1   117.5500507 404.174400
    516    513    525     1   110.5600475 386.601600
    516    513    526     1   110.5600475 386.601600
    517    516    529     1   108.7700466 392.459200
    517    516    530     1   108.7700466 392.459200
    517   1118   1133     1   117.5500507 404.174400
    518    511    536     1   110.1100470 384.091200
    518    519    533     1   109.5600471 388.275200
    518    519    534     1   109.5600471 388.275200
    519    518    531     1   110.5600475 386.601600
    519    518    532     1   110.5600475 386.601600
    519    520    535     1   117.6800502 383.254400
    520    519    533     1   108.8800464 416.726400
    520    519    534     1   108.8800464 416.726400
    523    512    524     1   109.7500473 328.025600
    525    513    526     1   109.7500473 328.025600
    527    514    528     1   107.5800459 329.699200
    529    516    530     1   107.5800459 329.699200
    531    518    532     1   109.7500473 328.025600
    533    519    534     1   108.4600466 328.025600
    537    538    549     1   108.0100461 406.684800
    537    538    550     1   108.0100461 406.684800
    537    539    551     1   108.0100461 406.684800
    537    539    552     1   108.0100461 406.684800
    537    544    557     1   108.0100461 406.684800
    537    544    558     1   108.0100461 406.684800
    538    537    562     1   110.1100470 384.091200
    538    540    553     1   109.8000471 387.438400
    538    540    554     1   109.8000471 387.438400
    539    537    562     1   110.1100470 384.091200
    539    542    555     1   109.8000471 387.438400
    539    542    556     1   109.8000471 387.438400
    540    538    549     1   110.5600475 386.601600
    540    538    550     1   110.5600475 386.601600
    541    540    553     1   108.7700466 392.459200
    541    540    554     1   108.7700466 392.459200
    541   1144   1159     1   117.5500507 404.174400
    542    539    551     1   110.5600475 386.601600
    542    539    552     1   110.5600475 386.601600
    543    542    555     1   108.7700466 392.459200
    543    542    556     1   108.7700466 392.459200
    543   1170   1185     1   117.5500507 404.174400
    544    537    562     1   110.1100470 384.091200
    544    545    559     1   109.5600471 388.275200
    544    545    560     1   109.5600471 388.275200
    545    544    557     1   110.5600475 386.601600
    545    544    558     1   110.5600475 386.601600
    545    546    561     1   117.6800502 383.254400
    546    545    559     1   108.8800464 416.726400
    546    545    560     1   108.8800464 416.726400
    549    538    550     1   109.7500473 328.025600
    551    539    552     1   109.7500473 328.025600
    553    540    554     1   107.5800459 329.699200
    555    542    556     1   107.5800459 329.699200
    557    544    558     1   109.7500473 328.025600
    559    545    560     1   108.4600466 328.025600
    563    564    575     1   108.0100461 406.684800
    563    564    576     1   108.0100461 406.684800
    563    565    577     1   108.0100461 406.684800
    563    565    578     1   108.0100461 406.684800
    563    570    583     1   108.0100461 406.684800
    563    570    584     1   108.0100461 406.684800
    564    563    588     1   110.1100470 384.091200
    564    566    579     1   109.8000471 387.438400
    564    566    580     1   109.8000471 387.438400
    565    563    588     1   110.1100470 384.091200
    565    568    581     1   109.8000471 387.438400
    565    568    582     1   109.8000471 387.438400
    566    564    575     1   110.5600475 386.601600
    566    564    576     1   110.5600475 386.601600
    567    566    579     1   108.7700466 392.459200
    567    566    580     1   108.7700466 392.459200
    567   1196   1211     1   117.5500507 404.174400
    568    565    577     1   110.5600475 386.601600
    568    565    578     1   110.5600475 386.601600
    569    568    581     1   108.7700466 392.459200
    569    568    582     1   108.7700466 392.459200
    569   1222   1237     1   117.5500507 404.174400
    570    563    588     1   110.1100470 384.091200
    570    571    585     1   109.5600471 388.275200
    570    571    586     1   109.5600471 388.275200
    571    570    583     1   110.5600475 386.601600
    571    570    584     1   110.5600475 386.601600
    571    572    587     1   117.6800502 383.254400
    572    571    585     1   108.8800464 416.726400
    572    571    586     1   108.8800464 416.726400
    575    564    576     1   109.7500473 328.025600
    577    565    578     1   109.7500473 328.025600
    579    566    580     1   107.5800459 329.699200
    581    568    582     1   107.5800459 329.699200
    583    570    584     1   109.7500473 328.025600
    585    571    586     1   108.4600466 328.025600
    589    590    601     1   108.0100461 406.684800
    589    590    602     1   108.0100461 406.684800
    589    591    603     1   108.0100461 406.684800
    589    591    604     1   108.0100461 406.684800
    589    596    609     1   108.0100461 406.684800
    589    596    610     1   108.0100461 406.684800
    590    589    614     1   110.1100470 384.091200
    590    592    605     1   109.8000471 387.438400
    590    592    606     1   109.8000471 387.438400
    591    589    614     1   110.1100470 384.091200
    591    594    607     1   109.8000471 387.438400
    591    594    608     1   109.8000471 387.438400
    592    590    601     1   110.5600475 386.601600
    592    590    602     1   110.5600475 386.601600
    593    592    605     1   108.7700466 392.459200
    593    592    606     1   108.7700466 392.459200
    593   1248   1263     1   117.5500507 404.174400
    594    591    603     1   110.5600475 386.601600
    594    591    604     1   110.5600475 386.601600
    595    594    607     1   108.7700466 392.459200
    595    594    608     1   108.7700466 392.459200
    595   1274   1289     1   117.5500507 404.174400
    596    589    614     1   110.1100470 384.091200
    596    597    611     1   109.5600471 388.275200
    596    597    612     1   109.5600471 388.275200
    597    596    609     1   110.5600475 386.601600
    597    596    610     1   110.5600475 386.601600
    597    598    613     1   117.6800502 383.254400
    598    597    611     1   108.8800464 416.726400
    598    597    612     1   108.8800464 416.726400
    601    590    602     1   109.7500473 328.025600
    603    591    604     1   109.7500473 328.025600
    605    592    606     1   107.5800459 329.699200
    607    594    608     1   107.5800459 329.699200
    609    596    610     1   109.7500473 328.025600
    611    597    612     1   108.4600466 328.025600
    615    616    627     1   108.0100461 406.684800
    615    616    628     1   108.0100461 406.684800
    615    617    629     1   108.0100461 406.684800
    615    617    630     1   108.0100461 406.684800
    615    622    635     1   108.0100461 406.684800
    615    622    636     1   108.0100461 406.684800
    616    615    640     1   110.1100470 384.091200
    616    618    631     1   109.8000471 387.438400
    616    618    632     1   109.8000471 387.438400
    617    615    640     1   110.1100470 384.091200
    617    620    633     1   109.8000471 387.438400
    617    620    634     1   109.8000471 387.438400
    618    616    627     1   110.5600475 386.601600
    618    616    628     1   110.5600475 386.601600
    619    618    631     1   108.7700466 392.459200
    619    618    632     1   108.7700466 392.459200
    619   1300   1315     1   117.5500507 404.174400
    620    617    629     1   110.5600475 386.601600
    620    617    630     1   110.5600475 386.601600
    621    620    633     1   108.7700466 392.459200
    621    620    634     1   108.7700466 392.459200
    621   1326   1341     1   117.5500507 404.174400
    622    615    640     1   110.1100470 384.091200
    622    623    637     1   109.5600471 388.275200
    622    623    638     1   109.5600471 388.275200
    623    622    635     1   110.5600475 386.601600
    623    622    636     1   110.5600475 386.601600
    623    624    639     1   117.6800502 383.254400
    624    623    637     1   108.8800464 416.726400
    624    623    638     1   108.8800464 416.726400
    627    616    628     1   109.7500473 328.025600
    629    617    630     1   109.7500473 328.025600
    631    618    632     1   107.5800459 329.699200
    633    620    634     1   107.5800459 329.699200
    635    622    636     1   109.7500473 328.025600
    637    623    638     1   108.4600466 328.025600
    641    642    653     1   108.0100461 406.684800
    641    642    654     1   108.0100461 406.684800
    641    643    655     1   108.0100461 406.684800
    641    643    656     1   108.0100461 406.684800
    641    648    661     1   108.0100461 406.684800
    641    648    662     1   108.0100461 406.684800
    642    641    666     1   110.1100470 384.091200
    642    644    657     1   109.8000471 387.438400
    642    644    658     1   109.8000471 387.438400
    643    641    666     1   110.1100470 384.091200
    643    646    659     1   109.8000471 387.438400
    643    646    660     1   109.8000471 387.438400
    644    642    653     1   110.5600475 386.601600
    644    642    654     1   110.5600475 386.601600
    645    644    657     1   108.7700466 392.459200
    645    644    658     1   108.7700466 392.459200
    645   1352   1367     1   117.5500507 404.174400
    646    643    655     1   110.5600475 386.601600
    646    643    656     1   110.5600475 386.601600
    647    646    659     1   108.7700466 392.459200
    647    646    660     1   108.7700466 392.459200
    647   1378   1393     1   117.5500507 404.174400
    648    641    666     1   110.1100470 384.091200
    648    649    663     1   109.5600471 388.275200
    648    649    664     1   109.5600471 388.275200
    649    648    661     1   110.5600475 386.601600
    649    648    662     1   110.5600475 386.601600
    649    650    665     1   117.6800502 383.254400
    650    649    663     1   108.8800464 416.726400
    650    649    664     1   108.8800464 416.726400
    653    642    654     1   109.7500473 328.025600
    655    643    656     1   109.7500473 328.025600
    657    644    658     1   107.5800459 329.699200
    659    646    660     1   107.5800459 329.699200
    661    648    662     1   109.7500473 328.025600
    663    649    664     1   108.4600466 328.025600
    667    668    679     1   108.0100461 406.684800
    667    668    680     1   108.0100461 406.684800
    667    669    681     1   108.0100461 406.684800
    667    669    682     1   108.0100461 406.684800
    667    674    687     1   108.0100461 406.684800
    667    674    688     1   108.0100461 406.684800
    668    667    692     1   110.1100470 384.091200
    668    670    683     1   109.8000471 387.438400
    668    670    684     1   109.8000471 387.438400
    669    667    692     1   110.1100470 384.091200
    669    672    685     1   109.8000471 387.438400
    669    672    686     1   109.8000471 387.438400
    670    668    679     1   110.5600475 386.601600
    670    668    680     1   110.5600475 386.601600
    671    670    683     1   108.7700466 392.459200
    671    670    684     1   108.7700466 392.459200
    671   1404   1419     1   117.5500507 404.174400
    672    669    681     1   110.5600475 386.601600
    672    669    682     1   110.5600475 386.601600
    673    672    685     1   108.7700466 392.459200
    673    672    686     1   108.7700466 392.459200
    673   1430   1445     1   117.5500507 404.174400
    674    667    692     1   110.1100470 384.091200
    674    675    689     1   109.5600471 388.275200
    674    675    690     1   109.5600471 388.275200
    675    674    687     1   110.5600475 386.601600
    675    674    688     1   110.5600475 386.601600
    675    676    691     1   117.6800502 383.254400
    676    675    689     1   108.8800464 416.726400
    676    675    690     1   108.8800464 416.726400
    679    668    680     1   109.7500473 328.025600
    681    669    682     1   109.7500473 328.025600
    683    670    684     1   107.5800459 329.699200
    685    672    686     1   107.5800459 329.699200
    687    674    688     1   109.7500473 328.025600
    689    675    690     1   108.4600466 328.025600
    693    694    705     1   108.0100461 406.684800
    693    694    706     1   108.0100461 406.684800
    693    695    707     1   108.0100461 406.684800
    693    695    708     1   108.0100461 406.684800
    693    700    713     1   108.0100461 406.684800
    693    700    714     1   108.0100461 406.684800
    694    693    718     1   110.1100470 384.091200
    694    696    709     1   109.8000471 387.438400
    694    696    710     1   109.8000471 387.438400
    695    693    718     1   110.1100470 384.091200
    695    698    711     1   109.8000471 387.438400
    695    698    712     1   109.8000471 387.438400
    696    694    705     1   110.5600475 386.601600
    696    694    706     1   110.5600475 386.601600
    697    696    709     1   108.7700466 392.459200
    697    696    710     1   108.7700466 392.459200
    697   1456   1471     1   117.5500507 404.174400
    698    695    707     1   110.5600475 386.601600
    698    695    708     1   110.5600475 386.601600
    699    698    711     1   108.7700466 392.459200
    699    698    712     1   108.7700466 392.459200
    699   1482   1497     1   117.5500507 404.174400
    700    693    718     1   110.1100470 384.091200
    700    701    715     1   109.5600471 388.275200
    700    701    716     1   109.5600471 388.275200
    701    700    713     1   110.5600475 386.601600
    701    700    714     1   110.5600475 386.601600
    701    702    717     1   117.6800502 383.254400
    702    701    715     1   108.8800464 416.726400
    702    701    716     1   108.8800464 416.726400
    705    694    706     1   109.7500473 328.025600
    707    695    708     1   109.7500473 328.025600
    709    696    710     1   107.5800459 329.699200
    711    698    712     1   107.5800459 329.699200
    713    700    714     1   109.7500473 328.025600
    715    701    716     1   108.4600466 328.025600
    719    720    731     1   108.0100461 406.684800
    719    720    732     1   108.0100461 406.684800
    719    721    733     1   108.0100461 406.684800
    719    721    734     1   108.0100461 406.684800
    719    726    739     1   108.0100461 406.684800
    719    726    740     1   108.0100461 406.684800
    720    719    744     1   110.1100470 384.091200
    720    722    735     1   109.8000471 387.438400
    720    722    736     1   109.8000471 387.438400
    721    719    744     1   110.1100470 384.091200
    721    724    737     1   109.8000471 387.438400
    721    724    738     1   109.8000471 387.438400
    722    720    731     1   110.5600475 386.601600
    722    720    732     1   110.5600475 386.601600
    723    722    735     1   108.7700466 392.459200
    723    722    736     1   108.7700466 392.459200
    723   1508   1523     1   117.5500507 404.174400
    724    721    733     1   110.5600475 386.601600
    724    721    734     1   110.5600475 386.601600
    725    724    737     1   108.7700466 392.459200
    725    724    738     1   108.7700466 392.459200
    725   1534   1549     1   117.5500507 404.174400
    726    719    744     1   110.1100470 384.091200
    726    727    741     1   109.5600471 388.275200
    726    727    742     1   109.5600471 388.275200
    727    726    739     1   110.5600475 386.601600
    727    726    740     1   110.5600475 386.601600
    727    728    743     1   117.6800502 383.254400
    728    727    741     1   108.8800464 416.726400
    728    727    742     1   108.8800464 416.726400
    731    720    732     1   109.7500473 328.025600
    733    721    734     1   109.7500473 328.025600
    735    722    736     1   107.5800459 329.699200
    737    724    738     1   107.5800459 329.699200
    739    726    740     1   109.7500473 328.025600
    741    727    742     1   108.4600466 328.025600
    745    746    757     1   108.0100461 406.684800
    745    746    758     1   108.0100461 406.684800
    745    747    759     1   108.0100461 406.684800
    745    747    760     1   108.0100461 406.684800
    745    752    765     1   108.0100461 406.684800
    745    752    766     1   108.0100461 406.684800
    746    745    770     1   110.1100470 384.091200
    746    748    761     1   109.8000471 387.438400
    746    748    762     1   109.8000471 387.438400
    747    745    770     1   110.1100470 384.091200
    747    750    763     1   109.8000471 387.438400
    747    750    764     1   109.8000471 387.438400
    748    746    757     1   110.5600475 386.601600
    748    746    758     1   110.5600475 386.601600
    749    748    761     1   108.7700466 392.459200
    749    748    762     1   108.7700466 392.459200
    749   1560   1575     1   117.5500507 404.174400
    750    747    759     1   110.5600475 386.601600
    750    747    760     1   110.5600475 386.601600
    751    750    763     1   108.7700466 392.459200
    751    750    764     1   108.7700466 392.459200
    751   1586   1601     1   117.5500507 404.174400
    752    745    770     1   110.1100470 384.091200
    752    753    767     1   109.5600471 388.275200
    752    753    768     1   109.5600471 388.275200
    753    752    765     1   110.5600475 386.601600
    753    752    766     1   110.5600475 386.601600
    753    754    769     1   117.6800502 383.254400
    754    753    767     1   108.8800464 416.726400
    754    753    768     1   108.8800464 416.726400
    757    746    758     1   109.7500473 328.025600
    759    747    760     1   109.7500473 328.025600
    761    748    762     1   107.5800459 329.699200
    763    750    764     1   107.5800459 329.699200
    765    752    766     1   109.7500473 328.025600
    767    753    768     1   108.4600466 328.025600
    771    772    783     1   108.0100461 406.684800
    771    772    784     1   108.0100461 406.684800
    771    773    785     1   108.0100461 406.684800
    771    773    786     1   108.0100461 406.684800
    771    778    791     1   108.0100461 406.684800
    771    778    792     1   108.0100461 406.684800
    772    771    796     1   110.1100470 384.091200
    772    774    787     1   109.8000471 387.438400
    772    774    788     1   109.8000471 387.438400
    773    771    796     1   110.1100470 384.091200
    773    776    789     1   109.8000471 387.438400
    773    776    790     1   109.8000471 387.438400
    774    772    783     1   110.5600475 386.601600
    774    772    784     1   110.5600475 386.601600
    775    774    787     1   108.7700466 392.459200
    775    774    788     1   108.7700466 392.459200
    775   1612   1627     1   117.5500507 404.174400
    776    773    785     1   110.5600475 386.601600
    776    773    786     1   110.5600475 386.601600
    777    776    789     1   108.7700466 392.459200
    777    776    790     1   108.7700466 392.459200
    777   1638   1653     1   117.5500507 404.174400
    778    771    796     1   110.1100470 384.091200
    778    779    793     1   109.5600471 388.275200
    778    779    794     1   109.5600471 388.275200
    779    778    791     1   110.5600475 386.601600
    779    778    792     1   110.5600475 386.601600
    779    780    795     1   117.6800502 383.254400
    780    779    793     1   108.8800464 416.726400
    780    779    794     1   108.8800464 416.726400
    783    772    784     1   109.7500473 328.025600
    785    773    786     1   109.7500473 328.025600
    787    774    788     1   107.5800459 329.699200
    789    776    790     1   107.5800459 329.699200
    791    778    792     1   109.7500473 328.025600
    793    779    794     1   108.4600466 328.025600
    797    798    809     1   108.0100461 406.684800
    797    798    810     1   108.0100461 406.684800
    797    799    811     1   108.0100461 406.684800
    797    799    812     1   108.0100461 406.684800
    797    804    817     1   108.0100461 406.684800
    797    804    818     1   108.0100461 406.684800
    798    797    822     1   110.1100470 384.091200
    798    800    813     1   109.8000471 387.438400
    798    800    814     1   109.8000471 387.438400
    799    797    822     1   110.1100470 384.091200
    799    802    815     1   109.8000471 387.438400
    799    802    816     1   109.8000471 387.438400
    800    798    809     1   110.5600475 386.601600
    800    798    810     1   110.5600475 386.601600
    801    800    813     1   108.7700466 392.459200
    801    800    814     1   108.7700466 392.459200
    801   1664   1679     1   117.5500507 404.174400
    802    799    811     1   110.5600475 386.601600
    802    799    812     1   110.5600475 386.601600
    803    802    815     1   108.7700466 392.459200
    803    802    816     1   108.7700466 392.459200
    803   1690   1705     1   117.5500507 404.174400
    804    797    822     1   110.1100470 384.091200
    804    805    819     1   109.5600471 388.275200
    804    805    820     1   109.5600471 388.275200
    805    804    817     1   110.5600475 386.601600
    805    804    818     1   110.5600475 386.601600
    805    806    821     1   117.6800502 383.254400
    806    805    819     1   108.8800464 416.726400
    806    805    820     1   108.8800464 416.726400
    809    798    810     1   109.7500473 328.025600
    811    799    812     1   109.7500473 328.025600
    813    800    814     1   107.5800459 329.699200
    815    802    816     1   107.5800459 329.699200
    817    804    818     1   109.7500473 328.025600
    819    805    820     1   108.4600466 328.025600
    823    824    835     1   108.0100461 406.684800
    823    824    836     1   108.0100461 406.684800
    823    825    837     1   108.0100461 406.684800
    823    825    838     1   108.0100461 406.684800
    823    830    843     1   108.0100461 406.684800
    823    830    844     1   108.0100461 406.684800
    824    823    848     1   110.1100470 384.091200
    824    826    839     1   109.8000471 387.438400
    824    826    840     1   109.8000471 387.438400
    825    823    848     1   110.1100470 384.091200
    825    828    841     1   109.8000471 387.438400
    825    828    842     1   109.8000471 387.438400
    826    824    835     1   110.5600475 386.601600
    826    824    836     1   110.5600475 386.601600
    827    826    839     1   108.7700466 392.459200
    827    826    840     1   108.7700466 392.459200
    827   1716   1731     1   117.5500507 404.174400
    828    825    837     1   110.5600475 386.601600
    828    825    838     1   110.5600475 386.601600
    829    828    841     1   108.7700466 392.459200
    829    828    842     1   108.7700466 392.459200
    829   1742   1757     1   117.5500507 404.174400
    830    823    848     1   110.1100470 384.091200
    830    831    845     1   109.5600471 388.275200
    830    831    846     1   109.5600471 388.275200
    831    830    843     1   110.5600475 386.601600
    831    830    844     1   110.5600475 386.601600
    831    832    847     1   117.6800502 383.254400
    832    831    845     1   108.8800464 416.726400
    832    831    846     1   108.8800464 416.726400
    835    824    836     1   109.7500473 328.025600
    837    825    838     1   109.7500473 328.025600
    839    826    840     1   107.5800459 329.699200
    841    828    842     1   107.5800459 329.699200
    843    830    844     1   109.7500473 328.025600
    845    831    846     1   108.4600466 328.025600
    849    850    861     1   108.0100461 406.684800
    849    850    862     1   108.0100461 406.684800
    849    851    863     1   108.0100461 406.684800
    849    851    864     1   108.0100461 406.684800
    849    856    869     1   108.0100461 406.684800
    849    856    870     1   108.0100461 406.684800
    850    849    874     1   110.1100470 384.091200
    850    852    865     1   109.8000471 387.438400
    850    852    866     1   109.8000471 387.438400
    851    849    874     1   110.1100470 384.091200
    851    854    867     1   109.8000471 387.438400
    851    854    868     1   109.8000471 387.438400
    852    850    861     1   110.5600475 386.601600
    852    850    862     1   110.5600475 386.601600
    853    852    865     1   108.7700466 392.459200
    853    852    866     1   108.7700466 392.459200
    853   1768   1783     1   117.5500507 404.174400
    854    851    863     1   110.5600475 386.601600
    854    851    864     1   110.5600475 386.601600
    855    854    867     1   108.7700466 392.459200
    855    854    868     1   108.7700466 392.459200
    855   1794   1809     1   117.5500507 404.174400
    856    849    874     1   110.1100470 384.091200
    856    857    871     1   109.5600471 388.275200
    856    857    872     1   109.5600471 388.275200
    857    856    869     1   110.5600475 386.601600
    857    856    870     1   110.5600475 386.601600
    857    858    873     1   117.6800502 383.254400
    858    857    871     1   108.8800464 416.726400
    858    857    872     1   108.8800464 416.726400
    861    850    862     1   109.7500473 328.025600
    863    851    864     1   109.7500473 328.025600
    865    852    866     1   107.5800459 329.699200
    867    854    868     1   107.5800459 329.699200
    869    856    870     1   109.7500473 328.025600
    871    857    872     1   108.4600466 328.025600
    875    876    887     1   108.0100461 406.684800
    875    876    888     1   108.0100461 406.684800
    875    877    889     1   108.0100461 406.684800
    875    877    890     1   108.0100461 406.684800
    875    882    895     1   108.0100461 406.684800
    875    882    896     1   108.0100461 406.684800
    876    875    900     1   110.1100470 384.091200
    876    878    891     1   109.8000471 387.438400
    876    878    892     1   109.8000471 387.438400
    877    875    900     1   110.1100470 384.091200
    877    880    893     1   109.8000471 387.438400
    877    880    894     1   109.8000471 387.438400
    878    876    887     1   110.5600475 386.601600
    878    876    888     1   110.5600475 386.601600
    879    878    891     1   108.7700466 392.459200
    879    878    892     1   108.7700466 392.459200
    879   1820   1835     1   117.5500507 404.174400
    880    877    889     1   110.5600475 386.601600
    880    877    890     1   110.5600475 386.601600
    881    880    893     1   108.7700466 392.459200
    881    880    894     1   108.7700466 392.459200
    881   1846   1861     1   117.5500507 404.174400
    882    875    900     1   110.1100470 384.091200
    882    883    897     1   109.5600471 388.275200
    882    883    898     1   109.5600471 388.275200
    883    882    895     1   110.5600475 386.601600
    883    882    896     1   110.5600475 386.601600
    883    884    899     1   117.6800502 383.254400
    884    883    897     1   108.8800464 416.726400
    884    883    898     1   108.8800464 416.726400
    887    876    888     1   109.7500473 328.025600
    889    877    890     1   109.7500473 328.025600
    891    878    892     1   107.5800459 329.699200
    893    880    894     1   107.5800459 329.699200
    895    882    896     1   109.7500473 328.025600
    897    883    898     1   108.4600466 328.025600
    901    902    913     1   108.0100461 406.684800
    901    902    914     1   108.0100461 406.684800
    901    903    915     1   108.0100461 406.684800
    901    903    916     1   108.0100461 406.684800
    901    908    921     1   108.0100461 406.684800
    901    908    922     1   108.0100461 406.684800
    902    901    926     1   110.1100470 384.091200
    902    904    917     1   109.8000471 387.438400
    902    904    918     1   109.8000471 387.438400
    903    901    926     1   110.1100470 384.091200
    903    906    919     1   109.8000471 387.438400
    903    906    920     1   109.8000471 387.438400
    904    902    913     1   110.5600475 386.601600
    904    902    914     1   110.5600475 386.601600
    905    904    917     1   108.7700466 392.459200
    905    904    918     1   108.7700466 392.459200
    905   1872   1887     1   117.5500507 404.174400
    906    903    915     1   110.5600475 386.601600
    906    903    916     1   110.5600475 386.601600
    907    906    919     1   108.7700466 392.459200
    907    906    920     1   108.7700466 392.459200
    907   1898   1913     1   117.5500507 404.174400
    908    901    926     1   110.1100470 384.091200
    908    909    923     1   109.5600471 388.275200
    908    909    924     1   109.5600471 388.275200
    909    908    921     1   110.5600475 386.601600
    909    908    922     1   110.5600475 386.601600
    909    910    925     1   117.6800502 383.254400
    910    909    923     1   108.8800464 416.726400
    910    909    924     1   108.8800464 416.726400
    913    902    914     1   109.7500473 328.025600
    915    903    916     1   109.7500473 328.025600
    917    904    918     1   107.5800459 329.699200
    919    906    920     1   107.5800459 329.699200
    921    908    922     1   109.7500473 328.025600
    923    909    924     1   108.4600466 328.025600
    927    928    939     1   108.0100461 406.684800
    927    928    940     1   108.0100461 406.684800
    927    929    941     1   108.0100461 406.684800
    927    929    942     1   108.0100461 406.684800
    927    934    947     1   108.0100461 406.684800
    927    934    948     1   108.0100461 406.684800
    928    927    952     1   110.1100470 384.091200
    928    930    943     1   109.8000471 387.438400
    928    930    944     1   109.8000471 387.438400
    929    927    952     1   110.1100470 384.091200
    929    932    945     1   109.8000471 387.438400
    929    932    946     1   109.8000471 387.438400
    930    928    939     1   110.5600475 386.601600
    930    928    940     1   110.5600475 386.601600
    931    930    943     1   108.7700466 392.459200
    931    930    944     1   108.7700466 392.459200
    931   1924   1939     1   117.5500507 404.174400
    932    929    941     1   110.5600475 386.601600
    932    929    942     1   110.5600475 386.601600
    933    932    945     1   108.7700466 392.459200
    933    932    946     1   108.7700466 392.459200
    933   1950   1965     1   117.5500507 404.174400
    934    927    952     1   110.1100470 384.091200
    934    935    949     1   109.5600471 388.275200
    934    935    950     1   109.5600471 388.275200
    935    934    947     1   110.5600475 386.601600
    935    934    948     1   110.5600475 386.601600
    935    936    951     1   117.6800502 383.254400
    936    935    949     1   108.8800464 416.726400
    936    935    950     1   108.8800464 416.726400
    939    928    940     1   109.7500473 328.025600
    941    929    942     1   109.7500473 328.025600
    943    930    944     1   107.5800459 329.699200
    945    932    946     1   107.5800459 329.699200
    947    934    948     1   109.7500473 328.025600
    949    935    950     1   108.4600466 328.025600
    953    954    965     1   108.0100461 406.684800
    953    954    966     1   108.0100461 406.684800
    953    955    967     1   108.0100461 406.684800
    953    955    968     1   108.0100461 406.684800
    953    960    973     1   108.0100461 406.684800
    953    960    974     1   108.0100461 406.684800
    954    953    978     1   110.1100470 384.091200
    954    956    969     1   109.8000471 387.438400
    954    956    970     1   109.8000471 387.438400
    955    953    978     1   110.1100470 384.091200
    955    958    971     1   109.8000471 387.438400
    955    958    972     1   109.8000471 387.438400
    956    954    965     1   110.5600475 386.601600
    956    954    966     1   110.5600475 386.601600
    957    956    969     1   108.7700466 392.459200
    957    956    970     1   108.7700466 392.459200
    957   1976   1991     1   117.5500507 404.174400
    958    955    967     1   110.5600475 386.601600
    958    955    968     1   110.5600475 386.601600
    959    958    971     1   108.7700466 392.459200
    959    958    972     1   108.7700466 392.459200
    959   2002   2017     1   117.5500507 404.174400
    960    953    978     1   110.1100470 384.091200
    960    961    975     1   109.5600471 388.275200
    960    961    976     1   109.5600471 388.275200
    961    960    973     1   110.5600475 386.601600
    961    960    974     1   110.5600475 386.601600
    961    962    977     1   117.6800502 383.254400
    962    961    975     1   108.8800464 416.726400
    962    961    976     1   108.8800464 416.726400
    965    954    966     1   109.7500473 328.025600
    967    955    968     1   109.7500473 328.025600
    969    956    970     1   107.5800459 329.699200
    971    958    972     1   107.5800459 329.699200
    973    960    974     1   109.7500473 328.025600
    975    961    976     1   108.4600466 328.025600
    979    980    991     1   108.0100461 406.684800
    979    980    992     1   108.0100461 406.684800
    979    981    993     1   108.0100461 406.684800
    979    981    994     1   108.0100461 406.684800
    979    986    999     1   108.0100461 406.684800
    979    986   1000     1   108.0100461 406.684800
    980    979   1004     1   110.1100470 384.091200
    980    982    995     1   109.8000471 387.438400
    980    982    996     1   109.8000471 387.438400
    981    979   1004     1   110.1100470 384.091200
    981    984    997     1   109.8000471 387.438400
    981    984    998     1   109.8000471 387.438400
    982    980    991     1   110.5600475 386.601600
    982    980    992     1   110.5600475 386.601600
    983    982    995     1   108.7700466 392.459200
    983    982    996     1   108.7700466 392.459200
    983   2028   2043     1   117.5500507 404.174400
    984    981    993     1   110.5600475 386.601600
    984    981    994     1   110.5600475 386.601600
    985    984    997     1   108.7700466 392.459200
    985    984    998     1   108.7700466 392.459200
    985   2054   2069     1   117.5500507 404.174400
    986    979   1004     1   110.1100470 384.091200
    986    987   1001     1   109.5600471 388.275200
    986    987   1002     1   109.5600471 388.275200
    987    986    999     1   110.5600475 386.601600
    987    986   1000     1   110.5600475 386.601600
    987    988   1003     1   117.6800502 383.254400
    988    987   1001     1   108.8800464 416.726400
    988    987   1002     1   108.8800464 416.726400
    991    980    992     1   109.7500473 328.025600
    993    981    994     1   109.7500473 328.025600
    995    982    996     1   107.5800459 329.699200
    997    984    998     1   107.5800459 329.699200
    999    986   1000     1   109.7500473 328.025600
   1001    987   1002     1   108.4600466 328.025600
   1005   1006   1017     1   108.0100461 406.684800
   1005   1006   1018     1   108.0100461 406.684800
   1005   1007   1019     1   108.0100461 406.684800
   1005   1007   1020     1   108.0100461 406.684800
   1005   1012   1025     1   108.0100461 406.684800
   1005   1012   1026     1   108.0100461 406.684800
   1006   1005   1030     1   110.1100470 384.091200
   1006   1008   1021     1   109.8000471 387.438400
   1006   1008   1022     1   109.8000471 387.438400
   1007   1005   1030     1   110.1100470 384.091200
   1007   1010   1023     1   109.8000471 387.438400
   1007   1010   1024     1   109.8000471 387.438400
   1008   1006   1017     1   110.5600475 386.601600
   1008   1006   1018     1   110.5600475 386.601600
   1009   1008   1021     1   108.7700466 392.459200
   1009   1008   1022     1   108.7700466 392.459200
   1009   2080   2095     1   117.5500507 404.174400
   1010   1007   1019     1   110.5600475 386.601600
   1010   1007   1020     1   110.5600475 386.601600
   1011   1010   1023     1   108.7700466 392.459200
   1011   1010   1024     1   108.7700466 392.459200
   1011   2106   2121     1   117.5500507 404.174400
   1012   1005   1030     1   110.1100470 384.091200
   1012   1013   1027     1   109.5600471 388.275200
   1012   1013   1028     1   109.5600471 388.275200
   1013   1012   1025     1   110.5600475 386.601600
   1013   1012   1026     1   110.5600475 386.601600
   1013   1014   1029     1   117.6800502 383.254400
   1014   1013   1027     1   108.8800464 416.726400
   1014   1013   1028     1   108.8800464 416.726400
   1017   1006   1018     1   109.7500473 328.025600
   1019   1007   1020     1   109.7500473 328.025600
   1021   1008   1022     1   107.5800459 329.699200
   1023   1010   1024     1   107.5800459 329.699200
   1025   1012   1026     1   109.7500473 328.025600
   1027   1013   1028     1   108.4600466 328.025600
   1031   1032   1043     1   108.0100461 406.684800
   1031   1032   1044     1   108.0100461 406.684800
   1031   1033   1045     1   108.0100461 406.684800
   1031   1033   1046     1   108.0100461 406.684800
   1031   1038   1051     1   108.0100461 406.684800
   1031   1038   1052     1   108.0100461 406.684800
   1032   1031   1056     1   110.1100470 384.091200
   1032   1034   1047     1   109.8000471 387.438400
   1032   1034   1048     1   109.8000471 387.438400
   1033   1031   1056     1   110.1100470 384.091200
   1033   1036   1049     1   109.8000471 387.438400
   1033   1036   1050     1   109.8000471 387.438400
   1034   1032   1043     1   110.5600475 386.601600
   1034   1032   1044     1   110.5600475 386.601600
   1035   1034   1047     1   108.7700466 392.459200
   1035   1034   1048     1   108.7700466 392.459200
   1035   2132   2147     1   117.5500507 404.174400
   1036   1033   1045     1   110.5600475 386.601600
   1036   1033   1046     1   110.5600475 386.601600
   1037   1036   1049     1   108.7700466 392.459200
   1037   1036   1050     1   108.7700466 392.459200
   1037   2158   2173     1   117.5500507 404.174400
   1038   1031   1056     1   110.1100470 384.091200
   1038   1039   1053     1   109.5600471 388.275200
   1038   1039   1054     1   109.5600471 388.275200
   1039   1038   1051     1   110.5600475 386.601600
   1039   1038   1052     1   110.5600475 386.601600
   1039   1040   1055     1   117.6800502 383.254400
   1040   1039   1053     1   108.8800464 416.726400
   1040   1039   1054     1   108.8800464 416.726400
   1043   1032   1044     1   109.7500473 328.025600
   1045   1033   1046     1   109.7500473 328.025600
   1047   1034   1048     1   107.5800459 329.699200
   1049   1036   1050     1   107.5800459 329.699200
   1051   1038   1052     1   109.7500473 328.025600
   1053   1039   1054     1   108.4600466 328.025600
   1057   1058   1069     1   108.0100461 406.684800
   1057   1058   1070     1   108.0100461 406.684800
   1057   1059   1071     1   108.0100461 406.684800
   1057   1059   1072     1   108.0100461 406.684800
   1057   1064   1077     1   108.0100461 406.684800
   1057   1064   1078     1   108.0100461 406.684800
   1058   1057   1082     1   110.1100470 384.091200
   1058   1060   1073     1   109.8000471 387.438400
   1058   1060   1074     1   109.8000471 387.438400
   1059   1057   1082     1   110.1100470 384.091200
   1059   1062   1075     1   109.8000471 387.438400
   1059   1062   1076     1   109.8000471 387.438400
   1060   1058   1069     1   110.5600475 386.601600
   1060   1058   1070     1   110.5600475 386.601600
   1061   1060   1073     1   108.7700466 392.459200
   1061   1060   1074     1   108.7700466 392.459200
   1061   2184   2199     1   117.5500507 404.174400
   1062   1059   1071     1   110.5600475 386.601600
   1062   1059   1072     1   110.5600475 386.601600
   1063   1062   1075     1   108.7700466 392.459200
   1063   1062   1076     1   108.7700466 392.459200
   1063   2210   2225     1   117.5500507 404.174400
   1064   1057   1082     1   110.1100470 384.091200
   1064   1065   1079     1   109.5600471 388.275200
   1064   1065   1080     1   109.5600471 388.275200
   1065   1064   1077     1   110.5600475 386.601600
   1065   1064   1078     1   110.5600475 386.601600
   1065   1066   1081     1   117.6800502 383.254400
   1066   1065   1079     1   108.8800464 416.726400
   1066   1065   1080     1   108.8800464 416.726400
   1069   1058   1070     1   109.7500473 328.025600
   1071   1059   1072     1   109.7500473 328.025600
   1073   1060   1074     1   107.5800459 329.699200
   1075   1062   1076     1   107.5800459 329.699200
   1077   1064   1078     1   109.7500473 328.025600
   1079   1065   1080     1   108.4600466 328.025600
   1083   1084   1095     1   108.0100461 406.684800
   1083   1084   1096     1   108.0100461 406.684800
   1083   1085   1097     1   108.0100461 406.684800
   1083   1085   1098     1   108.0100461 406.684800
   1083   1090   1103     1   108.0100461 406.684800
   1083   1090   1104     1   108.0100461 406.684800
   1084   1083   1108     1   110.1100470 384.091200
   1084   1086   1099     1   109.8000471 387.438400
   1084   1086   1100     1   109.8000471 387.438400
   1085   1083   1108     1   110.1100470 384.091200
   1085   1088   1101     1   109.8000471 387.438400
   1085   1088   1102     1   109.8000471 387.438400
   1086   1084   1095     1   110.5600475 386.601600
   1086   1084   1096     1   110.5600475 386.601600
   1087   1086   1099     1   108.7700466 392.459200
   1087   1086   1100     1   108.7700466 392.459200
   1087   2236   2251     1   117.5500507 404.174400
   1088   1085   1097     1   110.5600475 386.601600
   1088   1085   1098     1   110.5600475 386.601600
   1089   1088   1101     1   108.7700466 392.459200
   1089   1088   1102     1   108.7700466 392.459200
   1089   2262   2277     1   117.5500507 404.174400
   1090   1083   1108     1   110.1100470 384.091200
   1090   1091   1105     1   109.5600471 388.275200
   1090   1091   1106     1   109.5600471 388.275200
   1091   1090   1103     1   110.5600475 386.601600
   1091   1090   1104     1   110.5600475 386.601600
   1091   1092   1107     1   117.6800502 383.254400
   1092   1091   1105     1   108.8800464 416.726400
   1092   1091   1106     1   108.8800464 416.726400
   1095   1084   1096     1   109.7500473 328.025600
   1097   1085   1098     1   109.7500473 328.025600
   1099   1086   1100     1   107.5800459 329.699200
   1101   1088   1102     1   107.5800459 329.699200
   1103   1090   1104     1   109.7500473 328.025600
   1105   1091   1106     1   108.4600466 328.025600
   1109   1110   1121     1   108.0100461 406.684800
   1109   1110   1122     1   108.0100461 406.684800
   1109   1111   1123     1   108.0100461 406.684800
   1109   1111   1124     1   108.0100461 406.684800
   1109   1116   1129     1   108.0100461 406.684800
   1109   1116   1130     1   108.0100461 406.684800
   1110   1109   1134     1   110.1100470 384.091200
   1110   1112   1125     1   109.8000471 387.438400
   1110   1112   1126     1   109.8000471 387.438400
   1111   1109   1134     1   110.1100470 384.091200
   1111   1114   1127     1   109.8000471 387.438400
   1111   1114   1128     1   109.8000471 387.438400
   1112   1110   1121     1   110.5600475 386.601600
   1112   1110   1122     1   110.5600475 386.601600
   1113   1112   1125     1   108.7700466 392.459200
   1113   1112   1126     1   108.7700466 392.459200
   1113   2288   2303     1   117.5500507 404.174400
   1114   1111   1123     1   110.5600475 386.601600
   1114   1111   1124     1   110.5600475 386.601600
   1115   1114   1127     1   108.7700466 392.459200
   1115   1114   1128     1   108.7700466 392.459200
   1115   2314   2329     1   117.5500507 404.174400
   1116   1109   1134     1   110.1100470 384.091200
   1116   1117   1131     1   109.5600471 388.275200
   1116   1117   1132     1   109.5600471 388.275200
   1117   1116   1129     1   110.5600475 386.601600
   1117   1116   1130     1   110.5600475 386.601600
   1117   1118   1133     1   117.6800502 383.254400
   1118   1117   1131     1   108.8800464 416.726400
   1118   1117   1132     1   108.8800464 416.726400
   1121   1110   1122     1   109.7500473 328.025600
   1123   1111   1124     1   109.7500473 328.025600
   1125   1112   1126     1   107.5800459 329.699200
   1127   1114   1128     1   107.5800459 329.699200
   1129   1116   1130     1   109.7500473 328.025600
   1131   1117   1132     1   108.4600466 328.025600
   1135   1136   1147     1   108.0100461 406.684800
   1135   1136   1148     1   108.0100461 406.684800
   1135   1137   1149     1   108.0100461 406.684800
   1135   1137   1150     1   108.0100461 406.684800
   1135   1142   1155     1   108.0100461 406.684800
   1135   1142   1156     1   108.0100461 406.684800
   1136   1135   1160     1   110.1100470 384.091200
   1136   1138   1151     1   109.8000471 387.438400
   1136   1138   1152     1   109.8000471 387.438400
   1137   1135   1160     1   110.1100470 384.091200
   1137   1140   1153     1   109.8000471 387.438400
   1137   1140   1154     1   109.8000471 387.438400
   1138   1136   1147     1   110.5600475 386.601600
   1138   1136   1148     1   110.5600475 386.601600
   1139   1138   1151     1   108.7700466 392.459200
   1139   1138   1152     1   108.7700466 392.459200
   1139   2340   2355     1   117.5500507 404.174400
   1140   1137   1149     1   110.5600475 386.601600
   1140   1137   1150     1   110.5600475 386.601600
   1141   1140   1153     1   108.7700466 392.459200
   1141   1140   1154     1   108.7700466 392.459200
   1141   2366   2381     1   117.5500507 404.174400
   1142   1135   1160     1   110.1100470 384.091200
   1142   1143   1157     1   109.5600471 388.275200
   1142   1143   1158     1   109.5600471 388.275200
   1143   1142   1155     1   110.5600475 386.601600
   1143   1142   1156     1   110.5600475 386.601600
   1143   1144   1159     1   117.6800502 383.254400
   1144   1143   1157     1   108.8800464 416.726400
   1144   1143   1158     1   108.8800464 416.726400
   1147   1136   1148     1   109.7500473 328.025600
   1149   1137   1150     1   109.7500473 328.025600
   1151   1138   1152     1   107.5800459 329.699200
   1153   1140   1154     1   107.5800459 329.699200
   1155   1142   1156     1   109.7500473 328.025600
   1157   1143   1158     1   108.4600466 328.025600
   1161   1162   1173     1   108.0100461 406.684800
   1161   1162   1174     1   108.0100461 406.684800
   1161   1163   1175     1   108.0100461 406.684800
   1161   1163   1176     1   108.0100461 406.684800
   1161   1168   1181     1   108.0100461 406.684800
   1161   1168   1182     1   108.0100461 406.684800
   1162   1161   1186     1   110.1100470 384.091200
   1162   1164   1177     1   109.8000471 387.438400
   1162   1164   1178     1   109.8000471 387.438400
   1163   1161   1186     1   110.1100470 384.091200
   1163   1166   1179     1   109.8000471 387.438400
   1163   1166   1180     1   109.8000471 387.438400
   1164   1162   1173     1   110.5600475 386.601600
   1164   1162   1174     1   110.5600475 386.601600
   1165   1164   1177     1   108.7700466 392.459200
   1165   1164   1178     1   108.7700466 392.459200
   1165   2392   2407     1   117.5500507 404.174400
   1166   1163   1175     1   110.5600475 386.601600
   1166   1163   1176     1   110.5600475 386.601600
   1167   1166   1179     1   108.7700466 392.459200
   1167   1166   1180     1   108.7700466 392.459200
   1167   2418   2433     1   117.5500507 404.174400
   1168   1161   1186     1   110.1100470 384.091200
   1168   1169   1183     1   109.5600471 388.275200
   1168   1169   1184     1   109.5600471 388.275200
   1169   1168   1181     1   110.5600475 386.601600
   1169   1168   1182     1   110.5600475 386.601600
   1169   1170   1185     1   117.6800502 383.254400
   1170   1169   1183     1   108.8800464 416.726400
   1170   1169   1184     1   108.8800464 416.726400
   1173   1162   1174     1   109.7500473 328.025600
   1175   1163   1176     1   109.7500473 328.025600
   1177   1164   1178     1   107.5800459 329.699200
   1179   1166   1180     1   107.5800459 329.699200
   1181   1168   1182     1   109.7500473 328.025600
   1183   1169   1184     1   108.4600466 328.025600
   1187   1188   1199     1   108.0100461 406.684800
   1187   1188   1200     1   108.0100461 406.684800
   1187   1189   1201     1   108.0100461 406.684800
   1187   1189   1202     1   108.0100461 406.684800
   1187   1194   1207     1   108.0100461 406.684800
   1187   1194   1208     1   108.0100461 406.684800
   1188   1187   1212     1   110.1100470 384.091200
   1188   1190   1203     1   109.8000471 387.438400
   1188   1190   1204     1   109.8000471 387.438400
   1189   1187   1212     1   110.1100470 384.091200
   1189   1192   1205     1   109.8000471 387.438400
   1189   1192   1206     1   109.8000471 387.438400
   1190   1188   1199     1   110.5600475 386.601600
   1190   1188   1200     1   110.5600475 386.601600
   1191   1190   1203     1   108.7700466 392.459200
   1191   1190   1204     1   108.7700466 392.459200
   1191   2444   2459     1   117.5500507 404.174400
   1192   1189   1201     1   110.5600475 386.601600
   1192   1189   1202     1   110.5600475 386.601600
   1193   1192   1205     1   108.7700466 392.459200
   1193   1192   1206     1   108.7700466 392.459200
   1193   2470   2485     1   117.5500507 404.174400
   1194   1187   1212     1   110.1100470 384.091200
   1194   1195   1209     1   109.5600471 388.275200
   1194   1195   1210     1   109.5600471 388.275200
   1195   1194   1207     1   110.5600475 386.601600
   1195   1194   1208     1   110.5600475 386.601600
   1195   1196   1211     1   117.6800502 383.254400
   1196   1195   1209     1   108.8800464 416.726400
   1196   1195   1210     1   108.8800464 416.726400
   1199   1188   1200     1   109.7500473 328.025600
   1201   1189   1202     1   109.7500473 328.025600
   1203   1190   1204     1   107.5800459 329.699200
   1205   1192   1206     1   107.5800459 329.699200
   1207   1194   1208     1   109.7500473 328.025600
   1209   1195   1210     1   108.4600466 328.025600
   1213   1214   1225     1   108.0100461 406.684800
   1213   1214   1226     1   108.0100461 406.684800
   1213   1215   1227     1   108.0100461 406.684800
   1213   1215   1228     1   108.0100461 406.684800
   1213   1220   1233     1   108.0100461 406.684800
   1213   1220   1234     1   108.0100461 406.684800
   1214   1213   1238     1   110.1100470 384.091200
   1214   1216   1229     1   109.8000471 387.438400
   1214   1216   1230     1   109.8000471 387.438400
   1215   1213   1238     1   110.1100470 384.091200
   1215   1218   1231     1   109.8000471 387.438400
   1215   1218   1232     1   109.8000471 387.438400
   1216   1214   1225     1   110.5600475 386.601600
   1216   1214   1226     1   110.5600475 386.601600
   1217   1216   1229     1   108.7700466 392.459200
   1217   1216   1230     1   108.7700466 392.459200
   1217   2496   2511     1   117.5500507 404.174400
   1218   1215   1227     1   110.5600475 386.601600
   1218   1215   1228     1   110.5600475 386.601600
   1219   1218   1231     1   108.7700466 392.459200
   1219   1218   1232     1   108.7700466 392.459200
   1219   2522   2537     1   117.5500507 404.174400
   1220   1213   1238     1   110.1100470 384.091200
   1220   1221   1235     1   109.5600471 388.275200
   1220   1221   1236     1   109.5600471 388.275200
   1221   1220   1233     1   110.5600475 386.601600
   1221   1220   1234     1   110.5600475 386.601600
   1221   1222   1237     1   117.6800502 383.254400
   1222   1221   1235     1   108.8800464 416.726400
   1222   1221   1236     1   108.8800464 416.726400
   1225   1214   1226     1   109.7500473 328.025600
   1227   1215   1228     1   109.7500473 328.025600
   1229   1216   1230     1   107.5800459 329.699200
   1231   1218   1232     1   107.5800459 329.699200
   1233   1220   1234     1   109.7500473 328.025600
   1235   1221   1236     1   108.4600466 328.025600
   1239   1240   1251     1   108.0100461 406.684800
   1239   1240   1252     1   108.0100461 406.684800
   1239   1241   1253     1   108.0100461 406.684800
   1239   1241   1254     1   108.0100461 406.684800
   1239   1246   1259     1   108.0100461 406.684800
   1239   1246   1260     1   108.0100461 406.684800
   1240   1239   1264     1   110.1100470 384.091200
   1240   1242   1255     1   109.8000471 387.438400
   1240   1242   1256     1   109.8000471 387.438400
   1241   1239   1264     1   110.1100470 384.091200
   1241   1244   1257     1   109.8000471 387.438400
   1241   1244   1258     1   109.8000471 387.438400
   1242   1240   1251     1   110.5600475 386.601600
   1242   1240   1252     1   110.5600475 386.601600
   1243   1242   1255     1   108.7700466 392.459200
   1243   1242   1256     1   108.7700466 392.459200
   1243   2548   2563     1   117.5500507 404.174400
   1244   1241   1253     1   110.5600475 386.601600
   1244   1241   1254     1   110.5600475 386.601600
   1245   1244   1257     1   108.7700466 392.459200
   1245   1244   1258     1   108.7700466 392.459200
   1245   2574   2589     1   117.5500507 404.174400
   1246   1239   1264     1   110.1100470 384.091200
   1246   1247   1261     1   109.5600471 388.275200
   1246   1247   1262     1   109.5600471 388.275200
   1247   1246   1259     1   110.5600475 386.601600
   1247   1246   1260     1   110.5600475 386.601600
   1247   1248   1263     1   117.6800502 383.254400
   1248   1247   1261     1   108.8800464 416.726400
   1248   1247   1262     1   108.8800464 416.726400
   1251   1240   1252     1   109.7500473 328.025600
   1253   1241   1254     1   109.7500473 328.025600
   1255   1242   1256     1   107.5800459 329.699200
   1257   1244   1258     1   107.5800459 329.699200
   1259   1246   1260     1   109.7500473 328.025600
   1261   1247   1262     1   108.4600466 328.025600
   1265   1266   1277     1   108.0100461 406.684800
   1265   1266   1278     1   108.0100461 406.684800
   1265   1267   1279     1   108.0100461 406.684800
   1265   1267   1280     1   108.0100461 406.684800
   1265   1272   1285     1   108.0100461 406.684800
   1265   1272   1286     1   108.0100461 406.684800
   1266   1265   1290     1   110.1100470 384.091200
   1266   1268   1281     1   109.8000471 387.438400
   1266   1268   1282     1   109.8000471 387.438400
   1267   1265   1290     1   110.1100470 384.091200
   1267   1270   1283     1   109.8000471 387.438400
   1267   1270   1284     1   109.8000471 387.438400
   1268   1266   1277     1   110.5600475 386.601600
   1268   1266   1278     1   110.5600475 386.601600
   1269   1268   1281     1   108.7700466 392.459200
   1269   1268   1282     1   108.7700466 392.459200
   1269   2600   2615     1   117.5500507 404.174400
   1270   1267   1279     1   110.5600475 386.601600
   1270   1267   1280     1   110.5600475 386.601600
   1271   1270   1283     1   108.7700466 392.459200
   1271   1270   1284     1   108.7700466 392.459200
   1271   2626   2641     1   117.5500507 404.174400
   1272   1265   1290     1   110.1100470 384.091200
   1272   1273   1287     1   109.5600471 388.275200
   1272   1273   1288     1   109.5600471 388.275200
   1273   1272   1285     1   110.5600475 386.601600
   1273   1272   1286     1   110.5600475 386.601600
   1273   1274   1289     1   117.6800502 383.254400
   1274   1273   1287     1   108.8800464 416.726400
   1274   1273   1288     1   108.8800464 416.726400
   1277   1266   1278     1   109.7500473 328.025600
   1279   1267   1280     1   109.7500473 328.025600
   1281   1268   1282     1   107.5800459 329.699200
   1283   1270   1284     1   107.5800459 329.699200
   1285   1272   1286     1   109.7500473 328.025600
   1287   1273   1288     1   108.4600466 328.025600
   1291   1292   1303     1   108.0100461 406.684800
   1291   1292   1304     1   108.0100461 406.684800
   1291   1293   1305     1   108.0100461 406.684800
   1291   1293   1306     1   108.0100461 406.684800
   1291   1298   1311     1   108.0100461 406.684800
   1291   1298   1312     1   108.0100461 406.684800
   1292   1291   1316     1   110.1100470 384.091200
   1292   1294   1307     1   109.8000471 387.438400
   1292   1294   1308     1   109.8000471 387.438400
   1293   1291   1316     1   110.1100470 384.091200
   1293   1296   1309     1   109.8000471 387.438400
   1293   1296   1310     1   109.8000471 387.438400
   1294   1292   1303     1   110.5600475 386.601600
   1294   1292   1304     1   110.5600475 386.601600
   1295   1294   1307     1   108.7700466 392.459200
   1295   1294   1308     1   108.7700466 392.459200
   1295   2652   2667     1   117.5500507 404.174400
   1296   1293   1305     1   110.5600475 386.601600
   1296   1293   1306     1   110.5600475 386.601600
   1297   1296   1309     1   108.7700466 392.459200
   1297   1296   1310     1   108.7700466 392.459200
   1297   2678   2693     1   117.5500507 404.174400
   1298   1291   1316     1   110.1100470 384.091200
   1298   1299   1313     1   109.5600471 388.275200
   1298   1299   1314     1   109.5600471 388.275200
   1299   1298   1311     1   110.5600475 386.601600
   1299   1298   1312     1   110.5600475 386.601600
   1299   1300   1315     1   117.6800502 383.254400
   1300   1299   1313     1   108.8800464 416.726400
   1300   1299   1314     1   108.8800464 416.726400
   1303   1292   1304     1   109.7500473 328.025600
   1305   1293   1306     1   109.7500473 328.025600
   1307   1294   1308     1   107.5800459 329.699200
   1309   1296   1310     1   107.5800459 329.699200
   1311   1298   1312     1   109.7500473 328.025600
   1313   1299   1314     1   108.4600466 328.025600
   1317   1318   1329     1   108.0100461 406.684800
   1317   1318   1330     1   108.0100461 406.684800
   1317   1319   1331     1   108.0100461 406.684800
   1317   1319   1332     1   108.0100461 406.684800
   1317   1324   1337     1   108.0100461 406.684800
   1317   1324   1338     1   108.0100461 406.684800
   1318   1317   1342     1   110.1100470 384.091200
   1318   1320   1333     1   109.8000471 387.438400
   1318   1320   1334     1   109.8000471 387.438400
   1319   1317   1342     1   110.1100470 384.091200
   1319   1322   1335     1   109.8000471 387.438400
   1319   1322   1336     1   109.8000471 387.438400
   1320   1318   1329     1   110.5600475 386.601600
   1320   1318   1330     1   110.5600475 386.601600
   1321   1320   1333     1   108.7700466 392.459200
   1321   1320   1334     1   108.7700466 392.459200
   1321   2704   2719     1   117.5500507 404.174400
   1322   1319   1331     1   110.5600475 386.601600
   1322   1319   1332     1   110.5600475 386.601600
   1323   1322   1335     1   108.7700466 392.459200
   1323   1322   1336     1   108.7700466 392.459200
   1323   2730   2745     1   117.5500507 404.174400
   1324   1317   1342     1   110.1100470 384.091200
   1324   1325   1339     1   109.5600471 388.275200
   1324   1325   1340     1   109.5600471 388.275200
   1325   1324   1337     1   110.5600475 386.601600
   1325   1324   1338     1   110.5600475 386.601600
   1325   1326   1341     1   117.6800502 383.254400
   1326   1325   1339     1   108.8800464 416.726400
   1326   1325   1340     1   108.8800464 416.726400
   1329   1318   1330     1   109.7500473 328.025600
   1331   1319   1332     1   109.7500473 328.025600
   1333   1320   1334     1   107.5800459 329.699200
   1335   1322   1336     1   107.5800459 329.699200
   1337   1324   1338     1   109.7500473 328.025600
   1339   1325   1340     1   108.4600466 328.025600
   1343   1344   1355     1   108.0100461 406.684800
   1343   1344   1356     1   108.0100461 406.684800
   1343   1345   1357     1   108.0100461 406.684800
   1343   1345   1358     1   108.0100461 406.684800
   1343   1350   1363     1   108.0100461 406.684800
   1343   1350   1364     1   108.0100461 406.684800
   1344   1343   1368     1   110.1100470 384.091200
   1344   1346   1359     1   109.8000471 387.438400
   1344   1346   1360     1   109.8000471 387.438400
   1345   1343   1368     1   110.1100470 384.091200
   1345   1348   1361     1   109.8000471 387.438400
   1345   1348   1362     1   109.8000471 387.438400
   1346   1344   1355     1   110.5600475 386.601600
   1346   1344   1356     1   110.5600475 386.601600
   1347   1346   1359     1   108.7700466 392.459200
   1347   1346   1360     1   108.7700466 392.459200
   1347   2756   2771     1   117.5500507 404.174400
   1348   1345   1357     1   110.5600475 386.601600
   1348   1345   1358     1   110.5600475 386.601600
   1349   1348   1361     1   108.7700466 392.459200
   1349   1348   1362     1   108.7700466 392.459200
   1349   2782   2797     1   117.5500507 404.174400
   1350   1343   1368     1   110.1100470 384.091200
   1350   1351   1365     1   109.5600471 388.275200
   1350   1351   1366     1   109.5600471 388.275200
   1351   1350   1363     1   110.5600475 386.601600
   1351   1350   1364     1   110.5600475 386.601600
   1351   1352   1367     1   117.6800502 383.254400
   1352   1351   1365     1   108.8800464 416.726400
   1352   1351   1366     1   108.8800464 416.726400
   1355   1344   1356     1   109.7500473 328.025600
   1357   1345   1358     1   109.7500473 328.025600
   1359   1346   1360     1   107.5800459 329.699200
   1361   1348   1362     1   107.5800459 329.699200
   1363   1350   1364     1   109.7500473 328.025600
   1365   1351   1366     1   108.4600466 328.025600
   1369   1370   1381     1   108.0100461 406.684800
   1369   1370   1382     1   108.0100461 406.684800
   1369   1371   1383     1   108.0100461 406.684800
   1369   1371   1384     1   108.0100461 406.684800
   1369   1376   1389     1   108.0100461 406.684800
   1369   1376   1390     1   108.0100461 406.684800
   1370   1369   1394     1   110.1100470 384.091200
   1370   1372   1385     1   109.8000471 387.438400
   1370   1372   1386     1   109.8000471 387.438400
   1371   1369   1394     1   110.1100470 384.091200
   1371   1374   1387     1   109.8000471 387.438400
   1371   1374   1388     1   109.8000471 387.438400
   1372   1370   1381     1   110.5600475 386.601600
   1372   1370   1382     1   110.5600475 386.601600
   1373   1372   1385     1   108.7700466 392.459200
   1373   1372   1386     1   108.7700466 392.459200
   1373   2808   2823     1   117.5500507 404.174400
   1374   1371   1383     1   110.5600475 386.601600
   1374   1371   1384     1   110.5600475 386.601600
   1375   1374   1387     1   108.7700466 392.459200
   1375   1374   1388     1   108.7700466 392.459200
   1375   2834   2849     1   117.5500507 404.174400
   1376   1369   1394     1   110.1100470 384.091200
   1376   1377   1391     1   109.5600471 388.275200
   1376   1377   1392     1   109.5600471 388.275200
   1377   1376   1389     1   110.5600475 386.601600
   1377   1376   1390     1   110.5600475 386.601600
   1377   1378   1393     1   117.6800502 383.254400
   1378   1377   1391     1   108.8800464 416.726400
   1378   1377   1392     1   108.8800464 416.726400
   1381   1370   1382     1   109.7500473 328.025600
   1383   1371   1384     1   109.7500473 328.025600
   1385   1372   1386     1   107.5800459 329.699200
   1387   1374   1388     1   107.5800459 329.699200
   1389   1376   1390     1   109.7500473 328.025600
   1391   1377   1392     1   108.4600466 328.025600
   1395   1396   1407     1   108.0100461 406.684800
   1395   1396   1408     1   108.0100461 406.684800
   1395   1397   1409     1   108.0100461 406.684800
   1395   1397   1410     1   108.0100461 406.684800
   1395   1402   1415     1   108.0100461 406.684800
   1395   1402   1416     1   108.0100461 406.684800
   1396   1395   1420     1   110.1100470 384.091200
   1396   1398   1411     1   109.8000471 387.438400
   1396   1398   1412     1   109.8000471 387.438400
   1397   1395   1420     1   110.1100470 384.091200
   1397   1400   1413     1   109.8000471 387.438400
   1397   1400   1414     1   109.8000471 387.438400
   1398   1396   1407     1   110.5600475 386.601600
   1398   1396   1408     1   110.5600475 386.601600
   1399   1398   1411     1   108.7700466 392.459200
   1399   1398   1412     1   108.7700466 392.459200
   1399   2860   2875     1   117.5500507 404.174400
   1400   1397   1409     1   110.5600475 386.601600
   1400   1397   1410     1   110.5600475 386.601600
   1401   1400   1413     1   108.7700466 392.459200
   1401   1400   1414     1   108.7700466 392.459200
   1401   2886   2901     1   117.5500507 404.174400
   1402   1395   1420     1   110.1100470 384.091200
   1402   1403   1417     1   109.5600471 388.275200
   1402   1403   1418     1   109.5600471 388.275200
   1403   1402   1415     1   110.5600475 386.601600
   1403   1402   1416     1   110.5600475 386.601600
   1403   1404   1419     1   117.6800502 383.254400
   1404   1403   1417     1   108.8800464 416.726400
   1404   1403   1418     1   108.8800464 416.726400
   1407   1396   1408     1   109.7500473 328.025600
   1409   1397   1410     1   109.7500473 328.025600
   1411   1398   1412     1   107.5800459 329.699200
   1413   1400   1414     1   107.5800459 329.699200
   1415   1402   1416     1   109.7500473 328.025600
   1417   1403   1418     1   108.4600466 328.025600
   1421   1422   1433     1   108.0100461 406.684800
   1421   1422   1434     1   108.0100461 406.684800
   1421   1423   1435     1   108.0100461 406.684800
   1421   1423   1436     1   108.0100461 406.684800
   1421   1428   1441     1   108.0100461 406.684800
   1421   1428   1442     1   108.0100461 406.684800
   1422   1421   1446     1   110.1100470 384.091200
   1422   1424   1437     1   109.8000471 387.438400
   1422   1424   1438     1   109.8000471 387.438400
   1423   1421   1446     1   110.1100470 384.091200
   1423   1426   1439     1   109.8000471 387.438400
   1423   1426   1440     1   109.8000471 387.438400
   1424   1422   1433     1   110.5600475 386.601600
   1424   1422   1434     1   110.5600475 386.601600
   1425   1424   1437     1   108.7700466 392.459200
   1425   1424   1438     1   108.7700466 392.459200
   1425   2912   2927     1   117.5500507 404.174400
   1426   1423   1435     1   110.5600475 386.601600
   1426   1423   1436     1   110.5600475 386.601600
   1427   1426   1439     1   108.7700466 392.459200
   1427   1426   1440     1   108.7700466 392.459200
   1427   2938   2953     1   117.5500507 404.174400
   1428   1421   1446     1   110.1100470 384.091200
   1428   1429   1443     1   109.5600471 388.275200
   1428   1429   1444     1   109.5600471 388.275200
   1429   1428   1441     1   110.5600475 386.601600
   1429   1428   1442     1   110.5600475 386.601600
   1429   1430   1445     1   117.6800502 383.254400
   1430   1429   1443     1   108.8800464 416.726400
   1430   1429   1444     1   108.8800464 416.726400
   1433   1422   1434     1   109.7500473 328.025600
   1435   1423   1436     1   109.7500473 328.025600
   1437   1424   1438     1   107.5800459 329.699200
   1439   1426   1440     1   107.5800459 329.699200
   1441   1428   1442     1   109.7500473 328.025600
   1443   1429   1444     1   108.4600466 328.025600
   1447   1448   1459     1   108.0100461 406.684800
   1447   1448   1460     1   108.0100461 406.684800
   1447   1449   1461     1   108.0100461 406.684800
   1447   1449   1462     1   108.0100461 406.684800
   1447   1454   1467     1   108.0100461 406.684800
   1447   1454   1468     1   108.0100461 406.684800
   1448   1447   1472     1   110.1100470 384.091200
   1448   1450   1463     1   109.8000471 387.438400
   1448   1450   1464     1   109.8000471 387.438400
   1449   1447   1472     1   110.1100470 384.091200
   1449   1452   1465     1   109.8000471 387.438400
   1449   1452   1466     1   109.8000471 387.438400
   1450   1448   1459     1   110.5600475 386.601600
   1450   1448   1460     1   110.5600475 386.601600
   1451   1450   1463     1   108.7700466 392.459200
   1451   1450   1464     1   108.7700466 392.459200
   1451   2964   2979     1   117.5500507 404.174400
   1452   1449   1461     1   110.5600475 386.601600
   1452   1449   1462     1   110.5600475 386.601600
   1453   1452   1465     1   108.7700466 392.459200
   1453   1452   1466     1   108.7700466 392.459200
   1453   2990   3005     1   117.5500507 404.174400
   1454   1447   1472     1   110.1100470 384.091200
   1454   1455   1469     1   109.5600471 388.275200
   1454   1455   1470     1   109.5600471 388.275200
   1455   1454   1467     1   110.5600475 386.601600
   1455   1454   1468     1   110.5600475 386.601600
   1455   1456   1471     1   117.6800502 383.254400
   1456   1455   1469     1   108.8800464 416.726400
   1456   1455   1470     1   108.8800464 416.726400
   1459   1448   1460     1   109.7500473 328.025600
   1461   1449   1462     1   109.7500473 328.025600
   1463   1450   1464     1   107.5800459 329.699200
   1465   1452   1466     1   107.5800459 329.699200
   1467   1454   1468     1   109.7500473 328.025600
   1469   1455   1470     1   108.4600466 328.025600
   1473   1474   1485     1   108.0100461 406.684800
   1473   1474   1486     1   108.0100461 406.684800
   1473   1475   1487     1   108.0100461 406.684800
   1473   1475   1488     1   108.0100461 406.684800
   1473   1480   1493     1   108.0100461 406.684800
   1473   1480   1494     1   108.0100461 406.684800
   1474   1473   1498     1   110.1100470 384.091200
   1474   1476   1489     1   109.8000471 387.438400
   1474   1476   1490     1   109.8000471 387.438400
   1475   1473   1498     1   110.1100470 384.091200
   1475   1478   1491     1   109.8000471 387.438400
   1475   1478   1492     1   109.8000471 387.438400
   1476   1474   1485     1   110.5600475 386.601600
   1476   1474   1486     1   110.5600475 386.601600
   1477   1476   1489     1   108.7700466 392.459200
   1477   1476   1490     1   108.7700466 392.459200
   1477   3016   3031     1   117.5500507 404.174400
   1478   1475   1487     1   110.5600475 386.601600
   1478   1475   1488     1   110.5600475 386.601600
   1479   1478   1491     1   108.7700466 392.459200
   1479   1478   1492     1   108.7700466 392.459200
   1479   3042   3057     1   117.5500507 404.174400
   1480   1473   1498     1   110.1100470 384.091200
   1480   1481   1495     1   109.5600471 388.275200
   1480   1481   1496     1   109.5600471 388.275200
   1481   1480   1493     1   110.5600475 386.601600
   1481   1480   1494     1   110.5600475 386.601600
   1481   1482   1497     1   117.6800502 383.254400
   1482   1481   1495     1   108.8800464 416.726400
   1482   1481   1496     1   108.8800464 416.726400
   1485   1474   1486     1   109.7500473 328.025600
   1487   1475   1488     1   109.7500473 328.025600
   1489   1476   1490     1   107.5800459 329.699200
   1491   1478   1492     1   107.5800459 329.699200
   1493   1480   1494     1   109.7500473 328.025600
   1495   1481   1496     1   108.4600466 328.025600
   1499   1500   1511     1   108.0100461 406.684800
   1499   1500   1512     1   108.0100461 406.684800
   1499   1501   1513     1   108.0100461 406.684800
   1499   1501   1514     1   108.0100461 406.684800
   1499   1506   1519     1   108.0100461 406.684800
   1499   1506   1520     1   108.0100461 406.684800
   1500   1499   1524     1   110.1100470 384.091200
   1500   1502   1515     1   109.8000471 387.438400
   1500   1502   1516     1   109.8000471 387.438400
   1501   1499   1524     1   110.1100470 384.091200
   1501   1504   1517     1   109.8000471 387.438400
   1501   1504   1518     1   109.8000471 387.438400
   1502   1500   1511     1   110.5600475 386.601600
   1502   1500   1512     1   110.5600475 386.601600
   1503   1502   1515     1   108.7700466 392.459200
   1503   1502   1516     1   108.7700466 392.459200
   1503   3068   3083     1   117.5500507 404.174400
   1504   1501   1513     1   110.5600475 386.601600
   1504   1501   1514     1   110.5600475 386.601600
   1505   1504   1517     1   108.7700466 392.459200
   1505   1504   1518     1   108.7700466 392.459200
   1505   3094   3109     1   117.5500507 404.174400
   1506   1499   1524     1   110.1100470 384.091200
   1506   1507   1521     1   109.5600471 388.275200
   1506   1507   1522     1   109.5600471 388.275200
   1507   1506   1519     1   110.5600475 386.601600
   1507   1506   1520     1   110.5600475 386.601600
   1507   1508   1523     1   117.6800502 383.254400
   1508   1507   1521     1   108.8800464 416.726400
   1508   1507   1522     1   108.8800464 416.726400
   1511   1500   1512     1   109.7500473 328.025600
   1513   1501   1514     1   109.7500473 328.025600
   1515   1502   1516     1   107.5800459 329.699200
   1517   1504   1518     1   107.5800459 329.699200
   1519   1506   1520     1   109.7500473 328.025600
   1521   1507   1522     1   108.4600466 328.025600
   1525   1526   1537     1   108.0100461 406.684800
   1525   1526   1538     1   108.0100461 406.684800
   1525   1527   1539     1   108.0100461 406.684800
   1525   1527   1540     1   108.0100461 406.684800
   1525   1532   1545     1   108.0100461 406.684800
   1525   1532   1546     1   108.0100461 406.684800
   1526   1525   1550     1   110.1100470 384.091200
   1526   1528   1541     1   109.8000471 387.438400
   1526   1528   1542     1   109.8000471 387.438400
   1527   1525   1550     1   110.1100470 384.091200
   1527   1530   1543     1   109.8000471 387.438400
   1527   1530   1544     1   109.8000471 387.438400
   1528   1526   1537     1   110.5600475 386.601600
   1528   1526   1538     1   110.5600475 386.601600
   1529   1528   1541     1   108.7700466 392.459200
   1529   1528   1542     1   108.7700466 392.459200
   1529   3120   3135     1   117.5500507 404.174400
   1530   1527   1539     1   110.5600475 386.601600
   1530   1527   1540     1   110.5600475 386.601600
   1531   1530   1543     1   108.7700466 392.459200
   1531   1530   1544     1   108.7700466 392.459200
   1531   3146   3161     1   117.5500507 404.174400
   1532   1525   1550     1   110.1100470 384.091200
   1532   1533   1547     1   109.5600471 388.275200
   1532   1533   1548     1   109.5600471 388.275200
   1533   1532   1545     1   110.5600475 386.601600
   1533   1532   1546     1   110.5600475 386.601600
   1533   1534   1549     1   117.6800502 383.254400
   1534   1533   1547     1   108.8800464 416.726400
   1534   1533   1548     1   108.8800464 416.726400
   1537   1526   1538     1   109.7500473 328.025600
   1539   1527   1540     1   109.7500473 328.025600
   1541   1528   1542     1   107.5800459 329.699200
   1543   1530   1544     1   107.5800459 329.699200
   1545   1532   1546     1   109.7500473 328.025600
   1547   1533   1548     1   108.4600466 328.025600
   1551   1552   1563     1   108.0100461 406.684800
   1551   1552   1564     1   108.0100461 406.684800
   1551   1553   1565     1   108.0100461 406.684800
   1551   1553   1566     1   108.0100461 406.684800
   1551   1558   1571     1   108.0100461 406.684800
   1551   1558   1572     1   108.0100461 406.684800
   1552   1551   1576     1   110.1100470 384.091200
   1552   1554   1567     1   109.8000471 387.438400
   1552   1554   1568     1   109.8000471 387.438400
   1553   1551   1576     1   110.1100470 384.091200
   1553   1556   1569     1   109.8000471 387.438400
   1553   1556   1570     1   109.8000471 387.438400
   1554   1552   1563     1   110.5600475 386.601600
   1554   1552   1564     1   110.5600475 386.601600
   1555   1554   1567     1   108.7700466 392.459200
   1555   1554   1568     1   108.7700466 392.459200
   1555   3172   3187     1   117.5500507 404.174400
   1556   1553   1565     1   110.5600475 386.601600
   1556   1553   1566     1   110.5600475 386.601600
   1557   1556   1569     1   108.7700466 392.459200
   1557   1556   1570     1   108.7700466 392.459200
   1557   3198   3213     1   117.5500507 404.174400
   1558   1551   1576     1   110.1100470 384.091200
   1558   1559   1573     1   109.5600471 388.275200
   1558   1559   1574     1   109.5600471 388.275200
   1559   1558   1571     1   110.5600475 386.601600
   1559   1558   1572     1   110.5600475 386.601600
   1559   1560   1575     1   117.6800502 383.254400
   1560   1559   1573     1   108.8800464 416.726400
   1560   1559   1574     1   108.8800464 416.726400
   1563   1552   1564     1   109.7500473 328.025600
   1565   1553   1566     1   109.7500473 328.025600
   1567   1554   1568     1   107.5800459 329.699200
   1569   1556   1570     1   107.5800459 329.699200
   1571   1558   1572     1   109.7500473 328.025600
   1573   1559   1574     1   108.4600466 328.025600
   1577   1578   1589     1   108.0100461 406.684800
   1577   1578   1590     1   108.0100461 406.684800
   1577   1579   1591     1   108.0100461 406.684800
   1577   1579   1592     1   108.0100461 406.684800
   1577   1584   1597     1   108.0100461 406.684800
   1577   1584   1598     1   108.0100461 406.684800
   1578   1577   1602     1   110.1100470 384.091200
   1578   1580   1593     1   109.8000471 387.438400
   1578   1580   1594     1   109.8000471 387.438400
   1579   1577   1602     1   110.1100470 384.091200
   1579   1582   1595     1   109.8000471 387.438400
   1579   1582   1596     1   109.8000471 387.438400
   1580   1578   1589     1   110.5600475 386.601600
   1580   1578   1590     1   110.5600475 386.601600
   1581   1580   1593     1   108.7700466 392.459200
   1581   1580   1594     1   108.7700466 392.459200
   1581   3224   3239     1   117.5500507 404.174400
   1582   1579   1591     1   110.5600475 386.601600
   1582   1579   1592     1   110.5600475 386.601600
   1583   1582   1595     1   108.7700466 392.459200
   1583   1582   1596     1   108.7700466 392.459200
   1583   3250   3265     1   117.5500507 404.174400
   1584   1577   1602     1   110.1100470 384.091200
   1584   1585   1599     1   109.5600471 388.275200
   1584   1585   1600     1   109.5600471 388.275200
   1585   1584   1597     1   110.5600475 386.601600
   1585   1584   1598     1   110.5600475 386.601600
   1585   1586   1601     1   117.6800502 383.254400
   1586   1585   1599     1   108.8800464 416.726400
   1586   1585   1600     1   108.8800464 416.726400
   1589   1578   1590     1   109.7500473 328.025600
   1591   1579   1592     1   109.7500473 328.025600
   1593   1580   1594     1   107.5800459 329.699200
   1595   1582   1596     1   107.5800459 329.699200
   1597   1584   1598     1   109.7500473 328.025600
   1599   1585   1600     1   108.4600466 328.025600
   1603   1604   1615     1   108.0100461 406.684800
   1603   1604   1616     1   108.0100461 406.684800
   1603   1605   1617     1   108.0100461 406.684800
   1603   1605   1618     1   108.0100461 406.684800
   1603   1610   1623     1   108.0100461 406.684800
   1603   1610   1624     1   108.0100461 406.684800
   1604   1603   1628     1   110.1100470 384.091200
   1604   1606   1619     1   109.8000471 387.438400
   1604   1606   1620     1   109.8000471 387.438400
   1605   1603   1628     1   110.1100470 384.091200
   1605   1608   1621     1   109.8000471 387.438400
   1605   1608   1622     1   109.8000471 387.438400
   1606   1604   1615     1   110.5600475 386.601600
   1606   1604   1616     1   110.5600475 386.601600
   1607   1606   1619     1   108.7700466 392.459200
   1607   1606   1620     1   108.7700466 392.459200
   1607   3267   3268     1   117.5500507 404.174400
   1608   1605   1617     1   110.5600475 386.601600
   1608   1605   1618     1   110.5600475 386.601600
   1609   1608   1621     1   108.7700466 392.459200
   1609   1608   1622     1   108.7700466 392.459200
   1609   3279   3280     1   117.5500507 404.174400
   1610   1603   1628     1   110.1100470 384.091200
   1610   1611   1625     1   109.5600471 388.275200
   1610   1611   1626     1   109.5600471 388.275200
   1611   1610   1623     1   110.5600475 386.601600
   1611   1610   1624     1   110.5600475 386.601600
   1611   1612   1627     1   117.6800502 383.254400
   1612   1611   1625     1   108.8800464 416.726400
   1612   1611   1626     1   108.8800464 416.726400
   1615   1604   1616     1   109.7500473 328.025600
   1617   1605   1618     1   109.7500473 328.025600
   1619   1606   1620     1   107.5800459 329.699200
   1621   1608   1622     1   107.5800459 329.699200
   1623   1610   1624     1   109.7500473 328.025600
   1625   1611   1626     1   108.4600466 328.025600
   1629   1630   1641     1   108.0100461 406.684800
   1629   1630   1642     1   108.0100461 406.684800
   1629   1631   1643     1   108.0100461 406.684800
   1629   1631   1644     1   108.0100461 406.684800
   1629   1636   1649     1   108.0100461 406.684800
   1629   1636   1650     1   108.0100461 406.684800
   1630   1629   1654     1   110.1100470 384.091200
   1630   1632   1645     1   109.8000471 387.438400
   1630   1632   1646     1   109.8000471 387.438400
   1631   1629   1654     1   110.1100470 384.091200
   1631   1634   1647     1   109.8000471 387.438400
   1631   1634   1648     1   109.8000471 387.438400
   1632   1630   1641     1   110.5600475 386.601600
   1632   1630   1642     1   110.5600475 386.601600
   1633   1632   1645     1   108.7700466 392.459200
   1633   1632   1646     1   108.7700466 392.459200
   1633   3291   3292     1   117.5500507 404.174400
   1634   1631   1643     1   110.5600475 386.601600
   1634   1631   1644     1   110.5600475 386.601600
   1635   1634   1647     1   108.7700466 392.459200
   1635   1634   1648     1   108.7700466 392.459200
   1635   3303   3304     1   117.5500507 404.174400
   1636   1629   1654     1   110.1100470 384.091200
   1636   1637   1651     1   109.5600471 388.275200
   1636   1637   1652     1   109.5600471 388.275200
   1637   1636   1649     1   110.5600475 386.601600
   1637   1636   1650     1   110.5600475 386.601600
   1637   1638   1653     1   117.6800502 383.254400
   1638   1637   1651     1   108.8800464 416.726400
   1638   1637   1652     1   108.8800464 416.726400
   1641   1630   1642     1   109.7500473 328.025600
   1643   1631   1644     1   109.7500473 328.025600
   1645   1632   1646     1   107.5800459 329.699200
   1647   1634   1648     1   107.5800459 329.699200
   1649   1636   1650     1   109.7500473 328.025600
   1651   1637   1652     1   108.4600466 328.025600
   1655   1656   1667     1   108.0100461 406.684800
   1655   1656   1668     1   108.0100461 406.684800
   1655   1657   1669     1   108.0100461 406.684800
   1655   1657   1670     1   108.0100461 406.684800
   1655   1662   1675     1   108.0100461 406.684800
   1655   1662   1676     1   108.0100461 406.684800
   1656   1655   1680     1   110.1100470 384.091200
   1656   1658   1671     1   109.8000471 387.438400
   1656   1658   1672     1   109.8000471 387.438400
   1657   1655   1680     1   110.1100470 384.091200
   1657   1660   1673     1   109.8000471 387.438400
   1657   1660   1674     1   109.8000471 387.438400
   1658   1656   1667     1   110.5600475 386.601600
   1658   1656   1668     1   110.5600475 386.601600
   1659   1658   1671     1   108.7700466 392.459200
   1659   1658   1672     1   108.7700466 392.459200
   1659   3315   3316     1   117.5500507 404.174400
   1660   1657   1669     1   110.5600475 386.601600
   1660   1657   1670     1   110.5600475 386.601600
   1661   1660   1673     1   108.7700466 392.459200
   1661   1660   1674     1   108.7700466 392.459200
   1661   3327   3328     1   117.5500507 404.174400
   1662   1655   1680     1   110.1100470 384.091200
   1662   1663   1677     1   109.5600471 388.275200
   1662   1663   1678     1   109.5600471 388.275200
   1663   1662   1675     1   110.5600475 386.601600
   1663   1662   1676     1   110.5600475 386.601600
   1663   1664   1679     1   117.6800502 383.254400
   1664   1663   1677     1   108.8800464 416.726400
   1664   1663   1678     1   108.8800464 416.726400
   1667   1656   1668     1   109.7500473 328.025600
   1669   1657   1670     1   109.7500473 328.025600
   1671   1658   1672     1   107.5800459 329.699200
   1673   1660   1674     1   107.5800459 329.699200
   1675   1662   1676     1   109.7500473 328.025600
   1677   1663   1678     1   108.4600466 328.025600
   1681   1682   1693     1   108.0100461 406.684800
   1681   1682   1694     1   108.0100461 406.684800
   1681   1683   1695     1   108.0100461 406.684800
   1681   1683   1696     1   108.0100461 406.684800
   1681   1688   1701     1   108.0100461 406.684800
   1681   1688   1702     1   108.0100461 406.684800
   1682   1681   1706     1   110.1100470 384.091200
   1682   1684   1697     1   109.8000471 387.438400
   1682   1684   1698     1   109.8000471 387.438400
   1683   1681   1706     1   110.1100470 384.091200
   1683   1686   1699     1   109.8000471 387.438400
   1683   1686   1700     1   109.8000471 387.438400
   1684   1682   1693     1   110.5600475 386.601600
   1684   1682   1694     1   110.5600475 386.601600
   1685   1684   1697     1   108.7700466 392.459200
   1685   1684   1698     1   108.7700466 392.459200
   1685   3339   3340     1   117.5500507 404.174400
   1686   1683   1695     1   110.5600475 386.601600
   1686   1683   1696     1   110.5600475 386.601600
   1687   1686   1699     1   108.7700466 392.459200
   1687   1686   1700     1   108.7700466 392.459200
   1687   3351   3352     1   117.5500507 404.174400
   1688   1681   1706     1   110.1100470 384.091200
   1688   1689   1703     1   109.5600471 388.275200
   1688   1689   1704     1   109.5600471 388.275200
   1689   1688   1701     1   110.5600475 386.601600
   1689   1688   1702     1   110.5600475 386.601600
   1689   1690   1705     1   117.6800502 383.254400
   1690   1689   1703     1   108.8800464 416.726400
   1690   1689   1704     1   108.8800464 416.726400
   1693   1682   1694     1   109.7500473 328.025600
   1695   1683   1696     1   109.7500473 328.025600
   1697   1684   1698     1   107.5800459 329.699200
   1699   1686   1700     1   107.5800459 329.699200
   1701   1688   1702     1   109.7500473 328.025600
   1703   1689   1704     1   108.4600466 328.025600
   1707   1708   1719     1   108.0100461 406.684800
   1707   1708   1720     1   108.0100461 406.684800
   1707   1709   1721     1   108.0100461 406.684800
   1707   1709   1722     1   108.0100461 406.684800
   1707   1714   1727     1   108.0100461 406.684800
   1707   1714   1728     1   108.0100461 406.684800
   1708   1707   1732     1   110.1100470 384.091200
   1708   1710   1723     1   109.8000471 387.438400
   1708   1710   1724     1   109.8000471 387.438400
   1709   1707   1732     1   110.1100470 384.091200
   1709   1712   1725     1   109.8000471 387.438400
   1709   1712   1726     1   109.8000471 387.438400
   1710   1708   1719     1   110.5600475 386.601600
   1710   1708   1720     1   110.5600475 386.601600
   1711   1710   1723     1   108.7700466 392.459200
   1711   1710   1724     1   108.7700466 392.459200
   1711   3363   3364     1   117.5500507 404.174400
   1712   1709   1721     1   110.5600475 386.601600
   1712   1709   1722     1   110.5600475 386.601600
   1713   1712   1725     1   108.7700466 392.459200
   1713   1712   1726     1   108.7700466 392.459200
   1713   3375   3376     1   117.5500507 404.174400
   1714   1707   1732     1   110.1100470 384.091200
   1714   1715   1729     1   109.5600471 388.275200
   1714   1715   1730     1   109.5600471 388.275200
   1715   1714   1727     1   110.5600475 386.601600
   1715   1714   1728     1   110.5600475 386.601600
   1715   1716   1731     1   117.6800502 383.254400
   1716   1715   1729     1   108.8800464 416.726400
   1716   1715   1730     1   108.8800464 416.726400
   1719   1708   1720     1   109.7500473 328.025600
   1721   1709   1722     1   109.7500473 328.025600
   1723   1710   1724     1   107.5800459 329.699200
   1725   1712   1726     1   107.5800459 329.699200
   1727   1714   1728     1   109.7500473 328.025600
   1729   1715   1730     1   108.4600466 328.025600
   1733   1734   1745     1   108.0100461 406.684800
   1733   1734   1746     1   108.0100461 406.684800
   1733   1735   1747     1   108.0100461 406.684800
   1733   1735   1748     1   108.0100461 406.684800
   1733   1740   1753     1   108.0100461 406.684800
   1733   1740   1754     1   108.0100461 406.684800
   1734   1733   1758     1   110.1100470 384.091200
   1734   1736   1749     1   109.8000471 387.438400
   1734   1736   1750     1   109.8000471 387.438400
   1735   1733   1758     1   110.1100470 384.091200
   1735   1738   1751     1   109.8000471 387.438400
   1735   1738   1752     1   109.8000471 387.438400
   1736   1734   1745     1   110.5600475 386.601600
   1736   1734   1746     1   110.5600475 386.601600
   1737   1736   1749     1   108.7700466 392.459200
   1737   1736   1750     1   108.7700466 392.459200
   1737   3387   3388     1   117.5500507 404.174400
   1738   1735   1747     1   110.5600475 386.601600
   1738   1735   1748     1   110.5600475 386.601600
   1739   1738   1751     1   108.7700466 392.459200
   1739   1738   1752     1   108.7700466 392.459200
   1739   3399   3400     1   117.5500507 404.174400
   1740   1733   1758     1   110.1100470 384.091200
   1740   1741   1755     1   109.5600471 388.275200
   1740   1741   1756     1   109.5600471 388.275200
   1741   1740   1753     1   110.5600475 386.601600
   1741   1740   1754     1   110.5600475 386.601600
   1741   1742   1757     1   117.6800502 383.254400
   1742   1741   1755     1   108.8800464 416.726400
   1742   1741   1756     1   108.8800464 416.726400
   1745   1734   1746     1   109.7500473 328.025600
   1747   1735   1748     1   109.7500473 328.025600
   1749   1736   1750     1   107.5800459 329.699200
   1751   1738   1752     1   107.5800459 329.699200
   1753   1740   1754     1   109.7500473 328.025600
   1755   1741   1756     1   108.4600466 328.025600
   1759   1760   1771     1   108.0100461 406.684800
   1759   1760   1772     1   108.0100461 406.684800
   1759   1761   1773     1   108.0100461 406.684800
   1759   1761   1774     1   108.0100461 406.684800
   1759   1766   1779     1   108.0100461 406.684800
   1759   1766   1780     1   108.0100461 406.684800
   1760   1759   1784     1   110.1100470 384.091200
   1760   1762   1775     1   109.8000471 387.438400
   1760   1762   1776     1   109.8000471 387.438400
   1761   1759   1784     1   110.1100470 384.091200
   1761   1764   1777     1   109.8000471 387.438400
   1761   1764   1778     1   109.8000471 387.438400
   1762   1760   1771     1   110.5600475 386.601600
   1762   1760   1772     1   110.5600475 386.601600
   1763   1762   1775     1   108.7700466 392.459200
   1763   1762   1776     1   108.7700466 392.459200
   1763   3411   3412     1   117.5500507 404.174400
   1764   1761   1773     1   110.5600475 386.601600
   1764   1761   1774     1   110.5600475 386.601600
   1765   1764   1777     1   108.7700466 392.459200
   1765   1764   1778     1   108.7700466 392.459200
   1765   3423   3424     1   117.5500507 404.174400
   1766   1759   1784     1   110.1100470 384.091200
   1766   1767   1781     1   109.5600471 388.275200
   1766   1767   1782     1   109.5600471 388.275200
   1767   1766   1779     1   110.5600475 386.601600
   1767   1766   1780     1   110.5600475 386.601600
   1767   1768   1783     1   117.6800502 383.254400
   1768   1767   1781     1   108.8800464 416.726400
   1768   1767   1782     1   108.8800464 416.726400
   1771   1760   1772     1   109.7500473 328.025600
   1773   1761   1774     1   109.7500473 328.025600
   1775   1762   1776     1   107.5800459 329.699200
   1777   1764   1778     1   107.5800459 329.699200
   1779   1766   1780     1   109.7500473 328.025600
   1781   1767   1782     1   108.4600466 328.025600
   1785   1786   1797     1   108.0100461 406.684800
   1785   1786   1798     1   108.0100461 406.684800
   1785   1787   1799     1   108.0100461 406.684800
   1785   1787   1800     1   108.0100461 406.684800
   1785   1792   1805     1   108.0100461 406.684800
   1785   1792   1806     1   108.0100461 406.684800
   1786   1785   1810     1   110.1100470 384.091200
   1786   1788   1801     1   109.8000471 387.438400
   1786   1788   1802     1   109.8000471 387.438400
   1787   1785   1810     1   110.1100470 384.091200
   1787   1790   1803     1   109.8000471 387.438400
   1787   1790   1804     1   109.8000471 387.438400
   1788   1786   1797     1   110.5600475 386.601600
   1788   1786   1798     1   110.5600475 386.601600
   1789   1788   1801     1   108.7700466 392.459200
   1789   1788   1802     1   108.7700466 392.459200
   1789   3435   3436     1   117.5500507 404.174400
   1790   1787   1799     1   110.5600475 386.601600
   1790   1787   1800     1   110.5600475 386.601600
   1791   1790   1803     1   108.7700466 392.459200
   1791   1790   1804     1   108.7700466 392.459200
   1791   3447   3448     1   117.5500507 404.174400
   1792   1785   1810     1   110.1100470 384.091200
   1792   1793   1807     1   109.5600471 388.275200
   1792   1793   1808     1   109.5600471 388.275200
   1793   1792   1805     1   110.5600475 386.601600
   1793   1792   1806     1   110.5600475 386.601600
   1793   1794   1809     1   117.6800502 383.254400
   1794   1793   1807     1   108.8800464 416.726400
   1794   1793   1808     1   108.8800464 416.726400
   1797   1786   1798     1   109.7500473 328.025600
   1799   1787   1800     1   109.7500473 328.025600
   1801   1788   1802     1   107.5800459 329.699200
   1803   1790   1804     1   107.5800459 329.699200
   1805   1792   1806     1   109.7500473 328.025600
   1807   1793   1808     1   108.4600466 328.025600
   1811   1812   1823     1   108.0100461 406.684800
   1811   1812   1824     1   108.0100461 406.684800
   1811   1813   1825     1   108.0100461 406.684800
   1811   1813   1826     1   108.0100461 406.684800
   1811   1818   1831     1   108.0100461 406.684800
   1811   1818   1832     1   108.0100461 406.684800
   1812   1811   1836     1   110.1100470 384.091200
   1812   1814   1827     1   109.8000471 387.438400
   1812   1814   1828     1   109.8000471 387.438400
   1813   1811   1836     1   110.1100470 384.091200
   1813   1816   1829     1   109.8000471 387.438400
   1813   1816   1830     1   109.8000471 387.438400
   1814   1812   1823     1   110.5600475 386.601600
   1814   1812   1824     1   110.5600475 386.601600
   1815   1814   1827     1   108.7700466 392.459200
   1815   1814   1828     1   108.7700466 392.459200
   1815   3459   3460     1   117.5500507 404.174400
   1816   1813   1825     1   110.5600475 386.601600
   1816   1813   1826     1   110.5600475 386.601600
   1817   1816   1829     1   108.7700466 392.459200
   1817   1816   1830     1   108.7700466 392.459200
   1817   3471   3472     1   117.5500507 404.174400
   1818   1811   1836     1   110.1100470 384.091200
   1818   1819   1833     1   109.5600471 388.275200
   1818   1819   1834     1   109.5600471 388.275200
   1819   1818   1831     1   110.5600475 386.601600
   1819   1818   1832     1   110.5600475 386.601600
   1819   1820   1835     1   117.6800502 383.254400
   1820   1819   1833     1   108.8800464 416.726400
   1820   1819   1834     1   108.8800464 416.726400
   1823   1812   1824     1   109.7500473 328.025600
   1825   1813   1826     1   109.7500473 328.025600
   1827   1814   1828     1   107.5800459 329.699200
   1829   1816   1830     1   107.5800459 329.699200
   1831   1818   1832     1   109.7500473 328.025600
   1833   1819   1834     1   108.4600466 328.025600
   1837   1838   1849     1   108.0100461 406.684800
   1837   1838   1850     1   108.0100461 406.684800
   1837   1839   1851     1   108.0100461 406.684800
   1837   1839   1852     1   108.0100461 406.684800
   1837   1844   1857     1   108.0100461 406.684800
   1837   1844   1858     1   108.0100461 406.684800
   1838   1837   1862     1   110.1100470 384.091200
   1838   1840   1853     1   109.8000471 387.438400
   1838   1840   1854     1   109.8000471 387.438400
   1839   1837   1862     1   110.1100470 384.091200
   1839   1842   1855     1   109.8000471 387.438400
   1839   1842   1856     1   109.8000471 387.438400
   1840   1838   1849     1   110.5600475 386.601600
   1840   1838   1850     1   110.5600475 386.601600
   1841   1840   1853     1   108.7700466 392.459200
   1841   1840   1854     1   108.7700466 392.459200
   1841   3483   3484     1   117.5500507 404.174400
   1842   1839   1851     1   110.5600475 386.601600
   1842   1839   1852     1   110.5600475 386.601600
   1843   1842   1855     1   108.7700466 392.459200
   1843   1842   1856     1   108.7700466 392.459200
   1843   3495   3496     1   117.5500507 404.174400
   1844   1837   1862     1   110.1100470 384.091200
   1844   1845   1859     1   109.5600471 388.275200
   1844   1845   1860     1   109.5600471 388.275200
   1845   1844   1857     1   110.5600475 386.601600
   1845   1844   1858     1   110.5600475 386.601600
   1845   1846   1861     1   117.6800502 383.254400
   1846   1845   1859     1   108.8800464 416.726400
   1846   1845   1860     1   108.8800464 416.726400
   1849   1838   1850     1   109.7500473 328.025600
   1851   1839   1852     1   109.7500473 328.025600
   1853   1840   1854     1   107.5800459 329.699200
   1855   1842   1856     1   107.5800459 329.699200
   1857   1844   1858     1   109.7500473 328.025600
   1859   1845   1860     1   108.4600466 328.025600
   1863   1864   1875     1   108.0100461 406.684800
   1863   1864   1876     1   108.0100461 406.684800
   1863   1865   1877     1   108.0100461 406.684800
   1863   1865   1878     1   108.0100461 406.684800
   1863   1870   1883     1   108.0100461 406.684800
   1863   1870   1884     1   108.0100461 406.684800
   1864   1863   1888     1   110.1100470 384.091200
   1864   1866   1879     1   109.8000471 387.438400
   1864   1866   1880     1   109.8000471 387.438400
   1865   1863   1888     1   110.1100470 384.091200
   1865   1868   1881     1   109.8000471 387.438400
   1865   1868   1882     1   109.8000471 387.438400
   1866   1864   1875     1   110.5600475 386.601600
   1866   1864   1876     1   110.5600475 386.601600
   1867   1866   1879     1   108.7700466 392.459200
   1867   1866   1880     1   108.7700466 392.459200
   1867   3507   3508     1   117.5500507 404.174400
   1868   1865   1877     1   110.5600475 386.601600
   1868   1865   1878     1   110.5600475 386.601600
   1869   1868   1881     1   108.7700466 392.459200
   1869   1868   1882     1   108.7700466 392.459200
   1869   3519   3520     1   117.5500507 404.174400
   1870   1863   1888     1   110.1100470 384.091200
   1870   1871   1885     1   109.5600471 388.275200
   1870   1871   1886     1   109.5600471 388.275200
   1871   1870   1883     1   110.5600475 386.601600
   1871   1870   1884     1   110.5600475 386.601600
   1871   1872   1887     1   117.6800502 383.254400
   1872   1871   1885     1   108.8800464 416.726400
   1872   1871   1886     1   108.8800464 416.726400
   1875   1864   1876     1   109.7500473 328.025600
   1877   1865   1878     1   109.7500473 328.025600
   1879   1866   1880     1   107.5800459 329.699200
   1881   1868   1882     1   107.5800459 329.699200
   1883   1870   1884     1   109.7500473 328.025600
   1885   1871   1886     1   108.4600466 328.025600
   1889   1890   1901     1   108.0100461 406.684800
   1889   1890   1902     1   108.0100461 406.684800
   1889   1891   1903     1   108.0100461 406.684800
   1889   1891   1904     1   108.0100461 406.684800
   1889   1896   1909     1   108.0100461 406.684800
   1889   1896   1910     1   108.0100461 406.684800
   1890   1889   1914     1   110.1100470 384.091200
   1890   1892   1905     1   109.8000471 387.438400
   1890   1892   1906     1   109.8000471 387.438400
   1891   1889   1914     1   110.1100470 384.091200
   1891   1894   1907     1   109.8000471 387.438400
   1891   1894   1908     1   109.8000471 387.438400
   1892   1890   1901     1   110.5600475 386.601600
   1892   1890   1902     1   110.5600475 386.601600
   1893   1892   1905     1   108.7700466 392.459200
   1893   1892   1906     1   108.7700466 392.459200
   1893   3531   3532     1   117.5500507 404.174400
   1894   1891   1903     1   110.5600475 386.601600
   1894   1891   1904     1   110.5600475 386.601600
   1895   1894   1907     1   108.7700466 392.459200
   1895   1894   1908     1   108.7700466 392.459200
   1895   3543   3544     1   117.5500507 404.174400
   1896   1889   1914     1   110.1100470 384.091200
   1896   1897   1911     1   109.5600471 388.275200
   1896   1897   1912     1   109.5600471 388.275200
   1897   1896   1909     1   110.5600475 386.601600
   1897   1896   1910     1   110.5600475 386.601600
   1897   1898   1913     1   117.6800502 383.254400
   1898   1897   1911     1   108.8800464 416.726400
   1898   1897   1912     1   108.8800464 416.726400
   1901   1890   1902     1   109.7500473 328.025600
   1903   1891   1904     1   109.7500473 328.025600
   1905   1892   1906     1   107.5800459 329.699200
   1907   1894   1908     1   107.5800459 329.699200
   1909   1896   1910     1   109.7500473 328.025600
   1911   1897   1912     1   108.4600466 328.025600
   1915   1916   1927     1   108.0100461 406.684800
   1915   1916   1928     1   108.0100461 406.684800
   1915   1917   1929     1   108.0100461 406.684800
   1915   1917   1930     1   108.0100461 406.684800
   1915   1922   1935     1   108.0100461 406.684800
   1915   1922   1936     1   108.0100461 406.684800
   1916   1915   1940     1   110.1100470 384.091200
   1916   1918   1931     1   109.8000471 387.438400
   1916   1918   1932     1   109.8000471 387.438400
   1917   1915   1940     1   110.1100470 384.091200
   1917   1920   1933     1   109.8000471 387.438400
   1917   1920   1934     1   109.8000471 387.438400
   1918   1916   1927     1   110.5600475 386.601600
   1918   1916   1928     1   110.5600475 386.601600
   1919   1918   1931     1   108.7700466 392.459200
   1919   1918   1932     1   108.7700466 392.459200
   1919   3555   3556     1   117.5500507 404.174400
   1920   1917   1929     1   110.5600475 386.601600
   1920   1917   1930     1   110.5600475 386.601600
   1921   1920   1933     1   108.7700466 392.459200
   1921   1920   1934     1   108.7700466 392.459200
   1921   3567   3568     1   117.5500507 404.174400
   1922   1915   1940     1   110.1100470 384.091200
   1922   1923   1937     1   109.5600471 388.275200
   1922   1923   1938     1   109.5600471 388.275200
   1923   1922   1935     1   110.5600475 386.601600
   1923   1922   1936     1   110.5600475 386.601600
   1923   1924   1939     1   117.6800502 383.254400
   1924   1923   1937     1   108.8800464 416.726400
   1924   1923   1938     1   108.8800464 416.726400
   1927   1916   1928     1   109.7500473 328.025600
   1929   1917   1930     1   109.7500473 328.025600
   1931   1918   1932     1   107.5800459 329.699200
   1933   1920   1934     1   107.5800459 329.699200
   1935   1922   1936     1   109.7500473 328.025600
   1937   1923   1938     1   108.4600466 328.025600
   1941   1942   1953     1   108.0100461 406.684800
   1941   1942   1954     1   108.0100461 406.684800
   1941   1943   1955     1   108.0100461 406.684800
   1941   1943   1956     1   108.0100461 406.684800
   1941   1948   1961     1   108.0100461 406.684800
   1941   1948   1962     1   108.0100461 406.684800
   1942   1941   1966     1   110.1100470 384.091200
   1942   1944   1957     1   109.8000471 387.438400
   1942   1944   1958     1   109.8000471 387.438400
   1943   1941   1966     1   110.1100470 384.091200
   1943   1946   1959     1   109.8000471 387.438400
   1943   1946   1960     1   109.8000471 387.438400
   1944   1942   1953     1   110.5600475 386.601600
   1944   1942   1954     1   110.5600475 386.601600
   1945   1944   1957     1   108.7700466 392.459200
   1945   1944   1958     1   108.7700466 392.459200
   1945   3579   3580     1   117.5500507 404.174400
   1946   1943   1955     1   110.5600475 386.601600
   1946   1943   1956     1   110.5600475 386.601600
   1947   1946   1959     1   108.7700466 392.459200
   1947   1946   1960     1   108.7700466 392.459200
   1947   3591   3592     1   117.5500507 404.174400
   1948   1941   1966     1   110.1100470 384.091200
   1948   1949   1963     1   109.5600471 388.275200
   1948   1949   1964     1   109.5600471 388.275200
   1949   1948   1961     1   110.5600475 386.601600
   1949   1948   1962     1   110.5600475 386.601600
   1949   1950   1965     1   117.6800502 383.254400
   1950   1949   1963     1   108.8800464 416.726400
   1950   1949   1964     1   108.8800464 416.726400
   1953   1942   1954     1   109.7500473 328.025600
   1955   1943   1956     1   109.7500473 328.025600
   1957   1944   1958     1   107.5800459 329.699200
   1959   1946   1960     1   107.5800459 329.699200
   1961   1948   1962     1   109.7500473 328.025600
   1963   1949   1964     1   108.4600466 328.025600
   1967   1968   1979     1   108.0100461 406.684800
   1967   1968   1980     1   108.0100461 406.684800
   1967   1969   1981     1   108.0100461 406.684800
   1967   1969   1982     1   108.0100461 406.684800
   1967   1974   1987     1   108.0100461 406.684800
   1967   1974   1988     1   108.0100461 406.684800
   1968   1967   1992     1   110.1100470 384.091200
   1968   1970   1983     1   109.8000471 387.438400
   1968   1970   1984     1   109.8000471 387.438400
   1969   1967   1992     1   110.1100470 384.091200
   1969   1972   1985     1   109.8000471 387.438400
   1969   1972   1986     1   109.8000471 387.438400
   1970   1968   1979     1   110.5600475 386.601600
   1970   1968   1980     1   110.5600475 386.601600
   1971   1970   1983     1   108.7700466 392.459200
   1971   1970   1984     1   108.7700466 392.459200
   1971   3603   3604     1   117.5500507 404.174400
   1972   1969   1981     1   110.5600475 386.601600
   1972   1969   1982     1   110.5600475 386.601600
   1973   1972   1985     1   108.7700466 392.459200
   1973   1972   1986     1   108.7700466 392.459200
   1973   3615   3616     1   117.5500507 404.174400
   1974   1967   1992     1   110.1100470 384.091200
   1974   1975   1989     1   109.5600471 388.275200
   1974   1975   1990     1   109.5600471 388.275200
   1975   1974   1987     1   110.5600475 386.601600
   1975   1974   1988     1   110.5600475 386.601600
   1975   1976   1991     1   117.6800502 383.254400
   1976   1975   1989     1   108.8800464 416.726400
   1976   1975   1990     1   108.8800464 416.726400
   1979   1968   1980     1   109.7500473 328.025600
   1981   1969   1982     1   109.7500473 328.025600
   1983   1970   1984     1   107.5800459 329.699200
   1985   1972   1986     1   107.5800459 329.699200
   1987   1974   1988     1   109.7500473 328.025600
   1989   1975   1990     1   108.4600466 328.025600
   1993   1994   2005     1   108.0100461 406.684800
   1993   1994   2006     1   108.0100461 406.684800
   1993   1995   2007     1   108.0100461 406.684800
   1993   1995   2008     1   108.0100461 406.684800
   1993   2000   2013     1   108.0100461 406.684800
   1993   2000   2014     1   108.0100461 406.684800
   1994   1993   2018     1   110.1100470 384.091200
   1994   1996   2009     1   109.8000471 387.438400
   1994   1996   2010     1   109.8000471 387.438400
   1995   1993   2018     1   110.1100470 384.091200
   1995   1998   2011     1   109.8000471 387.438400
   1995   1998   2012     1   109.8000471 387.438400
   1996   1994   2005     1   110.5600475 386.601600
   1996   1994   2006     1   110.5600475 386.601600
   1997   1996   2009     1   108.7700466 392.459200
   1997   1996   2010     1   108.7700466 392.459200
   1997   3627   3628     1   117.5500507 404.174400
   1998   1995   2007     1   110.5600475 386.601600
   1998   1995   2008     1   110.5600475 386.601600
   1999   1998   2011     1   108.7700466 392.459200
   1999   1998   2012     1   108.7700466 392.459200
   1999   3639   3640     1   117.5500507 404.174400
   2000   1993   2018     1   110.1100470 384.091200
   2000   2001   2015     1   109.5600471 388.275200
   2000   2001   2016     1   109.5600471 388.275200
   2001   2000   2013     1   110.5600475 386.601600
   2001   2000   2014     1   110.5600475 386.601600
   2001   2002   2017     1   117.6800502 383.254400
   2002   2001   2015     1   108.8800464 416.726400
   2002   2001   2016     1   108.8800464 416.726400
   2005   1994   2006     1   109.7500473 328.025600
   2007   1995   2008     1   109.7500473 328.025600
   2009   1996   2010     1   107.5800459 329.699200
   2011   1998   2012     1   107.5800459 329.699200
   2013   2000   2014     1   109.7500473 328.025600
   2015   2001   2016     1   108.4600466 328.025600
   2019   2020   2031     1   108.0100461 406.684800
   2019   2020   2032     1   108.0100461 406.684800
   2019   2021   2033     1   108.0100461 406.684800
   2019   2021   2034     1   108.0100461 406.684800
   2019   2026   2039     1   108.0100461 406.684800
   2019   2026   2040     1   108.0100461 406.684800
   2020   2019   2044     1   110.1100470 384.091200
   2020   2022   2035     1   109.8000471 387.438400
   2020   2022   2036     1   109.8000471 387.438400
   2021   2019   2044     1   110.1100470 384.091200
   2021   2024   2037     1   109.8000471 387.438400
   2021   2024   2038     1   109.8000471 387.438400
   2022   2020   2031     1   110.5600475 386.601600
   2022   2020   2032     1   110.5600475 386.601600
   2023   2022   2035     1   108.7700466 392.459200
   2023   2022   2036     1   108.7700466 392.459200
   2023   3651   3652     1   117.5500507 404.174400
   2024   2021   2033     1   110.5600475 386.601600
   2024   2021   2034     1   110.5600475 386.601600
   2025   2024   2037     1   108.7700466 392.459200
   2025   2024   2038     1   108.7700466 392.459200
   2025   3663   3664     1   117.5500507 404.174400
   2026   2019   2044     1   110.1100470 384.091200
   2026   2027   2041     1   109.5600471 388.275200
   2026   2027   2042     1   109.5600471 388.275200
   2027   2026   2039     1   110.5600475 386.601600
   2027   2026   2040     1   110.5600475 386.601600
   2027   2028   2043     1   117.6800502 383.254400
   2028   2027   2041     1   108.8800464 416.726400
   2028   2027   2042     1   108.8800464 416.726400
   2031   2020   2032     1   109.7500473 328.025600
   2033   2021   2034     1   109.7500473 328.025600
   2035   2022   2036     1   107.5800459 329.699200
   2037   2024   2038     1   107.5800459 329.699200
   2039   2026   2040     1   109.7500473 328.025600
   2041   2027   2042     1   108.4600466 328.025600
   2045   2046   2057     1   108.0100461 406.684800
   2045   2046   2058     1   108.0100461 406.684800
   2045   2047   2059     1   108.0100461 406.684800
   2045   2047   2060     1   108.0100461 406.684800
   2045   2052   2065     1   108.0100461 406.684800
   2045   2052   2066     1   108.0100461 406.684800
   2046   2045   2070     1   110.1100470 384.091200
   2046   2048   2061     1   109.8000471 387.438400
   2046   2048   2062     1   109.8000471 387.438400
   2047   2045   2070     1   110.1100470 384.091200
   2047   2050   2063     1   109.8000471 387.438400
   2047   2050   2064     1   109.8000471 387.438400
   2048   2046   2057     1   110.5600475 386.601600
   2048   2046   2058     1   110.5600475 386.601600
   2049   2048   2061     1   108.7700466 392.459200
   2049   2048   2062     1   108.7700466 392.459200
   2049   3675   3676     1   117.5500507 404.174400
   2050   2047   2059     1   110.5600475 386.601600
   2050   2047   2060     1   110.5600475 386.601600
   2051   2050   2063     1   108.7700466 392.459200
   2051   2050   2064     1   108.7700466 392.459200
   2051   3687   3688     1   117.5500507 404.174400
   2052   2045   2070     1   110.1100470 384.091200
   2052   2053   2067     1   109.5600471 388.275200
   2052   2053   2068     1   109.5600471 388.275200
   2053   2052   2065     1   110.5600475 386.601600
   2053   2052   2066     1   110.5600475 386.601600
   2053   2054   2069     1   117.6800502 383.254400
   2054   2053   2067     1   108.8800464 416.726400
   2054   2053   2068     1   108.8800464 416.726400
   2057   2046   2058     1   109.7500473 328.025600
   2059   2047   2060     1   109.7500473 328.025600
   2061   2048   2062     1   107.5800459 329.699200
   2063   2050   2064     1   107.5800459 329.699200
   2065   2052   2066     1   109.7500473 328.025600
   2067   2053   2068     1   108.4600466 328.025600
   2071   2072   2083     1   108.0100461 406.684800
   2071   2072   2084     1   108.0100461 406.684800
   2071   2073   2085     1   108.0100461 406.684800
   2071   2073   2086     1   108.0100461 406.684800
   2071   2078   2091     1   108.0100461 406.684800
   2071   2078   2092     1   108.0100461 406.684800
   2072   2071   2096     1   110.1100470 384.091200
   2072   2074   2087     1   109.8000471 387.438400
   2072   2074   2088     1   109.8000471 387.438400
   2073   2071   2096     1   110.1100470 384.091200
   2073   2076   2089     1   109.8000471 387.438400
   2073   2076   2090     1   109.8000471 387.438400
   2074   2072   2083     1   110.5600475 386.601600
   2074   2072   2084     1   110.5600475 386.601600
   2075   2074   2087     1   108.7700466 392.459200
   2075   2074   2088     1   108.7700466 392.459200
   2075   3699   3700     1   117.5500507 404.174400
   2076   2073   2085     1   110.5600475 386.601600
   2076   2073   2086     1   110.5600475 386.601600
   2077   2076   2089     1   108.7700466 392.459200
   2077   2076   2090     1   108.7700466 392.459200
   2077   3711   3712     1   117.5500507 404.174400
   2078   2071   2096     1   110.1100470 384.091200
   2078   2079   2093     1   109.5600471 388.275200
   2078   2079   2094     1   109.5600471 388.275200
   2079   2078   2091     1   110.5600475 386.601600
   2079   2078   2092     1   110.5600475 386.601600
   2079   2080   2095     1   117.6800502 383.254400
   2080   2079   2093     1   108.8800464 416.726400
   2080   2079   2094     1   108.8800464 416.726400
   2083   2072   2084     1   109.7500473 328.025600
   2085   2073   2086     1   109.7500473 328.025600
   2087   2074   2088     1   107.5800459 329.699200
   2089   2076   2090     1   107.5800459 329.699200
   2091   2078   2092     1   109.7500473 328.025600
   2093   2079   2094     1   108.4600466 328.025600
   2097   2098   2109     1   108.0100461 406.684800
   2097   2098   2110     1   108.0100461 406.684800
   2097   2099   2111     1   108.0100461 406.684800
   2097   2099   2112     1   108.0100461 406.684800
   2097   2104   2117     1   108.0100461 406.684800
   2097   2104   2118     1   108.0100461 406.684800
   2098   2097   2122     1   110.1100470 384.091200
   2098   2100   2113     1   109.8000471 387.438400
   2098   2100   2114     1   109.8000471 387.438400
   2099   2097   2122     1   110.1100470 384.091200
   2099   2102   2115     1   109.8000471 387.438400
   2099   2102   2116     1   109.8000471 387.438400
   2100   2098   2109     1   110.5600475 386.601600
   2100   2098   2110     1   110.5600475 386.601600
   2101   2100   2113     1   108.7700466 392.459200
   2101   2100   2114     1   108.7700466 392.459200
   2101   3723   3724     1   117.5500507 404.174400
   2102   2099   2111     1   110.5600475 386.601600
   2102   2099   2112     1   110.5600475 386.601600
   2103   2102   2115     1   108.7700466 392.459200
   2103   2102   2116     1   108.7700466 392.459200
   2103   3735   3736     1   117.5500507 404.174400
   2104   2097   2122     1   110.1100470 384.091200
   2104   2105   2119     1   109.5600471 388.275200
   2104   2105   2120     1   109.5600471 388.275200
   2105   2104   2117     1   110.5600475 386.601600
   2105   2104   2118     1   110.5600475 386.601600
   2105   2106   2121     1   117.6800502 383.254400
   2106   2105   2119     1   108.8800464 416.726400
   2106   2105   2120     1   108.8800464 416.726400
   2109   2098   2110     1   109.7500473 328.025600
   2111   2099   2112     1   109.7500473 328.025600
   2113   2100   2114     1   107.5800459 329.699200
   2115   2102   2116     1   107.5800459 329.699200
   2117   2104   2118     1   109.7500473 328.025600
   2119   2105   2120     1   108.4600466 328.025600
   2123   2124   2135     1   108.0100461 406.684800
   2123   2124   2136     1   108.0100461 406.684800
   2123   2125   2137     1   108.0100461 406.684800
   2123   2125   2138     1   108.0100461 406.684800
   2123   2130   2143     1   108.0100461 406.684800
   2123   2130   2144     1   108.0100461 406.684800
   2124   2123   2148     1   110.1100470 384.091200
   2124   2126   2139     1   109.8000471 387.438400
   2124   2126   2140     1   109.8000471 387.438400
   2125   2123   2148     1   110.1100470 384.091200
   2125   2128   2141     1   109.8000471 387.438400
   2125   2128   2142     1   109.8000471 387.438400
   2126   2124   2135     1   110.5600475 386.601600
   2126   2124   2136     1   110.5600475 386.601600
   2127   2126   2139     1   108.7700466 392.459200
   2127   2126   2140     1   108.7700466 392.459200
   2127   3747   3748     1   117.5500507 404.174400
   2128   2125   2137     1   110.5600475 386.601600
   2128   2125   2138     1   110.5600475 386.601600
   2129   2128   2141     1   108.7700466 392.459200
   2129   2128   2142     1   108.7700466 392.459200
   2129   3759   3760     1   117.5500507 404.174400
   2130   2123   2148     1   110.1100470 384.091200
   2130   2131   2145     1   109.5600471 388.275200
   2130   2131   2146     1   109.5600471 388.275200
   2131   2130   2143     1   110.5600475 386.601600
   2131   2130   2144     1   110.5600475 386.601600
   2131   2132   2147     1   117.6800502 383.254400
   2132   2131   2145     1   108.8800464 416.726400
   2132   2131   2146     1   108.8800464 416.726400
   2135   2124   2136     1   109.7500473 328.025600
   2137   2125   2138     1   109.7500473 328.025600
   2139   2126   2140     1   107.5800459 329.699200
   2141   2128   2142     1   107.5800459 329.699200
   2143   2130   2144     1   109.7500473 328.025600
   2145   2131   2146     1   108.4600466 328.025600
   2149   2150   2161     1   108.0100461 406.684800
   2149   2150   2162     1   108.0100461 406.684800
   2149   2151   2163     1   108.0100461 406.684800
   2149   2151   2164     1   108.0100461 406.684800
   2149   2156   2169     1   108.0100461 406.684800
   2149   2156   2170     1   108.0100461 406.684800
   2150   2149   2174     1   110.1100470 384.091200
   2150   2152   2165     1   109.8000471 387.438400
   2150   2152   2166     1   109.8000471 387.438400
   2151   2149   2174     1   110.1100470 384.091200
   2151   2154   2167     1   109.8000471 387.438400
   2151   2154   2168     1   109.8000471 387.438400
   2152   2150   2161     1   110.5600475 386.601600
   2152   2150   2162     1   110.5600475 386.601600
   2153   2152   2165     1   108.7700466 392.459200
   2153   2152   2166     1   108.7700466 392.459200
   2153   3771   3772     1   117.5500507 404.174400
   2154   2151   2163     1   110.5600475 386.601600
   2154   2151   2164     1   110.5600475 386.601600
   2155   2154   2167     1   108.7700466 392.459200
   2155   2154   2168     1   108.7700466 392.459200
   2155   3783   3784     1   117.5500507 404.174400
   2156   2149   2174     1   110.1100470 384.091200
   2156   2157   2171     1   109.5600471 388.275200
   2156   2157   2172     1   109.5600471 388.275200
   2157   2156   2169     1   110.5600475 386.601600
   2157   2156   2170     1   110.5600475 386.601600
   2157   2158   2173     1   117.6800502 383.254400
   2158   2157   2171     1   108.8800464 416.726400
   2158   2157   2172     1   108.8800464 416.726400
   2161   2150   2162     1   109.7500473 328.025600
   2163   2151   2164     1   109.7500473 328.025600
   2165   2152   2166     1   107.5800459 329.699200
   2167   2154   2168     1   107.5800459 329.699200
   2169   2156   2170     1   109.7500473 328.025600
   2171   2157   2172     1   108.4600466 328.025600
   2175   2176   2187     1   108.0100461 406.684800
   2175   2176   2188     1   108.0100461 406.684800
   2175   2177   2189     1   108.0100461 406.684800
   2175   2177   2190     1   108.0100461 406.684800
   2175   2182   2195     1   108.0100461 406.684800
   2175   2182   2196     1   108.0100461 406.684800
   2176   2175   2200     1   110.1100470 384.091200
   2176   2178   2191     1   109.8000471 387.438400
   2176   2178   2192     1   109.8000471 387.438400
   2177   2175   2200     1   110.1100470 384.091200
   2177   2180   2193     1   109.8000471 387.438400
   2177   2180   2194     1   109.8000471 387.438400
   2178   2176   2187     1   110.5600475 386.601600
   2178   2176   2188     1   110.5600475 386.601600
   2179   2178   2191     1   108.7700466 392.459200
   2179   2178   2192     1   108.7700466 392.459200
   2179   3795   3796     1   117.5500507 404.174400
   2180   2177   2189     1   110.5600475 386.601600
   2180   2177   2190     1   110.5600475 386.601600
   2181   2180   2193     1   108.7700466 392.459200
   2181   2180   2194     1   108.7700466 392.459200
   2181   3807   3808     1   117.5500507 404.174400
   2182   2175   2200     1   110.1100470 384.091200
   2182   2183   2197     1   109.5600471 388.275200
   2182   2183   2198     1   109.5600471 388.275200
   2183   2182   2195     1   110.5600475 386.601600
   2183   2182   2196     1   110.5600475 386.601600
   2183   2184   2199     1   117.6800502 383.254400
   2184   2183   2197     1   108.8800464 416.726400
   2184   2183   2198     1   108.8800464 416.726400
   2187   2176   2188     1   109.7500473 328.025600
   2189   2177   2190     1   109.7500473 328.025600
   2191   2178   2192     1   107.5800459 329.699200
   2193   2180   2194     1   107.5800459 329.699200
   2195   2182   2196     1   109.7500473 328.025600
   2197   2183   2198     1   108.4600466 328.025600
   2201   2202   2213     1   108.0100461 406.684800
   2201   2202   2214     1   108.0100461 406.684800
   2201   2203   2215     1   108.0100461 406.684800
   2201   2203   2216     1   108.0100461 406.684800
   2201   2208   2221     1   108.0100461 406.684800
   2201   2208   2222     1   108.0100461 406.684800
   2202   2201   2226     1   110.1100470 384.091200
   2202   2204   2217     1   109.8000471 387.438400
   2202   2204   2218     1   109.8000471 387.438400
   2203   2201   2226     1   110.1100470 384.091200
   2203   2206   2219     1   109.8000471 387.438400
   2203   2206   2220     1   109.8000471 387.438400
   2204   2202   2213     1   110.5600475 386.601600
   2204   2202   2214     1   110.5600475 386.601600
   2205   2204   2217     1   108.7700466 392.459200
   2205   2204   2218     1   108.7700466 392.459200
   2205   3819   3820     1   117.5500507 404.174400
   2206   2203   2215     1   110.5600475 386.601600
   2206   2203   2216     1   110.5600475 386.601600
   2207   2206   2219     1   108.7700466 392.459200
   2207   2206   2220     1   108.7700466 392.459200
   2207   3831   3832     1   117.5500507 404.174400
   2208   2201   2226     1   110.1100470 384.091200
   2208   2209   2223     1   109.5600471 388.275200
   2208   2209   2224     1   109.5600471 388.275200
   2209   2208   2221     1   110.5600475 386.601600
   2209   2208   2222     1   110.5600475 386.601600
   2209   2210   2225     1   117.6800502 383.254400
   2210   2209   2223     1   108.8800464 416.726400
   2210   2209   2224     1   108.8800464 416.726400
   2213   2202   2214     1   109.7500473 328.025600
   2215   2203   2216     1   109.7500473 328.025600
   2217   2204   2218     1   107.5800459 329.699200
   2219   2206   2220     1   107.5800459 329.699200
   2221   2208   2222     1   109.7500473 328.025600
   2223   2209   2224     1   108.4600466 328.025600
   2227   2228   2239     1   108.0100461 406.684800
   2227   2228   2240     1   108.0100461 406.684800
   2227   2229   2241     1   108.0100461 406.684800
   2227   2229   2242     1   108.0100461 406.684800
   2227   2234   2247     1   108.0100461 406.684800
   2227   2234   2248     1   108.0100461 406.684800
   2228   2227   2252     1   110.1100470 384.091200
   2228   2230   2243     1   109.8000471 387.438400
   2228   2230   2244     1   109.8000471 387.438400
   2229   2227   2252     1   110.1100470 384.091200
   2229   2232   2245     1   109.8000471 387.438400
   2229   2232   2246     1   109.8000471 387.438400
   2230   2228   2239     1   110.5600475 386.601600
   2230   2228   2240     1   110.5600475 386.601600
   2231   2230   2243     1   108.7700466 392.459200
   2231   2230   2244     1   108.7700466 392.459200
   2231   3843   3844     1   117.5500507 404.174400
   2232   2229   2241     1   110.5600475 386.601600
   2232   2229   2242     1   110.5600475 386.601600
   2233   2232   2245     1   108.7700466 392.459200
   2233   2232   2246     1   108.7700466 392.459200
   2233   3855   3856     1   117.5500507 404.174400
   2234   2227   2252     1   110.1100470 384.091200
   2234   2235   2249     1   109.5600471 388.275200
   2234   2235   2250     1   109.5600471 388.275200
   2235   2234   2247     1   110.5600475 386.601600
   2235   2234   2248     1   110.5600475 386.601600
   2235   2236   2251     1   117.6800502 383.254400
   2236   2235   2249     1   108.8800464 416.726400
   2236   2235   2250     1   108.8800464 416.726400
   2239   2228   2240     1   109.7500473 328.025600
   2241   2229   2242     1   109.7500473 328.025600
   2243   2230   2244     1   107.5800459 329.699200
   2245   2232   2246     1   107.5800459 329.699200
   2247   2234   2248     1   109.7500473 328.025600
   2249   2235   2250     1   108.4600466 328.025600
   2253   2254   2265     1   108.0100461 406.684800
   2253   2254   2266     1   108.0100461 406.684800
   2253   2255   2267     1   108.0100461 406.684800
   2253   2255   2268     1   108.0100461 406.684800
   2253   2260   2273     1   108.0100461 406.684800
   2253   2260   2274     1   108.0100461 406.684800
   2254   2253   2278     1   110.1100470 384.091200
   2254   2256   2269     1   109.8000471 387.438400
   2254   2256   2270     1   109.8000471 387.438400
   2255   2253   2278     1   110.1100470 384.091200
   2255   2258   2271     1   109.8000471 387.438400
   2255   2258   2272     1   109.8000471 387.438400
   2256   2254   2265     1   110.5600475 386.601600
   2256   2254   2266     1   110.5600475 386.601600
   2257   2256   2269     1   108.7700466 392.459200
   2257   2256   2270     1   108.7700466 392.459200
   2257   3867   3868     1   117.5500507 404.174400
   2258   2255   2267     1   110.5600475 386.601600
   2258   2255   2268     1   110.5600475 386.601600
   2259   2258   2271     1   108.7700466 392.459200
   2259   2258   2272     1   108.7700466 392.459200
   2259   3879   3880     1   117.5500507 404.174400
   2260   2253   2278     1   110.1100470 384.091200
   2260   2261   2275     1   109.5600471 388.275200
   2260   2261   2276     1   109.5600471 388.275200
   2261   2260   2273     1   110.5600475 386.601600
   2261   2260   2274     1   110.5600475 386.601600
   2261   2262   2277     1   117.6800502 383.254400
   2262   2261   2275     1   108.8800464 416.726400
   2262   2261   2276     1   108.8800464 416.726400
   2265   2254   2266     1   109.7500473 328.025600
   2267   2255   2268     1   109.7500473 328.025600
   2269   2256   2270     1   107.5800459 329.699200
   2271   2258   2272     1   107.5800459 329.699200
   2273   2260   2274     1   109.7500473 328.025600
   2275   2261   2276     1   108.4600466 328.025600
   2279   2280   2291     1   108.0100461 406.684800
   2279   2280   2292     1   108.0100461 406.684800
   2279   2281   2293     1   108.0100461 406.684800
   2279   2281   2294     1   108.0100461 406.684800
   2279   2286   2299     1   108.0100461 406.684800
   2279   2286   2300     1   108.0100461 406.684800
   2280   2279   2304     1   110.1100470 384.091200
   2280   2282   2295     1   109.8000471 387.438400
   2280   2282   2296     1   109.8000471 387.438400
   2281   2279   2304     1   110.1100470 384.091200
   2281   2284   2297     1   109.8000471 387.438400
   2281   2284   2298     1   109.8000471 387.438400
   2282   2280   2291     1   110.5600475 386.601600
   2282   2280   2292     1   110.5600475 386.601600
   2283   2282   2295     1   108.7700466 392.459200
   2283   2282   2296     1   108.7700466 392.459200
   2283   3891   3892     1   117.5500507 404.174400
   2284   2281   2293     1   110.5600475 386.601600
   2284   2281   2294     1   110.5600475 386.601600
   2285   2284   2297     1   108.7700466 392.459200
   2285   2284   2298     1   108.7700466 392.459200
   2285   3903   3904     1   117.5500507 404.174400
   2286   2279   2304     1   110.1100470 384.091200
   2286   2287   2301     1   109.5600471 388.275200
   2286   2287   2302     1   109.5600471 388.275200
   2287   2286   2299     1   110.5600475 386.601600
   2287   2286   2300     1   110.5600475 386.601600
   2287   2288   2303     1   117.6800502 383.254400
   2288   2287   2301     1   108.8800464 416.726400
   2288   2287   2302     1   108.8800464 416.726400
   2291   2280   2292     1   109.7500473 328.025600
   2293   2281   2294     1   109.7500473 328.025600
   2295   2282   2296     1   107.5800459 329.699200
   2297   2284   2298     1   107.5800459 329.699200
   2299   2286   2300     1   109.7500473 328.025600
   2301   2287   2302     1   108.4600466 328.025600
   2305   2306   2317     1   108.0100461 406.684800
   2305   2306   2318     1   108.0100461 406.684800
   2305   2307   2319     1   108.0100461 406.684800
   2305   2307   2320     1   108.0100461 406.684800
   2305   2312   2325     1   108.0100461 406.684800
   2305   2312   2326     1   108.0100461 406.684800
   2306   2305   2330     1   110.1100470 384.091200
   2306   2308   2321     1   109.8000471 387.438400
   2306   2308   2322     1   109.8000471 387.438400
   2307   2305   2330     1   110.1100470 384.091200
   2307   2310   2323     1   109.8000471 387.438400
   2307   2310   2324     1   109.8000471 387.438400
   2308   2306   2317     1   110.5600475 386.601600
   2308   2306   2318     1   110.5600475 386.601600
   2309   2308   2321     1   108.7700466 392.459200
   2309   2308   2322     1   108.7700466 392.459200
   2309   3915   3916     1   117.5500507 404.174400
   2310   2307   2319     1   110.5600475 386.601600
   2310   2307   2320     1   110.5600475 386.601600
   2311   2310   2323     1   108.7700466 392.459200
   2311   2310   2324     1   108.7700466 392.459200
   2311   3927   3928     1   117.5500507 404.174400
   2312   2305   2330     1   110.1100470 384.091200
   2312   2313   2327     1   109.5600471 388.275200
   2312   2313   2328     1   109.5600471 388.275200
   2313   2312   2325     1   110.5600475 386.601600
   2313   2312   2326     1   110.5600475 386.601600
   2313   2314   2329     1   117.6800502 383.254400
   2314   2313   2327     1   108.8800464 416.726400
   2314   2313   2328     1   108.8800464 416.726400
   2317   2306   2318     1   109.7500473 328.025600
   2319   2307   2320     1   109.7500473 328.025600
   2321   2308   2322     1   107.5800459 329.699200
   2323   2310   2324     1   107.5800459 329.699200
   2325   2312   2326     1   109.7500473 328.025600
   2327   2313   2328     1   108.4600466 328.025600
   2331   2332   2343     1   108.0100461 406.684800
   2331   2332   2344     1   108.0100461 406.684800
   2331   2333   2345     1   108.0100461 406.684800
   2331   2333   2346     1   108.0100461 406.684800
   2331   2338   2351     1   108.0100461 406.684800
   2331   2338   2352     1   108.0100461 406.684800
   2332   2331   2356     1   110.1100470 384.091200
   2332   2334   2347     1   109.8000471 387.438400
   2332   2334   2348     1   109.8000471 387.438400
   2333   2331   2356     1   110.1100470 384.091200
   2333   2336   2349     1   109.8000471 387.438400
   2333   2336   2350     1   109.8000471 387.438400
   2334   2332   2343     1   110.5600475 386.601600
   2334   2332   2344     1   110.5600475 386.601600
   2335   2334   2347     1   108.7700466 392.459200
   2335   2334   2348     1   108.7700466 392.459200
   2335   3939   3940     1   117.5500507 404.174400
   2336   2333   2345     1   110.5600475 386.601600
   2336   2333   2346     1   110.5600475 386.601600
   2337   2336   2349     1   108.7700466 392.459200
   2337   2336   2350     1   108.7700466 392.459200
   2337   3951   3952     1   117.5500507 404.174400
   2338   2331   2356     1   110.1100470 384.091200
   2338   2339   2353     1   109.5600471 388.275200
   2338   2339   2354     1   109.5600471 388.275200
   2339   2338   2351     1   110.5600475 386.601600
   2339   2338   2352     1   110.5600475 386.601600
   2339   2340   2355     1   117.6800502 383.254400
   2340   2339   2353     1   108.8800464 416.726400
   2340   2339   2354     1   108.8800464 416.726400
   2343   2332   2344     1   109.7500473 328.025600
   2345   2333   2346     1   109.7500473 328.025600
   2347   2334   2348     1   107.5800459 329.699200
   2349   2336   2350     1   107.5800459 329.699200
   2351   2338   2352     1   109.7500473 328.025600
   2353   2339   2354     1   108.4600466 328.025600
   2357   2358   2369     1   108.0100461 406.684800
   2357   2358   2370     1   108.0100461 406.684800
   2357   2359   2371     1   108.0100461 406.684800
   2357   2359   2372     1   108.0100461 406.684800
   2357   2364   2377     1   108.0100461 406.684800
   2357   2364   2378     1   108.0100461 406.684800
   2358   2357   2382     1   110.1100470 384.091200
   2358   2360   2373     1   109.8000471 387.438400
   2358   2360   2374     1   109.8000471 387.438400
   2359   2357   2382     1   110.1100470 384.091200
   2359   2362   2375     1   109.8000471 387.438400
   2359   2362   2376     1   109.8000471 387.438400
   2360   2358   2369     1   110.5600475 386.601600
   2360   2358   2370     1   110.5600475 386.601600
   2361   2360   2373     1   108.7700466 392.459200
   2361   2360   2374     1   108.7700466 392.459200
   2361   3963   3964     1   117.5500507 404.174400
   2362   2359   2371     1   110.5600475 386.601600
   2362   2359   2372     1   110.5600475 386.601600
   2363   2362   2375     1   108.7700466 392.459200
   2363   2362   2376     1   108.7700466 392.459200
   2363   3975   3976     1   117.5500507 404.174400
   2364   2357   2382     1   110.1100470 384.091200
   2364   2365   2379     1   109.5600471 388.275200
   2364   2365   2380     1   109.5600471 388.275200
   2365   2364   2377     1   110.5600475 386.601600
   2365   2364   2378     1   110.5600475 386.601600
   2365   2366   2381     1   117.6800502 383.254400
   2366   2365   2379     1   108.8800464 416.726400
   2366   2365   2380     1   108.8800464 416.726400
   2369   2358   2370     1   109.7500473 328.025600
   2371   2359   2372     1   109.7500473 328.025600
   2373   2360   2374     1   107.5800459 329.699200
   2375   2362   2376     1   107.5800459 329.699200
   2377   2364   2378     1   109.7500473 328.025600
   2379   2365   2380     1   108.4600466 328.025600
   2383   2384   2395     1   108.0100461 406.684800
   2383   2384   2396     1   108.0100461 406.684800
   2383   2385   2397     1   108.0100461 406.684800
   2383   2385   2398     1   108.0100461 406.684800
   2383   2390   2403     1   108.0100461 406.684800
   2383   2390   2404     1   108.0100461 406.684800
   2384   2383   2408     1   110.1100470 384.091200
   2384   2386   2399     1   109.8000471 387.438400
   2384   2386   2400     1   109.8000471 387.438400
   2385   2383   2408     1   110.1100470 384.091200
   2385   2388   2401     1   109.8000471 387.438400
   2385   2388   2402     1   109.8000471 387.438400
   2386   2384   2395     1   110.5600475 386.601600
   2386   2384   2396     1   110.5600475 386.601600
   2387   2386   2399     1   108.7700466 392.459200
   2387   2386   2400     1   108.7700466 392.459200
   2387   3987   3988     1   117.5500507 404.174400
   2388   2385   2397     1   110.5600475 386.601600
   2388   2385   2398     1   110.5600475 386.601600
   2389   2388   2401     1   108.7700466 392.459200
   2389   2388   2402     1   108.7700466 392.459200
   2389   3999   4000     1   117.5500507 404.174400
   2390   2383   2408     1   110.1100470 384.091200
   2390   2391   2405     1   109.5600471 388.275200
   2390   2391   2406     1   109.5600471 388.275200
   2391   2390   2403     1   110.5600475 386.601600
   2391   2390   2404     1   110.5600475 386.601600
   2391   2392   2407     1   117.6800502 383.254400
   2392   2391   2405     1   108.8800464 416.726400
   2392   2391   2406     1   108.8800464 416.726400
   2395   2384   2396     1   109.7500473 328.025600
   2397   2385   2398     1   109.7500473 328.025600
   2399   2386   2400     1   107.5800459 329.699200
   2401   2388   2402     1   107.5800459 329.699200
   2403   2390   2404     1   109.7500473 328.025600
   2405   2391   2406     1   108.4600466 328.025600
   2409   2410   2421     1   108.0100461 406.684800
   2409   2410   2422     1   108.0100461 406.684800
   2409   2411   2423     1   108.0100461 406.684800
   2409   2411   2424     1   108.0100461 406.684800
   2409   2416   2429     1   108.0100461 406.684800
   2409   2416   2430     1   108.0100461 406.684800
   2410   2409   2434     1   110.1100470 384.091200
   2410   2412   2425     1   109.8000471 387.438400
   2410   2412   2426     1   109.8000471 387.438400
   2411   2409   2434     1   110.1100470 384.091200
   2411   2414   2427     1   109.8000471 387.438400
   2411   2414   2428     1   109.8000471 387.438400
   2412   2410   2421     1   110.5600475 386.601600
   2412   2410   2422     1   110.5600475 386.601600
   2413   2412   2425     1   108.7700466 392.459200
   2413   2412   2426     1   108.7700466 392.459200
   2413   4011   4012     1   117.5500507 404.174400
   2414   2411   2423     1   110.5600475 386.601600
   2414   2411   2424     1   110.5600475 386.601600
   2415   2414   2427     1   108.7700466 392.459200
   2415   2414   2428     1   108.7700466 392.459200
   2415   4023   4024     1   117.5500507 404.174400
   2416   2409   2434     1   110.1100470 384.091200
   2416   2417   2431     1   109.5600471 388.275200
   2416   2417   2432     1   109.5600471 388.275200
   2417   2416   2429     1   110.5600475 386.601600
   2417   2416   2430     1   110.5600475 386.601600
   2417   2418   2433     1   117.6800502 383.254400
   2418   2417   2431     1   108.8800464 416.726400
   2418   2417   2432     1   108.8800464 416.726400
   2421   2410   2422     1   109.7500473 328.025600
   2423   2411   2424     1   109.7500473 328.025600
   2425   2412   2426     1   107.5800459 329.699200
   2427   2414   2428     1   107.5800459 329.699200
   2429   2416   2430     1   109.7500473 328.025600
   2431   2417   2432     1   108.4600466 328.025600
   2435   2436   2447     1   108.0100461 406.684800
   2435   2436   2448     1   108.0100461 406.684800
   2435   2437   2449     1   108.0100461 406.684800
   2435   2437   2450     1   108.0100461 406.684800
   2435   2442   2455     1   108.0100461 406.684800
   2435   2442   2456     1   108.0100461 406.684800
   2436   2435   2460     1   110.1100470 384.091200
   2436   2438   2451     1   109.8000471 387.438400
   2436   2438   2452     1   109.8000471 387.438400
   2437   2435   2460     1   110.1100470 384.091200
   2437   2440   2453     1   109.8000471 387.438400
   2437   2440   2454     1   109.8000471 387.438400
   2438   2436   2447     1   110.5600475 386.601600
   2438   2436   2448     1   110.5600475 386.601600
   2439   2438   2451     1   108.7700466 392.459200
   2439   2438   2452     1   108.7700466 392.459200
   2439   4035   4036     1   117.5500507 404.174400
   2440   2437   2449     1   110.5600475 386.601600
   2440   2437   2450     1   110.5600475 386.601600
   2441   2440   2453     1   108.7700466 392.459200
   2441   2440   2454     1   108.7700466 392.459200
   2441   4047   4048     1   117.5500507 404.174400
   2442   2435   2460     1   110.1100470 384.091200
   2442   2443   2457     1   109.5600471 388.275200
   2442   2443   2458     1   109.5600471 388.275200
   2443   2442   2455     1   110.5600475 386.601600
   2443   2442   2456     1   110.5600475 386.601600
   2443   2444   2459     1   117.6800502 383.254400
   2444   2443   2457     1   108.8800464 416.726400
   2444   2443   2458     1   108.8800464 416.726400
   2447   2436   2448     1   109.7500473 328.025600
   2449   2437   2450     1   109.7500473 328.025600
   2451   2438   2452     1   107.5800459 329.699200
   2453   2440   2454     1   107.5800459 329.699200
   2455   2442   2456     1   109.7500473 328.025600
   2457   2443   2458     1   108.4600466 328.025600
   2461   2462   2473     1   108.0100461 406.684800
   2461   2462   2474     1   108.0100461 406.684800
   2461   2463   2475     1   108.0100461 406.684800
   2461   2463   2476     1   108.0100461 406.684800
   2461   2468   2481     1   108.0100461 406.684800
   2461   2468   2482     1   108.0100461 406.684800
   2462   2461   2486     1   110.1100470 384.091200
   2462   2464   2477     1   109.8000471 387.438400
   2462   2464   2478     1   109.8000471 387.438400
   2463   2461   2486     1   110.1100470 384.091200
   2463   2466   2479     1   109.8000471 387.438400
   2463   2466   2480     1   109.8000471 387.438400
   2464   2462   2473     1   110.5600475 386.601600
   2464   2462   2474     1   110.5600475 386.601600
   2465   2464   2477     1   108.7700466 392.459200
   2465   2464   2478     1   108.7700466 392.459200
   2465   4059   4060     1   117.5500507 404.174400
   2466   2463   2475     1   110.5600475 386.601600
   2466   2463   2476     1   110.5600475 386.601600
   2467   2466   2479     1   108.7700466 392.459200
   2467   2466   2480     1   108.7700466 392.459200
   2467   4071   4072     1   117.5500507 404.174400
   2468   2461   2486     1   110.1100470 384.091200
   2468   2469   2483     1   109.5600471 388.275200
   2468   2469   2484     1   109.5600471 388.275200
   2469   2468   2481     1   110.5600475 386.601600
   2469   2468   2482     1   110.5600475 386.601600
   2469   2470   2485     1   117.6800502 383.254400
   2470   2469   2483     1   108.8800464 416.726400
   2470   2469   2484     1   108.8800464 416.726400
   2473   2462   2474     1   109.7500473 328.025600
   2475   2463   2476     1   109.7500473 328.025600
   2477   2464   2478     1   107.5800459 329.699200
   2479   2466   2480     1   107.5800459 329.699200
   2481   2468   2482     1   109.7500473 328.025600
   2483   2469   2484     1   108.4600466 328.025600
   2487   2488   2499     1   108.0100461 406.684800
   2487   2488   2500     1   108.0100461 406.684800
   2487   2489   2501     1   108.0100461 406.684800
   2487   2489   2502     1   108.0100461 406.684800
   2487   2494   2507     1   108.0100461 406.684800
   2487   2494   2508     1   108.0100461 406.684800
   2488   2487   2512     1   110.1100470 384.091200
   2488   2490   2503     1   109.8000471 387.438400
   2488   2490   2504     1   109.8000471 387.438400
   2489   2487   2512     1   110.1100470 384.091200
   2489   2492   2505     1   109.8000471 387.438400
   2489   2492   2506     1   109.8000471 387.438400
   2490   2488   2499     1   110.5600475 386.601600
   2490   2488   2500     1   110.5600475 386.601600
   2491   2490   2503     1   108.7700466 392.459200
   2491   2490   2504     1   108.7700466 392.459200
   2491   4083   4084     1   117.5500507 404.174400
   2492   2489   2501     1   110.5600475 386.601600
   2492   2489   2502     1   110.5600475 386.601600
   2493   2492   2505     1   108.7700466 392.459200
   2493   2492   2506     1   108.7700466 392.459200
   2493   4095   4096     1   117.5500507 404.174400
   2494   2487   2512     1   110.1100470 384.091200
   2494   2495   2509     1   109.5600471 388.275200
   2494   2495   2510     1   109.5600471 388.275200
   2495   2494   2507     1   110.5600475 386.601600
   2495   2494   2508     1   110.5600475 386.601600
   2495   2496   2511     1   117.6800502 383.254400
   2496   2495   2509     1   108.8800464 416.726400
   2496   2495   2510     1   108.8800464 416.726400
   2499   2488   2500     1   109.7500473 328.025600
   2501   2489   2502     1   109.7500473 328.025600
   2503   2490   2504     1   107.5800459 329.699200
   2505   2492   2506     1   107.5800459 329.699200
   2507   2494   2508     1   109.7500473 328.025600
   2509   2495   2510     1   108.4600466 328.025600
   2513   2514   2525     1   108.0100461 406.684800
   2513   2514   2526     1   108.0100461 406.684800
   2513   2515   2527     1   108.0100461 406.684800
   2513   2515   2528     1   108.0100461 406.684800
   2513   2520   2533     1   108.0100461 406.684800
   2513   2520   2534     1   108.0100461 406.684800
   2514   2513   2538     1   110.1100470 384.091200
   2514   2516   2529     1   109.8000471 387.438400
   2514   2516   2530     1   109.8000471 387.438400
   2515   2513   2538     1   110.1100470 384.091200
   2515   2518   2531     1   109.8000471 387.438400
   2515   2518   2532     1   109.8000471 387.438400
   2516   2514   2525     1   110.5600475 386.601600
   2516   2514   2526     1   110.5600475 386.601600
   2517   2516   2529     1   108.7700466 392.459200
   2517   2516   2530     1   108.7700466 392.459200
   2517   4107   4108     1   117.5500507 404.174400
   2518   2515   2527     1   110.5600475 386.601600
   2518   2515   2528     1   110.5600475 386.601600
   2519   2518   2531     1   108.7700466 392.459200
   2519   2518   2532     1   108.7700466 392.459200
   2519   4119   4120     1   117.5500507 404.174400
   2520   2513   2538     1   110.1100470 384.091200
   2520   2521   2535     1   109.5600471 388.275200
   2520   2521   2536     1   109.5600471 388.275200
   2521   2520   2533     1   110.5600475 386.601600
   2521   2520   2534     1   110.5600475 386.601600
   2521   2522   2537     1   117.6800502 383.254400
   2522   2521   2535     1   108.8800464 416.726400
   2522   2521   2536     1   108.8800464 416.726400
   2525   2514   2526     1   109.7500473 328.025600
   2527   2515   2528     1   109.7500473 328.025600
   2529   2516   2530     1   107.5800459 329.699200
   2531   2518   2532     1   107.5800459 329.699200
   2533   2520   2534     1   109.7500473 328.025600
   2535   2521   2536     1   108.4600466 328.025600
   2539   2540   2551     1   108.0100461 406.684800
   2539   2540   2552     1   108.0100461 406.684800
   2539   2541   2553     1   108.0100461 406.684800
   2539   2541   2554     1   108.0100461 406.684800
   2539   2546   2559     1   108.0100461 406.684800
   2539   2546   2560     1   108.0100461 406.684800
   2540   2539   2564     1   110.1100470 384.091200
   2540   2542   2555     1   109.8000471 387.438400
   2540   2542   2556     1   109.8000471 387.438400
   2541   2539   2564     1   110.1100470 384.091200
   2541   2544   2557     1   109.8000471 387.438400
   2541   2544   2558     1   109.8000471 387.438400
   2542   2540   2551     1   110.5600475 386.601600
   2542   2540   2552     1   110.5600475 386.601600
   2543   2542   2555     1   108.7700466 392.459200
   2543   2542   2556     1   108.7700466 392.459200
   2543   4131   4132     1   117.5500507 404.174400
   2544   2541   2553     1   110.5600475 386.601600
   2544   2541   2554     1   110.5600475 386.601600
   2545   2544   2557     1   108.7700466 392.459200
   2545   2544   2558     1   108.7700466 392.459200
   2545   4143   4144     1   117.5500507 404.174400
   2546   2539   2564     1   110.1100470 384.091200
   2546   2547   2561     1   109.5600471 388.275200
   2546   2547   2562     1   109.5600471 388.275200
   2547   2546   2559     1   110.5600475 386.601600
   2547   2546   2560     1   110.5600475 386.601600
   2547   2548   2563     1   117.6800502 383.254400
   2548   2547   2561     1   108.8800464 416.726400
   2548   2547   2562     1   108.8800464 416.726400
   2551   2540   2552     1   109.7500473 328.025600
   2553   2541   2554     1   109.7500473 328.025600
   2555   2542   2556     1   107.5800459 329.699200
   2557   2544   2558     1   107.5800459 329.699200
   2559   2546   2560     1   109.7500473 328.025600
   2561   2547   2562     1   108.4600466 328.025600
   2565   2566   2577     1   108.0100461 406.684800
   2565   2566   2578     1   108.0100461 406.684800
   2565   2567   2579     1   108.0100461 406.684800
   2565   2567   2580     1   108.0100461 406.684800
   2565   2572   2585     1   108.0100461 406.684800
   2565   2572   2586     1   108.0100461 406.684800
   2566   2565   2590     1   110.1100470 384.091200
   2566   2568   2581     1   109.8000471 387.438400
   2566   2568   2582     1   109.8000471 387.438400
   2567   2565   2590     1   110.1100470 384.091200
   2567   2570   2583     1   109.8000471 387.438400
   2567   2570   2584     1   109.8000471 387.438400
   2568   2566   2577     1   110.5600475 386.601600
   2568   2566   2578     1   110.5600475 386.601600
   2569   2568   2581     1   108.7700466 392.459200
   2569   2568   2582     1   108.7700466 392.459200
   2569   4155   4156     1   117.5500507 404.174400
   2570   2567   2579     1   110.5600475 386.601600
   2570   2567   2580     1   110.5600475 386.601600
   2571   2570   2583     1   108.7700466 392.459200
   2571   2570   2584     1   108.7700466 392.459200
   2571   4167   4168     1   117.5500507 404.174400
   2572   2565   2590     1   110.1100470 384.091200
   2572   2573   2587     1   109.5600471 388.275200
   2572   2573   2588     1   109.5600471 388.275200
   2573   2572   2585     1   110.5600475 386.601600
   2573   2572   2586     1   110.5600475 386.601600
   2573   2574   2589     1   117.6800502 383.254400
   2574   2573   2587     1   108.8800464 416.726400
   2574   2573   2588     1   108.8800464 416.726400
   2577   2566   2578     1   109.7500473 328.025600
   2579   2567   2580     1   109.7500473 328.025600
   2581   2568   2582     1   107.5800459 329.699200
   2583   2570   2584     1   107.5800459 329.699200
   2585   2572   2586     1   109.7500473 328.025600
   2587   2573   2588     1   108.4600466 328.025600
   2591   2592   2603     1   108.0100461 406.684800
   2591   2592   2604     1   108.0100461 406.684800
   2591   2593   2605     1   108.0100461 406.684800
   2591   2593   2606     1   108.0100461 406.684800
   2591   2598   2611     1   108.0100461 406.684800
   2591   2598   2612     1   108.0100461 406.684800
   2592   2591   2616     1   110.1100470 384.091200
   2592   2594   2607     1   109.8000471 387.438400
   2592   2594   2608     1   109.8000471 387.438400
   2593   2591   2616     1   110.1100470 384.091200
   2593   2596   2609     1   109.8000471 387.438400
   2593   2596   2610     1   109.8000471 387.438400
   2594   2592   2603     1   110.5600475 386.601600
   2594   2592   2604     1   110.5600475 386.601600
   2595   2594   2607     1   108.7700466 392.459200
   2595   2594   2608     1   108.7700466 392.459200
   2595   4179   4180     1   117.5500507 404.174400
   2596   2593   2605     1   110.5600475 386.601600
   2596   2593   2606     1   110.5600475 386.601600
   2597   2596   2609     1   108.7700466 392.459200
   2597   2596   2610     1   108.7700466 392.459200
   2597   4191   4192     1   117.5500507 404.174400
   2598   2591   2616     1   110.1100470 384.091200
   2598   2599   2613     1   109.5600471 388.275200
   2598   2599   2614     1   109.5600471 388.275200
   2599   2598   2611     1   110.5600475 386.601600
   2599   2598   2612     1   110.5600475 386.601600
   2599   2600   2615     1   117.6800502 383.254400
   2600   2599   2613     1   108.8800464 416.726400
   2600   2599   2614     1   108.8800464 416.726400
   2603   2592   2604     1   109.7500473 328.025600
   2605   2593   2606     1   109.7500473 328.025600
   2607   2594   2608     1   107.5800459 329.699200
   2609   2596   2610     1   107.5800459 329.699200
   2611   2598   2612     1   109.7500473 328.025600
   2613   2599   2614     1   108.4600466 328.025600
   2617   2618   2629     1   108.0100461 406.684800
   2617   2618   2630     1   108.0100461 406.684800
   2617   2619   2631     1   108.0100461 406.684800
   2617   2619   2632     1   108.0100461 406.684800
   2617   2624   2637     1   108.0100461 406.684800
   2617   2624   2638     1   108.0100461 406.684800
   2618   2617   2642     1   110.1100470 384.091200
   2618   2620   2633     1   109.8000471 387.438400
   2618   2620   2634     1   109.8000471 387.438400
   2619   2617   2642     1   110.1100470 384.091200
   2619   2622   2635     1   109.8000471 387.438400
   2619   2622   2636     1   109.8000471 387.438400
   2620   2618   2629     1   110.5600475 386.601600
   2620   2618   2630     1   110.5600475 386.601600
   2621   2620   2633     1   108.7700466 392.459200
   2621   2620   2634     1   108.7700466 392.459200
   2621   4203   4204     1   117.5500507 404.174400
   2622   2619   2631     1   110.5600475 386.601600
   2622   2619   2632     1   110.5600475 386.601600
   2623   2622   2635     1   108.7700466 392.459200
   2623   2622   2636     1   108.7700466 392.459200
   2623   4215   4216     1   117.5500507 404.174400
   2624   2617   2642     1   110.1100470 384.091200
   2624   2625   2639     1   109.5600471 388.275200
   2624   2625   2640     1   109.5600471 388.275200
   2625   2624   2637     1   110.5600475 386.601600
   2625   2624   2638     1   110.5600475 386.601600
   2625   2626   2641     1   117.6800502 383.254400
   2626   2625   2639     1   108.8800464 416.726400
   2626   2625   2640     1   108.8800464 416.726400
   2629   2618   2630     1   109.7500473 328.025600
   2631   2619   2632     1   109.7500473 328.025600
   2633   2620   2634     1   107.5800459 329.699200
   2635   2622   2636     1   107.5800459 329.699200
   2637   2624   2638     1   109.7500473 328.025600
   2639   2625   2640     1   108.4600466 328.025600
   2643   2644   2655     1   108.0100461 406.684800
   2643   2644   2656     1   108.0100461 406.684800
   2643   2645   2657     1   108.0100461 406.684800
   2643   2645   2658     1   108.0100461 406.684800
   2643   2650   2663     1   108.0100461 406.684800
   2643   2650   2664     1   108.0100461 406.684800
   2644   2643   2668     1   110.1100470 384.091200
   2644   2646   2659     1   109.8000471 387.438400
   2644   2646   2660     1   109.8000471 387.438400
   2645   2643   2668     1   110.1100470 384.091200
   2645   2648   2661     1   109.8000471 387.438400
   2645   2648   2662     1   109.8000471 387.438400
   2646   2644   2655     1   110.5600475 386.601600
   2646   2644   2656     1   110.5600475 386.601600
   2647   2646   2659     1   108.7700466 392.459200
   2647   2646   2660     1   108.7700466 392.459200
   2647   4227   4228     1   117.5500507 404.174400
   2648   2645   2657     1   110.5600475 386.601600
   2648   2645   2658     1   110.5600475 386.601600
   2649   2648   2661     1   108.7700466 392.459200
   2649   2648   2662     1   108.7700466 392.459200
   2649   4239   4240     1   117.5500507 404.174400
   2650   2643   2668     1   110.1100470 384.091200
   2650   2651   2665     1   109.5600471 388.275200
   2650   2651   2666     1   109.5600471 388.275200
   2651   2650   2663     1   110.5600475 386.601600
   2651   2650   2664     1   110.5600475 386.601600
   2651   2652   2667     1   117.6800502 383.254400
   2652   2651   2665     1   108.8800464 416.726400
   2652   2651   2666     1   108.8800464 416.726400
   2655   2644   2656     1   109.7500473 328.025600
   2657   2645   2658     1   109.7500473 328.025600
   2659   2646   2660     1   107.5800459 329.699200
   2661   2648   2662     1   107.5800459 329.699200
   2663   2650   2664     1   109.7500473 328.025600
   2665   2651   2666     1   108.4600466 328.025600
   2669   2670   2681     1   108.0100461 406.684800
   2669   2670   2682     1   108.0100461 406.684800
   2669   2671   2683     1   108.0100461 406.684800
   2669   2671   2684     1   108.0100461 406.684800
   2669   2676   2689     1   108.0100461 406.684800
   2669   2676   2690     1   108.0100461 406.684800
   2670   2669   2694     1   110.1100470 384.091200
   2670   2672   2685     1   109.8000471 387.438400
   2670   2672   2686     1   109.8000471 387.438400
   2671   2669   2694     1   110.1100470 384.091200
   2671   2674   2687     1   109.8000471 387.438400
   2671   2674   2688     1   109.8000471 387.438400
   2672   2670   2681     1   110.5600475 386.601600
   2672   2670   2682     1   110.5600475 386.601600
   2673   2672   2685     1   108.7700466 392.459200
   2673   2672   2686     1   108.7700466 392.459200
   2673   4251   4252     1   117.5500507 404.174400
   2674   2671   2683     1   110.5600475 386.601600
   2674   2671   2684     1   110.5600475 386.601600
   2675   2674   2687     1   108.7700466 392.459200
   2675   2674   2688     1   108.7700466 392.459200
   2675   4263   4264     1   117.5500507 404.174400
   2676   2669   2694     1   110.1100470 384.091200
   2676   2677   2691     1   109.5600471 388.275200
   2676   2677   2692     1   109.5600471 388.275200
   2677   2676   2689     1   110.5600475 386.601600
   2677   2676   2690     1   110.5600475 386.601600
   2677   2678   2693     1   117.6800502 383.254400
   2678   2677   2691     1   108.8800464 416.726400
   2678   2677   2692     1   108.8800464 416.726400
   2681   2670   2682     1   109.7500473 328.025600
   2683   2671   2684     1   109.7500473 328.025600
   2685   2672   2686     1   107.5800459 329.699200
   2687   2674   2688     1   107.5800459 329.699200
   2689   2676   2690     1   109.7500473 328.025600
   2691   2677   2692     1   108.4600466 328.025600
   2695   2696   2707     1   108.0100461 406.684800
   2695   2696   2708     1   108.0100461 406.684800
   2695   2697   2709     1   108.0100461 406.684800
   2695   2697   2710     1   108.0100461 406.684800
   2695   2702   2715     1   108.0100461 406.684800
   2695   2702   2716     1   108.0100461 406.684800
   2696   2695   2720     1   110.1100470 384.091200
   2696   2698   2711     1   109.8000471 387.438400
   2696   2698   2712     1   109.8000471 387.438400
   2697   2695   2720     1   110.1100470 384.091200
   2697   2700   2713     1   109.8000471 387.438400
   2697   2700   2714     1   109.8000471 387.438400
   2698   2696   2707     1   110.5600475 386.601600
   2698   2696   2708     1   110.5600475 386.601600
   2699   2698   2711     1   108.7700466 392.459200
   2699   2698   2712     1   108.7700466 392.459200
   2699   4275   4276     1   117.5500507 404.174400
   2700   2697   2709     1   110.5600475 386.601600
   2700   2697   2710     1   110.5600475 386.601600
   2701   2700   2713     1   108.7700466 392.459200
   2701   2700   2714     1   108.7700466 392.459200
   2701   4287   4288     1   117.5500507 404.174400
   2702   2695   2720     1   110.1100470 384.091200
   2702   2703   2717     1   109.5600471 388.275200
   2702   2703   2718     1   109.5600471 388.275200
   2703   2702   2715     1   110.5600475 386.601600
   2703   2702   2716     1   110.5600475 386.601600
   2703   2704   2719     1   117.6800502 383.254400
   2704   2703   2717     1   108.8800464 416.726400
   2704   2703   2718     1   108.8800464 416.726400
   2707   2696   2708     1   109.7500473 328.025600
   2709   2697   2710     1   109.7500473 328.025600
   2711   2698   2712     1   107.5800459 329.699200
   2713   2700   2714     1   107.5800459 329.699200
   2715   2702   2716     1   109.7500473 328.025600
   2717   2703   2718     1   108.4600466 328.025600
   2721   2722   2733     1   108.0100461 406.684800
   2721   2722   2734     1   108.0100461 406.684800
   2721   2723   2735     1   108.0100461 406.684800
   2721   2723   2736     1   108.0100461 406.684800
   2721   2728   2741     1   108.0100461 406.684800
   2721   2728   2742     1   108.0100461 406.684800
   2722   2721   2746     1   110.1100470 384.091200
   2722   2724   2737     1   109.8000471 387.438400
   2722   2724   2738     1   109.8000471 387.438400
   2723   2721   2746     1   110.1100470 384.091200
   2723   2726   2739     1   109.8000471 387.438400
   2723   2726   2740     1   109.8000471 387.438400
   2724   2722   2733     1   110.5600475 386.601600
   2724   2722   2734     1   110.5600475 386.601600
   2725   2724   2737     1   108.7700466 392.459200
   2725   2724   2738     1   108.7700466 392.459200
   2725   4299   4300     1   117.5500507 404.174400
   2726   2723   2735     1   110.5600475 386.601600
   2726   2723   2736     1   110.5600475 386.601600
   2727   2726   2739     1   108.7700466 392.459200
   2727   2726   2740     1   108.7700466 392.459200
   2727   4311   4312     1   117.5500507 404.174400
   2728   2721   2746     1   110.1100470 384.091200
   2728   2729   2743     1   109.5600471 388.275200
   2728   2729   2744     1   109.5600471 388.275200
   2729   2728   2741     1   110.5600475 386.601600
   2729   2728   2742     1   110.5600475 386.601600
   2729   2730   2745     1   117.6800502 383.254400
   2730   2729   2743     1   108.8800464 416.726400
   2730   2729   2744     1   108.8800464 416.726400
   2733   2722   2734     1   109.7500473 328.025600
   2735   2723   2736     1   109.7500473 328.025600
   2737   2724   2738     1   107.5800459 329.699200
   2739   2726   2740     1   107.5800459 329.699200
   2741   2728   2742     1   109.7500473 328.025600
   2743   2729   2744     1   108.4600466 328.025600
   2747   2748   2759     1   108.0100461 406.684800
   2747   2748   2760     1   108.0100461 406.684800
   2747   2749   2761     1   108.0100461 406.684800
   2747   2749   2762     1   108.0100461 406.684800
   2747   2754   2767     1   108.0100461 406.684800
   2747   2754   2768     1   108.0100461 406.684800
   2748   2747   2772     1   110.1100470 384.091200
   2748   2750   2763     1   109.8000471 387.438400
   2748   2750   2764     1   109.8000471 387.438400
   2749   2747   2772     1   110.1100470 384.091200
   2749   2752   2765     1   109.8000471 387.438400
   2749   2752   2766     1   109.8000471 387.438400
   2750   2748   2759     1   110.5600475 386.601600
   2750   2748   2760     1   110.5600475 386.601600
   2751   2750   2763     1   108.7700466 392.459200
   2751   2750   2764     1   108.7700466 392.459200
   2751   4323   4324     1   117.5500507 404.174400
   2752   2749   2761     1   110.5600475 386.601600
   2752   2749   2762     1   110.5600475 386.601600
   2753   2752   2765     1   108.7700466 392.459200
   2753   2752   2766     1   108.7700466 392.459200
   2753   4335   4336     1   117.5500507 404.174400
   2754   2747   2772     1   110.1100470 384.091200
   2754   2755   2769     1   109.5600471 388.275200
   2754   2755   2770     1   109.5600471 388.275200
   2755   2754   2767     1   110.5600475 386.601600
   2755   2754   2768     1   110.5600475 386.601600
   2755   2756   2771     1   117.6800502 383.254400
   2756   2755   2769     1   108.8800464 416.726400
   2756   2755   2770     1   108.8800464 416.726400
   2759   2748   2760     1   109.7500473 328.025600
   2761   2749   2762     1   109.7500473 328.025600
   2763   2750   2764     1   107.5800459 329.699200
   2765   2752   2766     1   107.5800459 329.699200
   2767   2754   2768     1   109.7500473 328.025600
   2769   2755   2770     1   108.4600466 328.025600
   2773   2774   2785     1   108.0100461 406.684800
   2773   2774   2786     1   108.0100461 406.684800
   2773   2775   2787     1   108.0100461 406.684800
   2773   2775   2788     1   108.0100461 406.684800
   2773   2780   2793     1   108.0100461 406.684800
   2773   2780   2794     1   108.0100461 406.684800
   2774   2773   2798     1   110.1100470 384.091200
   2774   2776   2789     1   109.8000471 387.438400
   2774   2776   2790     1   109.8000471 387.438400
   2775   2773   2798     1   110.1100470 384.091200
   2775   2778   2791     1   109.8000471 387.438400
   2775   2778   2792     1   109.8000471 387.438400
   2776   2774   2785     1   110.5600475 386.601600
   2776   2774   2786     1   110.5600475 386.601600
   2777   2776   2789     1   108.7700466 392.459200
   2777   2776   2790     1   108.7700466 392.459200
   2777   4347   4348     1   117.5500507 404.174400
   2778   2775   2787     1   110.5600475 386.601600
   2778   2775   2788     1   110.5600475 386.601600
   2779   2778   2791     1   108.7700466 392.459200
   2779   2778   2792     1   108.7700466 392.459200
   2779   4359   4360     1   117.5500507 404.174400
   2780   2773   2798     1   110.1100470 384.091200
   2780   2781   2795     1   109.5600471 388.275200
   2780   2781   2796     1   109.5600471 388.275200
   2781   2780   2793     1   110.5600475 386.601600
   2781   2780   2794     1   110.5600475 386.601600
   2781   2782   2797     1   117.6800502 383.254400
   2782   2781   2795     1   108.8800464 416.726400
   2782   2781   2796     1   108.8800464 416.726400
   2785   2774   2786     1   109.7500473 328.025600
   2787   2775   2788     1   109.7500473 328.025600
   2789   2776   2790     1   107.5800459 329.699200
   2791   2778   2792     1   107.5800459 329.699200
   2793   2780   2794     1   109.7500473 328.025600
   2795   2781   2796     1   108.4600466 328.025600
   2799   2800   2811     1   108.0100461 406.684800
   2799   2800   2812     1   108.0100461 406.684800
   2799   2801   2813     1   108.0100461 406.684800
   2799   2801   2814     1   108.0100461 406.684800
   2799   2806   2819     1   108.0100461 406.684800
   2799   2806   2820     1   108.0100461 406.684800
   2800   2799   2824     1   110.1100470 384.091200
   2800   2802   2815     1   109.8000471 387.438400
   2800   2802   2816     1   109.8000471 387.438400
   2801   2799   2824     1   110.1100470 384.091200
   2801   2804   2817     1   109.8000471 387.438400
   2801   2804   2818     1   109.8000471 387.438400
   2802   2800   2811     1   110.5600475 386.601600
   2802   2800   2812     1   110.5600475 386.601600
   2803   2802   2815     1   108.7700466 392.459200
   2803   2802   2816     1   108.7700466 392.459200
   2803   4371   4372     1   117.5500507 404.174400
   2804   2801   2813     1   110.5600475 386.601600
   2804   2801   2814     1   110.5600475 386.601600
   2805   2804   2817     1   108.7700466 392.459200
   2805   2804   2818     1   108.7700466 392.459200
   2805   4383   4384     1   117.5500507 404.174400
   2806   2799   2824     1   110.1100470 384.091200
   2806   2807   2821     1   109.5600471 388.275200
   2806   2807   2822     1   109.5600471 388.275200
   2807   2806   2819     1   110.5600475 386.601600
   2807   2806   2820     1   110.5600475 386.601600
   2807   2808   2823     1   117.6800502 383.254400
   2808   2807   2821     1   108.8800464 416.726400
   2808   2807   2822     1   108.8800464 416.726400
   2811   2800   2812     1   109.7500473 328.025600
   2813   2801   2814     1   109.7500473 328.025600
   2815   2802   2816     1   107.5800459 329.699200
   2817   2804   2818     1   107.5800459 329.699200
   2819   2806   2820     1   109.7500473 328.025600
   2821   2807   2822     1   108.4600466 328.025600
   2825   2826   2837     1   108.0100461 406.684800
   2825   2826   2838     1   108.0100461 406.684800
   2825   2827   2839     1   108.0100461 406.684800
   2825   2827   2840     1   108.0100461 406.684800
   2825   2832   2845     1   108.0100461 406.684800
   2825   2832   2846     1   108.0100461 406.684800
   2826   2825   2850     1   110.1100470 384.091200
   2826   2828   2841     1   109.8000471 387.438400
   2826   2828   2842     1   109.8000471 387.438400
   2827   2825   2850     1   110.1100470 384.091200
   2827   2830   2843     1   109.8000471 387.438400
   2827   2830   2844     1   109.8000471 387.438400
   2828   2826   2837     1   110.5600475 386.601600
   2828   2826   2838     1   110.5600475 386.601600
   2829   2828   2841     1   108.7700466 392.459200
   2829   2828   2842     1   108.7700466 392.459200
   2829   4395   4396     1   117.5500507 404.174400
   2830   2827   2839     1   110.5600475 386.601600
   2830   2827   2840     1   110.5600475 386.601600
   2831   2830   2843     1   108.7700466 392.459200
   2831   2830   2844     1   108.7700466 392.459200
   2831   4407   4408     1   117.5500507 404.174400
   2832   2825   2850     1   110.1100470 384.091200
   2832   2833   2847     1   109.5600471 388.275200
   2832   2833   2848     1   109.5600471 388.275200
   2833   2832   2845     1   110.5600475 386.601600
   2833   2832   2846     1   110.5600475 386.601600
   2833   2834   2849     1   117.6800502 383.254400
   2834   2833   2847     1   108.8800464 416.726400
   2834   2833   2848     1   108.8800464 416.726400
   2837   2826   2838     1   109.7500473 328.025600
   2839   2827   2840     1   109.7500473 328.025600
   2841   2828   2842     1   107.5800459 329.699200
   2843   2830   2844     1   107.5800459 329.699200
   2845   2832   2846     1   109.7500473 328.025600
   2847   2833   2848     1   108.4600466 328.025600
   2851   2852   2863     1   108.0100461 406.684800
   2851   2852   2864     1   108.0100461 406.684800
   2851   2853   2865     1   108.0100461 406.684800
   2851   2853   2866     1   108.0100461 406.684800
   2851   2858   2871     1   108.0100461 406.684800
   2851   2858   2872     1   108.0100461 406.684800
   2852   2851   2876     1   110.1100470 384.091200
   2852   2854   2867     1   109.8000471 387.438400
   2852   2854   2868     1   109.8000471 387.438400
   2853   2851   2876     1   110.1100470 384.091200
   2853   2856   2869     1   109.8000471 387.438400
   2853   2856   2870     1   109.8000471 387.438400
   2854   2852   2863     1   110.5600475 386.601600
   2854   2852   2864     1   110.5600475 386.601600
   2855   2854   2867     1   108.7700466 392.459200
   2855   2854   2868     1   108.7700466 392.459200
   2855   4419   4420     1   117.5500507 404.174400
   2856   2853   2865     1   110.5600475 386.601600
   2856   2853   2866     1   110.5600475 386.601600
   2857   2856   2869     1   108.7700466 392.459200
   2857   2856   2870     1   108.7700466 392.459200
   2857   4431   4432     1   117.5500507 404.174400
   2858   2851   2876     1   110.1100470 384.091200
   2858   2859   2873     1   109.5600471 388.275200
   2858   2859   2874     1   109.5600471 388.275200
   2859   2858   2871     1   110.5600475 386.601600
   2859   2858   2872     1   110.5600475 386.601600
   2859   2860   2875     1   117.6800502 383.254400
   2860   2859   2873     1   108.8800464 416.726400
   2860   2859   2874     1   108.8800464 416.726400
   2863   2852   2864     1   109.7500473 328.025600
   2865   2853   2866     1   109.7500473 328.025600
   2867   2854   2868     1   107.5800459 329.699200
   2869   2856   2870     1   107.5800459 329.699200
   2871   2858   2872     1   109.7500473 328.025600
   2873   2859   2874     1   108.4600466 328.025600
   2877   2878   2889     1   108.0100461 406.684800
   2877   2878   2890     1   108.0100461 406.684800
   2877   2879   2891     1   108.0100461 406.684800
   2877   2879   2892     1   108.0100461 406.684800
   2877   2884   2897     1   108.0100461 406.684800
   2877   2884   2898     1   108.0100461 406.684800
   2878   2877   2902     1   110.1100470 384.091200
   2878   2880   2893     1   109.8000471 387.438400
   2878   2880   2894     1   109.8000471 387.438400
   2879   2877   2902     1   110.1100470 384.091200
   2879   2882   2895     1   109.8000471 387.438400
   2879   2882   2896     1   109.8000471 387.438400
   2880   2878   2889     1   110.5600475 386.601600
   2880   2878   2890     1   110.5600475 386.601600
   2881   2880   2893     1   108.7700466 392.459200
   2881   2880   2894     1   108.7700466 392.459200
   2881   4443   4444     1   117.5500507 404.174400
   2882   2879   2891     1   110.5600475 386.601600
   2882   2879   2892     1   110.5600475 386.601600
   2883   2882   2895     1   108.7700466 392.459200
   2883   2882   2896     1   108.7700466 392.459200
   2883   4455   4456     1   117.5500507 404.174400
   2884   2877   2902     1   110.1100470 384.091200
   2884   2885   2899     1   109.5600471 388.275200
   2884   2885   2900     1   109.5600471 388.275200
   2885   2884   2897     1   110.5600475 386.601600
   2885   2884   2898     1   110.5600475 386.601600
   2885   2886   2901     1   117.6800502 383.254400
   2886   2885   2899     1   108.8800464 416.726400
   2886   2885   2900     1   108.8800464 416.726400
   2889   2878   2890     1   109.7500473 328.025600
   2891   2879   2892     1   109.7500473 328.025600
   2893   2880   2894     1   107.5800459 329.699200
   2895   2882   2896     1   107.5800459 329.699200
   2897   2884   2898     1   109.7500473 328.025600
   2899   2885   2900     1   108.4600466 328.025600
   2903   2904   2915     1   108.0100461 406.684800
   2903   2904   2916     1   108.0100461 406.684800
   2903   2905   2917     1   108.0100461 406.684800
   2903   2905   2918     1   108.0100461 406.684800
   2903   2910   2923     1   108.0100461 406.684800
   2903   2910   2924     1   108.0100461 406.684800
   2904   2903   2928     1   110.1100470 384.091200
   2904   2906   2919     1   109.8000471 387.438400
   2904   2906   2920     1   109.8000471 387.438400
   2905   2903   2928     1   110.1100470 384.091200
   2905   2908   2921     1   109.8000471 387.438400
   2905   2908   2922     1   109.8000471 387.438400
   2906   2904   2915     1   110.5600475 386.601600
   2906   2904   2916     1   110.5600475 386.601600
   2907   2906   2919     1   108.7700466 392.459200
   2907   2906   2920     1   108.7700466 392.459200
   2907   4467   4468     1   117.5500507 404.174400
   2908   2905   2917     1   110.5600475 386.601600
   2908   2905   2918     1   110.5600475 386.601600
   2909   2908   2921     1   108.7700466 392.459200
   2909   2908   2922     1   108.7700466 392.459200
   2909   4479   4480     1   117.5500507 404.174400
   2910   2903   2928     1   110.1100470 384.091200
   2910   2911   2925     1   109.5600471 388.275200
   2910   2911   2926     1   109.5600471 388.275200
   2911   2910   2923     1   110.5600475 386.601600
   2911   2910   2924     1   110.5600475 386.601600
   2911   2912   2927     1   117.6800502 383.254400
   2912   2911   2925     1   108.8800464 416.726400
   2912   2911   2926     1   108.8800464 416.726400
   2915   2904   2916     1   109.7500473 328.025600
   2917   2905   2918     1   109.7500473 328.025600
   2919   2906   2920     1   107.5800459 329.699200
   2921   2908   2922     1   107.5800459 329.699200
   2923   2910   2924     1   109.7500473 328.025600
   2925   2911   2926     1   108.4600466 328.025600
   2929   2930   2941     1   108.0100461 406.684800
   2929   2930   2942     1   108.0100461 406.684800
   2929   2931   2943     1   108.0100461 406.684800
   2929   2931   2944     1   108.0100461 406.684800
   2929   2936   2949     1   108.0100461 406.684800
   2929   2936   2950     1   108.0100461 406.684800
   2930   2929   2954     1   110.1100470 384.091200
   2930   2932   2945     1   109.8000471 387.438400
   2930   2932   2946     1   109.8000471 387.438400
   2931   2929   2954     1   110.1100470 384.091200
   2931   2934   2947     1   109.8000471 387.438400
   2931   2934   2948     1   109.8000471 387.438400
   2932   2930   2941     1   110.5600475 386.601600
   2932   2930   2942     1   110.5600475 386.601600
   2933   2932   2945     1   108.7700466 392.459200
   2933   2932   2946     1   108.7700466 392.459200
   2933   4491   4492     1   117.5500507 404.174400
   2934   2931   2943     1   110.5600475 386.601600
   2934   2931   2944     1   110.5600475 386.601600
   2935   2934   2947     1   108.7700466 392.459200
   2935   2934   2948     1   108.7700466 392.459200
   2935   4503   4504     1   117.5500507 404.174400
   2936   2929   2954     1   110.1100470 384.091200
   2936   2937   2951     1   109.5600471 388.275200
   2936   2937   2952     1   109.5600471 388.275200
   2937   2936   2949     1   110.5600475 386.601600
   2937   2936   2950     1   110.5600475 386.601600
   2937   2938   2953     1   117.6800502 383.254400
   2938   2937   2951     1   108.8800464 416.726400
   2938   2937   2952     1   108.8800464 416.726400
   2941   2930   2942     1   109.7500473 328.025600
   2943   2931   2944     1   109.7500473 328.025600
   2945   2932   2946     1   107.5800459 329.699200
   2947   2934   2948     1   107.5800459 329.699200
   2949   2936   2950     1   109.7500473 328.025600
   2951   2937   2952     1   108.4600466 328.025600
   2955   2956   2967     1   108.0100461 406.684800
   2955   2956   2968     1   108.0100461 406.684800
   2955   2957   2969     1   108.0100461 406.684800
   2955   2957   2970     1   108.0100461 406.684800
   2955   2962   2975     1   108.0100461 406.684800
   2955   2962   2976     1   108.0100461 406.684800
   2956   2955   2980     1   110.1100470 384.091200
   2956   2958   2971     1   109.8000471 387.438400
   2956   2958   2972     1   109.8000471 387.438400
   2957   2955   2980     1   110.1100470 384.091200
   2957   2960   2973     1   109.8000471 387.438400
   2957   2960   2974     1   109.8000471 387.438400
   2958   2956   2967     1   110.5600475 386.601600
   2958   2956   2968     1   110.5600475 386.601600
   2959   2958   2971     1   108.7700466 392.459200
   2959   2958   2972     1   108.7700466 392.459200
   2959   4515   4516     1   117.5500507 404.174400
   2960   2957   2969     1   110.5600475 386.601600
   2960   2957   2970     1   110.5600475 386.601600
   2961   2960   2973     1   108.7700466 392.459200
   2961   2960   2974     1   108.7700466 392.459200
   2961   4527   4528     1   117.5500507 404.174400
   2962   2955   2980     1   110.1100470 384.091200
   2962   2963   2977     1   109.5600471 388.275200
   2962   2963   2978     1   109.5600471 388.275200
   2963   2962   2975     1   110.5600475 386.601600
   2963   2962   2976     1   110.5600475 386.601600
   2963   2964   2979     1   117.6800502 383.254400
   2964   2963   2977     1   108.8800464 416.726400
   2964   2963   2978     1   108.8800464 416.726400
   2967   2956   2968     1   109.7500473 328.025600
   2969   2957   2970     1   109.7500473 328.025600
   2971   2958   2972     1   107.5800459 329.699200
   2973   2960   2974     1   107.5800459 329.699200
   2975   2962   2976     1   109.7500473 328.025600
   2977   2963   2978     1   108.4600466 328.025600
   2981   2982   2993     1   108.0100461 406.684800
   2981   2982   2994     1   108.0100461 406.684800
   2981   2983   2995     1   108.0100461 406.684800
   2981   2983   2996     1   108.0100461 406.684800
   2981   2988   3001     1   108.0100461 406.684800
   2981   2988   3002     1   108.0100461 406.684800
   2982   2981   3006     1   110.1100470 384.091200
   2982   2984   2997     1   109.8000471 387.438400
   2982   2984   2998     1   109.8000471 387.438400
   2983   2981   3006     1   110.1100470 384.091200
   2983   2986   2999     1   109.8000471 387.438400
   2983   2986   3000     1   109.8000471 387.438400
   2984   2982   2993     1   110.5600475 386.601600
   2984   2982   2994     1   110.5600475 386.601600
   2985   2984   2997     1   108.7700466 392.459200
   2985   2984   2998     1   108.7700466 392.459200
   2985   4539   4540     1   117.5500507 404.174400
   2986   2983   2995     1   110.5600475 386.601600
   2986   2983   2996     1   110.5600475 386.601600
   2987   2986   2999     1   108.7700466 392.459200
   2987   2986   3000     1   108.7700466 392.459200
   2987   4551   4552     1   117.5500507 404.174400
   2988   2981   3006     1   110.1100470 384.091200
   2988   2989   3003     1   109.5600471 388.275200
   2988   2989   3004     1   109.5600471 388.275200
   2989   2988   3001     1   110.5600475 386.601600
   2989   2988   3002     1   110.5600475 386.601600
   2989   2990   3005     1   117.6800502 383.254400
   2990   2989   3003     1   108.8800464 416.726400
   2990   2989   3004     1   108.8800464 416.726400
   2993   2982   2994     1   109.7500473 328.025600
   2995   2983   2996     1   109.7500473 328.025600
   2997   2984   2998     1   107.5800459 329.699200
   2999   2986   3000     1   107.5800459 329.699200
   3001   2988   3002     1   109.7500473 328.025600
   3003   2989   3004     1   108.4600466 328.025600
   3007   3008   3019     1   108.0100461 406.684800
   3007   3008   3020     1   108.0100461 406.684800
   3007   3009   3021     1   108.0100461 406.684800
   3007   3009   3022     1   108.0100461 406.684800
   3007   3014   3027     1   108.0100461 406.684800
   3007   3014   3028     1   108.0100461 406.684800
   3008   3007   3032     1   110.1100470 384.091200
   3008   3010   3023     1   109.8000471 387.438400
   3008   3010   3024     1   109.8000471 387.438400
   3009   3007   3032     1   110.1100470 384.091200
   3009   3012   3025     1   109.8000471 387.438400
   3009   3012   3026     1   109.8000471 387.438400
   3010   3008   3019     1   110.5600475 386.601600
   3010   3008   3020     1   110.5600475 386.601600
   3011   3010   3023     1   108.7700466 392.459200
   3011   3010   3024     1   108.7700466 392.459200
   3011   4563   4564     1   117.5500507 404.174400
   3012   3009   3021     1   110.5600475 386.601600
   3012   3009   3022     1   110.5600475 386.601600
   3013   3012   3025     1   108.7700466 392.459200
   3013   3012   3026     1   108.7700466 392.459200
   3013   4575   4576     1   117.5500507 404.174400
   3014   3007   3032     1   110.1100470 384.091200
   3014   3015   3029     1   109.5600471 388.275200
   3014   3015   3030     1   109.5600471 388.275200
   3015   3014   3027     1   110.5600475 386.601600
   3015   3014   3028     1   110.5600475 386.601600
   3015   3016   3031     1   117.6800502 383.254400
   3016   3015   3029     1   108.8800464 416.726400
   3016   3015   3030     1   108.8800464 416.726400
   3019   3008   3020     1   109.7500473 328.025600
   3021   3009   3022     1   109.7500473 328.025600
   3023   3010   3024     1   107.5800459 329.699200
   3025   3012   3026     1   107.5800459 329.699200
   3027   3014   3028     1   109.7500473 328.025600
   3029   3015   3030     1   108.4600466 328.025600
   3033   3034   3045     1   108.0100461 406.684800
   3033   3034   3046     1   108.0100461 406.684800
   3033   3035   3047     1   108.0100461 406.684800
   3033   3035   3048     1   108.0100461 406.684800
   3033   3040   3053     1   108.0100461 406.684800
   3033   3040   3054     1   108.0100461 406.684800
   3034   3033   3058     1   110.1100470 384.091200
   3034   3036   3049     1   109.8000471 387.438400
   3034   3036   3050     1   109.8000471 387.438400
   3035   3033   3058     1   110.1100470 384.091200
   3035   3038   3051     1   109.8000471 387.438400
   3035   3038   3052     1   109.8000471 387.438400
   3036   3034   3045     1   110.5600475 386.601600
   3036   3034   3046     1   110.5600475 386.601600
   3037   3036   3049     1   108.7700466 392.459200
   3037   3036   3050     1   108.7700466 392.459200
   3037   4587   4588     1   117.5500507 404.174400
   3038   3035   3047     1   110.5600475 386.601600
   3038   3035   3048     1   110.5600475 386.601600
   3039   3038   3051     1   108.7700466 392.459200
   3039   3038   3052     1   108.7700466 392.459200
   3039   4599   4600     1   117.5500507 404.174400
   3040   3033   3058     1   110.1100470 384.091200
   3040   3041   3055     1   109.5600471 388.275200
   3040   3041   3056     1   109.5600471 388.275200
   3041   3040   3053     1   110.5600475 386.601600
   3041   3040   3054     1   110.5600475 386.601600
   3041   3042   3057     1   117.6800502 383.254400
   3042   3041   3055     1   108.8800464 416.726400
   3042   3041   3056     1   108.8800464 416.726400
   3045   3034   3046     1   109.7500473 328.025600
   3047   3035   3048     1   109.7500473 328.025600
   3049   3036   3050     1   107.5800459 329.699200
   3051   3038   3052     1   107.5800459 329.699200
   3053   3040   3054     1   109.7500473 328.025600
   3055   3041   3056     1   108.4600466 328.025600
   3059   3060   3071     1   108.0100461 406.684800
   3059   3060   3072     1   108.0100461 406.684800
   3059   3061   3073     1   108.0100461 406.684800
   3059   3061   3074     1   108.0100461 406.684800
   3059   3066   3079     1   108.0100461 406.684800
   3059   3066   3080     1   108.0100461 406.684800
   3060   3059   3084     1   110.1100470 384.091200
   3060   3062   3075     1   109.8000471 387.438400
   3060   3062   3076     1   109.8000471 387.438400
   3061   3059   3084     1   110.1100470 384.091200
   3061   3064   3077     1   109.8000471 387.438400
   3061   3064   3078     1   109.8000471 387.438400
   3062   3060   3071     1   110.5600475 386.601600
   3062   3060   3072     1   110.5600475 386.601600
   3063   3062   3075     1   108.7700466 392.459200
   3063   3062   3076     1   108.7700466 392.459200
   3063   4611   4612     1   117.5500507 404.174400
   3064   3061   3073     1   110.5600475 386.601600
   3064   3061   3074     1   110.5600475 386.601600
   3065   3064   3077     1   108.7700466 392.459200
   3065   3064   3078     1   108.7700466 392.459200
   3065   4623   4624     1   117.5500507 404.174400
   3066   3059   3084     1   110.1100470 384.091200
   3066   3067   3081     1   109.5600471 388.275200
   3066   3067   3082     1   109.5600471 388.275200
   3067   3066   3079     1   110.5600475 386.601600
   3067   3066   3080     1   110.5600475 386.601600
   3067   3068   3083     1   117.6800502 383.254400
   3068   3067   3081     1   108.8800464 416.726400
   3068   3067   3082     1   108.8800464 416.726400
   3071   3060   3072     1   109.7500473 328.025600
   3073   3061   3074     1   109.7500473 328.025600
   3075   3062   3076     1   107.5800459 329.699200
   3077   3064   3078     1   107.5800459 329.699200
   3079   3066   3080     1   109.7500473 328.025600
   3081   3067   3082     1   108.4600466 328.025600
   3085   3086   3097     1   108.0100461 406.684800
   3085   3086   3098     1   108.0100461 406.684800
   3085   3087   3099     1   108.0100461 406.684800
   3085   3087   3100     1   108.0100461 406.684800
   3085   3092   3105     1   108.0100461 406.684800
   3085   3092   3106     1   108.0100461 406.684800
   3086   3085   3110     1   110.1100470 384.091200
   3086   3088   3101     1   109.8000471 387.438400
   3086   3088   3102     1   109.8000471 387.438400
   3087   3085   3110     1   110.1100470 384.091200
   3087   3090   3103     1   109.8000471 387.438400
   3087   3090   3104     1   109.8000471 387.438400
   3088   3086   3097     1   110.5600475 386.601600
   3088   3086   3098     1   110.5600475 386.601600
   3089   3088   3101     1   108.7700466 392.459200
   3089   3088   3102     1   108.7700466 392.459200
   3089   4635   4636     1   117.5500507 404.174400
   3090   3087   3099     1   110.5600475 386.601600
   3090   3087   3100     1   110.5600475 386.601600
   3091   3090   3103     1   108.7700466 392.459200
   3091   3090   3104     1   108.7700466 392.459200
   3091   4647   4648     1   117.5500507 404.174400
   3092   3085   3110     1   110.1100470 384.091200
   3092   3093   3107     1   109.5600471 388.275200
   3092   3093   3108     1   109.5600471 388.275200
   3093   3092   3105     1   110.5600475 386.601600
   3093   3092   3106     1   110.5600475 386.601600
   3093   3094   3109     1   117.6800502 383.254400
   3094   3093   3107     1   108.8800464 416.726400
   3094   3093   3108     1   108.8800464 416.726400
   3097   3086   3098     1   109.7500473 328.025600
   3099   3087   3100     1   109.7500473 328.025600
   3101   3088   3102     1   107.5800459 329.699200
   3103   3090   3104     1   107.5800459 329.699200
   3105   3092   3106     1   109.7500473 328.025600
   3107   3093   3108     1   108.4600466 328.025600
   3111   3112   3123     1   108.0100461 406.684800
   3111   3112   3124     1   108.0100461 406.684800
   3111   3113   3125     1   108.0100461 406.684800
   3111   3113   3126     1   108.0100461 406.684800
   3111   3118   3131     1   108.0100461 406.684800
   3111   3118   3132     1   108.0100461 406.684800
   3112   3111   3136     1   110.1100470 384.091200
   3112   3114   3127     1   109.8000471 387.438400
   3112   3114   3128     1   109.8000471 387.438400
   3113   3111   3136     1   110.1100470 384.091200
   3113   3116   3129     1   109.8000471 387.438400
   3113   3116   3130     1   109.8000471 387.438400
   3114   3112   3123     1   110.5600475 386.601600
   3114   3112   3124     1   110.5600475 386.601600
   3115   3114   3127     1   108.7700466 392.459200
   3115   3114   3128     1   108.7700466 392.459200
   3115   4659   4660     1   117.5500507 404.174400
   3116   3113   3125     1   110.5600475 386.601600
   3116   3113   3126     1   110.5600475 386.601600
   3117   3116   3129     1   108.7700466 392.459200
   3117   3116   3130     1   108.7700466 392.459200
   3117   4671   4672     1   117.5500507 404.174400
   3118   3111   3136     1   110.1100470 384.091200
   3118   3119   3133     1   109.5600471 388.275200
   3118   3119   3134     1   109.5600471 388.275200
   3119   3118   3131     1   110.5600475 386.601600
   3119   3118   3132     1   110.5600475 386.601600
   3119   3120   3135     1   117.6800502 383.254400
   3120   3119   3133     1   108.8800464 416.726400
   3120   3119   3134     1   108.8800464 416.726400
   3123   3112   3124     1   109.7500473 328.025600
   3125   3113   3126     1   109.7500473 328.025600
   3127   3114   3128     1   107.5800459 329.699200
   3129   3116   3130     1   107.5800459 329.699200
   3131   3118   3132     1   109.7500473 328.025600
   3133   3119   3134     1   108.4600466 328.025600
   3137   3138   3149     1   108.0100461 406.684800
   3137   3138   3150     1   108.0100461 406.684800
   3137   3139   3151     1   108.0100461 406.684800
   3137   3139   3152     1   108.0100461 406.684800
   3137   3144   3157     1   108.0100461 406.684800
   3137   3144   3158     1   108.0100461 406.684800
   3138   3137   3162     1   110.1100470 384.091200
   3138   3140   3153     1   109.8000471 387.438400
   3138   3140   3154     1   109.8000471 387.438400
   3139   3137   3162     1   110.1100470 384.091200
   3139   3142   3155     1   109.8000471 387.438400
   3139   3142   3156     1   109.8000471 387.438400
   3140   3138   3149     1   110.5600475 386.601600
   3140   3138   3150     1   110.5600475 386.601600
   3141   3140   3153     1   108.7700466 392.459200
   3141   3140   3154     1   108.7700466 392.459200
   3141   4683   4684     1   117.5500507 404.174400
   3142   3139   3151     1   110.5600475 386.601600
   3142   3139   3152     1   110.5600475 386.601600
   3143   3142   3155     1   108.7700466 392.459200
   3143   3142   3156     1   108.7700466 392.459200
   3143   4695   4696     1   117.5500507 404.174400
   3144   3137   3162     1   110.1100470 384.091200
   3144   3145   3159     1   109.5600471 388.275200
   3144   3145   3160     1   109.5600471 388.275200
   3145   3144   3157     1   110.5600475 386.601600
   3145   3144   3158     1   110.5600475 386.601600
   3145   3146   3161     1   117.6800502 383.254400
   3146   3145   3159     1   108.8800464 416.726400
   3146   3145   3160     1   108.8800464 416.726400
   3149   3138   3150     1   109.7500473 328.025600
   3151   3139   3152     1   109.7500473 328.025600
   3153   3140   3154     1   107.5800459 329.699200
   3155   3142   3156     1   107.5800459 329.699200
   3157   3144   3158     1   109.7500473 328.025600
   3159   3145   3160     1   108.4600466 328.025600
   3163   3164   3175     1   108.0100461 406.684800
   3163   3164   3176     1   108.0100461 406.684800
   3163   3165   3177     1   108.0100461 406.684800
   3163   3165   3178     1   108.0100461 406.684800
   3163   3170   3183     1   108.0100461 406.684800
   3163   3170   3184     1   108.0100461 406.684800
   3164   3163   3188     1   110.1100470 384.091200
   3164   3166   3179     1   109.8000471 387.438400
   3164   3166   3180     1   109.8000471 387.438400
   3165   3163   3188     1   110.1100470 384.091200
   3165   3168   3181     1   109.8000471 387.438400
   3165   3168   3182     1   109.8000471 387.438400
   3166   3164   3175     1   110.5600475 386.601600
   3166   3164   3176     1   110.5600475 386.601600
   3167   3166   3179     1   108.7700466 392.459200
   3167   3166   3180     1   108.7700466 392.459200
   3167   4707   4708     1   117.5500507 404.174400
   3168   3165   3177     1   110.5600475 386.601600
   3168   3165   3178     1   110.5600475 386.601600
   3169   3168   3181     1   108.7700466 392.459200
   3169   3168   3182     1   108.7700466 392.459200
   3169   4719   4720     1   117.5500507 404.174400
   3170   3163   3188     1   110.1100470 384.091200
   3170   3171   3185     1   109.5600471 388.275200
   3170   3171   3186     1   109.5600471 388.275200
   3171   3170   3183     1   110.5600475 386.601600
   3171   3170   3184     1   110.5600475 386.601600
   3171   3172   3187     1   117.6800502 383.254400
   3172   3171   3185     1   108.8800464 416.726400
   3172   3171   3186     1   108.8800464 416.726400
   3175   3164   3176     1   109.7500473 328.025600
   3177   3165   3178     1   109.7500473 328.025600
   3179   3166   3180     1   107.5800459 329.699200
   3181   3168   3182     1   107.5800459 329.699200
   3183   3170   3184     1   109.7500473 328.025600
   3185   3171   3186     1   108.4600466 328.025600
   3189   3190   3201     1   108.0100461 406.684800
   3189   3190   3202     1   108.0100461 406.684800
   3189   3191   3203     1   108.0100461 406.684800
   3189   3191   3204     1   108.0100461 406.684800
   3189   3196   3209     1   108.0100461 406.684800
   3189   3196   3210     1   108.0100461 406.684800
   3190   3189   3214     1   110.1100470 384.091200
   3190   3192   3205     1   109.8000471 387.438400
   3190   3192   3206     1   109.8000471 387.438400
   3191   3189   3214     1   110.1100470 384.091200
   3191   3194   3207     1   109.8000471 387.438400
   3191   3194   3208     1   109.8000471 387.438400
   3192   3190   3201     1   110.5600475 386.601600
   3192   3190   3202     1   110.5600475 386.601600
   3193   3192   3205     1   108.7700466 392.459200
   3193   3192   3206     1   108.7700466 392.459200
   3193   4731   4732     1   117.5500507 404.174400
   3194   3191   3203     1   110.5600475 386.601600
   3194   3191   3204     1   110.5600475 386.601600
   3195   3194   3207     1   108.7700466 392.459200
   3195   3194   3208     1   108.7700466 392.459200
   3195   4743   4744     1   117.5500507 404.174400
   3196   3189   3214     1   110.1100470 384.091200
   3196   3197   3211     1   109.5600471 388.275200
   3196   3197   3212     1   109.5600471 388.275200
   3197   3196   3209     1   110.5600475 386.601600
   3197   3196   3210     1   110.5600475 386.601600
   3197   3198   3213     1   117.6800502 383.254400
   3198   3197   3211     1   108.8800464 416.726400
   3198   3197   3212     1   108.8800464 416.726400
   3201   3190   3202     1   109.7500473 328.025600
   3203   3191   3204     1   109.7500473 328.025600
   3205   3192   3206     1   107.5800459 329.699200
   3207   3194   3208     1   107.5800459 329.699200
   3209   3196   3210     1   109.7500473 328.025600
   3211   3197   3212     1   108.4600466 328.025600
   3215   3216   3227     1   108.0100461 406.684800
   3215   3216   3228     1   108.0100461 406.684800
   3215   3217   3229     1   108.0100461 406.684800
   3215   3217   3230     1   108.0100461 406.684800
   3215   3222   3235     1   108.0100461 406.684800
   3215   3222   3236     1   108.0100461 406.684800
   3216   3215   3240     1   110.1100470 384.091200
   3216   3218   3231     1   109.8000471 387.438400
   3216   3218   3232     1   109.8000471 387.438400
   3217   3215   3240     1   110.1100470 384.091200
   3217   3220   3233     1   109.8000471 387.438400
   3217   3220   3234     1   109.8000471 387.438400
   3218   3216   3227     1   110.5600475 386.601600
   3218   3216   3228     1   110.5600475 386.601600
   3219   3218   3231     1   108.7700466 392.459200
   3219   3218   3232     1   108.7700466 392.459200
   3219   4755   4756     1   117.5500507 404.174400
   3220   3217   3229     1   110.5600475 386.601600
   3220   3217   3230     1   110.5600475 386.601600
   3221   3220   3233     1   108.7700466 392.459200
   3221   3220   3234     1   108.7700466 392.459200
   3221   4767   4768     1   117.5500507 404.174400
   3222   3215   3240     1   110.1100470 384.091200
   3222   3223   3237     1   109.5600471 388.275200
   3222   3223   3238     1   109.5600471 388.275200
   3223   3222   3235     1   110.5600475 386.601600
   3223   3222   3236     1   110.5600475 386.601600
   3223   3224   3239     1   117.6800502 383.254400
   3224   3223   3237     1   108.8800464 416.726400
   3224   3223   3238     1   108.8800464 416.726400
   3227   3216   3228     1   109.7500473 328.025600
   3229   3217   3230     1   109.7500473 328.025600
   3231   3218   3232     1   107.5800459 329.699200
   3233   3220   3234     1   107.5800459 329.699200
   3235   3222   3236     1   109.7500473 328.025600
   3237   3223   3238     1   108.4600466 328.025600
   3241   3242   3253     1   108.0100461 406.684800
   3241   3242   3254     1   108.0100461 406.684800
   3241   3243   3255     1   108.0100461 406.684800
   3241   3243   3256     1   108.0100461 406.684800
   3241   3248   3261     1   108.0100461 406.684800
   3241   3248   3262     1   108.0100461 406.684800
   3242   3241   3266     1   110.1100470 384.091200
   3242   3244   3257     1   109.8000471 387.438400
   3242   3244   3258     1   109.8000471 387.438400
   3243   3241   3266     1   110.1100470 384.091200
   3243   3246   3259     1   109.8000471 387.438400
   3243   3246   3260     1   109.8000471 387.438400
   3244   3242   3253     1   110.5600475 386.601600
   3244   3242   3254     1   110.5600475 386.601600
   3245   3244   3257     1   108.7700466 392.459200
   3245   3244   3258     1   108.7700466 392.459200
   3245   4779   4780     1   117.5500507 404.174400
   3246   3243   3255     1   110.5600475 386.601600
   3246   3243   3256     1   110.5600475 386.601600
   3247   3246   3259     1   108.7700466 392.459200
   3247   3246   3260     1   108.7700466 392.459200
   3247   4791   4792     1   117.5500507 404.174400
   3248   3241   3266     1   110.1100470 384.091200
   3248   3249   3263     1   109.5600471 388.275200
   3248   3249   3264     1   109.5600471 388.275200
   3249   3248   3261     1   110.5600475 386.601600
   3249   3248   3262     1   110.5600475 386.601600
   3249   3250   3265     1   117.6800502 383.254400
   3250   3249   3263     1   108.8800464 416.726400
   3250   3249   3264     1   108.8800464 416.726400
   3253   3242   3254     1   109.7500473 328.025600
   3255   3243   3256     1   109.7500473 328.025600
   3257   3244   3258     1   107.5800459 329.699200
   3259   3246   3260     1   107.5800459 329.699200
   3261   3248   3262     1   109.7500473 328.025600
   3263   3249   3264     1   108.4600466 328.025600
   3267   3269   3271     1   108.8800464 416.726400
   3267   3269   3272     1   108.8800464 416.726400
   3268   3267   3269     1   117.6800502 383.254400
   3269   3270   3273     1   110.5600475 386.601600
   3269   3270   3274     1   110.5600475 386.601600
   3270   3269   3271     1   109.5600471 388.275200
   3270   3269   3272     1   109.5600471 388.275200
   3270   3275   3276     1   110.1100470 384.091200
   3270   3275   3277     1   110.1100470 384.091200
   3270   3275   3278     1   110.1100470 384.091200
   3271   3269   3272     1   108.4600466 328.025600
   3273   3270   3275     1   108.0100461 406.684800
   3273   3270   3274     1   109.7500473 328.025600
   3274   3270   3275     1   108.0100461 406.684800
   3276   3275   3277     1   108.3000464 339.740800
   3276   3275   3278     1   108.3000464 339.740800
   3277   3275   3278     1   108.3000464 339.740800
   3279   3281   3283     1   108.8800464 416.726400
   3279   3281   3284     1   108.8800464 416.726400
   3280   3279   3281     1   117.6800502 383.254400
   3281   3282   3285     1   110.5600475 386.601600
   3281   3282   3286     1   110.5600475 386.601600
   3282   3287   3288     1   110.1100470 384.091200
   3282   3287   3289     1   110.1100470 384.091200
   3282   3287   3290     1   110.1100470 384.091200
   3282   3281   3283     1   109.5600471 388.275200
   3282   3281   3284     1   109.5600471 388.275200
   3283   3281   3284     1   108.4600466 328.025600
   3285   3282   3287     1   108.0100461 406.684800
   3285   3282   3286     1   109.7500473 328.025600
   3286   3282   3287     1   108.0100461 406.684800
   3288   3287   3289     1   108.3000464 339.740800
   3288   3287   3290     1   108.3000464 339.740800
   3289   3287   3290     1   108.3000464 339.740800
   3291   3293   3295     1   108.8800464 416.726400
   3291   3293   3296     1   108.8800464 416.726400
   3292   3291   3293     1   117.6800502 383.254400
   3293   3294   3297     1   110.5600475 386.601600
   3293   3294   3298     1   110.5600475 386.601600
   3294   3293   3295     1   109.5600471 388.275200
   3294   3293   3296     1   109.5600471 388.275200
   3294   3299   3300     1   110.1100470 384.091200
   3294   3299   3301     1   110.1100470 384.091200
   3294   3299   3302     1   110.1100470 384.091200
   3295   3293   3296     1   108.4600466 328.025600
   3297   3294   3299     1   108.0100461 406.684800
   3297   3294   3298     1   109.7500473 328.025600
   3298   3294   3299     1   108.0100461 406.684800
   3300   3299   3301     1   108.3000464 339.740800
   3300   3299   3302     1   108.3000464 339.740800
   3301   3299   3302     1   108.3000464 339.740800
   3303   3305   3307     1   108.8800464 416.726400
   3303   3305   3308     1   108.8800464 416.726400
   3304   3303   3305     1   117.6800502 383.254400
   3305   3306   3309     1   110.5600475 386.601600
   3305   3306   3310     1   110.5600475 386.601600
   3306   3311   3312     1   110.1100470 384.091200
   3306   3311   3313     1   110.1100470 384.091200
   3306   3311   3314     1   110.1100470 384.091200
   3306   3305   3307     1   109.5600471 388.275200
   3306   3305   3308     1   109.5600471 388.275200
   3307   3305   3308     1   108.4600466 328.025600
   3309   3306   3311     1   108.0100461 406.684800
   3309   3306   3310     1   109.7500473 328.025600
   3310   3306   3311     1   108.0100461 406.684800
   3312   3311   3313     1   108.3000464 339.740800
   3312   3311   3314     1   108.3000464 339.740800
   3313   3311   3314     1   108.3000464 339.740800
   3315   3317   3319     1   108.8800464 416.726400
   3315   3317   3320     1   108.8800464 416.726400
   3316   3315   3317     1   117.6800502 383.254400
   3317   3318   3321     1   110.5600475 386.601600
   3317   3318   3322     1   110.5600475 386.601600
   3318   3317   3319     1   109.5600471 388.275200
   3318   3317   3320     1   109.5600471 388.275200
   3318   3323   3324     1   110.1100470 384.091200
   3318   3323   3325     1   110.1100470 384.091200
   3318   3323   3326     1   110.1100470 384.091200
   3319   3317   3320     1   108.4600466 328.025600
   3321   3318   3323     1   108.0100461 406.684800
   3321   3318   3322     1   109.7500473 328.025600
   3322   3318   3323     1   108.0100461 406.684800
   3324   3323   3325     1   108.3000464 339.740800
   3324   3323   3326     1   108.3000464 339.740800
   3325   3323   3326     1   108.3000464 339.740800
   3327   3329   3331     1   108.8800464 416.726400
   3327   3329   3332     1   108.8800464 416.726400
   3328   3327   3329     1   117.6800502 383.254400
   3329   3330   3333     1   110.5600475 386.601600
   3329   3330   3334     1   110.5600475 386.601600
   3330   3335   3336     1   110.1100470 384.091200
   3330   3335   3337     1   110.1100470 384.091200
   3330   3335   3338     1   110.1100470 384.091200
   3330   3329   3331     1   109.5600471 388.275200
   3330   3329   3332     1   109.5600471 388.275200
   3331   3329   3332     1   108.4600466 328.025600
   3333   3330   3335     1   108.0100461 406.684800
   3333   3330   3334     1   109.7500473 328.025600
   3334   3330   3335     1   108.0100461 406.684800
   3336   3335   3337     1   108.3000464 339.740800
   3336   3335   3338     1   108.3000464 339.740800
   3337   3335   3338     1   108.3000464 339.740800
   3339   3341   3343     1   108.8800464 416.726400
   3339   3341   3344     1   108.8800464 416.726400
   3340   3339   3341     1   117.6800502 383.254400
   3341   3342   3345     1   110.5600475 386.601600
   3341   3342   3346     1   110.5600475 386.601600
   3342   3341   3343     1   109.5600471 388.275200
   3342   3341   3344     1   109.5600471 388.275200
   3342   3347   3348     1   110.1100470 384.091200
   3342   3347   3349     1   110.1100470 384.091200
   3342   3347   3350     1   110.1100470 384.091200
   3343   3341   3344     1   108.4600466 328.025600
   3345   3342   3347     1   108.0100461 406.684800
   3345   3342   3346     1   109.7500473 328.025600
   3346   3342   3347     1   108.0100461 406.684800
   3348   3347   3349     1   108.3000464 339.740800
   3348   3347   3350     1   108.3000464 339.740800
   3349   3347   3350     1   108.3000464 339.740800
   3351   3353   3355     1   108.8800464 416.726400
   3351   3353   3356     1   108.8800464 416.726400
   3352   3351   3353     1   117.6800502 383.254400
   3353   3354   3357     1   110.5600475 386.601600
   3353   3354   3358     1   110.5600475 386.601600
   3354   3359   3360     1   110.1100470 384.091200
   3354   3359   3361     1   110.1100470 384.091200
   3354   3359   3362     1   110.1100470 384.091200
   3354   3353   3355     1   109.5600471 388.275200
   3354   3353   3356     1   109.5600471 388.275200
   3355   3353   3356     1   108.4600466 328.025600
   3357   3354   3359     1   108.0100461 406.684800
   3357   3354   3358     1   109.7500473 328.025600
   3358   3354   3359     1   108.0100461 406.684800
   3360   3359   3361     1   108.3000464 339.740800
   3360   3359   3362     1   108.3000464 339.740800
   3361   3359   3362     1   108.3000464 339.740800
   3363   3365   3367     1   108.8800464 416.726400
   3363   3365   3368     1   108.8800464 416.726400
   3364   3363   3365     1   117.6800502 383.254400
   3365   3366   3369     1   110.5600475 386.601600
   3365   3366   3370     1   110.5600475 386.601600
   3366   3365   3367     1   109.5600471 388.275200
   3366   3365   3368     1   109.5600471 388.275200
   3366   3371   3372     1   110.1100470 384.091200
   3366   3371   3373     1   110.1100470 384.091200
   3366   3371   3374     1   110.1100470 384.091200
   3367   3365   3368     1   108.4600466 328.025600
   3369   3366   3371     1   108.0100461 406.684800
   3369   3366   3370     1   109.7500473 328.025600
   3370   3366   3371     1   108.0100461 406.684800
   3372   3371   3373     1   108.3000464 339.740800
   3372   3371   3374     1   108.3000464 339.740800
   3373   3371   3374     1   108.3000464 339.740800
   3375   3377   3379     1   108.8800464 416.726400
   3375   3377   3380     1   108.8800464 416.726400
   3376   3375   3377     1   117.6800502 383.254400
   3377   3378   3381     1   110.5600475 386.601600
   3377   3378   3382     1   110.5600475 386.601600
   3378   3383   3384     1   110.1100470 384.091200
   3378   3383   3385     1   110.1100470 384.091200
   3378   3383   3386     1   110.1100470 384.091200
   3378   3377   3379     1   109.5600471 388.275200
   3378   3377   3380     1   109.5600471 388.275200
   3379   3377   3380     1   108.4600466 328.025600
   3381   3378   3383     1   108.0100461 406.684800
   3381   3378   3382     1   109.7500473 328.025600
   3382   3378   3383     1   108.0100461 406.684800
   3384   3383   3385     1   108.3000464 339.740800
   3384   3383   3386     1   108.3000464 339.740800
   3385   3383   3386     1   108.3000464 339.740800
   3387   3389   3391     1   108.8800464 416.726400
   3387   3389   3392     1   108.8800464 416.726400
   3388   3387   3389     1   117.6800502 383.254400
   3389   3390   3393     1   110.5600475 386.601600
   3389   3390   3394     1   110.5600475 386.601600
   3390   3389   3391     1   109.5600471 388.275200
   3390   3389   3392     1   109.5600471 388.275200
   3390   3395   3396     1   110.1100470 384.091200
   3390   3395   3397     1   110.1100470 384.091200
   3390   3395   3398     1   110.1100470 384.091200
   3391   3389   3392     1   108.4600466 328.025600
   3393   3390   3395     1   108.0100461 406.684800
   3393   3390   3394     1   109.7500473 328.025600
   3394   3390   3395     1   108.0100461 406.684800
   3396   3395   3397     1   108.3000464 339.740800
   3396   3395   3398     1   108.3000464 339.740800
   3397   3395   3398     1   108.3000464 339.740800
   3399   3401   3403     1   108.8800464 416.726400
   3399   3401   3404     1   108.8800464 416.726400
   3400   3399   3401     1   117.6800502 383.254400
   3401   3402   3405     1   110.5600475 386.601600
   3401   3402   3406     1   110.5600475 386.601600
   3402   3407   3408     1   110.1100470 384.091200
   3402   3407   3409     1   110.1100470 384.091200
   3402   3407   3410     1   110.1100470 384.091200
   3402   3401   3403     1   109.5600471 388.275200
   3402   3401   3404     1   109.5600471 388.275200
   3403   3401   3404     1   108.4600466 328.025600
   3405   3402   3407     1   108.0100461 406.684800
   3405   3402   3406     1   109.7500473 328.025600
   3406   3402   3407     1   108.0100461 406.684800
   3408   3407   3409     1   108.3000464 339.740800
   3408   3407   3410     1   108.3000464 339.740800
   3409   3407   3410     1   108.3000464 339.740800
   3411   3413   3415     1   108.8800464 416.726400
   3411   3413   3416     1   108.8800464 416.726400
   3412   3411   3413     1   117.6800502 383.254400
   3413   3414   3417     1   110.5600475 386.601600
   3413   3414   3418     1   110.5600475 386.601600
   3414   3413   3415     1   109.5600471 388.275200
   3414   3413   3416     1   109.5600471 388.275200
   3414   3419   3420     1   110.1100470 384.091200
   3414   3419   3421     1   110.1100470 384.091200
   3414   3419   3422     1   110.1100470 384.091200
   3415   3413   3416     1   108.4600466 328.025600
   3417   3414   3419     1   108.0100461 406.684800
   3417   3414   3418     1   109.7500473 328.025600
   3418   3414   3419     1   108.0100461 406.684800
   3420   3419   3421     1   108.3000464 339.740800
   3420   3419   3422     1   108.3000464 339.740800
   3421   3419   3422     1   108.3000464 339.740800
   3423   3425   3427     1   108.8800464 416.726400
   3423   3425   3428     1   108.8800464 416.726400
   3424   3423   3425     1   117.6800502 383.254400
   3425   3426   3429     1   110.5600475 386.601600
   3425   3426   3430     1   110.5600475 386.601600
   3426   3431   3432     1   110.1100470 384.091200
   3426   3431   3433     1   110.1100470 384.091200
   3426   3431   3434     1   110.1100470 384.091200
   3426   3425   3427     1   109.5600471 388.275200
   3426   3425   3428     1   109.5600471 388.275200
   3427   3425   3428     1   108.4600466 328.025600
   3429   3426   3431     1   108.0100461 406.684800
   3429   3426   3430     1   109.7500473 328.025600
   3430   3426   3431     1   108.0100461 406.684800
   3432   3431   3433     1   108.3000464 339.740800
   3432   3431   3434     1   108.3000464 339.740800
   3433   3431   3434     1   108.3000464 339.740800
   3435   3437   3439     1   108.8800464 416.726400
   3435   3437   3440     1   108.8800464 416.726400
   3436   3435   3437     1   117.6800502 383.254400
   3437   3438   3441     1   110.5600475 386.601600
   3437   3438   3442     1   110.5600475 386.601600
   3438   3437   3439     1   109.5600471 388.275200
   3438   3437   3440     1   109.5600471 388.275200
   3438   3443   3444     1   110.1100470 384.091200
   3438   3443   3445     1   110.1100470 384.091200
   3438   3443   3446     1   110.1100470 384.091200
   3439   3437   3440     1   108.4600466 328.025600
   3441   3438   3443     1   108.0100461 406.684800
   3441   3438   3442     1   109.7500473 328.025600
   3442   3438   3443     1   108.0100461 406.684800
   3444   3443   3445     1   108.3000464 339.740800
   3444   3443   3446     1   108.3000464 339.740800
   3445   3443   3446     1   108.3000464 339.740800
   3447   3449   3451     1   108.8800464 416.726400
   3447   3449   3452     1   108.8800464 416.726400
   3448   3447   3449     1   117.6800502 383.254400
   3449   3450   3453     1   110.5600475 386.601600
   3449   3450   3454     1   110.5600475 386.601600
   3450   3455   3456     1   110.1100470 384.091200
   3450   3455   3457     1   110.1100470 384.091200
   3450   3455   3458     1   110.1100470 384.091200
   3450   3449   3451     1   109.5600471 388.275200
   3450   3449   3452     1   109.5600471 388.275200
   3451   3449   3452     1   108.4600466 328.025600
   3453   3450   3455     1   108.0100461 406.684800
   3453   3450   3454     1   109.7500473 328.025600
   3454   3450   3455     1   108.0100461 406.684800
   3456   3455   3457     1   108.3000464 339.740800
   3456   3455   3458     1   108.3000464 339.740800
   3457   3455   3458     1   108.3000464 339.740800
   3459   3461   3463     1   108.8800464 416.726400
   3459   3461   3464     1   108.8800464 416.726400
   3460   3459   3461     1   117.6800502 383.254400
   3461   3462   3465     1   110.5600475 386.601600
   3461   3462   3466     1   110.5600475 386.601600
   3462   3461   3463     1   109.5600471 388.275200
   3462   3461   3464     1   109.5600471 388.275200
   3462   3467   3468     1   110.1100470 384.091200
   3462   3467   3469     1   110.1100470 384.091200
   3462   3467   3470     1   110.1100470 384.091200
   3463   3461   3464     1   108.4600466 328.025600
   3465   3462   3467     1   108.0100461 406.684800
   3465   3462   3466     1   109.7500473 328.025600
   3466   3462   3467     1   108.0100461 406.684800
   3468   3467   3469     1   108.3000464 339.740800
   3468   3467   3470     1   108.3000464 339.740800
   3469   3467   3470     1   108.3000464 339.740800
   3471   3473   3475     1   108.8800464 416.726400
   3471   3473   3476     1   108.8800464 416.726400
   3472   3471   3473     1   117.6800502 383.254400
   3473   3474   3477     1   110.5600475 386.601600
   3473   3474   3478     1   110.5600475 386.601600
   3474   3479   3480     1   110.1100470 384.091200
   3474   3479   3481     1   110.1100470 384.091200
   3474   3479   3482     1   110.1100470 384.091200
   3474   3473   3475     1   109.5600471 388.275200
   3474   3473   3476     1   109.5600471 388.275200
   3475   3473   3476     1   108.4600466 328.025600
   3477   3474   3479     1   108.0100461 406.684800
   3477   3474   3478     1   109.7500473 328.025600
   3478   3474   3479     1   108.0100461 406.684800
   3480   3479   3481     1   108.3000464 339.740800
   3480   3479   3482     1   108.3000464 339.740800
   3481   3479   3482     1   108.3000464 339.740800
   3483   3485   3487     1   108.8800464 416.726400
   3483   3485   3488     1   108.8800464 416.726400
   3484   3483   3485     1   117.6800502 383.254400
   3485   3486   3489     1   110.5600475 386.601600
   3485   3486   3490     1   110.5600475 386.601600
   3486   3485   3487     1   109.5600471 388.275200
   3486   3485   3488     1   109.5600471 388.275200
   3486   3491   3492     1   110.1100470 384.091200
   3486   3491   3493     1   110.1100470 384.091200
   3486   3491   3494     1   110.1100470 384.091200
   3487   3485   3488     1   108.4600466 328.025600
   3489   3486   3491     1   108.0100461 406.684800
   3489   3486   3490     1   109.7500473 328.025600
   3490   3486   3491     1   108.0100461 406.684800
   3492   3491   3493     1   108.3000464 339.740800
   3492   3491   3494     1   108.3000464 339.740800
   3493   3491   3494     1   108.3000464 339.740800
   3495   3497   3499     1   108.8800464 416.726400
   3495   3497   3500     1   108.8800464 416.726400
   3496   3495   3497     1   117.6800502 383.254400
   3497   3498   3501     1   110.5600475 386.601600
   3497   3498   3502     1   110.5600475 386.601600
   3498   3503   3504     1   110.1100470 384.091200
   3498   3503   3505     1   110.1100470 384.091200
   3498   3503   3506     1   110.1100470 384.091200
   3498   3497   3499     1   109.5600471 388.275200
   3498   3497   3500     1   109.5600471 388.275200
   3499   3497   3500     1   108.4600466 328.025600
   3501   3498   3503     1   108.0100461 406.684800
   3501   3498   3502     1   109.7500473 328.025600
   3502   3498   3503     1   108.0100461 406.684800
   3504   3503   3505     1   108.3000464 339.740800
   3504   3503   3506     1   108.3000464 339.740800
   3505   3503   3506     1   108.3000464 339.740800
   3507   3509   3511     1   108.8800464 416.726400
   3507   3509   3512     1   108.8800464 416.726400
   3508   3507   3509     1   117.6800502 383.254400
   3509   3510   3513     1   110.5600475 386.601600
   3509   3510   3514     1   110.5600475 386.601600
   3510   3509   3511     1   109.5600471 388.275200
   3510   3509   3512     1   109.5600471 388.275200
   3510   3515   3516     1   110.1100470 384.091200
   3510   3515   3517     1   110.1100470 384.091200
   3510   3515   3518     1   110.1100470 384.091200
   3511   3509   3512     1   108.4600466 328.025600
   3513   3510   3515     1   108.0100461 406.684800
   3513   3510   3514     1   109.7500473 328.025600
   3514   3510   3515     1   108.0100461 406.684800
   3516   3515   3517     1   108.3000464 339.740800
   3516   3515   3518     1   108.3000464 339.740800
   3517   3515   3518     1   108.3000464 339.740800
   3519   3521   3523     1   108.8800464 416.726400
   3519   3521   3524     1   108.8800464 416.726400
   3520   3519   3521     1   117.6800502 383.254400
   3521   3522   3525     1   110.5600475 386.601600
   3521   3522   3526     1   110.5600475 386.601600
   3522   3527   3528     1   110.1100470 384.091200
   3522   3527   3529     1   110.1100470 384.091200
   3522   3527   3530     1   110.1100470 384.091200
   3522   3521   3523     1   109.5600471 388.275200
   3522   3521   3524     1   109.5600471 388.275200
   3523   3521   3524     1   108.4600466 328.025600
   3525   3522   3527     1   108.0100461 406.684800
   3525   3522   3526     1   109.7500473 328.025600
   3526   3522   3527     1   108.0100461 406.684800
   3528   3527   3529     1   108.3000464 339.740800
   3528   3527   3530     1   108.3000464 339.740800
   3529   3527   3530     1   108.3000464 339.740800
   3531   3533   3535     1   108.8800464 416.726400
   3531   3533   3536     1   108.8800464 416.726400
   3532   3531   3533     1   117.6800502 383.254400
   3533   3534   3537     1   110.5600475 386.601600
   3533   3534   3538     1   110.5600475 386.601600
   3534   3533   3535     1   109.5600471 388.275200
   3534   3533   3536     1   109.5600471 388.275200
   3534   3539   3540     1   110.1100470 384.091200
   3534   3539   3541     1   110.1100470 384.091200
   3534   3539   3542     1   110.1100470 384.091200
   3535   3533   3536     1   108.4600466 328.025600
   3537   3534   3539     1   108.0100461 406.684800
   3537   3534   3538     1   109.7500473 328.025600
   3538   3534   3539     1   108.0100461 406.684800
   3540   3539   3541     1   108.3000464 339.740800
   3540   3539   3542     1   108.3000464 339.740800
   3541   3539   3542     1   108.3000464 339.740800
   3543   3545   3547     1   108.8800464 416.726400
   3543   3545   3548     1   108.8800464 416.726400
   3544   3543   3545     1   117.6800502 383.254400
   3545   3546   3549     1   110.5600475 386.601600
   3545   3546   3550     1   110.5600475 386.601600
   3546   3551   3552     1   110.1100470 384.091200
   3546   3551   3553     1   110.1100470 384.091200
   3546   3551   3554     1   110.1100470 384.091200
   3546   3545   3547     1   109.5600471 388.275200
   3546   3545   3548     1   109.5600471 388.275200
   3547   3545   3548     1   108.4600466 328.025600
   3549   3546   3551     1   108.0100461 406.684800
   3549   3546   3550     1   109.7500473 328.025600
   3550   3546   3551     1   108.0100461 406.684800
   3552   3551   3553     1   108.3000464 339.740800
   3552   3551   3554     1   108.3000464 339.740800
   3553   3551   3554     1   108.3000464 339.740800
   3555   3557   3559     1   108.8800464 416.726400
   3555   3557   3560     1   108.8800464 416.726400
   3556   3555   3557     1   117.6800502 383.254400
   3557   3558   3561     1   110.5600475 386.601600
   3557   3558   3562     1   110.5600475 386.601600
   3558   3557   3559     1   109.5600471 388.275200
   3558   3557   3560     1   109.5600471 388.275200
   3558   3563   3564     1   110.1100470 384.091200
   3558   3563   3565     1   110.1100470 384.091200
   3558   3563   3566     1   110.1100470 384.091200
   3559   3557   3560     1   108.4600466 328.025600
   3561   3558   3563     1   108.0100461 406.684800
   3561   3558   3562     1   109.7500473 328.025600
   3562   3558   3563     1   108.0100461 406.684800
   3564   3563   3565     1   108.3000464 339.740800
   3564   3563   3566     1   108.3000464 339.740800
   3565   3563   3566     1   108.3000464 339.740800
   3567   3569   3571     1   108.8800464 416.726400
   3567   3569   3572     1   108.8800464 416.726400
   3568   3567   3569     1   117.6800502 383.254400
   3569   3570   3573     1   110.5600475 386.601600
   3569   3570   3574     1   110.5600475 386.601600
   3570   3575   3576     1   110.1100470 384.091200
   3570   3575   3577     1   110.1100470 384.091200
   3570   3575   3578     1   110.1100470 384.091200
   3570   3569   3571     1   109.5600471 388.275200
   3570   3569   3572     1   109.5600471 388.275200
   3571   3569   3572     1   108.4600466 328.025600
   3573   3570   3575     1   108.0100461 406.684800
   3573   3570   3574     1   109.7500473 328.025600
   3574   3570   3575     1   108.0100461 406.684800
   3576   3575   3577     1   108.3000464 339.740800
   3576   3575   3578     1   108.3000464 339.740800
   3577   3575   3578     1   108.3000464 339.740800
   3579   3581   3583     1   108.8800464 416.726400
   3579   3581   3584     1   108.8800464 416.726400
   3580   3579   3581     1   117.6800502 383.254400
   3581   3582   3585     1   110.5600475 386.601600
   3581   3582   3586     1   110.5600475 386.601600
   3582   3581   3583     1   109.5600471 388.275200
   3582   3581   3584     1   109.5600471 388.275200
   3582   3587   3588     1   110.1100470 384.091200
   3582   3587   3589     1   110.1100470 384.091200
   3582   3587   3590     1   110.1100470 384.091200
   3583   3581   3584     1   108.4600466 328.025600
   3585   3582   3587     1   108.0100461 406.684800
   3585   3582   3586     1   109.7500473 328.025600
   3586   3582   3587     1   108.0100461 406.684800
   3588   3587   3589     1   108.3000464 339.740800
   3588   3587   3590     1   108.3000464 339.740800
   3589   3587   3590     1   108.3000464 339.740800
   3591   3593   3595     1   108.8800464 416.726400
   3591   3593   3596     1   108.8800464 416.726400
   3592   3591   3593     1   117.6800502 383.254400
   3593   3594   3597     1   110.5600475 386.601600
   3593   3594   3598     1   110.5600475 386.601600
   3594   3599   3600     1   110.1100470 384.091200
   3594   3599   3601     1   110.1100470 384.091200
   3594   3599   3602     1   110.1100470 384.091200
   3594   3593   3595     1   109.5600471 388.275200
   3594   3593   3596     1   109.5600471 388.275200
   3595   3593   3596     1   108.4600466 328.025600
   3597   3594   3599     1   108.0100461 406.684800
   3597   3594   3598     1   109.7500473 328.025600
   3598   3594   3599     1   108.0100461 406.684800
   3600   3599   3601     1   108.3000464 339.740800
   3600   3599   3602     1   108.3000464 339.740800
   3601   3599   3602     1   108.3000464 339.740800
   3603   3605   3607     1   108.8800464 416.726400
   3603   3605   3608     1   108.8800464 416.726400
   3604   3603   3605     1   117.6800502 383.254400
   3605   3606   3609     1   110.5600475 386.601600
   3605   3606   3610     1   110.5600475 386.601600
   3606   3605   3607     1   109.5600471 388.275200
   3606   3605   3608     1   109.5600471 388.275200
   3606   3611   3612     1   110.1100470 384.091200
   3606   3611   3613     1   110.1100470 384.091200
   3606   3611   3614     1   110.1100470 384.091200
   3607   3605   3608     1   108.4600466 328.025600
   3609   3606   3611     1   108.0100461 406.684800
   3609   3606   3610     1   109.7500473 328.025600
   3610   3606   3611     1   108.0100461 406.684800
   3612   3611   3613     1   108.3000464 339.740800
   3612   3611   3614     1   108.3000464 339.740800
   3613   3611   3614     1   108.3000464 339.740800
   3615   3617   3619     1   108.8800464 416.726400
   3615   3617   3620     1   108.8800464 416.726400
   3616   3615   3617     1   117.6800502 383.254400
   3617   3618   3621     1   110.5600475 386.601600
   3617   3618   3622     1   110.5600475 386.601600
   3618   3623   3624     1   110.1100470 384.091200
   3618   3623   3625     1   110.1100470 384.091200
   3618   3623   3626     1   110.1100470 384.091200
   3618   3617   3619     1   109.5600471 388.275200
   3618   3617   3620     1   109.5600471 388.275200
   3619   3617   3620     1   108.4600466 328.025600
   3621   3618   3623     1   108.0100461 406.684800
   3621   3618   3622     1   109.7500473 328.025600
   3622   3618   3623     1   108.0100461 406.684800
   3624   3623   3625     1   108.3000464 339.740800
   3624   3623   3626     1   108.3000464 339.740800
   3625   3623   3626     1   108.3000464 339.740800
   3627   3629   3631     1   108.8800464 416.726400
   3627   3629   3632     1   108.8800464 416.726400
   3628   3627   3629     1   117.6800502 383.254400
   3629   3630   3633     1   110.5600475 386.601600
   3629   3630   3634     1   110.5600475 386.601600
   3630   3629   3631     1   109.5600471 388.275200
   3630   3629   3632     1   109.5600471 388.275200
   3630   3635   3636     1   110.1100470 384.091200
   3630   3635   3637     1   110.1100470 384.091200
   3630   3635   3638     1   110.1100470 384.091200
   3631   3629   3632     1   108.4600466 328.025600
   3633   3630   3635     1   108.0100461 406.684800
   3633   3630   3634     1   109.7500473 328.025600
   3634   3630   3635     1   108.0100461 406.684800
   3636   3635   3637     1   108.3000464 339.740800
   3636   3635   3638     1   108.3000464 339.740800
   3637   3635   3638     1   108.3000464 339.740800
   3639   3641   3643     1   108.8800464 416.726400
   3639   3641   3644     1   108.8800464 416.726400
   3640   3639   3641     1   117.6800502 383.254400
   3641   3642   3645     1   110.5600475 386.601600
   3641   3642   3646     1   110.5600475 386.601600
   3642   3647   3648     1   110.1100470 384.091200
   3642   3647   3649     1   110.1100470 384.091200
   3642   3647   3650     1   110.1100470 384.091200
   3642   3641   3643     1   109.5600471 388.275200
   3642   3641   3644     1   109.5600471 388.275200
   3643   3641   3644     1   108.4600466 328.025600
   3645   3642   3647     1   108.0100461 406.684800
   3645   3642   3646     1   109.7500473 328.025600
   3646   3642   3647     1   108.0100461 406.684800
   3648   3647   3649     1   108.3000464 339.740800
   3648   3647   3650     1   108.3000464 339.740800
   3649   3647   3650     1   108.3000464 339.740800
   3651   3653   3655     1   108.8800464 416.726400
   3651   3653   3656     1   108.8800464 416.726400
   3652   3651   3653     1   117.6800502 383.254400
   3653   3654   3657     1   110.5600475 386.601600
   3653   3654   3658     1   110.5600475 386.601600
   3654   3653   3655     1   109.5600471 388.275200
   3654   3653   3656     1   109.5600471 388.275200
   3654   3659   3660     1   110.1100470 384.091200
   3654   3659   3661     1   110.1100470 384.091200
   3654   3659   3662     1   110.1100470 384.091200
   3655   3653   3656     1   108.4600466 328.025600
   3657   3654   3659     1   108.0100461 406.684800
   3657   3654   3658     1   109.7500473 328.025600
   3658   3654   3659     1   108.0100461 406.684800
   3660   3659   3661     1   108.3000464 339.740800
   3660   3659   3662     1   108.3000464 339.740800
   3661   3659   3662     1   108.3000464 339.740800
   3663   3665   3667     1   108.8800464 416.726400
   3663   3665   3668     1   108.8800464 416.726400
   3664   3663   3665     1   117.6800502 383.254400
   3665   3666   3669     1   110.5600475 386.601600
   3665   3666   3670     1   110.5600475 386.601600
   3666   3671   3672     1   110.1100470 384.091200
   3666   3671   3673     1   110.1100470 384.091200
   3666   3671   3674     1   110.1100470 384.091200
   3666   3665   3667     1   109.5600471 388.275200
   3666   3665   3668     1   109.5600471 388.275200
   3667   3665   3668     1   108.4600466 328.025600
   3669   3666   3671     1   108.0100461 406.684800
   3669   3666   3670     1   109.7500473 328.025600
   3670   3666   3671     1   108.0100461 406.684800
   3672   3671   3673     1   108.3000464 339.740800
   3672   3671   3674     1   108.3000464 339.740800
   3673   3671   3674     1   108.3000464 339.740800
   3675   3677   3679     1   108.8800464 416.726400
   3675   3677   3680     1   108.8800464 416.726400
   3676   3675   3677     1   117.6800502 383.254400
   3677   3678   3681     1   110.5600475 386.601600
   3677   3678   3682     1   110.5600475 386.601600
   3678   3677   3679     1   109.5600471 388.275200
   3678   3677   3680     1   109.5600471 388.275200
   3678   3683   3684     1   110.1100470 384.091200
   3678   3683   3685     1   110.1100470 384.091200
   3678   3683   3686     1   110.1100470 384.091200
   3679   3677   3680     1   108.4600466 328.025600
   3681   3678   3683     1   108.0100461 406.684800
   3681   3678   3682     1   109.7500473 328.025600
   3682   3678   3683     1   108.0100461 406.684800
   3684   3683   3685     1   108.3000464 339.740800
   3684   3683   3686     1   108.3000464 339.740800
   3685   3683   3686     1   108.3000464 339.740800
   3687   3689   3691     1   108.8800464 416.726400
   3687   3689   3692     1   108.8800464 416.726400
   3688   3687   3689     1   117.6800502 383.254400
   3689   3690   3693     1   110.5600475 386.601600
   3689   3690   3694     1   110.5600475 386.601600
   3690   3695   3696     1   110.1100470 384.091200
   3690   3695   3697     1   110.1100470 384.091200
   3690   3695   3698     1   110.1100470 384.091200
   3690   3689   3691     1   109.5600471 388.275200
   3690   3689   3692     1   109.5600471 388.275200
   3691   3689   3692     1   108.4600466 328.025600
   3693   3690   3695     1   108.0100461 406.684800
   3693   3690   3694     1   109.7500473 328.025600
   3694   3690   3695     1   108.0100461 406.684800
   3696   3695   3697     1   108.3000464 339.740800
   3696   3695   3698     1   108.3000464 339.740800
   3697   3695   3698     1   108.3000464 339.740800
   3699   3701   3703     1   108.8800464 416.726400
   3699   3701   3704     1   108.8800464 416.726400
   3700   3699   3701     1   117.6800502 383.254400
   3701   3702   3705     1   110.5600475 386.601600
   3701   3702   3706     1   110.5600475 386.601600
   3702   3701   3703     1   109.5600471 388.275200
   3702   3701   3704     1   109.5600471 388.275200
   3702   3707   3708     1   110.1100470 384.091200
   3702   3707   3709     1   110.1100470 384.091200
   3702   3707   3710     1   110.1100470 384.091200
   3703   3701   3704     1   108.4600466 328.025600
   3705   3702   3707     1   108.0100461 406.684800
   3705   3702   3706     1   109.7500473 328.025600
   3706   3702   3707     1   108.0100461 406.684800
   3708   3707   3709     1   108.3000464 339.740800
   3708   3707   3710     1   108.3000464 339.740800
   3709   3707   3710     1   108.3000464 339.740800
   3711   3713   3715     1   108.8800464 416.726400
   3711   3713   3716     1   108.8800464 416.726400
   3712   3711   3713     1   117.6800502 383.254400
   3713   3714   3717     1   110.5600475 386.601600
   3713   3714   3718     1   110.5600475 386.601600
   3714   3719   3720     1   110.1100470 384.091200
   3714   3719   3721     1   110.1100470 384.091200
   3714   3719   3722     1   110.1100470 384.091200
   3714   3713   3715     1   109.5600471 388.275200
   3714   3713   3716     1   109.5600471 388.275200
   3715   3713   3716     1   108.4600466 328.025600
   3717   3714   3719     1   108.0100461 406.684800
   3717   3714   3718     1   109.7500473 328.025600
   3718   3714   3719     1   108.0100461 406.684800
   3720   3719   3721     1   108.3000464 339.740800
   3720   3719   3722     1   108.3000464 339.740800
   3721   3719   3722     1   108.3000464 339.740800
   3723   3725   3727     1   108.8800464 416.726400
   3723   3725   3728     1   108.8800464 416.726400
   3724   3723   3725     1   117.6800502 383.254400
   3725   3726   3729     1   110.5600475 386.601600
   3725   3726   3730     1   110.5600475 386.601600
   3726   3725   3727     1   109.5600471 388.275200
   3726   3725   3728     1   109.5600471 388.275200
   3726   3731   3732     1   110.1100470 384.091200
   3726   3731   3733     1   110.1100470 384.091200
   3726   3731   3734     1   110.1100470 384.091200
   3727   3725   3728     1   108.4600466 328.025600
   3729   3726   3731     1   108.0100461 406.684800
   3729   3726   3730     1   109.7500473 328.025600
   3730   3726   3731     1   108.0100461 406.684800
   3732   3731   3733     1   108.3000464 339.740800
   3732   3731   3734     1   108.3000464 339.740800
   3733   3731   3734     1   108.3000464 339.740800
   3735   3737   3739     1   108.8800464 416.726400
   3735   3737   3740     1   108.8800464 416.726400
   3736   3735   3737     1   117.6800502 383.254400
   3737   3738   3741     1   110.5600475 386.601600
   3737   3738   3742     1   110.5600475 386.601600
   3738   3743   3744     1   110.1100470 384.091200
   3738   3743   3745     1   110.1100470 384.091200
   3738   3743   3746     1   110.1100470 384.091200
   3738   3737   3739     1   109.5600471 388.275200
   3738   3737   3740     1   109.5600471 388.275200
   3739   3737   3740     1   108.4600466 328.025600
   3741   3738   3743     1   108.0100461 406.684800
   3741   3738   3742     1   109.7500473 328.025600
   3742   3738   3743     1   108.0100461 406.684800
   3744   3743   3745     1   108.3000464 339.740800
   3744   3743   3746     1   108.3000464 339.740800
   3745   3743   3746     1   108.3000464 339.740800
   3747   3749   3751     1   108.8800464 416.726400
   3747   3749   3752     1   108.8800464 416.726400
   3748   3747   3749     1   117.6800502 383.254400
   3749   3750   3753     1   110.5600475 386.601600
   3749   3750   3754     1   110.5600475 386.601600
   3750   3749   3751     1   109.5600471 388.275200
   3750   3749   3752     1   109.5600471 388.275200
   3750   3755   3756     1   110.1100470 384.091200
   3750   3755   3757     1   110.1100470 384.091200
   3750   3755   3758     1   110.1100470 384.091200
   3751   3749   3752     1   108.4600466 328.025600
   3753   3750   3755     1   108.0100461 406.684800
   3753   3750   3754     1   109.7500473 328.025600
   3754   3750   3755     1   108.0100461 406.684800
   3756   3755   3757     1   108.3000464 339.740800
   3756   3755   3758     1   108.3000464 339.740800
   3757   3755   3758     1   108.3000464 339.740800
   3759   3761   3763     1   108.8800464 416.726400
   3759   3761   3764     1   108.8800464 416.726400
   3760   3759   3761     1   117.6800502 383.254400
   3761   3762   3765     1   110.5600475 386.601600
   3761   3762   3766     1   110.5600475 386.601600
   3762   3767   3768     1   110.1100470 384.091200
   3762   3767   3769     1   110.1100470 384.091200
   3762   3767   3770     1   110.1100470 384.091200
   3762   3761   3763     1   109.5600471 388.275200
   3762   3761   3764     1   109.5600471 388.275200
   3763   3761   3764     1   108.4600466 328.025600
   3765   3762   3767     1   108.0100461 406.684800
   3765   3762   3766     1   109.7500473 328.025600
   3766   3762   3767     1   108.0100461 406.684800
   3768   3767   3769     1   108.3000464 339.740800
   3768   3767   3770     1   108.3000464 339.740800
   3769   3767   3770     1   108.3000464 339.740800
   3771   3773   3775     1   108.8800464 416.726400
   3771   3773   3776     1   108.8800464 416.726400
   3772   3771   3773     1   117.6800502 383.254400
   3773   3774   3777     1   110.5600475 386.601600
   3773   3774   3778     1   110.5600475 386.601600
   3774   3773   3775     1   109.5600471 388.275200
   3774   3773   3776     1   109.5600471 388.275200
   3774   3779   3780     1   110.1100470 384.091200
   3774   3779   3781     1   110.1100470 384.091200
   3774   3779   3782     1   110.1100470 384.091200
   3775   3773   3776     1   108.4600466 328.025600
   3777   3774   3779     1   108.0100461 406.684800
   3777   3774   3778     1   109.7500473 328.025600
   3778   3774   3779     1   108.0100461 406.684800
   3780   3779   3781     1   108.3000464 339.740800
   3780   3779   3782     1   108.3000464 339.740800
   3781   3779   3782     1   108.3000464 339.740800
   3783   3785   3787     1   108.8800464 416.726400
   3783   3785   3788     1   108.8800464 416.726400
   3784   3783   3785     1   117.6800502 383.254400
   3785   3786   3789     1   110.5600475 386.601600
   3785   3786   3790     1   110.5600475 386.601600
   3786   3791   3792     1   110.1100470 384.091200
   3786   3791   3793     1   110.1100470 384.091200
   3786   3791   3794     1   110.1100470 384.091200
   3786   3785   3787     1   109.5600471 388.275200
   3786   3785   3788     1   109.5600471 388.275200
   3787   3785   3788     1   108.4600466 328.025600
   3789   3786   3791     1   108.0100461 406.684800
   3789   3786   3790     1   109.7500473 328.025600
   3790   3786   3791     1   108.0100461 406.684800
   3792   3791   3793     1   108.3000464 339.740800
   3792   3791   3794     1   108.3000464 339.740800
   3793   3791   3794     1   108.3000464 339.740800
   3795   3797   3799     1   108.8800464 416.726400
   3795   3797   3800     1   108.8800464 416.726400
   3796   3795   3797     1   117.6800502 383.254400
   3797   3798   3801     1   110.5600475 386.601600
   3797   3798   3802     1   110.5600475 386.601600
   3798   3797   3799     1   109.5600471 388.275200
   3798   3797   3800     1   109.5600471 388.275200
   3798   3803   3804     1   110.1100470 384.091200
   3798   3803   3805     1   110.1100470 384.091200
   3798   3803   3806     1   110.1100470 384.091200
   3799   3797   3800     1   108.4600466 328.025600
   3801   3798   3803     1   108.0100461 406.684800
   3801   3798   3802     1   109.7500473 328.025600
   3802   3798   3803     1   108.0100461 406.684800
   3804   3803   3805     1   108.3000464 339.740800
   3804   3803   3806     1   108.3000464 339.740800
   3805   3803   3806     1   108.3000464 339.740800
   3807   3809   3811     1   108.8800464 416.726400
   3807   3809   3812     1   108.8800464 416.726400
   3808   3807   3809     1   117.6800502 383.254400
   3809   3810   3813     1   110.5600475 386.601600
   3809   3810   3814     1   110.5600475 386.601600
   3810   3815   3816     1   110.1100470 384.091200
   3810   3815   3817     1   110.1100470 384.091200
   3810   3815   3818     1   110.1100470 384.091200
   3810   3809   3811     1   109.5600471 388.275200
   3810   3809   3812     1   109.5600471 388.275200
   3811   3809   3812     1   108.4600466 328.025600
   3813   3810   3815     1   108.0100461 406.684800
   3813   3810   3814     1   109.7500473 328.025600
   3814   3810   3815     1   108.0100461 406.684800
   3816   3815   3817     1   108.3000464 339.740800
   3816   3815   3818     1   108.3000464 339.740800
   3817   3815   3818     1   108.3000464 339.740800
   3819   3821   3823     1   108.8800464 416.726400
   3819   3821   3824     1   108.8800464 416.726400
   3820   3819   3821     1   117.6800502 383.254400
   3821   3822   3825     1   110.5600475 386.601600
   3821   3822   3826     1   110.5600475 386.601600
   3822   3821   3823     1   109.5600471 388.275200
   3822   3821   3824     1   109.5600471 388.275200
   3822   3827   3828     1   110.1100470 384.091200
   3822   3827   3829     1   110.1100470 384.091200
   3822   3827   3830     1   110.1100470 384.091200
   3823   3821   3824     1   108.4600466 328.025600
   3825   3822   3827     1   108.0100461 406.684800
   3825   3822   3826     1   109.7500473 328.025600
   3826   3822   3827     1   108.0100461 406.684800
   3828   3827   3829     1   108.3000464 339.740800
   3828   3827   3830     1   108.3000464 339.740800
   3829   3827   3830     1   108.3000464 339.740800
   3831   3833   3835     1   108.8800464 416.726400
   3831   3833   3836     1   108.8800464 416.726400
   3832   3831   3833     1   117.6800502 383.254400
   3833   3834   3837     1   110.5600475 386.601600
   3833   3834   3838     1   110.5600475 386.601600
   3834   3839   3840     1   110.1100470 384.091200
   3834   3839   3841     1   110.1100470 384.091200
   3834   3839   3842     1   110.1100470 384.091200
   3834   3833   3835     1   109.5600471 388.275200
   3834   3833   3836     1   109.5600471 388.275200
   3835   3833   3836     1   108.4600466 328.025600
   3837   3834   3839     1   108.0100461 406.684800
   3837   3834   3838     1   109.7500473 328.025600
   3838   3834   3839     1   108.0100461 406.684800
   3840   3839   3841     1   108.3000464 339.740800
   3840   3839   3842     1   108.3000464 339.740800
   3841   3839   3842     1   108.3000464 339.740800
   3843   3845   3847     1   108.8800464 416.726400
   3843   3845   3848     1   108.8800464 416.726400
   3844   3843   3845     1   117.6800502 383.254400
   3845   3846   3849     1   110.5600475 386.601600
   3845   3846   3850     1   110.5600475 386.601600
   3846   3845   3847     1   109.5600471 388.275200
   3846   3845   3848     1   109.5600471 388.275200
   3846   3851   3852     1   110.1100470 384.091200
   3846   3851   3853     1   110.1100470 384.091200
   3846   3851   3854     1   110.1100470 384.091200
   3847   3845   3848     1   108.4600466 328.025600
   3849   3846   3851     1   108.0100461 406.684800
   3849   3846   3850     1   109.7500473 328.025600
   3850   3846   3851     1   108.0100461 406.684800
   3852   3851   3853     1   108.3000464 339.740800
   3852   3851   3854     1   108.3000464 339.740800
   3853   3851   3854     1   108.3000464 339.740800
   3855   3857   3859     1   108.8800464 416.726400
   3855   3857   3860     1   108.8800464 416.726400
   3856   3855   3857     1   117.6800502 383.254400
   3857   3858   3861     1   110.5600475 386.601600
   3857   3858   3862     1   110.5600475 386.601600
   3858   3863   3864     1   110.1100470 384.091200
   3858   3863   3865     1   110.1100470 384.091200
   3858   3863   3866     1   110.1100470 384.091200
   3858   3857   3859     1   109.5600471 388.275200
   3858   3857   3860     1   109.5600471 388.275200
   3859   3857   3860     1   108.4600466 328.025600
   3861   3858   3863     1   108.0100461 406.684800
   3861   3858   3862     1   109.7500473 328.025600
   3862   3858   3863     1   108.0100461 406.684800
   3864   3863   3865     1   108.3000464 339.740800
   3864   3863   3866     1   108.3000464 339.740800
   3865   3863   3866     1   108.3000464 339.740800
   3867   3869   3871     1   108.8800464 416.726400
   3867   3869   3872     1   108.8800464 416.726400
   3868   3867   3869     1   117.6800502 383.254400
   3869   3870   3873     1   110.5600475 386.601600
   3869   3870   3874     1   110.5600475 386.601600
   3870   3869   3871     1   109.5600471 388.275200
   3870   3869   3872     1   109.5600471 388.275200
   3870   3875   3876     1   110.1100470 384.091200
   3870   3875   3877     1   110.1100470 384.091200
   3870   3875   3878     1   110.1100470 384.091200
   3871   3869   3872     1   108.4600466 328.025600
   3873   3870   3875     1   108.0100461 406.684800
   3873   3870   3874     1   109.7500473 328.025600
   3874   3870   3875     1   108.0100461 406.684800
   3876   3875   3877     1   108.3000464 339.740800
   3876   3875   3878     1   108.3000464 339.740800
   3877   3875   3878     1   108.3000464 339.740800
   3879   3881   3883     1   108.8800464 416.726400
   3879   3881   3884     1   108.8800464 416.726400
   3880   3879   3881     1   117.6800502 383.254400
   3881   3882   3885     1   110.5600475 386.601600
   3881   3882   3886     1   110.5600475 386.601600
   3882   3887   3888     1   110.1100470 384.091200
   3882   3887   3889     1   110.1100470 384.091200
   3882   3887   3890     1   110.1100470 384.091200
   3882   3881   3883     1   109.5600471 388.275200
   3882   3881   3884     1   109.5600471 388.275200
   3883   3881   3884     1   108.4600466 328.025600
   3885   3882   3887     1   108.0100461 406.684800
   3885   3882   3886     1   109.7500473 328.025600
   3886   3882   3887     1   108.0100461 406.684800
   3888   3887   3889     1   108.3000464 339.740800
   3888   3887   3890     1   108.3000464 339.740800
   3889   3887   3890     1   108.3000464 339.740800
   3891   3893   3895     1   108.8800464 416.726400
   3891   3893   3896     1   108.8800464 416.726400
   3892   3891   3893     1   117.6800502 383.254400
   3893   3894   3897     1   110.5600475 386.601600
   3893   3894   3898     1   110.5600475 386.601600
   3894   3893   3895     1   109.5600471 388.275200
   3894   3893   3896     1   109.5600471 388.275200
   3894   3899   3900     1   110.1100470 384.091200
   3894   3899   3901     1   110.1100470 384.091200
   3894   3899   3902     1   110.1100470 384.091200
   3895   3893   3896     1   108.4600466 328.025600
   3897   3894   3899     1   108.0100461 406.684800
   3897   3894   3898     1   109.7500473 328.025600
   3898   3894   3899     1   108.0100461 406.684800
   3900   3899   3901     1   108.3000464 339.740800
   3900   3899   3902     1   108.3000464 339.740800
   3901   3899   3902     1   108.3000464 339.740800
   3903   3905   3907     1   108.8800464 416.726400
   3903   3905   3908     1   108.8800464 416.726400
   3904   3903   3905     1   117.6800502 383.254400
   3905   3906   3909     1   110.5600475 386.601600
   3905   3906   3910     1   110.5600475 386.601600
   3906   3911   3912     1   110.1100470 384.091200
   3906   3911   3913     1   110.1100470 384.091200
   3906   3911   3914     1   110.1100470 384.091200
   3906   3905   3907     1   109.5600471 388.275200
   3906   3905   3908     1   109.5600471 388.275200
   3907   3905   3908     1   108.4600466 328.025600
   3909   3906   3911     1   108.0100461 406.684800
   3909   3906   3910     1   109.7500473 328.025600
   3910   3906   3911     1   108.0100461 406.684800
   3912   3911   3913     1   108.3000464 339.740800
   3912   3911   3914     1   108.3000464 339.740800
   3913   3911   3914     1   108.3000464 339.740800
   3915   3917   3919     1   108.8800464 416.726400
   3915   3917   3920     1   108.8800464 416.726400
   3916   3915   3917     1   117.6800502 383.254400
   3917   3918   3921     1   110.5600475 386.601600
   3917   3918   3922     1   110.5600475 386.601600
   3918   3917   3919     1   109.5600471 388.275200
   3918   3917   3920     1   109.5600471 388.275200
   3918   3923   3924     1   110.1100470 384.091200
   3918   3923   3925     1   110.1100470 384.091200
   3918   3923   3926     1   110.1100470 384.091200
   3919   3917   3920     1   108.4600466 328.025600
   3921   3918   3923     1   108.0100461 406.684800
   3921   3918   3922     1   109.7500473 328.025600
   3922   3918   3923     1   108.0100461 406.684800
   3924   3923   3925     1   108.3000464 339.740800
   3924   3923   3926     1   108.3000464 339.740800
   3925   3923   3926     1   108.3000464 339.740800
   3927   3929   3931     1   108.8800464 416.726400
   3927   3929   3932     1   108.8800464 416.726400
   3928   3927   3929     1   117.6800502 383.254400
   3929   3930   3933     1   110.5600475 386.601600
   3929   3930   3934     1   110.5600475 386.601600
   3930   3935   3936     1   110.1100470 384.091200
   3930   3935   3937     1   110.1100470 384.091200
   3930   3935   3938     1   110.1100470 384.091200
   3930   3929   3931     1   109.5600471 388.275200
   3930   3929   3932     1   109.5600471 388.275200
   3931   3929   3932     1   108.4600466 328.025600
   3933   3930   3935     1   108.0100461 406.684800
   3933   3930   3934     1   109.7500473 328.025600
   3934   3930   3935     1   108.0100461 406.684800
   3936   3935   3937     1   108.3000464 339.740800
   3936   3935   3938     1   108.3000464 339.740800
   3937   3935   3938     1   108.3000464 339.740800
   3939   3941   3943     1   108.8800464 416.726400
   3939   3941   3944     1   108.8800464 416.726400
   3940   3939   3941     1   117.6800502 383.254400
   3941   3942   3945     1   110.5600475 386.601600
   3941   3942   3946     1   110.5600475 386.601600
   3942   3941   3943     1   109.5600471 388.275200
   3942   3941   3944     1   109.5600471 388.275200
   3942   3947   3948     1   110.1100470 384.091200
   3942   3947   3949     1   110.1100470 384.091200
   3942   3947   3950     1   110.1100470 384.091200
   3943   3941   3944     1   108.4600466 328.025600
   3945   3942   3947     1   108.0100461 406.684800
   3945   3942   3946     1   109.7500473 328.025600
   3946   3942   3947     1   108.0100461 406.684800
   3948   3947   3949     1   108.3000464 339.740800
   3948   3947   3950     1   108.3000464 339.740800
   3949   3947   3950     1   108.3000464 339.740800
   3951   3953   3955     1   108.8800464 416.726400
   3951   3953   3956     1   108.8800464 416.726400
   3952   3951   3953     1   117.6800502 383.254400
   3953   3954   3957     1   110.5600475 386.601600
   3953   3954   3958     1   110.5600475 386.601600
   3954   3959   3960     1   110.1100470 384.091200
   3954   3959   3961     1   110.1100470 384.091200
   3954   3959   3962     1   110.1100470 384.091200
   3954   3953   3955     1   109.5600471 388.275200
   3954   3953   3956     1   109.5600471 388.275200
   3955   3953   3956     1   108.4600466 328.025600
   3957   3954   3959     1   108.0100461 406.684800
   3957   3954   3958     1   109.7500473 328.025600
   3958   3954   3959     1   108.0100461 406.684800
   3960   3959   3961     1   108.3000464 339.740800
   3960   3959   3962     1   108.3000464 339.740800
   3961   3959   3962     1   108.3000464 339.740800
   3963   3965   3967     1   108.8800464 416.726400
   3963   3965   3968     1   108.8800464 416.726400
   3964   3963   3965     1   117.6800502 383.254400
   3965   3966   3969     1   110.5600475 386.601600
   3965   3966   3970     1   110.5600475 386.601600
   3966   3965   3967     1   109.5600471 388.275200
   3966   3965   3968     1   109.5600471 388.275200
   3966   3971   3972     1   110.1100470 384.091200
   3966   3971   3973     1   110.1100470 384.091200
   3966   3971   3974     1   110.1100470 384.091200
   3967   3965   3968     1   108.4600466 328.025600
   3969   3966   3971     1   108.0100461 406.684800
   3969   3966   3970     1   109.7500473 328.025600
   3970   3966   3971     1   108.0100461 406.684800
   3972   3971   3973     1   108.3000464 339.740800
   3972   3971   3974     1   108.3000464 339.740800
   3973   3971   3974     1   108.3000464 339.740800
   3975   3977   3979     1   108.8800464 416.726400
   3975   3977   3980     1   108.8800464 416.726400
   3976   3975   3977     1   117.6800502 383.254400
   3977   3978   3981     1   110.5600475 386.601600
   3977   3978   3982     1   110.5600475 386.601600
   3978   3983   3984     1   110.1100470 384.091200
   3978   3983   3985     1   110.1100470 384.091200
   3978   3983   3986     1   110.1100470 384.091200
   3978   3977   3979     1   109.5600471 388.275200
   3978   3977   3980     1   109.5600471 388.275200
   3979   3977   3980     1   108.4600466 328.025600
   3981   3978   3983     1   108.0100461 406.684800
   3981   3978   3982     1   109.7500473 328.025600
   3982   3978   3983     1   108.0100461 406.684800
   3984   3983   3985     1   108.3000464 339.740800
   3984   3983   3986     1   108.3000464 339.740800
   3985   3983   3986     1   108.3000464 339.740800
   3987   3989   3991     1   108.8800464 416.726400
   3987   3989   3992     1   108.8800464 416.726400
   3988   3987   3989     1   117.6800502 383.254400
   3989   3990   3993     1   110.5600475 386.601600
   3989   3990   3994     1   110.5600475 386.601600
   3990   3989   3991     1   109.5600471 388.275200
   3990   3989   3992     1   109.5600471 388.275200
   3990   3995   3996     1   110.1100470 384.091200
   3990   3995   3997     1   110.1100470 384.091200
   3990   3995   3998     1   110.1100470 384.091200
   3991   3989   3992     1   108.4600466 328.025600
   3993   3990   3995     1   108.0100461 406.684800
   3993   3990   3994     1   109.7500473 328.025600
   3994   3990   3995     1   108.0100461 406.684800
   3996   3995   3997     1   108.3000464 339.740800
   3996   3995   3998     1   108.3000464 339.740800
   3997   3995   3998     1   108.3000464 339.740800
   3999   4001   4003     1   108.8800464 416.726400
   3999   4001   4004     1   108.8800464 416.726400
   4000   3999   4001     1   117.6800502 383.254400
   4001   4002   4005     1   110.5600475 386.601600
   4001   4002   4006     1   110.5600475 386.601600
   4002   4007   4008     1   110.1100470 384.091200
   4002   4007   4009     1   110.1100470 384.091200
   4002   4007   4010     1   110.1100470 384.091200
   4002   4001   4003     1   109.5600471 388.275200
   4002   4001   4004     1   109.5600471 388.275200
   4003   4001   4004     1   108.4600466 328.025600
   4005   4002   4007     1   108.0100461 406.684800
   4005   4002   4006     1   109.7500473 328.025600
   4006   4002   4007     1   108.0100461 406.684800
   4008   4007   4009     1   108.3000464 339.740800
   4008   4007   4010     1   108.3000464 339.740800
   4009   4007   4010     1   108.3000464 339.740800
   4011   4013   4015     1   108.8800464 416.726400
   4011   4013   4016     1   108.8800464 416.726400
   4012   4011   4013     1   117.6800502 383.254400
   4013   4014   4017     1   110.5600475 386.601600
   4013   4014   4018     1   110.5600475 386.601600
   4014   4013   4015     1   109.5600471 388.275200
   4014   4013   4016     1   109.5600471 388.275200
   4014   4019   4020     1   110.1100470 384.091200
   4014   4019   4021     1   110.1100470 384.091200
   4014   4019   4022     1   110.1100470 384.091200
   4015   4013   4016     1   108.4600466 328.025600
   4017   4014   4019     1   108.0100461 406.684800
   4017   4014   4018     1   109.7500473 328.025600
   4018   4014   4019     1   108.0100461 406.684800
   4020   4019   4021     1   108.3000464 339.740800
   4020   4019   4022     1   108.3000464 339.740800
   4021   4019   4022     1   108.3000464 339.740800
   4023   4025   4027     1   108.8800464 416.726400
   4023   4025   4028     1   108.8800464 416.726400
   4024   4023   4025     1   117.6800502 383.254400
   4025   4026   4029     1   110.5600475 386.601600
   4025   4026   4030     1   110.5600475 386.601600
   4026   4031   4032     1   110.1100470 384.091200
   4026   4031   4033     1   110.1100470 384.091200
   4026   4031   4034     1   110.1100470 384.091200
   4026   4025   4027     1   109.5600471 388.275200
   4026   4025   4028     1   109.5600471 388.275200
   4027   4025   4028     1   108.4600466 328.025600
   4029   4026   4031     1   108.0100461 406.684800
   4029   4026   4030     1   109.7500473 328.025600
   4030   4026   4031     1   108.0100461 406.684800
   4032   4031   4033     1   108.3000464 339.740800
   4032   4031   4034     1   108.3000464 339.740800
   4033   4031   4034     1   108.3000464 339.740800
   4035   4037   4039     1   108.8800464 416.726400
   4035   4037   4040     1   108.8800464 416.726400
   4036   4035   4037     1   117.6800502 383.254400
   4037   4038   4041     1   110.5600475 386.601600
   4037   4038   4042     1   110.5600475 386.601600
   4038   4037   4039     1   109.5600471 388.275200
   4038   4037   4040     1   109.5600471 388.275200
   4038   4043   4044     1   110.1100470 384.091200
   4038   4043   4045     1   110.1100470 384.091200
   4038   4043   4046     1   110.1100470 384.091200
   4039   4037   4040     1   108.4600466 328.025600
   4041   4038   4043     1   108.0100461 406.684800
   4041   4038   4042     1   109.7500473 328.025600
   4042   4038   4043     1   108.0100461 406.684800
   4044   4043   4045     1   108.3000464 339.740800
   4044   4043   4046     1   108.3000464 339.740800
   4045   4043   4046     1   108.3000464 339.740800
   4047   4049   4051     1   108.8800464 416.726400
   4047   4049   4052     1   108.8800464 416.726400
   4048   4047   4049     1   117.6800502 383.254400
   4049   4050   4053     1   110.5600475 386.601600
   4049   4050   4054     1   110.5600475 386.601600
   4050   4055   4056     1   110.1100470 384.091200
   4050   4055   4057     1   110.1100470 384.091200
   4050   4055   4058     1   110.1100470 384.091200
   4050   4049   4051     1   109.5600471 388.275200
   4050   4049   4052     1   109.5600471 388.275200
   4051   4049   4052     1   108.4600466 328.025600
   4053   4050   4055     1   108.0100461 406.684800
   4053   4050   4054     1   109.7500473 328.025600
   4054   4050   4055     1   108.0100461 406.684800
   4056   4055   4057     1   108.3000464 339.740800
   4056   4055   4058     1   108.3000464 339.740800
   4057   4055   4058     1   108.3000464 339.740800
   4059   4061   4063     1   108.8800464 416.726400
   4059   4061   4064     1   108.8800464 416.726400
   4060   4059   4061     1   117.6800502 383.254400
   4061   4062   4065     1   110.5600475 386.601600
   4061   4062   4066     1   110.5600475 386.601600
   4062   4061   4063     1   109.5600471 388.275200
   4062   4061   4064     1   109.5600471 388.275200
   4062   4067   4068     1   110.1100470 384.091200
   4062   4067   4069     1   110.1100470 384.091200
   4062   4067   4070     1   110.1100470 384.091200
   4063   4061   4064     1   108.4600466 328.025600
   4065   4062   4067     1   108.0100461 406.684800
   4065   4062   4066     1   109.7500473 328.025600
   4066   4062   4067     1   108.0100461 406.684800
   4068   4067   4069     1   108.3000464 339.740800
   4068   4067   4070     1   108.3000464 339.740800
   4069   4067   4070     1   108.3000464 339.740800
   4071   4073   4075     1   108.8800464 416.726400
   4071   4073   4076     1   108.8800464 416.726400
   4072   4071   4073     1   117.6800502 383.254400
   4073   4074   4077     1   110.5600475 386.601600
   4073   4074   4078     1   110.5600475 386.601600
   4074   4079   4080     1   110.1100470 384.091200
   4074   4079   4081     1   110.1100470 384.091200
   4074   4079   4082     1   110.1100470 384.091200
   4074   4073   4075     1   109.5600471 388.275200
   4074   4073   4076     1   109.5600471 388.275200
   4075   4073   4076     1   108.4600466 328.025600
   4077   4074   4079     1   108.0100461 406.684800
   4077   4074   4078     1   109.7500473 328.025600
   4078   4074   4079     1   108.0100461 406.684800
   4080   4079   4081     1   108.3000464 339.740800
   4080   4079   4082     1   108.3000464 339.740800
   4081   4079   4082     1   108.3000464 339.740800
   4083   4085   4087     1   108.8800464 416.726400
   4083   4085   4088     1   108.8800464 416.726400
   4084   4083   4085     1   117.6800502 383.254400
   4085   4086   4089     1   110.5600475 386.601600
   4085   4086   4090     1   110.5600475 386.601600
   4086   4085   4087     1   109.5600471 388.275200
   4086   4085   4088     1   109.5600471 388.275200
   4086   4091   4092     1   110.1100470 384.091200
   4086   4091   4093     1   110.1100470 384.091200
   4086   4091   4094     1   110.1100470 384.091200
   4087   4085   4088     1   108.4600466 328.025600
   4089   4086   4091     1   108.0100461 406.684800
   4089   4086   4090     1   109.7500473 328.025600
   4090   4086   4091     1   108.0100461 406.684800
   4092   4091   4093     1   108.3000464 339.740800
   4092   4091   4094     1   108.3000464 339.740800
   4093   4091   4094     1   108.3000464 339.740800
   4095   4097   4099     1   108.8800464 416.726400
   4095   4097   4100     1   108.8800464 416.726400
   4096   4095   4097     1   117.6800502 383.254400
   4097   4098   4101     1   110.5600475 386.601600
   4097   4098   4102     1   110.5600475 386.601600
   4098   4103   4104     1   110.1100470 384.091200
   4098   4103   4105     1   110.1100470 384.091200
   4098   4103   4106     1   110.1100470 384.091200
   4098   4097   4099     1   109.5600471 388.275200
   4098   4097   4100     1   109.5600471 388.275200
   4099   4097   4100     1   108.4600466 328.025600
   4101   4098   4103     1   108.0100461 406.684800
   4101   4098   4102     1   109.7500473 328.025600
   4102   4098   4103     1   108.0100461 406.684800
   4104   4103   4105     1   108.3000464 339.740800
   4104   4103   4106     1   108.3000464 339.740800
   4105   4103   4106     1   108.3000464 339.740800
   4107   4109   4111     1   108.8800464 416.726400
   4107   4109   4112     1   108.8800464 416.726400
   4108   4107   4109     1   117.6800502 383.254400
   4109   4110   4113     1   110.5600475 386.601600
   4109   4110   4114     1   110.5600475 386.601600
   4110   4109   4111     1   109.5600471 388.275200
   4110   4109   4112     1   109.5600471 388.275200
   4110   4115   4116     1   110.1100470 384.091200
   4110   4115   4117     1   110.1100470 384.091200
   4110   4115   4118     1   110.1100470 384.091200
   4111   4109   4112     1   108.4600466 328.025600
   4113   4110   4115     1   108.0100461 406.684800
   4113   4110   4114     1   109.7500473 328.025600
   4114   4110   4115     1   108.0100461 406.684800
   4116   4115   4117     1   108.3000464 339.740800
   4116   4115   4118     1   108.3000464 339.740800
   4117   4115   4118     1   108.3000464 339.740800
   4119   4121   4123     1   108.8800464 416.726400
   4119   4121   4124     1   108.8800464 416.726400
   4120   4119   4121     1   117.6800502 383.254400
   4121   4122   4125     1   110.5600475 386.601600
   4121   4122   4126     1   110.5600475 386.601600
   4122   4127   4128     1   110.1100470 384.091200
   4122   4127   4129     1   110.1100470 384.091200
   4122   4127   4130     1   110.1100470 384.091200
   4122   4121   4123     1   109.5600471 388.275200
   4122   4121   4124     1   109.5600471 388.275200
   4123   4121   4124     1   108.4600466 328.025600
   4125   4122   4127     1   108.0100461 406.684800
   4125   4122   4126     1   109.7500473 328.025600
   4126   4122   4127     1   108.0100461 406.684800
   4128   4127   4129     1   108.3000464 339.740800
   4128   4127   4130     1   108.3000464 339.740800
   4129   4127   4130     1   108.3000464 339.740800
   4131   4133   4135     1   108.8800464 416.726400
   4131   4133   4136     1   108.8800464 416.726400
   4132   4131   4133     1   117.6800502 383.254400
   4133   4134   4137     1   110.5600475 386.601600
   4133   4134   4138     1   110.5600475 386.601600
   4134   4133   4135     1   109.5600471 388.275200
   4134   4133   4136     1   109.5600471 388.275200
   4134   4139   4140     1   110.1100470 384.091200
   4134   4139   4141     1   110.1100470 384.091200
   4134   4139   4142     1   110.1100470 384.091200
   4135   4133   4136     1   108.4600466 328.025600
   4137   4134   4139     1   108.0100461 406.684800
   4137   4134   4138     1   109.7500473 328.025600
   4138   4134   4139     1   108.0100461 406.684800
   4140   4139   4141     1   108.3000464 339.740800
   4140   4139   4142     1   108.3000464 339.740800
   4141   4139   4142     1   108.3000464 339.740800
   4143   4145   4147     1   108.8800464 416.726400
   4143   4145   4148     1   108.8800464 416.726400
   4144   4143   4145     1   117.6800502 383.254400
   4145   4146   4149     1   110.5600475 386.601600
   4145   4146   4150     1   110.5600475 386.601600
   4146   4151   4152     1   110.1100470 384.091200
   4146   4151   4153     1   110.1100470 384.091200
   4146   4151   4154     1   110.1100470 384.091200
   4146   4145   4147     1   109.5600471 388.275200
   4146   4145   4148     1   109.5600471 388.275200
   4147   4145   4148     1   108.4600466 328.025600
   4149   4146   4151     1   108.0100461 406.684800
   4149   4146   4150     1   109.7500473 328.025600
   4150   4146   4151     1   108.0100461 406.684800
   4152   4151   4153     1   108.3000464 339.740800
   4152   4151   4154     1   108.3000464 339.740800
   4153   4151   4154     1   108.3000464 339.740800
   4155   4157   4159     1   108.8800464 416.726400
   4155   4157   4160     1   108.8800464 416.726400
   4156   4155   4157     1   117.6800502 383.254400
   4157   4158   4161     1   110.5600475 386.601600
   4157   4158   4162     1   110.5600475 386.601600
   4158   4157   4159     1   109.5600471 388.275200
   4158   4157   4160     1   109.5600471 388.275200
   4158   4163   4164     1   110.1100470 384.091200
   4158   4163   4165     1   110.1100470 384.091200
   4158   4163   4166     1   110.1100470 384.091200
   4159   4157   4160     1   108.4600466 328.025600
   4161   4158   4163     1   108.0100461 406.684800
   4161   4158   4162     1   109.7500473 328.025600
   4162   4158   4163     1   108.0100461 406.684800
   4164   4163   4165     1   108.3000464 339.740800
   4164   4163   4166     1   108.3000464 339.740800
   4165   4163   4166     1   108.3000464 339.740800
   4167   4169   4171     1   108.8800464 416.726400
   4167   4169   4172     1   108.8800464 416.726400
   4168   4167   4169     1   117.6800502 383.254400
   4169   4170   4173     1   110.5600475 386.601600
   4169   4170   4174     1   110.5600475 386.601600
   4170   4175   4176     1   110.1100470 384.091200
   4170   4175   4177     1   110.1100470 384.091200
   4170   4175   4178     1   110.1100470 384.091200
   4170   4169   4171     1   109.5600471 388.275200
   4170   4169   4172     1   109.5600471 388.275200
   4171   4169   4172     1   108.4600466 328.025600
   4173   4170   4175     1   108.0100461 406.684800
   4173   4170   4174     1   109.7500473 328.025600
   4174   4170   4175     1   108.0100461 406.684800
   4176   4175   4177     1   108.3000464 339.740800
   4176   4175   4178     1   108.3000464 339.740800
   4177   4175   4178     1   108.3000464 339.740800
   4179   4181   4183     1   108.8800464 416.726400
   4179   4181   4184     1   108.8800464 416.726400
   4180   4179   4181     1   117.6800502 383.254400
   4181   4182   4185     1   110.5600475 386.601600
   4181   4182   4186     1   110.5600475 386.601600
   4182   4181   4183     1   109.5600471 388.275200
   4182   4181   4184     1   109.5600471 388.275200
   4182   4187   4188     1   110.1100470 384.091200
   4182   4187   4189     1   110.1100470 384.091200
   4182   4187   4190     1   110.1100470 384.091200
   4183   4181   4184     1   108.4600466 328.025600
   4185   4182   4187     1   108.0100461 406.684800
   4185   4182   4186     1   109.7500473 328.025600
   4186   4182   4187     1   108.0100461 406.684800
   4188   4187   4189     1   108.3000464 339.740800
   4188   4187   4190     1   108.3000464 339.740800
   4189   4187   4190     1   108.3000464 339.740800
   4191   4193   4195     1   108.8800464 416.726400
   4191   4193   4196     1   108.8800464 416.726400
   4192   4191   4193     1   117.6800502 383.254400
   4193   4194   4197     1   110.5600475 386.601600
   4193   4194   4198     1   110.5600475 386.601600
   4194   4199   4200     1   110.1100470 384.091200
   4194   4199   4201     1   110.1100470 384.091200
   4194   4199   4202     1   110.1100470 384.091200
   4194   4193   4195     1   109.5600471 388.275200
   4194   4193   4196     1   109.5600471 388.275200
   4195   4193   4196     1   108.4600466 328.025600
   4197   4194   4199     1   108.0100461 406.684800
   4197   4194   4198     1   109.7500473 328.025600
   4198   4194   4199     1   108.0100461 406.684800
   4200   4199   4201     1   108.3000464 339.740800
   4200   4199   4202     1   108.3000464 339.740800
   4201   4199   4202     1   108.3000464 339.740800
   4203   4205   4207     1   108.8800464 416.726400
   4203   4205   4208     1   108.8800464 416.726400
   4204   4203   4205     1   117.6800502 383.254400
   4205   4206   4209     1   110.5600475 386.601600
   4205   4206   4210     1   110.5600475 386.601600
   4206   4205   4207     1   109.5600471 388.275200
   4206   4205   4208     1   109.5600471 388.275200
   4206   4211   4212     1   110.1100470 384.091200
   4206   4211   4213     1   110.1100470 384.091200
   4206   4211   4214     1   110.1100470 384.091200
   4207   4205   4208     1   108.4600466 328.025600
   4209   4206   4211     1   108.0100461 406.684800
   4209   4206   4210     1   109.7500473 328.025600
   4210   4206   4211     1   108.0100461 406.684800
   4212   4211   4213     1   108.3000464 339.740800
   4212   4211   4214     1   108.3000464 339.740800
   4213   4211   4214     1   108.3000464 339.740800
   4215   4217   4219     1   108.8800464 416.726400
   4215   4217   4220     1   108.8800464 416.726400
   4216   4215   4217     1   117.6800502 383.254400
   4217   4218   4221     1   110.5600475 386.601600
   4217   4218   4222     1   110.5600475 386.601600
   4218   4223   4224     1   110.1100470 384.091200
   4218   4223   4225     1   110.1100470 384.091200
   4218   4223   4226     1   110.1100470 384.091200
   4218   4217   4219     1   109.5600471 388.275200
   4218   4217   4220     1   109.5600471 388.275200
   4219   4217   4220     1   108.4600466 328.025600
   4221   4218   4223     1   108.0100461 406.684800
   4221   4218   4222     1   109.7500473 328.025600
   4222   4218   4223     1   108.0100461 406.684800
   4224   4223   4225     1   108.3000464 339.740800
   4224   4223   4226     1   108.3000464 339.740800
   4225   4223   4226     1   108.3000464 339.740800
   4227   4229   4231     1   108.8800464 416.726400
   4227   4229   4232     1   108.8800464 416.726400
   4228   4227   4229     1   117.6800502 383.254400
   4229   4230   4233     1   110.5600475 386.601600
   4229   4230   4234     1   110.5600475 386.601600
   4230   4229   4231     1   109.5600471 388.275200
   4230   4229   4232     1   109.5600471 388.275200
   4230   4235   4236     1   110.1100470 384.091200
   4230   4235   4237     1   110.1100470 384.091200
   4230   4235   4238     1   110.1100470 384.091200
   4231   4229   4232     1   108.4600466 328.025600
   4233   4230   4235     1   108.0100461 406.684800
   4233   4230   4234     1   109.7500473 328.025600
   4234   4230   4235     1   108.0100461 406.684800
   4236   4235   4237     1   108.3000464 339.740800
   4236   4235   4238     1   108.3000464 339.740800
   4237   4235   4238     1   108.3000464 339.740800
   4239   4241   4243     1   108.8800464 416.726400
   4239   4241   4244     1   108.8800464 416.726400
   4240   4239   4241     1   117.6800502 383.254400
   4241   4242   4245     1   110.5600475 386.601600
   4241   4242   4246     1   110.5600475 386.601600
   4242   4247   4248     1   110.1100470 384.091200
   4242   4247   4249     1   110.1100470 384.091200
   4242   4247   4250     1   110.1100470 384.091200
   4242   4241   4243     1   109.5600471 388.275200
   4242   4241   4244     1   109.5600471 388.275200
   4243   4241   4244     1   108.4600466 328.025600
   4245   4242   4247     1   108.0100461 406.684800
   4245   4242   4246     1   109.7500473 328.025600
   4246   4242   4247     1   108.0100461 406.684800
   4248   4247   4249     1   108.3000464 339.740800
   4248   4247   4250     1   108.3000464 339.740800
   4249   4247   4250     1   108.3000464 339.740800
   4251   4253   4255     1   108.8800464 416.726400
   4251   4253   4256     1   108.8800464 416.726400
   4252   4251   4253     1   117.6800502 383.254400
   4253   4254   4257     1   110.5600475 386.601600
   4253   4254   4258     1   110.5600475 386.601600
   4254   4253   4255     1   109.5600471 388.275200
   4254   4253   4256     1   109.5600471 388.275200
   4254   4259   4260     1   110.1100470 384.091200
   4254   4259   4261     1   110.1100470 384.091200
   4254   4259   4262     1   110.1100470 384.091200
   4255   4253   4256     1   108.4600466 328.025600
   4257   4254   4259     1   108.0100461 406.684800
   4257   4254   4258     1   109.7500473 328.025600
   4258   4254   4259     1   108.0100461 406.684800
   4260   4259   4261     1   108.3000464 339.740800
   4260   4259   4262     1   108.3000464 339.740800
   4261   4259   4262     1   108.3000464 339.740800
   4263   4265   4267     1   108.8800464 416.726400
   4263   4265   4268     1   108.8800464 416.726400
   4264   4263   4265     1   117.6800502 383.254400
   4265   4266   4269     1   110.5600475 386.601600
   4265   4266   4270     1   110.5600475 386.601600
   4266   4271   4272     1   110.1100470 384.091200
   4266   4271   4273     1   110.1100470 384.091200
   4266   4271   4274     1   110.1100470 384.091200
   4266   4265   4267     1   109.5600471 388.275200
   4266   4265   4268     1   109.5600471 388.275200
   4267   4265   4268     1   108.4600466 328.025600
   4269   4266   4271     1   108.0100461 406.684800
   4269   4266   4270     1   109.7500473 328.025600
   4270   4266   4271     1   108.0100461 406.684800
   4272   4271   4273     1   108.3000464 339.740800
   4272   4271   4274     1   108.3000464 339.740800
   4273   4271   4274     1   108.3000464 339.740800
   4275   4277   4279     1   108.8800464 416.726400
   4275   4277   4280     1   108.8800464 416.726400
   4276   4275   4277     1   117.6800502 383.254400
   4277   4278   4281     1   110.5600475 386.601600
   4277   4278   4282     1   110.5600475 386.601600
   4278   4277   4279     1   109.5600471 388.275200
   4278   4277   4280     1   109.5600471 388.275200
   4278   4283   4284     1   110.1100470 384.091200
   4278   4283   4285     1   110.1100470 384.091200
   4278   4283   4286     1   110.1100470 384.091200
   4279   4277   4280     1   108.4600466 328.025600
   4281   4278   4283     1   108.0100461 406.684800
   4281   4278   4282     1   109.7500473 328.025600
   4282   4278   4283     1   108.0100461 406.684800
   4284   4283   4285     1   108.3000464 339.740800
   4284   4283   4286     1   108.3000464 339.740800
   4285   4283   4286     1   108.3000464 339.740800
   4287   4289   4291     1   108.8800464 416.726400
   4287   4289   4292     1   108.8800464 416.726400
   4288   4287   4289     1   117.6800502 383.254400
   4289   4290   4293     1   110.5600475 386.601600
   4289   4290   4294     1   110.5600475 386.601600
   4290   4295   4296     1   110.1100470 384.091200
   4290   4295   4297     1   110.1100470 384.091200
   4290   4295   4298     1   110.1100470 384.091200
   4290   4289   4291     1   109.5600471 388.275200
   4290   4289   4292     1   109.5600471 388.275200
   4291   4289   4292     1   108.4600466 328.025600
   4293   4290   4295     1   108.0100461 406.684800
   4293   4290   4294     1   109.7500473 328.025600
   4294   4290   4295     1   108.0100461 406.684800
   4296   4295   4297     1   108.3000464 339.740800
   4296   4295   4298     1   108.3000464 339.740800
   4297   4295   4298     1   108.3000464 339.740800
   4299   4301   4303     1   108.8800464 416.726400
   4299   4301   4304     1   108.8800464 416.726400
   4300   4299   4301     1   117.6800502 383.254400
   4301   4302   4305     1   110.5600475 386.601600
   4301   4302   4306     1   110.5600475 386.601600
   4302   4301   4303     1   109.5600471 388.275200
   4302   4301   4304     1   109.5600471 388.275200
   4302   4307   4308     1   110.1100470 384.091200
   4302   4307   4309     1   110.1100470 384.091200
   4302   4307   4310     1   110.1100470 384.091200
   4303   4301   4304     1   108.4600466 328.025600
   4305   4302   4307     1   108.0100461 406.684800
   4305   4302   4306     1   109.7500473 328.025600
   4306   4302   4307     1   108.0100461 406.684800
   4308   4307   4309     1   108.3000464 339.740800
   4308   4307   4310     1   108.3000464 339.740800
   4309   4307   4310     1   108.3000464 339.740800
   4311   4313   4315     1   108.8800464 416.726400
   4311   4313   4316     1   108.8800464 416.726400
   4312   4311   4313     1   117.6800502 383.254400
   4313   4314   4317     1   110.5600475 386.601600
   4313   4314   4318     1   110.5600475 386.601600
   4314   4319   4320     1   110.1100470 384.091200
   4314   4319   4321     1   110.1100470 384.091200
   4314   4319   4322     1   110.1100470 384.091200
   4314   4313   4315     1   109.5600471 388.275200
   4314   4313   4316     1   109.5600471 388.275200
   4315   4313   4316     1   108.4600466 328.025600
   4317   4314   4319     1   108.0100461 406.684800
   4317   4314   4318     1   109.7500473 328.025600
   4318   4314   4319     1   108.0100461 406.684800
   4320   4319   4321     1   108.3000464 339.740800
   4320   4319   4322     1   108.3000464 339.740800
   4321   4319   4322     1   108.3000464 339.740800
   4323   4325   4327     1   108.8800464 416.726400
   4323   4325   4328     1   108.8800464 416.726400
   4324   4323   4325     1   117.6800502 383.254400
   4325   4326   4329     1   110.5600475 386.601600
   4325   4326   4330     1   110.5600475 386.601600
   4326   4325   4327     1   109.5600471 388.275200
   4326   4325   4328     1   109.5600471 388.275200
   4326   4331   4332     1   110.1100470 384.091200
   4326   4331   4333     1   110.1100470 384.091200
   4326   4331   4334     1   110.1100470 384.091200
   4327   4325   4328     1   108.4600466 328.025600
   4329   4326   4331     1   108.0100461 406.684800
   4329   4326   4330     1   109.7500473 328.025600
   4330   4326   4331     1   108.0100461 406.684800
   4332   4331   4333     1   108.3000464 339.740800
   4332   4331   4334     1   108.3000464 339.740800
   4333   4331   4334     1   108.3000464 339.740800
   4335   4337   4339     1   108.8800464 416.726400
   4335   4337   4340     1   108.8800464 416.726400
   4336   4335   4337     1   117.6800502 383.254400
   4337   4338   4341     1   110.5600475 386.601600
   4337   4338   4342     1   110.5600475 386.601600
   4338   4343   4344     1   110.1100470 384.091200
   4338   4343   4345     1   110.1100470 384.091200
   4338   4343   4346     1   110.1100470 384.091200
   4338   4337   4339     1   109.5600471 388.275200
   4338   4337   4340     1   109.5600471 388.275200
   4339   4337   4340     1   108.4600466 328.025600
   4341   4338   4343     1   108.0100461 406.684800
   4341   4338   4342     1   109.7500473 328.025600
   4342   4338   4343     1   108.0100461 406.684800
   4344   4343   4345     1   108.3000464 339.740800
   4344   4343   4346     1   108.3000464 339.740800
   4345   4343   4346     1   108.3000464 339.740800
   4347   4349   4351     1   108.8800464 416.726400
   4347   4349   4352     1   108.8800464 416.726400
   4348   4347   4349     1   117.6800502 383.254400
   4349   4350   4353     1   110.5600475 386.601600
   4349   4350   4354     1   110.5600475 386.601600
   4350   4349   4351     1   109.5600471 388.275200
   4350   4349   4352     1   109.5600471 388.275200
   4350   4355   4356     1   110.1100470 384.091200
   4350   4355   4357     1   110.1100470 384.091200
   4350   4355   4358     1   110.1100470 384.091200
   4351   4349   4352     1   108.4600466 328.025600
   4353   4350   4355     1   108.0100461 406.684800
   4353   4350   4354     1   109.7500473 328.025600
   4354   4350   4355     1   108.0100461 406.684800
   4356   4355   4357     1   108.3000464 339.740800
   4356   4355   4358     1   108.3000464 339.740800
   4357   4355   4358     1   108.3000464 339.740800
   4359   4361   4363     1   108.8800464 416.726400
   4359   4361   4364     1   108.8800464 416.726400
   4360   4359   4361     1   117.6800502 383.254400
   4361   4362   4365     1   110.5600475 386.601600
   4361   4362   4366     1   110.5600475 386.601600
   4362   4367   4368     1   110.1100470 384.091200
   4362   4367   4369     1   110.1100470 384.091200
   4362   4367   4370     1   110.1100470 384.091200
   4362   4361   4363     1   109.5600471 388.275200
   4362   4361   4364     1   109.5600471 388.275200
   4363   4361   4364     1   108.4600466 328.025600
   4365   4362   4367     1   108.0100461 406.684800
   4365   4362   4366     1   109.7500473 328.025600
   4366   4362   4367     1   108.0100461 406.684800
   4368   4367   4369     1   108.3000464 339.740800
   4368   4367   4370     1   108.3000464 339.740800
   4369   4367   4370     1   108.3000464 339.740800
   4371   4373   4375     1   108.8800464 416.726400
   4371   4373   4376     1   108.8800464 416.726400
   4372   4371   4373     1   117.6800502 383.254400
   4373   4374   4377     1   110.5600475 386.601600
   4373   4374   4378     1   110.5600475 386.601600
   4374   4373   4375     1   109.5600471 388.275200
   4374   4373   4376     1   109.5600471 388.275200
   4374   4379   4380     1   110.1100470 384.091200
   4374   4379   4381     1   110.1100470 384.091200
   4374   4379   4382     1   110.1100470 384.091200
   4375   4373   4376     1   108.4600466 328.025600
   4377   4374   4379     1   108.0100461 406.684800
   4377   4374   4378     1   109.7500473 328.025600
   4378   4374   4379     1   108.0100461 406.684800
   4380   4379   4381     1   108.3000464 339.740800
   4380   4379   4382     1   108.3000464 339.740800
   4381   4379   4382     1   108.3000464 339.740800
   4383   4385   4387     1   108.8800464 416.726400
   4383   4385   4388     1   108.8800464 416.726400
   4384   4383   4385     1   117.6800502 383.254400
   4385   4386   4389     1   110.5600475 386.601600
   4385   4386   4390     1   110.5600475 386.601600
   4386   4391   4392     1   110.1100470 384.091200
   4386   4391   4393     1   110.1100470 384.091200
   4386   4391   4394     1   110.1100470 384.091200
   4386   4385   4387     1   109.5600471 388.275200
   4386   4385   4388     1   109.5600471 388.275200
   4387   4385   4388     1   108.4600466 328.025600
   4389   4386   4391     1   108.0100461 406.684800
   4389   4386   4390     1   109.7500473 328.025600
   4390   4386   4391     1   108.0100461 406.684800
   4392   4391   4393     1   108.3000464 339.740800
   4392   4391   4394     1   108.3000464 339.740800
   4393   4391   4394     1   108.3000464 339.740800
   4395   4397   4399     1   108.8800464 416.726400
   4395   4397   4400     1   108.8800464 416.726400
   4396   4395   4397     1   117.6800502 383.254400
   4397   4398   4401     1   110.5600475 386.601600
   4397   4398   4402     1   110.5600475 386.601600
   4398   4397   4399     1   109.5600471 388.275200
   4398   4397   4400     1   109.5600471 388.275200
   4398   4403   4404     1   110.1100470 384.091200
   4398   4403   4405     1   110.1100470 384.091200
   4398   4403   4406     1   110.1100470 384.091200
   4399   4397   4400     1   108.4600466 328.025600
   4401   4398   4403     1   108.0100461 406.684800
   4401   4398   4402     1   109.7500473 328.025600
   4402   4398   4403     1   108.0100461 406.684800
   4404   4403   4405     1   108.3000464 339.740800
   4404   4403   4406     1   108.3000464 339.740800
   4405   4403   4406     1   108.3000464 339.740800
   4407   4409   4411     1   108.8800464 416.726400
   4407   4409   4412     1   108.8800464 416.726400
   4408   4407   4409     1   117.6800502 383.254400
   4409   4410   4413     1   110.5600475 386.601600
   4409   4410   4414     1   110.5600475 386.601600
   4410   4415   4416     1   110.1100470 384.091200
   4410   4415   4417     1   110.1100470 384.091200
   4410   4415   4418     1   110.1100470 384.091200
   4410   4409   4411     1   109.5600471 388.275200
   4410   4409   4412     1   109.5600471 388.275200
   4411   4409   4412     1   108.4600466 328.025600
   4413   4410   4415     1   108.0100461 406.684800
   4413   4410   4414     1   109.7500473 328.025600
   4414   4410   4415     1   108.0100461 406.684800
   4416   4415   4417     1   108.3000464 339.740800
   4416   4415   4418     1   108.3000464 339.740800
   4417   4415   4418     1   108.3000464 339.740800
   4419   4421   4423     1   108.8800464 416.726400
   4419   4421   4424     1   108.8800464 416.726400
   4420   4419   4421     1   117.6800502 383.254400
   4421   4422   4425     1   110.5600475 386.601600
   4421   4422   4426     1   110.5600475 386.601600
   4422   4421   4423     1   109.5600471 388.275200
   4422   4421   4424     1   109.5600471 388.275200
   4422   4427   4428     1   110.1100470 384.091200
   4422   4427   4429     1   110.1100470 384.091200
   4422   4427   4430     1   110.1100470 384.091200
   4423   4421   4424     1   108.4600466 328.025600
   4425   4422   4427     1   108.0100461 406.684800
   4425   4422   4426     1   109.7500473 328.025600
   4426   4422   4427     1   108.0100461 406.684800
   4428   4427   4429     1   108.3000464 339.740800
   4428   4427   4430     1   108.3000464 339.740800
   4429   4427   4430     1   108.3000464 339.740800
   4431   4433   4435     1   108.8800464 416.726400
   4431   4433   4436     1   108.8800464 416.726400
   4432   4431   4433     1   117.6800502 383.254400
   4433   4434   4437     1   110.5600475 386.601600
   4433   4434   4438     1   110.5600475 386.601600
   4434   4439   4440     1   110.1100470 384.091200
   4434   4439   4441     1   110.1100470 384.091200
   4434   4439   4442     1   110.1100470 384.091200
   4434   4433   4435     1   109.5600471 388.275200
   4434   4433   4436     1   109.5600471 388.275200
   4435   4433   4436     1   108.4600466 328.025600
   4437   4434   4439     1   108.0100461 406.684800
   4437   4434   4438     1   109.7500473 328.025600
   4438   4434   4439     1   108.0100461 406.684800
   4440   4439   4441     1   108.3000464 339.740800
   4440   4439   4442     1   108.3000464 339.740800
   4441   4439   4442     1   108.3000464 339.740800
   4443   4445   4447     1   108.8800464 416.726400
   4443   4445   4448     1   108.8800464 416.726400
   4444   4443   4445     1   117.6800502 383.254400
   4445   4446   4449     1   110.5600475 386.601600
   4445   4446   4450     1   110.5600475 386.601600
   4446   4445   4447     1   109.5600471 388.275200
   4446   4445   4448     1   109.5600471 388.275200
   4446   4451   4452     1   110.1100470 384.091200
   4446   4451   4453     1   110.1100470 384.091200
   4446   4451   4454     1   110.1100470 384.091200
   4447   4445   4448     1   108.4600466 328.025600
   4449   4446   4451     1   108.0100461 406.684800
   4449   4446   4450     1   109.7500473 328.025600
   4450   4446   4451     1   108.0100461 406.684800
   4452   4451   4453     1   108.3000464 339.740800
   4452   4451   4454     1   108.3000464 339.740800
   4453   4451   4454     1   108.3000464 339.740800
   4455   4457   4459     1   108.8800464 416.726400
   4455   4457   4460     1   108.8800464 416.726400
   4456   4455   4457     1   117.6800502 383.254400
   4457   4458   4461     1   110.5600475 386.601600
   4457   4458   4462     1   110.5600475 386.601600
   4458   4463   4464     1   110.1100470 384.091200
   4458   4463   4465     1   110.1100470 384.091200
   4458   4463   4466     1   110.1100470 384.091200
   4458   4457   4459     1   109.5600471 388.275200
   4458   4457   4460     1   109.5600471 388.275200
   4459   4457   4460     1   108.4600466 328.025600
   4461   4458   4463     1   108.0100461 406.684800
   4461   4458   4462     1   109.7500473 328.025600
   4462   4458   4463     1   108.0100461 406.684800
   4464   4463   4465     1   108.3000464 339.740800
   4464   4463   4466     1   108.3000464 339.740800
   4465   4463   4466     1   108.3000464 339.740800
   4467   4469   4471     1   108.8800464 416.726400
   4467   4469   4472     1   108.8800464 416.726400
   4468   4467   4469     1   117.6800502 383.254400
   4469   4470   4473     1   110.5600475 386.601600
   4469   4470   4474     1   110.5600475 386.601600
   4470   4469   4471     1   109.5600471 388.275200
   4470   4469   4472     1   109.5600471 388.275200
   4470   4475   4476     1   110.1100470 384.091200
   4470   4475   4477     1   110.1100470 384.091200
   4470   4475   4478     1   110.1100470 384.091200
   4471   4469   4472     1   108.4600466 328.025600
   4473   4470   4475     1   108.0100461 406.684800
   4473   4470   4474     1   109.7500473 328.025600
   4474   4470   4475     1   108.0100461 406.684800
   4476   4475   4477     1   108.3000464 339.740800
   4476   4475   4478     1   108.3000464 339.740800
   4477   4475   4478     1   108.3000464 339.740800
   4479   4481   4483     1   108.8800464 416.726400
   4479   4481   4484     1   108.8800464 416.726400
   4480   4479   4481     1   117.6800502 383.254400
   4481   4482   4485     1   110.5600475 386.601600
   4481   4482   4486     1   110.5600475 386.601600
   4482   4487   4488     1   110.1100470 384.091200
   4482   4487   4489     1   110.1100470 384.091200
   4482   4487   4490     1   110.1100470 384.091200
   4482   4481   4483     1   109.5600471 388.275200
   4482   4481   4484     1   109.5600471 388.275200
   4483   4481   4484     1   108.4600466 328.025600
   4485   4482   4487     1   108.0100461 406.684800
   4485   4482   4486     1   109.7500473 328.025600
   4486   4482   4487     1   108.0100461 406.684800
   4488   4487   4489     1   108.3000464 339.740800
   4488   4487   4490     1   108.3000464 339.740800
   4489   4487   4490     1   108.3000464 339.740800
   4491   4493   4495     1   108.8800464 416.726400
   4491   4493   4496     1   108.8800464 416.726400
   4492   4491   4493     1   117.6800502 383.254400
   4493   4494   4497     1   110.5600475 386.601600
   4493   4494   4498     1   110.5600475 386.601600
   4494   4493   4495     1   109.5600471 388.275200
   4494   4493   4496     1   109.5600471 388.275200
   4494   4499   4500     1   110.1100470 384.091200
   4494   4499   4501     1   110.1100470 384.091200
   4494   4499   4502     1   110.1100470 384.091200
   4495   4493   4496     1   108.4600466 328.025600
   4497   4494   4499     1   108.0100461 406.684800
   4497   4494   4498     1   109.7500473 328.025600
   4498   4494   4499     1   108.0100461 406.684800
   4500   4499   4501     1   108.3000464 339.740800
   4500   4499   4502     1   108.3000464 339.740800
   4501   4499   4502     1   108.3000464 339.740800
   4503   4505   4507     1   108.8800464 416.726400
   4503   4505   4508     1   108.8800464 416.726400
   4504   4503   4505     1   117.6800502 383.254400
   4505   4506   4509     1   110.5600475 386.601600
   4505   4506   4510     1   110.5600475 386.601600
   4506   4511   4512     1   110.1100470 384.091200
   4506   4511   4513     1   110.1100470 384.091200
   4506   4511   4514     1   110.1100470 384.091200
   4506   4505   4507     1   109.5600471 388.275200
   4506   4505   4508     1   109.5600471 388.275200
   4507   4505   4508     1   108.4600466 328.025600
   4509   4506   4511     1   108.0100461 406.684800
   4509   4506   4510     1   109.7500473 328.025600
   4510   4506   4511     1   108.0100461 406.684800
   4512   4511   4513     1   108.3000464 339.740800
   4512   4511   4514     1   108.3000464 339.740800
   4513   4511   4514     1   108.3000464 339.740800
   4515   4517   4519     1   108.8800464 416.726400
   4515   4517   4520     1   108.8800464 416.726400
   4516   4515   4517     1   117.6800502 383.254400
   4517   4518   4521     1   110.5600475 386.601600
   4517   4518   4522     1   110.5600475 386.601600
   4518   4517   4519     1   109.5600471 388.275200
   4518   4517   4520     1   109.5600471 388.275200
   4518   4523   4524     1   110.1100470 384.091200
   4518   4523   4525     1   110.1100470 384.091200
   4518   4523   4526     1   110.1100470 384.091200
   4519   4517   4520     1   108.4600466 328.025600
   4521   4518   4523     1   108.0100461 406.684800
   4521   4518   4522     1   109.7500473 328.025600
   4522   4518   4523     1   108.0100461 406.684800
   4524   4523   4525     1   108.3000464 339.740800
   4524   4523   4526     1   108.3000464 339.740800
   4525   4523   4526     1   108.3000464 339.740800
   4527   4529   4531     1   108.8800464 416.726400
   4527   4529   4532     1   108.8800464 416.726400
   4528   4527   4529     1   117.6800502 383.254400
   4529   4530   4533     1   110.5600475 386.601600
   4529   4530   4534     1   110.5600475 386.601600
   4530   4535   4536     1   110.1100470 384.091200
   4530   4535   4537     1   110.1100470 384.091200
   4530   4535   4538     1   110.1100470 384.091200
   4530   4529   4531     1   109.5600471 388.275200
   4530   4529   4532     1   109.5600471 388.275200
   4531   4529   4532     1   108.4600466 328.025600
   4533   4530   4535     1   108.0100461 406.684800
   4533   4530   4534     1   109.7500473 328.025600
   4534   4530   4535     1   108.0100461 406.684800
   4536   4535   4537     1   108.3000464 339.740800
   4536   4535   4538     1   108.3000464 339.740800
   4537   4535   4538     1   108.3000464 339.740800
   4539   4541   4543     1   108.8800464 416.726400
   4539   4541   4544     1   108.8800464 416.726400
   4540   4539   4541     1   117.6800502 383.254400
   4541   4542   4545     1   110.5600475 386.601600
   4541   4542   4546     1   110.5600475 386.601600
   4542   4541   4543     1   109.5600471 388.275200
   4542   4541   4544     1   109.5600471 388.275200
   4542   4547   4548     1   110.1100470 384.091200
   4542   4547   4549     1   110.1100470 384.091200
   4542   4547   4550     1   110.1100470 384.091200
   4543   4541   4544     1   108.4600466 328.025600
   4545   4542   4547     1   108.0100461 406.684800
   4545   4542   4546     1   109.7500473 328.025600
   4546   4542   4547     1   108.0100461 406.684800
   4548   4547   4549     1   108.3000464 339.740800
   4548   4547   4550     1   108.3000464 339.740800
   4549   4547   4550     1   108.3000464 339.740800
   4551   4553   4555     1   108.8800464 416.726400
   4551   4553   4556     1   108.8800464 416.726400
   4552   4551   4553     1   117.6800502 383.254400
   4553   4554   4557     1   110.5600475 386.601600
   4553   4554   4558     1   110.5600475 386.601600
   4554   4559   4560     1   110.1100470 384.091200
   4554   4559   4561     1   110.1100470 384.091200
   4554   4559   4562     1   110.1100470 384.091200
   4554   4553   4555     1   109.5600471 388.275200
   4554   4553   4556     1   109.5600471 388.275200
   4555   4553   4556     1   108.4600466 328.025600
   4557   4554   4559     1   108.0100461 406.684800
   4557   4554   4558     1   109.7500473 328.025600
   4558   4554   4559     1   108.0100461 406.684800
   4560   4559   4561     1   108.3000464 339.740800
   4560   4559   4562     1   108.3000464 339.740800
   4561   4559   4562     1   108.3000464 339.740800
   4563   4565   4567     1   108.8800464 416.726400
   4563   4565   4568     1   108.8800464 416.726400
   4564   4563   4565     1   117.6800502 383.254400
   4565   4566   4569     1   110.5600475 386.601600
   4565   4566   4570     1   110.5600475 386.601600
   4566   4565   4567     1   109.5600471 388.275200
   4566   4565   4568     1   109.5600471 388.275200
   4566   4571   4572     1   110.1100470 384.091200
   4566   4571   4573     1   110.1100470 384.091200
   4566   4571   4574     1   110.1100470 384.091200
   4567   4565   4568     1   108.4600466 328.025600
   4569   4566   4571     1   108.0100461 406.684800
   4569   4566   4570     1   109.7500473 328.025600
   4570   4566   4571     1   108.0100461 406.684800
   4572   4571   4573     1   108.3000464 339.740800
   4572   4571   4574     1   108.3000464 339.740800
   4573   4571   4574     1   108.3000464 339.740800
   4575   4577   4579     1   108.8800464 416.726400
   4575   4577   4580     1   108.8800464 416.726400
   4576   4575   4577     1   117.6800502 383.254400
   4577   4578   4581     1   110.5600475 386.601600
   4577   4578   4582     1   110.5600475 386.601600
   4578   4583   4584     1   110.1100470 384.091200
   4578   4583   4585     1   110.1100470 384.091200
   4578   4583   4586     1   110.1100470 384.091200
   4578   4577   4579     1   109.5600471 388.275200
   4578   4577   4580     1   109.5600471 388.275200
   4579   4577   4580     1   108.4600466 328.025600
   4581   4578   4583     1   108.0100461 406.684800
   4581   4578   4582     1   109.7500473 328.025600
   4582   4578   4583     1   108.0100461 406.684800
   4584   4583   4585     1   108.3000464 339.740800
   4584   4583   4586     1   108.3000464 339.740800
   4585   4583   4586     1   108.3000464 339.740800
   4587   4589   4591     1   108.8800464 416.726400
   4587   4589   4592     1   108.8800464 416.726400
   4588   4587   4589     1   117.6800502 383.254400
   4589   4590   4593     1   110.5600475 386.601600
   4589   4590   4594     1   110.5600475 386.601600
   4590   4589   4591     1   109.5600471 388.275200
   4590   4589   4592     1   109.5600471 388.275200
   4590   4595   4596     1   110.1100470 384.091200
   4590   4595   4597     1   110.1100470 384.091200
   4590   4595   4598     1   110.1100470 384.091200
   4591   4589   4592     1   108.4600466 328.025600
   4593   4590   4595     1   108.0100461 406.684800
   4593   4590   4594     1   109.7500473 328.025600
   4594   4590   4595     1   108.0100461 406.684800
   4596   4595   4597     1   108.3000464 339.740800
   4596   4595   4598     1   108.3000464 339.740800
   4597   4595   4598     1   108.3000464 339.740800
   4599   4601   4603     1   108.8800464 416.726400
   4599   4601   4604     1   108.8800464 416.726400
   4600   4599   4601     1   117.6800502 383.254400
   4601   4602   4605     1   110.5600475 386.601600
   4601   4602   4606     1   110.5600475 386.601600
   4602   4607   4608     1   110.1100470 384.091200
   4602   4607   4609     1   110.1100470 384.091200
   4602   4607   4610     1   110.1100470 384.091200
   4602   4601   4603     1   109.5600471 388.275200
   4602   4601   4604     1   109.5600471 388.275200
   4603   4601   4604     1   108.4600466 328.025600
   4605   4602   4607     1   108.0100461 406.684800
   4605   4602   4606     1   109.7500473 328.025600
   4606   4602   4607     1   108.0100461 406.684800
   4608   4607   4609     1   108.3000464 339.740800
   4608   4607   4610     1   108.3000464 339.740800
   4609   4607   4610     1   108.3000464 339.740800
   4611   4613   4615     1   108.8800464 416.726400
   4611   4613   4616     1   108.8800464 416.726400
   4612   4611   4613     1   117.6800502 383.254400
   4613   4614   4617     1   110.5600475 386.601600
   4613   4614   4618     1   110.5600475 386.601600
   4614   4613   4615     1   109.5600471 388.275200
   4614   4613   4616     1   109.5600471 388.275200
   4614   4619   4620     1   110.1100470 384.091200
   4614   4619   4621     1   110.1100470 384.091200
   4614   4619   4622     1   110.1100470 384.091200
   4615   4613   4616     1   108.4600466 328.025600
   4617   4614   4619     1   108.0100461 406.684800
   4617   4614   4618     1   109.7500473 328.025600
   4618   4614   4619     1   108.0100461 406.684800
   4620   4619   4621     1   108.3000464 339.740800
   4620   4619   4622     1   108.3000464 339.740800
   4621   4619   4622     1   108.3000464 339.740800
   4623   4625   4627     1   108.8800464 416.726400
   4623   4625   4628     1   108.8800464 416.726400
   4624   4623   4625     1   117.6800502 383.254400
   4625   4626   4629     1   110.5600475 386.601600
   4625   4626   4630     1   110.5600475 386.601600
   4626   4631   4632     1   110.1100470 384.091200
   4626   4631   4633     1   110.1100470 384.091200
   4626   4631   4634     1   110.1100470 384.091200
   4626   4625   4627     1   109.5600471 388.275200
   4626   4625   4628     1   109.5600471 388.275200
   4627   4625   4628     1   108.4600466 328.025600
   4629   4626   4631     1   108.0100461 406.684800
   4629   4626   4630     1   109.7500473 328.025600
   4630   4626   4631     1   108.0100461 406.684800
   4632   4631   4633     1   108.3000464 339.740800
   4632   4631   4634     1   108.3000464 339.740800
   4633   4631   4634     1   108.3000464 339.740800
   4635   4637   4639     1   108.8800464 416.726400
   4635   4637   4640     1   108.8800464 416.726400
   4636   4635   4637     1   117.6800502 383.254400
   4637   4638   4641     1   110.5600475 386.601600
   4637   4638   4642     1   110.5600475 386.601600
   4638   4637   4639     1   109.5600471 388.275200
   4638   4637   4640     1   109.5600471 388.275200
   4638   4643   4644     1   110.1100470 384.091200
   4638   4643   4645     1   110.1100470 384.091200
   4638   4643   4646     1   110.1100470 384.091200
   4639   4637   4640     1   108.4600466 328.025600
   4641   4638   4643     1   108.0100461 406.684800
   4641   4638   4642     1   109.7500473 328.025600
   4642   4638   4643     1   108.0100461 406.684800
   4644   4643   4645     1   108.3000464 339.740800
   4644   4643   4646     1   108.3000464 339.740800
   4645   4643   4646     1   108.3000464 339.740800
   4647   4649   4651     1   108.8800464 416.726400
   4647   4649   4652     1   108.8800464 416.726400
   4648   4647   4649     1   117.6800502 383.254400
   4649   4650   4653     1   110.5600475 386.601600
   4649   4650   4654     1   110.5600475 386.601600
   4650   4655   4656     1   110.1100470 384.091200
   4650   4655   4657     1   110.1100470 384.091200
   4650   4655   4658     1   110.1100470 384.091200
   4650   4649   4651     1   109.5600471 388.275200
   4650   4649   4652     1   109.5600471 388.275200
   4651   4649   4652     1   108.4600466 328.025600
   4653   4650   4655     1   108.0100461 406.684800
   4653   4650   4654     1   109.7500473 328.025600
   4654   4650   4655     1   108.0100461 406.684800
   4656   4655   4657     1   108.3000464 339.740800
   4656   4655   4658     1   108.3000464 339.740800
   4657   4655   4658     1   108.3000464 339.740800
   4659   4661   4663     1   108.8800464 416.726400
   4659   4661   4664     1   108.8800464 416.726400
   4660   4659   4661     1   117.6800502 383.254400
   4661   4662   4665     1   110.5600475 386.601600
   4661   4662   4666     1   110.5600475 386.601600
   4662   4661   4663     1   109.5600471 388.275200
   4662   4661   4664     1   109.5600471 388.275200
   4662   4667   4668     1   110.1100470 384.091200
   4662   4667   4669     1   110.1100470 384.091200
   4662   4667   4670     1   110.1100470 384.091200
   4663   4661   4664     1   108.4600466 328.025600
   4665   4662   4667     1   108.0100461 406.684800
   4665   4662   4666     1   109.7500473 328.025600
   4666   4662   4667     1   108.0100461 406.684800
   4668   4667   4669     1   108.3000464 339.740800
   4668   4667   4670     1   108.3000464 339.740800
   4669   4667   4670     1   108.3000464 339.740800
   4671   4673   4675     1   108.8800464 416.726400
   4671   4673   4676     1   108.8800464 416.726400
   4672   4671   4673     1   117.6800502 383.254400
   4673   4674   4677     1   110.5600475 386.601600
   4673   4674   4678     1   110.5600475 386.601600
   4674   4679   4680     1   110.1100470 384.091200
   4674   4679   4681     1   110.1100470 384.091200
   4674   4679   4682     1   110.1100470 384.091200
   4674   4673   4675     1   109.5600471 388.275200
   4674   4673   4676     1   109.5600471 388.275200
   4675   4673   4676     1   108.4600466 328.025600
   4677   4674   4679     1   108.0100461 406.684800
   4677   4674   4678     1   109.7500473 328.025600
   4678   4674   4679     1   108.0100461 406.684800
   4680   4679   4681     1   108.3000464 339.740800
   4680   4679   4682     1   108.3000464 339.740800
   4681   4679   4682     1   108.3000464 339.740800
   4683   4685   4687     1   108.8800464 416.726400
   4683   4685   4688     1   108.8800464 416.726400
   4684   4683   4685     1   117.6800502 383.254400
   4685   4686   4689     1   110.5600475 386.601600
   4685   4686   4690     1   110.5600475 386.601600
   4686   4685   4687     1   109.5600471 388.275200
   4686   4685   4688     1   109.5600471 388.275200
   4686   4691   4692     1   110.1100470 384.091200
   4686   4691   4693     1   110.1100470 384.091200
   4686   4691   4694     1   110.1100470 384.091200
   4687   4685   4688     1   108.4600466 328.025600
   4689   4686   4691     1   108.0100461 406.684800
   4689   4686   4690     1   109.7500473 328.025600
   4690   4686   4691     1   108.0100461 406.684800
   4692   4691   4693     1   108.3000464 339.740800
   4692   4691   4694     1   108.3000464 339.740800
   4693   4691   4694     1   108.3000464 339.740800
   4695   4697   4699     1   108.8800464 416.726400
   4695   4697   4700     1   108.8800464 416.726400
   4696   4695   4697     1   117.6800502 383.254400
   4697   4698   4701     1   110.5600475 386.601600
   4697   4698   4702     1   110.5600475 386.601600
   4698   4703   4704     1   110.1100470 384.091200
   4698   4703   4705     1   110.1100470 384.091200
   4698   4703   4706     1   110.1100470 384.091200
   4698   4697   4699     1   109.5600471 388.275200
   4698   4697   4700     1   109.5600471 388.275200
   4699   4697   4700     1   108.4600466 328.025600
   4701   4698   4703     1   108.0100461 406.684800
   4701   4698   4702     1   109.7500473 328.025600
   4702   4698   4703     1   108.0100461 406.684800
   4704   4703   4705     1   108.3000464 339.740800
   4704   4703   4706     1   108.3000464 339.740800
   4705   4703   4706     1   108.3000464 339.740800
   4707   4709   4711     1   108.8800464 416.726400
   4707   4709   4712     1   108.8800464 416.726400
   4708   4707   4709     1   117.6800502 383.254400
   4709   4710   4713     1   110.5600475 386.601600
   4709   4710   4714     1   110.5600475 386.601600
   4710   4709   4711     1   109.5600471 388.275200
   4710   4709   4712     1   109.5600471 388.275200
   4710   4715   4716     1   110.1100470 384.091200
   4710   4715   4717     1   110.1100470 384.091200
   4710   4715   4718     1   110.1100470 384.091200
   4711   4709   4712     1   108.4600466 328.025600
   4713   4710   4715     1   108.0100461 406.684800
   4713   4710   4714     1   109.7500473 328.025600
   4714   4710   4715     1   108.0100461 406.684800
   4716   4715   4717     1   108.3000464 339.740800
   4716   4715   4718     1   108.3000464 339.740800
   4717   4715   4718     1   108.3000464 339.740800
   4719   4721   4723     1   108.8800464 416.726400
   4719   4721   4724     1   108.8800464 416.726400
   4720   4719   4721     1   117.6800502 383.254400
   4721   4722   4725     1   110.5600475 386.601600
   4721   4722   4726     1   110.5600475 386.601600
   4722   4727   4728     1   110.1100470 384.091200
   4722   4727   4729     1   110.1100470 384.091200
   4722   4727   4730     1   110.1100470 384.091200
   4722   4721   4723     1   109.5600471 388.275200
   4722   4721   4724     1   109.5600471 388.275200
   4723   4721   4724     1   108.4600466 328.025600
   4725   4722   4727     1   108.0100461 406.684800
   4725   4722   4726     1   109.7500473 328.025600
   4726   4722   4727     1   108.0100461 406.684800
   4728   4727   4729     1   108.3000464 339.740800
   4728   4727   4730     1   108.3000464 339.740800
   4729   4727   4730     1   108.3000464 339.740800
   4731   4733   4735     1   108.8800464 416.726400
   4731   4733   4736     1   108.8800464 416.726400
   4732   4731   4733     1   117.6800502 383.254400
   4733   4734   4737     1   110.5600475 386.601600
   4733   4734   4738     1   110.5600475 386.601600
   4734   4733   4735     1   109.5600471 388.275200
   4734   4733   4736     1   109.5600471 388.275200
   4734   4739   4740     1   110.1100470 384.091200
   4734   4739   4741     1   110.1100470 384.091200
   4734   4739   4742     1   110.1100470 384.091200
   4735   4733   4736     1   108.4600466 328.025600
   4737   4734   4739     1   108.0100461 406.684800
   4737   4734   4738     1   109.7500473 328.025600
   4738   4734   4739     1   108.0100461 406.684800
   4740   4739   4741     1   108.3000464 339.740800
   4740   4739   4742     1   108.3000464 339.740800
   4741   4739   4742     1   108.3000464 339.740800
   4743   4745   4747     1   108.8800464 416.726400
   4743   4745   4748     1   108.8800464 416.726400
   4744   4743   4745     1   117.6800502 383.254400
   4745   4746   4749     1   110.5600475 386.601600
   4745   4746   4750     1   110.5600475 386.601600
   4746   4751   4752     1   110.1100470 384.091200
   4746   4751   4753     1   110.1100470 384.091200
   4746   4751   4754     1   110.1100470 384.091200
   4746   4745   4747     1   109.5600471 388.275200
   4746   4745   4748     1   109.5600471 388.275200
   4747   4745   4748     1   108.4600466 328.025600
   4749   4746   4751     1   108.0100461 406.684800
   4749   4746   4750     1   109.7500473 328.025600
   4750   4746   4751     1   108.0100461 406.684800
   4752   4751   4753     1   108.3000464 339.740800
   4752   4751   4754     1   108.3000464 339.740800
   4753   4751   4754     1   108.3000464 339.740800
   4755   4757   4759     1   108.8800464 416.726400
   4755   4757   4760     1   108.8800464 416.726400
   4756   4755   4757     1   117.6800502 383.254400
   4757   4758   4761     1   110.5600475 386.601600
   4757   4758   4762     1   110.5600475 386.601600
   4758   4757   4759     1   109.5600471 388.275200
   4758   4757   4760     1   109.5600471 388.275200
   4758   4763   4764     1   110.1100470 384.091200
   4758   4763   4765     1   110.1100470 384.091200
   4758   4763   4766     1   110.1100470 384.091200
   4759   4757   4760     1   108.4600466 328.025600
   4761   4758   4763     1   108.0100461 406.684800
   4761   4758   4762     1   109.7500473 328.025600
   4762   4758   4763     1   108.0100461 406.684800
   4764   4763   4765     1   108.3000464 339.740800
   4764   4763   4766     1   108.3000464 339.740800
   4765   4763   4766     1   108.3000464 339.740800
   4767   4769   4771     1   108.8800464 416.726400
   4767   4769   4772     1   108.8800464 416.726400
   4768   4767   4769     1   117.6800502 383.254400
   4769   4770   4773     1   110.5600475 386.601600
   4769   4770   4774     1   110.5600475 386.601600
   4770   4775   4776     1   110.1100470 384.091200
   4770   4775   4777     1   110.1100470 384.091200
   4770   4775   4778     1   110.1100470 384.091200
   4770   4769   4771     1   109.5600471 388.275200
   4770   4769   4772     1   109.5600471 388.275200
   4771   4769   4772     1   108.4600466 328.025600
   4773   4770   4775     1   108.0100461 406.684800
   4773   4770   4774     1   109.7500473 328.025600
   4774   4770   4775     1   108.0100461 406.684800
   4776   4775   4777     1   108.3000464 339.740800
   4776   4775   4778     1   108.3000464 339.740800
   4777   4775   4778     1   108.3000464 339.740800
   4779   4781   4783     1   108.8800464 416.726400
   4779   4781   4784     1   108.8800464 416.726400
   4780   4779   4781     1   117.6800502 383.254400
   4781   4782   4785     1   110.5600475 386.601600
   4781   4782   4786     1   110.5600475 386.601600
   4782   4781   4783     1   109.5600471 388.275200
   4782   4781   4784     1   109.5600471 388.275200
   4782   4787   4788     1   110.1100470 384.091200
   4782   4787   4789     1   110.1100470 384.091200
   4782   4787   4790     1   110.1100470 384.091200
   4783   4781   4784     1   108.4600466 328.025600
   4785   4782   4787     1   108.0100461 406.684800
   4785   4782   4786     1   109.7500473 328.025600
   4786   4782   4787     1   108.0100461 406.684800
   4788   4787   4789     1   108.3000464 339.740800
   4788   4787   4790     1   108.3000464 339.740800
   4789   4787   4790     1   108.3000464 339.740800
   4791   4793   4795     1   108.8800464 416.726400
   4791   4793   4796     1   108.8800464 416.726400
   4792   4791   4793     1   117.6800502 383.254400
   4793   4794   4797     1   110.5600475 386.601600
   4793   4794   4798     1   110.5600475 386.601600
   4794   4799   4800     1   110.1100470 384.091200
   4794   4799   4801     1   110.1100470 384.091200
   4794   4799   4802     1   110.1100470 384.091200
   4794   4793   4795     1   109.5600471 388.275200
   4794   4793   4796     1   109.5600471 388.275200
   4795   4793   4796     1   108.4600466 328.025600
   4797   4794   4799     1   108.0100461 406.684800
   4797   4794   4798     1   109.7500473 328.025600
   4798   4794   4799     1   108.0100461 406.684800
   4800   4799   4801     1   108.3000464 339.740800
   4800   4799   4802     1   108.3000464 339.740800
   4801   4799   4802     1   108.3000464 339.740800

[ dihedrals ]
;    ai     aj     ak     al funct         c0         c1         c2         c3         c4         c5
      1      2      3      4     1  0.0000000  0.6508444  3
      1      7     13     14     1  0.0000000  0.6508444  3
      1      8     15     16     1  0.0000000  0.6508444  3
      2      1      7     13     1  0.0000000  0.6508444  3
      2      1      8     15     1  0.0000000  0.6508444  3
      2      3      4      5     1  0.0000000  0.6508444  3
      2      3      4      6     1  0.0000000  0.6508444  3
      7      1      2      3     1  0.0000000  0.6508444  3
      8      1      2      3     1  0.0000000  0.6508444  3
      3      4      5     11     1  0.0000000  0.6508444  3
      3      4      6      9     1  0.0000000  0.6508444  3
      4      5     11     12     1  0.0000000  0.6508444  3
      4      6      9     10     1  0.0000000  0.6508444  3
      5      4      6      9     1  0.0000000  0.6508444  3
      5     11     12     17     1  180.0000771  0.0000000  2
      5     11     12     78     1  0.0000000  0.2928800  2
      5     11     12     78     1  0.0000000  0.4184000  4
      6      4      5     11     1  0.0000000  0.6508444  3
      6      9     10     18     1  180.0000771  0.0000000  2
      6      9     10     52     1  0.0000000  0.2928800  2
      6      9     10     52     1  0.0000000  0.4184000  4
      7      1      8     15     1  0.0000000  0.6508444  3
      7     13     14     20     1  180.0000771  0.0000000  2
      7     13     14    104     1  0.0000000  0.2928800  2
      7     13     14    104     1  0.0000000  0.4184000  4
      8      1      7     13     1  0.0000000  0.6508444  3
      8     15     16     19     1  180.0000771  0.0000000  2
      8     15     16    130     1  0.0000000  0.2928800  2
      8     15     16    130     1  0.0000000  0.4184000  4
      9     10     52     51     1  180.0000771  6.2760000  1
      9     10     52     51     1  0.0000000  0.0000000  2
     10     52     51     50     1  0.0000000  2.2175200  1
     10     52     51     50     1  0.0000000  0.0000000  2
     10     52     51     50     1  180.0000771  0.6276000  3
     10     52     51     50     1  180.0000771  2.0920000  4
     11     12     78     77     1  180.0000771  6.2760000  1
     11     12     78     77     1  0.0000000  0.0000000  2
     12     78     77     76     1  0.0000000  2.2175200  1
     12     78     77     76     1  0.0000000  0.0000000  2
     12     78     77     76     1  180.0000771  0.6276000  3
     12     78     77     76     1  180.0000771  2.0920000  4
     13     14    104    103     1  180.0000771  6.2760000  1
     13     14    104    103     1  0.0000000  0.0000000  2
     14    104    103    102     1  0.0000000  2.2175200  1
     14    104    103    102     1  0.0000000  0.0000000  2
     14    104    103    102     1  180.0000771  0.6276000  3
     14    104    103    102     1  180.0000771  2.0920000  4
     15     16    130    129     1  180.0000771  6.2760000  1
     15     16    130    129     1  0.0000000  0.0000000  2
     16    130    129    128     1  0.0000000  2.2175200  1
     16    130    129    128     1  0.0000000  0.0000000  2
     16    130    129    128     1  180.0000771  0.6276000  3
     16    130    129    128     1  180.0000771  2.0920000  4
     17     12     78     77     1  180.0000771  10.4600000  2
     18     10     52     51     1  180.0000771  10.4600000  2
     19     16    130    129     1  180.0000771  10.4600000  2
     20     14    104    103     1  180.0000771  10.4600000  2
     43     44     46     47     1  0.0000000  0.6508444  3
     43     45     48     49     1  0.0000000  0.6508444  3
     43     50     51     52     1  0.0000000  0.6508444  3
     44     43     45     48     1  0.0000000  0.6508444  3
     44     43     50     51     1  0.0000000  0.6508444  3
     44     46     47     53     1  180.0000771  0.0000000  2
     44     46     47    156     1  0.0000000  0.2928800  2
     44     46     47    156     1  0.0000000  0.4184000  4
     45     43     44     46     1  0.0000000  0.6508444  3
     45     43     50     51     1  0.0000000  0.6508444  3
     45     48     49     54     1  180.0000771  0.0000000  2
     45     48     49    182     1  0.0000000  0.2928800  2
     45     48     49    182     1  0.0000000  0.4184000  4
     46     44     43     50     1  0.0000000  0.6508444  3
     46     47    156    155     1  180.0000771  6.2760000  1
     46     47    156    155     1  0.0000000  0.0000000  2
     47    156    155    154     1  0.0000000  2.2175200  1
     47    156    155    154     1  0.0000000  0.0000000  2
     47    156    155    154     1  180.0000771  0.6276000  3
     47    156    155    154     1  180.0000771  2.0920000  4
     48     45     43     50     1  0.0000000  0.6508444  3
     48     49    182    181     1  180.0000771  6.2760000  1
     48     49    182    181     1  0.0000000  0.0000000  2
     49    182    181    180     1  0.0000000  2.2175200  1
     49    182    181    180     1  0.0000000  0.0000000  2
     49    182    181    180     1  180.0000771  0.6276000  3
     49    182    181    180     1  180.0000771  2.0920000  4
     53     47    156    155     1  180.0000771  10.4600000  2
     54     49    182    181     1  180.0000771  10.4600000  2
     69     70     72     73     1  0.0000000  0.6508444  3
     69     71     74     75     1  0.0000000  0.6508444  3
     69     76     77     78     1  0.0000000  0.6508444  3
     70     69     71     74     1  0.0000000  0.6508444  3
     70     69     76     77     1  0.0000000  0.6508444  3
     70     72     73     79     1  180.0000771  0.0000000  2
     70     72     73    208     1  0.0000000  0.2928800  2
     70     72     73    208     1  0.0000000  0.4184000  4
     71     69     70     72     1  0.0000000  0.6508444  3
     71     69     76     77     1  0.0000000  0.6508444  3
     71     74     75     80     1  180.0000771  0.0000000  2
     71     74     75    234     1  0.0000000  0.2928800  2
     71     74     75    234     1  0.0000000  0.4184000  4
     72     70     69     76     1  0.0000000  0.6508444  3
     72     73    208    207     1  180.0000771  6.2760000  1
     72     73    208    207     1  0.0000000  0.0000000  2
     73    208    207    206     1  0.0000000  2.2175200  1
     73    208    207    206     1  0.0000000  0.0000000  2
     73    208    207    206     1  180.0000771  0.6276000  3
     73    208    207    206     1  180.0000771  2.0920000  4
     74     71     69     76     1  0.0000000  0.6508444  3
     74     75    234    233     1  180.0000771  6.2760000  1
     74     75    234    233     1  0.0000000  0.0000000  2
     75    234    233    232     1  0.0000000  2.2175200  1
     75    234    233    232     1  0.0000000  0.0000000  2
     75    234    233    232     1  180.0000771  0.6276000  3
     75    234    233    232     1  180.0000771  2.0920000  4
     79     73    208    207     1  180.0000771  10.4600000  2
     80     75    234    233     1  180.0000771  10.4600000  2
     95     96     98     99     1  0.0000000  0.6508444  3
     95     97    100    101     1  0.0000000  0.6508444  3
     95    102    103    104     1  0.0000000  0.6508444  3
     96     95     97    100     1  0.0000000  0.6508444  3
     96     95    102    103     1  0.0000000  0.6508444  3
     96     98     99    105     1  180.0000771  0.0000000  2
     96     98     99    260     1  0.0000000  0.2928800  2
     96     98     99    260     1  0.0000000  0.4184000  4
     97     95     96     98     1  0.0000000  0.6508444  3
     97     95    102    103     1  0.0000000  0.6508444  3
     97    100    101    106     1  180.0000771  0.0000000  2
     97    100    101    286     1  0.0000000  0.2928800  2
     97    100    101    286     1  0.0000000  0.4184000  4
     98     96     95    102     1  0.0000000  0.6508444  3
     98     99    260    259     1  180.0000771  6.2760000  1
     98     99    260    259     1  0.0000000  0.0000000  2
     99    260    259    258     1  0.0000000  2.2175200  1
     99    260    259    258     1  0.0000000  0.0000000  2
     99    260    259    258     1  180.0000771  0.6276000  3
     99    260    259    258     1  180.0000771  2.0920000  4
    100     97     95    102     1  0.0000000  0.6508444  3
    100    101    286    285     1  180.0000771  6.2760000  1
    100    101    286    285     1  0.0000000  0.0000000  2
    101    286    285    284     1  0.0000000  2.2175200  1
    101    286    285    284     1  0.0000000  0.0000000  2
    101    286    285    284     1  180.0000771  0.6276000  3
    101    286    285    284     1  180.0000771  2.0920000  4
    105     99    260    259     1  180.0000771  10.4600000  2
    106    101    286    285     1  180.0000771  10.4600000  2
    121    122    124    125     1  0.0000000  0.6508444  3
    121    123    126    127     1  0.0000000  0.6508444  3
    121    128    129    130     1  0.0000000  0.6508444  3
    122    121    123    126     1  0.0000000  0.6508444  3
    122    121    128    129     1  0.0000000  0.6508444  3
    122    124    125    131     1  180.0000771  0.0000000  2
    122    124    125    312     1  0.0000000  0.2928800  2
    122    124    125    312     1  0.0000000  0.4184000  4
    123    121    122    124     1  0.0000000  0.6508444  3
    123    121    128    129     1  0.0000000  0.6508444  3
    123    126    127    132     1  180.0000771  0.0000000  2
    123    126    127    338     1  0.0000000  0.2928800  2
    123    126    127    338     1  0.0000000  0.4184000  4
    124    122    121    128     1  0.0000000  0.6508444  3
    124    125    312    311     1  180.0000771  6.2760000  1
    124    125    312    311     1  0.0000000  0.0000000  2
    125    312    311    310     1  0.0000000  2.2175200  1
    125    312    311    310     1  0.0000000  0.0000000  2
    125    312    311    310     1  180.0000771  0.6276000  3
    125    312    311    310     1  180.0000771  2.0920000  4
    126    123    121    128     1  0.0000000  0.6508444  3
    126    127    338    337     1  180.0000771  6.2760000  1
    126    127    338    337     1  0.0000000  0.0000000  2
    127    338    337    336     1  0.0000000  2.2175200  1
    127    338    337    336     1  0.0000000  0.0000000  2
    127    338    337    336     1  180.0000771  0.6276000  3
    127    338    337    336     1  180.0000771  2.0920000  4
    131    125    312    311     1  180.0000771  10.4600000  2
    132    127    338    337     1  180.0000771  10.4600000  2
    147    148    150    151     1  0.0000000  0.6508444  3
    147    149    152    153     1  0.0000000  0.6508444  3
    147    154    155    156     1  0.0000000  0.6508444  3
    148    147    149    152     1  0.0000000  0.6508444  3
    148    147    154    155     1  0.0000000  0.6508444  3
    148    150    151    157     1  180.0000771  0.0000000  2
    148    150    151    364     1  0.0000000  0.2928800  2
    148    150    151    364     1  0.0000000  0.4184000  4
    149    147    148    150     1  0.0000000  0.6508444  3
    149    147    154    155     1  0.0000000  0.6508444  3
    149    152    153    158     1  180.0000771  0.0000000  2
    149    152    153    390     1  0.0000000  0.2928800  2
    149    152    153    390     1  0.0000000  0.4184000  4
    150    148    147    154     1  0.0000000  0.6508444  3
    150    151    364    363     1  180.0000771  6.2760000  1
    150    151    364    363     1  0.0000000  0.0000000  2
    151    364    363    362     1  0.0000000  2.2175200  1
    151    364    363    362     1  0.0000000  0.0000000  2
    151    364    363    362     1  180.0000771  0.6276000  3
    151    364    363    362     1  180.0000771  2.0920000  4
    152    149    147    154     1  0.0000000  0.6508444  3
    152    153    390    389     1  180.0000771  6.2760000  1
    152    153    390    389     1  0.0000000  0.0000000  2
    153    390    389    388     1  0.0000000  2.2175200  1
    153    390    389    388     1  0.0000000  0.0000000  2
    153    390    389    388     1  180.0000771  0.6276000  3
    153    390    389    388     1  180.0000771  2.0920000  4
    157    151    364    363     1  180.0000771  10.4600000  2
    158    153    390    389     1  180.0000771  10.4600000  2
    173    174    176    177     1  0.0000000  0.6508444  3
    173    175    178    179     1  0.0000000  0.6508444  3
    173    180    181    182     1  0.0000000  0.6508444  3
    174    173    175    178     1  0.0000000  0.6508444  3
    174    173    180    181     1  0.0000000  0.6508444  3
    174    176    177    183     1  180.0000771  0.0000000  2
    174    176    177    416     1  0.0000000  0.2928800  2
    174    176    177    416     1  0.0000000  0.4184000  4
    175    173    174    176     1  0.0000000  0.6508444  3
    175    173    180    181     1  0.0000000  0.6508444  3
    175    178    179    184     1  180.0000771  0.0000000  2
    175    178    179    442     1  0.0000000  0.2928800  2
    175    178    179    442     1  0.0000000  0.4184000  4
    176    174    173    180     1  0.0000000  0.6508444  3
    176    177    416    415     1  180.0000771  6.2760000  1
    176    177    416    415     1  0.0000000  0.0000000  2
    177    416    415    414     1  0.0000000  2.2175200  1
    177    416    415    414     1  0.0000000  0.0000000  2
    177    416    415    414     1  180.0000771  0.6276000  3
    177    416    415    414     1  180.0000771  2.0920000  4
    178    175    173    180     1  0.0000000  0.6508444  3
    178    179    442    441     1  180.0000771  6.2760000  1
    178    179    442    441     1  0.0000000  0.0000000  2
    179    442    441    440     1  0.0000000  2.2175200  1
    179    442    441    440     1  0.0000000  0.0000000  2
    179    442    441    440     1  180.0000771  0.6276000  3
    179    442    441    440     1  180.0000771  2.0920000  4
    183    177    416    415     1  180.0000771  10.4600000  2
    184    179    442    441     1  180.0000771  10.4600000  2
    199    200    202    203     1  0.0000000  0.6508444  3
    199    201    204    205     1  0.0000000  0.6508444  3
    199    206    207    208     1  0.0000000  0.6508444  3
    200    199    201    204     1  0.0000000  0.6508444  3
    200    199    206    207     1  0.0000000  0.6508444  3
    200    202    203    209     1  180.0000771  0.0000000  2
    200    202    203    468     1  0.0000000  0.2928800  2
    200    202    203    468     1  0.0000000  0.4184000  4
    201    199    200    202     1  0.0000000  0.6508444  3
    201    199    206    207     1  0.0000000  0.6508444  3
    201    204    205    210     1  180.0000771  0.0000000  2
    201    204    205    494     1  0.0000000  0.2928800  2
    201    204    205    494     1  0.0000000  0.4184000  4
    202    200    199    206     1  0.0000000  0.6508444  3
    202    203    468    467     1  180.0000771  6.2760000  1
    202    203    468    467     1  0.0000000  0.0000000  2
    203    468    467    466     1  0.0000000  2.2175200  1
    203    468    467    466     1  0.0000000  0.0000000  2
    203    468    467    466     1  180.0000771  0.6276000  3
    203    468    467    466     1  180.0000771  2.0920000  4
    204    201    199    206     1  0.0000000  0.6508444  3
    204    205    494    493     1  180.0000771  6.2760000  1
    204    205    494    493     1  0.0000000  0.0000000  2
    205    494    493    492     1  0.0000000  2.2175200  1
    205    494    493    492     1  0.0000000  0.0000000  2
    205    494    493    492     1  180.0000771  0.6276000  3
    205    494    493    492     1  180.0000771  2.0920000  4
    209    203    468    467     1  180.0000771  10.4600000  2
    210    205    494    493     1  180.0000771  10.4600000  2
    225    226    228    229     1  0.0000000  0.6508444  3
    225    227    230    231     1  0.0000000  0.6508444  3
    225    232    233    234     1  0.0000000  0.6508444  3
    226    225    227    230     1  0.0000000  0.6508444  3
    226    225    232    233     1  0.0000000  0.6508444  3
    226    228    229    235     1  180.0000771  0.0000000  2
    226    228    229    520     1  0.0000000  0.2928800  2
    226    228    229    520     1  0.0000000  0.4184000  4
    227    225    226    228     1  0.0000000  0.6508444  3
    227    225    232    233     1  0.0000000  0.6508444  3
    227    230    231    236     1  180.0000771  0.0000000  2
    227    230    231    546     1  0.0000000  0.2928800  2
    227    230    231    546     1  0.0000000  0.4184000  4
    228    226    225    232     1  0.0000000  0.6508444  3
    228    229    520    519     1  180.0000771  6.2760000  1
    228    229    520    519     1  0.0000000  0.0000000  2
    229    520    519    518     1  0.0000000  2.2175200  1
    229    520    519    518     1  0.0000000  0.0000000  2
    229    520    519    518     1  180.0000771  0.6276000  3
    229    520    519    518     1  180.0000771  2.0920000  4
    230    227    225    232     1  0.0000000  0.6508444  3
    230    231    546    545     1  180.0000771  6.2760000  1
    230    231    546    545     1  0.0000000  0.0000000  2
    231    546    545    544     1  0.0000000  2.2175200  1
    231    546    545    544     1  0.0000000  0.0000000  2
    231    546    545    544     1  180.0000771  0.6276000  3
    231    546    545    544     1  180.0000771  2.0920000  4
    235    229    520    519     1  180.0000771  10.4600000  2
    236    231    546    545     1  180.0000771  10.4600000  2
    251    252    254    255     1  0.0000000  0.6508444  3
    251    253    256    257     1  0.0000000  0.6508444  3
    251    258    259    260     1  0.0000000  0.6508444  3
    252    251    253    256     1  0.0000000  0.6508444  3
    252    251    258    259     1  0.0000000  0.6508444  3
    252    254    255    261     1  180.0000771  0.0000000  2
    252    254    255    572     1  0.0000000  0.2928800  2
    252    254    255    572     1  0.0000000  0.4184000  4
    253    251    252    254     1  0.0000000  0.6508444  3
    253    251    258    259     1  0.0000000  0.6508444  3
    253    256    257    262     1  180.0000771  0.0000000  2
    253    256    257    598     1  0.0000000  0.2928800  2
    253    256    257    598     1  0.0000000  0.4184000  4
    254    252    251    258     1  0.0000000  0.6508444  3
    254    255    572    571     1  180.0000771  6.2760000  1
    254    255    572    571     1  0.0000000  0.0000000  2
    255    572    571    570     1  0.0000000  2.2175200  1
    255    572    571    570     1  0.0000000  0.0000000  2
    255    572    571    570     1  180.0000771  0.6276000  3
    255    572    571    570     1  180.0000771  2.0920000  4
    256    253    251    258     1  0.0000000  0.6508444  3
    256    257    598    597     1  180.0000771  6.2760000  1
    256    257    598    597     1  0.0000000  0.0000000  2
    257    598    597    596     1  0.0000000  2.2175200  1
    257    598    597    596     1  0.0000000  0.0000000  2
    257    598    597    596     1  180.0000771  0.6276000  3
    257    598    597    596     1  180.0000771  2.0920000  4
    261    255    572    571     1  180.0000771  10.4600000  2
    262    257    598    597     1  180.0000771  10.4600000  2
    277    278    280    281     1  0.0000000  0.6508444  3
    277    279    282    283     1  0.0000000  0.6508444  3
    277    284    285    286     1  0.0000000  0.6508444  3
    278    277    279    282     1  0.0000000  0.6508444  3
    278    277    284    285     1  0.0000000  0.6508444  3
    278    280    281    287     1  180.0000771  0.0000000  2
    278    280    281    624     1  0.0000000  0.2928800  2
    278    280    281    624     1  0.0000000  0.4184000  4
    279    277    278    280     1  0.0000000  0.6508444  3
    279    277    284    285     1  0.0000000  0.6508444  3
    279    282    283    288     1  180.0000771  0.0000000  2
    279    282    283    650     1  0.0000000  0.2928800  2
    279    282    283    650     1  0.0000000  0.4184000  4
    280    278    277    284     1  0.0000000  0.6508444  3
    280    281    624    623     1  180.0000771  6.2760000  1
    280    281    624    623     1  0.0000000  0.0000000  2
    281    624    623    622     1  0.0000000  2.2175200  1
    281    624    623    622     1  0.0000000  0.0000000  2
    281    624    623    622     1  180.0000771  0.6276000  3
    281    624    623    622     1  180.0000771  2.0920000  4
    282    279    277    284     1  0.0000000  0.6508444  3
    282    283    650    649     1  180.0000771  6.2760000  1
    282    283    650    649     1  0.0000000  0.0000000  2
    283    650    649    648     1  0.0000000  2.2175200  1
    283    650    649    648     1  0.0000000  0.0000000  2
    283    650    649    648     1  180.0000771  0.6276000  3
    283    650    649    648     1  180.0000771  2.0920000  4
    287    281    624    623     1  180.0000771  10.4600000  2
    288    283    650    649     1  180.0000771  10.4600000  2
    303    304    306    307     1  0.0000000  0.6508444  3
    303    305    308    309     1  0.0000000  0.6508444  3
    303    310    311    312     1  0.0000000  0.6508444  3
    304    303    305    308     1  0.0000000  0.6508444  3
    304    303    310    311     1  0.0000000  0.6508444  3
    304    306    307    313     1  180.0000771  0.0000000  2
    304    306    307    676     1  0.0000000  0.2928800  2
    304    306    307    676     1  0.0000000  0.4184000  4
    305    303    304    306     1  0.0000000  0.6508444  3
    305    303    310    311     1  0.0000000  0.6508444  3
    305    308    309    314     1  180.0000771  0.0000000  2
    305    308    309    702     1  0.0000000  0.2928800  2
    305    308    309    702     1  0.0000000  0.4184000  4
    306    304    303    310     1  0.0000000  0.6508444  3
    306    307    676    675     1  180.0000771  6.2760000  1
    306    307    676    675     1  0.0000000  0.0000000  2
    307    676    675    674     1  0.0000000  2.2175200  1
    307    676    675    674     1  0.0000000  0.0000000  2
    307    676    675    674     1  180.0000771  0.6276000  3
    307    676    675    674     1  180.0000771  2.0920000  4
    308    305    303    310     1  0.0000000  0.6508444  3
    308    309    702    701     1  180.0000771  6.2760000  1
    308    309    702    701     1  0.0000000  0.0000000  2
    309    702    701    700     1  0.0000000  2.2175200  1
    309    702    701    700     1  0.0000000  0.0000000  2
    309    702    701    700     1  180.0000771  0.6276000  3
    309    702    701    700     1  180.0000771  2.0920000  4
    313    307    676    675     1  180.0000771  10.4600000  2
    314    309    702    701     1  180.0000771  10.4600000  2
    329    330    332    333     1  0.0000000  0.6508444  3
    329    331    334    335     1  0.0000000  0.6508444  3
    329    336    337    338     1  0.0000000  0.6508444  3
    330    329    331    334     1  0.0000000  0.6508444  3
    330    329    336    337     1  0.0000000  0.6508444  3
    330    332    333    339     1  180.0000771  0.0000000  2
    330    332    333    728     1  0.0000000  0.2928800  2
    330    332    333    728     1  0.0000000  0.4184000  4
    331    329    330    332     1  0.0000000  0.6508444  3
    331    329    336    337     1  0.0000000  0.6508444  3
    331    334    335    340     1  180.0000771  0.0000000  2
    331    334    335    754     1  0.0000000  0.2928800  2
    331    334    335    754     1  0.0000000  0.4184000  4
    332    330    329    336     1  0.0000000  0.6508444  3
    332    333    728    727     1  180.0000771  6.2760000  1
    332    333    728    727     1  0.0000000  0.0000000  2
    333    728    727    726     1  0.0000000  2.2175200  1
    333    728    727    726     1  0.0000000  0.0000000  2
    333    728    727    726     1  180.0000771  0.6276000  3
    333    728    727    726     1  180.0000771  2.0920000  4
    334    331    329    336     1  0.0000000  0.6508444  3
    334    335    754    753     1  180.0000771  6.2760000  1
    334    335    754    753     1  0.0000000  0.0000000  2
    335    754    753    752     1  0.0000000  2.2175200  1
    335    754    753    752     1  0.0000000  0.0000000  2
    335    754    753    752     1  180.0000771  0.6276000  3
    335    754    753    752     1  180.0000771  2.0920000  4
    339    333    728    727     1  180.0000771  10.4600000  2
    340    335    754    753     1  180.0000771  10.4600000  2
    355    356    358    359     1  0.0000000  0.6508444  3
    355    357    360    361     1  0.0000000  0.6508444  3
    355    362    363    364     1  0.0000000  0.6508444  3
    356    355    357    360     1  0.0000000  0.6508444  3
    356    355    362    363     1  0.0000000  0.6508444  3
    356    358    359    365     1  180.0000771  0.0000000  2
    356    358    359    780     1  0.0000000  0.2928800  2
    356    358    359    780     1  0.0000000  0.4184000  4
    357    355    356    358     1  0.0000000  0.6508444  3
    357    355    362    363     1  0.0000000  0.6508444  3
    357    360    361    366     1  180.0000771  0.0000000  2
    357    360    361    806     1  0.0000000  0.2928800  2
    357    360    361    806     1  0.0000000  0.4184000  4
    358    356    355    362     1  0.0000000  0.6508444  3
    358    359    780    779     1  180.0000771  6.2760000  1
    358    359    780    779     1  0.0000000  0.0000000  2
    359    780    779    778     1  0.0000000  2.2175200  1
    359    780    779    778     1  0.0000000  0.0000000  2
    359    780    779    778     1  180.0000771  0.6276000  3
    359    780    779    778     1  180.0000771  2.0920000  4
    360    357    355    362     1  0.0000000  0.6508444  3
    360    361    806    805     1  180.0000771  6.2760000  1
    360    361    806    805     1  0.0000000  0.0000000  2
    361    806    805    804     1  0.0000000  2.2175200  1
    361    806    805    804     1  0.0000000  0.0000000  2
    361    806    805    804     1  180.0000771  0.6276000  3
    361    806    805    804     1  180.0000771  2.0920000  4
    365    359    780    779     1  180.0000771  10.4600000  2
    366    361    806    805     1  180.0000771  10.4600000  2
    381    382    384    385     1  0.0000000  0.6508444  3
    381    383    386    387     1  0.0000000  0.6508444  3
    381    388    389    390     1  0.0000000  0.6508444  3
    382    381    383    386     1  0.0000000  0.6508444  3
    382    381    388    389     1  0.0000000  0.6508444  3
    382    384    385    391     1  180.0000771  0.0000000  2
    382    384    385    832     1  0.0000000  0.2928800  2
    382    384    385    832     1  0.0000000  0.4184000  4
    383    381    382    384     1  0.0000000  0.6508444  3
    383    381    388    389     1  0.0000000  0.6508444  3
    383    386    387    392     1  180.0000771  0.0000000  2
    383    386    387    858     1  0.0000000  0.2928800  2
    383    386    387    858     1  0.0000000  0.4184000  4
    384    382    381    388     1  0.0000000  0.6508444  3
    384    385    832    831     1  180.0000771  6.2760000  1
    384    385    832    831     1  0.0000000  0.0000000  2
    385    832    831    830     1  0.0000000  2.2175200  1
    385    832    831    830     1  0.0000000  0.0000000  2
    385    832    831    830     1  180.0000771  0.6276000  3
    385    832    831    830     1  180.0000771  2.0920000  4
    386    383    381    388     1  0.0000000  0.6508444  3
    386    387    858    857     1  180.0000771  6.2760000  1
    386    387    858    857     1  0.0000000  0.0000000  2
    387    858    857    856     1  0.0000000  2.2175200  1
    387    858    857    856     1  0.0000000  0.0000000  2
    387    858    857    856     1  180.0000771  0.6276000  3
    387    858    857    856     1  180.0000771  2.0920000  4
    391    385    832    831     1  180.0000771  10.4600000  2
    392    387    858    857     1  180.0000771  10.4600000  2
    407    408    410    411     1  0.0000000  0.6508444  3
    407    409    412    413     1  0.0000000  0.6508444  3
    407    414    415    416     1  0.0000000  0.6508444  3
    408    407    409    412     1  0.0000000  0.6508444  3
    408    407    414    415     1  0.0000000  0.6508444  3
    408    410    411    417     1  180.0000771  0.0000000  2
    408    410    411    884     1  0.0000000  0.2928800  2
    408    410    411    884     1  0.0000000  0.4184000  4
    409    407    408    410     1  0.0000000  0.6508444  3
    409    407    414    415     1  0.0000000  0.6508444  3
    409    412    413    418     1  180.0000771  0.0000000  2
    409    412    413    910     1  0.0000000  0.2928800  2
    409    412    413    910     1  0.0000000  0.4184000  4
    410    408    407    414     1  0.0000000  0.6508444  3
    410    411    884    883     1  180.0000771  6.2760000  1
    410    411    884    883     1  0.0000000  0.0000000  2
    411    884    883    882     1  0.0000000  2.2175200  1
    411    884    883    882     1  0.0000000  0.0000000  2
    411    884    883    882     1  180.0000771  0.6276000  3
    411    884    883    882     1  180.0000771  2.0920000  4
    412    409    407    414     1  0.0000000  0.6508444  3
    412    413    910    909     1  180.0000771  6.2760000  1
    412    413    910    909     1  0.0000000  0.0000000  2
    413    910    909    908     1  0.0000000  2.2175200  1
    413    910    909    908     1  0.0000000  0.0000000  2
    413    910    909    908     1  180.0000771  0.6276000  3
    413    910    909    908     1  180.0000771  2.0920000  4
    417    411    884    883     1  180.0000771  10.4600000  2
    418    413    910    909     1  180.0000771  10.4600000  2
    433    434    436    437     1  0.0000000  0.6508444  3
    433    435    438    439     1  0.0000000  0.6508444  3
    433    440    441    442     1  0.0000000  0.6508444  3
    434    433    435    438     1  0.0000000  0.6508444  3
    434    433    440    441     1  0.0000000  0.6508444  3
    434    436    437    443     1  180.0000771  0.0000000  2
    434    436    437    936     1  0.0000000  0.2928800  2
    434    436    437    936     1  0.0000000  0.4184000  4
    435    433    434    436     1  0.0000000  0.6508444  3
    435    433    440    441     1  0.0000000  0.6508444  3
    435    438    439    444     1  180.0000771  0.0000000  2
    435    438    439    962     1  0.0000000  0.2928800  2
    435    438    439    962     1  0.0000000  0.4184000  4
    436    434    433    440     1  0.0000000  0.6508444  3
    436    437    936    935     1  180.0000771  6.2760000  1
    436    437    936    935     1  0.0000000  0.0000000  2
    437    936    935    934     1  0.0000000  2.2175200  1
    437    936    935    934     1  0.0000000  0.0000000  2
    437    936    935    934     1  180.0000771  0.6276000  3
    437    936    935    934     1  180.0000771  2.0920000  4
    438    435    433    440     1  0.0000000  0.6508444  3
    438    439    962    961     1  180.0000771  6.2760000  1
    438    439    962    961     1  0.0000000  0.0000000  2
    439    962    961    960     1  0.0000000  2.2175200  1
    439    962    961    960     1  0.0000000  0.0000000  2
    439    962    961    960     1  180.0000771  0.6276000  3
    439    962    961    960     1  180.0000771  2.0920000  4
    443    437    936    935     1  180.0000771  10.4600000  2
    444    439    962    961     1  180.0000771  10.4600000  2
    459    460    462    463     1  0.0000000  0.6508444  3
    459    461    464    465     1  0.0000000  0.6508444  3
    459    466    467    468     1  0.0000000  0.6508444  3
    460    459    461    464     1  0.0000000  0.6508444  3
    460    459    466    467     1  0.0000000  0.6508444  3
    460    462    463    469     1  180.0000771  0.0000000  2
    460    462    463    988     1  0.0000000  0.2928800  2
    460    462    463    988     1  0.0000000  0.4184000  4
    461    459    460    462     1  0.0000000  0.6508444  3
    461    459    466    467     1  0.0000000  0.6508444  3
    461    464    465    470     1  180.0000771  0.0000000  2
    461    464    465   1014     1  0.0000000  0.2928800  2
    461    464    465   1014     1  0.0000000  0.4184000  4
    462    460    459    466     1  0.0000000  0.6508444  3
    462    463    988    987     1  180.0000771  6.2760000  1
    462    463    988    987     1  0.0000000  0.0000000  2
    463    988    987    986     1  0.0000000  2.2175200  1
    463    988    987    986     1  0.0000000  0.0000000  2
    463    988    987    986     1  180.0000771  0.6276000  3
    463    988    987    986     1  180.0000771  2.0920000  4
    464    461    459    466     1  0.0000000  0.6508444  3
    464    465   1014   1013     1  180.0000771  6.2760000  1
    464    465   1014   1013     1  0.0000000  0.0000000  2
    465   1014   1013   1012     1  0.0000000  2.2175200  1
    465   1014   1013   1012     1  0.0000000  0.0000000  2
    465   1014   1013   1012     1  180.0000771  0.6276000  3
    465   1014   1013   1012     1  180.0000771  2.0920000  4
    469    463    988    987     1  180.0000771  10.4600000  2
    470    465   1014   1013     1  180.0000771  10.4600000  2
    485    486    488    489     1  0.0000000  0.6508444  3
    485    487    490    491     1  0.0000000  0.6508444  3
    485    492    493    494     1  0.0000000  0.6508444  3
    486    485    487    490     1  0.0000000  0.6508444  3
    486    485    492    493     1  0.0000000  0.6508444  3
    486    488    489    495     1  180.0000771  0.0000000  2
    486    488    489   1040     1  0.0000000  0.2928800  2
    486    488    489   1040     1  0.0000000  0.4184000  4
    487    485    486    488     1  0.0000000  0.6508444  3
    487    485    492    493     1  0.0000000  0.6508444  3
    487    490    491    496     1  180.0000771  0.0000000  2
    487    490    491   1066     1  0.0000000  0.2928800  2
    487    490    491   1066     1  0.0000000  0.4184000  4
    488    486    485    492     1  0.0000000  0.6508444  3
    488    489   1040   1039     1  180.0000771  6.2760000  1
    488    489   1040   1039     1  0.0000000  0.0000000  2
    489   1040   1039   1038     1  0.0000000  2.2175200  1
    489   1040   1039   1038     1  0.0000000  0.0000000  2
    489   1040   1039   1038     1  180.0000771  0.6276000  3
    489   1040   1039   1038     1  180.0000771  2.0920000  4
    490    487    485    492     1  0.0000000  0.6508444  3
    490    491   1066   1065     1  180.0000771  6.2760000  1
    490    491   1066   1065     1  0.0000000  0.0000000  2
    491   1066   1065   1064     1  0.0000000  2.2175200  1
    491   1066   1065   1064     1  0.0000000  0.0000000  2
    491   1066   1065   1064     1  180.0000771  0.6276000  3
    491   1066   1065   1064     1  180.0000771  2.0920000  4
    495    489   1040   1039     1  180.0000771  10.4600000  2
    496    491   1066   1065     1  180.0000771  10.4600000  2
    511    512    514    515     1  0.0000000  0.6508444  3
    511    513    516    517     1  0.0000000  0.6508444  3
    511    518    519    520     1  0.0000000  0.6508444  3
    512    511    513    516     1  0.0000000  0.6508444  3
    512    511    518    519     1  0.0000000  0.6508444  3
    512    514    515    521     1  180.0000771  0.0000000  2
    512    514    515   1092     1  0.0000000  0.2928800  2
    512    514    515   1092     1  0.0000000  0.4184000  4
    513    511    512    514     1  0.0000000  0.6508444  3
    513    511    518    519     1  0.0000000  0.6508444  3
    513    516    517    522     1  180.0000771  0.0000000  2
    513    516    517   1118     1  0.0000000  0.2928800  2
    513    516    517   1118     1  0.0000000  0.4184000  4
    514    512    511    518     1  0.0000000  0.6508444  3
    514    515   1092   1091     1  180.0000771  6.2760000  1
    514    515   1092   1091     1  0.0000000  0.0000000  2
    515   1092   1091   1090     1  0.0000000  2.2175200  1
    515   1092   1091   1090     1  0.0000000  0.0000000  2
    515   1092   1091   1090     1  180.0000771  0.6276000  3
    515   1092   1091   1090     1  180.0000771  2.0920000  4
    516    513    511    518     1  0.0000000  0.6508444  3
    516    517   1118   1117     1  180.0000771  6.2760000  1
    516    517   1118   1117     1  0.0000000  0.0000000  2
    517   1118   1117   1116     1  0.0000000  2.2175200  1
    517   1118   1117   1116     1  0.0000000  0.0000000  2
    517   1118   1117   1116     1  180.0000771  0.6276000  3
    517   1118   1117   1116     1  180.0000771  2.0920000  4
    521    515   1092   1091     1  180.0000771  10.4600000  2
    522    517   1118   1117     1  180.0000771  10.4600000  2
    537    538    540    541     1  0.0000000  0.6508444  3
    537    539    542    543     1  0.0000000  0.6508444  3
    537    544    545    546     1  0.0000000  0.6508444  3
    538    537    539    542     1  0.0000000  0.6508444  3
    538    537    544    545     1  0.0000000  0.6508444  3
    538    540    541    547     1  180.0000771  0.0000000  2
    538    540    541   1144     1  0.0000000  0.2928800  2
    538    540    541   1144     1  0.0000000  0.4184000  4
    539    537    538    540     1  0.0000000  0.6508444  3
    539    537    544    545     1  0.0000000  0.6508444  3
    539    542    543    548     1  180.0000771  0.0000000  2
    539    542    543   1170     1  0.0000000  0.2928800  2
    539    542    543   1170     1  0.0000000  0.4184000  4
    540    538    537    544     1  0.0000000  0.6508444  3
    540    541   1144   1143     1  180.0000771  6.2760000  1
    540    541   1144   1143     1  0.0000000  0.0000000  2
    541   1144   1143   1142     1  0.0000000  2.2175200  1
    541   1144   1143   1142     1  0.0000000  0.0000000  2
    541   1144   1143   1142     1  180.0000771  0.6276000  3
    541   1144   1143   1142     1  180.0000771  2.0920000  4
    542    539    537    544     1  0.0000000  0.6508444  3
    542    543   1170   1169     1  180.0000771  6.2760000  1
    542    543   1170   1169     1  0.0000000  0.0000000  2
    543   1170   1169   1168     1  0.0000000  2.2175200  1
    543   1170   1169   1168     1  0.0000000  0.0000000  2
    543   1170   1169   1168     1  180.0000771  0.6276000  3
    543   1170   1169   1168     1  180.0000771  2.0920000  4
    547    541   1144   1143     1  180.0000771  10.4600000  2
    548    543   1170   1169     1  180.0000771  10.4600000  2
    563    564    566    567     1  0.0000000  0.6508444  3
    563    565    568    569     1  0.0000000  0.6508444  3
    563    570    571    572     1  0.0000000  0.6508444  3
    564    563    565    568     1  0.0000000  0.6508444  3
    564    563    570    571     1  0.0000000  0.6508444  3
    564    566    567    573     1  180.0000771  0.0000000  2
    564    566    567   1196     1  0.0000000  0.2928800  2
    564    566    567   1196     1  0.0000000  0.4184000  4
    565    563    564    566     1  0.0000000  0.6508444  3
    565    563    570    571     1  0.0000000  0.6508444  3
    565    568    569    574     1  180.0000771  0.0000000  2
    565    568    569   1222     1  0.0000000  0.2928800  2
    565    568    569   1222     1  0.0000000  0.4184000  4
    566    564    563    570     1  0.0000000  0.6508444  3
    566    567   1196   1195     1  180.0000771  6.2760000  1
    566    567   1196   1195     1  0.0000000  0.0000000  2
    567   1196   1195   1194     1  0.0000000  2.2175200  1
    567   1196   1195   1194     1  0.0000000  0.0000000  2
    567   1196   1195   1194     1  180.0000771  0.6276000  3
    567   1196   1195   1194     1  180.0000771  2.0920000  4
    568    565    563    570     1  0.0000000  0.6508444  3
    568    569   1222   1221     1  180.0000771  6.2760000  1
    568    569   1222   1221     1  0.0000000  0.0000000  2
    569   1222   1221   1220     1  0.0000000  2.2175200  1
    569   1222   1221   1220     1  0.0000000  0.0000000  2
    569   1222   1221   1220     1  180.0000771  0.6276000  3
    569   1222   1221   1220     1  180.0000771  2.0920000  4
    573    567   1196   1195     1  180.0000771  10.4600000  2
    574    569   1222   1221     1  180.0000771  10.4600000  2
    589    590    592    593     1  0.0000000  0.6508444  3
    589    591    594    595     1  0.0000000  0.6508444  3
    589    596    597    598     1  0.0000000  0.6508444  3
    590    589    591    594     1  0.0000000  0.6508444  3
    590    589    596    597     1  0.0000000  0.6508444  3
    590    592    593    599     1  180.0000771  0.0000000  2
    590    592    593   1248     1  0.0000000  0.2928800  2
    590    592    593   1248     1  0.0000000  0.4184000  4
    591    589    590    592     1  0.0000000  0.6508444  3
    591    589    596    597     1  0.0000000  0.6508444  3
    591    594    595    600     1  180.0000771  0.0000000  2
    591    594    595   1274     1  0.0000000  0.2928800  2
    591    594    595   1274     1  0.0000000  0.4184000  4
    592    590    589    596     1  0.0000000  0.6508444  3
    592    593   1248   1247     1  180.0000771  6.2760000  1
    592    593   1248   1247     1  0.0000000  0.0000000  2
    593   1248   1247   1246     1  0.0000000  2.2175200  1
    593   1248   1247   1246     1  0.0000000  0.0000000  2
    593   1248   1247   1246     1  180.0000771  0.6276000  3
    593   1248   1247   1246     1  180.0000771  2.0920000  4
    594    591    589    596     1  0.0000000  0.6508444  3
    594    595   1274   1273     1  180.0000771  6.2760000  1
    594    595   1274   1273     1  0.0000000  0.0000000  2
    595   1274   1273   1272     1  0.0000000  2.2175200  1
    595   1274   1273   1272     1  0.0000000  0.0000000  2
    595   1274   1273   1272     1  180.0000771  0.6276000  3
    595   1274   1273   1272     1  180.0000771  2.0920000  4
    599    593   1248   1247     1  180.0000771  10.4600000  2
    600    595   1274   1273     1  180.0000771  10.4600000  2
    615    616    618    619     1  0.0000000  0.6508444  3
    615    617    620    621     1  0.0000000  0.6508444  3
    615    622    623    624     1  0.0000000  0.6508444  3
    616    615    617    620     1  0.0000000  0.6508444  3
    616    615    622    623     1  0.0000000  0.6508444  3
    616    618    619    625     1  180.0000771  0.0000000  2
    616    618    619   1300     1  0.0000000  0.2928800  2
    616    618    619   1300     1  0.0000000  0.4184000  4
    617    615    616    618     1  0.0000000  0.6508444  3
    617    615    622    623     1  0.0000000  0.6508444  3
    617    620    621    626     1  180.0000771  0.0000000  2
    617    620    621   1326     1  0.0000000  0.2928800  2
    617    620    621   1326     1  0.0000000  0.4184000  4
    618    616    615    622     1  0.0000000  0.6508444  3
    618    619   1300   1299     1  180.0000771  6.2760000  1
    618    619   1300   1299     1  0.0000000  0.0000000  2
    619   1300   1299   1298     1  0.0000000  2.2175200  1
    619   1300   1299   1298     1  0.0000000  0.0000000  2
    619   1300   1299   1298     1  180.0000771  0.6276000  3
    619   1300   1299   1298     1  180.0000771  2.0920000  4
    620    617    615    622     1  0.0000000  0.6508444  3
    620    621   1326   1325     1  180.0000771  6.2760000  1
    620    621   1326   1325     1  0.0000000  0.0000000  2
    621   1326   1325   1324     1  0.0000000  2.2175200  1
    621   1326   1325   1324     1  0.0000000  0.0000000  2
    621   1326   1325   1324     1  180.0000771  0.6276000  3
    621   1326   1325   1324     1  180.0000771  2.0920000  4
    625    619   1300   1299     1  180.0000771  10.4600000  2
    626    621   1326   1325     1  180.0000771  10.4600000  2
    641    642    644    645     1  0.0000000  0.6508444  3
    641    643    646    647     1  0.0000000  0.6508444  3
    641    648    649    650     1  0.0000000  0.6508444  3
    642    641    643    646     1  0.0000000  0.6508444  3
    642    641    648    649     1  0.0000000  0.6508444  3
    642    644    645    651     1  180.0000771  0.0000000  2
    642    644    645   1352     1  0.0000000  0.2928800  2
    642    644    645   1352     1  0.0000000  0.4184000  4
    643    641    642    644     1  0.0000000  0.6508444  3
    643    641    648    649     1  0.0000000  0.6508444  3
    643    646    647    652     1  180.0000771  0.0000000  2
    643    646    647   1378     1  0.0000000  0.2928800  2
    643    646    647   1378     1  0.0000000  0.4184000  4
    644    642    641    648     1  0.0000000  0.6508444  3
    644    645   1352   1351     1  180.0000771  6.2760000  1
    644    645   1352   1351     1  0.0000000  0.0000000  2
    645   1352   1351   1350     1  0.0000000  2.2175200  1
    645   1352   1351   1350     1  0.0000000  0.0000000  2
    645   1352   1351   1350     1  180.0000771  0.6276000  3
    645   1352   1351   1350     1  180.0000771  2.0920000  4
    646    643    641    648     1  0.0000000  0.6508444  3
    646    647   1378   1377     1  180.0000771  6.2760000  1
    646    647   1378   1377     1  0.0000000  0.0000000  2
    647   1378   1377   1376     1  0.0000000  2.2175200  1
    647   1378   1377   1376     1  0.0000000  0.0000000  2
    647   1378   1377   1376     1  180.0000771  0.6276000  3
    647   1378   1377   1376     1  180.0000771  2.0920000  4
    651    645   1352   1351     1  180.0000771  10.4600000  2
    652    647   1378   1377     1  180.0000771  10.4600000  2
    667    668    670    671     1  0.0000000  0.6508444  3
    667    669    672    673     1  0.0000000  0.6508444  3
    667    674    675    676     1  0.0000000  0.6508444  3
    668    667    669    672     1  0.0000000  0.6508444  3
    668    667    674    675     1  0.0000000  0.6508444  3
    668    670    671    677     1  180.0000771  0.0000000  2
    668    670    671   1404     1  0.0000000  0.2928800  2
    668    670    671   1404     1  0.0000000  0.4184000  4
    669    667    668    670     1  0.0000000  0.6508444  3
    669    667    674    675     1  0.0000000  0.6508444  3
    669    672    673    678     1  180.0000771  0.0000000  2
    669    672    673   1430     1  0.0000000  0.2928800  2
    669    672    673   1430     1  0.0000000  0.4184000  4
    670    668    667    674     1  0.0000000  0.6508444  3
    670    671   1404   1403     1  180.0000771  6.2760000  1
    670    671   1404   1403     1  0.0000000  0.0000000  2
    671   1404   1403   1402     1  0.0000000  2.2175200  1
    671   1404   1403   1402     1  0.0000000  0.0000000  2
    671   1404   1403   1402     1  180.0000771  0.6276000  3
    671   1404   1403   1402     1  180.0000771  2.0920000  4
    672    669    667    674     1  0.0000000  0.6508444  3
    672    673   1430   1429     1  180.0000771  6.2760000  1
    672    673   1430   1429     1  0.0000000  0.0000000  2
    673   1430   1429   1428     1  0.0000000  2.2175200  1
    673   1430   1429   1428     1  0.0000000  0.0000000  2
    673   1430   1429   1428     1  180.0000771  0.6276000  3
    673   1430   1429   1428     1  180.0000771  2.0920000  4
    677    671   1404   1403     1  180.0000771  10.4600000  2
    678    673   1430   1429     1  180.0000771  10.4600000  2
    693    694    696    697     1  0.0000000  0.6508444  3
    693    695    698    699     1  0.0000000  0.6508444  3
    693    700    701    702     1  0.0000000  0.6508444  3
    694    693    695    698     1  0.0000000  0.6508444  3
    694    693    700    701     1  0.0000000  0.6508444  3
    694    696    697    703     1  180.0000771  0.0000000  2
    694    696    697   1456     1  0.0000000  0.2928800  2
    694    696    697   1456     1  0.0000000  0.4184000  4
    695    693    694    696     1  0.0000000  0.6508444  3
    695    693    700    701     1  0.0000000  0.6508444  3
    695    698    699    704     1  180.0000771  0.0000000  2
    695    698    699   1482     1  0.0000000  0.2928800  2
    695    698    699   1482     1  0.0000000  0.4184000  4
    696    694    693    700     1  0.0000000  0.6508444  3
    696    697   1456   1455     1  180.0000771  6.2760000  1
    696    697   1456   1455     1  0.0000000  0.0000000  2
    697   1456   1455   1454     1  0.0000000  2.2175200  1
    697   1456   1455   1454     1  0.0000000  0.0000000  2
    697   1456   1455   1454     1  180.0000771  0.6276000  3
    697   1456   1455   1454     1  180.0000771  2.0920000  4
    698    695    693    700     1  0.0000000  0.6508444  3
    698    699   1482   1481     1  180.0000771  6.2760000  1
    698    699   1482   1481     1  0.0000000  0.0000000  2
    699   1482   1481   1480     1  0.0000000  2.2175200  1
    699   1482   1481   1480     1  0.0000000  0.0000000  2
    699   1482   1481   1480     1  180.0000771  0.6276000  3
    699   1482   1481   1480     1  180.0000771  2.0920000  4
    703    697   1456   1455     1  180.0000771  10.4600000  2
    704    699   1482   1481     1  180.0000771  10.4600000  2
    719    720    722    723     1  0.0000000  0.6508444  3
    719    721    724    725     1  0.0000000  0.6508444  3
    719    726    727    728     1  0.0000000  0.6508444  3
    720    719    721    724     1  0.0000000  0.6508444  3
    720    719    726    727     1  0.0000000  0.6508444  3
    720    722    723    729     1  180.0000771  0.0000000  2
    720    722    723   1508     1  0.0000000  0.2928800  2
    720    722    723   1508     1  0.0000000  0.4184000  4
    721    719    720    722     1  0.0000000  0.6508444  3
    721    719    726    727     1  0.0000000  0.6508444  3
    721    724    725    730     1  180.0000771  0.0000000  2
    721    724    725   1534     1  0.0000000  0.2928800  2
    721    724    725   1534     1  0.0000000  0.4184000  4
    722    720    719    726     1  0.0000000  0.6508444  3
    722    723   1508   1507     1  180.0000771  6.2760000  1
    722    723   1508   1507     1  0.0000000  0.0000000  2
    723   1508   1507   1506     1  0.0000000  2.2175200  1
    723   1508   1507   1506     1  0.0000000  0.0000000  2
    723   1508   1507   1506     1  180.0000771  0.6276000  3
    723   1508   1507   1506     1  180.0000771  2.0920000  4
    724    721    719    726     1  0.0000000  0.6508444  3
    724    725   1534   1533     1  180.0000771  6.2760000  1
    724    725   1534   1533     1  0.0000000  0.0000000  2
    725   1534   1533   1532     1  0.0000000  2.2175200  1
    725   1534   1533   1532     1  0.0000000  0.0000000  2
    725   1534   1533   1532     1  180.0000771  0.6276000  3
    725   1534   1533   1532     1  180.0000771  2.0920000  4
    729    723   1508   1507     1  180.0000771  10.4600000  2
    730    725   1534   1533     1  180.0000771  10.4600000  2
    745    746    748    749     1  0.0000000  0.6508444  3
    745    747    750    751     1  0.0000000  0.6508444  3
    745    752    753    754     1  0.0000000  0.6508444  3
    746    745    747    750     1  0.0000000  0.6508444  3
    746    745    752    753     1  0.0000000  0.6508444  3
    746    748    749    755     1  180.0000771  0.0000000  2
    746    748    749   1560     1  0.0000000  0.2928800  2
    746    748    749   1560     1  0.0000000  0.4184000  4
    747    745    746    748     1  0.0000000  0.6508444  3
    747    745    752    753     1  0.0000000  0.6508444  3
    747    750    751    756     1  180.0000771  0.0000000  2
    747    750    751   1586     1  0.0000000  0.2928800  2
    747    750    751   1586     1  0.0000000  0.4184000  4
    748    746    745    752     1  0.0000000  0.6508444  3
    748    749   1560   1559     1  180.0000771  6.2760000  1
    748    749   1560   1559     1  0.0000000  0.0000000  2
    749   1560   1559   1558     1  0.0000000  2.2175200  1
    749   1560   1559   1558     1  0.0000000  0.0000000  2
    749   1560   1559   1558     1  180.0000771  0.6276000  3
    749   1560   1559   1558     1  180.0000771  2.0920000  4
    750    747    745    752     1  0.0000000  0.6508444  3
    750    751   1586   1585     1  180.0000771  6.2760000  1
    750    751   1586   1585     1  0.0000000  0.0000000  2
    751   1586   1585   1584     1  0.0000000  2.2175200  1
    751   1586   1585   1584     1  0.0000000  0.0000000  2
    751   1586   1585   1584     1  180.0000771  0.6276000  3
    751   1586   1585   1584     1  180.0000771  2.0920000  4
    755    749   1560   1559     1  180.0000771  10.4600000  2
    756    751   1586   1585     1  180.0000771  10.4600000  2
    771    772    774    775     1  0.0000000  0.6508444  3
    771    773    776    777     1  0.0000000  0.6508444  3
    771    778    779    780     1  0.0000000  0.6508444  3
    772    771    773    776     1  0.0000000  0.6508444  3
    772    771    778    779     1  0.0000000  0.6508444  3
    772    774    775    781     1  180.0000771  0.0000000  2
    772    774    775   1612     1  0.0000000  0.2928800  2
    772    774    775   1612     1  0.0000000  0.4184000  4
    773    771    772    774     1  0.0000000  0.6508444  3
    773    771    778    779     1  0.0000000  0.6508444  3
    773    776    777    782     1  180.0000771  0.0000000  2
    773    776    777   1638     1  0.0000000  0.2928800  2
    773    776    777   1638     1  0.0000000  0.4184000  4
    774    772    771    778     1  0.0000000  0.6508444  3
    774    775   1612   1611     1  180.0000771  6.2760000  1
    774    775   1612   1611     1  0.0000000  0.0000000  2
    775   1612   1611   1610     1  0.0000000  2.2175200  1
    775   1612   1611   1610     1  0.0000000  0.0000000  2
    775   1612   1611   1610     1  180.0000771  0.6276000  3
    775   1612   1611   1610     1  180.0000771  2.0920000  4
    776    773    771    778     1  0.0000000  0.6508444  3
    776    777   1638   1637     1  180.0000771  6.2760000  1
    776    777   1638   1637     1  0.0000000  0.0000000  2
    777   1638   1637   1636     1  0.0000000  2.2175200  1
    777   1638   1637   1636     1  0.0000000  0.0000000  2
    777   1638   1637   1636     1  180.0000771  0.6276000  3
    777   1638   1637   1636     1  180.0000771  2.0920000  4
    781    775   1612   1611     1  180.0000771  10.4600000  2
    782    777   1638   1637     1  180.0000771  10.4600000  2
    797    798    800    801     1  0.0000000  0.6508444  3
    797    799    802    803     1  0.0000000  0.6508444  3
    797    804    805    806     1  0.0000000  0.6508444  3
    798    797    799    802     1  0.0000000  0.6508444  3
    798    797    804    805     1  0.0000000  0.6508444  3
    798    800    801    807     1  180.0000771  0.0000000  2
    798    800    801   1664     1  0.0000000  0.2928800  2
    798    800    801   1664     1  0.0000000  0.4184000  4
    799    797    798    800     1  0.0000000  0.6508444  3
    799    797    804    805     1  0.0000000  0.6508444  3
    799    802    803    808     1  180.0000771  0.0000000  2
    799    802    803   1690     1  0.0000000  0.2928800  2
    799    802    803   1690     1  0.0000000  0.4184000  4
    800    798    797    804     1  0.0000000  0.6508444  3
    800    801   1664   1663     1  180.0000771  6.2760000  1
    800    801   1664   1663     1  0.0000000  0.0000000  2
    801   1664   1663   1662     1  0.0000000  2.2175200  1
    801   1664   1663   1662     1  0.0000000  0.0000000  2
    801   1664   1663   1662     1  180.0000771  0.6276000  3
    801   1664   1663   1662     1  180.0000771  2.0920000  4
    802    799    797    804     1  0.0000000  0.6508444  3
    802    803   1690   1689     1  180.0000771  6.2760000  1
    802    803   1690   1689     1  0.0000000  0.0000000  2
    803   1690   1689   1688     1  0.0000000  2.2175200  1
    803   1690   1689   1688     1  0.0000000  0.0000000  2
    803   1690   1689   1688     1  180.0000771  0.6276000  3
    803   1690   1689   1688     1  180.0000771  2.0920000  4
    807    801   1664   1663     1  180.0000771  10.4600000  2
    808    803   1690   1689     1  180.0000771  10.4600000  2
    823    824    826    827     1  0.0000000  0.6508444  3
    823    825    828    829     1  0.0000000  0.6508444  3
    823    830    831    832     1  0.0000000  0.6508444  3
    824    823    825    828     1  0.0000000  0.6508444  3
    824    823    830    831     1  0.0000000  0.6508444  3
    824    826    827    833     1  180.0000771  0.0000000  2
    824    826    827   1716     1  0.0000000  0.2928800  2
    824    826    827   1716     1  0.0000000  0.4184000  4
    825    823    824    826     1  0.0000000  0.6508444  3
    825    823    830    831     1  0.0000000  0.6508444  3
    825    828    829    834     1  180.0000771  0.0000000  2
    825    828    829   1742     1  0.0000000  0.2928800  2
    825    828    829   1742     1  0.0000000  0.4184000  4
    826    824    823    830     1  0.0000000  0.6508444  3
    826    827   1716   1715     1  180.0000771  6.2760000  1
    826    827   1716   1715     1  0.0000000  0.0000000  2
    827   1716   1715   1714     1  0.0000000  2.2175200  1
    827   1716   1715   1714     1  0.0000000  0.0000000  2
    827   1716   1715   1714     1  180.0000771  0.6276000  3
    827   1716   1715   1714     1  180.0000771  2.0920000  4
    828    825    823    830     1  0.0000000  0.6508444  3
    828    829   1742   1741     1  180.0000771  6.2760000  1
    828    829   1742   1741     1  0.0000000  0.0000000  2
    829   1742   1741   1740     1  0.0000000  2.2175200  1
    829   1742   1741   1740     1  0.0000000  0.0000000  2
    829   1742   1741   1740     1  180.0000771  0.6276000  3
    829   1742   1741   1740     1  180.0000771  2.0920000  4
    833    827   1716   1715     1  180.0000771  10.4600000  2
    834    829   1742   1741     1  180.0000771  10.4600000  2
    849    850    852    853     1  0.0000000  0.6508444  3
    849    851    854    855     1  0.0000000  0.6508444  3
    849    856    857    858     1  0.0000000  0.6508444  3
    850    849    851    854     1  0.0000000  0.6508444  3
    850    849    856    857     1  0.0000000  0.6508444  3
    850    852    853    859     1  180.0000771  0.0000000  2
    850    852    853   1768     1  0.0000000  0.2928800  2
    850    852    853   1768     1  0.0000000  0.4184000  4
    851    849    850    852     1  0.0000000  0.6508444  3
    851    849    856    857     1  0.0000000  0.6508444  3
    851    854    855    860     1  180.0000771  0.0000000  2
    851    854    855   1794     1  0.0000000  0.2928800  2
    851    854    855   1794     1  0.0000000  0.4184000  4
    852    850    849    856     1  0.0000000  0.6508444  3
    852    853   1768   1767     1  180.0000771  6.2760000  1
    852    853   1768   1767     1  0.0000000  0.0000000  2
    853   1768   1767   1766     1  0.0000000  2.2175200  1
    853   1768   1767   1766     1  0.0000000  0.0000000  2
    853   1768   1767   1766     1  180.0000771  0.6276000  3
    853   1768   1767   1766     1  180.0000771  2.0920000  4
    854    851    849    856     1  0.0000000  0.6508444  3
    854    855   1794   1793     1  180.0000771  6.2760000  1
    854    855   1794   1793     1  0.0000000  0.0000000  2
    855   1794   1793   1792     1  0.0000000  2.2175200  1
    855   1794   1793   1792     1  0.0000000  0.0000000  2
    855   1794   1793   1792     1  180.0000771  0.6276000  3
    855   1794   1793   1792     1  180.0000771  2.0920000  4
    859    853   1768   1767     1  180.0000771  10.4600000  2
    860    855   1794   1793     1  180.0000771  10.4600000  2
    875    876    878    879     1  0.0000000  0.6508444  3
    875    877    880    881     1  0.0000000  0.6508444  3
    875    882    883    884     1  0.0000000  0.6508444  3
    876    875    877    880     1  0.0000000  0.6508444  3
    876    875    882    883     1  0.0000000  0.6508444  3
    876    878    879    885     1  180.0000771  0.0000000  2
    876    878    879   1820     1  0.0000000  0.2928800  2
    876    878    879   1820     1  0.0000000  0.4184000  4
    877    875    876    878     1  0.0000000  0.6508444  3
    877    875    882    883     1  0.0000000  0.6508444  3
    877    880    881    886     1  180.0000771  0.0000000  2
    877    880    881   1846     1  0.0000000  0.2928800  2
    877    880    881   1846     1  0.0000000  0.4184000  4
    878    876    875    882     1  0.0000000  0.6508444  3
    878    879   1820   1819     1  180.0000771  6.2760000  1
    878    879   1820   1819     1  0.0000000  0.0000000  2
    879   1820   1819   1818     1  0.0000000  2.2175200  1
    879   1820   1819   1818     1  0.0000000  0.0000000  2
    879   1820   1819   1818     1  180.0000771  0.6276000  3
    879   1820   1819   1818     1  180.0000771  2.0920000  4
    880    877    875    882     1  0.0000000  0.6508444  3
    880    881   1846   1845     1  180.0000771  6.2760000  1
    880    881   1846   1845     1  0.0000000  0.0000000  2
    881   1846   1845   1844     1  0.0000000  2.2175200  1
    881   1846   1845   1844     1  0.0000000  0.0000000  2
    881   1846   1845   1844     1  180.0000771  0.6276000  3
    881   1846   1845   1844     1  180.0000771  2.0920000  4
    885    879   1820   1819     1  180.0000771  10.4600000  2
    886    881   1846   1845     1  180.0000771  10.4600000  2
    901    902    904    905     1  0.0000000  0.6508444  3
    901    903    906    907     1  0.0000000  0.6508444  3
    901    908    909    910     1  0.0000000  0.6508444  3
    902    901    903    906     1  0.0000000  0.6508444  3
    902    901    908    909     1  0.0000000  0.6508444  3
    902    904    905    911     1  180.0000771  0.0000000  2
    902    904    905   1872     1  0.0000000  0.2928800  2
    902    904    905   1872     1  0.0000000  0.4184000  4
    903    901    902    904     1  0.0000000  0.6508444  3
    903    901    908    909     1  0.0000000  0.6508444  3
    903    906    907    912     1  180.0000771  0.0000000  2
    903    906    907   1898     1  0.0000000  0.2928800  2
    903    906    907   1898     1  0.0000000  0.4184000  4
    904    902    901    908     1  0.0000000  0.6508444  3
    904    905   1872   1871     1  180.0000771  6.2760000  1
    904    905   1872   1871     1  0.0000000  0.0000000  2
    905   1872   1871   1870     1  0.0000000  2.2175200  1
    905   1872   1871   1870     1  0.0000000  0.0000000  2
    905   1872   1871   1870     1  180.0000771  0.6276000  3
    905   1872   1871   1870     1  180.0000771  2.0920000  4
    906    903    901    908     1  0.0000000  0.6508444  3
    906    907   1898   1897     1  180.0000771  6.2760000  1
    906    907   1898   1897     1  0.0000000  0.0000000  2
    907   1898   1897   1896     1  0.0000000  2.2175200  1
    907   1898   1897   1896     1  0.0000000  0.0000000  2
    907   1898   1897   1896     1  180.0000771  0.6276000  3
    907   1898   1897   1896     1  180.0000771  2.0920000  4
    911    905   1872   1871     1  180.0000771  10.4600000  2
    912    907   1898   1897     1  180.0000771  10.4600000  2
    927    928    930    931     1  0.0000000  0.6508444  3
    927    929    932    933     1  0.0000000  0.6508444  3
    927    934    935    936     1  0.0000000  0.6508444  3
    928    927    929    932     1  0.0000000  0.6508444  3
    928    927    934    935     1  0.0000000  0.6508444  3
    928    930    931    937     1  180.0000771  0.0000000  2
    928    930    931   1924     1  0.0000000  0.2928800  2
    928    930    931   1924     1  0.0000000  0.4184000  4
    929    927    928    930     1  0.0000000  0.6508444  3
    929    927    934    935     1  0.0000000  0.6508444  3
    929    932    933    938     1  180.0000771  0.0000000  2
    929    932    933   1950     1  0.0000000  0.2928800  2
    929    932    933   1950     1  0.0000000  0.4184000  4
    930    928    927    934     1  0.0000000  0.6508444  3
    930    931   1924   1923     1  180.0000771  6.2760000  1
    930    931   1924   1923     1  0.0000000  0.0000000  2
    931   1924   1923   1922     1  0.0000000  2.2175200  1
    931   1924   1923   1922     1  0.0000000  0.0000000  2
    931   1924   1923   1922     1  180.0000771  0.6276000  3
    931   1924   1923   1922     1  180.0000771  2.0920000  4
    932    929    927    934     1  0.0000000  0.6508444  3
    932    933   1950   1949     1  180.0000771  6.2760000  1
    932    933   1950   1949     1  0.0000000  0.0000000  2
    933   1950   1949   1948     1  0.0000000  2.2175200  1
    933   1950   1949   1948     1  0.0000000  0.0000000  2
    933   1950   1949   1948     1  180.0000771  0.6276000  3
    933   1950   1949   1948     1  180.0000771  2.0920000  4
    937    931   1924   1923     1  180.0000771  10.4600000  2
    938    933   1950   1949     1  180.0000771  10.4600000  2
    953    954    956    957     1  0.0000000  0.6508444  3
    953    955    958    959     1  0.0000000  0.6508444  3
    953    960    961    962     1  0.0000000  0.6508444  3
    954    953    955    958     1  0.0000000  0.6508444  3
    954    953    960    961     1  0.0000000  0.6508444  3
    954    956    957    963     1  180.0000771  0.0000000  2
    954    956    957   1976     1  0.0000000  0.2928800  2
    954    956    957   1976     1  0.0000000  0.4184000  4
    955    953    954    956     1  0.0000000  0.6508444  3
    955    953    960    961     1  0.0000000  0.6508444  3
    955    958    959    964     1  180.0000771  0.0000000  2
    955    958    959   2002     1  0.0000000  0.2928800  2
    955    958    959   2002     1  0.0000000  0.4184000  4
    956    954    953    960     1  0.0000000  0.6508444  3
    956    957   1976   1975     1  180.0000771  6.2760000  1
    956    957   1976   1975     1  0.0000000  0.0000000  2
    957   1976   1975   1974     1  0.0000000  2.2175200  1
    957   1976   1975   1974     1  0.0000000  0.0000000  2
    957   1976   1975   1974     1  180.0000771  0.6276000  3
    957   1976   1975   1974     1  180.0000771  2.0920000  4
    958    955    953    960     1  0.0000000  0.6508444  3
    958    959   2002   2001     1  180.0000771  6.2760000  1
    958    959   2002   2001     1  0.0000000  0.0000000  2
    959   2002   2001   2000     1  0.0000000  2.2175200  1
    959   2002   2001   2000     1  0.0000000  0.0000000  2
    959   2002   2001   2000     1  180.0000771  0.6276000  3
    959   2002   2001   2000     1  180.0000771  2.0920000  4
    963    957   1976   1975     1  180.0000771  10.4600000  2
    964    959   2002   2001     1  180.0000771  10.4600000  2
    979    980    982    983     1  0.0000000  0.6508444  3
    979    981    984    985     1  0.0000000  0.6508444  3
    979    986    987    988     1  0.0000000  0.6508444  3
    980    979    981    984     1  0.0000000  0.6508444  3
    980    979    986    987     1  0.0000000  0.6508444  3
    980    982    983    989     1  180.0000771  0.0000000  2
    980    982    983   2028     1  0.0000000  0.2928800  2
    980    982    983   2028     1  0.0000000  0.4184000  4
    981    979    980    982     1  0.0000000  0.6508444  3
    981    979    986    987     1  0.0000000  0.6508444  3
    981    984    985    990     1  180.0000771  0.0000000  2
    981    984    985   2054     1  0.0000000  0.2928800  2
    981    984    985   2054     1  0.0000000  0.4184000  4
    982    980    979    986     1  0.0000000  0.6508444  3
    982    983   2028   2027     1  180.0000771  6.2760000  1
    982    983   2028   2027     1  0.0000000  0.0000000  2
    983   2028   2027   2026     1  0.0000000  2.2175200  1
    983   2028   2027   2026     1  0.0000000  0.0000000  2
    983   2028   2027   2026     1  180.0000771  0.6276000  3
    983   2028   2027   2026     1  180.0000771  2.0920000  4
    984    981    979    986     1  0.0000000  0.6508444  3
    984    985   2054   2053     1  180.0000771  6.2760000  1
    984    985   2054   2053     1  0.0000000  0.0000000  2
    985   2054   2053   2052     1  0.0000000  2.2175200  1
    985   2054   2053   2052     1  0.0000000  0.0000000  2
    985   2054   2053   2052     1  180.0000771  0.6276000  3
    985   2054   2053   2052     1  180.0000771  2.0920000  4
    989    983   2028   2027     1  180.0000771  10.4600000  2
    990    985   2054   2053     1  180.0000771  10.4600000  2
   1005   1006   1008   1009     1  0.0000000  0.6508444  3
   1005   1007   1010   1011     1  0.0000000  0.6508444  3
   1005   1012   1013   1014     1  0.0000000  0.6508444  3
   1006   1005   1007   1010     1  0.0000000  0.6508444  3
   1006   1005   1012   1013     1  0.0000000  0.6508444  3
   1006   1008   1009   1015     1  180.0000771  0.0000000  2
   1006   1008   1009   2080     1  0.0000000  0.2928800  2
   1006   1008   1009   2080     1  0.0000000  0.4184000  4
   1007   1005   1006   1008     1  0.0000000  0.6508444  3
   1007   1005   1012   1013     1  0.0000000  0.6508444  3
   1007   1010   1011   1016     1  180.0000771  0.0000000  2
   1007   1010   1011   2106     1  0.0000000  0.2928800  2
   1007   1010   1011   2106     1  0.0000000  0.4184000  4
   1008   1006   1005   1012     1  0.0000000  0.6508444  3
   1008   1009   2080   2079     1  180.0000771  6.2760000  1
   1008   1009   2080   2079     1  0.0000000  0.0000000  2
   1009   2080   2079   2078     1  0.0000000  2.2175200  1
   1009   2080   2079   2078     1  0.0000000  0.0000000  2
   1009   2080   2079   2078     1  180.0000771  0.6276000  3
   1009   2080   2079   2078     1  180.0000771  2.0920000  4
   1010   1007   1005   1012     1  0.0000000  0.6508444  3
   1010   1011   2106   2105     1  180.0000771  6.2760000  1
   1010   1011   2106   2105     1  0.0000000  0.0000000  2
   1011   2106   2105   2104     1  0.0000000  2.2175200  1
   1011   2106   2105   2104     1  0.0000000  0.0000000  2
   1011   2106   2105   2104     1  180.0000771  0.6276000  3
   1011   2106   2105   2104     1  180.0000771  2.0920000  4
   1015   1009   2080   2079     1  180.0000771  10.4600000  2
   1016   1011   2106   2105     1  180.0000771  10.4600000  2
   1031   1032   1034   1035     1  0.0000000  0.6508444  3
   1031   1033   1036   1037     1  0.0000000  0.6508444  3
   1031   1038   1039   1040     1  0.0000000  0.6508444  3
   1032   1031   1033   1036     1  0.0000000  0.6508444  3
   1032   1031   1038   1039     1  0.0000000  0.6508444  3
   1032   1034   1035   1041     1  180.0000771  0.0000000  2
   1032   1034   1035   2132     1  0.0000000  0.2928800  2
   1032   1034   1035   2132     1  0.0000000  0.4184000  4
   1033   1031   1032   1034     1  0.0000000  0.6508444  3
   1033   1031   1038   1039     1  0.0000000  0.6508444  3
   1033   1036   1037   1042     1  180.0000771  0.0000000  2
   1033   1036   1037   2158     1  0.0000000  0.2928800  2
   1033   1036   1037   2158     1  0.0000000  0.4184000  4
   1034   1032   1031   1038     1  0.0000000  0.6508444  3
   1034   1035   2132   2131     1  180.0000771  6.2760000  1
   1034   1035   2132   2131     1  0.0000000  0.0000000  2
   1035   2132   2131   2130     1  0.0000000  2.2175200  1
   1035   2132   2131   2130     1  0.0000000  0.0000000  2
   1035   2132   2131   2130     1  180.0000771  0.6276000  3
   1035   2132   2131   2130     1  180.0000771  2.0920000  4
   1036   1033   1031   1038     1  0.0000000  0.6508444  3
   1036   1037   2158   2157     1  180.0000771  6.2760000  1
   1036   1037   2158   2157     1  0.0000000  0.0000000  2
   1037   2158   2157   2156     1  0.0000000  2.2175200  1
   1037   2158   2157   2156     1  0.0000000  0.0000000  2
   1037   2158   2157   2156     1  180.0000771  0.6276000  3
   1037   2158   2157   2156     1  180.0000771  2.0920000  4
   1041   1035   2132   2131     1  180.0000771  10.4600000  2
   1042   1037   2158   2157     1  180.0000771  10.4600000  2
   1057   1058   1060   1061     1  0.0000000  0.6508444  3
   1057   1059   1062   1063     1  0.0000000  0.6508444  3
   1057   1064   1065   1066     1  0.0000000  0.6508444  3
   1058   1057   1059   1062     1  0.0000000  0.6508444  3
   1058   1057   1064   1065     1  0.0000000  0.6508444  3
   1058   1060   1061   1067     1  180.0000771  0.0000000  2
   1058   1060   1061   2184     1  0.0000000  0.2928800  2
   1058   1060   1061   2184     1  0.0000000  0.4184000  4
   1059   1057   1058   1060     1  0.0000000  0.6508444  3
   1059   1057   1064   1065     1  0.0000000  0.6508444  3
   1059   1062   1063   1068     1  180.0000771  0.0000000  2
   1059   1062   1063   2210     1  0.0000000  0.2928800  2
   1059   1062   1063   2210     1  0.0000000  0.4184000  4
   1060   1058   1057   1064     1  0.0000000  0.6508444  3
   1060   1061   2184   2183     1  180.0000771  6.2760000  1
   1060   1061   2184   2183     1  0.0000000  0.0000000  2
   1061   2184   2183   2182     1  0.0000000  2.2175200  1
   1061   2184   2183   2182     1  0.0000000  0.0000000  2
   1061   2184   2183   2182     1  180.0000771  0.6276000  3
   1061   2184   2183   2182     1  180.0000771  2.0920000  4
   1062   1059   1057   1064     1  0.0000000  0.6508444  3
   1062   1063   2210   2209     1  180.0000771  6.2760000  1
   1062   1063   2210   2209     1  0.0000000  0.0000000  2
   1063   2210   2209   2208     1  0.0000000  2.2175200  1
   1063   2210   2209   2208     1  0.0000000  0.0000000  2
   1063   2210   2209   2208     1  180.0000771  0.6276000  3
   1063   2210   2209   2208     1  180.0000771  2.0920000  4
   1067   1061   2184   2183     1  180.0000771  10.4600000  2
   1068   1063   2210   2209     1  180.0000771  10.4600000  2
   1083   1084   1086   1087     1  0.0000000  0.6508444  3
   1083   1085   1088   1089     1  0.0000000  0.6508444  3
   1083   1090   1091   1092     1  0.0000000  0.6508444  3
   1084   1083   1085   1088     1  0.0000000  0.6508444  3
   1084   1083   1090   1091     1  0.0000000  0.6508444  3
   1084   1086   1087   1093     1  180.0000771  0.0000000  2
   1084   1086   1087   2236     1  0.0000000  0.2928800  2
   1084   1086   1087   2236     1  0.0000000  0.4184000  4
   1085   1083   1084   1086     1  0.0000000  0.6508444  3
   1085   1083   1090   1091     1  0.0000000  0.6508444  3
   1085   1088   1089   1094     1  180.0000771  0.0000000  2
   1085   1088   1089   2262     1  0.0000000  0.2928800  2
   1085   1088   1089   2262     1  0.0000000  0.4184000  4
   1086   1084   1083   1090     1  0.0000000  0.6508444  3
   1086   1087   2236   2235     1  180.0000771  6.2760000  1
   1086   1087   2236   2235     1  0.0000000  0.0000000  2
   1087   2236   2235   2234     1  0.0000000  2.2175200  1
   1087   2236   2235   2234     1  0.0000000  0.0000000  2
   1087   2236   2235   2234     1  180.0000771  0.6276000  3
   1087   2236   2235   2234     1  180.0000771  2.0920000  4
   1088   1085   1083   1090     1  0.0000000  0.6508444  3
   1088   1089   2262   2261     1  180.0000771  6.2760000  1
   1088   1089   2262   2261     1  0.0000000  0.0000000  2
   1089   2262   2261   2260     1  0.0000000  2.2175200  1
   1089   2262   2261   2260     1  0.0000000  0.0000000  2
   1089   2262   2261   2260     1  180.0000771  0.6276000  3
   1089   2262   2261   2260     1  180.0000771  2.0920000  4
   1093   1087   2236   2235     1  180.0000771  10.4600000  2
   1094   1089   2262   2261     1  180.0000771  10.4600000  2
   1109   1110   1112   1113     1  0.0000000  0.6508444  3
   1109   1111   1114   1115     1  0.0000000  0.6508444  3
   1109   1116   1117   1118     1  0.0000000  0.6508444  3
   1110   1109   1111   1114     1  0.0000000  0.6508444  3
   1110   1109   1116   1117     1  0.0000000  0.6508444  3
   1110   1112   1113   1119     1  180.0000771  0.0000000  2
   1110   1112   1113   2288     1  0.0000000  0.2928800  2
   1110   1112   1113   2288     1  0.0000000  0.4184000  4
   1111   1109   1110   1112     1  0.0000000  0.6508444  3
   1111   1109   1116   1117     1  0.0000000  0.6508444  3
   1111   1114   1115   1120     1  180.0000771  0.0000000  2
   1111   1114   1115   2314     1  0.0000000  0.2928800  2
   1111   1114   1115   2314     1  0.0000000  0.4184000  4
   1112   1110   1109   1116     1  0.0000000  0.6508444  3
   1112   1113   2288   2287     1  180.0000771  6.2760000  1
   1112   1113   2288   2287     1  0.0000000  0.0000000  2
   1113   2288   2287   2286     1  0.0000000  2.2175200  1
   1113   2288   2287   2286     1  0.0000000  0.0000000  2
   1113   2288   2287   2286     1  180.0000771  0.6276000  3
   1113   2288   2287   2286     1  180.0000771  2.0920000  4
   1114   1111   1109   1116     1  0.0000000  0.6508444  3
   1114   1115   2314   2313     1  180.0000771  6.2760000  1
   1114   1115   2314   2313     1  0.0000000  0.0000000  2
   1115   2314   2313   2312     1  0.0000000  2.2175200  1
   1115   2314   2313   2312     1  0.0000000  0.0000000  2
   1115   2314   2313   2312     1  180.0000771  0.6276000  3
   1115   2314   2313   2312     1  180.0000771  2.0920000  4
   1119   1113   2288   2287     1  180.0000771  10.4600000  2
   1120   1115   2314   2313     1  180.0000771  10.4600000  2
   1135   1136   1138   1139     1  0.0000000  0.6508444  3
   1135   1137   1140   1141     1  0.0000000  0.6508444  3
   1135   1142   1143   1144     1  0.0000000  0.6508444  3
   1136   1135   1137   1140     1  0.0000000  0.6508444  3
   1136   1135   1142   1143     1  0.0000000  0.6508444  3
   1136   1138   1139   1145     1  180.0000771  0.0000000  2
   1136   1138   1139   2340     1  0.0000000  0.2928800  2
   1136   1138   1139   2340     1  0.0000000  0.4184000  4
   1137   1135   1136   1138     1  0.0000000  0.6508444  3
   1137   1135   1142   1143     1  0.0000000  0.6508444  3
   1137   1140   1141   1146     1  180.0000771  0.0000000  2
   1137   1140   1141   2366     1  0.0000000  0.2928800  2
   1137   1140   1141   2366     1  0.0000000  0.4184000  4
   1138   1136   1135   1142     1  0.0000000  0.6508444  3
   1138   1139   2340   2339     1  180.0000771  6.2760000  1
   1138   1139   2340   2339     1  0.0000000  0.0000000  2
   1139   2340   2339   2338     1  0.0000000  2.2175200  1
   1139   2340   2339   2338     1  0.0000000  0.0000000  2
   1139   2340   2339   2338     1  180.0000771  0.6276000  3
   1139   2340   2339   2338     1  180.0000771  2.0920000  4
   1140   1137   1135   1142     1  0.0000000  0.6508444  3
   1140   1141   2366   2365     1  180.0000771  6.2760000  1
   1140   1141   2366   2365     1  0.0000000  0.0000000  2
   1141   2366   2365   2364     1  0.0000000  2.2175200  1
   1141   2366   2365   2364     1  0.0000000  0.0000000  2
   1141   2366   2365   2364     1  180.0000771  0.6276000  3
   1141   2366   2365   2364     1  180.0000771  2.0920000  4
   1145   1139   2340   2339     1  180.0000771  10.4600000  2
   1146   1141   2366   2365     1  180.0000771  10.4600000  2
   1161   1162   1164   1165     1  0.0000000  0.6508444  3
   1161   1163   1166   1167     1  0.0000000  0.6508444  3
   1161   1168   1169   1170     1  0.0000000  0.6508444  3
   1162   1161   1163   1166     1  0.0000000  0.6508444  3
   1162   1161   1168   1169     1  0.0000000  0.6508444  3
   1162   1164   1165   1171     1  180.0000771  0.0000000  2
   1162   1164   1165   2392     1  0.0000000  0.2928800  2
   1162   1164   1165   2392     1  0.0000000  0.4184000  4
   1163   1161   1162   1164     1  0.0000000  0.6508444  3
   1163   1161   1168   1169     1  0.0000000  0.6508444  3
   1163   1166   1167   1172     1  180.0000771  0.0000000  2
   1163   1166   1167   2418     1  0.0000000  0.2928800  2
   1163   1166   1167   2418     1  0.0000000  0.4184000  4
   1164   1162   1161   1168     1  0.0000000  0.6508444  3
   1164   1165   2392   2391     1  180.0000771  6.2760000  1
   1164   1165   2392   2391     1  0.0000000  0.0000000  2
   1165   2392   2391   2390     1  0.0000000  2.2175200  1
   1165   2392   2391   2390     1  0.0000000  0.0000000  2
   1165   2392   2391   2390     1  180.0000771  0.6276000  3
   1165   2392   2391   2390     1  180.0000771  2.0920000  4
   1166   1163   1161   1168     1  0.0000000  0.6508444  3
   1166   1167   2418   2417     1  180.0000771  6.2760000  1
   1166   1167   2418   2417     1  0.0000000  0.0000000  2
   1167   2418   2417   2416     1  0.0000000  2.2175200  1
   1167   2418   2417   2416     1  0.0000000  0.0000000  2
   1167   2418   2417   2416     1  180.0000771  0.6276000  3
   1167   2418   2417   2416     1  180.0000771  2.0920000  4
   1171   1165   2392   2391     1  180.0000771  10.4600000  2
   1172   1167   2418   2417     1  180.0000771  10.4600000  2
   1187   1188   1190   1191     1  0.0000000  0.6508444  3
   1187   1189   1192   1193     1  0.0000000  0.6508444  3
   1187   1194   1195   1196     1  0.0000000  0.6508444  3
   1188   1187   1189   1192     1  0.0000000  0.6508444  3
   1188   1187   1194   1195     1  0.0000000  0.6508444  3
   1188   1190   1191   1197     1  180.0000771  0.0000000  2
   1188   1190   1191   2444     1  0.0000000  0.2928800  2
   1188   1190   1191   2444     1  0.0000000  0.4184000  4
   1189   1187   1188   1190     1  0.0000000  0.6508444  3
   1189   1187   1194   1195     1  0.0000000  0.6508444  3
   1189   1192   1193   1198     1  180.0000771  0.0000000  2
   1189   1192   1193   2470     1  0.0000000  0.2928800  2
   1189   1192   1193   2470     1  0.0000000  0.4184000  4
   1190   1188   1187   1194     1  0.0000000  0.6508444  3
   1190   1191   2444   2443     1  180.0000771  6.2760000  1
   1190   1191   2444   2443     1  0.0000000  0.0000000  2
   1191   2444   2443   2442     1  0.0000000  2.2175200  1
   1191   2444   2443   2442     1  0.0000000  0.0000000  2
   1191   2444   2443   2442     1  180.0000771  0.6276000  3
   1191   2444   2443   2442     1  180.0000771  2.0920000  4
   1192   1189   1187   1194     1  0.0000000  0.6508444  3
   1192   1193   2470   2469     1  180.0000771  6.2760000  1
   1192   1193   2470   2469     1  0.0000000  0.0000000  2
   1193   2470   2469   2468     1  0.0000000  2.2175200  1
   1193   2470   2469   2468     1  0.0000000  0.0000000  2
   1193   2470   2469   2468     1  180.0000771  0.6276000  3
   1193   2470   2469   2468     1  180.0000771  2.0920000  4
   1197   1191   2444   2443     1  180.0000771  10.4600000  2
   1198   1193   2470   2469     1  180.0000771  10.4600000  2
   1213   1214   1216   1217     1  0.0000000  0.6508444  3
   1213   1215   1218   1219     1  0.0000000  0.6508444  3
   1213   1220   1221   1222     1  0.0000000  0.6508444  3
   1214   1213   1215   1218     1  0.0000000  0.6508444  3
   1214   1213   1220   1221     1  0.0000000  0.6508444  3
   1214   1216   1217   1223     1  180.0000771  0.0000000  2
   1214   1216   1217   2496     1  0.0000000  0.2928800  2
   1214   1216   1217   2496     1  0.0000000  0.4184000  4
   1215   1213   1214   1216     1  0.0000000  0.6508444  3
   1215   1213   1220   1221     1  0.0000000  0.6508444  3
   1215   1218   1219   1224     1  180.0000771  0.0000000  2
   1215   1218   1219   2522     1  0.0000000  0.2928800  2
   1215   1218   1219   2522     1  0.0000000  0.4184000  4
   1216   1214   1213   1220     1  0.0000000  0.6508444  3
   1216   1217   2496   2495     1  180.0000771  6.2760000  1
   1216   1217   2496   2495     1  0.0000000  0.0000000  2
   1217   2496   2495   2494     1  0.0000000  2.2175200  1
   1217   2496   2495   2494     1  0.0000000  0.0000000  2
   1217   2496   2495   2494     1  180.0000771  0.6276000  3
   1217   2496   2495   2494     1  180.0000771  2.0920000  4
   1218   1215   1213   1220     1  0.0000000  0.6508444  3
   1218   1219   2522   2521     1  180.0000771  6.2760000  1
   1218   1219   2522   2521     1  0.0000000  0.0000000  2
   1219   2522   2521   2520     1  0.0000000  2.2175200  1
   1219   2522   2521   2520     1  0.0000000  0.0000000  2
   1219   2522   2521   2520     1  180.0000771  0.6276000  3
   1219   2522   2521   2520     1  180.0000771  2.0920000  4
   1223   1217   2496   2495     1  180.0000771  10.4600000  2
   1224   1219   2522   2521     1  180.0000771  10.4600000  2
   1239   1240   1242   1243     1  0.0000000  0.6508444  3
   1239   1241   1244   1245     1  0.0000000  0.6508444  3
   1239   1246   1247   1248     1  0.0000000  0.6508444  3
   1240   1239   1241   1244     1  0.0000000  0.6508444  3
   1240   1239   1246   1247     1  0.0000000  0.6508444  3
   1240   1242   1243   1249     1  180.0000771  0.0000000  2
   1240   1242   1243   2548     1  0.0000000  0.2928800  2
   1240   1242   1243   2548     1  0.0000000  0.4184000  4
   1241   1239   1240   1242     1  0.0000000  0.6508444  3
   1241   1239   1246   1247     1  0.0000000  0.6508444  3
   1241   1244   1245   1250     1  180.0000771  0.0000000  2
   1241   1244   1245   2574     1  0.0000000  0.2928800  2
   1241   1244   1245   2574     1  0.0000000  0.4184000  4
   1242   1240   1239   1246     1  0.0000000  0.6508444  3
   1242   1243   2548   2547     1  180.0000771  6.2760000  1
   1242   1243   2548   2547     1  0.0000000  0.0000000  2
   1243   2548   2547   2546     1  0.0000000  2.2175200  1
   1243   2548   2547   2546     1  0.0000000  0.0000000  2
   1243   2548   2547   2546     1  180.0000771  0.6276000  3
   1243   2548   2547   2546     1  180.0000771  2.0920000  4
   1244   1241   1239   1246     1  0.0000000  0.6508444  3
   1244   1245   2574   2573     1  180.0000771  6.2760000  1
   1244   1245   2574   2573     1  0.0000000  0.0000000  2
   1245   2574   2573   2572     1  0.0000000  2.2175200  1
   1245   2574   2573   2572     1  0.0000000  0.0000000  2
   1245   2574   2573   2572     1  180.0000771  0.6276000  3
   1245   2574   2573   2572     1  180.0000771  2.0920000  4
   1249   1243   2548   2547     1  180.0000771  10.4600000  2
   1250   1245   2574   2573     1  180.0000771  10.4600000  2
   1265   1266   1268   1269     1  0.0000000  0.6508444  3
   1265   1267   1270   1271     1  0.0000000  0.6508444  3
   1265   1272   1273   1274     1  0.0000000  0.6508444  3
   1266   1265   1267   1270     1  0.0000000  0.6508444  3
   1266   1265   1272   1273     1  0.0000000  0.6508444  3
   1266   1268   1269   1275     1  180.0000771  0.0000000  2
   1266   1268   1269   2600     1  0.0000000  0.2928800  2
   1266   1268   1269   2600     1  0.0000000  0.4184000  4
   1267   1265   1266   1268     1  0.0000000  0.6508444  3
   1267   1265   1272   1273     1  0.0000000  0.6508444  3
   1267   1270   1271   1276     1  180.0000771  0.0000000  2
   1267   1270   1271   2626     1  0.0000000  0.2928800  2
   1267   1270   1271   2626     1  0.0000000  0.4184000  4
   1268   1266   1265   1272     1  0.0000000  0.6508444  3
   1268   1269   2600   2599     1  180.0000771  6.2760000  1
   1268   1269   2600   2599     1  0.0000000  0.0000000  2
   1269   2600   2599   2598     1  0.0000000  2.2175200  1
   1269   2600   2599   2598     1  0.0000000  0.0000000  2
   1269   2600   2599   2598     1  180.0000771  0.6276000  3
   1269   2600   2599   2598     1  180.0000771  2.0920000  4
   1270   1267   1265   1272     1  0.0000000  0.6508444  3
   1270   1271   2626   2625     1  180.0000771  6.2760000  1
   1270   1271   2626   2625     1  0.0000000  0.0000000  2
   1271   2626   2625   2624     1  0.0000000  2.2175200  1
   1271   2626   2625   2624     1  0.0000000  0.0000000  2
   1271   2626   2625   2624     1  180.0000771  0.6276000  3
   1271   2626   2625   2624     1  180.0000771  2.0920000  4
   1275   1269   2600   2599     1  180.0000771  10.4600000  2
   1276   1271   2626   2625     1  180.0000771  10.4600000  2
   1291   1292   1294   1295     1  0.0000000  0.6508444  3
   1291   1293   1296   1297     1  0.0000000  0.6508444  3
   1291   1298   1299   1300     1  0.0000000  0.6508444  3
   1292   1291   1293   1296     1  0.0000000  0.6508444  3
   1292   1291   1298   1299     1  0.0000000  0.6508444  3
   1292   1294   1295   1301     1  180.0000771  0.0000000  2
   1292   1294   1295   2652     1  0.0000000  0.2928800  2
   1292   1294   1295   2652     1  0.0000000  0.4184000  4
   1293   1291   1292   1294     1  0.0000000  0.6508444  3
   1293   1291   1298   1299     1  0.0000000  0.6508444  3
   1293   1296   1297   1302     1  180.0000771  0.0000000  2
   1293   1296   1297   2678     1  0.0000000  0.2928800  2
   1293   1296   1297   2678     1  0.0000000  0.4184000  4
   1294   1292   1291   1298     1  0.0000000  0.6508444  3
   1294   1295   2652   2651     1  180.0000771  6.2760000  1
   1294   1295   2652   2651     1  0.0000000  0.0000000  2
   1295   2652   2651   2650     1  0.0000000  2.2175200  1
   1295   2652   2651   2650     1  0.0000000  0.0000000  2
   1295   2652   2651   2650     1  180.0000771  0.6276000  3
   1295   2652   2651   2650     1  180.0000771  2.0920000  4
   1296   1293   1291   1298     1  0.0000000  0.6508444  3
   1296   1297   2678   2677     1  180.0000771  6.2760000  1
   1296   1297   2678   2677     1  0.0000000  0.0000000  2
   1297   2678   2677   2676     1  0.0000000  2.2175200  1
   1297   2678   2677   2676     1  0.0000000  0.0000000  2
   1297   2678   2677   2676     1  180.0000771  0.6276000  3
   1297   2678   2677   2676     1  180.0000771  2.0920000  4
   1301   1295   2652   2651     1  180.0000771  10.4600000  2
   1302   1297   2678   2677     1  180.0000771  10.4600000  2
   1317   1318   1320   1321     1  0.0000000  0.6508444  3
   1317   1319   1322   1323     1  0.0000000  0.6508444  3
   1317   1324   1325   1326     1  0.0000000  0.6508444  3
   1318   1317   1319   1322     1  0.0000000  0.6508444  3
   1318   1317   1324   1325     1  0.0000000  0.6508444  3
   1318   1320   1321   1327     1  180.0000771  0.0000000  2
   1318   1320   1321   2704     1  0.0000000  0.2928800  2
   1318   1320   1321   2704     1  0.0000000  0.4184000  4
   1319   1317   1318   1320     1  0.0000000  0.6508444  3
   1319   1317   1324   1325     1  0.0000000  0.6508444  3
   1319   1322   1323   1328     1  180.0000771  0.0000000  2
   1319   1322   1323   2730     1  0.0000000  0.2928800  2
   1319   1322   1323   2730     1  0.0000000  0.4184000  4
   1320   1318   1317   1324     1  0.0000000  0.6508444  3
   1320   1321   2704   2703     1  180.0000771  6.2760000  1
   1320   1321   2704   2703     1  0.0000000  0.0000000  2
   1321   2704   2703   2702     1  0.0000000  2.2175200  1
   1321   2704   2703   2702     1  0.0000000  0.0000000  2
   1321   2704   2703   2702     1  180.0000771  0.6276000  3
   1321   2704   2703   2702     1  180.0000771  2.0920000  4
   1322   1319   1317   1324     1  0.0000000  0.6508444  3
   1322   1323   2730   2729     1  180.0000771  6.2760000  1
   1322   1323   2730   2729     1  0.0000000  0.0000000  2
   1323   2730   2729   2728     1  0.0000000  2.2175200  1
   1323   2730   2729   2728     1  0.0000000  0.0000000  2
   1323   2730   2729   2728     1  180.0000771  0.6276000  3
   1323   2730   2729   2728     1  180.0000771  2.0920000  4
   1327   1321   2704   2703     1  180.0000771  10.4600000  2
   1328   1323   2730   2729     1  180.0000771  10.4600000  2
   1343   1344   1346   1347     1  0.0000000  0.6508444  3
   1343   1345   1348   1349     1  0.0000000  0.6508444  3
   1343   1350   1351   1352     1  0.0000000  0.6508444  3
   1344   1343   1345   1348     1  0.0000000  0.6508444  3
   1344   1343   1350   1351     1  0.0000000  0.6508444  3
   1344   1346   1347   1353     1  180.0000771  0.0000000  2
   1344   1346   1347   2756     1  0.0000000  0.2928800  2
   1344   1346   1347   2756     1  0.0000000  0.4184000  4
   1345   1343   1344   1346     1  0.0000000  0.6508444  3
   1345   1343   1350   1351     1  0.0000000  0.6508444  3
   1345   1348   1349   1354     1  180.0000771  0.0000000  2
   1345   1348   1349   2782     1  0.0000000  0.2928800  2
   1345   1348   1349   2782     1  0.0000000  0.4184000  4
   1346   1344   1343   1350     1  0.0000000  0.6508444  3
   1346   1347   2756   2755     1  180.0000771  6.2760000  1
   1346   1347   2756   2755     1  0.0000000  0.0000000  2
   1347   2756   2755   2754     1  0.0000000  2.2175200  1
   1347   2756   2755   2754     1  0.0000000  0.0000000  2
   1347   2756   2755   2754     1  180.0000771  0.6276000  3
   1347   2756   2755   2754     1  180.0000771  2.0920000  4
   1348   1345   1343   1350     1  0.0000000  0.6508444  3
   1348   1349   2782   2781     1  180.0000771  6.2760000  1
   1348   1349   2782   2781     1  0.0000000  0.0000000  2
   1349   2782   2781   2780     1  0.0000000  2.2175200  1
   1349   2782   2781   2780     1  0.0000000  0.0000000  2
   1349   2782   2781   2780     1  180.0000771  0.6276000  3
   1349   2782   2781   2780     1  180.0000771  2.0920000  4
   1353   1347   2756   2755     1  180.0000771  10.4600000  2
   1354   1349   2782   2781     1  180.0000771  10.4600000  2
   1369   1370   1372   1373     1  0.0000000  0.6508444  3
   1369   1371   1374   1375     1  0.0000000  0.6508444  3
   1369   1376   1377   1378     1  0.0000000  0.6508444  3
   1370   1369   1371   1374     1  0.0000000  0.6508444  3
   1370   1369   1376   1377     1  0.0000000  0.6508444  3
   1370   1372   1373   1379     1  180.0000771  0.0000000  2
   1370   1372   1373   2808     1  0.0000000  0.2928800  2
   1370   1372   1373   2808     1  0.0000000  0.4184000  4
   1371   1369   1370   1372     1  0.0000000  0.6508444  3
   1371   1369   1376   1377     1  0.0000000  0.6508444  3
   1371   1374   1375   1380     1  180.0000771  0.0000000  2
   1371   1374   1375   2834     1  0.0000000  0.2928800  2
   1371   1374   1375   2834     1  0.0000000  0.4184000  4
   1372   1370   1369   1376     1  0.0000000  0.6508444  3
   1372   1373   2808   2807     1  180.0000771  6.2760000  1
   1372   1373   2808   2807     1  0.0000000  0.0000000  2
   1373   2808   2807   2806     1  0.0000000  2.2175200  1
   1373   2808   2807   2806     1  0.0000000  0.0000000  2
   1373   2808   2807   2806     1  180.0000771  0.6276000  3
   1373   2808   2807   2806     1  180.0000771  2.0920000  4
   1374   1371   1369   1376     1  0.0000000  0.6508444  3
   1374   1375   2834   2833     1  180.0000771  6.2760000  1
   1374   1375   2834   2833     1  0.0000000  0.0000000  2
   1375   2834   2833   2832     1  0.0000000  2.2175200  1
   1375   2834   2833   2832     1  0.0000000  0.0000000  2
   1375   2834   2833   2832     1  180.0000771  0.6276000  3
   1375   2834   2833   2832     1  180.0000771  2.0920000  4
   1379   1373   2808   2807     1  180.0000771  10.4600000  2
   1380   1375   2834   2833     1  180.0000771  10.4600000  2
   1395   1396   1398   1399     1  0.0000000  0.6508444  3
   1395   1397   1400   1401     1  0.0000000  0.6508444  3
   1395   1402   1403   1404     1  0.0000000  0.6508444  3
   1396   1395   1397   1400     1  0.0000000  0.6508444  3
   1396   1395   1402   1403     1  0.0000000  0.6508444  3
   1396   1398   1399   1405     1  180.0000771  0.0000000  2
   1396   1398   1399   2860     1  0.0000000  0.2928800  2
   1396   1398   1399   2860     1  0.0000000  0.4184000  4
   1397   1395   1396   1398     1  0.0000000  0.6508444  3
   1397   1395   1402   1403     1  0.0000000  0.6508444  3
   1397   1400   1401   1406     1  180.0000771  0.0000000  2
   1397   1400   1401   2886     1  0.0000000  0.2928800  2
   1397   1400   1401   2886     1  0.0000000  0.4184000  4
   1398   1396   1395   1402     1  0.0000000  0.6508444  3
   1398   1399   2860   2859     1  180.0000771  6.2760000  1
   1398   1399   2860   2859     1  0.0000000  0.0000000  2
   1399   2860   2859   2858     1  0.0000000  2.2175200  1
   1399   2860   2859   2858     1  0.0000000  0.0000000  2
   1399   2860   2859   2858     1  180.0000771  0.6276000  3
   1399   2860   2859   2858     1  180.0000771  2.0920000  4
   1400   1397   1395   1402     1  0.0000000  0.6508444  3
   1400   1401   2886   2885     1  180.0000771  6.2760000  1
   1400   1401   2886   2885     1  0.0000000  0.0000000  2
   1401   2886   2885   2884     1  0.0000000  2.2175200  1
   1401   2886   2885   2884     1  0.0000000  0.0000000  2
   1401   2886   2885   2884     1  180.0000771  0.6276000  3
   1401   2886   2885   2884     1  180.0000771  2.0920000  4
   1405   1399   2860   2859     1  180.0000771  10.4600000  2
   1406   1401   2886   2885     1  180.0000771  10.4600000  2
   1421   1422   1424   1425     1  0.0000000  0.6508444  3
   1421   1423   1426   1427     1  0.0000000  0.6508444  3
   1421   1428   1429   1430     1  0.0000000  0.6508444  3
   1422   1421   1423   1426     1  0.0000000  0.6508444  3
   1422   1421   1428   1429     1  0.0000000  0.6508444  3
   1422   1424   1425   1431     1  180.0000771  0.0000000  2
   1422   1424   1425   2912     1  0.0000000  0.2928800  2
   1422   1424   1425   2912     1  0.0000000  0.4184000  4
   1423   1421   1422   1424     1  0.0000000  0.6508444  3
   1423   1421   1428   1429     1  0.0000000  0.6508444  3
   1423   1426   1427   1432     1  180.0000771  0.0000000  2
   1423   1426   1427   2938     1  0.0000000  0.2928800  2
   1423   1426   1427   2938     1  0.0000000  0.4184000  4
   1424   1422   1421   1428     1  0.0000000  0.6508444  3
   1424   1425   2912   2911     1  180.0000771  6.2760000  1
   1424   1425   2912   2911     1  0.0000000  0.0000000  2
   1425   2912   2911   2910     1  0.0000000  2.2175200  1
   1425   2912   2911   2910     1  0.0000000  0.0000000  2
   1425   2912   2911   2910     1  180.0000771  0.6276000  3
   1425   2912   2911   2910     1  180.0000771  2.0920000  4
   1426   1423   1421   1428     1  0.0000000  0.6508444  3
   1426   1427   2938   2937     1  180.0000771  6.2760000  1
   1426   1427   2938   2937     1  0.0000000  0.0000000  2
   1427   2938   2937   2936     1  0.0000000  2.2175200  1
   1427   2938   2937   2936     1  0.0000000  0.0000000  2
   1427   2938   2937   2936     1  180.0000771  0.6276000  3
   1427   2938   2937   2936     1  180.0000771  2.0920000  4
   1431   1425   2912   2911     1  180.0000771  10.4600000  2
   1432   1427   2938   2937     1  180.0000771  10.4600000  2
   1447   1448   1450   1451     1  0.0000000  0.6508444  3
   1447   1449   1452   1453     1  0.0000000  0.6508444  3
   1447   1454   1455   1456     1  0.0000000  0.6508444  3
   1448   1447   1449   1452     1  0.0000000  0.6508444  3
   1448   1447   1454   1455     1  0.0000000  0.6508444  3
   1448   1450   1451   1457     1  180.0000771  0.0000000  2
   1448   1450   1451   2964     1  0.0000000  0.2928800  2
   1448   1450   1451   2964     1  0.0000000  0.4184000  4
   1449   1447   1448   1450     1  0.0000000  0.6508444  3
   1449   1447   1454   1455     1  0.0000000  0.6508444  3
   1449   1452   1453   1458     1  180.0000771  0.0000000  2
   1449   1452   1453   2990     1  0.0000000  0.2928800  2
   1449   1452   1453   2990     1  0.0000000  0.4184000  4
   1450   1448   1447   1454     1  0.0000000  0.6508444  3
   1450   1451   2964   2963     1  180.0000771  6.2760000  1
   1450   1451   2964   2963     1  0.0000000  0.0000000  2
   1451   2964   2963   2962     1  0.0000000  2.2175200  1
   1451   2964   2963   2962     1  0.0000000  0.0000000  2
   1451   2964   2963   2962     1  180.0000771  0.6276000  3
   1451   2964   2963   2962     1  180.0000771  2.0920000  4
   1452   1449   1447   1454     1  0.0000000  0.6508444  3
   1452   1453   2990   2989     1  180.0000771  6.2760000  1
   1452   1453   2990   2989     1  0.0000000  0.0000000  2
   1453   2990   2989   2988     1  0.0000000  2.2175200  1
   1453   2990   2989   2988     1  0.0000000  0.0000000  2
   1453   2990   2989   2988     1  180.0000771  0.6276000  3
   1453   2990   2989   2988     1  180.0000771  2.0920000  4
   1457   1451   2964   2963     1  180.0000771  10.4600000  2
   1458   1453   2990   2989     1  180.0000771  10.4600000  2
   1473   1474   1476   1477     1  0.0000000  0.6508444  3
   1473   1475   1478   1479     1  0.0000000  0.6508444  3
   1473   1480   1481   1482     1  0.0000000  0.6508444  3
   1474   1473   1475   1478     1  0.0000000  0.6508444  3
   1474   1473   1480   1481     1  0.0000000  0.6508444  3
   1474   1476   1477   1483     1  180.0000771  0.0000000  2
   1474   1476   1477   3016     1  0.0000000  0.2928800  2
   1474   1476   1477   3016     1  0.0000000  0.4184000  4
   1475   1473   1474   1476     1  0.0000000  0.6508444  3
   1475   1473   1480   1481     1  0.0000000  0.6508444  3
   1475   1478   1479   1484     1  180.0000771  0.0000000  2
   1475   1478   1479   3042     1  0.0000000  0.2928800  2
   1475   1478   1479   3042     1  0.0000000  0.4184000  4
   1476   1474   1473   1480     1  0.0000000  0.6508444  3
   1476   1477   3016   3015     1  180.0000771  6.2760000  1
   1476   1477   3016   3015     1  0.0000000  0.0000000  2
   1477   3016   3015   3014     1  0.0000000  2.2175200  1
   1477   3016   3015   3014     1  0.0000000  0.0000000  2
   1477   3016   3015   3014     1  180.0000771  0.6276000  3
   1477   3016   3015   3014     1  180.0000771  2.0920000  4
   1478   1475   1473   1480     1  0.0000000  0.6508444  3
   1478   1479   3042   3041     1  180.0000771  6.2760000  1
   1478   1479   3042   3041     1  0.0000000  0.0000000  2
   1479   3042   3041   3040     1  0.0000000  2.2175200  1
   1479   3042   3041   3040     1  0.0000000  0.0000000  2
   1479   3042   3041   3040     1  180.0000771  0.6276000  3
   1479   3042   3041   3040     1  180.0000771  2.0920000  4
   1483   1477   3016   3015     1  180.0000771  10.4600000  2
   1484   1479   3042   3041     1  180.0000771  10.4600000  2
   1499   1500   1502   1503     1  0.0000000  0.6508444  3
   1499   1501   1504   1505     1  0.0000000  0.6508444  3
   1499   1506   1507   1508     1  0.0000000  0.6508444  3
   1500   1499   1501   1504     1  0.0000000  0.6508444  3
   1500   1499   1506   1507     1  0.0000000  0.6508444  3
   1500   1502   1503   1509     1  180.0000771  0.0000000  2
   1500   1502   1503   3068     1  0.0000000  0.2928800  2
   1500   1502   1503   3068     1  0.0000000  0.4184000  4
   1501   1499   1500   1502     1  0.0000000  0.6508444  3
   1501   1499   1506   1507     1  0.0000000  0.6508444  3
   1501   1504   1505   1510     1  180.0000771  0.0000000  2
   1501   1504   1505   3094     1  0.0000000  0.2928800  2
   1501   1504   1505   3094     1  0.0000000  0.4184000  4
   1502   1500   1499   1506     1  0.0000000  0.6508444  3
   1502   1503   3068   3067     1  180.0000771  6.2760000  1
   1502   1503   3068   3067     1  0.0000000  0.0000000  2
   1503   3068   3067   3066     1  0.0000000  2.2175200  1
   1503   3068   3067   3066     1  0.0000000  0.0000000  2
   1503   3068   3067   3066     1  180.0000771  0.6276000  3
   1503   3068   3067   3066     1  180.0000771  2.0920000  4
   1504   1501   1499   1506     1  0.0000000  0.6508444  3
   1504   1505   3094   3093     1  180.0000771  6.2760000  1
   1504   1505   3094   3093     1  0.0000000  0.0000000  2
   1505   3094   3093   3092     1  0.0000000  2.2175200  1
   1505   3094   3093   3092     1  0.0000000  0.0000000  2
   1505   3094   3093   3092     1  180.0000771  0.6276000  3
   1505   3094   3093   3092     1  180.0000771  2.0920000  4
   1509   1503   3068   3067     1  180.0000771  10.4600000  2
   1510   1505   3094   3093     1  180.0000771  10.4600000  2
   1525   1526   1528   1529     1  0.0000000  0.6508444  3
   1525   1527   1530   1531     1  0.0000000  0.6508444  3
   1525   1532   1533   1534     1  0.0000000  0.6508444  3
   1526   1525   1527   1530     1  0.0000000  0.6508444  3
   1526   1525   1532   1533     1  0.0000000  0.6508444  3
   1526   1528   1529   1535     1  180.0000771  0.0000000  2
   1526   1528   1529   3120     1  0.0000000  0.2928800  2
   1526   1528   1529   3120     1  0.0000000  0.4184000  4
   1527   1525   1526   1528     1  0.0000000  0.6508444  3
   1527   1525   1532   1533     1  0.0000000  0.6508444  3
   1527   1530   1531   1536     1  180.0000771  0.0000000  2
   1527   1530   1531   3146     1  0.0000000  0.2928800  2
   1527   1530   1531   3146     1  0.0000000  0.4184000  4
   1528   1526   1525   1532     1  0.0000000  0.6508444  3
   1528   1529   3120   3119     1  180.0000771  6.2760000  1
   1528   1529   3120   3119     1  0.0000000  0.0000000  2
   1529   3120   3119   3118     1  0.0000000  2.2175200  1
   1529   3120   3119   3118     1  0.0000000  0.0000000  2
   1529   3120   3119   3118     1  180.0000771  0.6276000  3
   1529   3120   3119   3118     1  180.0000771  2.0920000  4
   1530   1527   1525   1532     1  0.0000000  0.6508444  3
   1530   1531   3146   3145     1  180.0000771  6.2760000  1
   1530   1531   3146   3145     1  0.0000000  0.0000000  2
   1531   3146   3145   3144     1  0.0000000  2.2175200  1
   1531   3146   3145   3144     1  0.0000000  0.0000000  2
   1531   3146   3145   3144     1  180.0000771  0.6276000  3
   1531   3146   3145   3144     1  180.0000771  2.0920000  4
   1535   1529   3120   3119     1  180.0000771  10.4600000  2
   1536   1531   3146   3145     1  180.0000771  10.4600000  2
   1551   1552   1554   1555     1  0.0000000  0.6508444  3
   1551   1553   1556   1557     1  0.0000000  0.6508444  3
   1551   1558   1559   1560     1  0.0000000  0.6508444  3
   1552   1551   1553   1556     1  0.0000000  0.6508444  3
   1552   1551   1558   1559     1  0.0000000  0.6508444  3
   1552   1554   1555   1561     1  180.0000771  0.0000000  2
   1552   1554   1555   3172     1  0.0000000  0.2928800  2
   1552   1554   1555   3172     1  0.0000000  0.4184000  4
   1553   1551   1552   1554     1  0.0000000  0.6508444  3
   1553   1551   1558   1559     1  0.0000000  0.6508444  3
   1553   1556   1557   1562     1  180.0000771  0.0000000  2
   1553   1556   1557   3198     1  0.0000000  0.2928800  2
   1553   1556   1557   3198     1  0.0000000  0.4184000  4
   1554   1552   1551   1558     1  0.0000000  0.6508444  3
   1554   1555   3172   3171     1  180.0000771  6.2760000  1
   1554   1555   3172   3171     1  0.0000000  0.0000000  2
   1555   3172   3171   3170     1  0.0000000  2.2175200  1
   1555   3172   3171   3170     1  0.0000000  0.0000000  2
   1555   3172   3171   3170     1  180.0000771  0.6276000  3
   1555   3172   3171   3170     1  180.0000771  2.0920000  4
   1556   1553   1551   1558     1  0.0000000  0.6508444  3
   1556   1557   3198   3197     1  180.0000771  6.2760000  1
   1556   1557   3198   3197     1  0.0000000  0.0000000  2
   1557   3198   3197   3196     1  0.0000000  2.2175200  1
   1557   3198   3197   3196     1  0.0000000  0.0000000  2
   1557   3198   3197   3196     1  180.0000771  0.6276000  3
   1557   3198   3197   3196     1  180.0000771  2.0920000  4
   1561   1555   3172   3171     1  180.0000771  10.4600000  2
   1562   1557   3198   3197     1  180.0000771  10.4600000  2
   1577   1578   1580   1581     1  0.0000000  0.6508444  3
   1577   1579   1582   1583     1  0.0000000  0.6508444  3
   1577   1584   1585   1586     1  0.0000000  0.6508444  3
   1578   1577   1579   1582     1  0.0000000  0.6508444  3
   1578   1577   1584   1585     1  0.0000000  0.6508444  3
   1578   1580   1581   1587     1  180.0000771  0.0000000  2
   1578   1580   1581   3224     1  0.0000000  0.2928800  2
   1578   1580   1581   3224     1  0.0000000  0.4184000  4
   1579   1577   1578   1580     1  0.0000000  0.6508444  3
   1579   1577   1584   1585     1  0.0000000  0.6508444  3
   1579   1582   1583   1588     1  180.0000771  0.0000000  2
   1579   1582   1583   3250     1  0.0000000  0.2928800  2
   1579   1582   1583   3250     1  0.0000000  0.4184000  4
   1580   1578   1577   1584     1  0.0000000  0.6508444  3
   1580   1581   3224   3223     1  180.0000771  6.2760000  1
   1580   1581   3224   3223     1  0.0000000  0.0000000  2
   1581   3224   3223   3222     1  0.0000000  2.2175200  1
   1581   3224   3223   3222     1  0.0000000  0.0000000  2
   1581   3224   3223   3222     1  180.0000771  0.6276000  3
   1581   3224   3223   3222     1  180.0000771  2.0920000  4
   1582   1579   1577   1584     1  0.0000000  0.6508444  3
   1582   1583   3250   3249     1  180.0000771  6.2760000  1
   1582   1583   3250   3249     1  0.0000000  0.0000000  2
   1583   3250   3249   3248     1  0.0000000  2.2175200  1
   1583   3250   3249   3248     1  0.0000000  0.0000000  2
   1583   3250   3249   3248     1  180.0000771  0.6276000  3
   1583   3250   3249   3248     1  180.0000771  2.0920000  4
   1587   1581   3224   3223     1  180.0000771  10.4600000  2
   1588   1583   3250   3249     1  180.0000771  10.4600000  2
   1603   1604   1606   1607     1  0.0000000  0.6508444  3
   1603   1605   1608   1609     1  0.0000000  0.6508444  3
   1603   1610   1611   1612     1  0.0000000  0.6508444  3
   1604   1603   1605   1608     1  0.0000000  0.6508444  3
   1604   1603   1610   1611     1  0.0000000  0.6508444  3
   1604   1606   1607   3267     1  0.0000000  0.2928800  2
   1604   1606   1607   3267     1  0.0000000  0.4184000  4
   1604   1606   1607   1613     1  180.0000771  0.0000000  2
   1605   1603   1604   1606     1  0.0000000  0.6508444  3
   1605   1603   1610   1611     1  0.0000000  0.6508444  3
   1605   1608   1609   1614     1  180.0000771  0.0000000  2
   1605   1608   1609   3279     1  0.0000000  0.2928800  2
   1605   1608   1609   3279     1  0.0000000  0.4184000  4
   1606   1604   1603   1610     1  0.0000000  0.6508444  3
   1606   1607   3267   3269     1  180.0000771  6.2760000  1
   1606   1607   3267   3269     1  0.0000000  0.0000000  2
   1607   3267   3269   3270     1  0.0000000  2.2175200  1
   1607   3267   3269   3270     1  0.0000000  0.0000000  2
   1607   3267   3269   3270     1  180.0000771  0.6276000  3
   1607   3267   3269   3270     1  180.0000771  2.0920000  4
   1608   1605   1603   1610     1  0.0000000  0.6508444  3
   1608   1609   3279   3281     1  180.0000771  6.2760000  1
   1608   1609   3279   3281     1  0.0000000  0.0000000  2
   1609   3279   3281   3282     1  0.0000000  2.2175200  1
   1609   3279   3281   3282     1  0.0000000  0.0000000  2
   1609   3279   3281   3282     1  180.0000771  0.6276000  3
   1609   3279   3281   3282     1  180.0000771  2.0920000  4
   1613   1607   3267   3269     1  180.0000771  10.4600000  2
   1614   1609   3279   3281     1  180.0000771  10.4600000  2
   1629   1630   1632   1633     1  0.0000000  0.6508444  3
   1629   1631   1634   1635     1  0.0000000  0.6508444  3
   1629   1636   1637   1638     1  0.0000000  0.6508444  3
   1630   1629   1631   1634     1  0.0000000  0.6508444  3
   1630   1629   1636   1637     1  0.0000000  0.6508444  3
   1630   1632   1633   3291     1  0.0000000  0.2928800  2
   1630   1632   1633   3291     1  0.0000000  0.4184000  4
   1630   1632   1633   1639     1  180.0000771  0.0000000  2
   1631   1629   1630   1632     1  0.0000000  0.6508444  3
   1631   1629   1636   1637     1  0.0000000  0.6508444  3
   1631   1634   1635   1640     1  180.0000771  0.0000000  2
   1631   1634   1635   3303     1  0.0000000  0.2928800  2
   1631   1634   1635   3303     1  0.0000000  0.4184000  4
   1632   1630   1629   1636     1  0.0000000  0.6508444  3
   1632   1633   3291   3293     1  180.0000771  6.2760000  1
   1632   1633   3291   3293     1  0.0000000  0.0000000  2
   1633   3291   3293   3294     1  0.0000000  2.2175200  1
   1633   3291   3293   3294     1  0.0000000  0.0000000  2
   1633   3291   3293   3294     1  180.0000771  0.6276000  3
   1633   3291   3293   3294     1  180.0000771  2.0920000  4
   1634   1631   1629   1636     1  0.0000000  0.6508444  3
   1634   1635   3303   3305     1  180.0000771  6.2760000  1
   1634   1635   3303   3305     1  0.0000000  0.0000000  2
   1635   3303   3305   3306     1  0.0000000  2.2175200  1
   1635   3303   3305   3306     1  0.0000000  0.0000000  2
   1635   3303   3305   3306     1  180.0000771  0.6276000  3
   1635   3303   3305   3306     1  180.0000771  2.0920000  4
   1639   1633   3291   3293     1  180.0000771  10.4600000  2
   1640   1635   3303   3305     1  180.0000771  10.4600000  2
   1655   1656   1658   1659     1  0.0000000  0.6508444  3
   1655   1657   1660   1661     1  0.0000000  0.6508444  3
   1655   1662   1663   1664     1  0.0000000  0.6508444  3
   1656   1655   1657   1660     1  0.0000000  0.6508444  3
   1656   1655   1662   1663     1  0.0000000  0.6508444  3
   1656   1658   1659   3315     1  0.0000000  0.2928800  2
   1656   1658   1659   3315     1  0.0000000  0.4184000  4
   1656   1658   1659   1665     1  180.0000771  0.0000000  2
   1657   1655   1656   1658     1  0.0000000  0.6508444  3
   1657   1655   1662   1663     1  0.0000000  0.6508444  3
   1657   1660   1661   1666     1  180.0000771  0.0000000  2
   1657   1660   1661   3327     1  0.0000000  0.2928800  2
   1657   1660   1661   3327     1  0.0000000  0.4184000  4
   1658   1656   1655   1662     1  0.0000000  0.6508444  3
   1658   1659   3315   3317     1  180.0000771  6.2760000  1
   1658   1659   3315   3317     1  0.0000000  0.0000000  2
   1659   3315   3317   3318     1  0.0000000  2.2175200  1
   1659   3315   3317   3318     1  0.0000000  0.0000000  2
   1659   3315   3317   3318     1  180.0000771  0.6276000  3
   1659   3315   3317   3318     1  180.0000771  2.0920000  4
   1660   1657   1655   1662     1  0.0000000  0.6508444  3
   1660   1661   3327   3329     1  180.0000771  6.2760000  1
   1660   1661   3327   3329     1  0.0000000  0.0000000  2
   1661   3327   3329   3330     1  0.0000000  2.2175200  1
   1661   3327   3329   3330     1  0.0000000  0.0000000  2
   1661   3327   3329   3330     1  180.0000771  0.6276000  3
   1661   3327   3329   3330     1  180.0000771  2.0920000  4
   1665   1659   3315   3317     1  180.0000771  10.4600000  2
   1666   1661   3327   3329     1  180.0000771  10.4600000  2
   1681   1682   1684   1685     1  0.0000000  0.6508444  3
   1681   1683   1686   1687     1  0.0000000  0.6508444  3
   1681   1688   1689   1690     1  0.0000000  0.6508444  3
   1682   1681   1683   1686     1  0.0000000  0.6508444  3
   1682   1681   1688   1689     1  0.0000000  0.6508444  3
   1682   1684   1685   3339     1  0.0000000  0.2928800  2
   1682   1684   1685   3339     1  0.0000000  0.4184000  4
   1682   1684   1685   1691     1  180.0000771  0.0000000  2
   1683   1681   1682   1684     1  0.0000000  0.6508444  3
   1683   1681   1688   1689     1  0.0000000  0.6508444  3
   1683   1686   1687   1692     1  180.0000771  0.0000000  2
   1683   1686   1687   3351     1  0.0000000  0.2928800  2
   1683   1686   1687   3351     1  0.0000000  0.4184000  4
   1684   1682   1681   1688     1  0.0000000  0.6508444  3
   1684   1685   3339   3341     1  180.0000771  6.2760000  1
   1684   1685   3339   3341     1  0.0000000  0.0000000  2
   1685   3339   3341   3342     1  0.0000000  2.2175200  1
   1685   3339   3341   3342     1  0.0000000  0.0000000  2
   1685   3339   3341   3342     1  180.0000771  0.6276000  3
   1685   3339   3341   3342     1  180.0000771  2.0920000  4
   1686   1683   1681   1688     1  0.0000000  0.6508444  3
   1686   1687   3351   3353     1  180.0000771  6.2760000  1
   1686   1687   3351   3353     1  0.0000000  0.0000000  2
   1687   3351   3353   3354     1  0.0000000  2.2175200  1
   1687   3351   3353   3354     1  0.0000000  0.0000000  2
   1687   3351   3353   3354     1  180.0000771  0.6276000  3
   1687   3351   3353   3354     1  180.0000771  2.0920000  4
   1691   1685   3339   3341     1  180.0000771  10.4600000  2
   1692   1687   3351   3353     1  180.0000771  10.4600000  2
   1707   1708   1710   1711     1  0.0000000  0.6508444  3
   1707   1709   1712   1713     1  0.0000000  0.6508444  3
   1707   1714   1715   1716     1  0.0000000  0.6508444  3
   1708   1707   1709   1712     1  0.0000000  0.6508444  3
   1708   1707   1714   1715     1  0.0000000  0.6508444  3
   1708   1710   1711   3363     1  0.0000000  0.2928800  2
   1708   1710   1711   3363     1  0.0000000  0.4184000  4
   1708   1710   1711   1717     1  180.0000771  0.0000000  2
   1709   1707   1708   1710     1  0.0000000  0.6508444  3
   1709   1707   1714   1715     1  0.0000000  0.6508444  3
   1709   1712   1713   1718     1  180.0000771  0.0000000  2
   1709   1712   1713   3375     1  0.0000000  0.2928800  2
   1709   1712   1713   3375     1  0.0000000  0.4184000  4
   1710   1708   1707   1714     1  0.0000000  0.6508444  3
   1710   1711   3363   3365     1  180.0000771  6.2760000  1
   1710   1711   3363   3365     1  0.0000000  0.0000000  2
   1711   3363   3365   3366     1  0.0000000  2.2175200  1
   1711   3363   3365   3366     1  0.0000000  0.0000000  2
   1711   3363   3365   3366     1  180.0000771  0.6276000  3
   1711   3363   3365   3366     1  180.0000771  2.0920000  4
   1712   1709   1707   1714     1  0.0000000  0.6508444  3
   1712   1713   3375   3377     1  180.0000771  6.2760000  1
   1712   1713   3375   3377     1  0.0000000  0.0000000  2
   1713   3375   3377   3378     1  0.0000000  2.2175200  1
   1713   3375   3377   3378     1  0.0000000  0.0000000  2
   1713   3375   3377   3378     1  180.0000771  0.6276000  3
   1713   3375   3377   3378     1  180.0000771  2.0920000  4
   1717   1711   3363   3365     1  180.0000771  10.4600000  2
   1718   1713   3375   3377     1  180.0000771  10.4600000  2
   1733   1734   1736   1737     1  0.0000000  0.6508444  3
   1733   1735   1738   1739     1  0.0000000  0.6508444  3
   1733   1740   1741   1742     1  0.0000000  0.6508444  3
   1734   1733   1735   1738     1  0.0000000  0.6508444  3
   1734   1733   1740   1741     1  0.0000000  0.6508444  3
   1734   1736   1737   3387     1  0.0000000  0.2928800  2
   1734   1736   1737   3387     1  0.0000000  0.4184000  4
   1734   1736   1737   1743     1  180.0000771  0.0000000  2
   1735   1733   1734   1736     1  0.0000000  0.6508444  3
   1735   1733   1740   1741     1  0.0000000  0.6508444  3
   1735   1738   1739   1744     1  180.0000771  0.0000000  2
   1735   1738   1739   3399     1  0.0000000  0.2928800  2
   1735   1738   1739   3399     1  0.0000000  0.4184000  4
   1736   1734   1733   1740     1  0.0000000  0.6508444  3
   1736   1737   3387   3389     1  180.0000771  6.2760000  1
   1736   1737   3387   3389     1  0.0000000  0.0000000  2
   1737   3387   3389   3390     1  0.0000000  2.2175200  1
   1737   3387   3389   3390     1  0.0000000  0.0000000  2
   1737   3387   3389   3390     1  180.0000771  0.6276000  3
   1737   3387   3389   3390     1  180.0000771  2.0920000  4
   1738   1735   1733   1740     1  0.0000000  0.6508444  3
   1738   1739   3399   3401     1  180.0000771  6.2760000  1
   1738   1739   3399   3401     1  0.0000000  0.0000000  2
   1739   3399   3401   3402     1  0.0000000  2.2175200  1
   1739   3399   3401   3402     1  0.0000000  0.0000000  2
   1739   3399   3401   3402     1  180.0000771  0.6276000  3
   1739   3399   3401   3402     1  180.0000771  2.0920000  4
   1743   1737   3387   3389     1  180.0000771  10.4600000  2
   1744   1739   3399   3401     1  180.0000771  10.4600000  2
   1759   1760   1762   1763     1  0.0000000  0.6508444  3
   1759   1761   1764   1765     1  0.0000000  0.6508444  3
   1759   1766   1767   1768     1  0.0000000  0.6508444  3
   1760   1759   1761   1764     1  0.0000000  0.6508444  3
   1760   1759   1766   1767     1  0.0000000  0.6508444  3
   1760   1762   1763   3411     1  0.0000000  0.2928800  2
   1760   1762   1763   3411     1  0.0000000  0.4184000  4
   1760   1762   1763   1769     1  180.0000771  0.0000000  2
   1761   1759   1760   1762     1  0.0000000  0.6508444  3
   1761   1759   1766   1767     1  0.0000000  0.6508444  3
   1761   1764   1765   1770     1  180.0000771  0.0000000  2
   1761   1764   1765   3423     1  0.0000000  0.2928800  2
   1761   1764   1765   3423     1  0.0000000  0.4184000  4
   1762   1760   1759   1766     1  0.0000000  0.6508444  3
   1762   1763   3411   3413     1  180.0000771  6.2760000  1
   1762   1763   3411   3413     1  0.0000000  0.0000000  2
   1763   3411   3413   3414     1  0.0000000  2.2175200  1
   1763   3411   3413   3414     1  0.0000000  0.0000000  2
   1763   3411   3413   3414     1  180.0000771  0.6276000  3
   1763   3411   3413   3414     1  180.0000771  2.0920000  4
   1764   1761   1759   1766     1  0.0000000  0.6508444  3
   1764   1765   3423   3425     1  180.0000771  6.2760000  1
   1764   1765   3423   3425     1  0.0000000  0.0000000  2
   1765   3423   3425   3426     1  0.0000000  2.2175200  1
   1765   3423   3425   3426     1  0.0000000  0.0000000  2
   1765   3423   3425   3426     1  180.0000771  0.6276000  3
   1765   3423   3425   3426     1  180.0000771  2.0920000  4
   1769   1763   3411   3413     1  180.0000771  10.4600000  2
   1770   1765   3423   3425     1  180.0000771  10.4600000  2
   1785   1786   1788   1789     1  0.0000000  0.6508444  3
   1785   1787   1790   1791     1  0.0000000  0.6508444  3
   1785   1792   1793   1794     1  0.0000000  0.6508444  3
   1786   1785   1787   1790     1  0.0000000  0.6508444  3
   1786   1785   1792   1793     1  0.0000000  0.6508444  3
   1786   1788   1789   3435     1  0.0000000  0.2928800  2
   1786   1788   1789   3435     1  0.0000000  0.4184000  4
   1786   1788   1789   1795     1  180.0000771  0.0000000  2
   1787   1785   1786   1788     1  0.0000000  0.6508444  3
   1787   1785   1792   1793     1  0.0000000  0.6508444  3
   1787   1790   1791   1796     1  180.0000771  0.0000000  2
   1787   1790   1791   3447     1  0.0000000  0.2928800  2
   1787   1790   1791   3447     1  0.0000000  0.4184000  4
   1788   1786   1785   1792     1  0.0000000  0.6508444  3
   1788   1789   3435   3437     1  180.0000771  6.2760000  1
   1788   1789   3435   3437     1  0.0000000  0.0000000  2
   1789   3435   3437   3438     1  0.0000000  2.2175200  1
   1789   3435   3437   3438     1  0.0000000  0.0000000  2
   1789   3435   3437   3438     1  180.0000771  0.6276000  3
   1789   3435   3437   3438     1  180.0000771  2.0920000  4
   1790   1787   1785   1792     1  0.0000000  0.6508444  3
   1790   1791   3447   3449     1  180.0000771  6.2760000  1
   1790   1791   3447   3449     1  0.0000000  0.0000000  2
   1791   3447   3449   3450     1  0.0000000  2.2175200  1
   1791   3447   3449   3450     1  0.0000000  0.0000000  2
   1791   3447   3449   3450     1  180.0000771  0.6276000  3
   1791   3447   3449   3450     1  180.0000771  2.0920000  4
   1795   1789   3435   3437     1  180.0000771  10.4600000  2
   1796   1791   3447   3449     1  180.0000771  10.4600000  2
   1811   1812   1814   1815     1  0.0000000  0.6508444  3
   1811   1813   1816   1817     1  0.0000000  0.6508444  3
   1811   1818   1819   1820     1  0.0000000  0.6508444  3
   1812   1811   1813   1816     1  0.0000000  0.6508444  3
   1812   1811   1818   1819     1  0.0000000  0.6508444  3
   1812   1814   1815   3459     1  0.0000000  0.2928800  2
   1812   1814   1815   3459     1  0.0000000  0.4184000  4
   1812   1814   1815   1821     1  180.0000771  0.0000000  2
   1813   1811   1812   1814     1  0.0000000  0.6508444  3
   1813   1811   1818   1819     1  0.0000000  0.6508444  3
   1813   1816   1817   1822     1  180.0000771  0.0000000  2
   1813   1816   1817   3471     1  0.0000000  0.2928800  2
   1813   1816   1817   3471     1  0.0000000  0.4184000  4
   1814   1812   1811   1818     1  0.0000000  0.6508444  3
   1814   1815   3459   3461     1  180.0000771  6.2760000  1
   1814   1815   3459   3461     1  0.0000000  0.0000000  2
   1815   3459   3461   3462     1  0.0000000  2.2175200  1
   1815   3459   3461   3462     1  0.0000000  0.0000000  2
   1815   3459   3461   3462     1  180.0000771  0.6276000  3
   1815   3459   3461   3462     1  180.0000771  2.0920000  4
   1816   1813   1811   1818     1  0.0000000  0.6508444  3
   1816   1817   3471   3473     1  180.0000771  6.2760000  1
   1816   1817   3471   3473     1  0.0000000  0.0000000  2
   1817   3471   3473   3474     1  0.0000000  2.2175200  1
   1817   3471   3473   3474     1  0.0000000  0.0000000  2
   1817   3471   3473   3474     1  180.0000771  0.6276000  3
   1817   3471   3473   3474     1  180.0000771  2.0920000  4
   1821   1815   3459   3461     1  180.0000771  10.4600000  2
   1822   1817   3471   3473     1  180.0000771  10.4600000  2
   1837   1838   1840   1841     1  0.0000000  0.6508444  3
   1837   1839   1842   1843     1  0.0000000  0.6508444  3
   1837   1844   1845   1846     1  0.0000000  0.6508444  3
   1838   1837   1839   1842     1  0.0000000  0.6508444  3
   1838   1837   1844   1845     1  0.0000000  0.6508444  3
   1838   1840   1841   3483     1  0.0000000  0.2928800  2
   1838   1840   1841   3483     1  0.0000000  0.4184000  4
   1838   1840   1841   1847     1  180.0000771  0.0000000  2
   1839   1837   1838   1840     1  0.0000000  0.6508444  3
   1839   1837   1844   1845     1  0.0000000  0.6508444  3
   1839   1842   1843   1848     1  180.0000771  0.0000000  2
   1839   1842   1843   3495     1  0.0000000  0.2928800  2
   1839   1842   1843   3495     1  0.0000000  0.4184000  4
   1840   1838   1837   1844     1  0.0000000  0.6508444  3
   1840   1841   3483   3485     1  180.0000771  6.2760000  1
   1840   1841   3483   3485     1  0.0000000  0.0000000  2
   1841   3483   3485   3486     1  0.0000000  2.2175200  1
   1841   3483   3485   3486     1  0.0000000  0.0000000  2
   1841   3483   3485   3486     1  180.0000771  0.6276000  3
   1841   3483   3485   3486     1  180.0000771  2.0920000  4
   1842   1839   1837   1844     1  0.0000000  0.6508444  3
   1842   1843   3495   3497     1  180.0000771  6.2760000  1
   1842   1843   3495   3497     1  0.0000000  0.0000000  2
   1843   3495   3497   3498     1  0.0000000  2.2175200  1
   1843   3495   3497   3498     1  0.0000000  0.0000000  2
   1843   3495   3497   3498     1  180.0000771  0.6276000  3
   1843   3495   3497   3498     1  180.0000771  2.0920000  4
   1847   1841   3483   3485     1  180.0000771  10.4600000  2
   1848   1843   3495   3497     1  180.0000771  10.4600000  2
   1863   1864   1866   1867     1  0.0000000  0.6508444  3
   1863   1865   1868   1869     1  0.0000000  0.6508444  3
   1863   1870   1871   1872     1  0.0000000  0.6508444  3
   1864   1863   1865   1868     1  0.0000000  0.6508444  3
   1864   1863   1870   1871     1  0.0000000  0.6508444  3
   1864   1866   1867   3507     1  0.0000000  0.2928800  2
   1864   1866   1867   3507     1  0.0000000  0.4184000  4
   1864   1866   1867   1873     1  180.0000771  0.0000000  2
   1865   1863   1864   1866     1  0.0000000  0.6508444  3
   1865   1863   1870   1871     1  0.0000000  0.6508444  3
   1865   1868   1869   1874     1  180.0000771  0.0000000  2
   1865   1868   1869   3519     1  0.0000000  0.2928800  2
   1865   1868   1869   3519     1  0.0000000  0.4184000  4
   1866   1864   1863   1870     1  0.0000000  0.6508444  3
   1866   1867   3507   3509     1  180.0000771  6.2760000  1
   1866   1867   3507   3509     1  0.0000000  0.0000000  2
   1867   3507   3509   3510     1  0.0000000  2.2175200  1
   1867   3507   3509   3510     1  0.0000000  0.0000000  2
   1867   3507   3509   3510     1  180.0000771  0.6276000  3
   1867   3507   3509   3510     1  180.0000771  2.0920000  4
   1868   1865   1863   1870     1  0.0000000  0.6508444  3
   1868   1869   3519   3521     1  180.0000771  6.2760000  1
   1868   1869   3519   3521     1  0.0000000  0.0000000  2
   1869   3519   3521   3522     1  0.0000000  2.2175200  1
   1869   3519   3521   3522     1  0.0000000  0.0000000  2
   1869   3519   3521   3522     1  180.0000771  0.6276000  3
   1869   3519   3521   3522     1  180.0000771  2.0920000  4
   1873   1867   3507   3509     1  180.0000771  10.4600000  2
   1874   1869   3519   3521     1  180.0000771  10.4600000  2
   1889   1890   1892   1893     1  0.0000000  0.6508444  3
   1889   1891   1894   1895     1  0.0000000  0.6508444  3
   1889   1896   1897   1898     1  0.0000000  0.6508444  3
   1890   1889   1891   1894     1  0.0000000  0.6508444  3
   1890   1889   1896   1897     1  0.0000000  0.6508444  3
   1890   1892   1893   3531     1  0.0000000  0.2928800  2
   1890   1892   1893   3531     1  0.0000000  0.4184000  4
   1890   1892   1893   1899     1  180.0000771  0.0000000  2
   1891   1889   1890   1892     1  0.0000000  0.6508444  3
   1891   1889   1896   1897     1  0.0000000  0.6508444  3
   1891   1894   1895   1900     1  180.0000771  0.0000000  2
   1891   1894   1895   3543     1  0.0000000  0.2928800  2
   1891   1894   1895   3543     1  0.0000000  0.4184000  4
   1892   1890   1889   1896     1  0.0000000  0.6508444  3
   1892   1893   3531   3533     1  180.0000771  6.2760000  1
   1892   1893   3531   3533     1  0.0000000  0.0000000  2
   1893   3531   3533   3534     1  0.0000000  2.2175200  1
   1893   3531   3533   3534     1  0.0000000  0.0000000  2
   1893   3531   3533   3534     1  180.0000771  0.6276000  3
   1893   3531   3533   3534     1  180.0000771  2.0920000  4
   1894   1891   1889   1896     1  0.0000000  0.6508444  3
   1894   1895   3543   3545     1  180.0000771  6.2760000  1
   1894   1895   3543   3545     1  0.0000000  0.0000000  2
   1895   3543   3545   3546     1  0.0000000  2.2175200  1
   1895   3543   3545   3546     1  0.0000000  0.0000000  2
   1895   3543   3545   3546     1  180.0000771  0.6276000  3
   1895   3543   3545   3546     1  180.0000771  2.0920000  4
   1899   1893   3531   3533     1  180.0000771  10.4600000  2
   1900   1895   3543   3545     1  180.0000771  10.4600000  2
   1915   1916   1918   1919     1  0.0000000  0.6508444  3
   1915   1917   1920   1921     1  0.0000000  0.6508444  3
   1915   1922   1923   1924     1  0.0000000  0.6508444  3
   1916   1915   1917   1920     1  0.0000000  0.6508444  3
   1916   1915   1922   1923     1  0.0000000  0.6508444  3
   1916   1918   1919   3555     1  0.0000000  0.2928800  2
   1916   1918   1919   3555     1  0.0000000  0.4184000  4
   1916   1918   1919   1925     1  180.0000771  0.0000000  2
   1917   1915   1916   1918     1  0.0000000  0.6508444  3
   1917   1915   1922   1923     1  0.0000000  0.6508444  3
   1917   1920   1921   1926     1  180.0000771  0.0000000  2
   1917   1920   1921   3567     1  0.0000000  0.2928800  2
   1917   1920   1921   3567     1  0.0000000  0.4184000  4
   1918   1916   1915   1922     1  0.0000000  0.6508444  3
   1918   1919   3555   3557     1  180.0000771  6.2760000  1
   1918   1919   3555   3557     1  0.0000000  0.0000000  2
   1919   3555   3557   3558     1  0.0000000  2.2175200  1
   1919   3555   3557   3558     1  0.0000000  0.0000000  2
   1919   3555   3557   3558     1  180.0000771  0.6276000  3
   1919   3555   3557   3558     1  180.0000771  2.0920000  4
   1920   1917   1915   1922     1  0.0000000  0.6508444  3
   1920   1921   3567   3569     1  180.0000771  6.2760000  1
   1920   1921   3567   3569     1  0.0000000  0.0000000  2
   1921   3567   3569   3570     1  0.0000000  2.2175200  1
   1921   3567   3569   3570     1  0.0000000  0.0000000  2
   1921   3567   3569   3570     1  180.0000771  0.6276000  3
   1921   3567   3569   3570     1  180.0000771  2.0920000  4
   1925   1919   3555   3557     1  180.0000771  10.4600000  2
   1926   1921   3567   3569     1  180.0000771  10.4600000  2
   1941   1942   1944   1945     1  0.0000000  0.6508444  3
   1941   1943   1946   1947     1  0.0000000  0.6508444  3
   1941   1948   1949   1950     1  0.0000000  0.6508444  3
   1942   1941   1943   1946     1  0.0000000  0.6508444  3
   1942   1941   1948   1949     1  0.0000000  0.6508444  3
   1942   1944   1945   3579     1  0.0000000  0.2928800  2
   1942   1944   1945   3579     1  0.0000000  0.4184000  4
   1942   1944   1945   1951     1  180.0000771  0.0000000  2
   1943   1941   1942   1944     1  0.0000000  0.6508444  3
   1943   1941   1948   1949     1  0.0000000  0.6508444  3
   1943   1946   1947   1952     1  180.0000771  0.0000000  2
   1943   1946   1947   3591     1  0.0000000  0.2928800  2
   1943   1946   1947   3591     1  0.0000000  0.4184000  4
   1944   1942   1941   1948     1  0.0000000  0.6508444  3
   1944   1945   3579   3581     1  180.0000771  6.2760000  1
   1944   1945   3579   3581     1  0.0000000  0.0000000  2
   1945   3579   3581   3582     1  0.0000000  2.2175200  1
   1945   3579   3581   3582     1  0.0000000  0.0000000  2
   1945   3579   3581   3582     1  180.0000771  0.6276000  3
   1945   3579   3581   3582     1  180.0000771  2.0920000  4
   1946   1943   1941   1948     1  0.0000000  0.6508444  3
   1946   1947   3591   3593     1  180.0000771  6.2760000  1
   1946   1947   3591   3593     1  0.0000000  0.0000000  2
   1947   3591   3593   3594     1  0.0000000  2.2175200  1
   1947   3591   3593   3594     1  0.0000000  0.0000000  2
   1947   3591   3593   3594     1  180.0000771  0.6276000  3
   1947   3591   3593   3594     1  180.0000771  2.0920000  4
   1951   1945   3579   3581     1  180.0000771  10.4600000  2
   1952   1947   3591   3593     1  180.0000771  10.4600000  2
   1967   1968   1970   1971     1  0.0000000  0.6508444  3
   1967   1969   1972   1973     1  0.0000000  0.6508444  3
   1967   1974   1975   1976     1  0.0000000  0.6508444  3
   1968   1967   1969   1972     1  0.0000000  0.6508444  3
   1968   1967   1974   1975     1  0.0000000  0.6508444  3
   1968   1970   1971   3603     1  0.0000000  0.2928800  2
   1968   1970   1971   3603     1  0.0000000  0.4184000  4
   1968   1970   1971   1977     1  180.0000771  0.0000000  2
   1969   1967   1968   1970     1  0.0000000  0.6508444  3
   1969   1967   1974   1975     1  0.0000000  0.6508444  3
   1969   1972   1973   1978     1  180.0000771  0.0000000  2
   1969   1972   1973   3615     1  0.0000000  0.2928800  2
   1969   1972   1973   3615     1  0.0000000  0.4184000  4
   1970   1968   1967   1974     1  0.0000000  0.6508444  3
   1970   1971   3603   3605     1  180.0000771  6.2760000  1
   1970   1971   3603   3605     1  0.0000000  0.0000000  2
   1971   3603   3605   3606     1  0.0000000  2.2175200  1
   1971   3603   3605   3606     1  0.0000000  0.0000000  2
   1971   3603   3605   3606     1  180.0000771  0.6276000  3
   1971   3603   3605   3606     1  180.0000771  2.0920000  4
   1972   1969   1967   1974     1  0.0000000  0.6508444  3
   1972   1973   3615   3617     1  180.0000771  6.2760000  1
   1972   1973   3615   3617     1  0.0000000  0.0000000  2
   1973   3615   3617   3618     1  0.0000000  2.2175200  1
   1973   3615   3617   3618     1  0.0000000  0.0000000  2
   1973   3615   3617   3618     1  180.0000771  0.6276000  3
   1973   3615   3617   3618     1  180.0000771  2.0920000  4
   1977   1971   3603   3605     1  180.0000771  10.4600000  2
   1978   1973   3615   3617     1  180.0000771  10.4600000  2
   1993   1994   1996   1997     1  0.0000000  0.6508444  3
   1993   1995   1998   1999     1  0.0000000  0.6508444  3
   1993   2000   2001   2002     1  0.0000000  0.6508444  3
   1994   1993   1995   1998     1  0.0000000  0.6508444  3
   1994   1993   2000   2001     1  0.0000000  0.6508444  3
   1994   1996   1997   3627     1  0.0000000  0.2928800  2
   1994   1996   1997   3627     1  0.0000000  0.4184000  4
   1994   1996   1997   2003     1  180.0000771  0.0000000  2
   1995   1993   1994   1996     1  0.0000000  0.6508444  3
   1995   1993   2000   2001     1  0.0000000  0.6508444  3
   1995   1998   1999   2004     1  180.0000771  0.0000000  2
   1995   1998   1999   3639     1  0.0000000  0.2928800  2
   1995   1998   1999   3639     1  0.0000000  0.4184000  4
   1996   1994   1993   2000     1  0.0000000  0.6508444  3
   1996   1997   3627   3629     1  180.0000771  6.2760000  1
   1996   1997   3627   3629     1  0.0000000  0.0000000  2
   1997   3627   3629   3630     1  0.0000000  2.2175200  1
   1997   3627   3629   3630     1  0.0000000  0.0000000  2
   1997   3627   3629   3630     1  180.0000771  0.6276000  3
   1997   3627   3629   3630     1  180.0000771  2.0920000  4
   1998   1995   1993   2000     1  0.0000000  0.6508444  3
   1998   1999   3639   3641     1  180.0000771  6.2760000  1
   1998   1999   3639   3641     1  0.0000000  0.0000000  2
   1999   3639   3641   3642     1  0.0000000  2.2175200  1
   1999   3639   3641   3642     1  0.0000000  0.0000000  2
   1999   3639   3641   3642     1  180.0000771  0.6276000  3
   1999   3639   3641   3642     1  180.0000771  2.0920000  4
   2003   1997   3627   3629     1  180.0000771  10.4600000  2
   2004   1999   3639   3641     1  180.0000771  10.4600000  2
   2019   2020   2022   2023     1  0.0000000  0.6508444  3
   2019   2021   2024   2025     1  0.0000000  0.6508444  3
   2019   2026   2027   2028     1  0.0000000  0.6508444  3
   2020   2019   2021   2024     1  0.0000000  0.6508444  3
   2020   2019   2026   2027     1  0.0000000  0.6508444  3
   2020   2022   2023   3651     1  0.0000000  0.2928800  2
   2020   2022   2023   3651     1  0.0000000  0.4184000  4
   2020   2022   2023   2029     1  180.0000771  0.0000000  2
   2021   2019   2020   2022     1  0.0000000  0.6508444  3
   2021   2019   2026   2027     1  0.0000000  0.6508444  3
   2021   2024   2025   2030     1  180.0000771  0.0000000  2
   2021   2024   2025   3663     1  0.0000000  0.2928800  2
   2021   2024   2025   3663     1  0.0000000  0.4184000  4
   2022   2020   2019   2026     1  0.0000000  0.6508444  3
   2022   2023   3651   3653     1  180.0000771  6.2760000  1
   2022   2023   3651   3653     1  0.0000000  0.0000000  2
   2023   3651   3653   3654     1  0.0000000  2.2175200  1
   2023   3651   3653   3654     1  0.0000000  0.0000000  2
   2023   3651   3653   3654     1  180.0000771  0.6276000  3
   2023   3651   3653   3654     1  180.0000771  2.0920000  4
   2024   2021   2019   2026     1  0.0000000  0.6508444  3
   2024   2025   3663   3665     1  180.0000771  6.2760000  1
   2024   2025   3663   3665     1  0.0000000  0.0000000  2
   2025   3663   3665   3666     1  0.0000000  2.2175200  1
   2025   3663   3665   3666     1  0.0000000  0.0000000  2
   2025   3663   3665   3666     1  180.0000771  0.6276000  3
   2025   3663   3665   3666     1  180.0000771  2.0920000  4
   2029   2023   3651   3653     1  180.0000771  10.4600000  2
   2030   2025   3663   3665     1  180.0000771  10.4600000  2
   2045   2046   2048   2049     1  0.0000000  0.6508444  3
   2045   2047   2050   2051     1  0.0000000  0.6508444  3
   2045   2052   2053   2054     1  0.0000000  0.6508444  3
   2046   2045   2047   2050     1  0.0000000  0.6508444  3
   2046   2045   2052   2053     1  0.0000000  0.6508444  3
   2046   2048   2049   3675     1  0.0000000  0.2928800  2
   2046   2048   2049   3675     1  0.0000000  0.4184000  4
   2046   2048   2049   2055     1  180.0000771  0.0000000  2
   2047   2045   2046   2048     1  0.0000000  0.6508444  3
   2047   2045   2052   2053     1  0.0000000  0.6508444  3
   2047   2050   2051   2056     1  180.0000771  0.0000000  2
   2047   2050   2051   3687     1  0.0000000  0.2928800  2
   2047   2050   2051   3687     1  0.0000000  0.4184000  4
   2048   2046   2045   2052     1  0.0000000  0.6508444  3
   2048   2049   3675   3677     1  180.0000771  6.2760000  1
   2048   2049   3675   3677     1  0.0000000  0.0000000  2
   2049   3675   3677   3678     1  0.0000000  2.2175200  1
   2049   3675   3677   3678     1  0.0000000  0.0000000  2
   2049   3675   3677   3678     1  180.0000771  0.6276000  3
   2049   3675   3677   3678     1  180.0000771  2.0920000  4
   2050   2047   2045   2052     1  0.0000000  0.6508444  3
   2050   2051   3687   3689     1  180.0000771  6.2760000  1
   2050   2051   3687   3689     1  0.0000000  0.0000000  2
   2051   3687   3689   3690     1  0.0000000  2.2175200  1
   2051   3687   3689   3690     1  0.0000000  0.0000000  2
   2051   3687   3689   3690     1  180.0000771  0.6276000  3
   2051   3687   3689   3690     1  180.0000771  2.0920000  4
   2055   2049   3675   3677     1  180.0000771  10.4600000  2
   2056   2051   3687   3689     1  180.0000771  10.4600000  2
   2071   2072   2074   2075     1  0.0000000  0.6508444  3
   2071   2073   2076   2077     1  0.0000000  0.6508444  3
   2071   2078   2079   2080     1  0.0000000  0.6508444  3
   2072   2071   2073   2076     1  0.0000000  0.6508444  3
   2072   2071   2078   2079     1  0.0000000  0.6508444  3
   2072   2074   2075   3699     1  0.0000000  0.2928800  2
   2072   2074   2075   3699     1  0.0000000  0.4184000  4
   2072   2074   2075   2081     1  180.0000771  0.0000000  2
   2073   2071   2072   2074     1  0.0000000  0.6508444  3
   2073   2071   2078   2079     1  0.0000000  0.6508444  3
   2073   2076   2077   2082     1  180.0000771  0.0000000  2
   2073   2076   2077   3711     1  0.0000000  0.2928800  2
   2073   2076   2077   3711     1  0.0000000  0.4184000  4
   2074   2072   2071   2078     1  0.0000000  0.6508444  3
   2074   2075   3699   3701     1  180.0000771  6.2760000  1
   2074   2075   3699   3701     1  0.0000000  0.0000000  2
   2075   3699   3701   3702     1  0.0000000  2.2175200  1
   2075   3699   3701   3702     1  0.0000000  0.0000000  2
   2075   3699   3701   3702     1  180.0000771  0.6276000  3
   2075   3699   3701   3702     1  180.0000771  2.0920000  4
   2076   2073   2071   2078     1  0.0000000  0.6508444  3
   2076   2077   3711   3713     1  180.0000771  6.2760000  1
   2076   2077   3711   3713     1  0.0000000  0.0000000  2
   2077   3711   3713   3714     1  0.0000000  2.2175200  1
   2077   3711   3713   3714     1  0.0000000  0.0000000  2
   2077   3711   3713   3714     1  180.0000771  0.6276000  3
   2077   3711   3713   3714     1  180.0000771  2.0920000  4
   2081   2075   3699   3701     1  180.0000771  10.4600000  2
   2082   2077   3711   3713     1  180.0000771  10.4600000  2
   2097   2098   2100   2101     1  0.0000000  0.6508444  3
   2097   2099   2102   2103     1  0.0000000  0.6508444  3
   2097   2104   2105   2106     1  0.0000000  0.6508444  3
   2098   2097   2099   2102     1  0.0000000  0.6508444  3
   2098   2097   2104   2105     1  0.0000000  0.6508444  3
   2098   2100   2101   3723     1  0.0000000  0.2928800  2
   2098   2100   2101   3723     1  0.0000000  0.4184000  4
   2098   2100   2101   2107     1  180.0000771  0.0000000  2
   2099   2097   2098   2100     1  0.0000000  0.6508444  3
   2099   2097   2104   2105     1  0.0000000  0.6508444  3
   2099   2102   2103   2108     1  180.0000771  0.0000000  2
   2099   2102   2103   3735     1  0.0000000  0.2928800  2
   2099   2102   2103   3735     1  0.0000000  0.4184000  4
   2100   2098   2097   2104     1  0.0000000  0.6508444  3
   2100   2101   3723   3725     1  180.0000771  6.2760000  1
   2100   2101   3723   3725     1  0.0000000  0.0000000  2
   2101   3723   3725   3726     1  0.0000000  2.2175200  1
   2101   3723   3725   3726     1  0.0000000  0.0000000  2
   2101   3723   3725   3726     1  180.0000771  0.6276000  3
   2101   3723   3725   3726     1  180.0000771  2.0920000  4
   2102   2099   2097   2104     1  0.0000000  0.6508444  3
   2102   2103   3735   3737     1  180.0000771  6.2760000  1
   2102   2103   3735   3737     1  0.0000000  0.0000000  2
   2103   3735   3737   3738     1  0.0000000  2.2175200  1
   2103   3735   3737   3738     1  0.0000000  0.0000000  2
   2103   3735   3737   3738     1  180.0000771  0.6276000  3
   2103   3735   3737   3738     1  180.0000771  2.0920000  4
   2107   2101   3723   3725     1  180.0000771  10.4600000  2
   2108   2103   3735   3737     1  180.0000771  10.4600000  2
   2123   2124   2126   2127     1  0.0000000  0.6508444  3
   2123   2125   2128   2129     1  0.0000000  0.6508444  3
   2123   2130   2131   2132     1  0.0000000  0.6508444  3
   2124   2123   2125   2128     1  0.0000000  0.6508444  3
   2124   2123   2130   2131     1  0.0000000  0.6508444  3
   2124   2126   2127   3747     1  0.0000000  0.2928800  2
   2124   2126   2127   3747     1  0.0000000  0.4184000  4
   2124   2126   2127   2133     1  180.0000771  0.0000000  2
   2125   2123   2124   2126     1  0.0000000  0.6508444  3
   2125   2123   2130   2131     1  0.0000000  0.6508444  3
   2125   2128   2129   2134     1  180.0000771  0.0000000  2
   2125   2128   2129   3759     1  0.0000000  0.2928800  2
   2125   2128   2129   3759     1  0.0000000  0.4184000  4
   2126   2124   2123   2130     1  0.0000000  0.6508444  3
   2126   2127   3747   3749     1  180.0000771  6.2760000  1
   2126   2127   3747   3749     1  0.0000000  0.0000000  2
   2127   3747   3749   3750     1  0.0000000  2.2175200  1
   2127   3747   3749   3750     1  0.0000000  0.0000000  2
   2127   3747   3749   3750     1  180.0000771  0.6276000  3
   2127   3747   3749   3750     1  180.0000771  2.0920000  4
   2128   2125   2123   2130     1  0.0000000  0.6508444  3
   2128   2129   3759   3761     1  180.0000771  6.2760000  1
   2128   2129   3759   3761     1  0.0000000  0.0000000  2
   2129   3759   3761   3762     1  0.0000000  2.2175200  1
   2129   3759   3761   3762     1  0.0000000  0.0000000  2
   2129   3759   3761   3762     1  180.0000771  0.6276000  3
   2129   3759   3761   3762     1  180.0000771  2.0920000  4
   2133   2127   3747   3749     1  180.0000771  10.4600000  2
   2134   2129   3759   3761     1  180.0000771  10.4600000  2
   2149   2150   2152   2153     1  0.0000000  0.6508444  3
   2149   2151   2154   2155     1  0.0000000  0.6508444  3
   2149   2156   2157   2158     1  0.0000000  0.6508444  3
   2150   2149   2151   2154     1  0.0000000  0.6508444  3
   2150   2149   2156   2157     1  0.0000000  0.6508444  3
   2150   2152   2153   3771     1  0.0000000  0.2928800  2
   2150   2152   2153   3771     1  0.0000000  0.4184000  4
   2150   2152   2153   2159     1  180.0000771  0.0000000  2
   2151   2149   2150   2152     1  0.0000000  0.6508444  3
   2151   2149   2156   2157     1  0.0000000  0.6508444  3
   2151   2154   2155   2160     1  180.0000771  0.0000000  2
   2151   2154   2155   3783     1  0.0000000  0.2928800  2
   2151   2154   2155   3783     1  0.0000000  0.4184000  4
   2152   2150   2149   2156     1  0.0000000  0.6508444  3
   2152   2153   3771   3773     1  180.0000771  6.2760000  1
   2152   2153   3771   3773     1  0.0000000  0.0000000  2
   2153   3771   3773   3774     1  0.0000000  2.2175200  1
   2153   3771   3773   3774     1  0.0000000  0.0000000  2
   2153   3771   3773   3774     1  180.0000771  0.6276000  3
   2153   3771   3773   3774     1  180.0000771  2.0920000  4
   2154   2151   2149   2156     1  0.0000000  0.6508444  3
   2154   2155   3783   3785     1  180.0000771  6.2760000  1
   2154   2155   3783   3785     1  0.0000000  0.0000000  2
   2155   3783   3785   3786     1  0.0000000  2.2175200  1
   2155   3783   3785   3786     1  0.0000000  0.0000000  2
   2155   3783   3785   3786     1  180.0000771  0.6276000  3
   2155   3783   3785   3786     1  180.0000771  2.0920000  4
   2159   2153   3771   3773     1  180.0000771  10.4600000  2
   2160   2155   3783   3785     1  180.0000771  10.4600000  2
   2175   2176   2178   2179     1  0.0000000  0.6508444  3
   2175   2177   2180   2181     1  0.0000000  0.6508444  3
   2175   2182   2183   2184     1  0.0000000  0.6508444  3
   2176   2175   2177   2180     1  0.0000000  0.6508444  3
   2176   2175   2182   2183     1  0.0000000  0.6508444  3
   2176   2178   2179   3795     1  0.0000000  0.2928800  2
   2176   2178   2179   3795     1  0.0000000  0.4184000  4
   2176   2178   2179   2185     1  180.0000771  0.0000000  2
   2177   2175   2176   2178     1  0.0000000  0.6508444  3
   2177   2175   2182   2183     1  0.0000000  0.6508444  3
   2177   2180   2181   2186     1  180.0000771  0.0000000  2
   2177   2180   2181   3807     1  0.0000000  0.2928800  2
   2177   2180   2181   3807     1  0.0000000  0.4184000  4
   2178   2176   2175   2182     1  0.0000000  0.6508444  3
   2178   2179   3795   3797     1  180.0000771  6.2760000  1
   2178   2179   3795   3797     1  0.0000000  0.0000000  2
   2179   3795   3797   3798     1  0.0000000  2.2175200  1
   2179   3795   3797   3798     1  0.0000000  0.0000000  2
   2179   3795   3797   3798     1  180.0000771  0.6276000  3
   2179   3795   3797   3798     1  180.0000771  2.0920000  4
   2180   2177   2175   2182     1  0.0000000  0.6508444  3
   2180   2181   3807   3809     1  180.0000771  6.2760000  1
   2180   2181   3807   3809     1  0.0000000  0.0000000  2
   2181   3807   3809   3810     1  0.0000000  2.2175200  1
   2181   3807   3809   3810     1  0.0000000  0.0000000  2
   2181   3807   3809   3810     1  180.0000771  0.6276000  3
   2181   3807   3809   3810     1  180.0000771  2.0920000  4
   2185   2179   3795   3797     1  180.0000771  10.4600000  2
   2186   2181   3807   3809     1  180.0000771  10.4600000  2
   2201   2202   2204   2205     1  0.0000000  0.6508444  3
   2201   2203   2206   2207     1  0.0000000  0.6508444  3
   2201   2208   2209   2210     1  0.0000000  0.6508444  3
   2202   2201   2203   2206     1  0.0000000  0.6508444  3
   2202   2201   2208   2209     1  0.0000000  0.6508444  3
   2202   2204   2205   3819     1  0.0000000  0.2928800  2
   2202   2204   2205   3819     1  0.0000000  0.4184000  4
   2202   2204   2205   2211     1  180.0000771  0.0000000  2
   2203   2201   2202   2204     1  0.0000000  0.6508444  3
   2203   2201   2208   2209     1  0.0000000  0.6508444  3
   2203   2206   2207   2212     1  180.0000771  0.0000000  2
   2203   2206   2207   3831     1  0.0000000  0.2928800  2
   2203   2206   2207   3831     1  0.0000000  0.4184000  4
   2204   2202   2201   2208     1  0.0000000  0.6508444  3
   2204   2205   3819   3821     1  180.0000771  6.2760000  1
   2204   2205   3819   3821     1  0.0000000  0.0000000  2
   2205   3819   3821   3822     1  0.0000000  2.2175200  1
   2205   3819   3821   3822     1  0.0000000  0.0000000  2
   2205   3819   3821   3822     1  180.0000771  0.6276000  3
   2205   3819   3821   3822     1  180.0000771  2.0920000  4
   2206   2203   2201   2208     1  0.0000000  0.6508444  3
   2206   2207   3831   3833     1  180.0000771  6.2760000  1
   2206   2207   3831   3833     1  0.0000000  0.0000000  2
   2207   3831   3833   3834     1  0.0000000  2.2175200  1
   2207   3831   3833   3834     1  0.0000000  0.0000000  2
   2207   3831   3833   3834     1  180.0000771  0.6276000  3
   2207   3831   3833   3834     1  180.0000771  2.0920000  4
   2211   2205   3819   3821     1  180.0000771  10.4600000  2
   2212   2207   3831   3833     1  180.0000771  10.4600000  2
   2227   2228   2230   2231     1  0.0000000  0.6508444  3
   2227   2229   2232   2233     1  0.0000000  0.6508444  3
   2227   2234   2235   2236     1  0.0000000  0.6508444  3
   2228   2227   2229   2232     1  0.0000000  0.6508444  3
   2228   2227   2234   2235     1  0.0000000  0.6508444  3
   2228   2230   2231   3843     1  0.0000000  0.2928800  2
   2228   2230   2231   3843     1  0.0000000  0.4184000  4
   2228   2230   2231   2237     1  180.0000771  0.0000000  2
   2229   2227   2228   2230     1  0.0000000  0.6508444  3
   2229   2227   2234   2235     1  0.0000000  0.6508444  3
   2229   2232   2233   2238     1  180.0000771  0.0000000  2
   2229   2232   2233   3855     1  0.0000000  0.2928800  2
   2229   2232   2233   3855     1  0.0000000  0.4184000  4
   2230   2228   2227   2234     1  0.0000000  0.6508444  3
   2230   2231   3843   3845     1  180.0000771  6.2760000  1
   2230   2231   3843   3845     1  0.0000000  0.0000000  2
   2231   3843   3845   3846     1  0.0000000  2.2175200  1
   2231   3843   3845   3846     1  0.0000000  0.0000000  2
   2231   3843   3845   3846     1  180.0000771  0.6276000  3
   2231   3843   3845   3846     1  180.0000771  2.0920000  4
   2232   2229   2227   2234     1  0.0000000  0.6508444  3
   2232   2233   3855   3857     1  180.0000771  6.2760000  1
   2232   2233   3855   3857     1  0.0000000  0.0000000  2
   2233   3855   3857   3858     1  0.0000000  2.2175200  1
   2233   3855   3857   3858     1  0.0000000  0.0000000  2
   2233   3855   3857   3858     1  180.0000771  0.6276000  3
   2233   3855   3857   3858     1  180.0000771  2.0920000  4
   2237   2231   3843   3845     1  180.0000771  10.4600000  2
   2238   2233   3855   3857     1  180.0000771  10.4600000  2
   2253   2254   2256   2257     1  0.0000000  0.6508444  3
   2253   2255   2258   2259     1  0.0000000  0.6508444  3
   2253   2260   2261   2262     1  0.0000000  0.6508444  3
   2254   2253   2255   2258     1  0.0000000  0.6508444  3
   2254   2253   2260   2261     1  0.0000000  0.6508444  3
   2254   2256   2257   3867     1  0.0000000  0.2928800  2
   2254   2256   2257   3867     1  0.0000000  0.4184000  4
   2254   2256   2257   2263     1  180.0000771  0.0000000  2
   2255   2253   2254   2256     1  0.0000000  0.6508444  3
   2255   2253   2260   2261     1  0.0000000  0.6508444  3
   2255   2258   2259   2264     1  180.0000771  0.0000000  2
   2255   2258   2259   3879     1  0.0000000  0.2928800  2
   2255   2258   2259   3879     1  0.0000000  0.4184000  4
   2256   2254   2253   2260     1  0.0000000  0.6508444  3
   2256   2257   3867   3869     1  180.0000771  6.2760000  1
   2256   2257   3867   3869     1  0.0000000  0.0000000  2
   2257   3867   3869   3870     1  0.0000000  2.2175200  1
   2257   3867   3869   3870     1  0.0000000  0.0000000  2
   2257   3867   3869   3870     1  180.0000771  0.6276000  3
   2257   3867   3869   3870     1  180.0000771  2.0920000  4
   2258   2255   2253   2260     1  0.0000000  0.6508444  3
   2258   2259   3879   3881     1  180.0000771  6.2760000  1
   2258   2259   3879   3881     1  0.0000000  0.0000000  2
   2259   3879   3881   3882     1  0.0000000  2.2175200  1
   2259   3879   3881   3882     1  0.0000000  0.0000000  2
   2259   3879   3881   3882     1  180.0000771  0.6276000  3
   2259   3879   3881   3882     1  180.0000771  2.0920000  4
   2263   2257   3867   3869     1  180.0000771  10.4600000  2
   2264   2259   3879   3881     1  180.0000771  10.4600000  2
   2279   2280   2282   2283     1  0.0000000  0.6508444  3
   2279   2281   2284   2285     1  0.0000000  0.6508444  3
   2279   2286   2287   2288     1  0.0000000  0.6508444  3
   2280   2279   2281   2284     1  0.0000000  0.6508444  3
   2280   2279   2286   2287     1  0.0000000  0.6508444  3
   2280   2282   2283   3891     1  0.0000000  0.2928800  2
   2280   2282   2283   3891     1  0.0000000  0.4184000  4
   2280   2282   2283   2289     1  180.0000771  0.0000000  2
   2281   2279   2280   2282     1  0.0000000  0.6508444  3
   2281   2279   2286   2287     1  0.0000000  0.6508444  3
   2281   2284   2285   2290     1  180.0000771  0.0000000  2
   2281   2284   2285   3903     1  0.0000000  0.2928800  2
   2281   2284   2285   3903     1  0.0000000  0.4184000  4
   2282   2280   2279   2286     1  0.0000000  0.6508444  3
   2282   2283   3891   3893     1  180.0000771  6.2760000  1
   2282   2283   3891   3893     1  0.0000000  0.0000000  2
   2283   3891   3893   3894     1  0.0000000  2.2175200  1
   2283   3891   3893   3894     1  0.0000000  0.0000000  2
   2283   3891   3893   3894     1  180.0000771  0.6276000  3
   2283   3891   3893   3894     1  180.0000771  2.0920000  4
   2284   2281   2279   2286     1  0.0000000  0.6508444  3
   2284   2285   3903   3905     1  180.0000771  6.2760000  1
   2284   2285   3903   3905     1  0.0000000  0.0000000  2
   2285   3903   3905   3906     1  0.0000000  2.2175200  1
   2285   3903   3905   3906     1  0.0000000  0.0000000  2
   2285   3903   3905   3906     1  180.0000771  0.6276000  3
   2285   3903   3905   3906     1  180.0000771  2.0920000  4
   2289   2283   3891   3893     1  180.0000771  10.4600000  2
   2290   2285   3903   3905     1  180.0000771  10.4600000  2
   2305   2306   2308   2309     1  0.0000000  0.6508444  3
   2305   2307   2310   2311     1  0.0000000  0.6508444  3
   2305   2312   2313   2314     1  0.0000000  0.6508444  3
   2306   2305   2307   2310     1  0.0000000  0.6508444  3
   2306   2305   2312   2313     1  0.0000000  0.6508444  3
   2306   2308   2309   3915     1  0.0000000  0.2928800  2
   2306   2308   2309   3915     1  0.0000000  0.4184000  4
   2306   2308   2309   2315     1  180.0000771  0.0000000  2
   2307   2305   2306   2308     1  0.0000000  0.6508444  3
   2307   2305   2312   2313     1  0.0000000  0.6508444  3
   2307   2310   2311   2316     1  180.0000771  0.0000000  2
   2307   2310   2311   3927     1  0.0000000  0.2928800  2
   2307   2310   2311   3927     1  0.0000000  0.4184000  4
   2308   2306   2305   2312     1  0.0000000  0.6508444  3
   2308   2309   3915   3917     1  180.0000771  6.2760000  1
   2308   2309   3915   3917     1  0.0000000  0.0000000  2
   2309   3915   3917   3918     1  0.0000000  2.2175200  1
   2309   3915   3917   3918     1  0.0000000  0.0000000  2
   2309   3915   3917   3918     1  180.0000771  0.6276000  3
   2309   3915   3917   3918     1  180.0000771  2.0920000  4
   2310   2307   2305   2312     1  0.0000000  0.6508444  3
   2310   2311   3927   3929     1  180.0000771  6.2760000  1
   2310   2311   3927   3929     1  0.0000000  0.0000000  2
   2311   3927   3929   3930     1  0.0000000  2.2175200  1
   2311   3927   3929   3930     1  0.0000000  0.0000000  2
   2311   3927   3929   3930     1  180.0000771  0.6276000  3
   2311   3927   3929   3930     1  180.0000771  2.0920000  4
   2315   2309   3915   3917     1  180.0000771  10.4600000  2
   2316   2311   3927   3929     1  180.0000771  10.4600000  2
   2331   2332   2334   2335     1  0.0000000  0.6508444  3
   2331   2333   2336   2337     1  0.0000000  0.6508444  3
   2331   2338   2339   2340     1  0.0000000  0.6508444  3
   2332   2331   2333   2336     1  0.0000000  0.6508444  3
   2332   2331   2338   2339     1  0.0000000  0.6508444  3
   2332   2334   2335   3939     1  0.0000000  0.2928800  2
   2332   2334   2335   3939     1  0.0000000  0.4184000  4
   2332   2334   2335   2341     1  180.0000771  0.0000000  2
   2333   2331   2332   2334     1  0.0000000  0.6508444  3
   2333   2331   2338   2339     1  0.0000000  0.6508444  3
   2333   2336   2337   2342     1  180.0000771  0.0000000  2
   2333   2336   2337   3951     1  0.0000000  0.2928800  2
   2333   2336   2337   3951     1  0.0000000  0.4184000  4
   2334   2332   2331   2338     1  0.0000000  0.6508444  3
   2334   2335   3939   3941     1  180.0000771  6.2760000  1
   2334   2335   3939   3941     1  0.0000000  0.0000000  2
   2335   3939   3941   3942     1  0.0000000  2.2175200  1
   2335   3939   3941   3942     1  0.0000000  0.0000000  2
   2335   3939   3941   3942     1  180.0000771  0.6276000  3
   2335   3939   3941   3942     1  180.0000771  2.0920000  4
   2336   2333   2331   2338     1  0.0000000  0.6508444  3
   2336   2337   3951   3953     1  180.0000771  6.2760000  1
   2336   2337   3951   3953     1  0.0000000  0.0000000  2
   2337   3951   3953   3954     1  0.0000000  2.2175200  1
   2337   3951   3953   3954     1  0.0000000  0.0000000  2
   2337   3951   3953   3954     1  180.0000771  0.6276000  3
   2337   3951   3953   3954     1  180.0000771  2.0920000  4
   2341   2335   3939   3941     1  180.0000771  10.4600000  2
   2342   2337   3951   3953     1  180.0000771  10.4600000  2
   2357   2358   2360   2361     1  0.0000000  0.6508444  3
   2357   2359   2362   2363     1  0.0000000  0.6508444  3
   2357   2364   2365   2366     1  0.0000000  0.6508444  3
   2358   2357   2359   2362     1  0.0000000  0.6508444  3
   2358   2357   2364   2365     1  0.0000000  0.6508444  3
   2358   2360   2361   3963     1  0.0000000  0.2928800  2
   2358   2360   2361   3963     1  0.0000000  0.4184000  4
   2358   2360   2361   2367     1  180.0000771  0.0000000  2
   2359   2357   2358   2360     1  0.0000000  0.6508444  3
   2359   2357   2364   2365     1  0.0000000  0.6508444  3
   2359   2362   2363   2368     1  180.0000771  0.0000000  2
   2359   2362   2363   3975     1  0.0000000  0.2928800  2
   2359   2362   2363   3975     1  0.0000000  0.4184000  4
   2360   2358   2357   2364     1  0.0000000  0.6508444  3
   2360   2361   3963   3965     1  180.0000771  6.2760000  1
   2360   2361   3963   3965     1  0.0000000  0.0000000  2
   2361   3963   3965   3966     1  0.0000000  2.2175200  1
   2361   3963   3965   3966     1  0.0000000  0.0000000  2
   2361   3963   3965   3966     1  180.0000771  0.6276000  3
   2361   3963   3965   3966     1  180.0000771  2.0920000  4
   2362   2359   2357   2364     1  0.0000000  0.6508444  3
   2362   2363   3975   3977     1  180.0000771  6.2760000  1
   2362   2363   3975   3977     1  0.0000000  0.0000000  2
   2363   3975   3977   3978     1  0.0000000  2.2175200  1
   2363   3975   3977   3978     1  0.0000000  0.0000000  2
   2363   3975   3977   3978     1  180.0000771  0.6276000  3
   2363   3975   3977   3978     1  180.0000771  2.0920000  4
   2367   2361   3963   3965     1  180.0000771  10.4600000  2
   2368   2363   3975   3977     1  180.0000771  10.4600000  2
   2383   2384   2386   2387     1  0.0000000  0.6508444  3
   2383   2385   2388   2389     1  0.0000000  0.6508444  3
   2383   2390   2391   2392     1  0.0000000  0.6508444  3
   2384   2383   2385   2388     1  0.0000000  0.6508444  3
   2384   2383   2390   2391     1  0.0000000  0.6508444  3
   2384   2386   2387   3987     1  0.0000000  0.2928800  2
   2384   2386   2387   3987     1  0.0000000  0.4184000  4
   2384   2386   2387   2393     1  180.0000771  0.0000000  2
   2385   2383   2384   2386     1  0.0000000  0.6508444  3
   2385   2383   2390   2391     1  0.0000000  0.6508444  3
   2385   2388   2389   2394     1  180.0000771  0.0000000  2
   2385   2388   2389   3999     1  0.0000000  0.2928800  2
   2385   2388   2389   3999     1  0.0000000  0.4184000  4
   2386   2384   2383   2390     1  0.0000000  0.6508444  3
   2386   2387   3987   3989     1  180.0000771  6.2760000  1
   2386   2387   3987   3989     1  0.0000000  0.0000000  2
   2387   3987   3989   3990     1  0.0000000  2.2175200  1
   2387   3987   3989   3990     1  0.0000000  0.0000000  2
   2387   3987   3989   3990     1  180.0000771  0.6276000  3
   2387   3987   3989   3990     1  180.0000771  2.0920000  4
   2388   2385   2383   2390     1  0.0000000  0.6508444  3
   2388   2389   3999   4001     1  180.0000771  6.2760000  1
   2388   2389   3999   4001     1  0.0000000  0.0000000  2
   2389   3999   4001   4002     1  0.0000000  2.2175200  1
   2389   3999   4001   4002     1  0.0000000  0.0000000  2
   2389   3999   4001   4002     1  180.0000771  0.6276000  3
   2389   3999   4001   4002     1  180.0000771  2.0920000  4
   2393   2387   3987   3989     1  180.0000771  10.4600000  2
   2394   2389   3999   4001     1  180.0000771  10.4600000  2
   2409   2410   2412   2413     1  0.0000000  0.6508444  3
   2409   2411   2414   2415     1  0.0000000  0.6508444  3
   2409   2416   2417   2418     1  0.0000000  0.6508444  3
   2410   2409   2411   2414     1  0.0000000  0.6508444  3
   2410   2409   2416   2417     1  0.0000000  0.6508444  3
   2410   2412   2413   4011     1  0.0000000  0.2928800  2
   2410   2412   2413   4011     1  0.0000000  0.4184000  4
   2410   2412   2413   2419     1  180.0000771  0.0000000  2
   2411   2409   2410   2412     1  0.0000000  0.6508444  3
   2411   2409   2416   2417     1  0.0000000  0.6508444  3
   2411   2414   2415   2420     1  180.0000771  0.0000000  2
   2411   2414   2415   4023     1  0.0000000  0.2928800  2
   2411   2414   2415   4023     1  0.0000000  0.4184000  4
   2412   2410   2409   2416     1  0.0000000  0.6508444  3
   2412   2413   4011   4013     1  180.0000771  6.2760000  1
   2412   2413   4011   4013     1  0.0000000  0.0000000  2
   2413   4011   4013   4014     1  0.0000000  2.2175200  1
   2413   4011   4013   4014     1  0.0000000  0.0000000  2
   2413   4011   4013   4014     1  180.0000771  0.6276000  3
   2413   4011   4013   4014     1  180.0000771  2.0920000  4
   2414   2411   2409   2416     1  0.0000000  0.6508444  3
   2414   2415   4023   4025     1  180.0000771  6.2760000  1
   2414   2415   4023   4025     1  0.0000000  0.0000000  2
   2415   4023   4025   4026     1  0.0000000  2.2175200  1
   2415   4023   4025   4026     1  0.0000000  0.0000000  2
   2415   4023   4025   4026     1  180.0000771  0.6276000  3
   2415   4023   4025   4026     1  180.0000771  2.0920000  4
   2419   2413   4011   4013     1  180.0000771  10.4600000  2
   2420   2415   4023   4025     1  180.0000771  10.4600000  2
   2435   2436   2438   2439     1  0.0000000  0.6508444  3
   2435   2437   2440   2441     1  0.0000000  0.6508444  3
   2435   2442   2443   2444     1  0.0000000  0.6508444  3
   2436   2435   2437   2440     1  0.0000000  0.6508444  3
   2436   2435   2442   2443     1  0.0000000  0.6508444  3
   2436   2438   2439   4035     1  0.0000000  0.2928800  2
   2436   2438   2439   4035     1  0.0000000  0.4184000  4
   2436   2438   2439   2445     1  180.0000771  0.0000000  2
   2437   2435   2436   2438     1  0.0000000  0.6508444  3
   2437   2435   2442   2443     1  0.0000000  0.6508444  3
   2437   2440   2441   2446     1  180.0000771  0.0000000  2
   2437   2440   2441   4047     1  0.0000000  0.2928800  2
   2437   2440   2441   4047     1  0.0000000  0.4184000  4
   2438   2436   2435   2442     1  0.0000000  0.6508444  3
   2438   2439   4035   4037     1  180.0000771  6.2760000  1
   2438   2439   4035   4037     1  0.0000000  0.0000000  2
   2439   4035   4037   4038     1  0.0000000  2.2175200  1
   2439   4035   4037   4038     1  0.0000000  0.0000000  2
   2439   4035   4037   4038     1  180.0000771  0.6276000  3
   2439   4035   4037   4038     1  180.0000771  2.0920000  4
   2440   2437   2435   2442     1  0.0000000  0.6508444  3
   2440   2441   4047   4049     1  180.0000771  6.2760000  1
   2440   2441   4047   4049     1  0.0000000  0.0000000  2
   2441   4047   4049   4050     1  0.0000000  2.2175200  1
   2441   4047   4049   4050     1  0.0000000  0.0000000  2
   2441   4047   4049   4050     1  180.0000771  0.6276000  3
   2441   4047   4049   4050     1  180.0000771  2.0920000  4
   2445   2439   4035   4037     1  180.0000771  10.4600000  2
   2446   2441   4047   4049     1  180.0000771  10.4600000  2
   2461   2462   2464   2465     1  0.0000000  0.6508444  3
   2461   2463   2466   2467     1  0.0000000  0.6508444  3
   2461   2468   2469   2470     1  0.0000000  0.6508444  3
   2462   2461   2463   2466     1  0.0000000  0.6508444  3
   2462   2461   2468   2469     1  0.0000000  0.6508444  3
   2462   2464   2465   4059     1  0.0000000  0.2928800  2
   2462   2464   2465   4059     1  0.0000000  0.4184000  4
   2462   2464   2465   2471     1  180.0000771  0.0000000  2
   2463   2461   2462   2464     1  0.0000000  0.6508444  3
   2463   2461   2468   2469     1  0.0000000  0.6508444  3
   2463   2466   2467   2472     1  180.0000771  0.0000000  2
   2463   2466   2467   4071     1  0.0000000  0.2928800  2
   2463   2466   2467   4071     1  0.0000000  0.4184000  4
   2464   2462   2461   2468     1  0.0000000  0.6508444  3
   2464   2465   4059   4061     1  180.0000771  6.2760000  1
   2464   2465   4059   4061     1  0.0000000  0.0000000  2
   2465   4059   4061   4062     1  0.0000000  2.2175200  1
   2465   4059   4061   4062     1  0.0000000  0.0000000  2
   2465   4059   4061   4062     1  180.0000771  0.6276000  3
   2465   4059   4061   4062     1  180.0000771  2.0920000  4
   2466   2463   2461   2468     1  0.0000000  0.6508444  3
   2466   2467   4071   4073     1  180.0000771  6.2760000  1
   2466   2467   4071   4073     1  0.0000000  0.0000000  2
   2467   4071   4073   4074     1  0.0000000  2.2175200  1
   2467   4071   4073   4074     1  0.0000000  0.0000000  2
   2467   4071   4073   4074     1  180.0000771  0.6276000  3
   2467   4071   4073   4074     1  180.0000771  2.0920000  4
   2471   2465   4059   4061     1  180.0000771  10.4600000  2
   2472   2467   4071   4073     1  180.0000771  10.4600000  2
   2487   2488   2490   2491     1  0.0000000  0.6508444  3
   2487   2489   2492   2493     1  0.0000000  0.6508444  3
   2487   2494   2495   2496     1  0.0000000  0.6508444  3
   2488   2487   2489   2492     1  0.0000000  0.6508444  3
   2488   2487   2494   2495     1  0.0000000  0.6508444  3
   2488   2490   2491   4083     1  0.0000000  0.2928800  2
   2488   2490   2491   4083     1  0.0000000  0.4184000  4
   2488   2490   2491   2497     1  180.0000771  0.0000000  2
   2489   2487   2488   2490     1  0.0000000  0.6508444  3
   2489   2487   2494   2495     1  0.0000000  0.6508444  3
   2489   2492   2493   2498     1  180.0000771  0.0000000  2
   2489   2492   2493   4095     1  0.0000000  0.2928800  2
   2489   2492   2493   4095     1  0.0000000  0.4184000  4
   2490   2488   2487   2494     1  0.0000000  0.6508444  3
   2490   2491   4083   4085     1  180.0000771  6.2760000  1
   2490   2491   4083   4085     1  0.0000000  0.0000000  2
   2491   4083   4085   4086     1  0.0000000  2.2175200  1
   2491   4083   4085   4086     1  0.0000000  0.0000000  2
   2491   4083   4085   4086     1  180.0000771  0.6276000  3
   2491   4083   4085   4086     1  180.0000771  2.0920000  4
   2492   2489   2487   2494     1  0.0000000  0.6508444  3
   2492   2493   4095   4097     1  180.0000771  6.2760000  1
   2492   2493   4095   4097     1  0.0000000  0.0000000  2
   2493   4095   4097   4098     1  0.0000000  2.2175200  1
   2493   4095   4097   4098     1  0.0000000  0.0000000  2
   2493   4095   4097   4098     1  180.0000771  0.6276000  3
   2493   4095   4097   4098     1  180.0000771  2.0920000  4
   2497   2491   4083   4085     1  180.0000771  10.4600000  2
   2498   2493   4095   4097     1  180.0000771  10.4600000  2
   2513   2514   2516   2517     1  0.0000000  0.6508444  3
   2513   2515   2518   2519     1  0.0000000  0.6508444  3
   2513   2520   2521   2522     1  0.0000000  0.6508444  3
   2514   2513   2515   2518     1  0.0000000  0.6508444  3
   2514   2513   2520   2521     1  0.0000000  0.6508444  3
   2514   2516   2517   4107     1  0.0000000  0.2928800  2
   2514   2516   2517   4107     1  0.0000000  0.4184000  4
   2514   2516   2517   2523     1  180.0000771  0.0000000  2
   2515   2513   2514   2516     1  0.0000000  0.6508444  3
   2515   2513   2520   2521     1  0.0000000  0.6508444  3
   2515   2518   2519   2524     1  180.0000771  0.0000000  2
   2515   2518   2519   4119     1  0.0000000  0.2928800  2
   2515   2518   2519   4119     1  0.0000000  0.4184000  4
   2516   2514   2513   2520     1  0.0000000  0.6508444  3
   2516   2517   4107   4109     1  180.0000771  6.2760000  1
   2516   2517   4107   4109     1  0.0000000  0.0000000  2
   2517   4107   4109   4110     1  0.0000000  2.2175200  1
   2517   4107   4109   4110     1  0.0000000  0.0000000  2
   2517   4107   4109   4110     1  180.0000771  0.6276000  3
   2517   4107   4109   4110     1  180.0000771  2.0920000  4
   2518   2515   2513   2520     1  0.0000000  0.6508444  3
   2518   2519   4119   4121     1  180.0000771  6.2760000  1
   2518   2519   4119   4121     1  0.0000000  0.0000000  2
   2519   4119   4121   4122     1  0.0000000  2.2175200  1
   2519   4119   4121   4122     1  0.0000000  0.0000000  2
   2519   4119   4121   4122     1  180.0000771  0.6276000  3
   2519   4119   4121   4122     1  180.0000771  2.0920000  4
   2523   2517   4107   4109     1  180.0000771  10.4600000  2
   2524   2519   4119   4121     1  180.0000771  10.4600000  2
   2539   2540   2542   2543     1  0.0000000  0.6508444  3
   2539   2541   2544   2545     1  0.0000000  0.6508444  3
   2539   2546   2547   2548     1  0.0000000  0.6508444  3
   2540   2539   2541   2544     1  0.0000000  0.6508444  3
   2540   2539   2546   2547     1  0.0000000  0.6508444  3
   2540   2542   2543   4131     1  0.0000000  0.2928800  2
   2540   2542   2543   4131     1  0.0000000  0.4184000  4
   2540   2542   2543   2549     1  180.0000771  0.0000000  2
   2541   2539   2540   2542     1  0.0000000  0.6508444  3
   2541   2539   2546   2547     1  0.0000000  0.6508444  3
   2541   2544   2545   2550     1  180.0000771  0.0000000  2
   2541   2544   2545   4143     1  0.0000000  0.2928800  2
   2541   2544   2545   4143     1  0.0000000  0.4184000  4
   2542   2540   2539   2546     1  0.0000000  0.6508444  3
   2542   2543   4131   4133     1  180.0000771  6.2760000  1
   2542   2543   4131   4133     1  0.0000000  0.0000000  2
   2543   4131   4133   4134     1  0.0000000  2.2175200  1
   2543   4131   4133   4134     1  0.0000000  0.0000000  2
   2543   4131   4133   4134     1  180.0000771  0.6276000  3
   2543   4131   4133   4134     1  180.0000771  2.0920000  4
   2544   2541   2539   2546     1  0.0000000  0.6508444  3
   2544   2545   4143   4145     1  180.0000771  6.2760000  1
   2544   2545   4143   4145     1  0.0000000  0.0000000  2
   2545   4143   4145   4146     1  0.0000000  2.2175200  1
   2545   4143   4145   4146     1  0.0000000  0.0000000  2
   2545   4143   4145   4146     1  180.0000771  0.6276000  3
   2545   4143   4145   4146     1  180.0000771  2.0920000  4
   2549   2543   4131   4133     1  180.0000771  10.4600000  2
   2550   2545   4143   4145     1  180.0000771  10.4600000  2
   2565   2566   2568   2569     1  0.0000000  0.6508444  3
   2565   2567   2570   2571     1  0.0000000  0.6508444  3
   2565   2572   2573   2574     1  0.0000000  0.6508444  3
   2566   2565   2567   2570     1  0.0000000  0.6508444  3
   2566   2565   2572   2573     1  0.0000000  0.6508444  3
   2566   2568   2569   4155     1  0.0000000  0.2928800  2
   2566   2568   2569   4155     1  0.0000000  0.4184000  4
   2566   2568   2569   2575     1  180.0000771  0.0000000  2
   2567   2565   2566   2568     1  0.0000000  0.6508444  3
   2567   2565   2572   2573     1  0.0000000  0.6508444  3
   2567   2570   2571   2576     1  180.0000771  0.0000000  2
   2567   2570   2571   4167     1  0.0000000  0.2928800  2
   2567   2570   2571   4167     1  0.0000000  0.4184000  4
   2568   2566   2565   2572     1  0.0000000  0.6508444  3
   2568   2569   4155   4157     1  180.0000771  6.2760000  1
   2568   2569   4155   4157     1  0.0000000  0.0000000  2
   2569   4155   4157   4158     1  0.0000000  2.2175200  1
   2569   4155   4157   4158     1  0.0000000  0.0000000  2
   2569   4155   4157   4158     1  180.0000771  0.6276000  3
   2569   4155   4157   4158     1  180.0000771  2.0920000  4
   2570   2567   2565   2572     1  0.0000000  0.6508444  3
   2570   2571   4167   4169     1  180.0000771  6.2760000  1
   2570   2571   4167   4169     1  0.0000000  0.0000000  2
   2571   4167   4169   4170     1  0.0000000  2.2175200  1
   2571   4167   4169   4170     1  0.0000000  0.0000000  2
   2571   4167   4169   4170     1  180.0000771  0.6276000  3
   2571   4167   4169   4170     1  180.0000771  2.0920000  4
   2575   2569   4155   4157     1  180.0000771  10.4600000  2
   2576   2571   4167   4169     1  180.0000771  10.4600000  2
   2591   2592   2594   2595     1  0.0000000  0.6508444  3
   2591   2593   2596   2597     1  0.0000000  0.6508444  3
   2591   2598   2599   2600     1  0.0000000  0.6508444  3
   2592   2591   2593   2596     1  0.0000000  0.6508444  3
   2592   2591   2598   2599     1  0.0000000  0.6508444  3
   2592   2594   2595   4179     1  0.0000000  0.2928800  2
   2592   2594   2595   4179     1  0.0000000  0.4184000  4
   2592   2594   2595   2601     1  180.0000771  0.0000000  2
   2593   2591   2592   2594     1  0.0000000  0.6508444  3
   2593   2591   2598   2599     1  0.0000000  0.6508444  3
   2593   2596   2597   2602     1  180.0000771  0.0000000  2
   2593   2596   2597   4191     1  0.0000000  0.2928800  2
   2593   2596   2597   4191     1  0.0000000  0.4184000  4
   2594   2592   2591   2598     1  0.0000000  0.6508444  3
   2594   2595   4179   4181     1  180.0000771  6.2760000  1
   2594   2595   4179   4181     1  0.0000000  0.0000000  2
   2595   4179   4181   4182     1  0.0000000  2.2175200  1
   2595   4179   4181   4182     1  0.0000000  0.0000000  2
   2595   4179   4181   4182     1  180.0000771  0.6276000  3
   2595   4179   4181   4182     1  180.0000771  2.0920000  4
   2596   2593   2591   2598     1  0.0000000  0.6508444  3
   2596   2597   4191   4193     1  180.0000771  6.2760000  1
   2596   2597   4191   4193     1  0.0000000  0.0000000  2
   2597   4191   4193   4194     1  0.0000000  2.2175200  1
   2597   4191   4193   4194     1  0.0000000  0.0000000  2
   2597   4191   4193   4194     1  180.0000771  0.6276000  3
   2597   4191   4193   4194     1  180.0000771  2.0920000  4
   2601   2595   4179   4181     1  180.0000771  10.4600000  2
   2602   2597   4191   4193     1  180.0000771  10.4600000  2
   2617   2618   2620   2621     1  0.0000000  0.6508444  3
   2617   2619   2622   2623     1  0.0000000  0.6508444  3
   2617   2624   2625   2626     1  0.0000000  0.6508444  3
   2618   2617   2619   2622     1  0.0000000  0.6508444  3
   2618   2617   2624   2625     1  0.0000000  0.6508444  3
   2618   2620   2621   4203     1  0.0000000  0.2928800  2
   2618   2620   2621   4203     1  0.0000000  0.4184000  4
   2618   2620   2621   2627     1  180.0000771  0.0000000  2
   2619   2617   2618   2620     1  0.0000000  0.6508444  3
   2619   2617   2624   2625     1  0.0000000  0.6508444  3
   2619   2622   2623   2628     1  180.0000771  0.0000000  2
   2619   2622   2623   4215     1  0.0000000  0.2928800  2
   2619   2622   2623   4215     1  0.0000000  0.4184000  4
   2620   2618   2617   2624     1  0.0000000  0.6508444  3
   2620   2621   4203   4205     1  180.0000771  6.2760000  1
   2620   2621   4203   4205     1  0.0000000  0.0000000  2
   2621   4203   4205   4206     1  0.0000000  2.2175200  1
   2621   4203   4205   4206     1  0.0000000  0.0000000  2
   2621   4203   4205   4206     1  180.0000771  0.6276000  3
   2621   4203   4205   4206     1  180.0000771  2.0920000  4
   2622   2619   2617   2624     1  0.0000000  0.6508444  3
   2622   2623   4215   4217     1  180.0000771  6.2760000  1
   2622   2623   4215   4217     1  0.0000000  0.0000000  2
   2623   4215   4217   4218     1  0.0000000  2.2175200  1
   2623   4215   4217   4218     1  0.0000000  0.0000000  2
   2623   4215   4217   4218     1  180.0000771  0.6276000  3
   2623   4215   4217   4218     1  180.0000771  2.0920000  4
   2627   2621   4203   4205     1  180.0000771  10.4600000  2
   2628   2623   4215   4217     1  180.0000771  10.4600000  2
   2643   2644   2646   2647     1  0.0000000  0.6508444  3
   2643   2645   2648   2649     1  0.0000000  0.6508444  3
   2643   2650   2651   2652     1  0.0000000  0.6508444  3
   2644   2643   2645   2648     1  0.0000000  0.6508444  3
   2644   2643   2650   2651     1  0.0000000  0.6508444  3
   2644   2646   2647   4227     1  0.0000000  0.2928800  2
   2644   2646   2647   4227     1  0.0000000  0.4184000  4
   2644   2646   2647   2653     1  180.0000771  0.0000000  2
   2645   2643   2644   2646     1  0.0000000  0.6508444  3
   2645   2643   2650   2651     1  0.0000000  0.6508444  3
   2645   2648   2649   2654     1  180.0000771  0.0000000  2
   2645   2648   2649   4239     1  0.0000000  0.2928800  2
   2645   2648   2649   4239     1  0.0000000  0.4184000  4
   2646   2644   2643   2650     1  0.0000000  0.6508444  3
   2646   2647   4227   4229     1  180.0000771  6.2760000  1
   2646   2647   4227   4229     1  0.0000000  0.0000000  2
   2647   4227   4229   4230     1  0.0000000  2.2175200  1
   2647   4227   4229   4230     1  0.0000000  0.0000000  2
   2647   4227   4229   4230     1  180.0000771  0.6276000  3
   2647   4227   4229   4230     1  180.0000771  2.0920000  4
   2648   2645   2643   2650     1  0.0000000  0.6508444  3
   2648   2649   4239   4241     1  180.0000771  6.2760000  1
   2648   2649   4239   4241     1  0.0000000  0.0000000  2
   2649   4239   4241   4242     1  0.0000000  2.2175200  1
   2649   4239   4241   4242     1  0.0000000  0.0000000  2
   2649   4239   4241   4242     1  180.0000771  0.6276000  3
   2649   4239   4241   4242     1  180.0000771  2.0920000  4
   2653   2647   4227   4229     1  180.0000771  10.4600000  2
   2654   2649   4239   4241     1  180.0000771  10.4600000  2
   2669   2670   2672   2673     1  0.0000000  0.6508444  3
   2669   2671   2674   2675     1  0.0000000  0.6508444  3
   2669   2676   2677   2678     1  0.0000000  0.6508444  3
   2670   2669   2671   2674     1  0.0000000  0.6508444  3
   2670   2669   2676   2677     1  0.0000000  0.6508444  3
   2670   2672   2673   4251     1  0.0000000  0.2928800  2
   2670   2672   2673   4251     1  0.0000000  0.4184000  4
   2670   2672   2673   2679     1  180.0000771  0.0000000  2
   2671   2669   2670   2672     1  0.0000000  0.6508444  3
   2671   2669   2676   2677     1  0.0000000  0.6508444  3
   2671   2674   2675   2680     1  180.0000771  0.0000000  2
   2671   2674   2675   4263     1  0.0000000  0.2928800  2
   2671   2674   2675   4263     1  0.0000000  0.4184000  4
   2672   2670   2669   2676     1  0.0000000  0.6508444  3
   2672   2673   4251   4253     1  180.0000771  6.2760000  1
   2672   2673   4251   4253     1  0.0000000  0.0000000  2
   2673   4251   4253   4254     1  0.0000000  2.2175200  1
   2673   4251   4253   4254     1  0.0000000  0.0000000  2
   2673   4251   4253   4254     1  180.0000771  0.6276000  3
   2673   4251   4253   4254     1  180.0000771  2.0920000  4
   2674   2671   2669   2676     1  0.0000000  0.6508444  3
   2674   2675   4263   4265     1  180.0000771  6.2760000  1
   2674   2675   4263   4265     1  0.0000000  0.0000000  2
   2675   4263   4265   4266     1  0.0000000  2.2175200  1
   2675   4263   4265   4266     1  0.0000000  0.0000000  2
   2675   4263   4265   4266     1  180.0000771  0.6276000  3
   2675   4263   4265   4266     1  180.0000771  2.0920000  4
   2679   2673   4251   4253     1  180.0000771  10.4600000  2
   2680   2675   4263   4265     1  180.0000771  10.4600000  2
   2695   2696   2698   2699     1  0.0000000  0.6508444  3
   2695   2697   2700   2701     1  0.0000000  0.6508444  3
   2695   2702   2703   2704     1  0.0000000  0.6508444  3
   2696   2695   2697   2700     1  0.0000000  0.6508444  3
   2696   2695   2702   2703     1  0.0000000  0.6508444  3
   2696   2698   2699   4275     1  0.0000000  0.2928800  2
   2696   2698   2699   4275     1  0.0000000  0.4184000  4
   2696   2698   2699   2705     1  180.0000771  0.0000000  2
   2697   2695   2696   2698     1  0.0000000  0.6508444  3
   2697   2695   2702   2703     1  0.0000000  0.6508444  3
   2697   2700   2701   2706     1  180.0000771  0.0000000  2
   2697   2700   2701   4287     1  0.0000000  0.2928800  2
   2697   2700   2701   4287     1  0.0000000  0.4184000  4
   2698   2696   2695   2702     1  0.0000000  0.6508444  3
   2698   2699   4275   4277     1  180.0000771  6.2760000  1
   2698   2699   4275   4277     1  0.0000000  0.0000000  2
   2699   4275   4277   4278     1  0.0000000  2.2175200  1
   2699   4275   4277   4278     1  0.0000000  0.0000000  2
   2699   4275   4277   4278     1  180.0000771  0.6276000  3
   2699   4275   4277   4278     1  180.0000771  2.0920000  4
   2700   2697   2695   2702     1  0.0000000  0.6508444  3
   2700   2701   4287   4289     1  180.0000771  6.2760000  1
   2700   2701   4287   4289     1  0.0000000  0.0000000  2
   2701   4287   4289   4290     1  0.0000000  2.2175200  1
   2701   4287   4289   4290     1  0.0000000  0.0000000  2
   2701   4287   4289   4290     1  180.0000771  0.6276000  3
   2701   4287   4289   4290     1  180.0000771  2.0920000  4
   2705   2699   4275   4277     1  180.0000771  10.4600000  2
   2706   2701   4287   4289     1  180.0000771  10.4600000  2
   2721   2722   2724   2725     1  0.0000000  0.6508444  3
   2721   2723   2726   2727     1  0.0000000  0.6508444  3
   2721   2728   2729   2730     1  0.0000000  0.6508444  3
   2722   2721   2723   2726     1  0.0000000  0.6508444  3
   2722   2721   2728   2729     1  0.0000000  0.6508444  3
   2722   2724   2725   4299     1  0.0000000  0.2928800  2
   2722   2724   2725   4299     1  0.0000000  0.4184000  4
   2722   2724   2725   2731     1  180.0000771  0.0000000  2
   2723   2721   2722   2724     1  0.0000000  0.6508444  3
   2723   2721   2728   2729     1  0.0000000  0.6508444  3
   2723   2726   2727   2732     1  180.0000771  0.0000000  2
   2723   2726   2727   4311     1  0.0000000  0.2928800  2
   2723   2726   2727   4311     1  0.0000000  0.4184000  4
   2724   2722   2721   2728     1  0.0000000  0.6508444  3
   2724   2725   4299   4301     1  180.0000771  6.2760000  1
   2724   2725   4299   4301     1  0.0000000  0.0000000  2
   2725   4299   4301   4302     1  0.0000000  2.2175200  1
   2725   4299   4301   4302     1  0.0000000  0.0000000  2
   2725   4299   4301   4302     1  180.0000771  0.6276000  3
   2725   4299   4301   4302     1  180.0000771  2.0920000  4
   2726   2723   2721   2728     1  0.0000000  0.6508444  3
   2726   2727   4311   4313     1  180.0000771  6.2760000  1
   2726   2727   4311   4313     1  0.0000000  0.0000000  2
   2727   4311   4313   4314     1  0.0000000  2.2175200  1
   2727   4311   4313   4314     1  0.0000000  0.0000000  2
   2727   4311   4313   4314     1  180.0000771  0.6276000  3
   2727   4311   4313   4314     1  180.0000771  2.0920000  4
   2731   2725   4299   4301     1  180.0000771  10.4600000  2
   2732   2727   4311   4313     1  180.0000771  10.4600000  2
   2747   2748   2750   2751     1  0.0000000  0.6508444  3
   2747   2749   2752   2753     1  0.0000000  0.6508444  3
   2747   2754   2755   2756     1  0.0000000  0.6508444  3
   2748   2747   2749   2752     1  0.0000000  0.6508444  3
   2748   2747   2754   2755     1  0.0000000  0.6508444  3
   2748   2750   2751   4323     1  0.0000000  0.2928800  2
   2748   2750   2751   4323     1  0.0000000  0.4184000  4
   2748   2750   2751   2757     1  180.0000771  0.0000000  2
   2749   2747   2748   2750     1  0.0000000  0.6508444  3
   2749   2747   2754   2755     1  0.0000000  0.6508444  3
   2749   2752   2753   2758     1  180.0000771  0.0000000  2
   2749   2752   2753   4335     1  0.0000000  0.2928800  2
   2749   2752   2753   4335     1  0.0000000  0.4184000  4
   2750   2748   2747   2754     1  0.0000000  0.6508444  3
   2750   2751   4323   4325     1  180.0000771  6.2760000  1
   2750   2751   4323   4325     1  0.0000000  0.0000000  2
   2751   4323   4325   4326     1  0.0000000  2.2175200  1
   2751   4323   4325   4326     1  0.0000000  0.0000000  2
   2751   4323   4325   4326     1  180.0000771  0.6276000  3
   2751   4323   4325   4326     1  180.0000771  2.0920000  4
   2752   2749   2747   2754     1  0.0000000  0.6508444  3
   2752   2753   4335   4337     1  180.0000771  6.2760000  1
   2752   2753   4335   4337     1  0.0000000  0.0000000  2
   2753   4335   4337   4338     1  0.0000000  2.2175200  1
   2753   4335   4337   4338     1  0.0000000  0.0000000  2
   2753   4335   4337   4338     1  180.0000771  0.6276000  3
   2753   4335   4337   4338     1  180.0000771  2.0920000  4
   2757   2751   4323   4325     1  180.0000771  10.4600000  2
   2758   2753   4335   4337     1  180.0000771  10.4600000  2
   2773   2774   2776   2777     1  0.0000000  0.6508444  3
   2773   2775   2778   2779     1  0.0000000  0.6508444  3
   2773   2780   2781   2782     1  0.0000000  0.6508444  3
   2774   2773   2775   2778     1  0.0000000  0.6508444  3
   2774   2773   2780   2781     1  0.0000000  0.6508444  3
   2774   2776   2777   4347     1  0.0000000  0.2928800  2
   2774   2776   2777   4347     1  0.0000000  0.4184000  4
   2774   2776   2777   2783     1  180.0000771  0.0000000  2
   2775   2773   2774   2776     1  0.0000000  0.6508444  3
   2775   2773   2780   2781     1  0.0000000  0.6508444  3
   2775   2778   2779   2784     1  180.0000771  0.0000000  2
   2775   2778   2779   4359     1  0.0000000  0.2928800  2
   2775   2778   2779   4359     1  0.0000000  0.4184000  4
   2776   2774   2773   2780     1  0.0000000  0.6508444  3
   2776   2777   4347   4349     1  180.0000771  6.2760000  1
   2776   2777   4347   4349     1  0.0000000  0.0000000  2
   2777   4347   4349   4350     1  0.0000000  2.2175200  1
   2777   4347   4349   4350     1  0.0000000  0.0000000  2
   2777   4347   4349   4350     1  180.0000771  0.6276000  3
   2777   4347   4349   4350     1  180.0000771  2.0920000  4
   2778   2775   2773   2780     1  0.0000000  0.6508444  3
   2778   2779   4359   4361     1  180.0000771  6.2760000  1
   2778   2779   4359   4361     1  0.0000000  0.0000000  2
   2779   4359   4361   4362     1  0.0000000  2.2175200  1
   2779   4359   4361   4362     1  0.0000000  0.0000000  2
   2779   4359   4361   4362     1  180.0000771  0.6276000  3
   2779   4359   4361   4362     1  180.0000771  2.0920000  4
   2783   2777   4347   4349     1  180.0000771  10.4600000  2
   2784   2779   4359   4361     1  180.0000771  10.4600000  2
   2799   2800   2802   2803     1  0.0000000  0.6508444  3
   2799   2801   2804   2805     1  0.0000000  0.6508444  3
   2799   2806   2807   2808     1  0.0000000  0.6508444  3
   2800   2799   2801   2804     1  0.0000000  0.6508444  3
   2800   2799   2806   2807     1  0.0000000  0.6508444  3
   2800   2802   2803   4371     1  0.0000000  0.2928800  2
   2800   2802   2803   4371     1  0.0000000  0.4184000  4
   2800   2802   2803   2809     1  180.0000771  0.0000000  2
   2801   2799   2800   2802     1  0.0000000  0.6508444  3
   2801   2799   2806   2807     1  0.0000000  0.6508444  3
   2801   2804   2805   2810     1  180.0000771  0.0000000  2
   2801   2804   2805   4383     1  0.0000000  0.2928800  2
   2801   2804   2805   4383     1  0.0000000  0.4184000  4
   2802   2800   2799   2806     1  0.0000000  0.6508444  3
   2802   2803   4371   4373     1  180.0000771  6.2760000  1
   2802   2803   4371   4373     1  0.0000000  0.0000000  2
   2803   4371   4373   4374     1  0.0000000  2.2175200  1
   2803   4371   4373   4374     1  0.0000000  0.0000000  2
   2803   4371   4373   4374     1  180.0000771  0.6276000  3
   2803   4371   4373   4374     1  180.0000771  2.0920000  4
   2804   2801   2799   2806     1  0.0000000  0.6508444  3
   2804   2805   4383   4385     1  180.0000771  6.2760000  1
   2804   2805   4383   4385     1  0.0000000  0.0000000  2
   2805   4383   4385   4386     1  0.0000000  2.2175200  1
   2805   4383   4385   4386     1  0.0000000  0.0000000  2
   2805   4383   4385   4386     1  180.0000771  0.6276000  3
   2805   4383   4385   4386     1  180.0000771  2.0920000  4
   2809   2803   4371   4373     1  180.0000771  10.4600000  2
   2810   2805   4383   4385     1  180.0000771  10.4600000  2
   2825   2826   2828   2829     1  0.0000000  0.6508444  3
   2825   2827   2830   2831     1  0.0000000  0.6508444  3
   2825   2832   2833   2834     1  0.0000000  0.6508444  3
   2826   2825   2827   2830     1  0.0000000  0.6508444  3
   2826   2825   2832   2833     1  0.0000000  0.6508444  3
   2826   2828   2829   4395     1  0.0000000  0.2928800  2
   2826   2828   2829   4395     1  0.0000000  0.4184000  4
   2826   2828   2829   2835     1  180.0000771  0.0000000  2
   2827   2825   2826   2828     1  0.0000000  0.6508444  3
   2827   2825   2832   2833     1  0.0000000  0.6508444  3
   2827   2830   2831   2836     1  180.0000771  0.0000000  2
   2827   2830   2831   4407     1  0.0000000  0.2928800  2
   2827   2830   2831   4407     1  0.0000000  0.4184000  4
   2828   2826   2825   2832     1  0.0000000  0.6508444  3
   2828   2829   4395   4397     1  180.0000771  6.2760000  1
   2828   2829   4395   4397     1  0.0000000  0.0000000  2
   2829   4395   4397   4398     1  0.0000000  2.2175200  1
   2829   4395   4397   4398     1  0.0000000  0.0000000  2
   2829   4395   4397   4398     1  180.0000771  0.6276000  3
   2829   4395   4397   4398     1  180.0000771  2.0920000  4
   2830   2827   2825   2832     1  0.0000000  0.6508444  3
   2830   2831   4407   4409     1  180.0000771  6.2760000  1
   2830   2831   4407   4409     1  0.0000000  0.0000000  2
   2831   4407   4409   4410     1  0.0000000  2.2175200  1
   2831   4407   4409   4410     1  0.0000000  0.0000000  2
   2831   4407   4409   4410     1  180.0000771  0.6276000  3
   2831   4407   4409   4410     1  180.0000771  2.0920000  4
   2835   2829   4395   4397     1  180.0000771  10.4600000  2
   2836   2831   4407   4409     1  180.0000771  10.4600000  2
   2851   2852   2854   2855     1  0.0000000  0.6508444  3
   2851   2853   2856   2857     1  0.0000000  0.6508444  3
   2851   2858   2859   2860     1  0.0000000  0.6508444  3
   2852   2851   2853   2856     1  0.0000000  0.6508444  3
   2852   2851   2858   2859     1  0.0000000  0.6508444  3
   2852   2854   2855   4419     1  0.0000000  0.2928800  2
   2852   2854   2855   4419     1  0.0000000  0.4184000  4
   2852   2854   2855   2861     1  180.0000771  0.0000000  2
   2853   2851   2852   2854     1  0.0000000  0.6508444  3
   2853   2851   2858   2859     1  0.0000000  0.6508444  3
   2853   2856   2857   2862     1  180.0000771  0.0000000  2
   2853   2856   2857   4431     1  0.0000000  0.2928800  2
   2853   2856   2857   4431     1  0.0000000  0.4184000  4
   2854   2852   2851   2858     1  0.0000000  0.6508444  3
   2854   2855   4419   4421     1  180.0000771  6.2760000  1
   2854   2855   4419   4421     1  0.0000000  0.0000000  2
   2855   4419   4421   4422     1  0.0000000  2.2175200  1
   2855   4419   4421   4422     1  0.0000000  0.0000000  2
   2855   4419   4421   4422     1  180.0000771  0.6276000  3
   2855   4419   4421   4422     1  180.0000771  2.0920000  4
   2856   2853   2851   2858     1  0.0000000  0.6508444  3
   2856   2857   4431   4433     1  180.0000771  6.2760000  1
   2856   2857   4431   4433     1  0.0000000  0.0000000  2
   2857   4431   4433   4434     1  0.0000000  2.2175200  1
   2857   4431   4433   4434     1  0.0000000  0.0000000  2
   2857   4431   4433   4434     1  180.0000771  0.6276000  3
   2857   4431   4433   4434     1  180.0000771  2.0920000  4
   2861   2855   4419   4421     1  180.0000771  10.4600000  2
   2862   2857   4431   4433     1  180.0000771  10.4600000  2
   2877   2878   2880   2881     1  0.0000000  0.6508444  3
   2877   2879   2882   2883     1  0.0000000  0.6508444  3
   2877   2884   2885   2886     1  0.0000000  0.6508444  3
   2878   2877   2879   2882     1  0.0000000  0.6508444  3
   2878   2877   2884   2885     1  0.0000000  0.6508444  3
   2878   2880   2881   4443     1  0.0000000  0.2928800  2
   2878   2880   2881   4443     1  0.0000000  0.4184000  4
   2878   2880   2881   2887     1  180.0000771  0.0000000  2
   2879   2877   2878   2880     1  0.0000000  0.6508444  3
   2879   2877   2884   2885     1  0.0000000  0.6508444  3
   2879   2882   2883   2888     1  180.0000771  0.0000000  2
   2879   2882   2883   4455     1  0.0000000  0.2928800  2
   2879   2882   2883   4455     1  0.0000000  0.4184000  4
   2880   2878   2877   2884     1  0.0000000  0.6508444  3
   2880   2881   4443   4445     1  180.0000771  6.2760000  1
   2880   2881   4443   4445     1  0.0000000  0.0000000  2
   2881   4443   4445   4446     1  0.0000000  2.2175200  1
   2881   4443   4445   4446     1  0.0000000  0.0000000  2
   2881   4443   4445   4446     1  180.0000771  0.6276000  3
   2881   4443   4445   4446     1  180.0000771  2.0920000  4
   2882   2879   2877   2884     1  0.0000000  0.6508444  3
   2882   2883   4455   4457     1  180.0000771  6.2760000  1
   2882   2883   4455   4457     1  0.0000000  0.0000000  2
   2883   4455   4457   4458     1  0.0000000  2.2175200  1
   2883   4455   4457   4458     1  0.0000000  0.0000000  2
   2883   4455   4457   4458     1  180.0000771  0.6276000  3
   2883   4455   4457   4458     1  180.0000771  2.0920000  4
   2887   2881   4443   4445     1  180.0000771  10.4600000  2
   2888   2883   4455   4457     1  180.0000771  10.4600000  2
   2903   2904   2906   2907     1  0.0000000  0.6508444  3
   2903   2905   2908   2909     1  0.0000000  0.6508444  3
   2903   2910   2911   2912     1  0.0000000  0.6508444  3
   2904   2903   2905   2908     1  0.0000000  0.6508444  3
   2904   2903   2910   2911     1  0.0000000  0.6508444  3
   2904   2906   2907   4467     1  0.0000000  0.2928800  2
   2904   2906   2907   4467     1  0.0000000  0.4184000  4
   2904   2906   2907   2913     1  180.0000771  0.0000000  2
   2905   2903   2904   2906     1  0.0000000  0.6508444  3
   2905   2903   2910   2911     1  0.0000000  0.6508444  3
   2905   2908   2909   2914     1  180.0000771  0.0000000  2
   2905   2908   2909   4479     1  0.0000000  0.2928800  2
   2905   2908   2909   4479     1  0.0000000  0.4184000  4
   2906   2904   2903   2910     1  0.0000000  0.6508444  3
   2906   2907   4467   4469     1  180.0000771  6.2760000  1
   2906   2907   4467   4469     1  0.0000000  0.0000000  2
   2907   4467   4469   4470     1  0.0000000  2.2175200  1
   2907   4467   4469   4470     1  0.0000000  0.0000000  2
   2907   4467   4469   4470     1  180.0000771  0.6276000  3
   2907   4467   4469   4470     1  180.0000771  2.0920000  4
   2908   2905   2903   2910     1  0.0000000  0.6508444  3
   2908   2909   4479   4481     1  180.0000771  6.2760000  1
   2908   2909   4479   4481     1  0.0000000  0.0000000  2
   2909   4479   4481   4482     1  0.0000000  2.2175200  1
   2909   4479   4481   4482     1  0.0000000  0.0000000  2
   2909   4479   4481   4482     1  180.0000771  0.6276000  3
   2909   4479   4481   4482     1  180.0000771  2.0920000  4
   2913   2907   4467   4469     1  180.0000771  10.4600000  2
   2914   2909   4479   4481     1  180.0000771  10.4600000  2
   2929   2930   2932   2933     1  0.0000000  0.6508444  3
   2929   2931   2934   2935     1  0.0000000  0.6508444  3
   2929   2936   2937   2938     1  0.0000000  0.6508444  3
   2930   2929   2931   2934     1  0.0000000  0.6508444  3
   2930   2929   2936   2937     1  0.0000000  0.6508444  3
   2930   2932   2933   4491     1  0.0000000  0.2928800  2
   2930   2932   2933   4491     1  0.0000000  0.4184000  4
   2930   2932   2933   2939     1  180.0000771  0.0000000  2
   2931   2929   2930   2932     1  0.0000000  0.6508444  3
   2931   2929   2936   2937     1  0.0000000  0.6508444  3
   2931   2934   2935   2940     1  180.0000771  0.0000000  2
   2931   2934   2935   4503     1  0.0000000  0.2928800  2
   2931   2934   2935   4503     1  0.0000000  0.4184000  4
   2932   2930   2929   2936     1  0.0000000  0.6508444  3
   2932   2933   4491   4493     1  180.0000771  6.2760000  1
   2932   2933   4491   4493     1  0.0000000  0.0000000  2
   2933   4491   4493   4494     1  0.0000000  2.2175200  1
   2933   4491   4493   4494     1  0.0000000  0.0000000  2
   2933   4491   4493   4494     1  180.0000771  0.6276000  3
   2933   4491   4493   4494     1  180.0000771  2.0920000  4
   2934   2931   2929   2936     1  0.0000000  0.6508444  3
   2934   2935   4503   4505     1  180.0000771  6.2760000  1
   2934   2935   4503   4505     1  0.0000000  0.0000000  2
   2935   4503   4505   4506     1  0.0000000  2.2175200  1
   2935   4503   4505   4506     1  0.0000000  0.0000000  2
   2935   4503   4505   4506     1  180.0000771  0.6276000  3
   2935   4503   4505   4506     1  180.0000771  2.0920000  4
   2939   2933   4491   4493     1  180.0000771  10.4600000  2
   2940   2935   4503   4505     1  180.0000771  10.4600000  2
   2955   2956   2958   2959     1  0.0000000  0.6508444  3
   2955   2957   2960   2961     1  0.0000000  0.6508444  3
   2955   2962   2963   2964     1  0.0000000  0.6508444  3
   2956   2955   2957   2960     1  0.0000000  0.6508444  3
   2956   2955   2962   2963     1  0.0000000  0.6508444  3
   2956   2958   2959   4515     1  0.0000000  0.2928800  2
   2956   2958   2959   4515     1  0.0000000  0.4184000  4
   2956   2958   2959   2965     1  180.0000771  0.0000000  2
   2957   2955   2956   2958     1  0.0000000  0.6508444  3
   2957   2955   2962   2963     1  0.0000000  0.6508444  3
   2957   2960   2961   2966     1  180.0000771  0.0000000  2
   2957   2960   2961   4527     1  0.0000000  0.2928800  2
   2957   2960   2961   4527     1  0.0000000  0.4184000  4
   2958   2956   2955   2962     1  0.0000000  0.6508444  3
   2958   2959   4515   4517     1  180.0000771  6.2760000  1
   2958   2959   4515   4517     1  0.0000000  0.0000000  2
   2959   4515   4517   4518     1  0.0000000  2.2175200  1
   2959   4515   4517   4518     1  0.0000000  0.0000000  2
   2959   4515   4517   4518     1  180.0000771  0.6276000  3
   2959   4515   4517   4518     1  180.0000771  2.0920000  4
   2960   2957   2955   2962     1  0.0000000  0.6508444  3
   2960   2961   4527   4529     1  180.0000771  6.2760000  1
   2960   2961   4527   4529     1  0.0000000  0.0000000  2
   2961   4527   4529   4530     1  0.0000000  2.2175200  1
   2961   4527   4529   4530     1  0.0000000  0.0000000  2
   2961   4527   4529   4530     1  180.0000771  0.6276000  3
   2961   4527   4529   4530     1  180.0000771  2.0920000  4
   2965   2959   4515   4517     1  180.0000771  10.4600000  2
   2966   2961   4527   4529     1  180.0000771  10.4600000  2
   2981   2982   2984   2985     1  0.0000000  0.6508444  3
   2981   2983   2986   2987     1  0.0000000  0.6508444  3
   2981   2988   2989   2990     1  0.0000000  0.6508444  3
   2982   2981   2983   2986     1  0.0000000  0.6508444  3
   2982   2981   2988   2989     1  0.0000000  0.6508444  3
   2982   2984   2985   4539     1  0.0000000  0.2928800  2
   2982   2984   2985   4539     1  0.0000000  0.4184000  4
   2982   2984   2985   2991     1  180.0000771  0.0000000  2
   2983   2981   2982   2984     1  0.0000000  0.6508444  3
   2983   2981   2988   2989     1  0.0000000  0.6508444  3
   2983   2986   2987   2992     1  180.0000771  0.0000000  2
   2983   2986   2987   4551     1  0.0000000  0.2928800  2
   2983   2986   2987   4551     1  0.0000000  0.4184000  4
   2984   2982   2981   2988     1  0.0000000  0.6508444  3
   2984   2985   4539   4541     1  180.0000771  6.2760000  1
   2984   2985   4539   4541     1  0.0000000  0.0000000  2
   2985   4539   4541   4542     1  0.0000000  2.2175200  1
   2985   4539   4541   4542     1  0.0000000  0.0000000  2
   2985   4539   4541   4542     1  180.0000771  0.6276000  3
   2985   4539   4541   4542     1  180.0000771  2.0920000  4
   2986   2983   2981   2988     1  0.0000000  0.6508444  3
   2986   2987   4551   4553     1  180.0000771  6.2760000  1
   2986   2987   4551   4553     1  0.0000000  0.0000000  2
   2987   4551   4553   4554     1  0.0000000  2.2175200  1
   2987   4551   4553   4554     1  0.0000000  0.0000000  2
   2987   4551   4553   4554     1  180.0000771  0.6276000  3
   2987   4551   4553   4554     1  180.0000771  2.0920000  4
   2991   2985   4539   4541     1  180.0000771  10.4600000  2
   2992   2987   4551   4553     1  180.0000771  10.4600000  2
   3007   3008   3010   3011     1  0.0000000  0.6508444  3
   3007   3009   3012   3013     1  0.0000000  0.6508444  3
   3007   3014   3015   3016     1  0.0000000  0.6508444  3
   3008   3007   3009   3012     1  0.0000000  0.6508444  3
   3008   3007   3014   3015     1  0.0000000  0.6508444  3
   3008   3010   3011   4563     1  0.0000000  0.2928800  2
   3008   3010   3011   4563     1  0.0000000  0.4184000  4
   3008   3010   3011   3017     1  180.0000771  0.0000000  2
   3009   3007   3008   3010     1  0.0000000  0.6508444  3
   3009   3007   3014   3015     1  0.0000000  0.6508444  3
   3009   3012   3013   3018     1  180.0000771  0.0000000  2
   3009   3012   3013   4575     1  0.0000000  0.2928800  2
   3009   3012   3013   4575     1  0.0000000  0.4184000  4
   3010   3008   3007   3014     1  0.0000000  0.6508444  3
   3010   3011   4563   4565     1  180.0000771  6.2760000  1
   3010   3011   4563   4565     1  0.0000000  0.0000000  2
   3011   4563   4565   4566     1  0.0000000  2.2175200  1
   3011   4563   4565   4566     1  0.0000000  0.0000000  2
   3011   4563   4565   4566     1  180.0000771  0.6276000  3
   3011   4563   4565   4566     1  180.0000771  2.0920000  4
   3012   3009   3007   3014     1  0.0000000  0.6508444  3
   3012   3013   4575   4577     1  180.0000771  6.2760000  1
   3012   3013   4575   4577     1  0.0000000  0.0000000  2
   3013   4575   4577   4578     1  0.0000000  2.2175200  1
   3013   4575   4577   4578     1  0.0000000  0.0000000  2
   3013   4575   4577   4578     1  180.0000771  0.6276000  3
   3013   4575   4577   4578     1  180.0000771  2.0920000  4
   3017   3011   4563   4565     1  180.0000771  10.4600000  2
   3018   3013   4575   4577     1  180.0000771  10.4600000  2
   3033   3034   3036   3037     1  0.0000000  0.6508444  3
   3033   3035   3038   3039     1  0.0000000  0.6508444  3
   3033   3040   3041   3042     1  0.0000000  0.6508444  3
   3034   3033   3035   3038     1  0.0000000  0.6508444  3
   3034   3033   3040   3041     1  0.0000000  0.6508444  3
   3034   3036   3037   4587     1  0.0000000  0.2928800  2
   3034   3036   3037   4587     1  0.0000000  0.4184000  4
   3034   3036   3037   3043     1  180.0000771  0.0000000  2
   3035   3033   3034   3036     1  0.0000000  0.6508444  3
   3035   3033   3040   3041     1  0.0000000  0.6508444  3
   3035   3038   3039   3044     1  180.0000771  0.0000000  2
   3035   3038   3039   4599     1  0.0000000  0.2928800  2
   3035   3038   3039   4599     1  0.0000000  0.4184000  4
   3036   3034   3033   3040     1  0.0000000  0.6508444  3
   3036   3037   4587   4589     1  180.0000771  6.2760000  1
   3036   3037   4587   4589     1  0.0000000  0.0000000  2
   3037   4587   4589   4590     1  0.0000000  2.2175200  1
   3037   4587   4589   4590     1  0.0000000  0.0000000  2
   3037   4587   4589   4590     1  180.0000771  0.6276000  3
   3037   4587   4589   4590     1  180.0000771  2.0920000  4
   3038   3035   3033   3040     1  0.0000000  0.6508444  3
   3038   3039   4599   4601     1  180.0000771  6.2760000  1
   3038   3039   4599   4601     1  0.0000000  0.0000000  2
   3039   4599   4601   4602     1  0.0000000  2.2175200  1
   3039   4599   4601   4602     1  0.0000000  0.0000000  2
   3039   4599   4601   4602     1  180.0000771  0.6276000  3
   3039   4599   4601   4602     1  180.0000771  2.0920000  4
   3043   3037   4587   4589     1  180.0000771  10.4600000  2
   3044   3039   4599   4601     1  180.0000771  10.4600000  2
   3059   3060   3062   3063     1  0.0000000  0.6508444  3
   3059   3061   3064   3065     1  0.0000000  0.6508444  3
   3059   3066   3067   3068     1  0.0000000  0.6508444  3
   3060   3059   3061   3064     1  0.0000000  0.6508444  3
   3060   3059   3066   3067     1  0.0000000  0.6508444  3
   3060   3062   3063   4611     1  0.0000000  0.2928800  2
   3060   3062   3063   4611     1  0.0000000  0.4184000  4
   3060   3062   3063   3069     1  180.0000771  0.0000000  2
   3061   3059   3060   3062     1  0.0000000  0.6508444  3
   3061   3059   3066   3067     1  0.0000000  0.6508444  3
   3061   3064   3065   3070     1  180.0000771  0.0000000  2
   3061   3064   3065   4623     1  0.0000000  0.2928800  2
   3061   3064   3065   4623     1  0.0000000  0.4184000  4
   3062   3060   3059   3066     1  0.0000000  0.6508444  3
   3062   3063   4611   4613     1  180.0000771  6.2760000  1
   3062   3063   4611   4613     1  0.0000000  0.0000000  2
   3063   4611   4613   4614     1  0.0000000  2.2175200  1
   3063   4611   4613   4614     1  0.0000000  0.0000000  2
   3063   4611   4613   4614     1  180.0000771  0.6276000  3
   3063   4611   4613   4614     1  180.0000771  2.0920000  4
   3064   3061   3059   3066     1  0.0000000  0.6508444  3
   3064   3065   4623   4625     1  180.0000771  6.2760000  1
   3064   3065   4623   4625     1  0.0000000  0.0000000  2
   3065   4623   4625   4626     1  0.0000000  2.2175200  1
   3065   4623   4625   4626     1  0.0000000  0.0000000  2
   3065   4623   4625   4626     1  180.0000771  0.6276000  3
   3065   4623   4625   4626     1  180.0000771  2.0920000  4
   3069   3063   4611   4613     1  180.0000771  10.4600000  2
   3070   3065   4623   4625     1  180.0000771  10.4600000  2
   3085   3086   3088   3089     1  0.0000000  0.6508444  3
   3085   3087   3090   3091     1  0.0000000  0.6508444  3
   3085   3092   3093   3094     1  0.0000000  0.6508444  3
   3086   3085   3087   3090     1  0.0000000  0.6508444  3
   3086   3085   3092   3093     1  0.0000000  0.6508444  3
   3086   3088   3089   4635     1  0.0000000  0.2928800  2
   3086   3088   3089   4635     1  0.0000000  0.4184000  4
   3086   3088   3089   3095     1  180.0000771  0.0000000  2
   3087   3085   3086   3088     1  0.0000000  0.6508444  3
   3087   3085   3092   3093     1  0.0000000  0.6508444  3
   3087   3090   3091   3096     1  180.0000771  0.0000000  2
   3087   3090   3091   4647     1  0.0000000  0.2928800  2
   3087   3090   3091   4647     1  0.0000000  0.4184000  4
   3088   3086   3085   3092     1  0.0000000  0.6508444  3
   3088   3089   4635   4637     1  180.0000771  6.2760000  1
   3088   3089   4635   4637     1  0.0000000  0.0000000  2
   3089   4635   4637   4638     1  0.0000000  2.2175200  1
   3089   4635   4637   4638     1  0.0000000  0.0000000  2
   3089   4635   4637   4638     1  180.0000771  0.6276000  3
   3089   4635   4637   4638     1  180.0000771  2.0920000  4
   3090   3087   3085   3092     1  0.0000000  0.6508444  3
   3090   3091   4647   4649     1  180.0000771  6.2760000  1
   3090   3091   4647   4649     1  0.0000000  0.0000000  2
   3091   4647   4649   4650     1  0.0000000  2.2175200  1
   3091   4647   4649   4650     1  0.0000000  0.0000000  2
   3091   4647   4649   4650     1  180.0000771  0.6276000  3
   3091   4647   4649   4650     1  180.0000771  2.0920000  4
   3095   3089   4635   4637     1  180.0000771  10.4600000  2
   3096   3091   4647   4649     1  180.0000771  10.4600000  2
   3111   3112   3114   3115     1  0.0000000  0.6508444  3
   3111   3113   3116   3117     1  0.0000000  0.6508444  3
   3111   3118   3119   3120     1  0.0000000  0.6508444  3
   3112   3111   3113   3116     1  0.0000000  0.6508444  3
   3112   3111   3118   3119     1  0.0000000  0.6508444  3
   3112   3114   3115   4659     1  0.0000000  0.2928800  2
   3112   3114   3115   4659     1  0.0000000  0.4184000  4
   3112   3114   3115   3121     1  180.0000771  0.0000000  2
   3113   3111   3112   3114     1  0.0000000  0.6508444  3
   3113   3111   3118   3119     1  0.0000000  0.6508444  3
   3113   3116   3117   3122     1  180.0000771  0.0000000  2
   3113   3116   3117   4671     1  0.0000000  0.2928800  2
   3113   3116   3117   4671     1  0.0000000  0.4184000  4
   3114   3112   3111   3118     1  0.0000000  0.6508444  3
   3114   3115   4659   4661     1  180.0000771  6.2760000  1
   3114   3115   4659   4661     1  0.0000000  0.0000000  2
   3115   4659   4661   4662     1  0.0000000  2.2175200  1
   3115   4659   4661   4662     1  0.0000000  0.0000000  2
   3115   4659   4661   4662     1  180.0000771  0.6276000  3
   3115   4659   4661   4662     1  180.0000771  2.0920000  4
   3116   3113   3111   3118     1  0.0000000  0.6508444  3
   3116   3117   4671   4673     1  180.0000771  6.2760000  1
   3116   3117   4671   4673     1  0.0000000  0.0000000  2
   3117   4671   4673   4674     1  0.0000000  2.2175200  1
   3117   4671   4673   4674     1  0.0000000  0.0000000  2
   3117   4671   4673   4674     1  180.0000771  0.6276000  3
   3117   4671   4673   4674     1  180.0000771  2.0920000  4
   3121   3115   4659   4661     1  180.0000771  10.4600000  2
   3122   3117   4671   4673     1  180.0000771  10.4600000  2
   3137   3138   3140   3141     1  0.0000000  0.6508444  3
   3137   3139   3142   3143     1  0.0000000  0.6508444  3
   3137   3144   3145   3146     1  0.0000000  0.6508444  3
   3138   3137   3139   3142     1  0.0000000  0.6508444  3
   3138   3137   3144   3145     1  0.0000000  0.6508444  3
   3138   3140   3141   4683     1  0.0000000  0.2928800  2
   3138   3140   3141   4683     1  0.0000000  0.4184000  4
   3138   3140   3141   3147     1  180.0000771  0.0000000  2
   3139   3137   3138   3140     1  0.0000000  0.6508444  3
   3139   3137   3144   3145     1  0.0000000  0.6508444  3
   3139   3142   3143   3148     1  180.0000771  0.0000000  2
   3139   3142   3143   4695     1  0.0000000  0.2928800  2
   3139   3142   3143   4695     1  0.0000000  0.4184000  4
   3140   3138   3137   3144     1  0.0000000  0.6508444  3
   3140   3141   4683   4685     1  180.0000771  6.2760000  1
   3140   3141   4683   4685     1  0.0000000  0.0000000  2
   3141   4683   4685   4686     1  0.0000000  2.2175200  1
   3141   4683   4685   4686     1  0.0000000  0.0000000  2
   3141   4683   4685   4686     1  180.0000771  0.6276000  3
   3141   4683   4685   4686     1  180.0000771  2.0920000  4
   3142   3139   3137   3144     1  0.0000000  0.6508444  3
   3142   3143   4695   4697     1  180.0000771  6.2760000  1
   3142   3143   4695   4697     1  0.0000000  0.0000000  2
   3143   4695   4697   4698     1  0.0000000  2.2175200  1
   3143   4695   4697   4698     1  0.0000000  0.0000000  2
   3143   4695   4697   4698     1  180.0000771  0.6276000  3
   3143   4695   4697   4698     1  180.0000771  2.0920000  4
   3147   3141   4683   4685     1  180.0000771  10.4600000  2
   3148   3143   4695   4697     1  180.0000771  10.4600000  2
   3163   3164   3166   3167     1  0.0000000  0.6508444  3
   3163   3165   3168   3169     1  0.0000000  0.6508444  3
   3163   3170   3171   3172     1  0.0000000  0.6508444  3
   3164   3163   3165   3168     1  0.0000000  0.6508444  3
   3164   3163   3170   3171     1  0.0000000  0.6508444  3
   3164   3166   3167   4707     1  0.0000000  0.2928800  2
   3164   3166   3167   4707     1  0.0000000  0.4184000  4
   3164   3166   3167   3173     1  180.0000771  0.0000000  2
   3165   3163   3164   3166     1  0.0000000  0.6508444  3
   3165   3163   3170   3171     1  0.0000000  0.6508444  3
   3165   3168   3169   3174     1  180.0000771  0.0000000  2
   3165   3168   3169   4719     1  0.0000000  0.2928800  2
   3165   3168   3169   4719     1  0.0000000  0.4184000  4
   3166   3164   3163   3170     1  0.0000000  0.6508444  3
   3166   3167   4707   4709     1  180.0000771  6.2760000  1
   3166   3167   4707   4709     1  0.0000000  0.0000000  2
   3167   4707   4709   4710     1  0.0000000  2.2175200  1
   3167   4707   4709   4710     1  0.0000000  0.0000000  2
   3167   4707   4709   4710     1  180.0000771  0.6276000  3
   3167   4707   4709   4710     1  180.0000771  2.0920000  4
   3168   3165   3163   3170     1  0.0000000  0.6508444  3
   3168   3169   4719   4721     1  180.0000771  6.2760000  1
   3168   3169   4719   4721     1  0.0000000  0.0000000  2
   3169   4719   4721   4722     1  0.0000000  2.2175200  1
   3169   4719   4721   4722     1  0.0000000  0.0000000  2
   3169   4719   4721   4722     1  180.0000771  0.6276000  3
   3169   4719   4721   4722     1  180.0000771  2.0920000  4
   3173   3167   4707   4709     1  180.0000771  10.4600000  2
   3174   3169   4719   4721     1  180.0000771  10.4600000  2
   3189   3190   3192   3193     1  0.0000000  0.6508444  3
   3189   3191   3194   3195     1  0.0000000  0.6508444  3
   3189   3196   3197   3198     1  0.0000000  0.6508444  3
   3190   3189   3191   3194     1  0.0000000  0.6508444  3
   3190   3189   3196   3197     1  0.0000000  0.6508444  3
   3190   3192   3193   4731     1  0.0000000  0.2928800  2
   3190   3192   3193   4731     1  0.0000000  0.4184000  4
   3190   3192   3193   3199     1  180.0000771  0.0000000  2
   3191   3189   3190   3192     1  0.0000000  0.6508444  3
   3191   3189   3196   3197     1  0.0000000  0.6508444  3
   3191   3194   3195   3200     1  180.0000771  0.0000000  2
   3191   3194   3195   4743     1  0.0000000  0.2928800  2
   3191   3194   3195   4743     1  0.0000000  0.4184000  4
   3192   3190   3189   3196     1  0.0000000  0.6508444  3
   3192   3193   4731   4733     1  180.0000771  6.2760000  1
   3192   3193   4731   4733     1  0.0000000  0.0000000  2
   3193   4731   4733   4734     1  0.0000000  2.2175200  1
   3193   4731   4733   4734     1  0.0000000  0.0000000  2
   3193   4731   4733   4734     1  180.0000771  0.6276000  3
   3193   4731   4733   4734     1  180.0000771  2.0920000  4
   3194   3191   3189   3196     1  0.0000000  0.6508444  3
   3194   3195   4743   4745     1  180.0000771  6.2760000  1
   3194   3195   4743   4745     1  0.0000000  0.0000000  2
   3195   4743   4745   4746     1  0.0000000  2.2175200  1
   3195   4743   4745   4746     1  0.0000000  0.0000000  2
   3195   4743   4745   4746     1  180.0000771  0.6276000  3
   3195   4743   4745   4746     1  180.0000771  2.0920000  4
   3199   3193   4731   4733     1  180.0000771  10.4600000  2
   3200   3195   4743   4745     1  180.0000771  10.4600000  2
   3215   3216   3218   3219     1  0.0000000  0.6508444  3
   3215   3217   3220   3221     1  0.0000000  0.6508444  3
   3215   3222   3223   3224     1  0.0000000  0.6508444  3
   3216   3215   3217   3220     1  0.0000000  0.6508444  3
   3216   3215   3222   3223     1  0.0000000  0.6508444  3
   3216   3218   3219   4755     1  0.0000000  0.2928800  2
   3216   3218   3219   4755     1  0.0000000  0.4184000  4
   3216   3218   3219   3225     1  180.0000771  0.0000000  2
   3217   3215   3216   3218     1  0.0000000  0.6508444  3
   3217   3215   3222   3223     1  0.0000000  0.6508444  3
   3217   3220   3221   3226     1  180.0000771  0.0000000  2
   3217   3220   3221   4767     1  0.0000000  0.2928800  2
   3217   3220   3221   4767     1  0.0000000  0.4184000  4
   3218   3216   3215   3222     1  0.0000000  0.6508444  3
   3218   3219   4755   4757     1  180.0000771  6.2760000  1
   3218   3219   4755   4757     1  0.0000000  0.0000000  2
   3219   4755   4757   4758     1  0.0000000  2.2175200  1
   3219   4755   4757   4758     1  0.0000000  0.0000000  2
   3219   4755   4757   4758     1  180.0000771  0.6276000  3
   3219   4755   4757   4758     1  180.0000771  2.0920000  4
   3220   3217   3215   3222     1  0.0000000  0.6508444  3
   3220   3221   4767   4769     1  180.0000771  6.2760000  1
   3220   3221   4767   4769     1  0.0000000  0.0000000  2
   3221   4767   4769   4770     1  0.0000000  2.2175200  1
   3221   4767   4769   4770     1  0.0000000  0.0000000  2
   3221   4767   4769   4770     1  180.0000771  0.6276000  3
   3221   4767   4769   4770     1  180.0000771  2.0920000  4
   3225   3219   4755   4757     1  180.0000771  10.4600000  2
   3226   3221   4767   4769     1  180.0000771  10.4600000  2
   3241   3242   3244   3245     1  0.0000000  0.6508444  3
   3241   3243   3246   3247     1  0.0000000  0.6508444  3
   3241   3248   3249   3250     1  0.0000000  0.6508444  3
   3242   3241   3243   3246     1  0.0000000  0.6508444  3
   3242   3241   3248   3249     1  0.0000000  0.6508444  3
   3242   3244   3245   4779     1  0.0000000  0.2928800  2
   3242   3244   3245   4779     1  0.0000000  0.4184000  4
   3242   3244   3245   3251     1  180.0000771  0.0000000  2
   3243   3241   3242   3244     1  0.0000000  0.6508444  3
   3243   3241   3248   3249     1  0.0000000  0.6508444  3
   3243   3246   3247   4791     1  0.0000000  0.2928800  2
   3243   3246   3247   4791     1  0.0000000  0.4184000  4
   3243   3246   3247   3252     1  180.0000771  0.0000000  2
   3244   3242   3241   3248     1  0.0000000  0.6508444  3
   3244   3245   4779   4781     1  180.0000771  6.2760000  1
   3244   3245   4779   4781     1  0.0000000  0.0000000  2
   3245   4779   4781   4782     1  0.0000000  2.2175200  1
   3245   4779   4781   4782     1  0.0000000  0.0000000  2
   3245   4779   4781   4782     1  180.0000771  0.6276000  3
   3245   4779   4781   4782     1  180.0000771  2.0920000  4
   3246   3243   3241   3248     1  0.0000000  0.6508444  3
   3246   3247   4791   4793     1  180.0000771  6.2760000  1
   3246   3247   4791   4793     1  0.0000000  0.0000000  2
   3247   4791   4793   4794     1  0.0000000  2.2175200  1
   3247   4791   4793   4794     1  0.0000000  0.0000000  2
   3247   4791   4793   4794     1  180.0000771  0.6276000  3
   3247   4791   4793   4794     1  180.0000771  2.0920000  4
   3251   3245   4779   4781     1  180.0000771  10.4600000  2
   3252   3247   4791   4793     1  180.0000771  10.4600000  2
   3267   3269   3270   3275     1  0.0000000  0.6508444  3
   3279   3281   3282   3287     1  0.0000000  0.6508444  3
   3291   3293   3294   3299     1  0.0000000  0.6508444  3
   3303   3305   3306   3311     1  0.0000000  0.6508444  3
   3315   3317   3318   3323     1  0.0000000  0.6508444  3
   3327   3329   3330   3335     1  0.0000000  0.6508444  3
   3339   3341   3342   3347     1  0.0000000  0.6508444  3
   3351   3353   3354   3359     1  0.0000000  0.6508444  3
   3363   3365   3366   3371     1  0.0000000  0.6508444  3
   3375   3377   3378   3383     1  0.0000000  0.6508444  3
   3387   3389   3390   3395     1  0.0000000  0.6508444  3
   3399   3401   3402   3407     1  0.0000000  0.6508444  3
   3411   3413   3414   3419     1  0.0000000  0.6508444  3
   3423   3425   3426   3431     1  0.0000000  0.6508444  3
   3435   3437   3438   3443     1  0.0000000  0.6508444  3
   3447   3449   3450   3455     1  0.0000000  0.6508444  3
   3459   3461   3462   3467     1  0.0000000  0.6508444  3
   3471   3473   3474   3479     1  0.0000000  0.6508444  3
   3483   3485   3486   3491     1  0.0000000  0.6508444  3
   3495   3497   3498   3503     1  0.0000000  0.6508444  3
   3507   3509   3510   3515     1  0.0000000  0.6508444  3
   3519   3521   3522   3527     1  0.0000000  0.6508444  3
   3531   3533   3534   3539     1  0.0000000  0.6508444  3
   3543   3545   3546   3551     1  0.0000000  0.6508444  3
   3555   3557   3558   3563     1  0.0000000  0.6508444  3
   3567   3569   3570   3575     1  0.0000000  0.6508444  3
   3579   3581   3582   3587     1  0.0000000  0.6508444  3
   3591   3593   3594   3599     1  0.0000000  0.6508444  3
   3603   3605   3606   3611     1  0.0000000  0.6508444  3
   3615   3617   3618   3623     1  0.0000000  0.6508444  3
   3627   3629   3630   3635     1  0.0000000  0.6508444  3
   3639   3641   3642   3647     1  0.0000000  0.6508444  3
   3651   3653   3654   3659     1  0.0000000  0.6508444  3
   3663   3665   3666   3671     1  0.0000000  0.6508444  3
   3675   3677   3678   3683     1  0.0000000  0.6508444  3
   3687   3689   3690   3695     1  0.0000000  0.6508444  3
   3699   3701   3702   3707     1  0.0000000  0.6508444  3
   3711   3713   3714   3719     1  0.0000000  0.6508444  3
   3723   3725   3726   3731     1  0.0000000  0.6508444  3
   3735   3737   3738   3743     1  0.0000000  0.6508444  3
   3747   3749   3750   3755     1  0.0000000  0.6508444  3
   3759   3761   3762   3767     1  0.0000000  0.6508444  3
   3771   3773   3774   3779     1  0.0000000  0.6508444  3
   3783   3785   3786   3791     1  0.0000000  0.6508444  3
   3795   3797   3798   3803     1  0.0000000  0.6508444  3
   3807   3809   3810   3815     1  0.0000000  0.6508444  3
   3819   3821   3822   3827     1  0.0000000  0.6508444  3
   3831   3833   3834   3839     1  0.0000000  0.6508444  3
   3843   3845   3846   3851     1  0.0000000  0.6508444  3
   3855   3857   3858   3863     1  0.0000000  0.6508444  3
   3867   3869   3870   3875     1  0.0000000  0.6508444  3
   3879   3881   3882   3887     1  0.0000000  0.6508444  3
   3891   3893   3894   3899     1  0.0000000  0.6508444  3
   3903   3905   3906   3911     1  0.0000000  0.6508444  3
   3915   3917   3918   3923     1  0.0000000  0.6508444  3
   3927   3929   3930   3935     1  0.0000000  0.6508444  3
   3939   3941   3942   3947     1  0.0000000  0.6508444  3
   3951   3953   3954   3959     1  0.0000000  0.6508444  3
   3963   3965   3966   3971     1  0.0000000  0.6508444  3
   3975   3977   3978   3983     1  0.0000000  0.6508444  3
   3987   3989   3990   3995     1  0.0000000  0.6508444  3
   3999   4001   4002   4007     1  0.0000000  0.6508444  3
   4011   4013   4014   4019     1  0.0000000  0.6508444  3
   4023   4025   4026   4031     1  0.0000000  0.6508444  3
   4035   4037   4038   4043     1  0.0000000  0.6508444  3
   4047   4049   4050   4055     1  0.0000000  0.6508444  3
   4059   4061   4062   4067     1  0.0000000  0.6508444  3
   4071   4073   4074   4079     1  0.0000000  0.6508444  3
   4083   4085   4086   4091     1  0.0000000  0.6508444  3
   4095   4097   4098   4103     1  0.0000000  0.6508444  3
   4107   4109   4110   4115     1  0.0000000  0.6508444  3
   4119   4121   4122   4127     1  0.0000000  0.6508444  3
   4131   4133   4134   4139     1  0.0000000  0.6508444  3
   4143   4145   4146   4151     1  0.0000000  0.6508444  3
   4155   4157   4158   4163     1  0.0000000  0.6508444  3
   4167   4169   4170   4175     1  0.0000000  0.6508444  3
   4179   4181   4182   4187     1  0.0000000  0.6508444  3
   4191   4193   4194   4199     1  0.0000000  0.6508444  3
   4203   4205   4206   4211     1  0.0000000  0.6508444  3
   4215   4217   4218   4223     1  0.0000000  0.6508444  3
   4227   4229   4230   4235     1  0.0000000  0.6508444  3
   4239   4241   4242   4247     1  0.0000000  0.6508444  3
   4251   4253   4254   4259     1  0.0000000  0.6508444  3
   4263   4265   4266   4271     1  0.0000000  0.6508444  3
   4275   4277   4278   4283     1  0.0000000  0.6508444  3
   4287   4289   4290   4295     1  0.0000000  0.6508444  3
   4299   4301   4302   4307     1  0.0000000  0.6508444  3
   4311   4313   4314   4319     1  0.0000000  0.6508444  3
   4323   4325   4326   4331     1  0.0000000  0.6508444  3
   4335   4337   4338   4343     1  0.0000000  0.6508444  3
   4347   4349   4350   4355     1  0.0000000  0.6508444  3
   4359   4361   4362   4367     1  0.0000000  0.6508444  3
   4371   4373   4374   4379     1  0.0000000  0.6508444  3
   4383   4385   4386   4391     1  0.0000000  0.6508444  3
   4395   4397   4398   4403     1  0.0000000  0.6508444  3
   4407   4409   4410   4415     1  0.0000000  0.6508444  3
   4419   4421   4422   4427     1  0.0000000  0.6508444  3
   4431   4433   4434   4439     1  0.0000000  0.6508444  3
   4443   4445   4446   4451     1  0.0000000  0.6508444  3
   4455   4457   4458   4463     1  0.0000000  0.6508444  3
   4467   4469   4470   4475     1  0.0000000  0.6508444  3
   4479   4481   4482   4487     1  0.0000000  0.6508444  3
   4491   4493   4494   4499     1  0.0000000  0.6508444  3
   4503   4505   4506   4511     1  0.0000000  0.6508444  3
   4515   4517   4518   4523     1  0.0000000  0.6508444  3
   4527   4529   4530   4535     1  0.0000000  0.6508444  3
   4539   4541   4542   4547     1  0.0000000  0.6508444  3
   4551   4553   4554   4559     1  0.0000000  0.6508444  3
   4563   4565   4566   4571     1  0.0000000  0.6508444  3
   4575   4577   4578   4583     1  0.0000000  0.6508444  3
   4587   4589   4590   4595     1  0.0000000  0.6508444  3
   4599   4601   4602   4607     1  0.0000000  0.6508444  3
   4611   4613   4614   4619     1  0.0000000  0.6508444  3
   4623   4625   4626   4631     1  0.0000000  0.6508444  3
   4635   4637   4638   4643     1  0.0000000  0.6508444  3
   4647   4649   4650   4655     1  0.0000000  0.6508444  3
   4659   4661   4662   4667     1  0.0000000  0.6508444  3
   4671   4673   4674   4679     1  0.0000000  0.6508444  3
   4683   4685   4686   4691     1  0.0000000  0.6508444  3
   4695   4697   4698   4703     1  0.0000000  0.6508444  3
   4707   4709   4710   4715     1  0.0000000  0.6508444  3
   4719   4721   4722   4727     1  0.0000000  0.6508444  3
   4731   4733   4734   4739     1  0.0000000  0.6508444  3
   4743   4745   4746   4751     1  0.0000000  0.6508444  3
   4755   4757   4758   4763     1  0.0000000  0.6508444  3
   4767   4769   4770   4775     1  0.0000000  0.6508444  3
   4779   4781   4782   4787     1  0.0000000  0.6508444  3
   4791   4793   4794   4799     1  0.0000000  0.6508444  3
      9     52     10     18     4  180.0000771  43.9320000  2
     11     78     12     17     4  180.0000771  43.9320000  2
     13    104     14     20     4  180.0000771  43.9320000  2
     15    130     16     19     4  180.0000771  43.9320000  2
     46    156     47     53     4  180.0000771  43.9320000  2
     48    182     49     54     4  180.0000771  43.9320000  2
     72    208     73     79     4  180.0000771  43.9320000  2
     74    234     75     80     4  180.0000771  43.9320000  2
     98    260     99    105     4  180.0000771  43.9320000  2
    100    286    101    106     4  180.0000771  43.9320000  2
    124    312    125    131     4  180.0000771  43.9320000  2
    126    338    127    132     4  180.0000771  43.9320000  2
    150    364    151    157     4  180.0000771  43.9320000  2
    152    390    153    158     4  180.0000771  43.9320000  2
    176    416    177    183     4  180.0000771  43.9320000  2
    178    442    179    184     4  180.0000771  43.9320000  2
    202    468    203    209     4  180.0000771  43.9320000  2
    204    494    205    210     4  180.0000771  43.9320000  2
    228    520    229    235     4  180.0000771  43.9320000  2
    230    546    231    236     4  180.0000771  43.9320000  2
    254    572    255    261     4  180.0000771  43.9320000  2
    256    598    257    262     4  180.0000771  43.9320000  2
    280    624    281    287     4  180.0000771  43.9320000  2
    282    650    283    288     4  180.0000771  43.9320000  2
    306    676    307    313     4  180.0000771  43.9320000  2
    308    702    309    314     4  180.0000771  43.9320000  2
    332    728    333    339     4  180.0000771  43.9320000  2
    334    754    335    340     4  180.0000771  43.9320000  2
    358    780    359    365     4  180.0000771  43.9320000  2
    360    806    361    366     4  180.0000771  43.9320000  2
    384    832    385    391     4  180.0000771  43.9320000  2
    386    858    387    392     4  180.0000771  43.9320000  2
    410    884    411    417     4  180.0000771  43.9320000  2
    412    910    413    418     4  180.0000771  43.9320000  2
    436    936    437    443     4  180.0000771  43.9320000  2
    438    962    439    444     4  180.0000771  43.9320000  2
    462    988    463    469     4  180.0000771  43.9320000  2
    464   1014    465    470     4  180.0000771  43.9320000  2
    488   1040    489    495     4  180.0000771  43.9320000  2
    490   1066    491    496     4  180.0000771  43.9320000  2
    514   1092    515    521     4  180.0000771  43.9320000  2
    516   1118    517    522     4  180.0000771  43.9320000  2
    540   1144    541    547     4  180.0000771  43.9320000  2
    542   1170    543    548     4  180.0000771  43.9320000  2
    566   1196    567    573     4  180.0000771  43.9320000  2
    568   1222    569    574     4  180.0000771  43.9320000  2
    592   1248    593    599     4  180.0000771  43.9320000  2
    594   1274    595    600     4  180.0000771  43.9320000  2
    618   1300    619    625     4  180.0000771  43.9320000  2
    620   1326    621    626     4  180.0000771  43.9320000  2
    644   1352    645    651     4  180.0000771  43.9320000  2
    646   1378    647    652     4  180.0000771  43.9320000  2
    670   1404    671    677     4  180.0000771  43.9320000  2
    672   1430    673    678     4  180.0000771  43.9320000  2
    696   1456    697    703     4  180.0000771  43.9320000  2
    698   1482    699    704     4  180.0000771  43.9320000  2
    722   1508    723    729     4  180.0000771  43.9320000  2
    724   1534    725    730     4  180.0000771  43.9320000  2
    748   1560    749    755     4  180.0000771  43.9320000  2
    750   1586    751    756     4  180.0000771  43.9320000  2
    774   1612    775    781     4  180.0000771  43.9320000  2
    776   1638    777    782     4  180.0000771  43.9320000  2
    800   1664    801    807     4  180.0000771  43.9320000  2
    802   1690    803    808     4  180.0000771  43.9320000  2
    826   1716    827    833     4  180.0000771  43.9320000  2
    828   1742    829    834     4  180.0000771  43.9320000  2
    852   1768    853    859     4  180.0000771  43.9320000  2
    854   1794    855    860     4  180.0000771  43.9320000  2
    878   1820    879    885     4  180.0000771  43.9320000  2
    880   1846    881    886     4  180.0000771  43.9320000  2
    904   1872    905    911     4  180.0000771  43.9320000  2
    906   1898    907    912     4  180.0000771  43.9320000  2
    930   1924    931    937     4  180.0000771  43.9320000  2
    932   1950    933    938     4  180.0000771  43.9320000  2
    956   1976    957    963     4  180.0000771  43.9320000  2
    958   2002    959    964     4  180.0000771  43.9320000  2
    982   2028    983    989     4  180.0000771  43.9320000  2
    984   2054    985    990     4  180.0000771  43.9320000  2
   1008   2080   1009   1015     4  180.0000771  43.9320000  2
   1010   2106   1011   1016     4  180.0000771  43.9320000  2
   1034   2132   1035   1041     4  180.0000771  43.9320000  2
   1036   2158   1037   1042     4  180.0000771  43.9320000  2
   1060   2184   1061   1067     4  180.0000771  43.9320000  2
   1062   2210   1063   1068     4  180.0000771  43.9320000  2
   1086   2236   1087   1093     4  180.0000771  43.9320000  2
   1088   2262   1089   1094     4  180.0000771  43.9320000  2
   1112   2288   1113   1119     4  180.0000771  43.9320000  2
   1114   2314   1115   1120     4  180.0000771  43.9320000  2
   1138   2340   1139   1145     4  180.0000771  43.9320000  2
   1140   2366   1141   1146     4  180.0000771  43.9320000  2
   1164   2392   1165   1171     4  180.0000771  43.9320000  2
   1166   2418   1167   1172     4  180.0000771  43.9320000  2
   1190   2444   1191   1197     4  180.0000771  43.9320000  2
   1192   2470   1193   1198     4  180.0000771  43.9320000  2
   1216   2496   1217   1223     4  180.0000771  43.9320000  2
   1218   2522   1219   1224     4  180.0000771  43.9320000  2
   1242   2548   1243   1249     4  180.0000771  43.9320000  2
   1244   2574   1245   1250     4  180.0000771  43.9320000  2
   1268   2600   1269   1275     4  180.0000771  43.9320000  2
   1270   2626   1271   1276     4  180.0000771  43.9320000  2
   1294   2652   1295   1301     4  180.0000771  43.9320000  2
   1296   2678   1297   1302     4  180.0000771  43.9320000  2
   1320   2704   1321   1327     4  180.0000771  43.9320000  2
   1322   2730   1323   1328     4  180.0000771  43.9320000  2
   1346   2756   1347   1353     4  180.0000771  43.9320000  2
   1348   2782   1349   1354     4  180.0000771  43.9320000  2
   1372   2808   1373   1379     4  180.0000771  43.9320000  2
   1374   2834   1375   1380     4  180.0000771  43.9320000  2
   1398   2860   1399   1405     4  180.0000771  43.9320000  2
   1400   2886   1401   1406     4  180.0000771  43.9320000  2
   1424   2912   1425   1431     4  180.0000771  43.9320000  2
   1426   2938   1427   1432     4  180.0000771  43.9320000  2
   1450   2964   1451   1457     4  180.0000771  43.9320000  2
   1452   2990   1453   1458     4  180.0000771  43.9320000  2
   1476   3016   1477   1483     4  180.0000771  43.9320000  2
   1478   3042   1479   1484     4  180.0000771  43.9320000  2
   1502   3068   1503   1509     4  180.0000771  43.9320000  2
   1504   3094   1505   1510     4  180.0000771  43.9320000  2
   1528   3120   1529   1535     4  180.0000771  43.9320000  2
   1530   3146   1531   1536     4  180.0000771  43.9320000  2
   1554   3172   1555   1561     4  180.0000771  43.9320000  2
   1556   3198   1557   1562     4  180.0000771  43.9320000  2
   1580   3224   1581   1587     4  180.0000771  43.9320000  2
   1582   3250   1583   1588     4  180.0000771  43.9320000  2
   1606   3267   1607   1613     4  180.0000771  43.9320000  2
   1608   3279   1609   1614     4  180.0000771  43.9320000  2
   1632   3291   1633   1639     4  180.0000771  43.9320000  2
   1634   3303   1635   1640     4  180.0000771  43.9320000  2
   1658   3315   1659   1665     4  180.0000771  43.9320000  2
   1660   3327   1661   1666     4  180.0000771  43.9320000  2
   1684   3339   1685   1691     4  180.0000771  43.9320000  2
   1686   3351   1687   1692     4  180.0000771  43.9320000  2
   1710   3363   1711   1717     4  180.0000771  43.9320000  2
   1712   3375   1713   1718     4  180.0000771  43.9320000  2
   1736   3387   1737   1743     4  180.0000771  43.9320000  2
   1738   3399   1739   1744     4  180.0000771  43.9320000  2
   1762   3411   1763   1769     4  180.0000771  43.9320000  2
   1764   3423   1765   1770     4  180.0000771  43.9320000  2
   1788   3435   1789   1795     4  180.0000771  43.9320000  2
   1790   3447   1791   1796     4  180.0000771  43.9320000  2
   1814   3459   1815   1821     4  180.0000771  43.9320000  2
   1816   3471   1817   1822     4  180.0000771  43.9320000  2
   1840   3483   1841   1847     4  180.0000771  43.9320000  2
   1842   3495   1843   1848     4  180.0000771  43.9320000  2
   1866   3507   1867   1873     4  180.0000771  43.9320000  2
   1868   3519   1869   1874     4  180.0000771  43.9320000  2
   1892   3531   1893   1899     4  180.0000771  43.9320000  2
   1894   3543   1895   1900     4  180.0000771  43.9320000  2
   1918   3555   1919   1925     4  180.0000771  43.9320000  2
   1920   3567   1921   1926     4  180.0000771  43.9320000  2
   1944   3579   1945   1951     4  180.0000771  43.9320000  2
   1946   3591   1947   1952     4  180.0000771  43.9320000  2
   1970   3603   1971   1977     4  180.0000771  43.9320000  2
   1972   3615   1973   1978     4  180.0000771  43.9320000  2
   1996   3627   1997   2003     4  180.0000771  43.9320000  2
   1998   3639   1999   2004     4  180.0000771  43.9320000  2
   2022   3651   2023   2029     4  180.0000771  43.9320000  2
   2024   3663   2025   2030     4  180.0000771  43.9320000  2
   2048   3675   2049   2055     4  180.0000771  43.9320000  2
   2050   3687   2051   2056     4  180.0000771  43.9320000  2
   2074   3699   2075   2081     4  180.0000771  43.9320000  2
   2076   3711   2077   2082     4  180.0000771  43.9320000  2
   2100   3723   2101   2107     4  180.0000771  43.9320000  2
   2102   3735   2103   2108     4  180.0000771  43.9320000  2
   2126   3747   2127   2133     4  180.0000771  43.9320000  2
   2128   3759   2129   2134     4  180.0000771  43.9320000  2
   2152   3771   2153   2159     4  180.0000771  43.9320000  2
   2154   3783   2155   2160     4  180.0000771  43.9320000  2
   2178   3795   2179   2185     4  180.0000771  43.9320000  2
   2180   3807   2181   2186     4  180.0000771  43.9320000  2
   2204   3819   2205   2211     4  180.0000771  43.9320000  2
   2206   3831   2207   2212     4  180.0000771  43.9320000  2
   2230   3843   2231   2237     4  180.0000771  43.9320000  2
   2232   3855   2233   2238     4  180.0000771  43.9320000  2
   2256   3867   2257   2263     4  180.0000771  43.9320000  2
   2258   3879   2259   2264     4  180.0000771  43.9320000  2
   2282   3891   2283   2289     4  180.0000771  43.9320000  2
   2284   3903   2285   2290     4  180.0000771  43.9320000  2
   2308   3915   2309   2315     4  180.0000771  43.9320000  2
   2310   3927   2311   2316     4  180.0000771  43.9320000  2
   2334   3939   2335   2341     4  180.0000771  43.9320000  2
   2336   3951   2337   2342     4  180.0000771  43.9320000  2
   2360   3963   2361   2367     4  180.0000771  43.9320000  2
   2362   3975   2363   2368     4  180.0000771  43.9320000  2
   2386   3987   2387   2393     4  180.0000771  43.9320000  2
   2388   3999   2389   2394     4  180.0000771  43.9320000  2
   2412   4011   2413   2419     4  180.0000771  43.9320000  2
   2414   4023   2415   2420     4  180.0000771  43.9320000  2
   2438   4035   2439   2445     4  180.0000771  43.9320000  2
   2440   4047   2441   2446     4  180.0000771  43.9320000  2
   2464   4059   2465   2471     4  180.0000771  43.9320000  2
   2466   4071   2467   2472     4  180.0000771  43.9320000  2
   2490   4083   2491   2497     4  180.0000771  43.9320000  2
   2492   4095   2493   2498     4  180.0000771  43.9320000  2
   2516   4107   2517   2523     4  180.0000771  43.9320000  2
   2518   4119   2519   2524     4  180.0000771  43.9320000  2
   2542   4131   2543   2549     4  180.0000771  43.9320000  2
   2544   4143   2545   2550     4  180.0000771  43.9320000  2
   2568   4155   2569   2575     4  180.0000771  43.9320000  2
   2570   4167   2571   2576     4  180.0000771  43.9320000  2
   2594   4179   2595   2601     4  180.0000771  43.9320000  2
   2596   4191   2597   2602     4  180.0000771  43.9320000  2
   2620   4203   2621   2627     4  180.0000771  43.9320000  2
   2622   4215   2623   2628     4  180.0000771  43.9320000  2
   2646   4227   2647   2653     4  180.0000771  43.9320000  2
   2648   4239   2649   2654     4  180.0000771  43.9320000  2
   2672   4251   2673   2679     4  180.0000771  43.9320000  2
   2674   4263   2675   2680     4  180.0000771  43.9320000  2
   2698   4275   2699   2705     4  180.0000771  43.9320000  2
   2700   4287   2701   2706     4  180.0000771  43.9320000  2
   2724   4299   2725   2731     4  180.0000771  43.9320000  2
   2726   4311   2727   2732     4  180.0000771  43.9320000  2
   2750   4323   2751   2757     4  180.0000771  43.9320000  2
   2752   4335   2753   2758     4  180.0000771  43.9320000  2
   2776   4347   2777   2783     4  180.0000771  43.9320000  2
   2778   4359   2779   2784     4  180.0000771  43.9320000  2
   2802   4371   2803   2809     4  180.0000771  43.9320000  2
   2804   4383   2805   2810     4  180.0000771  43.9320000  2
   2828   4395   2829   2835     4  180.0000771  43.9320000  2
   2830   4407   2831   2836     4  180.0000771  43.9320000  2
   2854   4419   2855   2861     4  180.0000771  43.9320000  2
   2856   4431   2857   2862     4  180.0000771  43.9320000  2
   2880   4443   2881   2887     4  180.0000771  43.9320000  2
   2882   4455   2883   2888     4  180.0000771  43.9320000  2
   2906   4467   2907   2913     4  180.0000771  43.9320000  2
   2908   4479   2909   2914     4  180.0000771  43.9320000  2
   2932   4491   2933   2939     4  180.0000771  43.9320000  2
   2934   4503   2935   2940     4  180.0000771  43.9320000  2
   2958   4515   2959   2965     4  180.0000771  43.9320000  2
   2960   4527   2961   2966     4  180.0000771  43.9320000  2
   2984   4539   2985   2991     4  180.0000771  43.9320000  2
   2986   4551   2987   2992     4  180.0000771  43.9320000  2
   3010   4563   3011   3017     4  180.0000771  43.9320000  2
   3012   4575   3013   3018     4  180.0000771  43.9320000  2
   3036   4587   3037   3043     4  180.0000771  43.9320000  2
   3038   4599   3039   3044     4  180.0000771  43.9320000  2
   3062   4611   3063   3069     4  180.0000771  43.9320000  2
   3064   4623   3065   3070     4  180.0000771  43.9320000  2
   3088   4635   3089   3095     4  180.0000771  43.9320000  2
   3090   4647   3091   3096     4  180.0000771  43.9320000  2
   3114   4659   3115   3121     4  180.0000771  43.9320000  2
   3116   4671   3117   3122     4  180.0000771  43.9320000  2
   3140   4683   3141   3147     4  180.0000771  43.9320000  2
   3142   4695   3143   3148     4  180.0000771  43.9320000  2
   3166   4707   3167   3173     4  180.0000771  43.9320000  2
   3168   4719   3169   3174     4  180.0000771  43.9320000  2
   3192   4731   3193   3199     4  180.0000771  43.9320000  2
   3194   4743   3195   3200     4  180.0000771  43.9320000  2
   3218   4755   3219   3225     4  180.0000771  43.9320000  2
   3220   4767   3221   3226     4  180.0000771  43.9320000  2
   3244   4779   3245   3251     4  180.0000771  43.9320000  2
   3246   4791   3247   3252     4  180.0000771  43.9320000  2
      1      2      3     23     1  0.0000000  0.6508444  3
      1      2      3     24     1  0.0000000  0.6508444  3
      1      7     13     37     1  0.0000000  0.6508444  3
      1      7     13     38     1  0.0000000  0.6508444  3
      1      8     15     39     1  0.0000000  0.6508444  3
      1      8     15     40     1  0.0000000  0.6508444  3
      2      1      7     29     1  0.0000000  0.6508444  3
      2      1      7     30     1  0.0000000  0.6508444  3
      2      1      8     31     1  0.0000000  0.6508444  3
      2      1      8     32     1  0.0000000  0.6508444  3
      2      3      4     42     1  0.0000000  0.6508444  3
     41      1      2      3     1  0.0000000  0.6508444  3
      3      4      5     25     1  0.0000000  0.6508444  3
      3      4      5     26     1  0.0000000  0.6508444  3
      3      4      6     27     1  0.0000000  0.6508444  3
      3      4      6     28     1  0.0000000  0.6508444  3
      4      3      2     21     1  0.0000000  0.6508444  3
      4      3      2     22     1  0.0000000  0.6508444  3
      4      5     11     35     1  0.0000000  0.6508444  3
      4      5     11     36     1  0.0000000  0.6508444  3
      4      6      9     33     1  0.0000000  0.6508444  3
      4      6      9     34     1  0.0000000  0.6508444  3
      5      4      3     23     1  0.0000000  0.6508444  3
      5      4      3     24     1  0.0000000  0.6508444  3
      5      4      6     27     1  0.0000000  0.6508444  3
      5      4      6     28     1  0.0000000  0.6508444  3
      6      4      3     23     1  0.0000000  0.6508444  3
      6      4      3     24     1  0.0000000  0.6508444  3
      6      4      5     25     1  0.0000000  0.6508444  3
      6      4      5     26     1  0.0000000  0.6508444  3
      7      1      2     21     1  0.0000000  0.6508444  3
      7      1      2     22     1  0.0000000  0.6508444  3
      7      1      8     31     1  0.0000000  0.6508444  3
      7      1      8     32     1  0.0000000  0.6508444  3
      8      1      2     21     1  0.0000000  0.6508444  3
      8      1      2     22     1  0.0000000  0.6508444  3
      8      1      7     29     1  0.0000000  0.6508444  3
      8      1      7     30     1  0.0000000  0.6508444  3
      9      6      4     42     1  0.0000000  0.6508444  3
      9     10     52     67     1  180.0000771  10.4600000  2
     10      9      6     27     1  0.0000000  0.6508444  3
     10      9      6     28     1  0.0000000  0.6508444  3
     10     52     51     65     1  0.0000000  0.0000000  2
     10     52     51     66     1  0.0000000  0.0000000  2
     11      5      4     42     1  0.0000000  0.6508444  3
     11     12     78     93     1  180.0000771  10.4600000  2
     12     11      5     25     1  0.0000000  0.6508444  3
     12     11      5     26     1  0.0000000  0.6508444  3
     12     78     77     91     1  0.0000000  0.0000000  2
     12     78     77     92     1  0.0000000  0.0000000  2
     41      1      7     13     1  0.0000000  0.6508444  3
     13     14    104    119     1  180.0000771  10.4600000  2
     14     13      7     29     1  0.0000000  0.6508444  3
     14     13      7     30     1  0.0000000  0.6508444  3
     14    104    103    117     1  0.0000000  0.0000000  2
     14    104    103    118     1  0.0000000  0.0000000  2
     41      1      8     15     1  0.0000000  0.6508444  3
     15     16    130    145     1  180.0000771  10.4600000  2
     16     15      8     31     1  0.0000000  0.6508444  3
     16     15      8     32     1  0.0000000  0.6508444  3
     16    130    129    143     1  0.0000000  0.0000000  2
     16    130    129    144     1  0.0000000  0.0000000  2
     17     12     11     35     1  0.0000000  3.3472000  1
     17     12     11     35     1  0.0000000  0.0000000  2
     17     12     11     35     1  180.0000771  0.3347200  3
     17     12     11     36     1  0.0000000  3.3472000  1
     17     12     11     36     1  0.0000000  0.0000000  2
     17     12     11     36     1  180.0000771  0.3347200  3
     17     12     78     93     1  0.0000000  8.3680000  1
     17     12     78     93     1  180.0000771  10.4600000  2
     18     10      9     33     1  0.0000000  3.3472000  1
     18     10      9     33     1  0.0000000  0.0000000  2
     18     10      9     33     1  180.0000771  0.3347200  3
     18     10      9     34     1  0.0000000  3.3472000  1
     18     10      9     34     1  0.0000000  0.0000000  2
     18     10      9     34     1  180.0000771  0.3347200  3
     18     10     52     67     1  0.0000000  8.3680000  1
     18     10     52     67     1  180.0000771  10.4600000  2
     19     16     15     39     1  0.0000000  3.3472000  1
     19     16     15     39     1  0.0000000  0.0000000  2
     19     16     15     39     1  180.0000771  0.3347200  3
     19     16     15     40     1  0.0000000  3.3472000  1
     19     16     15     40     1  0.0000000  0.0000000  2
     19     16     15     40     1  180.0000771  0.3347200  3
     19     16    130    145     1  0.0000000  8.3680000  1
     19     16    130    145     1  180.0000771  10.4600000  2
     20     14     13     37     1  0.0000000  3.3472000  1
     20     14     13     37     1  0.0000000  0.0000000  2
     20     14     13     37     1  180.0000771  0.3347200  3
     20     14     13     38     1  0.0000000  3.3472000  1
     20     14     13     38     1  0.0000000  0.0000000  2
     20     14     13     38     1  180.0000771  0.3347200  3
     20     14    104    119     1  0.0000000  8.3680000  1
     20     14    104    119     1  180.0000771  10.4600000  2
     41      1      2     21     1  0.0000000  0.6508444  3
     21      2      3     23     1  0.0000000  0.6508444  3
     21      2      3     24     1  0.0000000  0.6508444  3
     41      1      2     22     1  0.0000000  0.6508444  3
     22      2      3     23     1  0.0000000  0.6508444  3
     22      2      3     24     1  0.0000000  0.6508444  3
     23      3      4     42     1  0.0000000  0.6508444  3
     24      3      4     42     1  0.0000000  0.6508444  3
     25      5      4     42     1  0.0000000  0.6508444  3
     25      5     11     35     1  0.0000000  0.6508444  3
     25      5     11     36     1  0.0000000  0.6508444  3
     26      5      4     42     1  0.0000000  0.6508444  3
     26      5     11     35     1  0.0000000  0.6508444  3
     26      5     11     36     1  0.0000000  0.6508444  3
     27      6      4     42     1  0.0000000  0.6508444  3
     27      6      9     33     1  0.0000000  0.6508444  3
     27      6      9     34     1  0.0000000  0.6508444  3
     28      6      4     42     1  0.0000000  0.6508444  3
     28      6      9     33     1  0.0000000  0.6508444  3
     28      6      9     34     1  0.0000000  0.6508444  3
     41      1      7     29     1  0.0000000  0.6508444  3
     29      7     13     37     1  0.0000000  0.6508444  3
     29      7     13     38     1  0.0000000  0.6508444  3
     41      1      7     30     1  0.0000000  0.6508444  3
     30      7     13     37     1  0.0000000  0.6508444  3
     30      7     13     38     1  0.0000000  0.6508444  3
     41      1      8     31     1  0.0000000  0.6508444  3
     31      8     15     39     1  0.0000000  0.6508444  3
     31      8     15     40     1  0.0000000  0.6508444  3
     41      1      8     32     1  0.0000000  0.6508444  3
     32      8     15     39     1  0.0000000  0.6508444  3
     32      8     15     40     1  0.0000000  0.6508444  3
     33      9     10     52     1  180.0000771  0.0000000  2
     34      9     10     52     1  180.0000771  0.0000000  2
     35     11     12     78     1  180.0000771  0.0000000  2
     36     11     12     78     1  180.0000771  0.0000000  2
     37     13     14    104     1  180.0000771  0.0000000  2
     38     13     14    104     1  180.0000771  0.0000000  2
     39     15     16    130     1  180.0000771  0.0000000  2
     40     15     16    130     1  180.0000771  0.0000000  2
     43     44     46     59     1  0.0000000  0.6508444  3
     43     44     46     60     1  0.0000000  0.6508444  3
     43     45     48     61     1  0.0000000  0.6508444  3
     43     45     48     62     1  0.0000000  0.6508444  3
     43     50     51     65     1  0.0000000  0.6508444  3
     43     50     51     66     1  0.0000000  0.6508444  3
     44     43     45     57     1  0.0000000  0.6508444  3
     44     43     45     58     1  0.0000000  0.6508444  3
     44     43     50     63     1  0.0000000  0.6508444  3
     44     43     50     64     1  0.0000000  0.6508444  3
     45     43     44     55     1  0.0000000  0.6508444  3
     45     43     44     56     1  0.0000000  0.6508444  3
     45     43     50     63     1  0.0000000  0.6508444  3
     45     43     50     64     1  0.0000000  0.6508444  3
     46     44     43     68     1  0.0000000  0.6508444  3
     46     47    156    171     1  180.0000771  10.4600000  2
     47     46     44     55     1  0.0000000  0.6508444  3
     47     46     44     56     1  0.0000000  0.6508444  3
     47    156    155    169     1  0.0000000  0.0000000  2
     47    156    155    170     1  0.0000000  0.0000000  2
     48     45     43     68     1  0.0000000  0.6508444  3
     48     49    182    197     1  180.0000771  10.4600000  2
     49     48     45     57     1  0.0000000  0.6508444  3
     49     48     45     58     1  0.0000000  0.6508444  3
     49    182    181    195     1  0.0000000  0.0000000  2
     49    182    181    196     1  0.0000000  0.0000000  2
     50     43     44     55     1  0.0000000  0.6508444  3
     50     43     44     56     1  0.0000000  0.6508444  3
     50     43     45     57     1  0.0000000  0.6508444  3
     50     43     45     58     1  0.0000000  0.6508444  3
     50     51     52     67     1  0.0000000  0.0000000  2
     51     50     43     68     1  0.0000000  0.6508444  3
     52     51     50     63     1  0.0000000  0.6508444  3
     52     51     50     64     1  0.0000000  0.6508444  3
     53     47     46     59     1  0.0000000  3.3472000  1
     53     47     46     59     1  0.0000000  0.0000000  2
     53     47     46     59     1  180.0000771  0.3347200  3
     53     47     46     60     1  0.0000000  3.3472000  1
     53     47     46     60     1  0.0000000  0.0000000  2
     53     47     46     60     1  180.0000771  0.3347200  3
     53     47    156    171     1  0.0000000  8.3680000  1
     53     47    156    171     1  180.0000771  10.4600000  2
     54     49     48     61     1  0.0000000  3.3472000  1
     54     49     48     61     1  0.0000000  0.0000000  2
     54     49     48     61     1  180.0000771  0.3347200  3
     54     49     48     62     1  0.0000000  3.3472000  1
     54     49     48     62     1  0.0000000  0.0000000  2
     54     49     48     62     1  180.0000771  0.3347200  3
     54     49    182    197     1  0.0000000  8.3680000  1
     54     49    182    197     1  180.0000771  10.4600000  2
     55     44     43     68     1  0.0000000  0.6508444  3
     55     44     46     59     1  0.0000000  0.6508444  3
     55     44     46     60     1  0.0000000  0.6508444  3
     56     44     43     68     1  0.0000000  0.6508444  3
     56     44     46     59     1  0.0000000  0.6508444  3
     56     44     46     60     1  0.0000000  0.6508444  3
     57     45     43     68     1  0.0000000  0.6508444  3
     57     45     48     61     1  0.0000000  0.6508444  3
     57     45     48     62     1  0.0000000  0.6508444  3
     58     45     43     68     1  0.0000000  0.6508444  3
     58     45     48     61     1  0.0000000  0.6508444  3
     58     45     48     62     1  0.0000000  0.6508444  3
     59     46     47    156     1  180.0000771  0.0000000  2
     60     46     47    156     1  180.0000771  0.0000000  2
     61     48     49    182     1  180.0000771  0.0000000  2
     62     48     49    182     1  180.0000771  0.0000000  2
     63     50     43     68     1  0.0000000  0.6508444  3
     63     50     51     65     1  0.0000000  0.6508444  3
     63     50     51     66     1  0.0000000  0.6508444  3
     64     50     43     68     1  0.0000000  0.6508444  3
     64     50     51     65     1  0.0000000  0.6508444  3
     64     50     51     66     1  0.0000000  0.6508444  3
     65     51     52     67     1  0.0000000  0.0000000  2
     66     51     52     67     1  0.0000000  0.0000000  2
     69     70     72     85     1  0.0000000  0.6508444  3
     69     70     72     86     1  0.0000000  0.6508444  3
     69     71     74     87     1  0.0000000  0.6508444  3
     69     71     74     88     1  0.0000000  0.6508444  3
     69     76     77     91     1  0.0000000  0.6508444  3
     69     76     77     92     1  0.0000000  0.6508444  3
     70     69     71     83     1  0.0000000  0.6508444  3
     70     69     71     84     1  0.0000000  0.6508444  3
     70     69     76     89     1  0.0000000  0.6508444  3
     70     69     76     90     1  0.0000000  0.6508444  3
     71     69     70     81     1  0.0000000  0.6508444  3
     71     69     70     82     1  0.0000000  0.6508444  3
     71     69     76     89     1  0.0000000  0.6508444  3
     71     69     76     90     1  0.0000000  0.6508444  3
     72     70     69     94     1  0.0000000  0.6508444  3
     72     73    208    223     1  180.0000771  10.4600000  2
     73     72     70     81     1  0.0000000  0.6508444  3
     73     72     70     82     1  0.0000000  0.6508444  3
     73    208    207    221     1  0.0000000  0.0000000  2
     73    208    207    222     1  0.0000000  0.0000000  2
     74     71     69     94     1  0.0000000  0.6508444  3
     74     75    234    249     1  180.0000771  10.4600000  2
     75     74     71     83     1  0.0000000  0.6508444  3
     75     74     71     84     1  0.0000000  0.6508444  3
     75    234    233    247     1  0.0000000  0.0000000  2
     75    234    233    248     1  0.0000000  0.0000000  2
     76     69     70     81     1  0.0000000  0.6508444  3
     76     69     70     82     1  0.0000000  0.6508444  3
     76     69     71     83     1  0.0000000  0.6508444  3
     76     69     71     84     1  0.0000000  0.6508444  3
     76     77     78     93     1  0.0000000  0.0000000  2
     77     76     69     94     1  0.0000000  0.6508444  3
     78     77     76     89     1  0.0000000  0.6508444  3
     78     77     76     90     1  0.0000000  0.6508444  3
     79     73     72     85     1  0.0000000  3.3472000  1
     79     73     72     85     1  0.0000000  0.0000000  2
     79     73     72     85     1  180.0000771  0.3347200  3
     79     73     72     86     1  0.0000000  3.3472000  1
     79     73     72     86     1  0.0000000  0.0000000  2
     79     73     72     86     1  180.0000771  0.3347200  3
     79     73    208    223     1  0.0000000  8.3680000  1
     79     73    208    223     1  180.0000771  10.4600000  2
     80     75     74     87     1  0.0000000  3.3472000  1
     80     75     74     87     1  0.0000000  0.0000000  2
     80     75     74     87     1  180.0000771  0.3347200  3
     80     75     74     88     1  0.0000000  3.3472000  1
     80     75     74     88     1  0.0000000  0.0000000  2
     80     75     74     88     1  180.0000771  0.3347200  3
     80     75    234    249     1  0.0000000  8.3680000  1
     80     75    234    249     1  180.0000771  10.4600000  2
     81     70     69     94     1  0.0000000  0.6508444  3
     81     70     72     85     1  0.0000000  0.6508444  3
     81     70     72     86     1  0.0000000  0.6508444  3
     82     70     69     94     1  0.0000000  0.6508444  3
     82     70     72     85     1  0.0000000  0.6508444  3
     82     70     72     86     1  0.0000000  0.6508444  3
     83     71     69     94     1  0.0000000  0.6508444  3
     83     71     74     87     1  0.0000000  0.6508444  3
     83     71     74     88     1  0.0000000  0.6508444  3
     84     71     69     94     1  0.0000000  0.6508444  3
     84     71     74     87     1  0.0000000  0.6508444  3
     84     71     74     88     1  0.0000000  0.6508444  3
     85     72     73    208     1  180.0000771  0.0000000  2
     86     72     73    208     1  180.0000771  0.0000000  2
     87     74     75    234     1  180.0000771  0.0000000  2
     88     74     75    234     1  180.0000771  0.0000000  2
     89     76     69     94     1  0.0000000  0.6508444  3
     89     76     77     91     1  0.0000000  0.6508444  3
     89     76     77     92     1  0.0000000  0.6508444  3
     90     76     69     94     1  0.0000000  0.6508444  3
     90     76     77     91     1  0.0000000  0.6508444  3
     90     76     77     92     1  0.0000000  0.6508444  3
     91     77     78     93     1  0.0000000  0.0000000  2
     92     77     78     93     1  0.0000000  0.0000000  2
     95     96     98    111     1  0.0000000  0.6508444  3
     95     96     98    112     1  0.0000000  0.6508444  3
     95     97    100    113     1  0.0000000  0.6508444  3
     95     97    100    114     1  0.0000000  0.6508444  3
     95    102    103    117     1  0.0000000  0.6508444  3
     95    102    103    118     1  0.0000000  0.6508444  3
     96     95     97    109     1  0.0000000  0.6508444  3
     96     95     97    110     1  0.0000000  0.6508444  3
     96     95    102    115     1  0.0000000  0.6508444  3
     96     95    102    116     1  0.0000000  0.6508444  3
     97     95     96    107     1  0.0000000  0.6508444  3
     97     95     96    108     1  0.0000000  0.6508444  3
     97     95    102    115     1  0.0000000  0.6508444  3
     97     95    102    116     1  0.0000000  0.6508444  3
     98     96     95    120     1  0.0000000  0.6508444  3
     98     99    260    275     1  180.0000771  10.4600000  2
     99     98     96    107     1  0.0000000  0.6508444  3
     99     98     96    108     1  0.0000000  0.6508444  3
     99    260    259    273     1  0.0000000  0.0000000  2
     99    260    259    274     1  0.0000000  0.0000000  2
    100     97     95    120     1  0.0000000  0.6508444  3
    100    101    286    301     1  180.0000771  10.4600000  2
    101    100     97    109     1  0.0000000  0.6508444  3
    101    100     97    110     1  0.0000000  0.6508444  3
    101    286    285    299     1  0.0000000  0.0000000  2
    101    286    285    300     1  0.0000000  0.0000000  2
    102     95     96    107     1  0.0000000  0.6508444  3
    102     95     96    108     1  0.0000000  0.6508444  3
    102     95     97    109     1  0.0000000  0.6508444  3
    102     95     97    110     1  0.0000000  0.6508444  3
    102    103    104    119     1  0.0000000  0.0000000  2
    103    102     95    120     1  0.0000000  0.6508444  3
    104    103    102    115     1  0.0000000  0.6508444  3
    104    103    102    116     1  0.0000000  0.6508444  3
    105     99     98    111     1  0.0000000  3.3472000  1
    105     99     98    111     1  0.0000000  0.0000000  2
    105     99     98    111     1  180.0000771  0.3347200  3
    105     99     98    112     1  0.0000000  3.3472000  1
    105     99     98    112     1  0.0000000  0.0000000  2
    105     99     98    112     1  180.0000771  0.3347200  3
    105     99    260    275     1  0.0000000  8.3680000  1
    105     99    260    275     1  180.0000771  10.4600000  2
    106    101    100    113     1  0.0000000  3.3472000  1
    106    101    100    113     1  0.0000000  0.0000000  2
    106    101    100    113     1  180.0000771  0.3347200  3
    106    101    100    114     1  0.0000000  3.3472000  1
    106    101    100    114     1  0.0000000  0.0000000  2
    106    101    100    114     1  180.0000771  0.3347200  3
    106    101    286    301     1  0.0000000  8.3680000  1
    106    101    286    301     1  180.0000771  10.4600000  2
    107     96     95    120     1  0.0000000  0.6508444  3
    107     96     98    111     1  0.0000000  0.6508444  3
    107     96     98    112     1  0.0000000  0.6508444  3
    108     96     95    120     1  0.0000000  0.6508444  3
    108     96     98    111     1  0.0000000  0.6508444  3
    108     96     98    112     1  0.0000000  0.6508444  3
    109     97     95    120     1  0.0000000  0.6508444  3
    109     97    100    113     1  0.0000000  0.6508444  3
    109     97    100    114     1  0.0000000  0.6508444  3
    110     97     95    120     1  0.0000000  0.6508444  3
    110     97    100    113     1  0.0000000  0.6508444  3
    110     97    100    114     1  0.0000000  0.6508444  3
    111     98     99    260     1  180.0000771  0.0000000  2
    112     98     99    260     1  180.0000771  0.0000000  2
    113    100    101    286     1  180.0000771  0.0000000  2
    114    100    101    286     1  180.0000771  0.0000000  2
    115    102     95    120     1  0.0000000  0.6508444  3
    115    102    103    117     1  0.0000000  0.6508444  3
    115    102    103    118     1  0.0000000  0.6508444  3
    116    102     95    120     1  0.0000000  0.6508444  3
    116    102    103    117     1  0.0000000  0.6508444  3
    116    102    103    118     1  0.0000000  0.6508444  3
    117    103    104    119     1  0.0000000  0.0000000  2
    118    103    104    119     1  0.0000000  0.0000000  2
    121    122    124    137     1  0.0000000  0.6508444  3
    121    122    124    138     1  0.0000000  0.6508444  3
    121    123    126    139     1  0.0000000  0.6508444  3
    121    123    126    140     1  0.0000000  0.6508444  3
    121    128    129    143     1  0.0000000  0.6508444  3
    121    128    129    144     1  0.0000000  0.6508444  3
    122    121    123    135     1  0.0000000  0.6508444  3
    122    121    123    136     1  0.0000000  0.6508444  3
    122    121    128    141     1  0.0000000  0.6508444  3
    122    121    128    142     1  0.0000000  0.6508444  3
    123    121    122    133     1  0.0000000  0.6508444  3
    123    121    122    134     1  0.0000000  0.6508444  3
    123    121    128    141     1  0.0000000  0.6508444  3
    123    121    128    142     1  0.0000000  0.6508444  3
    124    122    121    146     1  0.0000000  0.6508444  3
    124    125    312    327     1  180.0000771  10.4600000  2
    125    124    122    133     1  0.0000000  0.6508444  3
    125    124    122    134     1  0.0000000  0.6508444  3
    125    312    311    325     1  0.0000000  0.0000000  2
    125    312    311    326     1  0.0000000  0.0000000  2
    126    123    121    146     1  0.0000000  0.6508444  3
    126    127    338    353     1  180.0000771  10.4600000  2
    127    126    123    135     1  0.0000000  0.6508444  3
    127    126    123    136     1  0.0000000  0.6508444  3
    127    338    337    351     1  0.0000000  0.0000000  2
    127    338    337    352     1  0.0000000  0.0000000  2
    128    121    122    133     1  0.0000000  0.6508444  3
    128    121    122    134     1  0.0000000  0.6508444  3
    128    121    123    135     1  0.0000000  0.6508444  3
    128    121    123    136     1  0.0000000  0.6508444  3
    128    129    130    145     1  0.0000000  0.0000000  2
    129    128    121    146     1  0.0000000  0.6508444  3
    130    129    128    141     1  0.0000000  0.6508444  3
    130    129    128    142     1  0.0000000  0.6508444  3
    131    125    124    137     1  0.0000000  3.3472000  1
    131    125    124    137     1  0.0000000  0.0000000  2
    131    125    124    137     1  180.0000771  0.3347200  3
    131    125    124    138     1  0.0000000  3.3472000  1
    131    125    124    138     1  0.0000000  0.0000000  2
    131    125    124    138     1  180.0000771  0.3347200  3
    131    125    312    327     1  0.0000000  8.3680000  1
    131    125    312    327     1  180.0000771  10.4600000  2
    132    127    126    139     1  0.0000000  3.3472000  1
    132    127    126    139     1  0.0000000  0.0000000  2
    132    127    126    139     1  180.0000771  0.3347200  3
    132    127    126    140     1  0.0000000  3.3472000  1
    132    127    126    140     1  0.0000000  0.0000000  2
    132    127    126    140     1  180.0000771  0.3347200  3
    132    127    338    353     1  0.0000000  8.3680000  1
    132    127    338    353     1  180.0000771  10.4600000  2
    133    122    121    146     1  0.0000000  0.6508444  3
    133    122    124    137     1  0.0000000  0.6508444  3
    133    122    124    138     1  0.0000000  0.6508444  3
    134    122    121    146     1  0.0000000  0.6508444  3
    134    122    124    137     1  0.0000000  0.6508444  3
    134    122    124    138     1  0.0000000  0.6508444  3
    135    123    121    146     1  0.0000000  0.6508444  3
    135    123    126    139     1  0.0000000  0.6508444  3
    135    123    126    140     1  0.0000000  0.6508444  3
    136    123    121    146     1  0.0000000  0.6508444  3
    136    123    126    139     1  0.0000000  0.6508444  3
    136    123    126    140     1  0.0000000  0.6508444  3
    137    124    125    312     1  180.0000771  0.0000000  2
    138    124    125    312     1  180.0000771  0.0000000  2
    139    126    127    338     1  180.0000771  0.0000000  2
    140    126    127    338     1  180.0000771  0.0000000  2
    141    128    121    146     1  0.0000000  0.6508444  3
    141    128    129    143     1  0.0000000  0.6508444  3
    141    128    129    144     1  0.0000000  0.6508444  3
    142    128    121    146     1  0.0000000  0.6508444  3
    142    128    129    143     1  0.0000000  0.6508444  3
    142    128    129    144     1  0.0000000  0.6508444  3
    143    129    130    145     1  0.0000000  0.0000000  2
    144    129    130    145     1  0.0000000  0.0000000  2
    147    148    150    163     1  0.0000000  0.6508444  3
    147    148    150    164     1  0.0000000  0.6508444  3
    147    149    152    165     1  0.0000000  0.6508444  3
    147    149    152    166     1  0.0000000  0.6508444  3
    147    154    155    169     1  0.0000000  0.6508444  3
    147    154    155    170     1  0.0000000  0.6508444  3
    148    147    149    161     1  0.0000000  0.6508444  3
    148    147    149    162     1  0.0000000  0.6508444  3
    148    147    154    167     1  0.0000000  0.6508444  3
    148    147    154    168     1  0.0000000  0.6508444  3
    149    147    148    159     1  0.0000000  0.6508444  3
    149    147    148    160     1  0.0000000  0.6508444  3
    149    147    154    167     1  0.0000000  0.6508444  3
    149    147    154    168     1  0.0000000  0.6508444  3
    150    148    147    172     1  0.0000000  0.6508444  3
    150    151    364    379     1  180.0000771  10.4600000  2
    151    150    148    159     1  0.0000000  0.6508444  3
    151    150    148    160     1  0.0000000  0.6508444  3
    151    364    363    377     1  0.0000000  0.0000000  2
    151    364    363    378     1  0.0000000  0.0000000  2
    152    149    147    172     1  0.0000000  0.6508444  3
    152    153    390    405     1  180.0000771  10.4600000  2
    153    152    149    161     1  0.0000000  0.6508444  3
    153    152    149    162     1  0.0000000  0.6508444  3
    153    390    389    403     1  0.0000000  0.0000000  2
    153    390    389    404     1  0.0000000  0.0000000  2
    154    147    148    159     1  0.0000000  0.6508444  3
    154    147    148    160     1  0.0000000  0.6508444  3
    154    147    149    161     1  0.0000000  0.6508444  3
    154    147    149    162     1  0.0000000  0.6508444  3
    154    155    156    171     1  0.0000000  0.0000000  2
    155    154    147    172     1  0.0000000  0.6508444  3
    156    155    154    167     1  0.0000000  0.6508444  3
    156    155    154    168     1  0.0000000  0.6508444  3
    157    151    150    163     1  0.0000000  3.3472000  1
    157    151    150    163     1  0.0000000  0.0000000  2
    157    151    150    163     1  180.0000771  0.3347200  3
    157    151    150    164     1  0.0000000  3.3472000  1
    157    151    150    164     1  0.0000000  0.0000000  2
    157    151    150    164     1  180.0000771  0.3347200  3
    157    151    364    379     1  0.0000000  8.3680000  1
    157    151    364    379     1  180.0000771  10.4600000  2
    158    153    152    165     1  0.0000000  3.3472000  1
    158    153    152    165     1  0.0000000  0.0000000  2
    158    153    152    165     1  180.0000771  0.3347200  3
    158    153    152    166     1  0.0000000  3.3472000  1
    158    153    152    166     1  0.0000000  0.0000000  2
    158    153    152    166     1  180.0000771  0.3347200  3
    158    153    390    405     1  0.0000000  8.3680000  1
    158    153    390    405     1  180.0000771  10.4600000  2
    159    148    147    172     1  0.0000000  0.6508444  3
    159    148    150    163     1  0.0000000  0.6508444  3
    159    148    150    164     1  0.0000000  0.6508444  3
    160    148    147    172     1  0.0000000  0.6508444  3
    160    148    150    163     1  0.0000000  0.6508444  3
    160    148    150    164     1  0.0000000  0.6508444  3
    161    149    147    172     1  0.0000000  0.6508444  3
    161    149    152    165     1  0.0000000  0.6508444  3
    161    149    152    166     1  0.0000000  0.6508444  3
    162    149    147    172     1  0.0000000  0.6508444  3
    162    149    152    165     1  0.0000000  0.6508444  3
    162    149    152    166     1  0.0000000  0.6508444  3
    163    150    151    364     1  180.0000771  0.0000000  2
    164    150    151    364     1  180.0000771  0.0000000  2
    165    152    153    390     1  180.0000771  0.0000000  2
    166    152    153    390     1  180.0000771  0.0000000  2
    167    154    147    172     1  0.0000000  0.6508444  3
    167    154    155    169     1  0.0000000  0.6508444  3
    167    154    155    170     1  0.0000000  0.6508444  3
    168    154    147    172     1  0.0000000  0.6508444  3
    168    154    155    169     1  0.0000000  0.6508444  3
    168    154    155    170     1  0.0000000  0.6508444  3
    169    155    156    171     1  0.0000000  0.0000000  2
    170    155    156    171     1  0.0000000  0.0000000  2
    173    174    176    189     1  0.0000000  0.6508444  3
    173    174    176    190     1  0.0000000  0.6508444  3
    173    175    178    191     1  0.0000000  0.6508444  3
    173    175    178    192     1  0.0000000  0.6508444  3
    173    180    181    195     1  0.0000000  0.6508444  3
    173    180    181    196     1  0.0000000  0.6508444  3
    174    173    175    187     1  0.0000000  0.6508444  3
    174    173    175    188     1  0.0000000  0.6508444  3
    174    173    180    193     1  0.0000000  0.6508444  3
    174    173    180    194     1  0.0000000  0.6508444  3
    175    173    174    185     1  0.0000000  0.6508444  3
    175    173    174    186     1  0.0000000  0.6508444  3
    175    173    180    193     1  0.0000000  0.6508444  3
    175    173    180    194     1  0.0000000  0.6508444  3
    176    174    173    198     1  0.0000000  0.6508444  3
    176    177    416    431     1  180.0000771  10.4600000  2
    177    176    174    185     1  0.0000000  0.6508444  3
    177    176    174    186     1  0.0000000  0.6508444  3
    177    416    415    429     1  0.0000000  0.0000000  2
    177    416    415    430     1  0.0000000  0.0000000  2
    178    175    173    198     1  0.0000000  0.6508444  3
    178    179    442    457     1  180.0000771  10.4600000  2
    179    178    175    187     1  0.0000000  0.6508444  3
    179    178    175    188     1  0.0000000  0.6508444  3
    179    442    441    455     1  0.0000000  0.0000000  2
    179    442    441    456     1  0.0000000  0.0000000  2
    180    173    174    185     1  0.0000000  0.6508444  3
    180    173    174    186     1  0.0000000  0.6508444  3
    180    173    175    187     1  0.0000000  0.6508444  3
    180    173    175    188     1  0.0000000  0.6508444  3
    180    181    182    197     1  0.0000000  0.0000000  2
    181    180    173    198     1  0.0000000  0.6508444  3
    182    181    180    193     1  0.0000000  0.6508444  3
    182    181    180    194     1  0.0000000  0.6508444  3
    183    177    176    189     1  0.0000000  3.3472000  1
    183    177    176    189     1  0.0000000  0.0000000  2
    183    177    176    189     1  180.0000771  0.3347200  3
    183    177    176    190     1  0.0000000  3.3472000  1
    183    177    176    190     1  0.0000000  0.0000000  2
    183    177    176    190     1  180.0000771  0.3347200  3
    183    177    416    431     1  0.0000000  8.3680000  1
    183    177    416    431     1  180.0000771  10.4600000  2
    184    179    178    191     1  0.0000000  3.3472000  1
    184    179    178    191     1  0.0000000  0.0000000  2
    184    179    178    191     1  180.0000771  0.3347200  3
    184    179    178    192     1  0.0000000  3.3472000  1
    184    179    178    192     1  0.0000000  0.0000000  2
    184    179    178    192     1  180.0000771  0.3347200  3
    184    179    442    457     1  0.0000000  8.3680000  1
    184    179    442    457     1  180.0000771  10.4600000  2
    185    174    173    198     1  0.0000000  0.6508444  3
    185    174    176    189     1  0.0000000  0.6508444  3
    185    174    176    190     1  0.0000000  0.6508444  3
    186    174    173    198     1  0.0000000  0.6508444  3
    186    174    176    189     1  0.0000000  0.6508444  3
    186    174    176    190     1  0.0000000  0.6508444  3
    187    175    173    198     1  0.0000000  0.6508444  3
    187    175    178    191     1  0.0000000  0.6508444  3
    187    175    178    192     1  0.0000000  0.6508444  3
    188    175    173    198     1  0.0000000  0.6508444  3
    188    175    178    191     1  0.0000000  0.6508444  3
    188    175    178    192     1  0.0000000  0.6508444  3
    189    176    177    416     1  180.0000771  0.0000000  2
    190    176    177    416     1  180.0000771  0.0000000  2
    191    178    179    442     1  180.0000771  0.0000000  2
    192    178    179    442     1  180.0000771  0.0000000  2
    193    180    173    198     1  0.0000000  0.6508444  3
    193    180    181    195     1  0.0000000  0.6508444  3
    193    180    181    196     1  0.0000000  0.6508444  3
    194    180    173    198     1  0.0000000  0.6508444  3
    194    180    181    195     1  0.0000000  0.6508444  3
    194    180    181    196     1  0.0000000  0.6508444  3
    195    181    182    197     1  0.0000000  0.0000000  2
    196    181    182    197     1  0.0000000  0.0000000  2
    199    200    202    215     1  0.0000000  0.6508444  3
    199    200    202    216     1  0.0000000  0.6508444  3
    199    201    204    217     1  0.0000000  0.6508444  3
    199    201    204    218     1  0.0000000  0.6508444  3
    199    206    207    221     1  0.0000000  0.6508444  3
    199    206    207    222     1  0.0000000  0.6508444  3
    200    199    201    213     1  0.0000000  0.6508444  3
    200    199    201    214     1  0.0000000  0.6508444  3
    200    199    206    219     1  0.0000000  0.6508444  3
    200    199    206    220     1  0.0000000  0.6508444  3
    201    199    200    211     1  0.0000000  0.6508444  3
    201    199    200    212     1  0.0000000  0.6508444  3
    201    199    206    219     1  0.0000000  0.6508444  3
    201    199    206    220     1  0.0000000  0.6508444  3
    202    200    199    224     1  0.0000000  0.6508444  3
    202    203    468    483     1  180.0000771  10.4600000  2
    203    202    200    211     1  0.0000000  0.6508444  3
    203    202    200    212     1  0.0000000  0.6508444  3
    203    468    467    481     1  0.0000000  0.0000000  2
    203    468    467    482     1  0.0000000  0.0000000  2
    204    201    199    224     1  0.0000000  0.6508444  3
    204    205    494    509     1  180.0000771  10.4600000  2
    205    204    201    213     1  0.0000000  0.6508444  3
    205    204    201    214     1  0.0000000  0.6508444  3
    205    494    493    507     1  0.0000000  0.0000000  2
    205    494    493    508     1  0.0000000  0.0000000  2
    206    199    200    211     1  0.0000000  0.6508444  3
    206    199    200    212     1  0.0000000  0.6508444  3
    206    199    201    213     1  0.0000000  0.6508444  3
    206    199    201    214     1  0.0000000  0.6508444  3
    206    207    208    223     1  0.0000000  0.0000000  2
    207    206    199    224     1  0.0000000  0.6508444  3
    208    207    206    219     1  0.0000000  0.6508444  3
    208    207    206    220     1  0.0000000  0.6508444  3
    209    203    202    215     1  0.0000000  3.3472000  1
    209    203    202    215     1  0.0000000  0.0000000  2
    209    203    202    215     1  180.0000771  0.3347200  3
    209    203    202    216     1  0.0000000  3.3472000  1
    209    203    202    216     1  0.0000000  0.0000000  2
    209    203    202    216     1  180.0000771  0.3347200  3
    209    203    468    483     1  0.0000000  8.3680000  1
    209    203    468    483     1  180.0000771  10.4600000  2
    210    205    204    217     1  0.0000000  3.3472000  1
    210    205    204    217     1  0.0000000  0.0000000  2
    210    205    204    217     1  180.0000771  0.3347200  3
    210    205    204    218     1  0.0000000  3.3472000  1
    210    205    204    218     1  0.0000000  0.0000000  2
    210    205    204    218     1  180.0000771  0.3347200  3
    210    205    494    509     1  0.0000000  8.3680000  1
    210    205    494    509     1  180.0000771  10.4600000  2
    211    200    199    224     1  0.0000000  0.6508444  3
    211    200    202    215     1  0.0000000  0.6508444  3
    211    200    202    216     1  0.0000000  0.6508444  3
    212    200    199    224     1  0.0000000  0.6508444  3
    212    200    202    215     1  0.0000000  0.6508444  3
    212    200    202    216     1  0.0000000  0.6508444  3
    213    201    199    224     1  0.0000000  0.6508444  3
    213    201    204    217     1  0.0000000  0.6508444  3
    213    201    204    218     1  0.0000000  0.6508444  3
    214    201    199    224     1  0.0000000  0.6508444  3
    214    201    204    217     1  0.0000000  0.6508444  3
    214    201    204    218     1  0.0000000  0.6508444  3
    215    202    203    468     1  180.0000771  0.0000000  2
    216    202    203    468     1  180.0000771  0.0000000  2
    217    204    205    494     1  180.0000771  0.0000000  2
    218    204    205    494     1  180.0000771  0.0000000  2
    219    206    199    224     1  0.0000000  0.6508444  3
    219    206    207    221     1  0.0000000  0.6508444  3
    219    206    207    222     1  0.0000000  0.6508444  3
    220    206    199    224     1  0.0000000  0.6508444  3
    220    206    207    221     1  0.0000000  0.6508444  3
    220    206    207    222     1  0.0000000  0.6508444  3
    221    207    208    223     1  0.0000000  0.0000000  2
    222    207    208    223     1  0.0000000  0.0000000  2
    225    226    228    241     1  0.0000000  0.6508444  3
    225    226    228    242     1  0.0000000  0.6508444  3
    225    227    230    243     1  0.0000000  0.6508444  3
    225    227    230    244     1  0.0000000  0.6508444  3
    225    232    233    247     1  0.0000000  0.6508444  3
    225    232    233    248     1  0.0000000  0.6508444  3
    226    225    227    239     1  0.0000000  0.6508444  3
    226    225    227    240     1  0.0000000  0.6508444  3
    226    225    232    245     1  0.0000000  0.6508444  3
    226    225    232    246     1  0.0000000  0.6508444  3
    227    225    226    237     1  0.0000000  0.6508444  3
    227    225    226    238     1  0.0000000  0.6508444  3
    227    225    232    245     1  0.0000000  0.6508444  3
    227    225    232    246     1  0.0000000  0.6508444  3
    228    226    225    250     1  0.0000000  0.6508444  3
    228    229    520    535     1  180.0000771  10.4600000  2
    229    228    226    237     1  0.0000000  0.6508444  3
    229    228    226    238     1  0.0000000  0.6508444  3
    229    520    519    533     1  0.0000000  0.0000000  2
    229    520    519    534     1  0.0000000  0.0000000  2
    230    227    225    250     1  0.0000000  0.6508444  3
    230    231    546    561     1  180.0000771  10.4600000  2
    231    230    227    239     1  0.0000000  0.6508444  3
    231    230    227    240     1  0.0000000  0.6508444  3
    231    546    545    559     1  0.0000000  0.0000000  2
    231    546    545    560     1  0.0000000  0.0000000  2
    232    225    226    237     1  0.0000000  0.6508444  3
    232    225    226    238     1  0.0000000  0.6508444  3
    232    225    227    239     1  0.0000000  0.6508444  3
    232    225    227    240     1  0.0000000  0.6508444  3
    232    233    234    249     1  0.0000000  0.0000000  2
    233    232    225    250     1  0.0000000  0.6508444  3
    234    233    232    245     1  0.0000000  0.6508444  3
    234    233    232    246     1  0.0000000  0.6508444  3
    235    229    228    241     1  0.0000000  3.3472000  1
    235    229    228    241     1  0.0000000  0.0000000  2
    235    229    228    241     1  180.0000771  0.3347200  3
    235    229    228    242     1  0.0000000  3.3472000  1
    235    229    228    242     1  0.0000000  0.0000000  2
    235    229    228    242     1  180.0000771  0.3347200  3
    235    229    520    535     1  0.0000000  8.3680000  1
    235    229    520    535     1  180.0000771  10.4600000  2
    236    231    230    243     1  0.0000000  3.3472000  1
    236    231    230    243     1  0.0000000  0.0000000  2
    236    231    230    243     1  180.0000771  0.3347200  3
    236    231    230    244     1  0.0000000  3.3472000  1
    236    231    230    244     1  0.0000000  0.0000000  2
    236    231    230    244     1  180.0000771  0.3347200  3
    236    231    546    561     1  0.0000000  8.3680000  1
    236    231    546    561     1  180.0000771  10.4600000  2
    237    226    225    250     1  0.0000000  0.6508444  3
    237    226    228    241     1  0.0000000  0.6508444  3
    237    226    228    242     1  0.0000000  0.6508444  3
    238    226    225    250     1  0.0000000  0.6508444  3
    238    226    228    241     1  0.0000000  0.6508444  3
    238    226    228    242     1  0.0000000  0.6508444  3
    239    227    225    250     1  0.0000000  0.6508444  3
    239    227    230    243     1  0.0000000  0.6508444  3
    239    227    230    244     1  0.0000000  0.6508444  3
    240    227    225    250     1  0.0000000  0.6508444  3
    240    227    230    243     1  0.0000000  0.6508444  3
    240    227    230    244     1  0.0000000  0.6508444  3
    241    228    229    520     1  180.0000771  0.0000000  2
    242    228    229    520     1  180.0000771  0.0000000  2
    243    230    231    546     1  180.0000771  0.0000000  2
    244    230    231    546     1  180.0000771  0.0000000  2
    245    232    225    250     1  0.0000000  0.6508444  3
    245    232    233    247     1  0.0000000  0.6508444  3
    245    232    233    248     1  0.0000000  0.6508444  3
    246    232    225    250     1  0.0000000  0.6508444  3
    246    232    233    247     1  0.0000000  0.6508444  3
    246    232    233    248     1  0.0000000  0.6508444  3
    247    233    234    249     1  0.0000000  0.0000000  2
    248    233    234    249     1  0.0000000  0.0000000  2
    251    252    254    267     1  0.0000000  0.6508444  3
    251    252    254    268     1  0.0000000  0.6508444  3
    251    253    256    269     1  0.0000000  0.6508444  3
    251    253    256    270     1  0.0000000  0.6508444  3
    251    258    259    273     1  0.0000000  0.6508444  3
    251    258    259    274     1  0.0000000  0.6508444  3
    252    251    253    265     1  0.0000000  0.6508444  3
    252    251    253    266     1  0.0000000  0.6508444  3
    252    251    258    271     1  0.0000000  0.6508444  3
    252    251    258    272     1  0.0000000  0.6508444  3
    253    251    252    263     1  0.0000000  0.6508444  3
    253    251    252    264     1  0.0000000  0.6508444  3
    253    251    258    271     1  0.0000000  0.6508444  3
    253    251    258    272     1  0.0000000  0.6508444  3
    254    252    251    276     1  0.0000000  0.6508444  3
    254    255    572    587     1  180.0000771  10.4600000  2
    255    254    252    263     1  0.0000000  0.6508444  3
    255    254    252    264     1  0.0000000  0.6508444  3
    255    572    571    585     1  0.0000000  0.0000000  2
    255    572    571    586     1  0.0000000  0.0000000  2
    256    253    251    276     1  0.0000000  0.6508444  3
    256    257    598    613     1  180.0000771  10.4600000  2
    257    256    253    265     1  0.0000000  0.6508444  3
    257    256    253    266     1  0.0000000  0.6508444  3
    257    598    597    611     1  0.0000000  0.0000000  2
    257    598    597    612     1  0.0000000  0.0000000  2
    258    251    252    263     1  0.0000000  0.6508444  3
    258    251    252    264     1  0.0000000  0.6508444  3
    258    251    253    265     1  0.0000000  0.6508444  3
    258    251    253    266     1  0.0000000  0.6508444  3
    258    259    260    275     1  0.0000000  0.0000000  2
    259    258    251    276     1  0.0000000  0.6508444  3
    260    259    258    271     1  0.0000000  0.6508444  3
    260    259    258    272     1  0.0000000  0.6508444  3
    261    255    254    267     1  0.0000000  3.3472000  1
    261    255    254    267     1  0.0000000  0.0000000  2
    261    255    254    267     1  180.0000771  0.3347200  3
    261    255    254    268     1  0.0000000  3.3472000  1
    261    255    254    268     1  0.0000000  0.0000000  2
    261    255    254    268     1  180.0000771  0.3347200  3
    261    255    572    587     1  0.0000000  8.3680000  1
    261    255    572    587     1  180.0000771  10.4600000  2
    262    257    256    269     1  0.0000000  3.3472000  1
    262    257    256    269     1  0.0000000  0.0000000  2
    262    257    256    269     1  180.0000771  0.3347200  3
    262    257    256    270     1  0.0000000  3.3472000  1
    262    257    256    270     1  0.0000000  0.0000000  2
    262    257    256    270     1  180.0000771  0.3347200  3
    262    257    598    613     1  0.0000000  8.3680000  1
    262    257    598    613     1  180.0000771  10.4600000  2
    263    252    251    276     1  0.0000000  0.6508444  3
    263    252    254    267     1  0.0000000  0.6508444  3
    263    252    254    268     1  0.0000000  0.6508444  3
    264    252    251    276     1  0.0000000  0.6508444  3
    264    252    254    267     1  0.0000000  0.6508444  3
    264    252    254    268     1  0.0000000  0.6508444  3
    265    253    251    276     1  0.0000000  0.6508444  3
    265    253    256    269     1  0.0000000  0.6508444  3
    265    253    256    270     1  0.0000000  0.6508444  3
    266    253    251    276     1  0.0000000  0.6508444  3
    266    253    256    269     1  0.0000000  0.6508444  3
    266    253    256    270     1  0.0000000  0.6508444  3
    267    254    255    572     1  180.0000771  0.0000000  2
    268    254    255    572     1  180.0000771  0.0000000  2
    269    256    257    598     1  180.0000771  0.0000000  2
    270    256    257    598     1  180.0000771  0.0000000  2
    271    258    251    276     1  0.0000000  0.6508444  3
    271    258    259    273     1  0.0000000  0.6508444  3
    271    258    259    274     1  0.0000000  0.6508444  3
    272    258    251    276     1  0.0000000  0.6508444  3
    272    258    259    273     1  0.0000000  0.6508444  3
    272    258    259    274     1  0.0000000  0.6508444  3
    273    259    260    275     1  0.0000000  0.0000000  2
    274    259    260    275     1  0.0000000  0.0000000  2
    277    278    280    293     1  0.0000000  0.6508444  3
    277    278    280    294     1  0.0000000  0.6508444  3
    277    279    282    295     1  0.0000000  0.6508444  3
    277    279    282    296     1  0.0000000  0.6508444  3
    277    284    285    299     1  0.0000000  0.6508444  3
    277    284    285    300     1  0.0000000  0.6508444  3
    278    277    279    291     1  0.0000000  0.6508444  3
    278    277    279    292     1  0.0000000  0.6508444  3
    278    277    284    297     1  0.0000000  0.6508444  3
    278    277    284    298     1  0.0000000  0.6508444  3
    279    277    278    289     1  0.0000000  0.6508444  3
    279    277    278    290     1  0.0000000  0.6508444  3
    279    277    284    297     1  0.0000000  0.6508444  3
    279    277    284    298     1  0.0000000  0.6508444  3
    280    278    277    302     1  0.0000000  0.6508444  3
    280    281    624    639     1  180.0000771  10.4600000  2
    281    280    278    289     1  0.0000000  0.6508444  3
    281    280    278    290     1  0.0000000  0.6508444  3
    281    624    623    637     1  0.0000000  0.0000000  2
    281    624    623    638     1  0.0000000  0.0000000  2
    282    279    277    302     1  0.0000000  0.6508444  3
    282    283    650    665     1  180.0000771  10.4600000  2
    283    282    279    291     1  0.0000000  0.6508444  3
    283    282    279    292     1  0.0000000  0.6508444  3
    283    650    649    663     1  0.0000000  0.0000000  2
    283    650    649    664     1  0.0000000  0.0000000  2
    284    277    278    289     1  0.0000000  0.6508444  3
    284    277    278    290     1  0.0000000  0.6508444  3
    284    277    279    291     1  0.0000000  0.6508444  3
    284    277    279    292     1  0.0000000  0.6508444  3
    284    285    286    301     1  0.0000000  0.0000000  2
    285    284    277    302     1  0.0000000  0.6508444  3
    286    285    284    297     1  0.0000000  0.6508444  3
    286    285    284    298     1  0.0000000  0.6508444  3
    287    281    280    293     1  0.0000000  3.3472000  1
    287    281    280    293     1  0.0000000  0.0000000  2
    287    281    280    293     1  180.0000771  0.3347200  3
    287    281    280    294     1  0.0000000  3.3472000  1
    287    281    280    294     1  0.0000000  0.0000000  2
    287    281    280    294     1  180.0000771  0.3347200  3
    287    281    624    639     1  0.0000000  8.3680000  1
    287    281    624    639     1  180.0000771  10.4600000  2
    288    283    282    295     1  0.0000000  3.3472000  1
    288    283    282    295     1  0.0000000  0.0000000  2
    288    283    282    295     1  180.0000771  0.3347200  3
    288    283    282    296     1  0.0000000  3.3472000  1
    288    283    282    296     1  0.0000000  0.0000000  2
    288    283    282    296     1  180.0000771  0.3347200  3
    288    283    650    665     1  0.0000000  8.3680000  1
    288    283    650    665     1  180.0000771  10.4600000  2
    289    278    277    302     1  0.0000000  0.6508444  3
    289    278    280    293     1  0.0000000  0.6508444  3
    289    278    280    294     1  0.0000000  0.6508444  3
    290    278    277    302     1  0.0000000  0.6508444  3
    290    278    280    293     1  0.0000000  0.6508444  3
    290    278    280    294     1  0.0000000  0.6508444  3
    291    279    277    302     1  0.0000000  0.6508444  3
    291    279    282    295     1  0.0000000  0.6508444  3
    291    279    282    296     1  0.0000000  0.6508444  3
    292    279    277    302     1  0.0000000  0.6508444  3
    292    279    282    295     1  0.0000000  0.6508444  3
    292    279    282    296     1  0.0000000  0.6508444  3
    293    280    281    624     1  180.0000771  0.0000000  2
    294    280    281    624     1  180.0000771  0.0000000  2
    295    282    283    650     1  180.0000771  0.0000000  2
    296    282    283    650     1  180.0000771  0.0000000  2
    297    284    277    302     1  0.0000000  0.6508444  3
    297    284    285    299     1  0.0000000  0.6508444  3
    297    284    285    300     1  0.0000000  0.6508444  3
    298    284    277    302     1  0.0000000  0.6508444  3
    298    284    285    299     1  0.0000000  0.6508444  3
    298    284    285    300     1  0.0000000  0.6508444  3
    299    285    286    301     1  0.0000000  0.0000000  2
    300    285    286    301     1  0.0000000  0.0000000  2
    303    304    306    319     1  0.0000000  0.6508444  3
    303    304    306    320     1  0.0000000  0.6508444  3
    303    305    308    321     1  0.0000000  0.6508444  3
    303    305    308    322     1  0.0000000  0.6508444  3
    303    310    311    325     1  0.0000000  0.6508444  3
    303    310    311    326     1  0.0000000  0.6508444  3
    304    303    305    317     1  0.0000000  0.6508444  3
    304    303    305    318     1  0.0000000  0.6508444  3
    304    303    310    323     1  0.0000000  0.6508444  3
    304    303    310    324     1  0.0000000  0.6508444  3
    305    303    304    315     1  0.0000000  0.6508444  3
    305    303    304    316     1  0.0000000  0.6508444  3
    305    303    310    323     1  0.0000000  0.6508444  3
    305    303    310    324     1  0.0000000  0.6508444  3
    306    304    303    328     1  0.0000000  0.6508444  3
    306    307    676    691     1  180.0000771  10.4600000  2
    307    306    304    315     1  0.0000000  0.6508444  3
    307    306    304    316     1  0.0000000  0.6508444  3
    307    676    675    689     1  0.0000000  0.0000000  2
    307    676    675    690     1  0.0000000  0.0000000  2
    308    305    303    328     1  0.0000000  0.6508444  3
    308    309    702    717     1  180.0000771  10.4600000  2
    309    308    305    317     1  0.0000000  0.6508444  3
    309    308    305    318     1  0.0000000  0.6508444  3
    309    702    701    715     1  0.0000000  0.0000000  2
    309    702    701    716     1  0.0000000  0.0000000  2
    310    303    304    315     1  0.0000000  0.6508444  3
    310    303    304    316     1  0.0000000  0.6508444  3
    310    303    305    317     1  0.0000000  0.6508444  3
    310    303    305    318     1  0.0000000  0.6508444  3
    310    311    312    327     1  0.0000000  0.0000000  2
    311    310    303    328     1  0.0000000  0.6508444  3
    312    311    310    323     1  0.0000000  0.6508444  3
    312    311    310    324     1  0.0000000  0.6508444  3
    313    307    306    319     1  0.0000000  3.3472000  1
    313    307    306    319     1  0.0000000  0.0000000  2
    313    307    306    319     1  180.0000771  0.3347200  3
    313    307    306    320     1  0.0000000  3.3472000  1
    313    307    306    320     1  0.0000000  0.0000000  2
    313    307    306    320     1  180.0000771  0.3347200  3
    313    307    676    691     1  0.0000000  8.3680000  1
    313    307    676    691     1  180.0000771  10.4600000  2
    314    309    308    321     1  0.0000000  3.3472000  1
    314    309    308    321     1  0.0000000  0.0000000  2
    314    309    308    321     1  180.0000771  0.3347200  3
    314    309    308    322     1  0.0000000  3.3472000  1
    314    309    308    322     1  0.0000000  0.0000000  2
    314    309    308    322     1  180.0000771  0.3347200  3
    314    309    702    717     1  0.0000000  8.3680000  1
    314    309    702    717     1  180.0000771  10.4600000  2
    315    304    303    328     1  0.0000000  0.6508444  3
    315    304    306    319     1  0.0000000  0.6508444  3
    315    304    306    320     1  0.0000000  0.6508444  3
    316    304    303    328     1  0.0000000  0.6508444  3
    316    304    306    319     1  0.0000000  0.6508444  3
    316    304    306    320     1  0.0000000  0.6508444  3
    317    305    303    328     1  0.0000000  0.6508444  3
    317    305    308    321     1  0.0000000  0.6508444  3
    317    305    308    322     1  0.0000000  0.6508444  3
    318    305    303    328     1  0.0000000  0.6508444  3
    318    305    308    321     1  0.0000000  0.6508444  3
    318    305    308    322     1  0.0000000  0.6508444  3
    319    306    307    676     1  180.0000771  0.0000000  2
    320    306    307    676     1  180.0000771  0.0000000  2
    321    308    309    702     1  180.0000771  0.0000000  2
    322    308    309    702     1  180.0000771  0.0000000  2
    323    310    303    328     1  0.0000000  0.6508444  3
    323    310    311    325     1  0.0000000  0.6508444  3
    323    310    311    326     1  0.0000000  0.6508444  3
    324    310    303    328     1  0.0000000  0.6508444  3
    324    310    311    325     1  0.0000000  0.6508444  3
    324    310    311    326     1  0.0000000  0.6508444  3
    325    311    312    327     1  0.0000000  0.0000000  2
    326    311    312    327     1  0.0000000  0.0000000  2
    329    330    332    345     1  0.0000000  0.6508444  3
    329    330    332    346     1  0.0000000  0.6508444  3
    329    331    334    347     1  0.0000000  0.6508444  3
    329    331    334    348     1  0.0000000  0.6508444  3
    329    336    337    351     1  0.0000000  0.6508444  3
    329    336    337    352     1  0.0000000  0.6508444  3
    330    329    331    343     1  0.0000000  0.6508444  3
    330    329    331    344     1  0.0000000  0.6508444  3
    330    329    336    349     1  0.0000000  0.6508444  3
    330    329    336    350     1  0.0000000  0.6508444  3
    331    329    330    341     1  0.0000000  0.6508444  3
    331    329    330    342     1  0.0000000  0.6508444  3
    331    329    336    349     1  0.0000000  0.6508444  3
    331    329    336    350     1  0.0000000  0.6508444  3
    332    330    329    354     1  0.0000000  0.6508444  3
    332    333    728    743     1  180.0000771  10.4600000  2
    333    332    330    341     1  0.0000000  0.6508444  3
    333    332    330    342     1  0.0000000  0.6508444  3
    333    728    727    741     1  0.0000000  0.0000000  2
    333    728    727    742     1  0.0000000  0.0000000  2
    334    331    329    354     1  0.0000000  0.6508444  3
    334    335    754    769     1  180.0000771  10.4600000  2
    335    334    331    343     1  0.0000000  0.6508444  3
    335    334    331    344     1  0.0000000  0.6508444  3
    335    754    753    767     1  0.0000000  0.0000000  2
    335    754    753    768     1  0.0000000  0.0000000  2
    336    329    330    341     1  0.0000000  0.6508444  3
    336    329    330    342     1  0.0000000  0.6508444  3
    336    329    331    343     1  0.0000000  0.6508444  3
    336    329    331    344     1  0.0000000  0.6508444  3
    336    337    338    353     1  0.0000000  0.0000000  2
    337    336    329    354     1  0.0000000  0.6508444  3
    338    337    336    349     1  0.0000000  0.6508444  3
    338    337    336    350     1  0.0000000  0.6508444  3
    339    333    332    345     1  0.0000000  3.3472000  1
    339    333    332    345     1  0.0000000  0.0000000  2
    339    333    332    345     1  180.0000771  0.3347200  3
    339    333    332    346     1  0.0000000  3.3472000  1
    339    333    332    346     1  0.0000000  0.0000000  2
    339    333    332    346     1  180.0000771  0.3347200  3
    339    333    728    743     1  0.0000000  8.3680000  1
    339    333    728    743     1  180.0000771  10.4600000  2
    340    335    334    347     1  0.0000000  3.3472000  1
    340    335    334    347     1  0.0000000  0.0000000  2
    340    335    334    347     1  180.0000771  0.3347200  3
    340    335    334    348     1  0.0000000  3.3472000  1
    340    335    334    348     1  0.0000000  0.0000000  2
    340    335    334    348     1  180.0000771  0.3347200  3
    340    335    754    769     1  0.0000000  8.3680000  1
    340    335    754    769     1  180.0000771  10.4600000  2
    341    330    329    354     1  0.0000000  0.6508444  3
    341    330    332    345     1  0.0000000  0.6508444  3
    341    330    332    346     1  0.0000000  0.6508444  3
    342    330    329    354     1  0.0000000  0.6508444  3
    342    330    332    345     1  0.0000000  0.6508444  3
    342    330    332    346     1  0.0000000  0.6508444  3
    343    331    329    354     1  0.0000000  0.6508444  3
    343    331    334    347     1  0.0000000  0.6508444  3
    343    331    334    348     1  0.0000000  0.6508444  3
    344    331    329    354     1  0.0000000  0.6508444  3
    344    331    334    347     1  0.0000000  0.6508444  3
    344    331    334    348     1  0.0000000  0.6508444  3
    345    332    333    728     1  180.0000771  0.0000000  2
    346    332    333    728     1  180.0000771  0.0000000  2
    347    334    335    754     1  180.0000771  0.0000000  2
    348    334    335    754     1  180.0000771  0.0000000  2
    349    336    329    354     1  0.0000000  0.6508444  3
    349    336    337    351     1  0.0000000  0.6508444  3
    349    336    337    352     1  0.0000000  0.6508444  3
    350    336    329    354     1  0.0000000  0.6508444  3
    350    336    337    351     1  0.0000000  0.6508444  3
    350    336    337    352     1  0.0000000  0.6508444  3
    351    337    338    353     1  0.0000000  0.0000000  2
    352    337    338    353     1  0.0000000  0.0000000  2
    355    356    358    371     1  0.0000000  0.6508444  3
    355    356    358    372     1  0.0000000  0.6508444  3
    355    357    360    373     1  0.0000000  0.6508444  3
    355    357    360    374     1  0.0000000  0.6508444  3
    355    362    363    377     1  0.0000000  0.6508444  3
    355    362    363    378     1  0.0000000  0.6508444  3
    356    355    357    369     1  0.0000000  0.6508444  3
    356    355    357    370     1  0.0000000  0.6508444  3
    356    355    362    375     1  0.0000000  0.6508444  3
    356    355    362    376     1  0.0000000  0.6508444  3
    357    355    356    367     1  0.0000000  0.6508444  3
    357    355    356    368     1  0.0000000  0.6508444  3
    357    355    362    375     1  0.0000000  0.6508444  3
    357    355    362    376     1  0.0000000  0.6508444  3
    358    356    355    380     1  0.0000000  0.6508444  3
    358    359    780    795     1  180.0000771  10.4600000  2
    359    358    356    367     1  0.0000000  0.6508444  3
    359    358    356    368     1  0.0000000  0.6508444  3
    359    780    779    793     1  0.0000000  0.0000000  2
    359    780    779    794     1  0.0000000  0.0000000  2
    360    357    355    380     1  0.0000000  0.6508444  3
    360    361    806    821     1  180.0000771  10.4600000  2
    361    360    357    369     1  0.0000000  0.6508444  3
    361    360    357    370     1  0.0000000  0.6508444  3
    361    806    805    819     1  0.0000000  0.0000000  2
    361    806    805    820     1  0.0000000  0.0000000  2
    362    355    356    367     1  0.0000000  0.6508444  3
    362    355    356    368     1  0.0000000  0.6508444  3
    362    355    357    369     1  0.0000000  0.6508444  3
    362    355    357    370     1  0.0000000  0.6508444  3
    362    363    364    379     1  0.0000000  0.0000000  2
    363    362    355    380     1  0.0000000  0.6508444  3
    364    363    362    375     1  0.0000000  0.6508444  3
    364    363    362    376     1  0.0000000  0.6508444  3
    365    359    358    371     1  0.0000000  3.3472000  1
    365    359    358    371     1  0.0000000  0.0000000  2
    365    359    358    371     1  180.0000771  0.3347200  3
    365    359    358    372     1  0.0000000  3.3472000  1
    365    359    358    372     1  0.0000000  0.0000000  2
    365    359    358    372     1  180.0000771  0.3347200  3
    365    359    780    795     1  0.0000000  8.3680000  1
    365    359    780    795     1  180.0000771  10.4600000  2
    366    361    360    373     1  0.0000000  3.3472000  1
    366    361    360    373     1  0.0000000  0.0000000  2
    366    361    360    373     1  180.0000771  0.3347200  3
    366    361    360    374     1  0.0000000  3.3472000  1
    366    361    360    374     1  0.0000000  0.0000000  2
    366    361    360    374     1  180.0000771  0.3347200  3
    366    361    806    821     1  0.0000000  8.3680000  1
    366    361    806    821     1  180.0000771  10.4600000  2
    367    356    355    380     1  0.0000000  0.6508444  3
    367    356    358    371     1  0.0000000  0.6508444  3
    367    356    358    372     1  0.0000000  0.6508444  3
    368    356    355    380     1  0.0000000  0.6508444  3
    368    356    358    371     1  0.0000000  0.6508444  3
    368    356    358    372     1  0.0000000  0.6508444  3
    369    357    355    380     1  0.0000000  0.6508444  3
    369    357    360    373     1  0.0000000  0.6508444  3
    369    357    360    374     1  0.0000000  0.6508444  3
    370    357    355    380     1  0.0000000  0.6508444  3
    370    357    360    373     1  0.0000000  0.6508444  3
    370    357    360    374     1  0.0000000  0.6508444  3
    371    358    359    780     1  180.0000771  0.0000000  2
    372    358    359    780     1  180.0000771  0.0000000  2
    373    360    361    806     1  180.0000771  0.0000000  2
    374    360    361    806     1  180.0000771  0.0000000  2
    375    362    355    380     1  0.0000000  0.6508444  3
    375    362    363    377     1  0.0000000  0.6508444  3
    375    362    363    378     1  0.0000000  0.6508444  3
    376    362    355    380     1  0.0000000  0.6508444  3
    376    362    363    377     1  0.0000000  0.6508444  3
    376    362    363    378     1  0.0000000  0.6508444  3
    377    363    364    379     1  0.0000000  0.0000000  2
    378    363    364    379     1  0.0000000  0.0000000  2
    381    382    384    397     1  0.0000000  0.6508444  3
    381    382    384    398     1  0.0000000  0.6508444  3
    381    383    386    399     1  0.0000000  0.6508444  3
    381    383    386    400     1  0.0000000  0.6508444  3
    381    388    389    403     1  0.0000000  0.6508444  3
    381    388    389    404     1  0.0000000  0.6508444  3
    382    381    383    395     1  0.0000000  0.6508444  3
    382    381    383    396     1  0.0000000  0.6508444  3
    382    381    388    401     1  0.0000000  0.6508444  3
    382    381    388    402     1  0.0000000  0.6508444  3
    383    381    382    393     1  0.0000000  0.6508444  3
    383    381    382    394     1  0.0000000  0.6508444  3
    383    381    388    401     1  0.0000000  0.6508444  3
    383    381    388    402     1  0.0000000  0.6508444  3
    384    382    381    406     1  0.0000000  0.6508444  3
    384    385    832    847     1  180.0000771  10.4600000  2
    385    384    382    393     1  0.0000000  0.6508444  3
    385    384    382    394     1  0.0000000  0.6508444  3
    385    832    831    845     1  0.0000000  0.0000000  2
    385    832    831    846     1  0.0000000  0.0000000  2
    386    383    381    406     1  0.0000000  0.6508444  3
    386    387    858    873     1  180.0000771  10.4600000  2
    387    386    383    395     1  0.0000000  0.6508444  3
    387    386    383    396     1  0.0000000  0.6508444  3
    387    858    857    871     1  0.0000000  0.0000000  2
    387    858    857    872     1  0.0000000  0.0000000  2
    388    381    382    393     1  0.0000000  0.6508444  3
    388    381    382    394     1  0.0000000  0.6508444  3
    388    381    383    395     1  0.0000000  0.6508444  3
    388    381    383    396     1  0.0000000  0.6508444  3
    388    389    390    405     1  0.0000000  0.0000000  2
    389    388    381    406     1  0.0000000  0.6508444  3
    390    389    388    401     1  0.0000000  0.6508444  3
    390    389    388    402     1  0.0000000  0.6508444  3
    391    385    384    397     1  0.0000000  3.3472000  1
    391    385    384    397     1  0.0000000  0.0000000  2
    391    385    384    397     1  180.0000771  0.3347200  3
    391    385    384    398     1  0.0000000  3.3472000  1
    391    385    384    398     1  0.0000000  0.0000000  2
    391    385    384    398     1  180.0000771  0.3347200  3
    391    385    832    847     1  0.0000000  8.3680000  1
    391    385    832    847     1  180.0000771  10.4600000  2
    392    387    386    399     1  0.0000000  3.3472000  1
    392    387    386    399     1  0.0000000  0.0000000  2
    392    387    386    399     1  180.0000771  0.3347200  3
    392    387    386    400     1  0.0000000  3.3472000  1
    392    387    386    400     1  0.0000000  0.0000000  2
    392    387    386    400     1  180.0000771  0.3347200  3
    392    387    858    873     1  0.0000000  8.3680000  1
    392    387    858    873     1  180.0000771  10.4600000  2
    393    382    381    406     1  0.0000000  0.6508444  3
    393    382    384    397     1  0.0000000  0.6508444  3
    393    382    384    398     1  0.0000000  0.6508444  3
    394    382    381    406     1  0.0000000  0.6508444  3
    394    382    384    397     1  0.0000000  0.6508444  3
    394    382    384    398     1  0.0000000  0.6508444  3
    395    383    381    406     1  0.0000000  0.6508444  3
    395    383    386    399     1  0.0000000  0.6508444  3
    395    383    386    400     1  0.0000000  0.6508444  3
    396    383    381    406     1  0.0000000  0.6508444  3
    396    383    386    399     1  0.0000000  0.6508444  3
    396    383    386    400     1  0.0000000  0.6508444  3
    397    384    385    832     1  180.0000771  0.0000000  2
    398    384    385    832     1  180.0000771  0.0000000  2
    399    386    387    858     1  180.0000771  0.0000000  2
    400    386    387    858     1  180.0000771  0.0000000  2
    401    388    381    406     1  0.0000000  0.6508444  3
    401    388    389    403     1  0.0000000  0.6508444  3
    401    388    389    404     1  0.0000000  0.6508444  3
    402    388    381    406     1  0.0000000  0.6508444  3
    402    388    389    403     1  0.0000000  0.6508444  3
    402    388    389    404     1  0.0000000  0.6508444  3
    403    389    390    405     1  0.0000000  0.0000000  2
    404    389    390    405     1  0.0000000  0.0000000  2
    407    408    410    423     1  0.0000000  0.6508444  3
    407    408    410    424     1  0.0000000  0.6508444  3
    407    409    412    425     1  0.0000000  0.6508444  3
    407    409    412    426     1  0.0000000  0.6508444  3
    407    414    415    429     1  0.0000000  0.6508444  3
    407    414    415    430     1  0.0000000  0.6508444  3
    408    407    409    421     1  0.0000000  0.6508444  3
    408    407    409    422     1  0.0000000  0.6508444  3
    408    407    414    427     1  0.0000000  0.6508444  3
    408    407    414    428     1  0.0000000  0.6508444  3
    409    407    408    419     1  0.0000000  0.6508444  3
    409    407    408    420     1  0.0000000  0.6508444  3
    409    407    414    427     1  0.0000000  0.6508444  3
    409    407    414    428     1  0.0000000  0.6508444  3
    410    408    407    432     1  0.0000000  0.6508444  3
    410    411    884    899     1  180.0000771  10.4600000  2
    411    410    408    419     1  0.0000000  0.6508444  3
    411    410    408    420     1  0.0000000  0.6508444  3
    411    884    883    897     1  0.0000000  0.0000000  2
    411    884    883    898     1  0.0000000  0.0000000  2
    412    409    407    432     1  0.0000000  0.6508444  3
    412    413    910    925     1  180.0000771  10.4600000  2
    413    412    409    421     1  0.0000000  0.6508444  3
    413    412    409    422     1  0.0000000  0.6508444  3
    413    910    909    923     1  0.0000000  0.0000000  2
    413    910    909    924     1  0.0000000  0.0000000  2
    414    407    408    419     1  0.0000000  0.6508444  3
    414    407    408    420     1  0.0000000  0.6508444  3
    414    407    409    421     1  0.0000000  0.6508444  3
    414    407    409    422     1  0.0000000  0.6508444  3
    414    415    416    431     1  0.0000000  0.0000000  2
    415    414    407    432     1  0.0000000  0.6508444  3
    416    415    414    427     1  0.0000000  0.6508444  3
    416    415    414    428     1  0.0000000  0.6508444  3
    417    411    410    423     1  0.0000000  3.3472000  1
    417    411    410    423     1  0.0000000  0.0000000  2
    417    411    410    423     1  180.0000771  0.3347200  3
    417    411    410    424     1  0.0000000  3.3472000  1
    417    411    410    424     1  0.0000000  0.0000000  2
    417    411    410    424     1  180.0000771  0.3347200  3
    417    411    884    899     1  0.0000000  8.3680000  1
    417    411    884    899     1  180.0000771  10.4600000  2
    418    413    412    425     1  0.0000000  3.3472000  1
    418    413    412    425     1  0.0000000  0.0000000  2
    418    413    412    425     1  180.0000771  0.3347200  3
    418    413    412    426     1  0.0000000  3.3472000  1
    418    413    412    426     1  0.0000000  0.0000000  2
    418    413    412    426     1  180.0000771  0.3347200  3
    418    413    910    925     1  0.0000000  8.3680000  1
    418    413    910    925     1  180.0000771  10.4600000  2
    419    408    407    432     1  0.0000000  0.6508444  3
    419    408    410    423     1  0.0000000  0.6508444  3
    419    408    410    424     1  0.0000000  0.6508444  3
    420    408    407    432     1  0.0000000  0.6508444  3
    420    408    410    423     1  0.0000000  0.6508444  3
    420    408    410    424     1  0.0000000  0.6508444  3
    421    409    407    432     1  0.0000000  0.6508444  3
    421    409    412    425     1  0.0000000  0.6508444  3
    421    409    412    426     1  0.0000000  0.6508444  3
    422    409    407    432     1  0.0000000  0.6508444  3
    422    409    412    425     1  0.0000000  0.6508444  3
    422    409    412    426     1  0.0000000  0.6508444  3
    423    410    411    884     1  180.0000771  0.0000000  2
    424    410    411    884     1  180.0000771  0.0000000  2
    425    412    413    910     1  180.0000771  0.0000000  2
    426    412    413    910     1  180.0000771  0.0000000  2
    427    414    407    432     1  0.0000000  0.6508444  3
    427    414    415    429     1  0.0000000  0.6508444  3
    427    414    415    430     1  0.0000000  0.6508444  3
    428    414    407    432     1  0.0000000  0.6508444  3
    428    414    415    429     1  0.0000000  0.6508444  3
    428    414    415    430     1  0.0000000  0.6508444  3
    429    415    416    431     1  0.0000000  0.0000000  2
    430    415    416    431     1  0.0000000  0.0000000  2
    433    434    436    449     1  0.0000000  0.6508444  3
    433    434    436    450     1  0.0000000  0.6508444  3
    433    435    438    451     1  0.0000000  0.6508444  3
    433    435    438    452     1  0.0000000  0.6508444  3
    433    440    441    455     1  0.0000000  0.6508444  3
    433    440    441    456     1  0.0000000  0.6508444  3
    434    433    435    447     1  0.0000000  0.6508444  3
    434    433    435    448     1  0.0000000  0.6508444  3
    434    433    440    453     1  0.0000000  0.6508444  3
    434    433    440    454     1  0.0000000  0.6508444  3
    435    433    434    445     1  0.0000000  0.6508444  3
    435    433    434    446     1  0.0000000  0.6508444  3
    435    433    440    453     1  0.0000000  0.6508444  3
    435    433    440    454     1  0.0000000  0.6508444  3
    436    434    433    458     1  0.0000000  0.6508444  3
    436    437    936    951     1  180.0000771  10.4600000  2
    437    436    434    445     1  0.0000000  0.6508444  3
    437    436    434    446     1  0.0000000  0.6508444  3
    437    936    935    949     1  0.0000000  0.0000000  2
    437    936    935    950     1  0.0000000  0.0000000  2
    438    435    433    458     1  0.0000000  0.6508444  3
    438    439    962    977     1  180.0000771  10.4600000  2
    439    438    435    447     1  0.0000000  0.6508444  3
    439    438    435    448     1  0.0000000  0.6508444  3
    439    962    961    975     1  0.0000000  0.0000000  2
    439    962    961    976     1  0.0000000  0.0000000  2
    440    433    434    445     1  0.0000000  0.6508444  3
    440    433    434    446     1  0.0000000  0.6508444  3
    440    433    435    447     1  0.0000000  0.6508444  3
    440    433    435    448     1  0.0000000  0.6508444  3
    440    441    442    457     1  0.0000000  0.0000000  2
    441    440    433    458     1  0.0000000  0.6508444  3
    442    441    440    453     1  0.0000000  0.6508444  3
    442    441    440    454     1  0.0000000  0.6508444  3
    443    437    436    449     1  0.0000000  3.3472000  1
    443    437    436    449     1  0.0000000  0.0000000  2
    443    437    436    449     1  180.0000771  0.3347200  3
    443    437    436    450     1  0.0000000  3.3472000  1
    443    437    436    450     1  0.0000000  0.0000000  2
    443    437    436    450     1  180.0000771  0.3347200  3
    443    437    936    951     1  0.0000000  8.3680000  1
    443    437    936    951     1  180.0000771  10.4600000  2
    444    439    438    451     1  0.0000000  3.3472000  1
    444    439    438    451     1  0.0000000  0.0000000  2
    444    439    438    451     1  180.0000771  0.3347200  3
    444    439    438    452     1  0.0000000  3.3472000  1
    444    439    438    452     1  0.0000000  0.0000000  2
    444    439    438    452     1  180.0000771  0.3347200  3
    444    439    962    977     1  0.0000000  8.3680000  1
    444    439    962    977     1  180.0000771  10.4600000  2
    445    434    433    458     1  0.0000000  0.6508444  3
    445    434    436    449     1  0.0000000  0.6508444  3
    445    434    436    450     1  0.0000000  0.6508444  3
    446    434    433    458     1  0.0000000  0.6508444  3
    446    434    436    449     1  0.0000000  0.6508444  3
    446    434    436    450     1  0.0000000  0.6508444  3
    447    435    433    458     1  0.0000000  0.6508444  3
    447    435    438    451     1  0.0000000  0.6508444  3
    447    435    438    452     1  0.0000000  0.6508444  3
    448    435    433    458     1  0.0000000  0.6508444  3
    448    435    438    451     1  0.0000000  0.6508444  3
    448    435    438    452     1  0.0000000  0.6508444  3
    449    436    437    936     1  180.0000771  0.0000000  2
    450    436    437    936     1  180.0000771  0.0000000  2
    451    438    439    962     1  180.0000771  0.0000000  2
    452    438    439    962     1  180.0000771  0.0000000  2
    453    440    433    458     1  0.0000000  0.6508444  3
    453    440    441    455     1  0.0000000  0.6508444  3
    453    440    441    456     1  0.0000000  0.6508444  3
    454    440    433    458     1  0.0000000  0.6508444  3
    454    440    441    455     1  0.0000000  0.6508444  3
    454    440    441    456     1  0.0000000  0.6508444  3
    455    441    442    457     1  0.0000000  0.0000000  2
    456    441    442    457     1  0.0000000  0.0000000  2
    459    460    462    475     1  0.0000000  0.6508444  3
    459    460    462    476     1  0.0000000  0.6508444  3
    459    461    464    477     1  0.0000000  0.6508444  3
    459    461    464    478     1  0.0000000  0.6508444  3
    459    466    467    481     1  0.0000000  0.6508444  3
    459    466    467    482     1  0.0000000  0.6508444  3
    460    459    461    473     1  0.0000000  0.6508444  3
    460    459    461    474     1  0.0000000  0.6508444  3
    460    459    466    479     1  0.0000000  0.6508444  3
    460    459    466    480     1  0.0000000  0.6508444  3
    461    459    460    471     1  0.0000000  0.6508444  3
    461    459    460    472     1  0.0000000  0.6508444  3
    461    459    466    479     1  0.0000000  0.6508444  3
    461    459    466    480     1  0.0000000  0.6508444  3
    462    460    459    484     1  0.0000000  0.6508444  3
    462    463    988   1003     1  180.0000771  10.4600000  2
    463    462    460    471     1  0.0000000  0.6508444  3
    463    462    460    472     1  0.0000000  0.6508444  3
    463    988    987   1001     1  0.0000000  0.0000000  2
    463    988    987   1002     1  0.0000000  0.0000000  2
    464    461    459    484     1  0.0000000  0.6508444  3
    464    465   1014   1029     1  180.0000771  10.4600000  2
    465    464    461    473     1  0.0000000  0.6508444  3
    465    464    461    474     1  0.0000000  0.6508444  3
    465   1014   1013   1027     1  0.0000000  0.0000000  2
    465   1014   1013   1028     1  0.0000000  0.0000000  2
    466    459    460    471     1  0.0000000  0.6508444  3
    466    459    460    472     1  0.0000000  0.6508444  3
    466    459    461    473     1  0.0000000  0.6508444  3
    466    459    461    474     1  0.0000000  0.6508444  3
    466    467    468    483     1  0.0000000  0.0000000  2
    467    466    459    484     1  0.0000000  0.6508444  3
    468    467    466    479     1  0.0000000  0.6508444  3
    468    467    466    480     1  0.0000000  0.6508444  3
    469    463    462    475     1  0.0000000  3.3472000  1
    469    463    462    475     1  0.0000000  0.0000000  2
    469    463    462    475     1  180.0000771  0.3347200  3
    469    463    462    476     1  0.0000000  3.3472000  1
    469    463    462    476     1  0.0000000  0.0000000  2
    469    463    462    476     1  180.0000771  0.3347200  3
    469    463    988   1003     1  0.0000000  8.3680000  1
    469    463    988   1003     1  180.0000771  10.4600000  2
    470    465    464    477     1  0.0000000  3.3472000  1
    470    465    464    477     1  0.0000000  0.0000000  2
    470    465    464    477     1  180.0000771  0.3347200  3
    470    465    464    478     1  0.0000000  3.3472000  1
    470    465    464    478     1  0.0000000  0.0000000  2
    470    465    464    478     1  180.0000771  0.3347200  3
    470    465   1014   1029     1  0.0000000  8.3680000  1
    470    465   1014   1029     1  180.0000771  10.4600000  2
    471    460    459    484     1  0.0000000  0.6508444  3
    471    460    462    475     1  0.0000000  0.6508444  3
    471    460    462    476     1  0.0000000  0.6508444  3
    472    460    459    484     1  0.0000000  0.6508444  3
    472    460    462    475     1  0.0000000  0.6508444  3
    472    460    462    476     1  0.0000000  0.6508444  3
    473    461    459    484     1  0.0000000  0.6508444  3
    473    461    464    477     1  0.0000000  0.6508444  3
    473    461    464    478     1  0.0000000  0.6508444  3
    474    461    459    484     1  0.0000000  0.6508444  3
    474    461    464    477     1  0.0000000  0.6508444  3
    474    461    464    478     1  0.0000000  0.6508444  3
    475    462    463    988     1  180.0000771  0.0000000  2
    476    462    463    988     1  180.0000771  0.0000000  2
    477    464    465   1014     1  180.0000771  0.0000000  2
    478    464    465   1014     1  180.0000771  0.0000000  2
    479    466    459    484     1  0.0000000  0.6508444  3
    479    466    467    481     1  0.0000000  0.6508444  3
    479    466    467    482     1  0.0000000  0.6508444  3
    480    466    459    484     1  0.0000000  0.6508444  3
    480    466    467    481     1  0.0000000  0.6508444  3
    480    466    467    482     1  0.0000000  0.6508444  3
    481    467    468    483     1  0.0000000  0.0000000  2
    482    467    468    483     1  0.0000000  0.0000000  2
    485    486    488    501     1  0.0000000  0.6508444  3
    485    486    488    502     1  0.0000000  0.6508444  3
    485    487    490    503     1  0.0000000  0.6508444  3
    485    487    490    504     1  0.0000000  0.6508444  3
    485    492    493    507     1  0.0000000  0.6508444  3
    485    492    493    508     1  0.0000000  0.6508444  3
    486    485    487    499     1  0.0000000  0.6508444  3
    486    485    487    500     1  0.0000000  0.6508444  3
    486    485    492    505     1  0.0000000  0.6508444  3
    486    485    492    506     1  0.0000000  0.6508444  3
    487    485    486    497     1  0.0000000  0.6508444  3
    487    485    486    498     1  0.0000000  0.6508444  3
    487    485    492    505     1  0.0000000  0.6508444  3
    487    485    492    506     1  0.0000000  0.6508444  3
    488    486    485    510     1  0.0000000  0.6508444  3
    488    489   1040   1055     1  180.0000771  10.4600000  2
    489    488    486    497     1  0.0000000  0.6508444  3
    489    488    486    498     1  0.0000000  0.6508444  3
    489   1040   1039   1053     1  0.0000000  0.0000000  2
    489   1040   1039   1054     1  0.0000000  0.0000000  2
    490    487    485    510     1  0.0000000  0.6508444  3
    490    491   1066   1081     1  180.0000771  10.4600000  2
    491    490    487    499     1  0.0000000  0.6508444  3
    491    490    487    500     1  0.0000000  0.6508444  3
    491   1066   1065   1079     1  0.0000000  0.0000000  2
    491   1066   1065   1080     1  0.0000000  0.0000000  2
    492    485    486    497     1  0.0000000  0.6508444  3
    492    485    486    498     1  0.0000000  0.6508444  3
    492    485    487    499     1  0.0000000  0.6508444  3
    492    485    487    500     1  0.0000000  0.6508444  3
    492    493    494    509     1  0.0000000  0.0000000  2
    493    492    485    510     1  0.0000000  0.6508444  3
    494    493    492    505     1  0.0000000  0.6508444  3
    494    493    492    506     1  0.0000000  0.6508444  3
    495    489    488    501     1  0.0000000  3.3472000  1
    495    489    488    501     1  0.0000000  0.0000000  2
    495    489    488    501     1  180.0000771  0.3347200  3
    495    489    488    502     1  0.0000000  3.3472000  1
    495    489    488    502     1  0.0000000  0.0000000  2
    495    489    488    502     1  180.0000771  0.3347200  3
    495    489   1040   1055     1  0.0000000  8.3680000  1
    495    489   1040   1055     1  180.0000771  10.4600000  2
    496    491    490    503     1  0.0000000  3.3472000  1
    496    491    490    503     1  0.0000000  0.0000000  2
    496    491    490    503     1  180.0000771  0.3347200  3
    496    491    490    504     1  0.0000000  3.3472000  1
    496    491    490    504     1  0.0000000  0.0000000  2
    496    491    490    504     1  180.0000771  0.3347200  3
    496    491   1066   1081     1  0.0000000  8.3680000  1
    496    491   1066   1081     1  180.0000771  10.4600000  2
    497    486    485    510     1  0.0000000  0.6508444  3
    497    486    488    501     1  0.0000000  0.6508444  3
    497    486    488    502     1  0.0000000  0.6508444  3
    498    486    485    510     1  0.0000000  0.6508444  3
    498    486    488    501     1  0.0000000  0.6508444  3
    498    486    488    502     1  0.0000000  0.6508444  3
    499    487    485    510     1  0.0000000  0.6508444  3
    499    487    490    503     1  0.0000000  0.6508444  3
    499    487    490    504     1  0.0000000  0.6508444  3
    500    487    485    510     1  0.0000000  0.6508444  3
    500    487    490    503     1  0.0000000  0.6508444  3
    500    487    490    504     1  0.0000000  0.6508444  3
    501    488    489   1040     1  180.0000771  0.0000000  2
    502    488    489   1040     1  180.0000771  0.0000000  2
    503    490    491   1066     1  180.0000771  0.0000000  2
    504    490    491   1066     1  180.0000771  0.0000000  2
    505    492    485    510     1  0.0000000  0.6508444  3
    505    492    493    507     1  0.0000000  0.6508444  3
    505    492    493    508     1  0.0000000  0.6508444  3
    506    492    485    510     1  0.0000000  0.6508444  3
    506    492    493    507     1  0.0000000  0.6508444  3
    506    492    493    508     1  0.0000000  0.6508444  3
    507    493    494    509     1  0.0000000  0.0000000  2
    508    493    494    509     1  0.0000000  0.0000000  2
    511    512    514    527     1  0.0000000  0.6508444  3
    511    512    514    528     1  0.0000000  0.6508444  3
    511    513    516    529     1  0.0000000  0.6508444  3
    511    513    516    530     1  0.0000000  0.6508444  3
    511    518    519    533     1  0.0000000  0.6508444  3
    511    518    519    534     1  0.0000000  0.6508444  3
    512    511    513    525     1  0.0000000  0.6508444  3
    512    511    513    526     1  0.0000000  0.6508444  3
    512    511    518    531     1  0.0000000  0.6508444  3
    512    511    518    532     1  0.0000000  0.6508444  3
    513    511    512    523     1  0.0000000  0.6508444  3
    513    511    512    524     1  0.0000000  0.6508444  3
    513    511    518    531     1  0.0000000  0.6508444  3
    513    511    518    532     1  0.0000000  0.6508444  3
    514    512    511    536     1  0.0000000  0.6508444  3
    514    515   1092   1107     1  180.0000771  10.4600000  2
    515    514    512    523     1  0.0000000  0.6508444  3
    515    514    512    524     1  0.0000000  0.6508444  3
    515   1092   1091   1105     1  0.0000000  0.0000000  2
    515   1092   1091   1106     1  0.0000000  0.0000000  2
    516    513    511    536     1  0.0000000  0.6508444  3
    516    517   1118   1133     1  180.0000771  10.4600000  2
    517    516    513    525     1  0.0000000  0.6508444  3
    517    516    513    526     1  0.0000000  0.6508444  3
    517   1118   1117   1131     1  0.0000000  0.0000000  2
    517   1118   1117   1132     1  0.0000000  0.0000000  2
    518    511    512    523     1  0.0000000  0.6508444  3
    518    511    512    524     1  0.0000000  0.6508444  3
    518    511    513    525     1  0.0000000  0.6508444  3
    518    511    513    526     1  0.0000000  0.6508444  3
    518    519    520    535     1  0.0000000  0.0000000  2
    519    518    511    536     1  0.0000000  0.6508444  3
    520    519    518    531     1  0.0000000  0.6508444  3
    520    519    518    532     1  0.0000000  0.6508444  3
    521    515    514    527     1  0.0000000  3.3472000  1
    521    515    514    527     1  0.0000000  0.0000000  2
    521    515    514    527     1  180.0000771  0.3347200  3
    521    515    514    528     1  0.0000000  3.3472000  1
    521    515    514    528     1  0.0000000  0.0000000  2
    521    515    514    528     1  180.0000771  0.3347200  3
    521    515   1092   1107     1  0.0000000  8.3680000  1
    521    515   1092   1107     1  180.0000771  10.4600000  2
    522    517    516    529     1  0.0000000  3.3472000  1
    522    517    516    529     1  0.0000000  0.0000000  2
    522    517    516    529     1  180.0000771  0.3347200  3
    522    517    516    530     1  0.0000000  3.3472000  1
    522    517    516    530     1  0.0000000  0.0000000  2
    522    517    516    530     1  180.0000771  0.3347200  3
    522    517   1118   1133     1  0.0000000  8.3680000  1
    522    517   1118   1133     1  180.0000771  10.4600000  2
    523    512    511    536     1  0.0000000  0.6508444  3
    523    512    514    527     1  0.0000000  0.6508444  3
    523    512    514    528     1  0.0000000  0.6508444  3
    524    512    511    536     1  0.0000000  0.6508444  3
    524    512    514    527     1  0.0000000  0.6508444  3
    524    512    514    528     1  0.0000000  0.6508444  3
    525    513    511    536     1  0.0000000  0.6508444  3
    525    513    516    529     1  0.0000000  0.6508444  3
    525    513    516    530     1  0.0000000  0.6508444  3
    526    513    511    536     1  0.0000000  0.6508444  3
    526    513    516    529     1  0.0000000  0.6508444  3
    526    513    516    530     1  0.0000000  0.6508444  3
    527    514    515   1092     1  180.0000771  0.0000000  2
    528    514    515   1092     1  180.0000771  0.0000000  2
    529    516    517   1118     1  180.0000771  0.0000000  2
    530    516    517   1118     1  180.0000771  0.0000000  2
    531    518    511    536     1  0.0000000  0.6508444  3
    531    518    519    533     1  0.0000000  0.6508444  3
    531    518    519    534     1  0.0000000  0.6508444  3
    532    518    511    536     1  0.0000000  0.6508444  3
    532    518    519    533     1  0.0000000  0.6508444  3
    532    518    519    534     1  0.0000000  0.6508444  3
    533    519    520    535     1  0.0000000  0.0000000  2
    534    519    520    535     1  0.0000000  0.0000000  2
    537    538    540    553     1  0.0000000  0.6508444  3
    537    538    540    554     1  0.0000000  0.6508444  3
    537    539    542    555     1  0.0000000  0.6508444  3
    537    539    542    556     1  0.0000000  0.6508444  3
    537    544    545    559     1  0.0000000  0.6508444  3
    537    544    545    560     1  0.0000000  0.6508444  3
    538    537    539    551     1  0.0000000  0.6508444  3
    538    537    539    552     1  0.0000000  0.6508444  3
    538    537    544    557     1  0.0000000  0.6508444  3
    538    537    544    558     1  0.0000000  0.6508444  3
    539    537    538    549     1  0.0000000  0.6508444  3
    539    537    538    550     1  0.0000000  0.6508444  3
    539    537    544    557     1  0.0000000  0.6508444  3
    539    537    544    558     1  0.0000000  0.6508444  3
    540    538    537    562     1  0.0000000  0.6508444  3
    540    541   1144   1159     1  180.0000771  10.4600000  2
    541    540    538    549     1  0.0000000  0.6508444  3
    541    540    538    550     1  0.0000000  0.6508444  3
    541   1144   1143   1157     1  0.0000000  0.0000000  2
    541   1144   1143   1158     1  0.0000000  0.0000000  2
    542    539    537    562     1  0.0000000  0.6508444  3
    542    543   1170   1185     1  180.0000771  10.4600000  2
    543    542    539    551     1  0.0000000  0.6508444  3
    543    542    539    552     1  0.0000000  0.6508444  3
    543   1170   1169   1183     1  0.0000000  0.0000000  2
    543   1170   1169   1184     1  0.0000000  0.0000000  2
    544    537    538    549     1  0.0000000  0.6508444  3
    544    537    538    550     1  0.0000000  0.6508444  3
    544    537    539    551     1  0.0000000  0.6508444  3
    544    537    539    552     1  0.0000000  0.6508444  3
    544    545    546    561     1  0.0000000  0.0000000  2
    545    544    537    562     1  0.0000000  0.6508444  3
    546    545    544    557     1  0.0000000  0.6508444  3
    546    545    544    558     1  0.0000000  0.6508444  3
    547    541    540    553     1  0.0000000  3.3472000  1
    547    541    540    553     1  0.0000000  0.0000000  2
    547    541    540    553     1  180.0000771  0.3347200  3
    547    541    540    554     1  0.0000000  3.3472000  1
    547    541    540    554     1  0.0000000  0.0000000  2
    547    541    540    554     1  180.0000771  0.3347200  3
    547    541   1144   1159     1  0.0000000  8.3680000  1
    547    541   1144   1159     1  180.0000771  10.4600000  2
    548    543    542    555     1  0.0000000  3.3472000  1
    548    543    542    555     1  0.0000000  0.0000000  2
    548    543    542    555     1  180.0000771  0.3347200  3
    548    543    542    556     1  0.0000000  3.3472000  1
    548    543    542    556     1  0.0000000  0.0000000  2
    548    543    542    556     1  180.0000771  0.3347200  3
    548    543   1170   1185     1  0.0000000  8.3680000  1
    548    543   1170   1185     1  180.0000771  10.4600000  2
    549    538    537    562     1  0.0000000  0.6508444  3
    549    538    540    553     1  0.0000000  0.6508444  3
    549    538    540    554     1  0.0000000  0.6508444  3
    550    538    537    562     1  0.0000000  0.6508444  3
    550    538    540    553     1  0.0000000  0.6508444  3
    550    538    540    554     1  0.0000000  0.6508444  3
    551    539    537    562     1  0.0000000  0.6508444  3
    551    539    542    555     1  0.0000000  0.6508444  3
    551    539    542    556     1  0.0000000  0.6508444  3
    552    539    537    562     1  0.0000000  0.6508444  3
    552    539    542    555     1  0.0000000  0.6508444  3
    552    539    542    556     1  0.0000000  0.6508444  3
    553    540    541   1144     1  180.0000771  0.0000000  2
    554    540    541   1144     1  180.0000771  0.0000000  2
    555    542    543   1170     1  180.0000771  0.0000000  2
    556    542    543   1170     1  180.0000771  0.0000000  2
    557    544    537    562     1  0.0000000  0.6508444  3
    557    544    545    559     1  0.0000000  0.6508444  3
    557    544    545    560     1  0.0000000  0.6508444  3
    558    544    537    562     1  0.0000000  0.6508444  3
    558    544    545    559     1  0.0000000  0.6508444  3
    558    544    545    560     1  0.0000000  0.6508444  3
    559    545    546    561     1  0.0000000  0.0000000  2
    560    545    546    561     1  0.0000000  0.0000000  2
    563    564    566    579     1  0.0000000  0.6508444  3
    563    564    566    580     1  0.0000000  0.6508444  3
    563    565    568    581     1  0.0000000  0.6508444  3
    563    565    568    582     1  0.0000000  0.6508444  3
    563    570    571    585     1  0.0000000  0.6508444  3
    563    570    571    586     1  0.0000000  0.6508444  3
    564    563    565    577     1  0.0000000  0.6508444  3
    564    563    565    578     1  0.0000000  0.6508444  3
    564    563    570    583     1  0.0000000  0.6508444  3
    564    563    570    584     1  0.0000000  0.6508444  3
    565    563    564    575     1  0.0000000  0.6508444  3
    565    563    564    576     1  0.0000000  0.6508444  3
    565    563    570    583     1  0.0000000  0.6508444  3
    565    563    570    584     1  0.0000000  0.6508444  3
    566    564    563    588     1  0.0000000  0.6508444  3
    566    567   1196   1211     1  180.0000771  10.4600000  2
    567    566    564    575     1  0.0000000  0.6508444  3
    567    566    564    576     1  0.0000000  0.6508444  3
    567   1196   1195   1209     1  0.0000000  0.0000000  2
    567   1196   1195   1210     1  0.0000000  0.0000000  2
    568    565    563    588     1  0.0000000  0.6508444  3
    568    569   1222   1237     1  180.0000771  10.4600000  2
    569    568    565    577     1  0.0000000  0.6508444  3
    569    568    565    578     1  0.0000000  0.6508444  3
    569   1222   1221   1235     1  0.0000000  0.0000000  2
    569   1222   1221   1236     1  0.0000000  0.0000000  2
    570    563    564    575     1  0.0000000  0.6508444  3
    570    563    564    576     1  0.0000000  0.6508444  3
    570    563    565    577     1  0.0000000  0.6508444  3
    570    563    565    578     1  0.0000000  0.6508444  3
    570    571    572    587     1  0.0000000  0.0000000  2
    571    570    563    588     1  0.0000000  0.6508444  3
    572    571    570    583     1  0.0000000  0.6508444  3
    572    571    570    584     1  0.0000000  0.6508444  3
    573    567    566    579     1  0.0000000  3.3472000  1
    573    567    566    579     1  0.0000000  0.0000000  2
    573    567    566    579     1  180.0000771  0.3347200  3
    573    567    566    580     1  0.0000000  3.3472000  1
    573    567    566    580     1  0.0000000  0.0000000  2
    573    567    566    580     1  180.0000771  0.3347200  3
    573    567   1196   1211     1  0.0000000  8.3680000  1
    573    567   1196   1211     1  180.0000771  10.4600000  2
    574    569    568    581     1  0.0000000  3.3472000  1
    574    569    568    581     1  0.0000000  0.0000000  2
    574    569    568    581     1  180.0000771  0.3347200  3
    574    569    568    582     1  0.0000000  3.3472000  1
    574    569    568    582     1  0.0000000  0.0000000  2
    574    569    568    582     1  180.0000771  0.3347200  3
    574    569   1222   1237     1  0.0000000  8.3680000  1
    574    569   1222   1237     1  180.0000771  10.4600000  2
    575    564    563    588     1  0.0000000  0.6508444  3
    575    564    566    579     1  0.0000000  0.6508444  3
    575    564    566    580     1  0.0000000  0.6508444  3
    576    564    563    588     1  0.0000000  0.6508444  3
    576    564    566    579     1  0.0000000  0.6508444  3
    576    564    566    580     1  0.0000000  0.6508444  3
    577    565    563    588     1  0.0000000  0.6508444  3
    577    565    568    581     1  0.0000000  0.6508444  3
    577    565    568    582     1  0.0000000  0.6508444  3
    578    565    563    588     1  0.0000000  0.6508444  3
    578    565    568    581     1  0.0000000  0.6508444  3
    578    565    568    582     1  0.0000000  0.6508444  3
    579    566    567   1196     1  180.0000771  0.0000000  2
    580    566    567   1196     1  180.0000771  0.0000000  2
    581    568    569   1222     1  180.0000771  0.0000000  2
    582    568    569   1222     1  180.0000771  0.0000000  2
    583    570    563    588     1  0.0000000  0.6508444  3
    583    570    571    585     1  0.0000000  0.6508444  3
    583    570    571    586     1  0.0000000  0.6508444  3
    584    570    563    588     1  0.0000000  0.6508444  3
    584    570    571    585     1  0.0000000  0.6508444  3
    584    570    571    586     1  0.0000000  0.6508444  3
    585    571    572    587     1  0.0000000  0.0000000  2
    586    571    572    587     1  0.0000000  0.0000000  2
    589    590    592    605     1  0.0000000  0.6508444  3
    589    590    592    606     1  0.0000000  0.6508444  3
    589    591    594    607     1  0.0000000  0.6508444  3
    589    591    594    608     1  0.0000000  0.6508444  3
    589    596    597    611     1  0.0000000  0.6508444  3
    589    596    597    612     1  0.0000000  0.6508444  3
    590    589    591    603     1  0.0000000  0.6508444  3
    590    589    591    604     1  0.0000000  0.6508444  3
    590    589    596    609     1  0.0000000  0.6508444  3
    590    589    596    610     1  0.0000000  0.6508444  3
    591    589    590    601     1  0.0000000  0.6508444  3
    591    589    590    602     1  0.0000000  0.6508444  3
    591    589    596    609     1  0.0000000  0.6508444  3
    591    589    596    610     1  0.0000000  0.6508444  3
    592    590    589    614     1  0.0000000  0.6508444  3
    592    593   1248   1263     1  180.0000771  10.4600000  2
    593    592    590    601     1  0.0000000  0.6508444  3
    593    592    590    602     1  0.0000000  0.6508444  3
    593   1248   1247   1261     1  0.0000000  0.0000000  2
    593   1248   1247   1262     1  0.0000000  0.0000000  2
    594    591    589    614     1  0.0000000  0.6508444  3
    594    595   1274   1289     1  180.0000771  10.4600000  2
    595    594    591    603     1  0.0000000  0.6508444  3
    595    594    591    604     1  0.0000000  0.6508444  3
    595   1274   1273   1287     1  0.0000000  0.0000000  2
    595   1274   1273   1288     1  0.0000000  0.0000000  2
    596    589    590    601     1  0.0000000  0.6508444  3
    596    589    590    602     1  0.0000000  0.6508444  3
    596    589    591    603     1  0.0000000  0.6508444  3
    596    589    591    604     1  0.0000000  0.6508444  3
    596    597    598    613     1  0.0000000  0.0000000  2
    597    596    589    614     1  0.0000000  0.6508444  3
    598    597    596    609     1  0.0000000  0.6508444  3
    598    597    596    610     1  0.0000000  0.6508444  3
    599    593    592    605     1  0.0000000  3.3472000  1
    599    593    592    605     1  0.0000000  0.0000000  2
    599    593    592    605     1  180.0000771  0.3347200  3
    599    593    592    606     1  0.0000000  3.3472000  1
    599    593    592    606     1  0.0000000  0.0000000  2
    599    593    592    606     1  180.0000771  0.3347200  3
    599    593   1248   1263     1  0.0000000  8.3680000  1
    599    593   1248   1263     1  180.0000771  10.4600000  2
    600    595    594    607     1  0.0000000  3.3472000  1
    600    595    594    607     1  0.0000000  0.0000000  2
    600    595    594    607     1  180.0000771  0.3347200  3
    600    595    594    608     1  0.0000000  3.3472000  1
    600    595    594    608     1  0.0000000  0.0000000  2
    600    595    594    608     1  180.0000771  0.3347200  3
    600    595   1274   1289     1  0.0000000  8.3680000  1
    600    595   1274   1289     1  180.0000771  10.4600000  2
    601    590    589    614     1  0.0000000  0.6508444  3
    601    590    592    605     1  0.0000000  0.6508444  3
    601    590    592    606     1  0.0000000  0.6508444  3
    602    590    589    614     1  0.0000000  0.6508444  3
    602    590    592    605     1  0.0000000  0.6508444  3
    602    590    592    606     1  0.0000000  0.6508444  3
    603    591    589    614     1  0.0000000  0.6508444  3
    603    591    594    607     1  0.0000000  0.6508444  3
    603    591    594    608     1  0.0000000  0.6508444  3
    604    591    589    614     1  0.0000000  0.6508444  3
    604    591    594    607     1  0.0000000  0.6508444  3
    604    591    594    608     1  0.0000000  0.6508444  3
    605    592    593   1248     1  180.0000771  0.0000000  2
    606    592    593   1248     1  180.0000771  0.0000000  2
    607    594    595   1274     1  180.0000771  0.0000000  2
    608    594    595   1274     1  180.0000771  0.0000000  2
    609    596    589    614     1  0.0000000  0.6508444  3
    609    596    597    611     1  0.0000000  0.6508444  3
    609    596    597    612     1  0.0000000  0.6508444  3
    610    596    589    614     1  0.0000000  0.6508444  3
    610    596    597    611     1  0.0000000  0.6508444  3
    610    596    597    612     1  0.0000000  0.6508444  3
    611    597    598    613     1  0.0000000  0.0000000  2
    612    597    598    613     1  0.0000000  0.0000000  2
    615    616    618    631     1  0.0000000  0.6508444  3
    615    616    618    632     1  0.0000000  0.6508444  3
    615    617    620    633     1  0.0000000  0.6508444  3
    615    617    620    634     1  0.0000000  0.6508444  3
    615    622    623    637     1  0.0000000  0.6508444  3
    615    622    623    638     1  0.0000000  0.6508444  3
    616    615    617    629     1  0.0000000  0.6508444  3
    616    615    617    630     1  0.0000000  0.6508444  3
    616    615    622    635     1  0.0000000  0.6508444  3
    616    615    622    636     1  0.0000000  0.6508444  3
    617    615    616    627     1  0.0000000  0.6508444  3
    617    615    616    628     1  0.0000000  0.6508444  3
    617    615    622    635     1  0.0000000  0.6508444  3
    617    615    622    636     1  0.0000000  0.6508444  3
    618    616    615    640     1  0.0000000  0.6508444  3
    618    619   1300   1315     1  180.0000771  10.4600000  2
    619    618    616    627     1  0.0000000  0.6508444  3
    619    618    616    628     1  0.0000000  0.6508444  3
    619   1300   1299   1313     1  0.0000000  0.0000000  2
    619   1300   1299   1314     1  0.0000000  0.0000000  2
    620    617    615    640     1  0.0000000  0.6508444  3
    620    621   1326   1341     1  180.0000771  10.4600000  2
    621    620    617    629     1  0.0000000  0.6508444  3
    621    620    617    630     1  0.0000000  0.6508444  3
    621   1326   1325   1339     1  0.0000000  0.0000000  2
    621   1326   1325   1340     1  0.0000000  0.0000000  2
    622    615    616    627     1  0.0000000  0.6508444  3
    622    615    616    628     1  0.0000000  0.6508444  3
    622    615    617    629     1  0.0000000  0.6508444  3
    622    615    617    630     1  0.0000000  0.6508444  3
    622    623    624    639     1  0.0000000  0.0000000  2
    623    622    615    640     1  0.0000000  0.6508444  3
    624    623    622    635     1  0.0000000  0.6508444  3
    624    623    622    636     1  0.0000000  0.6508444  3
    625    619    618    631     1  0.0000000  3.3472000  1
    625    619    618    631     1  0.0000000  0.0000000  2
    625    619    618    631     1  180.0000771  0.3347200  3
    625    619    618    632     1  0.0000000  3.3472000  1
    625    619    618    632     1  0.0000000  0.0000000  2
    625    619    618    632     1  180.0000771  0.3347200  3
    625    619   1300   1315     1  0.0000000  8.3680000  1
    625    619   1300   1315     1  180.0000771  10.4600000  2
    626    621    620    633     1  0.0000000  3.3472000  1
    626    621    620    633     1  0.0000000  0.0000000  2
    626    621    620    633     1  180.0000771  0.3347200  3
    626    621    620    634     1  0.0000000  3.3472000  1
    626    621    620    634     1  0.0000000  0.0000000  2
    626    621    620    634     1  180.0000771  0.3347200  3
    626    621   1326   1341     1  0.0000000  8.3680000  1
    626    621   1326   1341     1  180.0000771  10.4600000  2
    627    616    615    640     1  0.0000000  0.6508444  3
    627    616    618    631     1  0.0000000  0.6508444  3
    627    616    618    632     1  0.0000000  0.6508444  3
    628    616    615    640     1  0.0000000  0.6508444  3
    628    616    618    631     1  0.0000000  0.6508444  3
    628    616    618    632     1  0.0000000  0.6508444  3
    629    617    615    640     1  0.0000000  0.6508444  3
    629    617    620    633     1  0.0000000  0.6508444  3
    629    617    620    634     1  0.0000000  0.6508444  3
    630    617    615    640     1  0.0000000  0.6508444  3
    630    617    620    633     1  0.0000000  0.6508444  3
    630    617    620    634     1  0.0000000  0.6508444  3
    631    618    619   1300     1  180.0000771  0.0000000  2
    632    618    619   1300     1  180.0000771  0.0000000  2
    633    620    621   1326     1  180.0000771  0.0000000  2
    634    620    621   1326     1  180.0000771  0.0000000  2
    635    622    615    640     1  0.0000000  0.6508444  3
    635    622    623    637     1  0.0000000  0.6508444  3
    635    622    623    638     1  0.0000000  0.6508444  3
    636    622    615    640     1  0.0000000  0.6508444  3
    636    622    623    637     1  0.0000000  0.6508444  3
    636    622    623    638     1  0.0000000  0.6508444  3
    637    623    624    639     1  0.0000000  0.0000000  2
    638    623    624    639     1  0.0000000  0.0000000  2
    641    642    644    657     1  0.0000000  0.6508444  3
    641    642    644    658     1  0.0000000  0.6508444  3
    641    643    646    659     1  0.0000000  0.6508444  3
    641    643    646    660     1  0.0000000  0.6508444  3
    641    648    649    663     1  0.0000000  0.6508444  3
    641    648    649    664     1  0.0000000  0.6508444  3
    642    641    643    655     1  0.0000000  0.6508444  3
    642    641    643    656     1  0.0000000  0.6508444  3
    642    641    648    661     1  0.0000000  0.6508444  3
    642    641    648    662     1  0.0000000  0.6508444  3
    643    641    642    653     1  0.0000000  0.6508444  3
    643    641    642    654     1  0.0000000  0.6508444  3
    643    641    648    661     1  0.0000000  0.6508444  3
    643    641    648    662     1  0.0000000  0.6508444  3
    644    642    641    666     1  0.0000000  0.6508444  3
    644    645   1352   1367     1  180.0000771  10.4600000  2
    645    644    642    653     1  0.0000000  0.6508444  3
    645    644    642    654     1  0.0000000  0.6508444  3
    645   1352   1351   1365     1  0.0000000  0.0000000  2
    645   1352   1351   1366     1  0.0000000  0.0000000  2
    646    643    641    666     1  0.0000000  0.6508444  3
    646    647   1378   1393     1  180.0000771  10.4600000  2
    647    646    643    655     1  0.0000000  0.6508444  3
    647    646    643    656     1  0.0000000  0.6508444  3
    647   1378   1377   1391     1  0.0000000  0.0000000  2
    647   1378   1377   1392     1  0.0000000  0.0000000  2
    648    641    642    653     1  0.0000000  0.6508444  3
    648    641    642    654     1  0.0000000  0.6508444  3
    648    641    643    655     1  0.0000000  0.6508444  3
    648    641    643    656     1  0.0000000  0.6508444  3
    648    649    650    665     1  0.0000000  0.0000000  2
    649    648    641    666     1  0.0000000  0.6508444  3
    650    649    648    661     1  0.0000000  0.6508444  3
    650    649    648    662     1  0.0000000  0.6508444  3
    651    645    644    657     1  0.0000000  3.3472000  1
    651    645    644    657     1  0.0000000  0.0000000  2
    651    645    644    657     1  180.0000771  0.3347200  3
    651    645    644    658     1  0.0000000  3.3472000  1
    651    645    644    658     1  0.0000000  0.0000000  2
    651    645    644    658     1  180.0000771  0.3347200  3
    651    645   1352   1367     1  0.0000000  8.3680000  1
    651    645   1352   1367     1  180.0000771  10.4600000  2
    652    647    646    659     1  0.0000000  3.3472000  1
    652    647    646    659     1  0.0000000  0.0000000  2
    652    647    646    659     1  180.0000771  0.3347200  3
    652    647    646    660     1  0.0000000  3.3472000  1
    652    647    646    660     1  0.0000000  0.0000000  2
    652    647    646    660     1  180.0000771  0.3347200  3
    652    647   1378   1393     1  0.0000000  8.3680000  1
    652    647   1378   1393     1  180.0000771  10.4600000  2
    653    642    641    666     1  0.0000000  0.6508444  3
    653    642    644    657     1  0.0000000  0.6508444  3
    653    642    644    658     1  0.0000000  0.6508444  3
    654    642    641    666     1  0.0000000  0.6508444  3
    654    642    644    657     1  0.0000000  0.6508444  3
    654    642    644    658     1  0.0000000  0.6508444  3
    655    643    641    666     1  0.0000000  0.6508444  3
    655    643    646    659     1  0.0000000  0.6508444  3
    655    643    646    660     1  0.0000000  0.6508444  3
    656    643    641    666     1  0.0000000  0.6508444  3
    656    643    646    659     1  0.0000000  0.6508444  3
    656    643    646    660     1  0.0000000  0.6508444  3
    657    644    645   1352     1  180.0000771  0.0000000  2
    658    644    645   1352     1  180.0000771  0.0000000  2
    659    646    647   1378     1  180.0000771  0.0000000  2
    660    646    647   1378     1  180.0000771  0.0000000  2
    661    648    641    666     1  0.0000000  0.6508444  3
    661    648    649    663     1  0.0000000  0.6508444  3
    661    648    649    664     1  0.0000000  0.6508444  3
    662    648    641    666     1  0.0000000  0.6508444  3
    662    648    649    663     1  0.0000000  0.6508444  3
    662    648    649    664     1  0.0000000  0.6508444  3
    663    649    650    665     1  0.0000000  0.0000000  2
    664    649    650    665     1  0.0000000  0.0000000  2
    667    668    670    683     1  0.0000000  0.6508444  3
    667    668    670    684     1  0.0000000  0.6508444  3
    667    669    672    685     1  0.0000000  0.6508444  3
    667    669    672    686     1  0.0000000  0.6508444  3
    667    674    675    689     1  0.0000000  0.6508444  3
    667    674    675    690     1  0.0000000  0.6508444  3
    668    667    669    681     1  0.0000000  0.6508444  3
    668    667    669    682     1  0.0000000  0.6508444  3
    668    667    674    687     1  0.0000000  0.6508444  3
    668    667    674    688     1  0.0000000  0.6508444  3
    669    667    668    679     1  0.0000000  0.6508444  3
    669    667    668    680     1  0.0000000  0.6508444  3
    669    667    674    687     1  0.0000000  0.6508444  3
    669    667    674    688     1  0.0000000  0.6508444  3
    670    668    667    692     1  0.0000000  0.6508444  3
    670    671   1404   1419     1  180.0000771  10.4600000  2
    671    670    668    679     1  0.0000000  0.6508444  3
    671    670    668    680     1  0.0000000  0.6508444  3
    671   1404   1403   1417     1  0.0000000  0.0000000  2
    671   1404   1403   1418     1  0.0000000  0.0000000  2
    672    669    667    692     1  0.0000000  0.6508444  3
    672    673   1430   1445     1  180.0000771  10.4600000  2
    673    672    669    681     1  0.0000000  0.6508444  3
    673    672    669    682     1  0.0000000  0.6508444  3
    673   1430   1429   1443     1  0.0000000  0.0000000  2
    673   1430   1429   1444     1  0.0000000  0.0000000  2
    674    667    668    679     1  0.0000000  0.6508444  3
    674    667    668    680     1  0.0000000  0.6508444  3
    674    667    669    681     1  0.0000000  0.6508444  3
    674    667    669    682     1  0.0000000  0.6508444  3
    674    675    676    691     1  0.0000000  0.0000000  2
    675    674    667    692     1  0.0000000  0.6508444  3
    676    675    674    687     1  0.0000000  0.6508444  3
    676    675    674    688     1  0.0000000  0.6508444  3
    677    671    670    683     1  0.0000000  3.3472000  1
    677    671    670    683     1  0.0000000  0.0000000  2
    677    671    670    683     1  180.0000771  0.3347200  3
    677    671    670    684     1  0.0000000  3.3472000  1
    677    671    670    684     1  0.0000000  0.0000000  2
    677    671    670    684     1  180.0000771  0.3347200  3
    677    671   1404   1419     1  0.0000000  8.3680000  1
    677    671   1404   1419     1  180.0000771  10.4600000  2
    678    673    672    685     1  0.0000000  3.3472000  1
    678    673    672    685     1  0.0000000  0.0000000  2
    678    673    672    685     1  180.0000771  0.3347200  3
    678    673    672    686     1  0.0000000  3.3472000  1
    678    673    672    686     1  0.0000000  0.0000000  2
    678    673    672    686     1  180.0000771  0.3347200  3
    678    673   1430   1445     1  0.0000000  8.3680000  1
    678    673   1430   1445     1  180.0000771  10.4600000  2
    679    668    667    692     1  0.0000000  0.6508444  3
    679    668    670    683     1  0.0000000  0.6508444  3
    679    668    670    684     1  0.0000000  0.6508444  3
    680    668    667    692     1  0.0000000  0.6508444  3
    680    668    670    683     1  0.0000000  0.6508444  3
    680    668    670    684     1  0.0000000  0.6508444  3
    681    669    667    692     1  0.0000000  0.6508444  3
    681    669    672    685     1  0.0000000  0.6508444  3
    681    669    672    686     1  0.0000000  0.6508444  3
    682    669    667    692     1  0.0000000  0.6508444  3
    682    669    672    685     1  0.0000000  0.6508444  3
    682    669    672    686     1  0.0000000  0.6508444  3
    683    670    671   1404     1  180.0000771  0.0000000  2
    684    670    671   1404     1  180.0000771  0.0000000  2
    685    672    673   1430     1  180.0000771  0.0000000  2
    686    672    673   1430     1  180.0000771  0.0000000  2
    687    674    667    692     1  0.0000000  0.6508444  3
    687    674    675    689     1  0.0000000  0.6508444  3
    687    674    675    690     1  0.0000000  0.6508444  3
    688    674    667    692     1  0.0000000  0.6508444  3
    688    674    675    689     1  0.0000000  0.6508444  3
    688    674    675    690     1  0.0000000  0.6508444  3
    689    675    676    691     1  0.0000000  0.0000000  2
    690    675    676    691     1  0.0000000  0.0000000  2
    693    694    696    709     1  0.0000000  0.6508444  3
    693    694    696    710     1  0.0000000  0.6508444  3
    693    695    698    711     1  0.0000000  0.6508444  3
    693    695    698    712     1  0.0000000  0.6508444  3
    693    700    701    715     1  0.0000000  0.6508444  3
    693    700    701    716     1  0.0000000  0.6508444  3
    694    693    695    707     1  0.0000000  0.6508444  3
    694    693    695    708     1  0.0000000  0.6508444  3
    694    693    700    713     1  0.0000000  0.6508444  3
    694    693    700    714     1  0.0000000  0.6508444  3
    695    693    694    705     1  0.0000000  0.6508444  3
    695    693    694    706     1  0.0000000  0.6508444  3
    695    693    700    713     1  0.0000000  0.6508444  3
    695    693    700    714     1  0.0000000  0.6508444  3
    696    694    693    718     1  0.0000000  0.6508444  3
    696    697   1456   1471     1  180.0000771  10.4600000  2
    697    696    694    705     1  0.0000000  0.6508444  3
    697    696    694    706     1  0.0000000  0.6508444  3
    697   1456   1455   1469     1  0.0000000  0.0000000  2
    697   1456   1455   1470     1  0.0000000  0.0000000  2
    698    695    693    718     1  0.0000000  0.6508444  3
    698    699   1482   1497     1  180.0000771  10.4600000  2
    699    698    695    707     1  0.0000000  0.6508444  3
    699    698    695    708     1  0.0000000  0.6508444  3
    699   1482   1481   1495     1  0.0000000  0.0000000  2
    699   1482   1481   1496     1  0.0000000  0.0000000  2
    700    693    694    705     1  0.0000000  0.6508444  3
    700    693    694    706     1  0.0000000  0.6508444  3
    700    693    695    707     1  0.0000000  0.6508444  3
    700    693    695    708     1  0.0000000  0.6508444  3
    700    701    702    717     1  0.0000000  0.0000000  2
    701    700    693    718     1  0.0000000  0.6508444  3
    702    701    700    713     1  0.0000000  0.6508444  3
    702    701    700    714     1  0.0000000  0.6508444  3
    703    697    696    709     1  0.0000000  3.3472000  1
    703    697    696    709     1  0.0000000  0.0000000  2
    703    697    696    709     1  180.0000771  0.3347200  3
    703    697    696    710     1  0.0000000  3.3472000  1
    703    697    696    710     1  0.0000000  0.0000000  2
    703    697    696    710     1  180.0000771  0.3347200  3
    703    697   1456   1471     1  0.0000000  8.3680000  1
    703    697   1456   1471     1  180.0000771  10.4600000  2
    704    699    698    711     1  0.0000000  3.3472000  1
    704    699    698    711     1  0.0000000  0.0000000  2
    704    699    698    711     1  180.0000771  0.3347200  3
    704    699    698    712     1  0.0000000  3.3472000  1
    704    699    698    712     1  0.0000000  0.0000000  2
    704    699    698    712     1  180.0000771  0.3347200  3
    704    699   1482   1497     1  0.0000000  8.3680000  1
    704    699   1482   1497     1  180.0000771  10.4600000  2
    705    694    693    718     1  0.0000000  0.6508444  3
    705    694    696    709     1  0.0000000  0.6508444  3
    705    694    696    710     1  0.0000000  0.6508444  3
    706    694    693    718     1  0.0000000  0.6508444  3
    706    694    696    709     1  0.0000000  0.6508444  3
    706    694    696    710     1  0.0000000  0.6508444  3
    707    695    693    718     1  0.0000000  0.6508444  3
    707    695    698    711     1  0.0000000  0.6508444  3
    707    695    698    712     1  0.0000000  0.6508444  3
    708    695    693    718     1  0.0000000  0.6508444  3
    708    695    698    711     1  0.0000000  0.6508444  3
    708    695    698    712     1  0.0000000  0.6508444  3
    709    696    697   1456     1  180.0000771  0.0000000  2
    710    696    697   1456     1  180.0000771  0.0000000  2
    711    698    699   1482     1  180.0000771  0.0000000  2
    712    698    699   1482     1  180.0000771  0.0000000  2
    713    700    693    718     1  0.0000000  0.6508444  3
    713    700    701    715     1  0.0000000  0.6508444  3
    713    700    701    716     1  0.0000000  0.6508444  3
    714    700    693    718     1  0.0000000  0.6508444  3
    714    700    701    715     1  0.0000000  0.6508444  3
    714    700    701    716     1  0.0000000  0.6508444  3
    715    701    702    717     1  0.0000000  0.0000000  2
    716    701    702    717     1  0.0000000  0.0000000  2
    719    720    722    735     1  0.0000000  0.6508444  3
    719    720    722    736     1  0.0000000  0.6508444  3
    719    721    724    737     1  0.0000000  0.6508444  3
    719    721    724    738     1  0.0000000  0.6508444  3
    719    726    727    741     1  0.0000000  0.6508444  3
    719    726    727    742     1  0.0000000  0.6508444  3
    720    719    721    733     1  0.0000000  0.6508444  3
    720    719    721    734     1  0.0000000  0.6508444  3
    720    719    726    739     1  0.0000000  0.6508444  3
    720    719    726    740     1  0.0000000  0.6508444  3
    721    719    720    731     1  0.0000000  0.6508444  3
    721    719    720    732     1  0.0000000  0.6508444  3
    721    719    726    739     1  0.0000000  0.6508444  3
    721    719    726    740     1  0.0000000  0.6508444  3
    722    720    719    744     1  0.0000000  0.6508444  3
    722    723   1508   1523     1  180.0000771  10.4600000  2
    723    722    720    731     1  0.0000000  0.6508444  3
    723    722    720    732     1  0.0000000  0.6508444  3
    723   1508   1507   1521     1  0.0000000  0.0000000  2
    723   1508   1507   1522     1  0.0000000  0.0000000  2
    724    721    719    744     1  0.0000000  0.6508444  3
    724    725   1534   1549     1  180.0000771  10.4600000  2
    725    724    721    733     1  0.0000000  0.6508444  3
    725    724    721    734     1  0.0000000  0.6508444  3
    725   1534   1533   1547     1  0.0000000  0.0000000  2
    725   1534   1533   1548     1  0.0000000  0.0000000  2
    726    719    720    731     1  0.0000000  0.6508444  3
    726    719    720    732     1  0.0000000  0.6508444  3
    726    719    721    733     1  0.0000000  0.6508444  3
    726    719    721    734     1  0.0000000  0.6508444  3
    726    727    728    743     1  0.0000000  0.0000000  2
    727    726    719    744     1  0.0000000  0.6508444  3
    728    727    726    739     1  0.0000000  0.6508444  3
    728    727    726    740     1  0.0000000  0.6508444  3
    729    723    722    735     1  0.0000000  3.3472000  1
    729    723    722    735     1  0.0000000  0.0000000  2
    729    723    722    735     1  180.0000771  0.3347200  3
    729    723    722    736     1  0.0000000  3.3472000  1
    729    723    722    736     1  0.0000000  0.0000000  2
    729    723    722    736     1  180.0000771  0.3347200  3
    729    723   1508   1523     1  0.0000000  8.3680000  1
    729    723   1508   1523     1  180.0000771  10.4600000  2
    730    725    724    737     1  0.0000000  3.3472000  1
    730    725    724    737     1  0.0000000  0.0000000  2
    730    725    724    737     1  180.0000771  0.3347200  3
    730    725    724    738     1  0.0000000  3.3472000  1
    730    725    724    738     1  0.0000000  0.0000000  2
    730    725    724    738     1  180.0000771  0.3347200  3
    730    725   1534   1549     1  0.0000000  8.3680000  1
    730    725   1534   1549     1  180.0000771  10.4600000  2
    731    720    719    744     1  0.0000000  0.6508444  3
    731    720    722    735     1  0.0000000  0.6508444  3
    731    720    722    736     1  0.0000000  0.6508444  3
    732    720    719    744     1  0.0000000  0.6508444  3
    732    720    722    735     1  0.0000000  0.6508444  3
    732    720    722    736     1  0.0000000  0.6508444  3
    733    721    719    744     1  0.0000000  0.6508444  3
    733    721    724    737     1  0.0000000  0.6508444  3
    733    721    724    738     1  0.0000000  0.6508444  3
    734    721    719    744     1  0.0000000  0.6508444  3
    734    721    724    737     1  0.0000000  0.6508444  3
    734    721    724    738     1  0.0000000  0.6508444  3
    735    722    723   1508     1  180.0000771  0.0000000  2
    736    722    723   1508     1  180.0000771  0.0000000  2
    737    724    725   1534     1  180.0000771  0.0000000  2
    738    724    725   1534     1  180.0000771  0.0000000  2
    739    726    719    744     1  0.0000000  0.6508444  3
    739    726    727    741     1  0.0000000  0.6508444  3
    739    726    727    742     1  0.0000000  0.6508444  3
    740    726    719    744     1  0.0000000  0.6508444  3
    740    726    727    741     1  0.0000000  0.6508444  3
    740    726    727    742     1  0.0000000  0.6508444  3
    741    727    728    743     1  0.0000000  0.0000000  2
    742    727    728    743     1  0.0000000  0.0000000  2
    745    746    748    761     1  0.0000000  0.6508444  3
    745    746    748    762     1  0.0000000  0.6508444  3
    745    747    750    763     1  0.0000000  0.6508444  3
    745    747    750    764     1  0.0000000  0.6508444  3
    745    752    753    767     1  0.0000000  0.6508444  3
    745    752    753    768     1  0.0000000  0.6508444  3
    746    745    747    759     1  0.0000000  0.6508444  3
    746    745    747    760     1  0.0000000  0.6508444  3
    746    745    752    765     1  0.0000000  0.6508444  3
    746    745    752    766     1  0.0000000  0.6508444  3
    747    745    746    757     1  0.0000000  0.6508444  3
    747    745    746    758     1  0.0000000  0.6508444  3
    747    745    752    765     1  0.0000000  0.6508444  3
    747    745    752    766     1  0.0000000  0.6508444  3
    748    746    745    770     1  0.0000000  0.6508444  3
    748    749   1560   1575     1  180.0000771  10.4600000  2
    749    748    746    757     1  0.0000000  0.6508444  3
    749    748    746    758     1  0.0000000  0.6508444  3
    749   1560   1559   1573     1  0.0000000  0.0000000  2
    749   1560   1559   1574     1  0.0000000  0.0000000  2
    750    747    745    770     1  0.0000000  0.6508444  3
    750    751   1586   1601     1  180.0000771  10.4600000  2
    751    750    747    759     1  0.0000000  0.6508444  3
    751    750    747    760     1  0.0000000  0.6508444  3
    751   1586   1585   1599     1  0.0000000  0.0000000  2
    751   1586   1585   1600     1  0.0000000  0.0000000  2
    752    745    746    757     1  0.0000000  0.6508444  3
    752    745    746    758     1  0.0000000  0.6508444  3
    752    745    747    759     1  0.0000000  0.6508444  3
    752    745    747    760     1  0.0000000  0.6508444  3
    752    753    754    769     1  0.0000000  0.0000000  2
    753    752    745    770     1  0.0000000  0.6508444  3
    754    753    752    765     1  0.0000000  0.6508444  3
    754    753    752    766     1  0.0000000  0.6508444  3
    755    749    748    761     1  0.0000000  3.3472000  1
    755    749    748    761     1  0.0000000  0.0000000  2
    755    749    748    761     1  180.0000771  0.3347200  3
    755    749    748    762     1  0.0000000  3.3472000  1
    755    749    748    762     1  0.0000000  0.0000000  2
    755    749    748    762     1  180.0000771  0.3347200  3
    755    749   1560   1575     1  0.0000000  8.3680000  1
    755    749   1560   1575     1  180.0000771  10.4600000  2
    756    751    750    763     1  0.0000000  3.3472000  1
    756    751    750    763     1  0.0000000  0.0000000  2
    756    751    750    763     1  180.0000771  0.3347200  3
    756    751    750    764     1  0.0000000  3.3472000  1
    756    751    750    764     1  0.0000000  0.0000000  2
    756    751    750    764     1  180.0000771  0.3347200  3
    756    751   1586   1601     1  0.0000000  8.3680000  1
    756    751   1586   1601     1  180.0000771  10.4600000  2
    757    746    745    770     1  0.0000000  0.6508444  3
    757    746    748    761     1  0.0000000  0.6508444  3
    757    746    748    762     1  0.0000000  0.6508444  3
    758    746    745    770     1  0.0000000  0.6508444  3
    758    746    748    761     1  0.0000000  0.6508444  3
    758    746    748    762     1  0.0000000  0.6508444  3
    759    747    745    770     1  0.0000000  0.6508444  3
    759    747    750    763     1  0.0000000  0.6508444  3
    759    747    750    764     1  0.0000000  0.6508444  3
    760    747    745    770     1  0.0000000  0.6508444  3
    760    747    750    763     1  0.0000000  0.6508444  3
    760    747    750    764     1  0.0000000  0.6508444  3
    761    748    749   1560     1  180.0000771  0.0000000  2
    762    748    749   1560     1  180.0000771  0.0000000  2
    763    750    751   1586     1  180.0000771  0.0000000  2
    764    750    751   1586     1  180.0000771  0.0000000  2
    765    752    745    770     1  0.0000000  0.6508444  3
    765    752    753    767     1  0.0000000  0.6508444  3
    765    752    753    768     1  0.0000000  0.6508444  3
    766    752    745    770     1  0.0000000  0.6508444  3
    766    752    753    767     1  0.0000000  0.6508444  3
    766    752    753    768     1  0.0000000  0.6508444  3
    767    753    754    769     1  0.0000000  0.0000000  2
    768    753    754    769     1  0.0000000  0.0000000  2
    771    772    774    787     1  0.0000000  0.6508444  3
    771    772    774    788     1  0.0000000  0.6508444  3
    771    773    776    789     1  0.0000000  0.6508444  3
    771    773    776    790     1  0.0000000  0.6508444  3
    771    778    779    793     1  0.0000000  0.6508444  3
    771    778    779    794     1  0.0000000  0.6508444  3
    772    771    773    785     1  0.0000000  0.6508444  3
    772    771    773    786     1  0.0000000  0.6508444  3
    772    771    778    791     1  0.0000000  0.6508444  3
    772    771    778    792     1  0.0000000  0.6508444  3
    773    771    772    783     1  0.0000000  0.6508444  3
    773    771    772    784     1  0.0000000  0.6508444  3
    773    771    778    791     1  0.0000000  0.6508444  3
    773    771    778    792     1  0.0000000  0.6508444  3
    774    772    771    796     1  0.0000000  0.6508444  3
    774    775   1612   1627     1  180.0000771  10.4600000  2
    775    774    772    783     1  0.0000000  0.6508444  3
    775    774    772    784     1  0.0000000  0.6508444  3
    775   1612   1611   1625     1  0.0000000  0.0000000  2
    775   1612   1611   1626     1  0.0000000  0.0000000  2
    776    773    771    796     1  0.0000000  0.6508444  3
    776    777   1638   1653     1  180.0000771  10.4600000  2
    777    776    773    785     1  0.0000000  0.6508444  3
    777    776    773    786     1  0.0000000  0.6508444  3
    777   1638   1637   1651     1  0.0000000  0.0000000  2
    777   1638   1637   1652     1  0.0000000  0.0000000  2
    778    771    772    783     1  0.0000000  0.6508444  3
    778    771    772    784     1  0.0000000  0.6508444  3
    778    771    773    785     1  0.0000000  0.6508444  3
    778    771    773    786     1  0.0000000  0.6508444  3
    778    779    780    795     1  0.0000000  0.0000000  2
    779    778    771    796     1  0.0000000  0.6508444  3
    780    779    778    791     1  0.0000000  0.6508444  3
    780    779    778    792     1  0.0000000  0.6508444  3
    781    775    774    787     1  0.0000000  3.3472000  1
    781    775    774    787     1  0.0000000  0.0000000  2
    781    775    774    787     1  180.0000771  0.3347200  3
    781    775    774    788     1  0.0000000  3.3472000  1
    781    775    774    788     1  0.0000000  0.0000000  2
    781    775    774    788     1  180.0000771  0.3347200  3
    781    775   1612   1627     1  0.0000000  8.3680000  1
    781    775   1612   1627     1  180.0000771  10.4600000  2
    782    777    776    789     1  0.0000000  3.3472000  1
    782    777    776    789     1  0.0000000  0.0000000  2
    782    777    776    789     1  180.0000771  0.3347200  3
    782    777    776    790     1  0.0000000  3.3472000  1
    782    777    776    790     1  0.0000000  0.0000000  2
    782    777    776    790     1  180.0000771  0.3347200  3
    782    777   1638   1653     1  0.0000000  8.3680000  1
    782    777   1638   1653     1  180.0000771  10.4600000  2
    783    772    771    796     1  0.0000000  0.6508444  3
    783    772    774    787     1  0.0000000  0.6508444  3
    783    772    774    788     1  0.0000000  0.6508444  3
    784    772    771    796     1  0.0000000  0.6508444  3
    784    772    774    787     1  0.0000000  0.6508444  3
    784    772    774    788     1  0.0000000  0.6508444  3
    785    773    771    796     1  0.0000000  0.6508444  3
    785    773    776    789     1  0.0000000  0.6508444  3
    785    773    776    790     1  0.0000000  0.6508444  3
    786    773    771    796     1  0.0000000  0.6508444  3
    786    773    776    789     1  0.0000000  0.6508444  3
    786    773    776    790     1  0.0000000  0.6508444  3
    787    774    775   1612     1  180.0000771  0.0000000  2
    788    774    775   1612     1  180.0000771  0.0000000  2
    789    776    777   1638     1  180.0000771  0.0000000  2
    790    776    777   1638     1  180.0000771  0.0000000  2
    791    778    771    796     1  0.0000000  0.6508444  3
    791    778    779    793     1  0.0000000  0.6508444  3
    791    778    779    794     1  0.0000000  0.6508444  3
    792    778    771    796     1  0.0000000  0.6508444  3
    792    778    779    793     1  0.0000000  0.6508444  3
    792    778    779    794     1  0.0000000  0.6508444  3
    793    779    780    795     1  0.0000000  0.0000000  2
    794    779    780    795     1  0.0000000  0.0000000  2
    797    798    800    813     1  0.0000000  0.6508444  3
    797    798    800    814     1  0.0000000  0.6508444  3
    797    799    802    815     1  0.0000000  0.6508444  3
    797    799    802    816     1  0.0000000  0.6508444  3
    797    804    805    819     1  0.0000000  0.6508444  3
    797    804    805    820     1  0.0000000  0.6508444  3
    798    797    799    811     1  0.0000000  0.6508444  3
    798    797    799    812     1  0.0000000  0.6508444  3
    798    797    804    817     1  0.0000000  0.6508444  3
    798    797    804    818     1  0.0000000  0.6508444  3
    799    797    798    809     1  0.0000000  0.6508444  3
    799    797    798    810     1  0.0000000  0.6508444  3
    799    797    804    817     1  0.0000000  0.6508444  3
    799    797    804    818     1  0.0000000  0.6508444  3
    800    798    797    822     1  0.0000000  0.6508444  3
    800    801   1664   1679     1  180.0000771  10.4600000  2
    801    800    798    809     1  0.0000000  0.6508444  3
    801    800    798    810     1  0.0000000  0.6508444  3
    801   1664   1663   1677     1  0.0000000  0.0000000  2
    801   1664   1663   1678     1  0.0000000  0.0000000  2
    802    799    797    822     1  0.0000000  0.6508444  3
    802    803   1690   1705     1  180.0000771  10.4600000  2
    803    802    799    811     1  0.0000000  0.6508444  3
    803    802    799    812     1  0.0000000  0.6508444  3
    803   1690   1689   1703     1  0.0000000  0.0000000  2
    803   1690   1689   1704     1  0.0000000  0.0000000  2
    804    797    798    809     1  0.0000000  0.6508444  3
    804    797    798    810     1  0.0000000  0.6508444  3
    804    797    799    811     1  0.0000000  0.6508444  3
    804    797    799    812     1  0.0000000  0.6508444  3
    804    805    806    821     1  0.0000000  0.0000000  2
    805    804    797    822     1  0.0000000  0.6508444  3
    806    805    804    817     1  0.0000000  0.6508444  3
    806    805    804    818     1  0.0000000  0.6508444  3
    807    801    800    813     1  0.0000000  3.3472000  1
    807    801    800    813     1  0.0000000  0.0000000  2
    807    801    800    813     1  180.0000771  0.3347200  3
    807    801    800    814     1  0.0000000  3.3472000  1
    807    801    800    814     1  0.0000000  0.0000000  2
    807    801    800    814     1  180.0000771  0.3347200  3
    807    801   1664   1679     1  0.0000000  8.3680000  1
    807    801   1664   1679     1  180.0000771  10.4600000  2
    808    803    802    815     1  0.0000000  3.3472000  1
    808    803    802    815     1  0.0000000  0.0000000  2
    808    803    802    815     1  180.0000771  0.3347200  3
    808    803    802    816     1  0.0000000  3.3472000  1
    808    803    802    816     1  0.0000000  0.0000000  2
    808    803    802    816     1  180.0000771  0.3347200  3
    808    803   1690   1705     1  0.0000000  8.3680000  1
    808    803   1690   1705     1  180.0000771  10.4600000  2
    809    798    797    822     1  0.0000000  0.6508444  3
    809    798    800    813     1  0.0000000  0.6508444  3
    809    798    800    814     1  0.0000000  0.6508444  3
    810    798    797    822     1  0.0000000  0.6508444  3
    810    798    800    813     1  0.0000000  0.6508444  3
    810    798    800    814     1  0.0000000  0.6508444  3
    811    799    797    822     1  0.0000000  0.6508444  3
    811    799    802    815     1  0.0000000  0.6508444  3
    811    799    802    816     1  0.0000000  0.6508444  3
    812    799    797    822     1  0.0000000  0.6508444  3
    812    799    802    815     1  0.0000000  0.6508444  3
    812    799    802    816     1  0.0000000  0.6508444  3
    813    800    801   1664     1  180.0000771  0.0000000  2
    814    800    801   1664     1  180.0000771  0.0000000  2
    815    802    803   1690     1  180.0000771  0.0000000  2
    816    802    803   1690     1  180.0000771  0.0000000  2
    817    804    797    822     1  0.0000000  0.6508444  3
    817    804    805    819     1  0.0000000  0.6508444  3
    817    804    805    820     1  0.0000000  0.6508444  3
    818    804    797    822     1  0.0000000  0.6508444  3
    818    804    805    819     1  0.0000000  0.6508444  3
    818    804    805    820     1  0.0000000  0.6508444  3
    819    805    806    821     1  0.0000000  0.0000000  2
    820    805    806    821     1  0.0000000  0.0000000  2
    823    824    826    839     1  0.0000000  0.6508444  3
    823    824    826    840     1  0.0000000  0.6508444  3
    823    825    828    841     1  0.0000000  0.6508444  3
    823    825    828    842     1  0.0000000  0.6508444  3
    823    830    831    845     1  0.0000000  0.6508444  3
    823    830    831    846     1  0.0000000  0.6508444  3
    824    823    825    837     1  0.0000000  0.6508444  3
    824    823    825    838     1  0.0000000  0.6508444  3
    824    823    830    843     1  0.0000000  0.6508444  3
    824    823    830    844     1  0.0000000  0.6508444  3
    825    823    824    835     1  0.0000000  0.6508444  3
    825    823    824    836     1  0.0000000  0.6508444  3
    825    823    830    843     1  0.0000000  0.6508444  3
    825    823    830    844     1  0.0000000  0.6508444  3
    826    824    823    848     1  0.0000000  0.6508444  3
    826    827   1716   1731     1  180.0000771  10.4600000  2
    827    826    824    835     1  0.0000000  0.6508444  3
    827    826    824    836     1  0.0000000  0.6508444  3
    827   1716   1715   1729     1  0.0000000  0.0000000  2
    827   1716   1715   1730     1  0.0000000  0.0000000  2
    828    825    823    848     1  0.0000000  0.6508444  3
    828    829   1742   1757     1  180.0000771  10.4600000  2
    829    828    825    837     1  0.0000000  0.6508444  3
    829    828    825    838     1  0.0000000  0.6508444  3
    829   1742   1741   1755     1  0.0000000  0.0000000  2
    829   1742   1741   1756     1  0.0000000  0.0000000  2
    830    823    824    835     1  0.0000000  0.6508444  3
    830    823    824    836     1  0.0000000  0.6508444  3
    830    823    825    837     1  0.0000000  0.6508444  3
    830    823    825    838     1  0.0000000  0.6508444  3
    830    831    832    847     1  0.0000000  0.0000000  2
    831    830    823    848     1  0.0000000  0.6508444  3
    832    831    830    843     1  0.0000000  0.6508444  3
    832    831    830    844     1  0.0000000  0.6508444  3
    833    827    826    839     1  0.0000000  3.3472000  1
    833    827    826    839     1  0.0000000  0.0000000  2
    833    827    826    839     1  180.0000771  0.3347200  3
    833    827    826    840     1  0.0000000  3.3472000  1
    833    827    826    840     1  0.0000000  0.0000000  2
    833    827    826    840     1  180.0000771  0.3347200  3
    833    827   1716   1731     1  0.0000000  8.3680000  1
    833    827   1716   1731     1  180.0000771  10.4600000  2
    834    829    828    841     1  0.0000000  3.3472000  1
    834    829    828    841     1  0.0000000  0.0000000  2
    834    829    828    841     1  180.0000771  0.3347200  3
    834    829    828    842     1  0.0000000  3.3472000  1
    834    829    828    842     1  0.0000000  0.0000000  2
    834    829    828    842     1  180.0000771  0.3347200  3
    834    829   1742   1757     1  0.0000000  8.3680000  1
    834    829   1742   1757     1  180.0000771  10.4600000  2
    835    824    823    848     1  0.0000000  0.6508444  3
    835    824    826    839     1  0.0000000  0.6508444  3
    835    824    826    840     1  0.0000000  0.6508444  3
    836    824    823    848     1  0.0000000  0.6508444  3
    836    824    826    839     1  0.0000000  0.6508444  3
    836    824    826    840     1  0.0000000  0.6508444  3
    837    825    823    848     1  0.0000000  0.6508444  3
    837    825    828    841     1  0.0000000  0.6508444  3
    837    825    828    842     1  0.0000000  0.6508444  3
    838    825    823    848     1  0.0000000  0.6508444  3
    838    825    828    841     1  0.0000000  0.6508444  3
    838    825    828    842     1  0.0000000  0.6508444  3
    839    826    827   1716     1  180.0000771  0.0000000  2
    840    826    827   1716     1  180.0000771  0.0000000  2
    841    828    829   1742     1  180.0000771  0.0000000  2
    842    828    829   1742     1  180.0000771  0.0000000  2
    843    830    823    848     1  0.0000000  0.6508444  3
    843    830    831    845     1  0.0000000  0.6508444  3
    843    830    831    846     1  0.0000000  0.6508444  3
    844    830    823    848     1  0.0000000  0.6508444  3
    844    830    831    845     1  0.0000000  0.6508444  3
    844    830    831    846     1  0.0000000  0.6508444  3
    845    831    832    847     1  0.0000000  0.0000000  2
    846    831    832    847     1  0.0000000  0.0000000  2
    849    850    852    865     1  0.0000000  0.6508444  3
    849    850    852    866     1  0.0000000  0.6508444  3
    849    851    854    867     1  0.0000000  0.6508444  3
    849    851    854    868     1  0.0000000  0.6508444  3
    849    856    857    871     1  0.0000000  0.6508444  3
    849    856    857    872     1  0.0000000  0.6508444  3
    850    849    851    863     1  0.0000000  0.6508444  3
    850    849    851    864     1  0.0000000  0.6508444  3
    850    849    856    869     1  0.0000000  0.6508444  3
    850    849    856    870     1  0.0000000  0.6508444  3
    851    849    850    861     1  0.0000000  0.6508444  3
    851    849    850    862     1  0.0000000  0.6508444  3
    851    849    856    869     1  0.0000000  0.6508444  3
    851    849    856    870     1  0.0000000  0.6508444  3
    852    850    849    874     1  0.0000000  0.6508444  3
    852    853   1768   1783     1  180.0000771  10.4600000  2
    853    852    850    861     1  0.0000000  0.6508444  3
    853    852    850    862     1  0.0000000  0.6508444  3
    853   1768   1767   1781     1  0.0000000  0.0000000  2
    853   1768   1767   1782     1  0.0000000  0.0000000  2
    854    851    849    874     1  0.0000000  0.6508444  3
    854    855   1794   1809     1  180.0000771  10.4600000  2
    855    854    851    863     1  0.0000000  0.6508444  3
    855    854    851    864     1  0.0000000  0.6508444  3
    855   1794   1793   1807     1  0.0000000  0.0000000  2
    855   1794   1793   1808     1  0.0000000  0.0000000  2
    856    849    850    861     1  0.0000000  0.6508444  3
    856    849    850    862     1  0.0000000  0.6508444  3
    856    849    851    863     1  0.0000000  0.6508444  3
    856    849    851    864     1  0.0000000  0.6508444  3
    856    857    858    873     1  0.0000000  0.0000000  2
    857    856    849    874     1  0.0000000  0.6508444  3
    858    857    856    869     1  0.0000000  0.6508444  3
    858    857    856    870     1  0.0000000  0.6508444  3
    859    853    852    865     1  0.0000000  3.3472000  1
    859    853    852    865     1  0.0000000  0.0000000  2
    859    853    852    865     1  180.0000771  0.3347200  3
    859    853    852    866     1  0.0000000  3.3472000  1
    859    853    852    866     1  0.0000000  0.0000000  2
    859    853    852    866     1  180.0000771  0.3347200  3
    859    853   1768   1783     1  0.0000000  8.3680000  1
    859    853   1768   1783     1  180.0000771  10.4600000  2
    860    855    854    867     1  0.0000000  3.3472000  1
    860    855    854    867     1  0.0000000  0.0000000  2
    860    855    854    867     1  180.0000771  0.3347200  3
    860    855    854    868     1  0.0000000  3.3472000  1
    860    855    854    868     1  0.0000000  0.0000000  2
    860    855    854    868     1  180.0000771  0.3347200  3
    860    855   1794   1809     1  0.0000000  8.3680000  1
    860    855   1794   1809     1  180.0000771  10.4600000  2
    861    850    849    874     1  0.0000000  0.6508444  3
    861    850    852    865     1  0.0000000  0.6508444  3
    861    850    852    866     1  0.0000000  0.6508444  3
    862    850    849    874     1  0.0000000  0.6508444  3
    862    850    852    865     1  0.0000000  0.6508444  3
    862    850    852    866     1  0.0000000  0.6508444  3
    863    851    849    874     1  0.0000000  0.6508444  3
    863    851    854    867     1  0.0000000  0.6508444  3
    863    851    854    868     1  0.0000000  0.6508444  3
    864    851    849    874     1  0.0000000  0.6508444  3
    864    851    854    867     1  0.0000000  0.6508444  3
    864    851    854    868     1  0.0000000  0.6508444  3
    865    852    853   1768     1  180.0000771  0.0000000  2
    866    852    853   1768     1  180.0000771  0.0000000  2
    867    854    855   1794     1  180.0000771  0.0000000  2
    868    854    855   1794     1  180.0000771  0.0000000  2
    869    856    849    874     1  0.0000000  0.6508444  3
    869    856    857    871     1  0.0000000  0.6508444  3
    869    856    857    872     1  0.0000000  0.6508444  3
    870    856    849    874     1  0.0000000  0.6508444  3
    870    856    857    871     1  0.0000000  0.6508444  3
    870    856    857    872     1  0.0000000  0.6508444  3
    871    857    858    873     1  0.0000000  0.0000000  2
    872    857    858    873     1  0.0000000  0.0000000  2
    875    876    878    891     1  0.0000000  0.6508444  3
    875    876    878    892     1  0.0000000  0.6508444  3
    875    877    880    893     1  0.0000000  0.6508444  3
    875    877    880    894     1  0.0000000  0.6508444  3
    875    882    883    897     1  0.0000000  0.6508444  3
    875    882    883    898     1  0.0000000  0.6508444  3
    876    875    877    889     1  0.0000000  0.6508444  3
    876    875    877    890     1  0.0000000  0.6508444  3
    876    875    882    895     1  0.0000000  0.6508444  3
    876    875    882    896     1  0.0000000  0.6508444  3
    877    875    876    887     1  0.0000000  0.6508444  3
    877    875    876    888     1  0.0000000  0.6508444  3
    877    875    882    895     1  0.0000000  0.6508444  3
    877    875    882    896     1  0.0000000  0.6508444  3
    878    876    875    900     1  0.0000000  0.6508444  3
    878    879   1820   1835     1  180.0000771  10.4600000  2
    879    878    876    887     1  0.0000000  0.6508444  3
    879    878    876    888     1  0.0000000  0.6508444  3
    879   1820   1819   1833     1  0.0000000  0.0000000  2
    879   1820   1819   1834     1  0.0000000  0.0000000  2
    880    877    875    900     1  0.0000000  0.6508444  3
    880    881   1846   1861     1  180.0000771  10.4600000  2
    881    880    877    889     1  0.0000000  0.6508444  3
    881    880    877    890     1  0.0000000  0.6508444  3
    881   1846   1845   1859     1  0.0000000  0.0000000  2
    881   1846   1845   1860     1  0.0000000  0.0000000  2
    882    875    876    887     1  0.0000000  0.6508444  3
    882    875    876    888     1  0.0000000  0.6508444  3
    882    875    877    889     1  0.0000000  0.6508444  3
    882    875    877    890     1  0.0000000  0.6508444  3
    882    883    884    899     1  0.0000000  0.0000000  2
    883    882    875    900     1  0.0000000  0.6508444  3
    884    883    882    895     1  0.0000000  0.6508444  3
    884    883    882    896     1  0.0000000  0.6508444  3
    885    879    878    891     1  0.0000000  3.3472000  1
    885    879    878    891     1  0.0000000  0.0000000  2
    885    879    878    891     1  180.0000771  0.3347200  3
    885    879    878    892     1  0.0000000  3.3472000  1
    885    879    878    892     1  0.0000000  0.0000000  2
    885    879    878    892     1  180.0000771  0.3347200  3
    885    879   1820   1835     1  0.0000000  8.3680000  1
    885    879   1820   1835     1  180.0000771  10.4600000  2
    886    881    880    893     1  0.0000000  3.3472000  1
    886    881    880    893     1  0.0000000  0.0000000  2
    886    881    880    893     1  180.0000771  0.3347200  3
    886    881    880    894     1  0.0000000  3.3472000  1
    886    881    880    894     1  0.0000000  0.0000000  2
    886    881    880    894     1  180.0000771  0.3347200  3
    886    881   1846   1861     1  0.0000000  8.3680000  1
    886    881   1846   1861     1  180.0000771  10.4600000  2
    887    876    875    900     1  0.0000000  0.6508444  3
    887    876    878    891     1  0.0000000  0.6508444  3
    887    876    878    892     1  0.0000000  0.6508444  3
    888    876    875    900     1  0.0000000  0.6508444  3
    888    876    878    891     1  0.0000000  0.6508444  3
    888    876    878    892     1  0.0000000  0.6508444  3
    889    877    875    900     1  0.0000000  0.6508444  3
    889    877    880    893     1  0.0000000  0.6508444  3
    889    877    880    894     1  0.0000000  0.6508444  3
    890    877    875    900     1  0.0000000  0.6508444  3
    890    877    880    893     1  0.0000000  0.6508444  3
    890    877    880    894     1  0.0000000  0.6508444  3
    891    878    879   1820     1  180.0000771  0.0000000  2
    892    878    879   1820     1  180.0000771  0.0000000  2
    893    880    881   1846     1  180.0000771  0.0000000  2
    894    880    881   1846     1  180.0000771  0.0000000  2
    895    882    875    900     1  0.0000000  0.6508444  3
    895    882    883    897     1  0.0000000  0.6508444  3
    895    882    883    898     1  0.0000000  0.6508444  3
    896    882    875    900     1  0.0000000  0.6508444  3
    896    882    883    897     1  0.0000000  0.6508444  3
    896    882    883    898     1  0.0000000  0.6508444  3
    897    883    884    899     1  0.0000000  0.0000000  2
    898    883    884    899     1  0.0000000  0.0000000  2
    901    902    904    917     1  0.0000000  0.6508444  3
    901    902    904    918     1  0.0000000  0.6508444  3
    901    903    906    919     1  0.0000000  0.6508444  3
    901    903    906    920     1  0.0000000  0.6508444  3
    901    908    909    923     1  0.0000000  0.6508444  3
    901    908    909    924     1  0.0000000  0.6508444  3
    902    901    903    915     1  0.0000000  0.6508444  3
    902    901    903    916     1  0.0000000  0.6508444  3
    902    901    908    921     1  0.0000000  0.6508444  3
    902    901    908    922     1  0.0000000  0.6508444  3
    903    901    902    913     1  0.0000000  0.6508444  3
    903    901    902    914     1  0.0000000  0.6508444  3
    903    901    908    921     1  0.0000000  0.6508444  3
    903    901    908    922     1  0.0000000  0.6508444  3
    904    902    901    926     1  0.0000000  0.6508444  3
    904    905   1872   1887     1  180.0000771  10.4600000  2
    905    904    902    913     1  0.0000000  0.6508444  3
    905    904    902    914     1  0.0000000  0.6508444  3
    905   1872   1871   1885     1  0.0000000  0.0000000  2
    905   1872   1871   1886     1  0.0000000  0.0000000  2
    906    903    901    926     1  0.0000000  0.6508444  3
    906    907   1898   1913     1  180.0000771  10.4600000  2
    907    906    903    915     1  0.0000000  0.6508444  3
    907    906    903    916     1  0.0000000  0.6508444  3
    907   1898   1897   1911     1  0.0000000  0.0000000  2
    907   1898   1897   1912     1  0.0000000  0.0000000  2
    908    901    902    913     1  0.0000000  0.6508444  3
    908    901    902    914     1  0.0000000  0.6508444  3
    908    901    903    915     1  0.0000000  0.6508444  3
    908    901    903    916     1  0.0000000  0.6508444  3
    908    909    910    925     1  0.0000000  0.0000000  2
    909    908    901    926     1  0.0000000  0.6508444  3
    910    909    908    921     1  0.0000000  0.6508444  3
    910    909    908    922     1  0.0000000  0.6508444  3
    911    905    904    917     1  0.0000000  3.3472000  1
    911    905    904    917     1  0.0000000  0.0000000  2
    911    905    904    917     1  180.0000771  0.3347200  3
    911    905    904    918     1  0.0000000  3.3472000  1
    911    905    904    918     1  0.0000000  0.0000000  2
    911    905    904    918     1  180.0000771  0.3347200  3
    911    905   1872   1887     1  0.0000000  8.3680000  1
    911    905   1872   1887     1  180.0000771  10.4600000  2
    912    907    906    919     1  0.0000000  3.3472000  1
    912    907    906    919     1  0.0000000  0.0000000  2
    912    907    906    919     1  180.0000771  0.3347200  3
    912    907    906    920     1  0.0000000  3.3472000  1
    912    907    906    920     1  0.0000000  0.0000000  2
    912    907    906    920     1  180.0000771  0.3347200  3
    912    907   1898   1913     1  0.0000000  8.3680000  1
    912    907   1898   1913     1  180.0000771  10.4600000  2
    913    902    901    926     1  0.0000000  0.6508444  3
    913    902    904    917     1  0.0000000  0.6508444  3
    913    902    904    918     1  0.0000000  0.6508444  3
    914    902    901    926     1  0.0000000  0.6508444  3
    914    902    904    917     1  0.0000000  0.6508444  3
    914    902    904    918     1  0.0000000  0.6508444  3
    915    903    901    926     1  0.0000000  0.6508444  3
    915    903    906    919     1  0.0000000  0.6508444  3
    915    903    906    920     1  0.0000000  0.6508444  3
    916    903    901    926     1  0.0000000  0.6508444  3
    916    903    906    919     1  0.0000000  0.6508444  3
    916    903    906    920     1  0.0000000  0.6508444  3
    917    904    905   1872     1  180.0000771  0.0000000  2
    918    904    905   1872     1  180.0000771  0.0000000  2
    919    906    907   1898     1  180.0000771  0.0000000  2
    920    906    907   1898     1  180.0000771  0.0000000  2
    921    908    901    926     1  0.0000000  0.6508444  3
    921    908    909    923     1  0.0000000  0.6508444  3
    921    908    909    924     1  0.0000000  0.6508444  3
    922    908    901    926     1  0.0000000  0.6508444  3
    922    908    909    923     1  0.0000000  0.6508444  3
    922    908    909    924     1  0.0000000  0.6508444  3
    923    909    910    925     1  0.0000000  0.0000000  2
    924    909    910    925     1  0.0000000  0.0000000  2
    927    928    930    943     1  0.0000000  0.6508444  3
    927    928    930    944     1  0.0000000  0.6508444  3
    927    929    932    945     1  0.0000000  0.6508444  3
    927    929    932    946     1  0.0000000  0.6508444  3
    927    934    935    949     1  0.0000000  0.6508444  3
    927    934    935    950     1  0.0000000  0.6508444  3
    928    927    929    941     1  0.0000000  0.6508444  3
    928    927    929    942     1  0.0000000  0.6508444  3
    928    927    934    947     1  0.0000000  0.6508444  3
    928    927    934    948     1  0.0000000  0.6508444  3
    929    927    928    939     1  0.0000000  0.6508444  3
    929    927    928    940     1  0.0000000  0.6508444  3
    929    927    934    947     1  0.0000000  0.6508444  3
    929    927    934    948     1  0.0000000  0.6508444  3
    930    928    927    952     1  0.0000000  0.6508444  3
    930    931   1924   1939     1  180.0000771  10.4600000  2
    931    930    928    939     1  0.0000000  0.6508444  3
    931    930    928    940     1  0.0000000  0.6508444  3
    931   1924   1923   1937     1  0.0000000  0.0000000  2
    931   1924   1923   1938     1  0.0000000  0.0000000  2
    932    929    927    952     1  0.0000000  0.6508444  3
    932    933   1950   1965     1  180.0000771  10.4600000  2
    933    932    929    941     1  0.0000000  0.6508444  3
    933    932    929    942     1  0.0000000  0.6508444  3
    933   1950   1949   1963     1  0.0000000  0.0000000  2
    933   1950   1949   1964     1  0.0000000  0.0000000  2
    934    927    928    939     1  0.0000000  0.6508444  3
    934    927    928    940     1  0.0000000  0.6508444  3
    934    927    929    941     1  0.0000000  0.6508444  3
    934    927    929    942     1  0.0000000  0.6508444  3
    934    935    936    951     1  0.0000000  0.0000000  2
    935    934    927    952     1  0.0000000  0.6508444  3
    936    935    934    947     1  0.0000000  0.6508444  3
    936    935    934    948     1  0.0000000  0.6508444  3
    937    931    930    943     1  0.0000000  3.3472000  1
    937    931    930    943     1  0.0000000  0.0000000  2
    937    931    930    943     1  180.0000771  0.3347200  3
    937    931    930    944     1  0.0000000  3.3472000  1
    937    931    930    944     1  0.0000000  0.0000000  2
    937    931    930    944     1  180.0000771  0.3347200  3
    937    931   1924   1939     1  0.0000000  8.3680000  1
    937    931   1924   1939     1  180.0000771  10.4600000  2
    938    933    932    945     1  0.0000000  3.3472000  1
    938    933    932    945     1  0.0000000  0.0000000  2
    938    933    932    945     1  180.0000771  0.3347200  3
    938    933    932    946     1  0.0000000  3.3472000  1
    938    933    932    946     1  0.0000000  0.0000000  2
    938    933    932    946     1  180.0000771  0.3347200  3
    938    933   1950   1965     1  0.0000000  8.3680000  1
    938    933   1950   1965     1  180.0000771  10.4600000  2
    939    928    927    952     1  0.0000000  0.6508444  3
    939    928    930    943     1  0.0000000  0.6508444  3
    939    928    930    944     1  0.0000000  0.6508444  3
    940    928    927    952     1  0.0000000  0.6508444  3
    940    928    930    943     1  0.0000000  0.6508444  3
    940    928    930    944     1  0.0000000  0.6508444  3
    941    929    927    952     1  0.0000000  0.6508444  3
    941    929    932    945     1  0.0000000  0.6508444  3
    941    929    932    946     1  0.0000000  0.6508444  3
    942    929    927    952     1  0.0000000  0.6508444  3
    942    929    932    945     1  0.0000000  0.6508444  3
    942    929    932    946     1  0.0000000  0.6508444  3
    943    930    931   1924     1  180.0000771  0.0000000  2
    944    930    931   1924     1  180.0000771  0.0000000  2
    945    932    933   1950     1  180.0000771  0.0000000  2
    946    932    933   1950     1  180.0000771  0.0000000  2
    947    934    927    952     1  0.0000000  0.6508444  3
    947    934    935    949     1  0.0000000  0.6508444  3
    947    934    935    950     1  0.0000000  0.6508444  3
    948    934    927    952     1  0.0000000  0.6508444  3
    948    934    935    949     1  0.0000000  0.6508444  3
    948    934    935    950     1  0.0000000  0.6508444  3
    949    935    936    951     1  0.0000000  0.0000000  2
    950    935    936    951     1  0.0000000  0.0000000  2
    953    954    956    969     1  0.0000000  0.6508444  3
    953    954    956    970     1  0.0000000  0.6508444  3
    953    955    958    971     1  0.0000000  0.6508444  3
    953    955    958    972     1  0.0000000  0.6508444  3
    953    960    961    975     1  0.0000000  0.6508444  3
    953    960    961    976     1  0.0000000  0.6508444  3
    954    953    955    967     1  0.0000000  0.6508444  3
    954    953    955    968     1  0.0000000  0.6508444  3
    954    953    960    973     1  0.0000000  0.6508444  3
    954    953    960    974     1  0.0000000  0.6508444  3
    955    953    954    965     1  0.0000000  0.6508444  3
    955    953    954    966     1  0.0000000  0.6508444  3
    955    953    960    973     1  0.0000000  0.6508444  3
    955    953    960    974     1  0.0000000  0.6508444  3
    956    954    953    978     1  0.0000000  0.6508444  3
    956    957   1976   1991     1  180.0000771  10.4600000  2
    957    956    954    965     1  0.0000000  0.6508444  3
    957    956    954    966     1  0.0000000  0.6508444  3
    957   1976   1975   1989     1  0.0000000  0.0000000  2
    957   1976   1975   1990     1  0.0000000  0.0000000  2
    958    955    953    978     1  0.0000000  0.6508444  3
    958    959   2002   2017     1  180.0000771  10.4600000  2
    959    958    955    967     1  0.0000000  0.6508444  3
    959    958    955    968     1  0.0000000  0.6508444  3
    959   2002   2001   2015     1  0.0000000  0.0000000  2
    959   2002   2001   2016     1  0.0000000  0.0000000  2
    960    953    954    965     1  0.0000000  0.6508444  3
    960    953    954    966     1  0.0000000  0.6508444  3
    960    953    955    967     1  0.0000000  0.6508444  3
    960    953    955    968     1  0.0000000  0.6508444  3
    960    961    962    977     1  0.0000000  0.0000000  2
    961    960    953    978     1  0.0000000  0.6508444  3
    962    961    960    973     1  0.0000000  0.6508444  3
    962    961    960    974     1  0.0000000  0.6508444  3
    963    957    956    969     1  0.0000000  3.3472000  1
    963    957    956    969     1  0.0000000  0.0000000  2
    963    957    956    969     1  180.0000771  0.3347200  3
    963    957    956    970     1  0.0000000  3.3472000  1
    963    957    956    970     1  0.0000000  0.0000000  2
    963    957    956    970     1  180.0000771  0.3347200  3
    963    957   1976   1991     1  0.0000000  8.3680000  1
    963    957   1976   1991     1  180.0000771  10.4600000  2
    964    959    958    971     1  0.0000000  3.3472000  1
    964    959    958    971     1  0.0000000  0.0000000  2
    964    959    958    971     1  180.0000771  0.3347200  3
    964    959    958    972     1  0.0000000  3.3472000  1
    964    959    958    972     1  0.0000000  0.0000000  2
    964    959    958    972     1  180.0000771  0.3347200  3
    964    959   2002   2017     1  0.0000000  8.3680000  1
    964    959   2002   2017     1  180.0000771  10.4600000  2
    965    954    953    978     1  0.0000000  0.6508444  3
    965    954    956    969     1  0.0000000  0.6508444  3
    965    954    956    970     1  0.0000000  0.6508444  3
    966    954    953    978     1  0.0000000  0.6508444  3
    966    954    956    969     1  0.0000000  0.6508444  3
    966    954    956    970     1  0.0000000  0.6508444  3
    967    955    953    978     1  0.0000000  0.6508444  3
    967    955    958    971     1  0.0000000  0.6508444  3
    967    955    958    972     1  0.0000000  0.6508444  3
    968    955    953    978     1  0.0000000  0.6508444  3
    968    955    958    971     1  0.0000000  0.6508444  3
    968    955    958    972     1  0.0000000  0.6508444  3
    969    956    957   1976     1  180.0000771  0.0000000  2
    970    956    957   1976     1  180.0000771  0.0000000  2
    971    958    959   2002     1  180.0000771  0.0000000  2
    972    958    959   2002     1  180.0000771  0.0000000  2
    973    960    953    978     1  0.0000000  0.6508444  3
    973    960    961    975     1  0.0000000  0.6508444  3
    973    960    961    976     1  0.0000000  0.6508444  3
    974    960    953    978     1  0.0000000  0.6508444  3
    974    960    961    975     1  0.0000000  0.6508444  3
    974    960    961    976     1  0.0000000  0.6508444  3
    975    961    962    977     1  0.0000000  0.0000000  2
    976    961    962    977     1  0.0000000  0.0000000  2
    979    980    982    995     1  0.0000000  0.6508444  3
    979    980    982    996     1  0.0000000  0.6508444  3
    979    981    984    997     1  0.0000000  0.6508444  3
    979    981    984    998     1  0.0000000  0.6508444  3
    979    986    987   1001     1  0.0000000  0.6508444  3
    979    986    987   1002     1  0.0000000  0.6508444  3
    980    979    981    993     1  0.0000000  0.6508444  3
    980    979    981    994     1  0.0000000  0.6508444  3
    980    979    986    999     1  0.0000000  0.6508444  3
    980    979    986   1000     1  0.0000000  0.6508444  3
    981    979    980    991     1  0.0000000  0.6508444  3
    981    979    980    992     1  0.0000000  0.6508444  3
    981    979    986    999     1  0.0000000  0.6508444  3
    981    979    986   1000     1  0.0000000  0.6508444  3
    982    980    979   1004     1  0.0000000  0.6508444  3
    982    983   2028   2043     1  180.0000771  10.4600000  2
    983    982    980    991     1  0.0000000  0.6508444  3
    983    982    980    992     1  0.0000000  0.6508444  3
    983   2028   2027   2041     1  0.0000000  0.0000000  2
    983   2028   2027   2042     1  0.0000000  0.0000000  2
    984    981    979   1004     1  0.0000000  0.6508444  3
    984    985   2054   2069     1  180.0000771  10.4600000  2
    985    984    981    993     1  0.0000000  0.6508444  3
    985    984    981    994     1  0.0000000  0.6508444  3
    985   2054   2053   2067     1  0.0000000  0.0000000  2
    985   2054   2053   2068     1  0.0000000  0.0000000  2
    986    979    980    991     1  0.0000000  0.6508444  3
    986    979    980    992     1  0.0000000  0.6508444  3
    986    979    981    993     1  0.0000000  0.6508444  3
    986    979    981    994     1  0.0000000  0.6508444  3
    986    987    988   1003     1  0.0000000  0.0000000  2
    987    986    979   1004     1  0.0000000  0.6508444  3
    988    987    986    999     1  0.0000000  0.6508444  3
    988    987    986   1000     1  0.0000000  0.6508444  3
    989    983    982    995     1  0.0000000  3.3472000  1
    989    983    982    995     1  0.0000000  0.0000000  2
    989    983    982    995     1  180.0000771  0.3347200  3
    989    983    982    996     1  0.0000000  3.3472000  1
    989    983    982    996     1  0.0000000  0.0000000  2
    989    983    982    996     1  180.0000771  0.3347200  3
    989    983   2028   2043     1  0.0000000  8.3680000  1
    989    983   2028   2043     1  180.0000771  10.4600000  2
    990    985    984    997     1  0.0000000  3.3472000  1
    990    985    984    997     1  0.0000000  0.0000000  2
    990    985    984    997     1  180.0000771  0.3347200  3
    990    985    984    998     1  0.0000000  3.3472000  1
    990    985    984    998     1  0.0000000  0.0000000  2
    990    985    984    998     1  180.0000771  0.3347200  3
    990    985   2054   2069     1  0.0000000  8.3680000  1
    990    985   2054   2069     1  180.0000771  10.4600000  2
    991    980    979   1004     1  0.0000000  0.6508444  3
    991    980    982    995     1  0.0000000  0.6508444  3
    991    980    982    996     1  0.0000000  0.6508444  3
    992    980    979   1004     1  0.0000000  0.6508444  3
    992    980    982    995     1  0.0000000  0.6508444  3
    992    980    982    996     1  0.0000000  0.6508444  3
    993    981    979   1004     1  0.0000000  0.6508444  3
    993    981    984    997     1  0.0000000  0.6508444  3
    993    981    984    998     1  0.0000000  0.6508444  3
    994    981    979   1004     1  0.0000000  0.6508444  3
    994    981    984    997     1  0.0000000  0.6508444  3
    994    981    984    998     1  0.0000000  0.6508444  3
    995    982    983   2028     1  180.0000771  0.0000000  2
    996    982    983   2028     1  180.0000771  0.0000000  2
    997    984    985   2054     1  180.0000771  0.0000000  2
    998    984    985   2054     1  180.0000771  0.0000000  2
    999    986    979   1004     1  0.0000000  0.6508444  3
    999    986    987   1001     1  0.0000000  0.6508444  3
    999    986    987   1002     1  0.0000000  0.6508444  3
   1000    986    979   1004     1  0.0000000  0.6508444  3
   1000    986    987   1001     1  0.0000000  0.6508444  3
   1000    986    987   1002     1  0.0000000  0.6508444  3
   1001    987    988   1003     1  0.0000000  0.0000000  2
   1002    987    988   1003     1  0.0000000  0.0000000  2
   1005   1006   1008   1021     1  0.0000000  0.6508444  3
   1005   1006   1008   1022     1  0.0000000  0.6508444  3
   1005   1007   1010   1023     1  0.0000000  0.6508444  3
   1005   1007   1010   1024     1  0.0000000  0.6508444  3
   1005   1012   1013   1027     1  0.0000000  0.6508444  3
   1005   1012   1013   1028     1  0.0000000  0.6508444  3
   1006   1005   1007   1019     1  0.0000000  0.6508444  3
   1006   1005   1007   1020     1  0.0000000  0.6508444  3
   1006   1005   1012   1025     1  0.0000000  0.6508444  3
   1006   1005   1012   1026     1  0.0000000  0.6508444  3
   1007   1005   1006   1017     1  0.0000000  0.6508444  3
   1007   1005   1006   1018     1  0.0000000  0.6508444  3
   1007   1005   1012   1025     1  0.0000000  0.6508444  3
   1007   1005   1012   1026     1  0.0000000  0.6508444  3
   1008   1006   1005   1030     1  0.0000000  0.6508444  3
   1008   1009   2080   2095     1  180.0000771  10.4600000  2
   1009   1008   1006   1017     1  0.0000000  0.6508444  3
   1009   1008   1006   1018     1  0.0000000  0.6508444  3
   1009   2080   2079   2093     1  0.0000000  0.0000000  2
   1009   2080   2079   2094     1  0.0000000  0.0000000  2
   1010   1007   1005   1030     1  0.0000000  0.6508444  3
   1010   1011   2106   2121     1  180.0000771  10.4600000  2
   1011   1010   1007   1019     1  0.0000000  0.6508444  3
   1011   1010   1007   1020     1  0.0000000  0.6508444  3
   1011   2106   2105   2119     1  0.0000000  0.0000000  2
   1011   2106   2105   2120     1  0.0000000  0.0000000  2
   1012   1005   1006   1017     1  0.0000000  0.6508444  3
   1012   1005   1006   1018     1  0.0000000  0.6508444  3
   1012   1005   1007   1019     1  0.0000000  0.6508444  3
   1012   1005   1007   1020     1  0.0000000  0.6508444  3
   1012   1013   1014   1029     1  0.0000000  0.0000000  2
   1013   1012   1005   1030     1  0.0000000  0.6508444  3
   1014   1013   1012   1025     1  0.0000000  0.6508444  3
   1014   1013   1012   1026     1  0.0000000  0.6508444  3
   1015   1009   1008   1021     1  0.0000000  3.3472000  1
   1015   1009   1008   1021     1  0.0000000  0.0000000  2
   1015   1009   1008   1021     1  180.0000771  0.3347200  3
   1015   1009   1008   1022     1  0.0000000  3.3472000  1
   1015   1009   1008   1022     1  0.0000000  0.0000000  2
   1015   1009   1008   1022     1  180.0000771  0.3347200  3
   1015   1009   2080   2095     1  0.0000000  8.3680000  1
   1015   1009   2080   2095     1  180.0000771  10.4600000  2
   1016   1011   1010   1023     1  0.0000000  3.3472000  1
   1016   1011   1010   1023     1  0.0000000  0.0000000  2
   1016   1011   1010   1023     1  180.0000771  0.3347200  3
   1016   1011   1010   1024     1  0.0000000  3.3472000  1
   1016   1011   1010   1024     1  0.0000000  0.0000000  2
   1016   1011   1010   1024     1  180.0000771  0.3347200  3
   1016   1011   2106   2121     1  0.0000000  8.3680000  1
   1016   1011   2106   2121     1  180.0000771  10.4600000  2
   1017   1006   1005   1030     1  0.0000000  0.6508444  3
   1017   1006   1008   1021     1  0.0000000  0.6508444  3
   1017   1006   1008   1022     1  0.0000000  0.6508444  3
   1018   1006   1005   1030     1  0.0000000  0.6508444  3
   1018   1006   1008   1021     1  0.0000000  0.6508444  3
   1018   1006   1008   1022     1  0.0000000  0.6508444  3
   1019   1007   1005   1030     1  0.0000000  0.6508444  3
   1019   1007   1010   1023     1  0.0000000  0.6508444  3
   1019   1007   1010   1024     1  0.0000000  0.6508444  3
   1020   1007   1005   1030     1  0.0000000  0.6508444  3
   1020   1007   1010   1023     1  0.0000000  0.6508444  3
   1020   1007   1010   1024     1  0.0000000  0.6508444  3
   1021   1008   1009   2080     1  180.0000771  0.0000000  2
   1022   1008   1009   2080     1  180.0000771  0.0000000  2
   1023   1010   1011   2106     1  180.0000771  0.0000000  2
   1024   1010   1011   2106     1  180.0000771  0.0000000  2
   1025   1012   1005   1030     1  0.0000000  0.6508444  3
   1025   1012   1013   1027     1  0.0000000  0.6508444  3
   1025   1012   1013   1028     1  0.0000000  0.6508444  3
   1026   1012   1005   1030     1  0.0000000  0.6508444  3
   1026   1012   1013   1027     1  0.0000000  0.6508444  3
   1026   1012   1013   1028     1  0.0000000  0.6508444  3
   1027   1013   1014   1029     1  0.0000000  0.0000000  2
   1028   1013   1014   1029     1  0.0000000  0.0000000  2
   1031   1032   1034   1047     1  0.0000000  0.6508444  3
   1031   1032   1034   1048     1  0.0000000  0.6508444  3
   1031   1033   1036   1049     1  0.0000000  0.6508444  3
   1031   1033   1036   1050     1  0.0000000  0.6508444  3
   1031   1038   1039   1053     1  0.0000000  0.6508444  3
   1031   1038   1039   1054     1  0.0000000  0.6508444  3
   1032   1031   1033   1045     1  0.0000000  0.6508444  3
   1032   1031   1033   1046     1  0.0000000  0.6508444  3
   1032   1031   1038   1051     1  0.0000000  0.6508444  3
   1032   1031   1038   1052     1  0.0000000  0.6508444  3
   1033   1031   1032   1043     1  0.0000000  0.6508444  3
   1033   1031   1032   1044     1  0.0000000  0.6508444  3
   1033   1031   1038   1051     1  0.0000000  0.6508444  3
   1033   1031   1038   1052     1  0.0000000  0.6508444  3
   1034   1032   1031   1056     1  0.0000000  0.6508444  3
   1034   1035   2132   2147     1  180.0000771  10.4600000  2
   1035   1034   1032   1043     1  0.0000000  0.6508444  3
   1035   1034   1032   1044     1  0.0000000  0.6508444  3
   1035   2132   2131   2145     1  0.0000000  0.0000000  2
   1035   2132   2131   2146     1  0.0000000  0.0000000  2
   1036   1033   1031   1056     1  0.0000000  0.6508444  3
   1036   1037   2158   2173     1  180.0000771  10.4600000  2
   1037   1036   1033   1045     1  0.0000000  0.6508444  3
   1037   1036   1033   1046     1  0.0000000  0.6508444  3
   1037   2158   2157   2171     1  0.0000000  0.0000000  2
   1037   2158   2157   2172     1  0.0000000  0.0000000  2
   1038   1031   1032   1043     1  0.0000000  0.6508444  3
   1038   1031   1032   1044     1  0.0000000  0.6508444  3
   1038   1031   1033   1045     1  0.0000000  0.6508444  3
   1038   1031   1033   1046     1  0.0000000  0.6508444  3
   1038   1039   1040   1055     1  0.0000000  0.0000000  2
   1039   1038   1031   1056     1  0.0000000  0.6508444  3
   1040   1039   1038   1051     1  0.0000000  0.6508444  3
   1040   1039   1038   1052     1  0.0000000  0.6508444  3
   1041   1035   1034   1047     1  0.0000000  3.3472000  1
   1041   1035   1034   1047     1  0.0000000  0.0000000  2
   1041   1035   1034   1047     1  180.0000771  0.3347200  3
   1041   1035   1034   1048     1  0.0000000  3.3472000  1
   1041   1035   1034   1048     1  0.0000000  0.0000000  2
   1041   1035   1034   1048     1  180.0000771  0.3347200  3
   1041   1035   2132   2147     1  0.0000000  8.3680000  1
   1041   1035   2132   2147     1  180.0000771  10.4600000  2
   1042   1037   1036   1049     1  0.0000000  3.3472000  1
   1042   1037   1036   1049     1  0.0000000  0.0000000  2
   1042   1037   1036   1049     1  180.0000771  0.3347200  3
   1042   1037   1036   1050     1  0.0000000  3.3472000  1
   1042   1037   1036   1050     1  0.0000000  0.0000000  2
   1042   1037   1036   1050     1  180.0000771  0.3347200  3
   1042   1037   2158   2173     1  0.0000000  8.3680000  1
   1042   1037   2158   2173     1  180.0000771  10.4600000  2
   1043   1032   1031   1056     1  0.0000000  0.6508444  3
   1043   1032   1034   1047     1  0.0000000  0.6508444  3
   1043   1032   1034   1048     1  0.0000000  0.6508444  3
   1044   1032   1031   1056     1  0.0000000  0.6508444  3
   1044   1032   1034   1047     1  0.0000000  0.6508444  3
   1044   1032   1034   1048     1  0.0000000  0.6508444  3
   1045   1033   1031   1056     1  0.0000000  0.6508444  3
   1045   1033   1036   1049     1  0.0000000  0.6508444  3
   1045   1033   1036   1050     1  0.0000000  0.6508444  3
   1046   1033   1031   1056     1  0.0000000  0.6508444  3
   1046   1033   1036   1049     1  0.0000000  0.6508444  3
   1046   1033   1036   1050     1  0.0000000  0.6508444  3
   1047   1034   1035   2132     1  180.0000771  0.0000000  2
   1048   1034   1035   2132     1  180.0000771  0.0000000  2
   1049   1036   1037   2158     1  180.0000771  0.0000000  2
   1050   1036   1037   2158     1  180.0000771  0.0000000  2
   1051   1038   1031   1056     1  0.0000000  0.6508444  3
   1051   1038   1039   1053     1  0.0000000  0.6508444  3
   1051   1038   1039   1054     1  0.0000000  0.6508444  3
   1052   1038   1031   1056     1  0.0000000  0.6508444  3
   1052   1038   1039   1053     1  0.0000000  0.6508444  3
   1052   1038   1039   1054     1  0.0000000  0.6508444  3
   1053   1039   1040   1055     1  0.0000000  0.0000000  2
   1054   1039   1040   1055     1  0.0000000  0.0000000  2
   1057   1058   1060   1073     1  0.0000000  0.6508444  3
   1057   1058   1060   1074     1  0.0000000  0.6508444  3
   1057   1059   1062   1075     1  0.0000000  0.6508444  3
   1057   1059   1062   1076     1  0.0000000  0.6508444  3
   1057   1064   1065   1079     1  0.0000000  0.6508444  3
   1057   1064   1065   1080     1  0.0000000  0.6508444  3
   1058   1057   1059   1071     1  0.0000000  0.6508444  3
   1058   1057   1059   1072     1  0.0000000  0.6508444  3
   1058   1057   1064   1077     1  0.0000000  0.6508444  3
   1058   1057   1064   1078     1  0.0000000  0.6508444  3
   1059   1057   1058   1069     1  0.0000000  0.6508444  3
   1059   1057   1058   1070     1  0.0000000  0.6508444  3
   1059   1057   1064   1077     1  0.0000000  0.6508444  3
   1059   1057   1064   1078     1  0.0000000  0.6508444  3
   1060   1058   1057   1082     1  0.0000000  0.6508444  3
   1060   1061   2184   2199     1  180.0000771  10.4600000  2
   1061   1060   1058   1069     1  0.0000000  0.6508444  3
   1061   1060   1058   1070     1  0.0000000  0.6508444  3
   1061   2184   2183   2197     1  0.0000000  0.0000000  2
   1061   2184   2183   2198     1  0.0000000  0.0000000  2
   1062   1059   1057   1082     1  0.0000000  0.6508444  3
   1062   1063   2210   2225     1  180.0000771  10.4600000  2
   1063   1062   1059   1071     1  0.0000000  0.6508444  3
   1063   1062   1059   1072     1  0.0000000  0.6508444  3
   1063   2210   2209   2223     1  0.0000000  0.0000000  2
   1063   2210   2209   2224     1  0.0000000  0.0000000  2
   1064   1057   1058   1069     1  0.0000000  0.6508444  3
   1064   1057   1058   1070     1  0.0000000  0.6508444  3
   1064   1057   1059   1071     1  0.0000000  0.6508444  3
   1064   1057   1059   1072     1  0.0000000  0.6508444  3
   1064   1065   1066   1081     1  0.0000000  0.0000000  2
   1065   1064   1057   1082     1  0.0000000  0.6508444  3
   1066   1065   1064   1077     1  0.0000000  0.6508444  3
   1066   1065   1064   1078     1  0.0000000  0.6508444  3
   1067   1061   1060   1073     1  0.0000000  3.3472000  1
   1067   1061   1060   1073     1  0.0000000  0.0000000  2
   1067   1061   1060   1073     1  180.0000771  0.3347200  3
   1067   1061   1060   1074     1  0.0000000  3.3472000  1
   1067   1061   1060   1074     1  0.0000000  0.0000000  2
   1067   1061   1060   1074     1  180.0000771  0.3347200  3
   1067   1061   2184   2199     1  0.0000000  8.3680000  1
   1067   1061   2184   2199     1  180.0000771  10.4600000  2
   1068   1063   1062   1075     1  0.0000000  3.3472000  1
   1068   1063   1062   1075     1  0.0000000  0.0000000  2
   1068   1063   1062   1075     1  180.0000771  0.3347200  3
   1068   1063   1062   1076     1  0.0000000  3.3472000  1
   1068   1063   1062   1076     1  0.0000000  0.0000000  2
   1068   1063   1062   1076     1  180.0000771  0.3347200  3
   1068   1063   2210   2225     1  0.0000000  8.3680000  1
   1068   1063   2210   2225     1  180.0000771  10.4600000  2
   1069   1058   1057   1082     1  0.0000000  0.6508444  3
   1069   1058   1060   1073     1  0.0000000  0.6508444  3
   1069   1058   1060   1074     1  0.0000000  0.6508444  3
   1070   1058   1057   1082     1  0.0000000  0.6508444  3
   1070   1058   1060   1073     1  0.0000000  0.6508444  3
   1070   1058   1060   1074     1  0.0000000  0.6508444  3
   1071   1059   1057   1082     1  0.0000000  0.6508444  3
   1071   1059   1062   1075     1  0.0000000  0.6508444  3
   1071   1059   1062   1076     1  0.0000000  0.6508444  3
   1072   1059   1057   1082     1  0.0000000  0.6508444  3
   1072   1059   1062   1075     1  0.0000000  0.6508444  3
   1072   1059   1062   1076     1  0.0000000  0.6508444  3
   1073   1060   1061   2184     1  180.0000771  0.0000000  2
   1074   1060   1061   2184     1  180.0000771  0.0000000  2
   1075   1062   1063   2210     1  180.0000771  0.0000000  2
   1076   1062   1063   2210     1  180.0000771  0.0000000  2
   1077   1064   1057   1082     1  0.0000000  0.6508444  3
   1077   1064   1065   1079     1  0.0000000  0.6508444  3
   1077   1064   1065   1080     1  0.0000000  0.6508444  3
   1078   1064   1057   1082     1  0.0000000  0.6508444  3
   1078   1064   1065   1079     1  0.0000000  0.6508444  3
   1078   1064   1065   1080     1  0.0000000  0.6508444  3
   1079   1065   1066   1081     1  0.0000000  0.0000000  2
   1080   1065   1066   1081     1  0.0000000  0.0000000  2
   1083   1084   1086   1099     1  0.0000000  0.6508444  3
   1083   1084   1086   1100     1  0.0000000  0.6508444  3
   1083   1085   1088   1101     1  0.0000000  0.6508444  3
   1083   1085   1088   1102     1  0.0000000  0.6508444  3
   1083   1090   1091   1105     1  0.0000000  0.6508444  3
   1083   1090   1091   1106     1  0.0000000  0.6508444  3
   1084   1083   1085   1097     1  0.0000000  0.6508444  3
   1084   1083   1085   1098     1  0.0000000  0.6508444  3
   1084   1083   1090   1103     1  0.0000000  0.6508444  3
   1084   1083   1090   1104     1  0.0000000  0.6508444  3
   1085   1083   1084   1095     1  0.0000000  0.6508444  3
   1085   1083   1084   1096     1  0.0000000  0.6508444  3
   1085   1083   1090   1103     1  0.0000000  0.6508444  3
   1085   1083   1090   1104     1  0.0000000  0.6508444  3
   1086   1084   1083   1108     1  0.0000000  0.6508444  3
   1086   1087   2236   2251     1  180.0000771  10.4600000  2
   1087   1086   1084   1095     1  0.0000000  0.6508444  3
   1087   1086   1084   1096     1  0.0000000  0.6508444  3
   1087   2236   2235   2249     1  0.0000000  0.0000000  2
   1087   2236   2235   2250     1  0.0000000  0.0000000  2
   1088   1085   1083   1108     1  0.0000000  0.6508444  3
   1088   1089   2262   2277     1  180.0000771  10.4600000  2
   1089   1088   1085   1097     1  0.0000000  0.6508444  3
   1089   1088   1085   1098     1  0.0000000  0.6508444  3
   1089   2262   2261   2275     1  0.0000000  0.0000000  2
   1089   2262   2261   2276     1  0.0000000  0.0000000  2
   1090   1083   1084   1095     1  0.0000000  0.6508444  3
   1090   1083   1084   1096     1  0.0000000  0.6508444  3
   1090   1083   1085   1097     1  0.0000000  0.6508444  3
   1090   1083   1085   1098     1  0.0000000  0.6508444  3
   1090   1091   1092   1107     1  0.0000000  0.0000000  2
   1091   1090   1083   1108     1  0.0000000  0.6508444  3
   1092   1091   1090   1103     1  0.0000000  0.6508444  3
   1092   1091   1090   1104     1  0.0000000  0.6508444  3
   1093   1087   1086   1099     1  0.0000000  3.3472000  1
   1093   1087   1086   1099     1  0.0000000  0.0000000  2
   1093   1087   1086   1099     1  180.0000771  0.3347200  3
   1093   1087   1086   1100     1  0.0000000  3.3472000  1
   1093   1087   1086   1100     1  0.0000000  0.0000000  2
   1093   1087   1086   1100     1  180.0000771  0.3347200  3
   1093   1087   2236   2251     1  0.0000000  8.3680000  1
   1093   1087   2236   2251     1  180.0000771  10.4600000  2
   1094   1089   1088   1101     1  0.0000000  3.3472000  1
   1094   1089   1088   1101     1  0.0000000  0.0000000  2
   1094   1089   1088   1101     1  180.0000771  0.3347200  3
   1094   1089   1088   1102     1  0.0000000  3.3472000  1
   1094   1089   1088   1102     1  0.0000000  0.0000000  2
   1094   1089   1088   1102     1  180.0000771  0.3347200  3
   1094   1089   2262   2277     1  0.0000000  8.3680000  1
   1094   1089   2262   2277     1  180.0000771  10.4600000  2
   1095   1084   1083   1108     1  0.0000000  0.6508444  3
   1095   1084   1086   1099     1  0.0000000  0.6508444  3
   1095   1084   1086   1100     1  0.0000000  0.6508444  3
   1096   1084   1083   1108     1  0.0000000  0.6508444  3
   1096   1084   1086   1099     1  0.0000000  0.6508444  3
   1096   1084   1086   1100     1  0.0000000  0.6508444  3
   1097   1085   1083   1108     1  0.0000000  0.6508444  3
   1097   1085   1088   1101     1  0.0000000  0.6508444  3
   1097   1085   1088   1102     1  0.0000000  0.6508444  3
   1098   1085   1083   1108     1  0.0000000  0.6508444  3
   1098   1085   1088   1101     1  0.0000000  0.6508444  3
   1098   1085   1088   1102     1  0.0000000  0.6508444  3
   1099   1086   1087   2236     1  180.0000771  0.0000000  2
   1100   1086   1087   2236     1  180.0000771  0.0000000  2
   1101   1088   1089   2262     1  180.0000771  0.0000000  2
   1102   1088   1089   2262     1  180.0000771  0.0000000  2
   1103   1090   1083   1108     1  0.0000000  0.6508444  3
   1103   1090   1091   1105     1  0.0000000  0.6508444  3
   1103   1090   1091   1106     1  0.0000000  0.6508444  3
   1104   1090   1083   1108     1  0.0000000  0.6508444  3
   1104   1090   1091   1105     1  0.0000000  0.6508444  3
   1104   1090   1091   1106     1  0.0000000  0.6508444  3
   1105   1091   1092   1107     1  0.0000000  0.0000000  2
   1106   1091   1092   1107     1  0.0000000  0.0000000  2
   1109   1110   1112   1125     1  0.0000000  0.6508444  3
   1109   1110   1112   1126     1  0.0000000  0.6508444  3
   1109   1111   1114   1127     1  0.0000000  0.6508444  3
   1109   1111   1114   1128     1  0.0000000  0.6508444  3
   1109   1116   1117   1131     1  0.0000000  0.6508444  3
   1109   1116   1117   1132     1  0.0000000  0.6508444  3
   1110   1109   1111   1123     1  0.0000000  0.6508444  3
   1110   1109   1111   1124     1  0.0000000  0.6508444  3
   1110   1109   1116   1129     1  0.0000000  0.6508444  3
   1110   1109   1116   1130     1  0.0000000  0.6508444  3
   1111   1109   1110   1121     1  0.0000000  0.6508444  3
   1111   1109   1110   1122     1  0.0000000  0.6508444  3
   1111   1109   1116   1129     1  0.0000000  0.6508444  3
   1111   1109   1116   1130     1  0.0000000  0.6508444  3
   1112   1110   1109   1134     1  0.0000000  0.6508444  3
   1112   1113   2288   2303     1  180.0000771  10.4600000  2
   1113   1112   1110   1121     1  0.0000000  0.6508444  3
   1113   1112   1110   1122     1  0.0000000  0.6508444  3
   1113   2288   2287   2301     1  0.0000000  0.0000000  2
   1113   2288   2287   2302     1  0.0000000  0.0000000  2
   1114   1111   1109   1134     1  0.0000000  0.6508444  3
   1114   1115   2314   2329     1  180.0000771  10.4600000  2
   1115   1114   1111   1123     1  0.0000000  0.6508444  3
   1115   1114   1111   1124     1  0.0000000  0.6508444  3
   1115   2314   2313   2327     1  0.0000000  0.0000000  2
   1115   2314   2313   2328     1  0.0000000  0.0000000  2
   1116   1109   1110   1121     1  0.0000000  0.6508444  3
   1116   1109   1110   1122     1  0.0000000  0.6508444  3
   1116   1109   1111   1123     1  0.0000000  0.6508444  3
   1116   1109   1111   1124     1  0.0000000  0.6508444  3
   1116   1117   1118   1133     1  0.0000000  0.0000000  2
   1117   1116   1109   1134     1  0.0000000  0.6508444  3
   1118   1117   1116   1129     1  0.0000000  0.6508444  3
   1118   1117   1116   1130     1  0.0000000  0.6508444  3
   1119   1113   1112   1125     1  0.0000000  3.3472000  1
   1119   1113   1112   1125     1  0.0000000  0.0000000  2
   1119   1113   1112   1125     1  180.0000771  0.3347200  3
   1119   1113   1112   1126     1  0.0000000  3.3472000  1
   1119   1113   1112   1126     1  0.0000000  0.0000000  2
   1119   1113   1112   1126     1  180.0000771  0.3347200  3
   1119   1113   2288   2303     1  0.0000000  8.3680000  1
   1119   1113   2288   2303     1  180.0000771  10.4600000  2
   1120   1115   1114   1127     1  0.0000000  3.3472000  1
   1120   1115   1114   1127     1  0.0000000  0.0000000  2
   1120   1115   1114   1127     1  180.0000771  0.3347200  3
   1120   1115   1114   1128     1  0.0000000  3.3472000  1
   1120   1115   1114   1128     1  0.0000000  0.0000000  2
   1120   1115   1114   1128     1  180.0000771  0.3347200  3
   1120   1115   2314   2329     1  0.0000000  8.3680000  1
   1120   1115   2314   2329     1  180.0000771  10.4600000  2
   1121   1110   1109   1134     1  0.0000000  0.6508444  3
   1121   1110   1112   1125     1  0.0000000  0.6508444  3
   1121   1110   1112   1126     1  0.0000000  0.6508444  3
   1122   1110   1109   1134     1  0.0000000  0.6508444  3
   1122   1110   1112   1125     1  0.0000000  0.6508444  3
   1122   1110   1112   1126     1  0.0000000  0.6508444  3
   1123   1111   1109   1134     1  0.0000000  0.6508444  3
   1123   1111   1114   1127     1  0.0000000  0.6508444  3
   1123   1111   1114   1128     1  0.0000000  0.6508444  3
   1124   1111   1109   1134     1  0.0000000  0.6508444  3
   1124   1111   1114   1127     1  0.0000000  0.6508444  3
   1124   1111   1114   1128     1  0.0000000  0.6508444  3
   1125   1112   1113   2288     1  180.0000771  0.0000000  2
   1126   1112   1113   2288     1  180.0000771  0.0000000  2
   1127   1114   1115   2314     1  180.0000771  0.0000000  2
   1128   1114   1115   2314     1  180.0000771  0.0000000  2
   1129   1116   1109   1134     1  0.0000000  0.6508444  3
   1129   1116   1117   1131     1  0.0000000  0.6508444  3
   1129   1116   1117   1132     1  0.0000000  0.6508444  3
   1130   1116   1109   1134     1  0.0000000  0.6508444  3
   1130   1116   1117   1131     1  0.0000000  0.6508444  3
   1130   1116   1117   1132     1  0.0000000  0.6508444  3
   1131   1117   1118   1133     1  0.0000000  0.0000000  2
   1132   1117   1118   1133     1  0.0000000  0.0000000  2
   1135   1136   1138   1151     1  0.0000000  0.6508444  3
   1135   1136   1138   1152     1  0.0000000  0.6508444  3
   1135   1137   1140   1153     1  0.0000000  0.6508444  3
   1135   1137   1140   1154     1  0.0000000  0.6508444  3
   1135   1142   1143   1157     1  0.0000000  0.6508444  3
   1135   1142   1143   1158     1  0.0000000  0.6508444  3
   1136   1135   1137   1149     1  0.0000000  0.6508444  3
   1136   1135   1137   1150     1  0.0000000  0.6508444  3
   1136   1135   1142   1155     1  0.0000000  0.6508444  3
   1136   1135   1142   1156     1  0.0000000  0.6508444  3
   1137   1135   1136   1147     1  0.0000000  0.6508444  3
   1137   1135   1136   1148     1  0.0000000  0.6508444  3
   1137   1135   1142   1155     1  0.0000000  0.6508444  3
   1137   1135   1142   1156     1  0.0000000  0.6508444  3
   1138   1136   1135   1160     1  0.0000000  0.6508444  3
   1138   1139   2340   2355     1  180.0000771  10.4600000  2
   1139   1138   1136   1147     1  0.0000000  0.6508444  3
   1139   1138   1136   1148     1  0.0000000  0.6508444  3
   1139   2340   2339   2353     1  0.0000000  0.0000000  2
   1139   2340   2339   2354     1  0.0000000  0.0000000  2
   1140   1137   1135   1160     1  0.0000000  0.6508444  3
   1140   1141   2366   2381     1  180.0000771  10.4600000  2
   1141   1140   1137   1149     1  0.0000000  0.6508444  3
   1141   1140   1137   1150     1  0.0000000  0.6508444  3
   1141   2366   2365   2379     1  0.0000000  0.0000000  2
   1141   2366   2365   2380     1  0.0000000  0.0000000  2
   1142   1135   1136   1147     1  0.0000000  0.6508444  3
   1142   1135   1136   1148     1  0.0000000  0.6508444  3
   1142   1135   1137   1149     1  0.0000000  0.6508444  3
   1142   1135   1137   1150     1  0.0000000  0.6508444  3
   1142   1143   1144   1159     1  0.0000000  0.0000000  2
   1143   1142   1135   1160     1  0.0000000  0.6508444  3
   1144   1143   1142   1155     1  0.0000000  0.6508444  3
   1144   1143   1142   1156     1  0.0000000  0.6508444  3
   1145   1139   1138   1151     1  0.0000000  3.3472000  1
   1145   1139   1138   1151     1  0.0000000  0.0000000  2
   1145   1139   1138   1151     1  180.0000771  0.3347200  3
   1145   1139   1138   1152     1  0.0000000  3.3472000  1
   1145   1139   1138   1152     1  0.0000000  0.0000000  2
   1145   1139   1138   1152     1  180.0000771  0.3347200  3
   1145   1139   2340   2355     1  0.0000000  8.3680000  1
   1145   1139   2340   2355     1  180.0000771  10.4600000  2
   1146   1141   1140   1153     1  0.0000000  3.3472000  1
   1146   1141   1140   1153     1  0.0000000  0.0000000  2
   1146   1141   1140   1153     1  180.0000771  0.3347200  3
   1146   1141   1140   1154     1  0.0000000  3.3472000  1
   1146   1141   1140   1154     1  0.0000000  0.0000000  2
   1146   1141   1140   1154     1  180.0000771  0.3347200  3
   1146   1141   2366   2381     1  0.0000000  8.3680000  1
   1146   1141   2366   2381     1  180.0000771  10.4600000  2
   1147   1136   1135   1160     1  0.0000000  0.6508444  3
   1147   1136   1138   1151     1  0.0000000  0.6508444  3
   1147   1136   1138   1152     1  0.0000000  0.6508444  3
   1148   1136   1135   1160     1  0.0000000  0.6508444  3
   1148   1136   1138   1151     1  0.0000000  0.6508444  3
   1148   1136   1138   1152     1  0.0000000  0.6508444  3
   1149   1137   1135   1160     1  0.0000000  0.6508444  3
   1149   1137   1140   1153     1  0.0000000  0.6508444  3
   1149   1137   1140   1154     1  0.0000000  0.6508444  3
   1150   1137   1135   1160     1  0.0000000  0.6508444  3
   1150   1137   1140   1153     1  0.0000000  0.6508444  3
   1150   1137   1140   1154     1  0.0000000  0.6508444  3
   1151   1138   1139   2340     1  180.0000771  0.0000000  2
   1152   1138   1139   2340     1  180.0000771  0.0000000  2
   1153   1140   1141   2366     1  180.0000771  0.0000000  2
   1154   1140   1141   2366     1  180.0000771  0.0000000  2
   1155   1142   1135   1160     1  0.0000000  0.6508444  3
   1155   1142   1143   1157     1  0.0000000  0.6508444  3
   1155   1142   1143   1158     1  0.0000000  0.6508444  3
   1156   1142   1135   1160     1  0.0000000  0.6508444  3
   1156   1142   1143   1157     1  0.0000000  0.6508444  3
   1156   1142   1143   1158     1  0.0000000  0.6508444  3
   1157   1143   1144   1159     1  0.0000000  0.0000000  2
   1158   1143   1144   1159     1  0.0000000  0.0000000  2
   1161   1162   1164   1177     1  0.0000000  0.6508444  3
   1161   1162   1164   1178     1  0.0000000  0.6508444  3
   1161   1163   1166   1179     1  0.0000000  0.6508444  3
   1161   1163   1166   1180     1  0.0000000  0.6508444  3
   1161   1168   1169   1183     1  0.0000000  0.6508444  3
   1161   1168   1169   1184     1  0.0000000  0.6508444  3
   1162   1161   1163   1175     1  0.0000000  0.6508444  3
   1162   1161   1163   1176     1  0.0000000  0.6508444  3
   1162   1161   1168   1181     1  0.0000000  0.6508444  3
   1162   1161   1168   1182     1  0.0000000  0.6508444  3
   1163   1161   1162   1173     1  0.0000000  0.6508444  3
   1163   1161   1162   1174     1  0.0000000  0.6508444  3
   1163   1161   1168   1181     1  0.0000000  0.6508444  3
   1163   1161   1168   1182     1  0.0000000  0.6508444  3
   1164   1162   1161   1186     1  0.0000000  0.6508444  3
   1164   1165   2392   2407     1  180.0000771  10.4600000  2
   1165   1164   1162   1173     1  0.0000000  0.6508444  3
   1165   1164   1162   1174     1  0.0000000  0.6508444  3
   1165   2392   2391   2405     1  0.0000000  0.0000000  2
   1165   2392   2391   2406     1  0.0000000  0.0000000  2
   1166   1163   1161   1186     1  0.0000000  0.6508444  3
   1166   1167   2418   2433     1  180.0000771  10.4600000  2
   1167   1166   1163   1175     1  0.0000000  0.6508444  3
   1167   1166   1163   1176     1  0.0000000  0.6508444  3
   1167   2418   2417   2431     1  0.0000000  0.0000000  2
   1167   2418   2417   2432     1  0.0000000  0.0000000  2
   1168   1161   1162   1173     1  0.0000000  0.6508444  3
   1168   1161   1162   1174     1  0.0000000  0.6508444  3
   1168   1161   1163   1175     1  0.0000000  0.6508444  3
   1168   1161   1163   1176     1  0.0000000  0.6508444  3
   1168   1169   1170   1185     1  0.0000000  0.0000000  2
   1169   1168   1161   1186     1  0.0000000  0.6508444  3
   1170   1169   1168   1181     1  0.0000000  0.6508444  3
   1170   1169   1168   1182     1  0.0000000  0.6508444  3
   1171   1165   1164   1177     1  0.0000000  3.3472000  1
   1171   1165   1164   1177     1  0.0000000  0.0000000  2
   1171   1165   1164   1177     1  180.0000771  0.3347200  3
   1171   1165   1164   1178     1  0.0000000  3.3472000  1
   1171   1165   1164   1178     1  0.0000000  0.0000000  2
   1171   1165   1164   1178     1  180.0000771  0.3347200  3
   1171   1165   2392   2407     1  0.0000000  8.3680000  1
   1171   1165   2392   2407     1  180.0000771  10.4600000  2
   1172   1167   1166   1179     1  0.0000000  3.3472000  1
   1172   1167   1166   1179     1  0.0000000  0.0000000  2
   1172   1167   1166   1179     1  180.0000771  0.3347200  3
   1172   1167   1166   1180     1  0.0000000  3.3472000  1
   1172   1167   1166   1180     1  0.0000000  0.0000000  2
   1172   1167   1166   1180     1  180.0000771  0.3347200  3
   1172   1167   2418   2433     1  0.0000000  8.3680000  1
   1172   1167   2418   2433     1  180.0000771  10.4600000  2
   1173   1162   1161   1186     1  0.0000000  0.6508444  3
   1173   1162   1164   1177     1  0.0000000  0.6508444  3
   1173   1162   1164   1178     1  0.0000000  0.6508444  3
   1174   1162   1161   1186     1  0.0000000  0.6508444  3
   1174   1162   1164   1177     1  0.0000000  0.6508444  3
   1174   1162   1164   1178     1  0.0000000  0.6508444  3
   1175   1163   1161   1186     1  0.0000000  0.6508444  3
   1175   1163   1166   1179     1  0.0000000  0.6508444  3
   1175   1163   1166   1180     1  0.0000000  0.6508444  3
   1176   1163   1161   1186     1  0.0000000  0.6508444  3
   1176   1163   1166   1179     1  0.0000000  0.6508444  3
   1176   1163   1166   1180     1  0.0000000  0.6508444  3
   1177   1164   1165   2392     1  180.0000771  0.0000000  2
   1178   1164   1165   2392     1  180.0000771  0.0000000  2
   1179   1166   1167   2418     1  180.0000771  0.0000000  2
   1180   1166   1167   2418     1  180.0000771  0.0000000  2
   1181   1168   1161   1186     1  0.0000000  0.6508444  3
   1181   1168   1169   1183     1  0.0000000  0.6508444  3
   1181   1168   1169   1184     1  0.0000000  0.6508444  3
   1182   1168   1161   1186     1  0.0000000  0.6508444  3
   1182   1168   1169   1183     1  0.0000000  0.6508444  3
   1182   1168   1169   1184     1  0.0000000  0.6508444  3
   1183   1169   1170   1185     1  0.0000000  0.0000000  2
   1184   1169   1170   1185     1  0.0000000  0.0000000  2
   1187   1188   1190   1203     1  0.0000000  0.6508444  3
   1187   1188   1190   1204     1  0.0000000  0.6508444  3
   1187   1189   1192   1205     1  0.0000000  0.6508444  3
   1187   1189   1192   1206     1  0.0000000  0.6508444  3
   1187   1194   1195   1209     1  0.0000000  0.6508444  3
   1187   1194   1195   1210     1  0.0000000  0.6508444  3
   1188   1187   1189   1201     1  0.0000000  0.6508444  3
   1188   1187   1189   1202     1  0.0000000  0.6508444  3
   1188   1187   1194   1207     1  0.0000000  0.6508444  3
   1188   1187   1194   1208     1  0.0000000  0.6508444  3
   1189   1187   1188   1199     1  0.0000000  0.6508444  3
   1189   1187   1188   1200     1  0.0000000  0.6508444  3
   1189   1187   1194   1207     1  0.0000000  0.6508444  3
   1189   1187   1194   1208     1  0.0000000  0.6508444  3
   1190   1188   1187   1212     1  0.0000000  0.6508444  3
   1190   1191   2444   2459     1  180.0000771  10.4600000  2
   1191   1190   1188   1199     1  0.0000000  0.6508444  3
   1191   1190   1188   1200     1  0.0000000  0.6508444  3
   1191   2444   2443   2457     1  0.0000000  0.0000000  2
   1191   2444   2443   2458     1  0.0000000  0.0000000  2
   1192   1189   1187   1212     1  0.0000000  0.6508444  3
   1192   1193   2470   2485     1  180.0000771  10.4600000  2
   1193   1192   1189   1201     1  0.0000000  0.6508444  3
   1193   1192   1189   1202     1  0.0000000  0.6508444  3
   1193   2470   2469   2483     1  0.0000000  0.0000000  2
   1193   2470   2469   2484     1  0.0000000  0.0000000  2
   1194   1187   1188   1199     1  0.0000000  0.6508444  3
   1194   1187   1188   1200     1  0.0000000  0.6508444  3
   1194   1187   1189   1201     1  0.0000000  0.6508444  3
   1194   1187   1189   1202     1  0.0000000  0.6508444  3
   1194   1195   1196   1211     1  0.0000000  0.0000000  2
   1195   1194   1187   1212     1  0.0000000  0.6508444  3
   1196   1195   1194   1207     1  0.0000000  0.6508444  3
   1196   1195   1194   1208     1  0.0000000  0.6508444  3
   1197   1191   1190   1203     1  0.0000000  3.3472000  1
   1197   1191   1190   1203     1  0.0000000  0.0000000  2
   1197   1191   1190   1203     1  180.0000771  0.3347200  3
   1197   1191   1190   1204     1  0.0000000  3.3472000  1
   1197   1191   1190   1204     1  0.0000000  0.0000000  2
   1197   1191   1190   1204     1  180.0000771  0.3347200  3
   1197   1191   2444   2459     1  0.0000000  8.3680000  1
   1197   1191   2444   2459     1  180.0000771  10.4600000  2
   1198   1193   1192   1205     1  0.0000000  3.3472000  1
   1198   1193   1192   1205     1  0.0000000  0.0000000  2
   1198   1193   1192   1205     1  180.0000771  0.3347200  3
   1198   1193   1192   1206     1  0.0000000  3.3472000  1
   1198   1193   1192   1206     1  0.0000000  0.0000000  2
   1198   1193   1192   1206     1  180.0000771  0.3347200  3
   1198   1193   2470   2485     1  0.0000000  8.3680000  1
   1198   1193   2470   2485     1  180.0000771  10.4600000  2
   1199   1188   1187   1212     1  0.0000000  0.6508444  3
   1199   1188   1190   1203     1  0.0000000  0.6508444  3
   1199   1188   1190   1204     1  0.0000000  0.6508444  3
   1200   1188   1187   1212     1  0.0000000  0.6508444  3
   1200   1188   1190   1203     1  0.0000000  0.6508444  3
   1200   1188   1190   1204     1  0.0000000  0.6508444  3
   1201   1189   1187   1212     1  0.0000000  0.6508444  3
   1201   1189   1192   1205     1  0.0000000  0.6508444  3
   1201   1189   1192   1206     1  0.0000000  0.6508444  3
   1202   1189   1187   1212     1  0.0000000  0.6508444  3
   1202   1189   1192   1205     1  0.0000000  0.6508444  3
   1202   1189   1192   1206     1  0.0000000  0.6508444  3
   1203   1190   1191   2444     1  180.0000771  0.0000000  2
   1204   1190   1191   2444     1  180.0000771  0.0000000  2
   1205   1192   1193   2470     1  180.0000771  0.0000000  2
   1206   1192   1193   2470     1  180.0000771  0.0000000  2
   1207   1194   1187   1212     1  0.0000000  0.6508444  3
   1207   1194   1195   1209     1  0.0000000  0.6508444  3
   1207   1194   1195   1210     1  0.0000000  0.6508444  3
   1208   1194   1187   1212     1  0.0000000  0.6508444  3
   1208   1194   1195   1209     1  0.0000000  0.6508444  3
   1208   1194   1195   1210     1  0.0000000  0.6508444  3
   1209   1195   1196   1211     1  0.0000000  0.0000000  2
   1210   1195   1196   1211     1  0.0000000  0.0000000  2
   1213   1214   1216   1229     1  0.0000000  0.6508444  3
   1213   1214   1216   1230     1  0.0000000  0.6508444  3
   1213   1215   1218   1231     1  0.0000000  0.6508444  3
   1213   1215   1218   1232     1  0.0000000  0.6508444  3
   1213   1220   1221   1235     1  0.0000000  0.6508444  3
   1213   1220   1221   1236     1  0.0000000  0.6508444  3
   1214   1213   1215   1227     1  0.0000000  0.6508444  3
   1214   1213   1215   1228     1  0.0000000  0.6508444  3
   1214   1213   1220   1233     1  0.0000000  0.6508444  3
   1214   1213   1220   1234     1  0.0000000  0.6508444  3
   1215   1213   1214   1225     1  0.0000000  0.6508444  3
   1215   1213   1214   1226     1  0.0000000  0.6508444  3
   1215   1213   1220   1233     1  0.0000000  0.6508444  3
   1215   1213   1220   1234     1  0.0000000  0.6508444  3
   1216   1214   1213   1238     1  0.0000000  0.6508444  3
   1216   1217   2496   2511     1  180.0000771  10.4600000  2
   1217   1216   1214   1225     1  0.0000000  0.6508444  3
   1217   1216   1214   1226     1  0.0000000  0.6508444  3
   1217   2496   2495   2509     1  0.0000000  0.0000000  2
   1217   2496   2495   2510     1  0.0000000  0.0000000  2
   1218   1215   1213   1238     1  0.0000000  0.6508444  3
   1218   1219   2522   2537     1  180.0000771  10.4600000  2
   1219   1218   1215   1227     1  0.0000000  0.6508444  3
   1219   1218   1215   1228     1  0.0000000  0.6508444  3
   1219   2522   2521   2535     1  0.0000000  0.0000000  2
   1219   2522   2521   2536     1  0.0000000  0.0000000  2
   1220   1213   1214   1225     1  0.0000000  0.6508444  3
   1220   1213   1214   1226     1  0.0000000  0.6508444  3
   1220   1213   1215   1227     1  0.0000000  0.6508444  3
   1220   1213   1215   1228     1  0.0000000  0.6508444  3
   1220   1221   1222   1237     1  0.0000000  0.0000000  2
   1221   1220   1213   1238     1  0.0000000  0.6508444  3
   1222   1221   1220   1233     1  0.0000000  0.6508444  3
   1222   1221   1220   1234     1  0.0000000  0.6508444  3
   1223   1217   1216   1229     1  0.0000000  3.3472000  1
   1223   1217   1216   1229     1  0.0000000  0.0000000  2
   1223   1217   1216   1229     1  180.0000771  0.3347200  3
   1223   1217   1216   1230     1  0.0000000  3.3472000  1
   1223   1217   1216   1230     1  0.0000000  0.0000000  2
   1223   1217   1216   1230     1  180.0000771  0.3347200  3
   1223   1217   2496   2511     1  0.0000000  8.3680000  1
   1223   1217   2496   2511     1  180.0000771  10.4600000  2
   1224   1219   1218   1231     1  0.0000000  3.3472000  1
   1224   1219   1218   1231     1  0.0000000  0.0000000  2
   1224   1219   1218   1231     1  180.0000771  0.3347200  3
   1224   1219   1218   1232     1  0.0000000  3.3472000  1
   1224   1219   1218   1232     1  0.0000000  0.0000000  2
   1224   1219   1218   1232     1  180.0000771  0.3347200  3
   1224   1219   2522   2537     1  0.0000000  8.3680000  1
   1224   1219   2522   2537     1  180.0000771  10.4600000  2
   1225   1214   1213   1238     1  0.0000000  0.6508444  3
   1225   1214   1216   1229     1  0.0000000  0.6508444  3
   1225   1214   1216   1230     1  0.0000000  0.6508444  3
   1226   1214   1213   1238     1  0.0000000  0.6508444  3
   1226   1214   1216   1229     1  0.0000000  0.6508444  3
   1226   1214   1216   1230     1  0.0000000  0.6508444  3
   1227   1215   1213   1238     1  0.0000000  0.6508444  3
   1227   1215   1218   1231     1  0.0000000  0.6508444  3
   1227   1215   1218   1232     1  0.0000000  0.6508444  3
   1228   1215   1213   1238     1  0.0000000  0.6508444  3
   1228   1215   1218   1231     1  0.0000000  0.6508444  3
   1228   1215   1218   1232     1  0.0000000  0.6508444  3
   1229   1216   1217   2496     1  180.0000771  0.0000000  2
   1230   1216   1217   2496     1  180.0000771  0.0000000  2
   1231   1218   1219   2522     1  180.0000771  0.0000000  2
   1232   1218   1219   2522     1  180.0000771  0.0000000  2
   1233   1220   1213   1238     1  0.0000000  0.6508444  3
   1233   1220   1221   1235     1  0.0000000  0.6508444  3
   1233   1220   1221   1236     1  0.0000000  0.6508444  3
   1234   1220   1213   1238     1  0.0000000  0.6508444  3
   1234   1220   1221   1235     1  0.0000000  0.6508444  3
   1234   1220   1221   1236     1  0.0000000  0.6508444  3
   1235   1221   1222   1237     1  0.0000000  0.0000000  2
   1236   1221   1222   1237     1  0.0000000  0.0000000  2
   1239   1240   1242   1255     1  0.0000000  0.6508444  3
   1239   1240   1242   1256     1  0.0000000  0.6508444  3
   1239   1241   1244   1257     1  0.0000000  0.6508444  3
   1239   1241   1244   1258     1  0.0000000  0.6508444  3
   1239   1246   1247   1261     1  0.0000000  0.6508444  3
   1239   1246   1247   1262     1  0.0000000  0.6508444  3
   1240   1239   1241   1253     1  0.0000000  0.6508444  3
   1240   1239   1241   1254     1  0.0000000  0.6508444  3
   1240   1239   1246   1259     1  0.0000000  0.6508444  3
   1240   1239   1246   1260     1  0.0000000  0.6508444  3
   1241   1239   1240   1251     1  0.0000000  0.6508444  3
   1241   1239   1240   1252     1  0.0000000  0.6508444  3
   1241   1239   1246   1259     1  0.0000000  0.6508444  3
   1241   1239   1246   1260     1  0.0000000  0.6508444  3
   1242   1240   1239   1264     1  0.0000000  0.6508444  3
   1242   1243   2548   2563     1  180.0000771  10.4600000  2
   1243   1242   1240   1251     1  0.0000000  0.6508444  3
   1243   1242   1240   1252     1  0.0000000  0.6508444  3
   1243   2548   2547   2561     1  0.0000000  0.0000000  2
   1243   2548   2547   2562     1  0.0000000  0.0000000  2
   1244   1241   1239   1264     1  0.0000000  0.6508444  3
   1244   1245   2574   2589     1  180.0000771  10.4600000  2
   1245   1244   1241   1253     1  0.0000000  0.6508444  3
   1245   1244   1241   1254     1  0.0000000  0.6508444  3
   1245   2574   2573   2587     1  0.0000000  0.0000000  2
   1245   2574   2573   2588     1  0.0000000  0.0000000  2
   1246   1239   1240   1251     1  0.0000000  0.6508444  3
   1246   1239   1240   1252     1  0.0000000  0.6508444  3
   1246   1239   1241   1253     1  0.0000000  0.6508444  3
   1246   1239   1241   1254     1  0.0000000  0.6508444  3
   1246   1247   1248   1263     1  0.0000000  0.0000000  2
   1247   1246   1239   1264     1  0.0000000  0.6508444  3
   1248   1247   1246   1259     1  0.0000000  0.6508444  3
   1248   1247   1246   1260     1  0.0000000  0.6508444  3
   1249   1243   1242   1255     1  0.0000000  3.3472000  1
   1249   1243   1242   1255     1  0.0000000  0.0000000  2
   1249   1243   1242   1255     1  180.0000771  0.3347200  3
   1249   1243   1242   1256     1  0.0000000  3.3472000  1
   1249   1243   1242   1256     1  0.0000000  0.0000000  2
   1249   1243   1242   1256     1  180.0000771  0.3347200  3
   1249   1243   2548   2563     1  0.0000000  8.3680000  1
   1249   1243   2548   2563     1  180.0000771  10.4600000  2
   1250   1245   1244   1257     1  0.0000000  3.3472000  1
   1250   1245   1244   1257     1  0.0000000  0.0000000  2
   1250   1245   1244   1257     1  180.0000771  0.3347200  3
   1250   1245   1244   1258     1  0.0000000  3.3472000  1
   1250   1245   1244   1258     1  0.0000000  0.0000000  2
   1250   1245   1244   1258     1  180.0000771  0.3347200  3
   1250   1245   2574   2589     1  0.0000000  8.3680000  1
   1250   1245   2574   2589     1  180.0000771  10.4600000  2
   1251   1240   1239   1264     1  0.0000000  0.6508444  3
   1251   1240   1242   1255     1  0.0000000  0.6508444  3
   1251   1240   1242   1256     1  0.0000000  0.6508444  3
   1252   1240   1239   1264     1  0.0000000  0.6508444  3
   1252   1240   1242   1255     1  0.0000000  0.6508444  3
   1252   1240   1242   1256     1  0.0000000  0.6508444  3
   1253   1241   1239   1264     1  0.0000000  0.6508444  3
   1253   1241   1244   1257     1  0.0000000  0.6508444  3
   1253   1241   1244   1258     1  0.0000000  0.6508444  3
   1254   1241   1239   1264     1  0.0000000  0.6508444  3
   1254   1241   1244   1257     1  0.0000000  0.6508444  3
   1254   1241   1244   1258     1  0.0000000  0.6508444  3
   1255   1242   1243   2548     1  180.0000771  0.0000000  2
   1256   1242   1243   2548     1  180.0000771  0.0000000  2
   1257   1244   1245   2574     1  180.0000771  0.0000000  2
   1258   1244   1245   2574     1  180.0000771  0.0000000  2
   1259   1246   1239   1264     1  0.0000000  0.6508444  3
   1259   1246   1247   1261     1  0.0000000  0.6508444  3
   1259   1246   1247   1262     1  0.0000000  0.6508444  3
   1260   1246   1239   1264     1  0.0000000  0.6508444  3
   1260   1246   1247   1261     1  0.0000000  0.6508444  3
   1260   1246   1247   1262     1  0.0000000  0.6508444  3
   1261   1247   1248   1263     1  0.0000000  0.0000000  2
   1262   1247   1248   1263     1  0.0000000  0.0000000  2
   1265   1266   1268   1281     1  0.0000000  0.6508444  3
   1265   1266   1268   1282     1  0.0000000  0.6508444  3
   1265   1267   1270   1283     1  0.0000000  0.6508444  3
   1265   1267   1270   1284     1  0.0000000  0.6508444  3
   1265   1272   1273   1287     1  0.0000000  0.6508444  3
   1265   1272   1273   1288     1  0.0000000  0.6508444  3
   1266   1265   1267   1279     1  0.0000000  0.6508444  3
   1266   1265   1267   1280     1  0.0000000  0.6508444  3
   1266   1265   1272   1285     1  0.0000000  0.6508444  3
   1266   1265   1272   1286     1  0.0000000  0.6508444  3
   1267   1265   1266   1277     1  0.0000000  0.6508444  3
   1267   1265   1266   1278     1  0.0000000  0.6508444  3
   1267   1265   1272   1285     1  0.0000000  0.6508444  3
   1267   1265   1272   1286     1  0.0000000  0.6508444  3
   1268   1266   1265   1290     1  0.0000000  0.6508444  3
   1268   1269   2600   2615     1  180.0000771  10.4600000  2
   1269   1268   1266   1277     1  0.0000000  0.6508444  3
   1269   1268   1266   1278     1  0.0000000  0.6508444  3
   1269   2600   2599   2613     1  0.0000000  0.0000000  2
   1269   2600   2599   2614     1  0.0000000  0.0000000  2
   1270   1267   1265   1290     1  0.0000000  0.6508444  3
   1270   1271   2626   2641     1  180.0000771  10.4600000  2
   1271   1270   1267   1279     1  0.0000000  0.6508444  3
   1271   1270   1267   1280     1  0.0000000  0.6508444  3
   1271   2626   2625   2639     1  0.0000000  0.0000000  2
   1271   2626   2625   2640     1  0.0000000  0.0000000  2
   1272   1265   1266   1277     1  0.0000000  0.6508444  3
   1272   1265   1266   1278     1  0.0000000  0.6508444  3
   1272   1265   1267   1279     1  0.0000000  0.6508444  3
   1272   1265   1267   1280     1  0.0000000  0.6508444  3
   1272   1273   1274   1289     1  0.0000000  0.0000000  2
   1273   1272   1265   1290     1  0.0000000  0.6508444  3
   1274   1273   1272   1285     1  0.0000000  0.6508444  3
   1274   1273   1272   1286     1  0.0000000  0.6508444  3
   1275   1269   1268   1281     1  0.0000000  3.3472000  1
   1275   1269   1268   1281     1  0.0000000  0.0000000  2
   1275   1269   1268   1281     1  180.0000771  0.3347200  3
   1275   1269   1268   1282     1  0.0000000  3.3472000  1
   1275   1269   1268   1282     1  0.0000000  0.0000000  2
   1275   1269   1268   1282     1  180.0000771  0.3347200  3
   1275   1269   2600   2615     1  0.0000000  8.3680000  1
   1275   1269   2600   2615     1  180.0000771  10.4600000  2
   1276   1271   1270   1283     1  0.0000000  3.3472000  1
   1276   1271   1270   1283     1  0.0000000  0.0000000  2
   1276   1271   1270   1283     1  180.0000771  0.3347200  3
   1276   1271   1270   1284     1  0.0000000  3.3472000  1
   1276   1271   1270   1284     1  0.0000000  0.0000000  2
   1276   1271   1270   1284     1  180.0000771  0.3347200  3
   1276   1271   2626   2641     1  0.0000000  8.3680000  1
   1276   1271   2626   2641     1  180.0000771  10.4600000  2
   1277   1266   1265   1290     1  0.0000000  0.6508444  3
   1277   1266   1268   1281     1  0.0000000  0.6508444  3
   1277   1266   1268   1282     1  0.0000000  0.6508444  3
   1278   1266   1265   1290     1  0.0000000  0.6508444  3
   1278   1266   1268   1281     1  0.0000000  0.6508444  3
   1278   1266   1268   1282     1  0.0000000  0.6508444  3
   1279   1267   1265   1290     1  0.0000000  0.6508444  3
   1279   1267   1270   1283     1  0.0000000  0.6508444  3
   1279   1267   1270   1284     1  0.0000000  0.6508444  3
   1280   1267   1265   1290     1  0.0000000  0.6508444  3
   1280   1267   1270   1283     1  0.0000000  0.6508444  3
   1280   1267   1270   1284     1  0.0000000  0.6508444  3
   1281   1268   1269   2600     1  180.0000771  0.0000000  2
   1282   1268   1269   2600     1  180.0000771  0.0000000  2
   1283   1270   1271   2626     1  180.0000771  0.0000000  2
   1284   1270   1271   2626     1  180.0000771  0.0000000  2
   1285   1272   1265   1290     1  0.0000000  0.6508444  3
   1285   1272   1273   1287     1  0.0000000  0.6508444  3
   1285   1272   1273   1288     1  0.0000000  0.6508444  3
   1286   1272   1265   1290     1  0.0000000  0.6508444  3
   1286   1272   1273   1287     1  0.0000000  0.6508444  3
   1286   1272   1273   1288     1  0.0000000  0.6508444  3
   1287   1273   1274   1289     1  0.0000000  0.0000000  2
   1288   1273   1274   1289     1  0.0000000  0.0000000  2
   1291   1292   1294   1307     1  0.0000000  0.6508444  3
   1291   1292   1294   1308     1  0.0000000  0.6508444  3
   1291   1293   1296   1309     1  0.0000000  0.6508444  3
   1291   1293   1296   1310     1  0.0000000  0.6508444  3
   1291   1298   1299   1313     1  0.0000000  0.6508444  3
   1291   1298   1299   1314     1  0.0000000  0.6508444  3
   1292   1291   1293   1305     1  0.0000000  0.6508444  3
   1292   1291   1293   1306     1  0.0000000  0.6508444  3
   1292   1291   1298   1311     1  0.0000000  0.6508444  3
   1292   1291   1298   1312     1  0.0000000  0.6508444  3
   1293   1291   1292   1303     1  0.0000000  0.6508444  3
   1293   1291   1292   1304     1  0.0000000  0.6508444  3
   1293   1291   1298   1311     1  0.0000000  0.6508444  3
   1293   1291   1298   1312     1  0.0000000  0.6508444  3
   1294   1292   1291   1316     1  0.0000000  0.6508444  3
   1294   1295   2652   2667     1  180.0000771  10.4600000  2
   1295   1294   1292   1303     1  0.0000000  0.6508444  3
   1295   1294   1292   1304     1  0.0000000  0.6508444  3
   1295   2652   2651   2665     1  0.0000000  0.0000000  2
   1295   2652   2651   2666     1  0.0000000  0.0000000  2
   1296   1293   1291   1316     1  0.0000000  0.6508444  3
   1296   1297   2678   2693     1  180.0000771  10.4600000  2
   1297   1296   1293   1305     1  0.0000000  0.6508444  3
   1297   1296   1293   1306     1  0.0000000  0.6508444  3
   1297   2678   2677   2691     1  0.0000000  0.0000000  2
   1297   2678   2677   2692     1  0.0000000  0.0000000  2
   1298   1291   1292   1303     1  0.0000000  0.6508444  3
   1298   1291   1292   1304     1  0.0000000  0.6508444  3
   1298   1291   1293   1305     1  0.0000000  0.6508444  3
   1298   1291   1293   1306     1  0.0000000  0.6508444  3
   1298   1299   1300   1315     1  0.0000000  0.0000000  2
   1299   1298   1291   1316     1  0.0000000  0.6508444  3
   1300   1299   1298   1311     1  0.0000000  0.6508444  3
   1300   1299   1298   1312     1  0.0000000  0.6508444  3
   1301   1295   1294   1307     1  0.0000000  3.3472000  1
   1301   1295   1294   1307     1  0.0000000  0.0000000  2
   1301   1295   1294   1307     1  180.0000771  0.3347200  3
   1301   1295   1294   1308     1  0.0000000  3.3472000  1
   1301   1295   1294   1308     1  0.0000000  0.0000000  2
   1301   1295   1294   1308     1  180.0000771  0.3347200  3
   1301   1295   2652   2667     1  0.0000000  8.3680000  1
   1301   1295   2652   2667     1  180.0000771  10.4600000  2
   1302   1297   1296   1309     1  0.0000000  3.3472000  1
   1302   1297   1296   1309     1  0.0000000  0.0000000  2
   1302   1297   1296   1309     1  180.0000771  0.3347200  3
   1302   1297   1296   1310     1  0.0000000  3.3472000  1
   1302   1297   1296   1310     1  0.0000000  0.0000000  2
   1302   1297   1296   1310     1  180.0000771  0.3347200  3
   1302   1297   2678   2693     1  0.0000000  8.3680000  1
   1302   1297   2678   2693     1  180.0000771  10.4600000  2
   1303   1292   1291   1316     1  0.0000000  0.6508444  3
   1303   1292   1294   1307     1  0.0000000  0.6508444  3
   1303   1292   1294   1308     1  0.0000000  0.6508444  3
   1304   1292   1291   1316     1  0.0000000  0.6508444  3
   1304   1292   1294   1307     1  0.0000000  0.6508444  3
   1304   1292   1294   1308     1  0.0000000  0.6508444  3
   1305   1293   1291   1316     1  0.0000000  0.6508444  3
   1305   1293   1296   1309     1  0.0000000  0.6508444  3
   1305   1293   1296   1310     1  0.0000000  0.6508444  3
   1306   1293   1291   1316     1  0.0000000  0.6508444  3
   1306   1293   1296   1309     1  0.0000000  0.6508444  3
   1306   1293   1296   1310     1  0.0000000  0.6508444  3
   1307   1294   1295   2652     1  180.0000771  0.0000000  2
   1308   1294   1295   2652     1  180.0000771  0.0000000  2
   1309   1296   1297   2678     1  180.0000771  0.0000000  2
   1310   1296   1297   2678     1  180.0000771  0.0000000  2
   1311   1298   1291   1316     1  0.0000000  0.6508444  3
   1311   1298   1299   1313     1  0.0000000  0.6508444  3
   1311   1298   1299   1314     1  0.0000000  0.6508444  3
   1312   1298   1291   1316     1  0.0000000  0.6508444  3
   1312   1298   1299   1313     1  0.0000000  0.6508444  3
   1312   1298   1299   1314     1  0.0000000  0.6508444  3
   1313   1299   1300   1315     1  0.0000000  0.0000000  2
   1314   1299   1300   1315     1  0.0000000  0.0000000  2
   1317   1318   1320   1333     1  0.0000000  0.6508444  3
   1317   1318   1320   1334     1  0.0000000  0.6508444  3
   1317   1319   1322   1335     1  0.0000000  0.6508444  3
   1317   1319   1322   1336     1  0.0000000  0.6508444  3
   1317   1324   1325   1339     1  0.0000000  0.6508444  3
   1317   1324   1325   1340     1  0.0000000  0.6508444  3
   1318   1317   1319   1331     1  0.0000000  0.6508444  3
   1318   1317   1319   1332     1  0.0000000  0.6508444  3
   1318   1317   1324   1337     1  0.0000000  0.6508444  3
   1318   1317   1324   1338     1  0.0000000  0.6508444  3
   1319   1317   1318   1329     1  0.0000000  0.6508444  3
   1319   1317   1318   1330     1  0.0000000  0.6508444  3
   1319   1317   1324   1337     1  0.0000000  0.6508444  3
   1319   1317   1324   1338     1  0.0000000  0.6508444  3
   1320   1318   1317   1342     1  0.0000000  0.6508444  3
   1320   1321   2704   2719     1  180.0000771  10.4600000  2
   1321   1320   1318   1329     1  0.0000000  0.6508444  3
   1321   1320   1318   1330     1  0.0000000  0.6508444  3
   1321   2704   2703   2717     1  0.0000000  0.0000000  2
   1321   2704   2703   2718     1  0.0000000  0.0000000  2
   1322   1319   1317   1342     1  0.0000000  0.6508444  3
   1322   1323   2730   2745     1  180.0000771  10.4600000  2
   1323   1322   1319   1331     1  0.0000000  0.6508444  3
   1323   1322   1319   1332     1  0.0000000  0.6508444  3
   1323   2730   2729   2743     1  0.0000000  0.0000000  2
   1323   2730   2729   2744     1  0.0000000  0.0000000  2
   1324   1317   1318   1329     1  0.0000000  0.6508444  3
   1324   1317   1318   1330     1  0.0000000  0.6508444  3
   1324   1317   1319   1331     1  0.0000000  0.6508444  3
   1324   1317   1319   1332     1  0.0000000  0.6508444  3
   1324   1325   1326   1341     1  0.0000000  0.0000000  2
   1325   1324   1317   1342     1  0.0000000  0.6508444  3
   1326   1325   1324   1337     1  0.0000000  0.6508444  3
   1326   1325   1324   1338     1  0.0000000  0.6508444  3
   1327   1321   1320   1333     1  0.0000000  3.3472000  1
   1327   1321   1320   1333     1  0.0000000  0.0000000  2
   1327   1321   1320   1333     1  180.0000771  0.3347200  3
   1327   1321   1320   1334     1  0.0000000  3.3472000  1
   1327   1321   1320   1334     1  0.0000000  0.0000000  2
   1327   1321   1320   1334     1  180.0000771  0.3347200  3
   1327   1321   2704   2719     1  0.0000000  8.3680000  1
   1327   1321   2704   2719     1  180.0000771  10.4600000  2
   1328   1323   1322   1335     1  0.0000000  3.3472000  1
   1328   1323   1322   1335     1  0.0000000  0.0000000  2
   1328   1323   1322   1335     1  180.0000771  0.3347200  3
   1328   1323   1322   1336     1  0.0000000  3.3472000  1
   1328   1323   1322   1336     1  0.0000000  0.0000000  2
   1328   1323   1322   1336     1  180.0000771  0.3347200  3
   1328   1323   2730   2745     1  0.0000000  8.3680000  1
   1328   1323   2730   2745     1  180.0000771  10.4600000  2
   1329   1318   1317   1342     1  0.0000000  0.6508444  3
   1329   1318   1320   1333     1  0.0000000  0.6508444  3
   1329   1318   1320   1334     1  0.0000000  0.6508444  3
   1330   1318   1317   1342     1  0.0000000  0.6508444  3
   1330   1318   1320   1333     1  0.0000000  0.6508444  3
   1330   1318   1320   1334     1  0.0000000  0.6508444  3
   1331   1319   1317   1342     1  0.0000000  0.6508444  3
   1331   1319   1322   1335     1  0.0000000  0.6508444  3
   1331   1319   1322   1336     1  0.0000000  0.6508444  3
   1332   1319   1317   1342     1  0.0000000  0.6508444  3
   1332   1319   1322   1335     1  0.0000000  0.6508444  3
   1332   1319   1322   1336     1  0.0000000  0.6508444  3
   1333   1320   1321   2704     1  180.0000771  0.0000000  2
   1334   1320   1321   2704     1  180.0000771  0.0000000  2
   1335   1322   1323   2730     1  180.0000771  0.0000000  2
   1336   1322   1323   2730     1  180.0000771  0.0000000  2
   1337   1324   1317   1342     1  0.0000000  0.6508444  3
   1337   1324   1325   1339     1  0.0000000  0.6508444  3
   1337   1324   1325   1340     1  0.0000000  0.6508444  3
   1338   1324   1317   1342     1  0.0000000  0.6508444  3
   1338   1324   1325   1339     1  0.0000000  0.6508444  3
   1338   1324   1325   1340     1  0.0000000  0.6508444  3
   1339   1325   1326   1341     1  0.0000000  0.0000000  2
   1340   1325   1326   1341     1  0.0000000  0.0000000  2
   1343   1344   1346   1359     1  0.0000000  0.6508444  3
   1343   1344   1346   1360     1  0.0000000  0.6508444  3
   1343   1345   1348   1361     1  0.0000000  0.6508444  3
   1343   1345   1348   1362     1  0.0000000  0.6508444  3
   1343   1350   1351   1365     1  0.0000000  0.6508444  3
   1343   1350   1351   1366     1  0.0000000  0.6508444  3
   1344   1343   1345   1357     1  0.0000000  0.6508444  3
   1344   1343   1345   1358     1  0.0000000  0.6508444  3
   1344   1343   1350   1363     1  0.0000000  0.6508444  3
   1344   1343   1350   1364     1  0.0000000  0.6508444  3
   1345   1343   1344   1355     1  0.0000000  0.6508444  3
   1345   1343   1344   1356     1  0.0000000  0.6508444  3
   1345   1343   1350   1363     1  0.0000000  0.6508444  3
   1345   1343   1350   1364     1  0.0000000  0.6508444  3
   1346   1344   1343   1368     1  0.0000000  0.6508444  3
   1346   1347   2756   2771     1  180.0000771  10.4600000  2
   1347   1346   1344   1355     1  0.0000000  0.6508444  3
   1347   1346   1344   1356     1  0.0000000  0.6508444  3
   1347   2756   2755   2769     1  0.0000000  0.0000000  2
   1347   2756   2755   2770     1  0.0000000  0.0000000  2
   1348   1345   1343   1368     1  0.0000000  0.6508444  3
   1348   1349   2782   2797     1  180.0000771  10.4600000  2
   1349   1348   1345   1357     1  0.0000000  0.6508444  3
   1349   1348   1345   1358     1  0.0000000  0.6508444  3
   1349   2782   2781   2795     1  0.0000000  0.0000000  2
   1349   2782   2781   2796     1  0.0000000  0.0000000  2
   1350   1343   1344   1355     1  0.0000000  0.6508444  3
   1350   1343   1344   1356     1  0.0000000  0.6508444  3
   1350   1343   1345   1357     1  0.0000000  0.6508444  3
   1350   1343   1345   1358     1  0.0000000  0.6508444  3
   1350   1351   1352   1367     1  0.0000000  0.0000000  2
   1351   1350   1343   1368     1  0.0000000  0.6508444  3
   1352   1351   1350   1363     1  0.0000000  0.6508444  3
   1352   1351   1350   1364     1  0.0000000  0.6508444  3
   1353   1347   1346   1359     1  0.0000000  3.3472000  1
   1353   1347   1346   1359     1  0.0000000  0.0000000  2
   1353   1347   1346   1359     1  180.0000771  0.3347200  3
   1353   1347   1346   1360     1  0.0000000  3.3472000  1
   1353   1347   1346   1360     1  0.0000000  0.0000000  2
   1353   1347   1346   1360     1  180.0000771  0.3347200  3
   1353   1347   2756   2771     1  0.0000000  8.3680000  1
   1353   1347   2756   2771     1  180.0000771  10.4600000  2
   1354   1349   1348   1361     1  0.0000000  3.3472000  1
   1354   1349   1348   1361     1  0.0000000  0.0000000  2
   1354   1349   1348   1361     1  180.0000771  0.3347200  3
   1354   1349   1348   1362     1  0.0000000  3.3472000  1
   1354   1349   1348   1362     1  0.0000000  0.0000000  2
   1354   1349   1348   1362     1  180.0000771  0.3347200  3
   1354   1349   2782   2797     1  0.0000000  8.3680000  1
   1354   1349   2782   2797     1  180.0000771  10.4600000  2
   1355   1344   1343   1368     1  0.0000000  0.6508444  3
   1355   1344   1346   1359     1  0.0000000  0.6508444  3
   1355   1344   1346   1360     1  0.0000000  0.6508444  3
   1356   1344   1343   1368     1  0.0000000  0.6508444  3
   1356   1344   1346   1359     1  0.0000000  0.6508444  3
   1356   1344   1346   1360     1  0.0000000  0.6508444  3
   1357   1345   1343   1368     1  0.0000000  0.6508444  3
   1357   1345   1348   1361     1  0.0000000  0.6508444  3
   1357   1345   1348   1362     1  0.0000000  0.6508444  3
   1358   1345   1343   1368     1  0.0000000  0.6508444  3
   1358   1345   1348   1361     1  0.0000000  0.6508444  3
   1358   1345   1348   1362     1  0.0000000  0.6508444  3
   1359   1346   1347   2756     1  180.0000771  0.0000000  2
   1360   1346   1347   2756     1  180.0000771  0.0000000  2
   1361   1348   1349   2782     1  180.0000771  0.0000000  2
   1362   1348   1349   2782     1  180.0000771  0.0000000  2
   1363   1350   1343   1368     1  0.0000000  0.6508444  3
   1363   1350   1351   1365     1  0.0000000  0.6508444  3
   1363   1350   1351   1366     1  0.0000000  0.6508444  3
   1364   1350   1343   1368     1  0.0000000  0.6508444  3
   1364   1350   1351   1365     1  0.0000000  0.6508444  3
   1364   1350   1351   1366     1  0.0000000  0.6508444  3
   1365   1351   1352   1367     1  0.0000000  0.0000000  2
   1366   1351   1352   1367     1  0.0000000  0.0000000  2
   1369   1370   1372   1385     1  0.0000000  0.6508444  3
   1369   1370   1372   1386     1  0.0000000  0.6508444  3
   1369   1371   1374   1387     1  0.0000000  0.6508444  3
   1369   1371   1374   1388     1  0.0000000  0.6508444  3
   1369   1376   1377   1391     1  0.0000000  0.6508444  3
   1369   1376   1377   1392     1  0.0000000  0.6508444  3
   1370   1369   1371   1383     1  0.0000000  0.6508444  3
   1370   1369   1371   1384     1  0.0000000  0.6508444  3
   1370   1369   1376   1389     1  0.0000000  0.6508444  3
   1370   1369   1376   1390     1  0.0000000  0.6508444  3
   1371   1369   1370   1381     1  0.0000000  0.6508444  3
   1371   1369   1370   1382     1  0.0000000  0.6508444  3
   1371   1369   1376   1389     1  0.0000000  0.6508444  3
   1371   1369   1376   1390     1  0.0000000  0.6508444  3
   1372   1370   1369   1394     1  0.0000000  0.6508444  3
   1372   1373   2808   2823     1  180.0000771  10.4600000  2
   1373   1372   1370   1381     1  0.0000000  0.6508444  3
   1373   1372   1370   1382     1  0.0000000  0.6508444  3
   1373   2808   2807   2821     1  0.0000000  0.0000000  2
   1373   2808   2807   2822     1  0.0000000  0.0000000  2
   1374   1371   1369   1394     1  0.0000000  0.6508444  3
   1374   1375   2834   2849     1  180.0000771  10.4600000  2
   1375   1374   1371   1383     1  0.0000000  0.6508444  3
   1375   1374   1371   1384     1  0.0000000  0.6508444  3
   1375   2834   2833   2847     1  0.0000000  0.0000000  2
   1375   2834   2833   2848     1  0.0000000  0.0000000  2
   1376   1369   1370   1381     1  0.0000000  0.6508444  3
   1376   1369   1370   1382     1  0.0000000  0.6508444  3
   1376   1369   1371   1383     1  0.0000000  0.6508444  3
   1376   1369   1371   1384     1  0.0000000  0.6508444  3
   1376   1377   1378   1393     1  0.0000000  0.0000000  2
   1377   1376   1369   1394     1  0.0000000  0.6508444  3
   1378   1377   1376   1389     1  0.0000000  0.6508444  3
   1378   1377   1376   1390     1  0.0000000  0.6508444  3
   1379   1373   1372   1385     1  0.0000000  3.3472000  1
   1379   1373   1372   1385     1  0.0000000  0.0000000  2
   1379   1373   1372   1385     1  180.0000771  0.3347200  3
   1379   1373   1372   1386     1  0.0000000  3.3472000  1
   1379   1373   1372   1386     1  0.0000000  0.0000000  2
   1379   1373   1372   1386     1  180.0000771  0.3347200  3
   1379   1373   2808   2823     1  0.0000000  8.3680000  1
   1379   1373   2808   2823     1  180.0000771  10.4600000  2
   1380   1375   1374   1387     1  0.0000000  3.3472000  1
   1380   1375   1374   1387     1  0.0000000  0.0000000  2
   1380   1375   1374   1387     1  180.0000771  0.3347200  3
   1380   1375   1374   1388     1  0.0000000  3.3472000  1
   1380   1375   1374   1388     1  0.0000000  0.0000000  2
   1380   1375   1374   1388     1  180.0000771  0.3347200  3
   1380   1375   2834   2849     1  0.0000000  8.3680000  1
   1380   1375   2834   2849     1  180.0000771  10.4600000  2
   1381   1370   1369   1394     1  0.0000000  0.6508444  3
   1381   1370   1372   1385     1  0.0000000  0.6508444  3
   1381   1370   1372   1386     1  0.0000000  0.6508444  3
   1382   1370   1369   1394     1  0.0000000  0.6508444  3
   1382   1370   1372   1385     1  0.0000000  0.6508444  3
   1382   1370   1372   1386     1  0.0000000  0.6508444  3
   1383   1371   1369   1394     1  0.0000000  0.6508444  3
   1383   1371   1374   1387     1  0.0000000  0.6508444  3
   1383   1371   1374   1388     1  0.0000000  0.6508444  3
   1384   1371   1369   1394     1  0.0000000  0.6508444  3
   1384   1371   1374   1387     1  0.0000000  0.6508444  3
   1384   1371   1374   1388     1  0.0000000  0.6508444  3
   1385   1372   1373   2808     1  180.0000771  0.0000000  2
   1386   1372   1373   2808     1  180.0000771  0.0000000  2
   1387   1374   1375   2834     1  180.0000771  0.0000000  2
   1388   1374   1375   2834     1  180.0000771  0.0000000  2
   1389   1376   1369   1394     1  0.0000000  0.6508444  3
   1389   1376   1377   1391     1  0.0000000  0.6508444  3
   1389   1376   1377   1392     1  0.0000000  0.6508444  3
   1390   1376   1369   1394     1  0.0000000  0.6508444  3
   1390   1376   1377   1391     1  0.0000000  0.6508444  3
   1390   1376   1377   1392     1  0.0000000  0.6508444  3
   1391   1377   1378   1393     1  0.0000000  0.0000000  2
   1392   1377   1378   1393     1  0.0000000  0.0000000  2
   1395   1396   1398   1411     1  0.0000000  0.6508444  3
   1395   1396   1398   1412     1  0.0000000  0.6508444  3
   1395   1397   1400   1413     1  0.0000000  0.6508444  3
   1395   1397   1400   1414     1  0.0000000  0.6508444  3
   1395   1402   1403   1417     1  0.0000000  0.6508444  3
   1395   1402   1403   1418     1  0.0000000  0.6508444  3
   1396   1395   1397   1409     1  0.0000000  0.6508444  3
   1396   1395   1397   1410     1  0.0000000  0.6508444  3
   1396   1395   1402   1415     1  0.0000000  0.6508444  3
   1396   1395   1402   1416     1  0.0000000  0.6508444  3
   1397   1395   1396   1407     1  0.0000000  0.6508444  3
   1397   1395   1396   1408     1  0.0000000  0.6508444  3
   1397   1395   1402   1415     1  0.0000000  0.6508444  3
   1397   1395   1402   1416     1  0.0000000  0.6508444  3
   1398   1396   1395   1420     1  0.0000000  0.6508444  3
   1398   1399   2860   2875     1  180.0000771  10.4600000  2
   1399   1398   1396   1407     1  0.0000000  0.6508444  3
   1399   1398   1396   1408     1  0.0000000  0.6508444  3
   1399   2860   2859   2873     1  0.0000000  0.0000000  2
   1399   2860   2859   2874     1  0.0000000  0.0000000  2
   1400   1397   1395   1420     1  0.0000000  0.6508444  3
   1400   1401   2886   2901     1  180.0000771  10.4600000  2
   1401   1400   1397   1409     1  0.0000000  0.6508444  3
   1401   1400   1397   1410     1  0.0000000  0.6508444  3
   1401   2886   2885   2899     1  0.0000000  0.0000000  2
   1401   2886   2885   2900     1  0.0000000  0.0000000  2
   1402   1395   1396   1407     1  0.0000000  0.6508444  3
   1402   1395   1396   1408     1  0.0000000  0.6508444  3
   1402   1395   1397   1409     1  0.0000000  0.6508444  3
   1402   1395   1397   1410     1  0.0000000  0.6508444  3
   1402   1403   1404   1419     1  0.0000000  0.0000000  2
   1403   1402   1395   1420     1  0.0000000  0.6508444  3
   1404   1403   1402   1415     1  0.0000000  0.6508444  3
   1404   1403   1402   1416     1  0.0000000  0.6508444  3
   1405   1399   1398   1411     1  0.0000000  3.3472000  1
   1405   1399   1398   1411     1  0.0000000  0.0000000  2
   1405   1399   1398   1411     1  180.0000771  0.3347200  3
   1405   1399   1398   1412     1  0.0000000  3.3472000  1
   1405   1399   1398   1412     1  0.0000000  0.0000000  2
   1405   1399   1398   1412     1  180.0000771  0.3347200  3
   1405   1399   2860   2875     1  0.0000000  8.3680000  1
   1405   1399   2860   2875     1  180.0000771  10.4600000  2
   1406   1401   1400   1413     1  0.0000000  3.3472000  1
   1406   1401   1400   1413     1  0.0000000  0.0000000  2
   1406   1401   1400   1413     1  180.0000771  0.3347200  3
   1406   1401   1400   1414     1  0.0000000  3.3472000  1
   1406   1401   1400   1414     1  0.0000000  0.0000000  2
   1406   1401   1400   1414     1  180.0000771  0.3347200  3
   1406   1401   2886   2901     1  0.0000000  8.3680000  1
   1406   1401   2886   2901     1  180.0000771  10.4600000  2
   1407   1396   1395   1420     1  0.0000000  0.6508444  3
   1407   1396   1398   1411     1  0.0000000  0.6508444  3
   1407   1396   1398   1412     1  0.0000000  0.6508444  3
   1408   1396   1395   1420     1  0.0000000  0.6508444  3
   1408   1396   1398   1411     1  0.0000000  0.6508444  3
   1408   1396   1398   1412     1  0.0000000  0.6508444  3
   1409   1397   1395   1420     1  0.0000000  0.6508444  3
   1409   1397   1400   1413     1  0.0000000  0.6508444  3
   1409   1397   1400   1414     1  0.0000000  0.6508444  3
   1410   1397   1395   1420     1  0.0000000  0.6508444  3
   1410   1397   1400   1413     1  0.0000000  0.6508444  3
   1410   1397   1400   1414     1  0.0000000  0.6508444  3
   1411   1398   1399   2860     1  180.0000771  0.0000000  2
   1412   1398   1399   2860     1  180.0000771  0.0000000  2
   1413   1400   1401   2886     1  180.0000771  0.0000000  2
   1414   1400   1401   2886     1  180.0000771  0.0000000  2
   1415   1402   1395   1420     1  0.0000000  0.6508444  3
   1415   1402   1403   1417     1  0.0000000  0.6508444  3
   1415   1402   1403   1418     1  0.0000000  0.6508444  3
   1416   1402   1395   1420     1  0.0000000  0.6508444  3
   1416   1402   1403   1417     1  0.0000000  0.6508444  3
   1416   1402   1403   1418     1  0.0000000  0.6508444  3
   1417   1403   1404   1419     1  0.0000000  0.0000000  2
   1418   1403   1404   1419     1  0.0000000  0.0000000  2
   1421   1422   1424   1437     1  0.0000000  0.6508444  3
   1421   1422   1424   1438     1  0.0000000  0.6508444  3
   1421   1423   1426   1439     1  0.0000000  0.6508444  3
   1421   1423   1426   1440     1  0.0000000  0.6508444  3
   1421   1428   1429   1443     1  0.0000000  0.6508444  3
   1421   1428   1429   1444     1  0.0000000  0.6508444  3
   1422   1421   1423   1435     1  0.0000000  0.6508444  3
   1422   1421   1423   1436     1  0.0000000  0.6508444  3
   1422   1421   1428   1441     1  0.0000000  0.6508444  3
   1422   1421   1428   1442     1  0.0000000  0.6508444  3
   1423   1421   1422   1433     1  0.0000000  0.6508444  3
   1423   1421   1422   1434     1  0.0000000  0.6508444  3
   1423   1421   1428   1441     1  0.0000000  0.6508444  3
   1423   1421   1428   1442     1  0.0000000  0.6508444  3
   1424   1422   1421   1446     1  0.0000000  0.6508444  3
   1424   1425   2912   2927     1  180.0000771  10.4600000  2
   1425   1424   1422   1433     1  0.0000000  0.6508444  3
   1425   1424   1422   1434     1  0.0000000  0.6508444  3
   1425   2912   2911   2925     1  0.0000000  0.0000000  2
   1425   2912   2911   2926     1  0.0000000  0.0000000  2
   1426   1423   1421   1446     1  0.0000000  0.6508444  3
   1426   1427   2938   2953     1  180.0000771  10.4600000  2
   1427   1426   1423   1435     1  0.0000000  0.6508444  3
   1427   1426   1423   1436     1  0.0000000  0.6508444  3
   1427   2938   2937   2951     1  0.0000000  0.0000000  2
   1427   2938   2937   2952     1  0.0000000  0.0000000  2
   1428   1421   1422   1433     1  0.0000000  0.6508444  3
   1428   1421   1422   1434     1  0.0000000  0.6508444  3
   1428   1421   1423   1435     1  0.0000000  0.6508444  3
   1428   1421   1423   1436     1  0.0000000  0.6508444  3
   1428   1429   1430   1445     1  0.0000000  0.0000000  2
   1429   1428   1421   1446     1  0.0000000  0.6508444  3
   1430   1429   1428   1441     1  0.0000000  0.6508444  3
   1430   1429   1428   1442     1  0.0000000  0.6508444  3
   1431   1425   1424   1437     1  0.0000000  3.3472000  1
   1431   1425   1424   1437     1  0.0000000  0.0000000  2
   1431   1425   1424   1437     1  180.0000771  0.3347200  3
   1431   1425   1424   1438     1  0.0000000  3.3472000  1
   1431   1425   1424   1438     1  0.0000000  0.0000000  2
   1431   1425   1424   1438     1  180.0000771  0.3347200  3
   1431   1425   2912   2927     1  0.0000000  8.3680000  1
   1431   1425   2912   2927     1  180.0000771  10.4600000  2
   1432   1427   1426   1439     1  0.0000000  3.3472000  1
   1432   1427   1426   1439     1  0.0000000  0.0000000  2
   1432   1427   1426   1439     1  180.0000771  0.3347200  3
   1432   1427   1426   1440     1  0.0000000  3.3472000  1
   1432   1427   1426   1440     1  0.0000000  0.0000000  2
   1432   1427   1426   1440     1  180.0000771  0.3347200  3
   1432   1427   2938   2953     1  0.0000000  8.3680000  1
   1432   1427   2938   2953     1  180.0000771  10.4600000  2
   1433   1422   1421   1446     1  0.0000000  0.6508444  3
   1433   1422   1424   1437     1  0.0000000  0.6508444  3
   1433   1422   1424   1438     1  0.0000000  0.6508444  3
   1434   1422   1421   1446     1  0.0000000  0.6508444  3
   1434   1422   1424   1437     1  0.0000000  0.6508444  3
   1434   1422   1424   1438     1  0.0000000  0.6508444  3
   1435   1423   1421   1446     1  0.0000000  0.6508444  3
   1435   1423   1426   1439     1  0.0000000  0.6508444  3
   1435   1423   1426   1440     1  0.0000000  0.6508444  3
   1436   1423   1421   1446     1  0.0000000  0.6508444  3
   1436   1423   1426   1439     1  0.0000000  0.6508444  3
   1436   1423   1426   1440     1  0.0000000  0.6508444  3
   1437   1424   1425   2912     1  180.0000771  0.0000000  2
   1438   1424   1425   2912     1  180.0000771  0.0000000  2
   1439   1426   1427   2938     1  180.0000771  0.0000000  2
   1440   1426   1427   2938     1  180.0000771  0.0000000  2
   1441   1428   1421   1446     1  0.0000000  0.6508444  3
   1441   1428   1429   1443     1  0.0000000  0.6508444  3
   1441   1428   1429   1444     1  0.0000000  0.6508444  3
   1442   1428   1421   1446     1  0.0000000  0.6508444  3
   1442   1428   1429   1443     1  0.0000000  0.6508444  3
   1442   1428   1429   1444     1  0.0000000  0.6508444  3
   1443   1429   1430   1445     1  0.0000000  0.0000000  2
   1444   1429   1430   1445     1  0.0000000  0.0000000  2
   1447   1448   1450   1463     1  0.0000000  0.6508444  3
   1447   1448   1450   1464     1  0.0000000  0.6508444  3
   1447   1449   1452   1465     1  0.0000000  0.6508444  3
   1447   1449   1452   1466     1  0.0000000  0.6508444  3
   1447   1454   1455   1469     1  0.0000000  0.6508444  3
   1447   1454   1455   1470     1  0.0000000  0.6508444  3
   1448   1447   1449   1461     1  0.0000000  0.6508444  3
   1448   1447   1449   1462     1  0.0000000  0.6508444  3
   1448   1447   1454   1467     1  0.0000000  0.6508444  3
   1448   1447   1454   1468     1  0.0000000  0.6508444  3
   1449   1447   1448   1459     1  0.0000000  0.6508444  3
   1449   1447   1448   1460     1  0.0000000  0.6508444  3
   1449   1447   1454   1467     1  0.0000000  0.6508444  3
   1449   1447   1454   1468     1  0.0000000  0.6508444  3
   1450   1448   1447   1472     1  0.0000000  0.6508444  3
   1450   1451   2964   2979     1  180.0000771  10.4600000  2
   1451   1450   1448   1459     1  0.0000000  0.6508444  3
   1451   1450   1448   1460     1  0.0000000  0.6508444  3
   1451   2964   2963   2977     1  0.0000000  0.0000000  2
   1451   2964   2963   2978     1  0.0000000  0.0000000  2
   1452   1449   1447   1472     1  0.0000000  0.6508444  3
   1452   1453   2990   3005     1  180.0000771  10.4600000  2
   1453   1452   1449   1461     1  0.0000000  0.6508444  3
   1453   1452   1449   1462     1  0.0000000  0.6508444  3
   1453   2990   2989   3003     1  0.0000000  0.0000000  2
   1453   2990   2989   3004     1  0.0000000  0.0000000  2
   1454   1447   1448   1459     1  0.0000000  0.6508444  3
   1454   1447   1448   1460     1  0.0000000  0.6508444  3
   1454   1447   1449   1461     1  0.0000000  0.6508444  3
   1454   1447   1449   1462     1  0.0000000  0.6508444  3
   1454   1455   1456   1471     1  0.0000000  0.0000000  2
   1455   1454   1447   1472     1  0.0000000  0.6508444  3
   1456   1455   1454   1467     1  0.0000000  0.6508444  3
   1456   1455   1454   1468     1  0.0000000  0.6508444  3
   1457   1451   1450   1463     1  0.0000000  3.3472000  1
   1457   1451   1450   1463     1  0.0000000  0.0000000  2
   1457   1451   1450   1463     1  180.0000771  0.3347200  3
   1457   1451   1450   1464     1  0.0000000  3.3472000  1
   1457   1451   1450   1464     1  0.0000000  0.0000000  2
   1457   1451   1450   1464     1  180.0000771  0.3347200  3
   1457   1451   2964   2979     1  0.0000000  8.3680000  1
   1457   1451   2964   2979     1  180.0000771  10.4600000  2
   1458   1453   1452   1465     1  0.0000000  3.3472000  1
   1458   1453   1452   1465     1  0.0000000  0.0000000  2
   1458   1453   1452   1465     1  180.0000771  0.3347200  3
   1458   1453   1452   1466     1  0.0000000  3.3472000  1
   1458   1453   1452   1466     1  0.0000000  0.0000000  2
   1458   1453   1452   1466     1  180.0000771  0.3347200  3
   1458   1453   2990   3005     1  0.0000000  8.3680000  1
   1458   1453   2990   3005     1  180.0000771  10.4600000  2
   1459   1448   1447   1472     1  0.0000000  0.6508444  3
   1459   1448   1450   1463     1  0.0000000  0.6508444  3
   1459   1448   1450   1464     1  0.0000000  0.6508444  3
   1460   1448   1447   1472     1  0.0000000  0.6508444  3
   1460   1448   1450   1463     1  0.0000000  0.6508444  3
   1460   1448   1450   1464     1  0.0000000  0.6508444  3
   1461   1449   1447   1472     1  0.0000000  0.6508444  3
   1461   1449   1452   1465     1  0.0000000  0.6508444  3
   1461   1449   1452   1466     1  0.0000000  0.6508444  3
   1462   1449   1447   1472     1  0.0000000  0.6508444  3
   1462   1449   1452   1465     1  0.0000000  0.6508444  3
   1462   1449   1452   1466     1  0.0000000  0.6508444  3
   1463   1450   1451   2964     1  180.0000771  0.0000000  2
   1464   1450   1451   2964     1  180.0000771  0.0000000  2
   1465   1452   1453   2990     1  180.0000771  0.0000000  2
   1466   1452   1453   2990     1  180.0000771  0.0000000  2
   1467   1454   1447   1472     1  0.0000000  0.6508444  3
   1467   1454   1455   1469     1  0.0000000  0.6508444  3
   1467   1454   1455   1470     1  0.0000000  0.6508444  3
   1468   1454   1447   1472     1  0.0000000  0.6508444  3
   1468   1454   1455   1469     1  0.0000000  0.6508444  3
   1468   1454   1455   1470     1  0.0000000  0.6508444  3
   1469   1455   1456   1471     1  0.0000000  0.0000000  2
   1470   1455   1456   1471     1  0.0000000  0.0000000  2
   1473   1474   1476   1489     1  0.0000000  0.6508444  3
   1473   1474   1476   1490     1  0.0000000  0.6508444  3
   1473   1475   1478   1491     1  0.0000000  0.6508444  3
   1473   1475   1478   1492     1  0.0000000  0.6508444  3
   1473   1480   1481   1495     1  0.0000000  0.6508444  3
   1473   1480   1481   1496     1  0.0000000  0.6508444  3
   1474   1473   1475   1487     1  0.0000000  0.6508444  3
   1474   1473   1475   1488     1  0.0000000  0.6508444  3
   1474   1473   1480   1493     1  0.0000000  0.6508444  3
   1474   1473   1480   1494     1  0.0000000  0.6508444  3
   1475   1473   1474   1485     1  0.0000000  0.6508444  3
   1475   1473   1474   1486     1  0.0000000  0.6508444  3
   1475   1473   1480   1493     1  0.0000000  0.6508444  3
   1475   1473   1480   1494     1  0.0000000  0.6508444  3
   1476   1474   1473   1498     1  0.0000000  0.6508444  3
   1476   1477   3016   3031     1  180.0000771  10.4600000  2
   1477   1476   1474   1485     1  0.0000000  0.6508444  3
   1477   1476   1474   1486     1  0.0000000  0.6508444  3
   1477   3016   3015   3029     1  0.0000000  0.0000000  2
   1477   3016   3015   3030     1  0.0000000  0.0000000  2
   1478   1475   1473   1498     1  0.0000000  0.6508444  3
   1478   1479   3042   3057     1  180.0000771  10.4600000  2
   1479   1478   1475   1487     1  0.0000000  0.6508444  3
   1479   1478   1475   1488     1  0.0000000  0.6508444  3
   1479   3042   3041   3055     1  0.0000000  0.0000000  2
   1479   3042   3041   3056     1  0.0000000  0.0000000  2
   1480   1473   1474   1485     1  0.0000000  0.6508444  3
   1480   1473   1474   1486     1  0.0000000  0.6508444  3
   1480   1473   1475   1487     1  0.0000000  0.6508444  3
   1480   1473   1475   1488     1  0.0000000  0.6508444  3
   1480   1481   1482   1497     1  0.0000000  0.0000000  2
   1481   1480   1473   1498     1  0.0000000  0.6508444  3
   1482   1481   1480   1493     1  0.0000000  0.6508444  3
   1482   1481   1480   1494     1  0.0000000  0.6508444  3
   1483   1477   1476   1489     1  0.0000000  3.3472000  1
   1483   1477   1476   1489     1  0.0000000  0.0000000  2
   1483   1477   1476   1489     1  180.0000771  0.3347200  3
   1483   1477   1476   1490     1  0.0000000  3.3472000  1
   1483   1477   1476   1490     1  0.0000000  0.0000000  2
   1483   1477   1476   1490     1  180.0000771  0.3347200  3
   1483   1477   3016   3031     1  0.0000000  8.3680000  1
   1483   1477   3016   3031     1  180.0000771  10.4600000  2
   1484   1479   1478   1491     1  0.0000000  3.3472000  1
   1484   1479   1478   1491     1  0.0000000  0.0000000  2
   1484   1479   1478   1491     1  180.0000771  0.3347200  3
   1484   1479   1478   1492     1  0.0000000  3.3472000  1
   1484   1479   1478   1492     1  0.0000000  0.0000000  2
   1484   1479   1478   1492     1  180.0000771  0.3347200  3
   1484   1479   3042   3057     1  0.0000000  8.3680000  1
   1484   1479   3042   3057     1  180.0000771  10.4600000  2
   1485   1474   1473   1498     1  0.0000000  0.6508444  3
   1485   1474   1476   1489     1  0.0000000  0.6508444  3
   1485   1474   1476   1490     1  0.0000000  0.6508444  3
   1486   1474   1473   1498     1  0.0000000  0.6508444  3
   1486   1474   1476   1489     1  0.0000000  0.6508444  3
   1486   1474   1476   1490     1  0.0000000  0.6508444  3
   1487   1475   1473   1498     1  0.0000000  0.6508444  3
   1487   1475   1478   1491     1  0.0000000  0.6508444  3
   1487   1475   1478   1492     1  0.0000000  0.6508444  3
   1488   1475   1473   1498     1  0.0000000  0.6508444  3
   1488   1475   1478   1491     1  0.0000000  0.6508444  3
   1488   1475   1478   1492     1  0.0000000  0.6508444  3
   1489   1476   1477   3016     1  180.0000771  0.0000000  2
   1490   1476   1477   3016     1  180.0000771  0.0000000  2
   1491   1478   1479   3042     1  180.0000771  0.0000000  2
   1492   1478   1479   3042     1  180.0000771  0.0000000  2
   1493   1480   1473   1498     1  0.0000000  0.6508444  3
   1493   1480   1481   1495     1  0.0000000  0.6508444  3
   1493   1480   1481   1496     1  0.0000000  0.6508444  3
   1494   1480   1473   1498     1  0.0000000  0.6508444  3
   1494   1480   1481   1495     1  0.0000000  0.6508444  3
   1494   1480   1481   1496     1  0.0000000  0.6508444  3
   1495   1481   1482   1497     1  0.0000000  0.0000000  2
   1496   1481   1482   1497     1  0.0000000  0.0000000  2
   1499   1500   1502   1515     1  0.0000000  0.6508444  3
   1499   1500   1502   1516     1  0.0000000  0.6508444  3
   1499   1501   1504   1517     1  0.0000000  0.6508444  3
   1499   1501   1504   1518     1  0.0000000  0.6508444  3
   1499   1506   1507   1521     1  0.0000000  0.6508444  3
   1499   1506   1507   1522     1  0.0000000  0.6508444  3
   1500   1499   1501   1513     1  0.0000000  0.6508444  3
   1500   1499   1501   1514     1  0.0000000  0.6508444  3
   1500   1499   1506   1519     1  0.0000000  0.6508444  3
   1500   1499   1506   1520     1  0.0000000  0.6508444  3
   1501   1499   1500   1511     1  0.0000000  0.6508444  3
   1501   1499   1500   1512     1  0.0000000  0.6508444  3
   1501   1499   1506   1519     1  0.0000000  0.6508444  3
   1501   1499   1506   1520     1  0.0000000  0.6508444  3
   1502   1500   1499   1524     1  0.0000000  0.6508444  3
   1502   1503   3068   3083     1  180.0000771  10.4600000  2
   1503   1502   1500   1511     1  0.0000000  0.6508444  3
   1503   1502   1500   1512     1  0.0000000  0.6508444  3
   1503   3068   3067   3081     1  0.0000000  0.0000000  2
   1503   3068   3067   3082     1  0.0000000  0.0000000  2
   1504   1501   1499   1524     1  0.0000000  0.6508444  3
   1504   1505   3094   3109     1  180.0000771  10.4600000  2
   1505   1504   1501   1513     1  0.0000000  0.6508444  3
   1505   1504   1501   1514     1  0.0000000  0.6508444  3
   1505   3094   3093   3107     1  0.0000000  0.0000000  2
   1505   3094   3093   3108     1  0.0000000  0.0000000  2
   1506   1499   1500   1511     1  0.0000000  0.6508444  3
   1506   1499   1500   1512     1  0.0000000  0.6508444  3
   1506   1499   1501   1513     1  0.0000000  0.6508444  3
   1506   1499   1501   1514     1  0.0000000  0.6508444  3
   1506   1507   1508   1523     1  0.0000000  0.0000000  2
   1507   1506   1499   1524     1  0.0000000  0.6508444  3
   1508   1507   1506   1519     1  0.0000000  0.6508444  3
   1508   1507   1506   1520     1  0.0000000  0.6508444  3
   1509   1503   1502   1515     1  0.0000000  3.3472000  1
   1509   1503   1502   1515     1  0.0000000  0.0000000  2
   1509   1503   1502   1515     1  180.0000771  0.3347200  3
   1509   1503   1502   1516     1  0.0000000  3.3472000  1
   1509   1503   1502   1516     1  0.0000000  0.0000000  2
   1509   1503   1502   1516     1  180.0000771  0.3347200  3
   1509   1503   3068   3083     1  0.0000000  8.3680000  1
   1509   1503   3068   3083     1  180.0000771  10.4600000  2
   1510   1505   1504   1517     1  0.0000000  3.3472000  1
   1510   1505   1504   1517     1  0.0000000  0.0000000  2
   1510   1505   1504   1517     1  180.0000771  0.3347200  3
   1510   1505   1504   1518     1  0.0000000  3.3472000  1
   1510   1505   1504   1518     1  0.0000000  0.0000000  2
   1510   1505   1504   1518     1  180.0000771  0.3347200  3
   1510   1505   3094   3109     1  0.0000000  8.3680000  1
   1510   1505   3094   3109     1  180.0000771  10.4600000  2
   1511   1500   1499   1524     1  0.0000000  0.6508444  3
   1511   1500   1502   1515     1  0.0000000  0.6508444  3
   1511   1500   1502   1516     1  0.0000000  0.6508444  3
   1512   1500   1499   1524     1  0.0000000  0.6508444  3
   1512   1500   1502   1515     1  0.0000000  0.6508444  3
   1512   1500   1502   1516     1  0.0000000  0.6508444  3
   1513   1501   1499   1524     1  0.0000000  0.6508444  3
   1513   1501   1504   1517     1  0.0000000  0.6508444  3
   1513   1501   1504   1518     1  0.0000000  0.6508444  3
   1514   1501   1499   1524     1  0.0000000  0.6508444  3
   1514   1501   1504   1517     1  0.0000000  0.6508444  3
   1514   1501   1504   1518     1  0.0000000  0.6508444  3
   1515   1502   1503   3068     1  180.0000771  0.0000000  2
   1516   1502   1503   3068     1  180.0000771  0.0000000  2
   1517   1504   1505   3094     1  180.0000771  0.0000000  2
   1518   1504   1505   3094     1  180.0000771  0.0000000  2
   1519   1506   1499   1524     1  0.0000000  0.6508444  3
   1519   1506   1507   1521     1  0.0000000  0.6508444  3
   1519   1506   1507   1522     1  0.0000000  0.6508444  3
   1520   1506   1499   1524     1  0.0000000  0.6508444  3
   1520   1506   1507   1521     1  0.0000000  0.6508444  3
   1520   1506   1507   1522     1  0.0000000  0.6508444  3
   1521   1507   1508   1523     1  0.0000000  0.0000000  2
   1522   1507   1508   1523     1  0.0000000  0.0000000  2
   1525   1526   1528   1541     1  0.0000000  0.6508444  3
   1525   1526   1528   1542     1  0.0000000  0.6508444  3
   1525   1527   1530   1543     1  0.0000000  0.6508444  3
   1525   1527   1530   1544     1  0.0000000  0.6508444  3
   1525   1532   1533   1547     1  0.0000000  0.6508444  3
   1525   1532   1533   1548     1  0.0000000  0.6508444  3
   1526   1525   1527   1539     1  0.0000000  0.6508444  3
   1526   1525   1527   1540     1  0.0000000  0.6508444  3
   1526   1525   1532   1545     1  0.0000000  0.6508444  3
   1526   1525   1532   1546     1  0.0000000  0.6508444  3
   1527   1525   1526   1537     1  0.0000000  0.6508444  3
   1527   1525   1526   1538     1  0.0000000  0.6508444  3
   1527   1525   1532   1545     1  0.0000000  0.6508444  3
   1527   1525   1532   1546     1  0.0000000  0.6508444  3
   1528   1526   1525   1550     1  0.0000000  0.6508444  3
   1528   1529   3120   3135     1  180.0000771  10.4600000  2
   1529   1528   1526   1537     1  0.0000000  0.6508444  3
   1529   1528   1526   1538     1  0.0000000  0.6508444  3
   1529   3120   3119   3133     1  0.0000000  0.0000000  2
   1529   3120   3119   3134     1  0.0000000  0.0000000  2
   1530   1527   1525   1550     1  0.0000000  0.6508444  3
   1530   1531   3146   3161     1  180.0000771  10.4600000  2
   1531   1530   1527   1539     1  0.0000000  0.6508444  3
   1531   1530   1527   1540     1  0.0000000  0.6508444  3
   1531   3146   3145   3159     1  0.0000000  0.0000000  2
   1531   3146   3145   3160     1  0.0000000  0.0000000  2
   1532   1525   1526   1537     1  0.0000000  0.6508444  3
   1532   1525   1526   1538     1  0.0000000  0.6508444  3
   1532   1525   1527   1539     1  0.0000000  0.6508444  3
   1532   1525   1527   1540     1  0.0000000  0.6508444  3
   1532   1533   1534   1549     1  0.0000000  0.0000000  2
   1533   1532   1525   1550     1  0.0000000  0.6508444  3
   1534   1533   1532   1545     1  0.0000000  0.6508444  3
   1534   1533   1532   1546     1  0.0000000  0.6508444  3
   1535   1529   1528   1541     1  0.0000000  3.3472000  1
   1535   1529   1528   1541     1  0.0000000  0.0000000  2
   1535   1529   1528   1541     1  180.0000771  0.3347200  3
   1535   1529   1528   1542     1  0.0000000  3.3472000  1
   1535   1529   1528   1542     1  0.0000000  0.0000000  2
   1535   1529   1528   1542     1  180.0000771  0.3347200  3
   1535   1529   3120   3135     1  0.0000000  8.3680000  1
   1535   1529   3120   3135     1  180.0000771  10.4600000  2
   1536   1531   1530   1543     1  0.0000000  3.3472000  1
   1536   1531   1530   1543     1  0.0000000  0.0000000  2
   1536   1531   1530   1543     1  180.0000771  0.3347200  3
   1536   1531   1530   1544     1  0.0000000  3.3472000  1
   1536   1531   1530   1544     1  0.0000000  0.0000000  2
   1536   1531   1530   1544     1  180.0000771  0.3347200  3
   1536   1531   3146   3161     1  0.0000000  8.3680000  1
   1536   1531   3146   3161     1  180.0000771  10.4600000  2
   1537   1526   1525   1550     1  0.0000000  0.6508444  3
   1537   1526   1528   1541     1  0.0000000  0.6508444  3
   1537   1526   1528   1542     1  0.0000000  0.6508444  3
   1538   1526   1525   1550     1  0.0000000  0.6508444  3
   1538   1526   1528   1541     1  0.0000000  0.6508444  3
   1538   1526   1528   1542     1  0.0000000  0.6508444  3
   1539   1527   1525   1550     1  0.0000000  0.6508444  3
   1539   1527   1530   1543     1  0.0000000  0.6508444  3
   1539   1527   1530   1544     1  0.0000000  0.6508444  3
   1540   1527   1525   1550     1  0.0000000  0.6508444  3
   1540   1527   1530   1543     1  0.0000000  0.6508444  3
   1540   1527   1530   1544     1  0.0000000  0.6508444  3
   1541   1528   1529   3120     1  180.0000771  0.0000000  2
   1542   1528   1529   3120     1  180.0000771  0.0000000  2
   1543   1530   1531   3146     1  180.0000771  0.0000000  2
   1544   1530   1531   3146     1  180.0000771  0.0000000  2
   1545   1532   1525   1550     1  0.0000000  0.6508444  3
   1545   1532   1533   1547     1  0.0000000  0.6508444  3
   1545   1532   1533   1548     1  0.0000000  0.6508444  3
   1546   1532   1525   1550     1  0.0000000  0.6508444  3
   1546   1532   1533   1547     1  0.0000000  0.6508444  3
   1546   1532   1533   1548     1  0.0000000  0.6508444  3
   1547   1533   1534   1549     1  0.0000000  0.0000000  2
   1548   1533   1534   1549     1  0.0000000  0.0000000  2
   1551   1552   1554   1567     1  0.0000000  0.6508444  3
   1551   1552   1554   1568     1  0.0000000  0.6508444  3
   1551   1553   1556   1569     1  0.0000000  0.6508444  3
   1551   1553   1556   1570     1  0.0000000  0.6508444  3
   1551   1558   1559   1573     1  0.0000000  0.6508444  3
   1551   1558   1559   1574     1  0.0000000  0.6508444  3
   1552   1551   1553   1565     1  0.0000000  0.6508444  3
   1552   1551   1553   1566     1  0.0000000  0.6508444  3
   1552   1551   1558   1571     1  0.0000000  0.6508444  3
   1552   1551   1558   1572     1  0.0000000  0.6508444  3
   1553   1551   1552   1563     1  0.0000000  0.6508444  3
   1553   1551   1552   1564     1  0.0000000  0.6508444  3
   1553   1551   1558   1571     1  0.0000000  0.6508444  3
   1553   1551   1558   1572     1  0.0000000  0.6508444  3
   1554   1552   1551   1576     1  0.0000000  0.6508444  3
   1554   1555   3172   3187     1  180.0000771  10.4600000  2
   1555   1554   1552   1563     1  0.0000000  0.6508444  3
   1555   1554   1552   1564     1  0.0000000  0.6508444  3
   1555   3172   3171   3185     1  0.0000000  0.0000000  2
   1555   3172   3171   3186     1  0.0000000  0.0000000  2
   1556   1553   1551   1576     1  0.0000000  0.6508444  3
   1556   1557   3198   3213     1  180.0000771  10.4600000  2
   1557   1556   1553   1565     1  0.0000000  0.6508444  3
   1557   1556   1553   1566     1  0.0000000  0.6508444  3
   1557   3198   3197   3211     1  0.0000000  0.0000000  2
   1557   3198   3197   3212     1  0.0000000  0.0000000  2
   1558   1551   1552   1563     1  0.0000000  0.6508444  3
   1558   1551   1552   1564     1  0.0000000  0.6508444  3
   1558   1551   1553   1565     1  0.0000000  0.6508444  3
   1558   1551   1553   1566     1  0.0000000  0.6508444  3
   1558   1559   1560   1575     1  0.0000000  0.0000000  2
   1559   1558   1551   1576     1  0.0000000  0.6508444  3
   1560   1559   1558   1571     1  0.0000000  0.6508444  3
   1560   1559   1558   1572     1  0.0000000  0.6508444  3
   1561   1555   1554   1567     1  0.0000000  3.3472000  1
   1561   1555   1554   1567     1  0.0000000  0.0000000  2
   1561   1555   1554   1567     1  180.0000771  0.3347200  3
   1561   1555   1554   1568     1  0.0000000  3.3472000  1
   1561   1555   1554   1568     1  0.0000000  0.0000000  2
   1561   1555   1554   1568     1  180.0000771  0.3347200  3
   1561   1555   3172   3187     1  0.0000000  8.3680000  1
   1561   1555   3172   3187     1  180.0000771  10.4600000  2
   1562   1557   1556   1569     1  0.0000000  3.3472000  1
   1562   1557   1556   1569     1  0.0000000  0.0000000  2
   1562   1557   1556   1569     1  180.0000771  0.3347200  3
   1562   1557   1556   1570     1  0.0000000  3.3472000  1
   1562   1557   1556   1570     1  0.0000000  0.0000000  2
   1562   1557   1556   1570     1  180.0000771  0.3347200  3
   1562   1557   3198   3213     1  0.0000000  8.3680000  1
   1562   1557   3198   3213     1  180.0000771  10.4600000  2
   1563   1552   1551   1576     1  0.0000000  0.6508444  3
   1563   1552   1554   1567     1  0.0000000  0.6508444  3
   1563   1552   1554   1568     1  0.0000000  0.6508444  3
   1564   1552   1551   1576     1  0.0000000  0.6508444  3
   1564   1552   1554   1567     1  0.0000000  0.6508444  3
   1564   1552   1554   1568     1  0.0000000  0.6508444  3
   1565   1553   1551   1576     1  0.0000000  0.6508444  3
   1565   1553   1556   1569     1  0.0000000  0.6508444  3
   1565   1553   1556   1570     1  0.0000000  0.6508444  3
   1566   1553   1551   1576     1  0.0000000  0.6508444  3
   1566   1553   1556   1569     1  0.0000000  0.6508444  3
   1566   1553   1556   1570     1  0.0000000  0.6508444  3
   1567   1554   1555   3172     1  180.0000771  0.0000000  2
   1568   1554   1555   3172     1  180.0000771  0.0000000  2
   1569   1556   1557   3198     1  180.0000771  0.0000000  2
   1570   1556   1557   3198     1  180.0000771  0.0000000  2
   1571   1558   1551   1576     1  0.0000000  0.6508444  3
   1571   1558   1559   1573     1  0.0000000  0.6508444  3
   1571   1558   1559   1574     1  0.0000000  0.6508444  3
   1572   1558   1551   1576     1  0.0000000  0.6508444  3
   1572   1558   1559   1573     1  0.0000000  0.6508444  3
   1572   1558   1559   1574     1  0.0000000  0.6508444  3
   1573   1559   1560   1575     1  0.0000000  0.0000000  2
   1574   1559   1560   1575     1  0.0000000  0.0000000  2
   1577   1578   1580   1593     1  0.0000000  0.6508444  3
   1577   1578   1580   1594     1  0.0000000  0.6508444  3
   1577   1579   1582   1595     1  0.0000000  0.6508444  3
   1577   1579   1582   1596     1  0.0000000  0.6508444  3
   1577   1584   1585   1599     1  0.0000000  0.6508444  3
   1577   1584   1585   1600     1  0.0000000  0.6508444  3
   1578   1577   1579   1591     1  0.0000000  0.6508444  3
   1578   1577   1579   1592     1  0.0000000  0.6508444  3
   1578   1577   1584   1597     1  0.0000000  0.6508444  3
   1578   1577   1584   1598     1  0.0000000  0.6508444  3
   1579   1577   1578   1589     1  0.0000000  0.6508444  3
   1579   1577   1578   1590     1  0.0000000  0.6508444  3
   1579   1577   1584   1597     1  0.0000000  0.6508444  3
   1579   1577   1584   1598     1  0.0000000  0.6508444  3
   1580   1578   1577   1602     1  0.0000000  0.6508444  3
   1580   1581   3224   3239     1  180.0000771  10.4600000  2
   1581   1580   1578   1589     1  0.0000000  0.6508444  3
   1581   1580   1578   1590     1  0.0000000  0.6508444  3
   1581   3224   3223   3237     1  0.0000000  0.0000000  2
   1581   3224   3223   3238     1  0.0000000  0.0000000  2
   1582   1579   1577   1602     1  0.0000000  0.6508444  3
   1582   1583   3250   3265     1  180.0000771  10.4600000  2
   1583   1582   1579   1591     1  0.0000000  0.6508444  3
   1583   1582   1579   1592     1  0.0000000  0.6508444  3
   1583   3250   3249   3263     1  0.0000000  0.0000000  2
   1583   3250   3249   3264     1  0.0000000  0.0000000  2
   1584   1577   1578   1589     1  0.0000000  0.6508444  3
   1584   1577   1578   1590     1  0.0000000  0.6508444  3
   1584   1577   1579   1591     1  0.0000000  0.6508444  3
   1584   1577   1579   1592     1  0.0000000  0.6508444  3
   1584   1585   1586   1601     1  0.0000000  0.0000000  2
   1585   1584   1577   1602     1  0.0000000  0.6508444  3
   1586   1585   1584   1597     1  0.0000000  0.6508444  3
   1586   1585   1584   1598     1  0.0000000  0.6508444  3
   1587   1581   1580   1593     1  0.0000000  3.3472000  1
   1587   1581   1580   1593     1  0.0000000  0.0000000  2
   1587   1581   1580   1593     1  180.0000771  0.3347200  3
   1587   1581   1580   1594     1  0.0000000  3.3472000  1
   1587   1581   1580   1594     1  0.0000000  0.0000000  2
   1587   1581   1580   1594     1  180.0000771  0.3347200  3
   1587   1581   3224   3239     1  0.0000000  8.3680000  1
   1587   1581   3224   3239     1  180.0000771  10.4600000  2
   1588   1583   1582   1595     1  0.0000000  3.3472000  1
   1588   1583   1582   1595     1  0.0000000  0.0000000  2
   1588   1583   1582   1595     1  180.0000771  0.3347200  3
   1588   1583   1582   1596     1  0.0000000  3.3472000  1
   1588   1583   1582   1596     1  0.0000000  0.0000000  2
   1588   1583   1582   1596     1  180.0000771  0.3347200  3
   1588   1583   3250   3265     1  0.0000000  8.3680000  1
   1588   1583   3250   3265     1  180.0000771  10.4600000  2
   1589   1578   1577   1602     1  0.0000000  0.6508444  3
   1589   1578   1580   1593     1  0.0000000  0.6508444  3
   1589   1578   1580   1594     1  0.0000000  0.6508444  3
   1590   1578   1577   1602     1  0.0000000  0.6508444  3
   1590   1578   1580   1593     1  0.0000000  0.6508444  3
   1590   1578   1580   1594     1  0.0000000  0.6508444  3
   1591   1579   1577   1602     1  0.0000000  0.6508444  3
   1591   1579   1582   1595     1  0.0000000  0.6508444  3
   1591   1579   1582   1596     1  0.0000000  0.6508444  3
   1592   1579   1577   1602     1  0.0000000  0.6508444  3
   1592   1579   1582   1595     1  0.0000000  0.6508444  3
   1592   1579   1582   1596     1  0.0000000  0.6508444  3
   1593   1580   1581   3224     1  180.0000771  0.0000000  2
   1594   1580   1581   3224     1  180.0000771  0.0000000  2
   1595   1582   1583   3250     1  180.0000771  0.0000000  2
   1596   1582   1583   3250     1  180.0000771  0.0000000  2
   1597   1584   1577   1602     1  0.0000000  0.6508444  3
   1597   1584   1585   1599     1  0.0000000  0.6508444  3
   1597   1584   1585   1600     1  0.0000000  0.6508444  3
   1598   1584   1577   1602     1  0.0000000  0.6508444  3
   1598   1584   1585   1599     1  0.0000000  0.6508444  3
   1598   1584   1585   1600     1  0.0000000  0.6508444  3
   1599   1585   1586   1601     1  0.0000000  0.0000000  2
   1600   1585   1586   1601     1  0.0000000  0.0000000  2
   1603   1604   1606   1619     1  0.0000000  0.6508444  3
   1603   1604   1606   1620     1  0.0000000  0.6508444  3
   1603   1605   1608   1621     1  0.0000000  0.6508444  3
   1603   1605   1608   1622     1  0.0000000  0.6508444  3
   1603   1610   1611   1625     1  0.0000000  0.6508444  3
   1603   1610   1611   1626     1  0.0000000  0.6508444  3
   1604   1603   1605   1617     1  0.0000000  0.6508444  3
   1604   1603   1605   1618     1  0.0000000  0.6508444  3
   1604   1603   1610   1623     1  0.0000000  0.6508444  3
   1604   1603   1610   1624     1  0.0000000  0.6508444  3
   1605   1603   1604   1615     1  0.0000000  0.6508444  3
   1605   1603   1604   1616     1  0.0000000  0.6508444  3
   1605   1603   1610   1623     1  0.0000000  0.6508444  3
   1605   1603   1610   1624     1  0.0000000  0.6508444  3
   1606   1604   1603   1628     1  0.0000000  0.6508444  3
   1606   1607   3267   3268     1  180.0000771  10.4600000  2
   1607   1606   1604   1615     1  0.0000000  0.6508444  3
   1607   1606   1604   1616     1  0.0000000  0.6508444  3
   1607   3267   3269   3271     1  0.0000000  0.0000000  2
   1607   3267   3269   3272     1  0.0000000  0.0000000  2
   1608   1605   1603   1628     1  0.0000000  0.6508444  3
   1608   1609   3279   3280     1  180.0000771  10.4600000  2
   1609   1608   1605   1617     1  0.0000000  0.6508444  3
   1609   1608   1605   1618     1  0.0000000  0.6508444  3
   1609   3279   3281   3283     1  0.0000000  0.0000000  2
   1609   3279   3281   3284     1  0.0000000  0.0000000  2
   1610   1603   1604   1615     1  0.0000000  0.6508444  3
   1610   1603   1604   1616     1  0.0000000  0.6508444  3
   1610   1603   1605   1617     1  0.0000000  0.6508444  3
   1610   1603   1605   1618     1  0.0000000  0.6508444  3
   1610   1611   1612   1627     1  0.0000000  0.0000000  2
   1611   1610   1603   1628     1  0.0000000  0.6508444  3
   1612   1611   1610   1623     1  0.0000000  0.6508444  3
   1612   1611   1610   1624     1  0.0000000  0.6508444  3
   1613   1607   1606   1619     1  0.0000000  3.3472000  1
   1613   1607   1606   1619     1  0.0000000  0.0000000  2
   1613   1607   1606   1619     1  180.0000771  0.3347200  3
   1613   1607   1606   1620     1  0.0000000  3.3472000  1
   1613   1607   1606   1620     1  0.0000000  0.0000000  2
   1613   1607   1606   1620     1  180.0000771  0.3347200  3
   1613   1607   3267   3268     1  0.0000000  8.3680000  1
   1613   1607   3267   3268     1  180.0000771  10.4600000  2
   1614   1609   1608   1621     1  0.0000000  3.3472000  1
   1614   1609   1608   1621     1  0.0000000  0.0000000  2
   1614   1609   1608   1621     1  180.0000771  0.3347200  3
   1614   1609   1608   1622     1  0.0000000  3.3472000  1
   1614   1609   1608   1622     1  0.0000000  0.0000000  2
   1614   1609   1608   1622     1  180.0000771  0.3347200  3
   1614   1609   3279   3280     1  0.0000000  8.3680000  1
   1614   1609   3279   3280     1  180.0000771  10.4600000  2
   1615   1604   1603   1628     1  0.0000000  0.6508444  3
   1615   1604   1606   1619     1  0.0000000  0.6508444  3
   1615   1604   1606   1620     1  0.0000000  0.6508444  3
   1616   1604   1603   1628     1  0.0000000  0.6508444  3
   1616   1604   1606   1619     1  0.0000000  0.6508444  3
   1616   1604   1606   1620     1  0.0000000  0.6508444  3
   1617   1605   1603   1628     1  0.0000000  0.6508444  3
   1617   1605   1608   1621     1  0.0000000  0.6508444  3
   1617   1605   1608   1622     1  0.0000000  0.6508444  3
   1618   1605   1603   1628     1  0.0000000  0.6508444  3
   1618   1605   1608   1621     1  0.0000000  0.6508444  3
   1618   1605   1608   1622     1  0.0000000  0.6508444  3
   1619   1606   1607   3267     1  180.0000771  0.0000000  2
   1620   1606   1607   3267     1  180.0000771  0.0000000  2
   1621   1608   1609   3279     1  180.0000771  0.0000000  2
   1622   1608   1609   3279     1  180.0000771  0.0000000  2
   1623   1610   1603   1628     1  0.0000000  0.6508444  3
   1623   1610   1611   1625     1  0.0000000  0.6508444  3
   1623   1610   1611   1626     1  0.0000000  0.6508444  3
   1624   1610   1603   1628     1  0.0000000  0.6508444  3
   1624   1610   1611   1625     1  0.0000000  0.6508444  3
   1624   1610   1611   1626     1  0.0000000  0.6508444  3
   1625   1611   1612   1627     1  0.0000000  0.0000000  2
   1626   1611   1612   1627     1  0.0000000  0.0000000  2
   1629   1630   1632   1645     1  0.0000000  0.6508444  3
   1629   1630   1632   1646     1  0.0000000  0.6508444  3
   1629   1631   1634   1647     1  0.0000000  0.6508444  3
   1629   1631   1634   1648     1  0.0000000  0.6508444  3
   1629   1636   1637   1651     1  0.0000000  0.6508444  3
   1629   1636   1637   1652     1  0.0000000  0.6508444  3
   1630   1629   1631   1643     1  0.0000000  0.6508444  3
   1630   1629   1631   1644     1  0.0000000  0.6508444  3
   1630   1629   1636   1649     1  0.0000000  0.6508444  3
   1630   1629   1636   1650     1  0.0000000  0.6508444  3
   1631   1629   1630   1641     1  0.0000000  0.6508444  3
   1631   1629   1630   1642     1  0.0000000  0.6508444  3
   1631   1629   1636   1649     1  0.0000000  0.6508444  3
   1631   1629   1636   1650     1  0.0000000  0.6508444  3
   1632   1630   1629   1654     1  0.0000000  0.6508444  3
   1632   1633   3291   3292     1  180.0000771  10.4600000  2
   1633   1632   1630   1641     1  0.0000000  0.6508444  3
   1633   1632   1630   1642     1  0.0000000  0.6508444  3
   1633   3291   3293   3295     1  0.0000000  0.0000000  2
   1633   3291   3293   3296     1  0.0000000  0.0000000  2
   1634   1631   1629   1654     1  0.0000000  0.6508444  3
   1634   1635   3303   3304     1  180.0000771  10.4600000  2
   1635   1634   1631   1643     1  0.0000000  0.6508444  3
   1635   1634   1631   1644     1  0.0000000  0.6508444  3
   1635   3303   3305   3307     1  0.0000000  0.0000000  2
   1635   3303   3305   3308     1  0.0000000  0.0000000  2
   1636   1629   1630   1641     1  0.0000000  0.6508444  3
   1636   1629   1630   1642     1  0.0000000  0.6508444  3
   1636   1629   1631   1643     1  0.0000000  0.6508444  3
   1636   1629   1631   1644     1  0.0000000  0.6508444  3
   1636   1637   1638   1653     1  0.0000000  0.0000000  2
   1637   1636   1629   1654     1  0.0000000  0.6508444  3
   1638   1637   1636   1649     1  0.0000000  0.6508444  3
   1638   1637   1636   1650     1  0.0000000  0.6508444  3
   1639   1633   1632   1645     1  0.0000000  3.3472000  1
   1639   1633   1632   1645     1  0.0000000  0.0000000  2
   1639   1633   1632   1645     1  180.0000771  0.3347200  3
   1639   1633   1632   1646     1  0.0000000  3.3472000  1
   1639   1633   1632   1646     1  0.0000000  0.0000000  2
   1639   1633   1632   1646     1  180.0000771  0.3347200  3
   1639   1633   3291   3292     1  0.0000000  8.3680000  1
   1639   1633   3291   3292     1  180.0000771  10.4600000  2
   1640   1635   1634   1647     1  0.0000000  3.3472000  1
   1640   1635   1634   1647     1  0.0000000  0.0000000  2
   1640   1635   1634   1647     1  180.0000771  0.3347200  3
   1640   1635   1634   1648     1  0.0000000  3.3472000  1
   1640   1635   1634   1648     1  0.0000000  0.0000000  2
   1640   1635   1634   1648     1  180.0000771  0.3347200  3
   1640   1635   3303   3304     1  0.0000000  8.3680000  1
   1640   1635   3303   3304     1  180.0000771  10.4600000  2
   1641   1630   1629   1654     1  0.0000000  0.6508444  3
   1641   1630   1632   1645     1  0.0000000  0.6508444  3
   1641   1630   1632   1646     1  0.0000000  0.6508444  3
   1642   1630   1629   1654     1  0.0000000  0.6508444  3
   1642   1630   1632   1645     1  0.0000000  0.6508444  3
   1642   1630   1632   1646     1  0.0000000  0.6508444  3
   1643   1631   1629   1654     1  0.0000000  0.6508444  3
   1643   1631   1634   1647     1  0.0000000  0.6508444  3
   1643   1631   1634   1648     1  0.0000000  0.6508444  3
   1644   1631   1629   1654     1  0.0000000  0.6508444  3
   1644   1631   1634   1647     1  0.0000000  0.6508444  3
   1644   1631   1634   1648     1  0.0000000  0.6508444  3
   1645   1632   1633   3291     1  180.0000771  0.0000000  2
   1646   1632   1633   3291     1  180.0000771  0.0000000  2
   1647   1634   1635   3303     1  180.0000771  0.0000000  2
   1648   1634   1635   3303     1  180.0000771  0.0000000  2
   1649   1636   1629   1654     1  0.0000000  0.6508444  3
   1649   1636   1637   1651     1  0.0000000  0.6508444  3
   1649   1636   1637   1652     1  0.0000000  0.6508444  3
   1650   1636   1629   1654     1  0.0000000  0.6508444  3
   1650   1636   1637   1651     1  0.0000000  0.6508444  3
   1650   1636   1637   1652     1  0.0000000  0.6508444  3
   1651   1637   1638   1653     1  0.0000000  0.0000000  2
   1652   1637   1638   1653     1  0.0000000  0.0000000  2
   1655   1656   1658   1671     1  0.0000000  0.6508444  3
   1655   1656   1658   1672     1  0.0000000  0.6508444  3
   1655   1657   1660   1673     1  0.0000000  0.6508444  3
   1655   1657   1660   1674     1  0.0000000  0.6508444  3
   1655   1662   1663   1677     1  0.0000000  0.6508444  3
   1655   1662   1663   1678     1  0.0000000  0.6508444  3
   1656   1655   1657   1669     1  0.0000000  0.6508444  3
   1656   1655   1657   1670     1  0.0000000  0.6508444  3
   1656   1655   1662   1675     1  0.0000000  0.6508444  3
   1656   1655   1662   1676     1  0.0000000  0.6508444  3
   1657   1655   1656   1667     1  0.0000000  0.6508444  3
   1657   1655   1656   1668     1  0.0000000  0.6508444  3
   1657   1655   1662   1675     1  0.0000000  0.6508444  3
   1657   1655   1662   1676     1  0.0000000  0.6508444  3
   1658   1656   1655   1680     1  0.0000000  0.6508444  3
   1658   1659   3315   3316     1  180.0000771  10.4600000  2
   1659   1658   1656   1667     1  0.0000000  0.6508444  3
   1659   1658   1656   1668     1  0.0000000  0.6508444  3
   1659   3315   3317   3319     1  0.0000000  0.0000000  2
   1659   3315   3317   3320     1  0.0000000  0.0000000  2
   1660   1657   1655   1680     1  0.0000000  0.6508444  3
   1660   1661   3327   3328     1  180.0000771  10.4600000  2
   1661   1660   1657   1669     1  0.0000000  0.6508444  3
   1661   1660   1657   1670     1  0.0000000  0.6508444  3
   1661   3327   3329   3331     1  0.0000000  0.0000000  2
   1661   3327   3329   3332     1  0.0000000  0.0000000  2
   1662   1655   1656   1667     1  0.0000000  0.6508444  3
   1662   1655   1656   1668     1  0.0000000  0.6508444  3
   1662   1655   1657   1669     1  0.0000000  0.6508444  3
   1662   1655   1657   1670     1  0.0000000  0.6508444  3
   1662   1663   1664   1679     1  0.0000000  0.0000000  2
   1663   1662   1655   1680     1  0.0000000  0.6508444  3
   1664   1663   1662   1675     1  0.0000000  0.6508444  3
   1664   1663   1662   1676     1  0.0000000  0.6508444  3
   1665   1659   1658   1671     1  0.0000000  3.3472000  1
   1665   1659   1658   1671     1  0.0000000  0.0000000  2
   1665   1659   1658   1671     1  180.0000771  0.3347200  3
   1665   1659   1658   1672     1  0.0000000  3.3472000  1
   1665   1659   1658   1672     1  0.0000000  0.0000000  2
   1665   1659   1658   1672     1  180.0000771  0.3347200  3
   1665   1659   3315   3316     1  0.0000000  8.3680000  1
   1665   1659   3315   3316     1  180.0000771  10.4600000  2
   1666   1661   1660   1673     1  0.0000000  3.3472000  1
   1666   1661   1660   1673     1  0.0000000  0.0000000  2
   1666   1661   1660   1673     1  180.0000771  0.3347200  3
   1666   1661   1660   1674     1  0.0000000  3.3472000  1
   1666   1661   1660   1674     1  0.0000000  0.0000000  2
   1666   1661   1660   1674     1  180.0000771  0.3347200  3
   1666   1661   3327   3328     1  0.0000000  8.3680000  1
   1666   1661   3327   3328     1  180.0000771  10.4600000  2
   1667   1656   1655   1680     1  0.0000000  0.6508444  3
   1667   1656   1658   1671     1  0.0000000  0.6508444  3
   1667   1656   1658   1672     1  0.0000000  0.6508444  3
   1668   1656   1655   1680     1  0.0000000  0.6508444  3
   1668   1656   1658   1671     1  0.0000000  0.6508444  3
   1668   1656   1658   1672     1  0.0000000  0.6508444  3
   1669   1657   1655   1680     1  0.0000000  0.6508444  3
   1669   1657   1660   1673     1  0.0000000  0.6508444  3
   1669   1657   1660   1674     1  0.0000000  0.6508444  3
   1670   1657   1655   1680     1  0.0000000  0.6508444  3
   1670   1657   1660   1673     1  0.0000000  0.6508444  3
   1670   1657   1660   1674     1  0.0000000  0.6508444  3
   1671   1658   1659   3315     1  180.0000771  0.0000000  2
   1672   1658   1659   3315     1  180.0000771  0.0000000  2
   1673   1660   1661   3327     1  180.0000771  0.0000000  2
   1674   1660   1661   3327     1  180.0000771  0.0000000  2
   1675   1662   1655   1680     1  0.0000000  0.6508444  3
   1675   1662   1663   1677     1  0.0000000  0.6508444  3
   1675   1662   1663   1678     1  0.0000000  0.6508444  3
   1676   1662   1655   1680     1  0.0000000  0.6508444  3
   1676   1662   1663   1677     1  0.0000000  0.6508444  3
   1676   1662   1663   1678     1  0.0000000  0.6508444  3
   1677   1663   1664   1679     1  0.0000000  0.0000000  2
   1678   1663   1664   1679     1  0.0000000  0.0000000  2
   1681   1682   1684   1697     1  0.0000000  0.6508444  3
   1681   1682   1684   1698     1  0.0000000  0.6508444  3
   1681   1683   1686   1699     1  0.0000000  0.6508444  3
   1681   1683   1686   1700     1  0.0000000  0.6508444  3
   1681   1688   1689   1703     1  0.0000000  0.6508444  3
   1681   1688   1689   1704     1  0.0000000  0.6508444  3
   1682   1681   1683   1695     1  0.0000000  0.6508444  3
   1682   1681   1683   1696     1  0.0000000  0.6508444  3
   1682   1681   1688   1701     1  0.0000000  0.6508444  3
   1682   1681   1688   1702     1  0.0000000  0.6508444  3
   1683   1681   1682   1693     1  0.0000000  0.6508444  3
   1683   1681   1682   1694     1  0.0000000  0.6508444  3
   1683   1681   1688   1701     1  0.0000000  0.6508444  3
   1683   1681   1688   1702     1  0.0000000  0.6508444  3
   1684   1682   1681   1706     1  0.0000000  0.6508444  3
   1684   1685   3339   3340     1  180.0000771  10.4600000  2
   1685   1684   1682   1693     1  0.0000000  0.6508444  3
   1685   1684   1682   1694     1  0.0000000  0.6508444  3
   1685   3339   3341   3343     1  0.0000000  0.0000000  2
   1685   3339   3341   3344     1  0.0000000  0.0000000  2
   1686   1683   1681   1706     1  0.0000000  0.6508444  3
   1686   1687   3351   3352     1  180.0000771  10.4600000  2
   1687   1686   1683   1695     1  0.0000000  0.6508444  3
   1687   1686   1683   1696     1  0.0000000  0.6508444  3
   1687   3351   3353   3355     1  0.0000000  0.0000000  2
   1687   3351   3353   3356     1  0.0000000  0.0000000  2
   1688   1681   1682   1693     1  0.0000000  0.6508444  3
   1688   1681   1682   1694     1  0.0000000  0.6508444  3
   1688   1681   1683   1695     1  0.0000000  0.6508444  3
   1688   1681   1683   1696     1  0.0000000  0.6508444  3
   1688   1689   1690   1705     1  0.0000000  0.0000000  2
   1689   1688   1681   1706     1  0.0000000  0.6508444  3
   1690   1689   1688   1701     1  0.0000000  0.6508444  3
   1690   1689   1688   1702     1  0.0000000  0.6508444  3
   1691   1685   1684   1697     1  0.0000000  3.3472000  1
   1691   1685   1684   1697     1  0.0000000  0.0000000  2
   1691   1685   1684   1697     1  180.0000771  0.3347200  3
   1691   1685   1684   1698     1  0.0000000  3.3472000  1
   1691   1685   1684   1698     1  0.0000000  0.0000000  2
   1691   1685   1684   1698     1  180.0000771  0.3347200  3
   1691   1685   3339   3340     1  0.0000000  8.3680000  1
   1691   1685   3339   3340     1  180.0000771  10.4600000  2
   1692   1687   1686   1699     1  0.0000000  3.3472000  1
   1692   1687   1686   1699     1  0.0000000  0.0000000  2
   1692   1687   1686   1699     1  180.0000771  0.3347200  3
   1692   1687   1686   1700     1  0.0000000  3.3472000  1
   1692   1687   1686   1700     1  0.0000000  0.0000000  2
   1692   1687   1686   1700     1  180.0000771  0.3347200  3
   1692   1687   3351   3352     1  0.0000000  8.3680000  1
   1692   1687   3351   3352     1  180.0000771  10.4600000  2
   1693   1682   1681   1706     1  0.0000000  0.6508444  3
   1693   1682   1684   1697     1  0.0000000  0.6508444  3
   1693   1682   1684   1698     1  0.0000000  0.6508444  3
   1694   1682   1681   1706     1  0.0000000  0.6508444  3
   1694   1682   1684   1697     1  0.0000000  0.6508444  3
   1694   1682   1684   1698     1  0.0000000  0.6508444  3
   1695   1683   1681   1706     1  0.0000000  0.6508444  3
   1695   1683   1686   1699     1  0.0000000  0.6508444  3
   1695   1683   1686   1700     1  0.0000000  0.6508444  3
   1696   1683   1681   1706     1  0.0000000  0.6508444  3
   1696   1683   1686   1699     1  0.0000000  0.6508444  3
   1696   1683   1686   1700     1  0.0000000  0.6508444  3
   1697   1684   1685   3339     1  180.0000771  0.0000000  2
   1698   1684   1685   3339     1  180.0000771  0.0000000  2
   1699   1686   1687   3351     1  180.0000771  0.0000000  2
   1700   1686   1687   3351     1  180.0000771  0.0000000  2
   1701   1688   1681   1706     1  0.0000000  0.6508444  3
   1701   1688   1689   1703     1  0.0000000  0.6508444  3
   1701   1688   1689   1704     1  0.0000000  0.6508444  3
   1702   1688   1681   1706     1  0.0000000  0.6508444  3
   1702   1688   1689   1703     1  0.0000000  0.6508444  3
   1702   1688   1689   1704     1  0.0000000  0.6508444  3
   1703   1689   1690   1705     1  0.0000000  0.0000000  2
   1704   1689   1690   1705     1  0.0000000  0.0000000  2
   1707   1708   1710   1723     1  0.0000000  0.6508444  3
   1707   1708   1710   1724     1  0.0000000  0.6508444  3
   1707   1709   1712   1725     1  0.0000000  0.6508444  3
   1707   1709   1712   1726     1  0.0000000  0.6508444  3
   1707   1714   1715   1729     1  0.0000000  0.6508444  3
   1707   1714   1715   1730     1  0.0000000  0.6508444  3
   1708   1707   1709   1721     1  0.0000000  0.6508444  3
   1708   1707   1709   1722     1  0.0000000  0.6508444  3
   1708   1707   1714   1727     1  0.0000000  0.6508444  3
   1708   1707   1714   1728     1  0.0000000  0.6508444  3
   1709   1707   1708   1719     1  0.0000000  0.6508444  3
   1709   1707   1708   1720     1  0.0000000  0.6508444  3
   1709   1707   1714   1727     1  0.0000000  0.6508444  3
   1709   1707   1714   1728     1  0.0000000  0.6508444  3
   1710   1708   1707   1732     1  0.0000000  0.6508444  3
   1710   1711   3363   3364     1  180.0000771  10.4600000  2
   1711   1710   1708   1719     1  0.0000000  0.6508444  3
   1711   1710   1708   1720     1  0.0000000  0.6508444  3
   1711   3363   3365   3367     1  0.0000000  0.0000000  2
   1711   3363   3365   3368     1  0.0000000  0.0000000  2
   1712   1709   1707   1732     1  0.0000000  0.6508444  3
   1712   1713   3375   3376     1  180.0000771  10.4600000  2
   1713   1712   1709   1721     1  0.0000000  0.6508444  3
   1713   1712   1709   1722     1  0.0000000  0.6508444  3
   1713   3375   3377   3379     1  0.0000000  0.0000000  2
   1713   3375   3377   3380     1  0.0000000  0.0000000  2
   1714   1707   1708   1719     1  0.0000000  0.6508444  3
   1714   1707   1708   1720     1  0.0000000  0.6508444  3
   1714   1707   1709   1721     1  0.0000000  0.6508444  3
   1714   1707   1709   1722     1  0.0000000  0.6508444  3
   1714   1715   1716   1731     1  0.0000000  0.0000000  2
   1715   1714   1707   1732     1  0.0000000  0.6508444  3
   1716   1715   1714   1727     1  0.0000000  0.6508444  3
   1716   1715   1714   1728     1  0.0000000  0.6508444  3
   1717   1711   1710   1723     1  0.0000000  3.3472000  1
   1717   1711   1710   1723     1  0.0000000  0.0000000  2
   1717   1711   1710   1723     1  180.0000771  0.3347200  3
   1717   1711   1710   1724     1  0.0000000  3.3472000  1
   1717   1711   1710   1724     1  0.0000000  0.0000000  2
   1717   1711   1710   1724     1  180.0000771  0.3347200  3
   1717   1711   3363   3364     1  0.0000000  8.3680000  1
   1717   1711   3363   3364     1  180.0000771  10.4600000  2
   1718   1713   1712   1725     1  0.0000000  3.3472000  1
   1718   1713   1712   1725     1  0.0000000  0.0000000  2
   1718   1713   1712   1725     1  180.0000771  0.3347200  3
   1718   1713   1712   1726     1  0.0000000  3.3472000  1
   1718   1713   1712   1726     1  0.0000000  0.0000000  2
   1718   1713   1712   1726     1  180.0000771  0.3347200  3
   1718   1713   3375   3376     1  0.0000000  8.3680000  1
   1718   1713   3375   3376     1  180.0000771  10.4600000  2
   1719   1708   1707   1732     1  0.0000000  0.6508444  3
   1719   1708   1710   1723     1  0.0000000  0.6508444  3
   1719   1708   1710   1724     1  0.0000000  0.6508444  3
   1720   1708   1707   1732     1  0.0000000  0.6508444  3
   1720   1708   1710   1723     1  0.0000000  0.6508444  3
   1720   1708   1710   1724     1  0.0000000  0.6508444  3
   1721   1709   1707   1732     1  0.0000000  0.6508444  3
   1721   1709   1712   1725     1  0.0000000  0.6508444  3
   1721   1709   1712   1726     1  0.0000000  0.6508444  3
   1722   1709   1707   1732     1  0.0000000  0.6508444  3
   1722   1709   1712   1725     1  0.0000000  0.6508444  3
   1722   1709   1712   1726     1  0.0000000  0.6508444  3
   1723   1710   1711   3363     1  180.0000771  0.0000000  2
   1724   1710   1711   3363     1  180.0000771  0.0000000  2
   1725   1712   1713   3375     1  180.0000771  0.0000000  2
   1726   1712   1713   3375     1  180.0000771  0.0000000  2
   1727   1714   1707   1732     1  0.0000000  0.6508444  3
   1727   1714   1715   1729     1  0.0000000  0.6508444  3
   1727   1714   1715   1730     1  0.0000000  0.6508444  3
   1728   1714   1707   1732     1  0.0000000  0.6508444  3
   1728   1714   1715   1729     1  0.0000000  0.6508444  3
   1728   1714   1715   1730     1  0.0000000  0.6508444  3
   1729   1715   1716   1731     1  0.0000000  0.0000000  2
   1730   1715   1716   1731     1  0.0000000  0.0000000  2
   1733   1734   1736   1749     1  0.0000000  0.6508444  3
   1733   1734   1736   1750     1  0.0000000  0.6508444  3
   1733   1735   1738   1751     1  0.0000000  0.6508444  3
   1733   1735   1738   1752     1  0.0000000  0.6508444  3
   1733   1740   1741   1755     1  0.0000000  0.6508444  3
   1733   1740   1741   1756     1  0.0000000  0.6508444  3
   1734   1733   1735   1747     1  0.0000000  0.6508444  3
   1734   1733   1735   1748     1  0.0000000  0.6508444  3
   1734   1733   1740   1753     1  0.0000000  0.6508444  3
   1734   1733   1740   1754     1  0.0000000  0.6508444  3
   1735   1733   1734   1745     1  0.0000000  0.6508444  3
   1735   1733   1734   1746     1  0.0000000  0.6508444  3
   1735   1733   1740   1753     1  0.0000000  0.6508444  3
   1735   1733   1740   1754     1  0.0000000  0.6508444  3
   1736   1734   1733   1758     1  0.0000000  0.6508444  3
   1736   1737   3387   3388     1  180.0000771  10.4600000  2
   1737   1736   1734   1745     1  0.0000000  0.6508444  3
   1737   1736   1734   1746     1  0.0000000  0.6508444  3
   1737   3387   3389   3391     1  0.0000000  0.0000000  2
   1737   3387   3389   3392     1  0.0000000  0.0000000  2
   1738   1735   1733   1758     1  0.0000000  0.6508444  3
   1738   1739   3399   3400     1  180.0000771  10.4600000  2
   1739   1738   1735   1747     1  0.0000000  0.6508444  3
   1739   1738   1735   1748     1  0.0000000  0.6508444  3
   1739   3399   3401   3403     1  0.0000000  0.0000000  2
   1739   3399   3401   3404     1  0.0000000  0.0000000  2
   1740   1733   1734   1745     1  0.0000000  0.6508444  3
   1740   1733   1734   1746     1  0.0000000  0.6508444  3
   1740   1733   1735   1747     1  0.0000000  0.6508444  3
   1740   1733   1735   1748     1  0.0000000  0.6508444  3
   1740   1741   1742   1757     1  0.0000000  0.0000000  2
   1741   1740   1733   1758     1  0.0000000  0.6508444  3
   1742   1741   1740   1753     1  0.0000000  0.6508444  3
   1742   1741   1740   1754     1  0.0000000  0.6508444  3
   1743   1737   1736   1749     1  0.0000000  3.3472000  1
   1743   1737   1736   1749     1  0.0000000  0.0000000  2
   1743   1737   1736   1749     1  180.0000771  0.3347200  3
   1743   1737   1736   1750     1  0.0000000  3.3472000  1
   1743   1737   1736   1750     1  0.0000000  0.0000000  2
   1743   1737   1736   1750     1  180.0000771  0.3347200  3
   1743   1737   3387   3388     1  0.0000000  8.3680000  1
   1743   1737   3387   3388     1  180.0000771  10.4600000  2
   1744   1739   1738   1751     1  0.0000000  3.3472000  1
   1744   1739   1738   1751     1  0.0000000  0.0000000  2
   1744   1739   1738   1751     1  180.0000771  0.3347200  3
   1744   1739   1738   1752     1  0.0000000  3.3472000  1
   1744   1739   1738   1752     1  0.0000000  0.0000000  2
   1744   1739   1738   1752     1  180.0000771  0.3347200  3
   1744   1739   3399   3400     1  0.0000000  8.3680000  1
   1744   1739   3399   3400     1  180.0000771  10.4600000  2
   1745   1734   1733   1758     1  0.0000000  0.6508444  3
   1745   1734   1736   1749     1  0.0000000  0.6508444  3
   1745   1734   1736   1750     1  0.0000000  0.6508444  3
   1746   1734   1733   1758     1  0.0000000  0.6508444  3
   1746   1734   1736   1749     1  0.0000000  0.6508444  3
   1746   1734   1736   1750     1  0.0000000  0.6508444  3
   1747   1735   1733   1758     1  0.0000000  0.6508444  3
   1747   1735   1738   1751     1  0.0000000  0.6508444  3
   1747   1735   1738   1752     1  0.0000000  0.6508444  3
   1748   1735   1733   1758     1  0.0000000  0.6508444  3
   1748   1735   1738   1751     1  0.0000000  0.6508444  3
   1748   1735   1738   1752     1  0.0000000  0.6508444  3
   1749   1736   1737   3387     1  180.0000771  0.0000000  2
   1750   1736   1737   3387     1  180.0000771  0.0000000  2
   1751   1738   1739   3399     1  180.0000771  0.0000000  2
   1752   1738   1739   3399     1  180.0000771  0.0000000  2
   1753   1740   1733   1758     1  0.0000000  0.6508444  3
   1753   1740   1741   1755     1  0.0000000  0.6508444  3
   1753   1740   1741   1756     1  0.0000000  0.6508444  3
   1754   1740   1733   1758     1  0.0000000  0.6508444  3
   1754   1740   1741   1755     1  0.0000000  0.6508444  3
   1754   1740   1741   1756     1  0.0000000  0.6508444  3
   1755   1741   1742   1757     1  0.0000000  0.0000000  2
   1756   1741   1742   1757     1  0.0000000  0.0000000  2
   1759   1760   1762   1775     1  0.0000000  0.6508444  3
   1759   1760   1762   1776     1  0.0000000  0.6508444  3
   1759   1761   1764   1777     1  0.0000000  0.6508444  3
   1759   1761   1764   1778     1  0.0000000  0.6508444  3
   1759   1766   1767   1781     1  0.0000000  0.6508444  3
   1759   1766   1767   1782     1  0.0000000  0.6508444  3
   1760   1759   1761   1773     1  0.0000000  0.6508444  3
   1760   1759   1761   1774     1  0.0000000  0.6508444  3
   1760   1759   1766   1779     1  0.0000000  0.6508444  3
   1760   1759   1766   1780     1  0.0000000  0.6508444  3
   1761   1759   1760   1771     1  0.0000000  0.6508444  3
   1761   1759   1760   1772     1  0.0000000  0.6508444  3
   1761   1759   1766   1779     1  0.0000000  0.6508444  3
   1761   1759   1766   1780     1  0.0000000  0.6508444  3
   1762   1760   1759   1784     1  0.0000000  0.6508444  3
   1762   1763   3411   3412     1  180.0000771  10.4600000  2
   1763   1762   1760   1771     1  0.0000000  0.6508444  3
   1763   1762   1760   1772     1  0.0000000  0.6508444  3
   1763   3411   3413   3415     1  0.0000000  0.0000000  2
   1763   3411   3413   3416     1  0.0000000  0.0000000  2
   1764   1761   1759   1784     1  0.0000000  0.6508444  3
   1764   1765   3423   3424     1  180.0000771  10.4600000  2
   1765   1764   1761   1773     1  0.0000000  0.6508444  3
   1765   1764   1761   1774     1  0.0000000  0.6508444  3
   1765   3423   3425   3427     1  0.0000000  0.0000000  2
   1765   3423   3425   3428     1  0.0000000  0.0000000  2
   1766   1759   1760   1771     1  0.0000000  0.6508444  3
   1766   1759   1760   1772     1  0.0000000  0.6508444  3
   1766   1759   1761   1773     1  0.0000000  0.6508444  3
   1766   1759   1761   1774     1  0.0000000  0.6508444  3
   1766   1767   1768   1783     1  0.0000000  0.0000000  2
   1767   1766   1759   1784     1  0.0000000  0.6508444  3
   1768   1767   1766   1779     1  0.0000000  0.6508444  3
   1768   1767   1766   1780     1  0.0000000  0.6508444  3
   1769   1763   1762   1775     1  0.0000000  3.3472000  1
   1769   1763   1762   1775     1  0.0000000  0.0000000  2
   1769   1763   1762   1775     1  180.0000771  0.3347200  3
   1769   1763   1762   1776     1  0.0000000  3.3472000  1
   1769   1763   1762   1776     1  0.0000000  0.0000000  2
   1769   1763   1762   1776     1  180.0000771  0.3347200  3
   1769   1763   3411   3412     1  0.0000000  8.3680000  1
   1769   1763   3411   3412     1  180.0000771  10.4600000  2
   1770   1765   1764   1777     1  0.0000000  3.3472000  1
   1770   1765   1764   1777     1  0.0000000  0.0000000  2
   1770   1765   1764   1777     1  180.0000771  0.3347200  3
   1770   1765   1764   1778     1  0.0000000  3.3472000  1
   1770   1765   1764   1778     1  0.0000000  0.0000000  2
   1770   1765   1764   1778     1  180.0000771  0.3347200  3
   1770   1765   3423   3424     1  0.0000000  8.3680000  1
   1770   1765   3423   3424     1  180.0000771  10.4600000  2
   1771   1760   1759   1784     1  0.0000000  0.6508444  3
   1771   1760   1762   1775     1  0.0000000  0.6508444  3
   1771   1760   1762   1776     1  0.0000000  0.6508444  3
   1772   1760   1759   1784     1  0.0000000  0.6508444  3
   1772   1760   1762   1775     1  0.0000000  0.6508444  3
   1772   1760   1762   1776     1  0.0000000  0.6508444  3
   1773   1761   1759   1784     1  0.0000000  0.6508444  3
   1773   1761   1764   1777     1  0.0000000  0.6508444  3
   1773   1761   1764   1778     1  0.0000000  0.6508444  3
   1774   1761   1759   1784     1  0.0000000  0.6508444  3
   1774   1761   1764   1777     1  0.0000000  0.6508444  3
   1774   1761   1764   1778     1  0.0000000  0.6508444  3
   1775   1762   1763   3411     1  180.0000771  0.0000000  2
   1776   1762   1763   3411     1  180.0000771  0.0000000  2
   1777   1764   1765   3423     1  180.0000771  0.0000000  2
   1778   1764   1765   3423     1  180.0000771  0.0000000  2
   1779   1766   1759   1784     1  0.0000000  0.6508444  3
   1779   1766   1767   1781     1  0.0000000  0.6508444  3
   1779   1766   1767   1782     1  0.0000000  0.6508444  3
   1780   1766   1759   1784     1  0.0000000  0.6508444  3
   1780   1766   1767   1781     1  0.0000000  0.6508444  3
   1780   1766   1767   1782     1  0.0000000  0.6508444  3
   1781   1767   1768   1783     1  0.0000000  0.0000000  2
   1782   1767   1768   1783     1  0.0000000  0.0000000  2
   1785   1786   1788   1801     1  0.0000000  0.6508444  3
   1785   1786   1788   1802     1  0.0000000  0.6508444  3
   1785   1787   1790   1803     1  0.0000000  0.6508444  3
   1785   1787   1790   1804     1  0.0000000  0.6508444  3
   1785   1792   1793   1807     1  0.0000000  0.6508444  3
   1785   1792   1793   1808     1  0.0000000  0.6508444  3
   1786   1785   1787   1799     1  0.0000000  0.6508444  3
   1786   1785   1787   1800     1  0.0000000  0.6508444  3
   1786   1785   1792   1805     1  0.0000000  0.6508444  3
   1786   1785   1792   1806     1  0.0000000  0.6508444  3
   1787   1785   1786   1797     1  0.0000000  0.6508444  3
   1787   1785   1786   1798     1  0.0000000  0.6508444  3
   1787   1785   1792   1805     1  0.0000000  0.6508444  3
   1787   1785   1792   1806     1  0.0000000  0.6508444  3
   1788   1786   1785   1810     1  0.0000000  0.6508444  3
   1788   1789   3435   3436     1  180.0000771  10.4600000  2
   1789   1788   1786   1797     1  0.0000000  0.6508444  3
   1789   1788   1786   1798     1  0.0000000  0.6508444  3
   1789   3435   3437   3439     1  0.0000000  0.0000000  2
   1789   3435   3437   3440     1  0.0000000  0.0000000  2
   1790   1787   1785   1810     1  0.0000000  0.6508444  3
   1790   1791   3447   3448     1  180.0000771  10.4600000  2
   1791   1790   1787   1799     1  0.0000000  0.6508444  3
   1791   1790   1787   1800     1  0.0000000  0.6508444  3
   1791   3447   3449   3451     1  0.0000000  0.0000000  2
   1791   3447   3449   3452     1  0.0000000  0.0000000  2
   1792   1785   1786   1797     1  0.0000000  0.6508444  3
   1792   1785   1786   1798     1  0.0000000  0.6508444  3
   1792   1785   1787   1799     1  0.0000000  0.6508444  3
   1792   1785   1787   1800     1  0.0000000  0.6508444  3
   1792   1793   1794   1809     1  0.0000000  0.0000000  2
   1793   1792   1785   1810     1  0.0000000  0.6508444  3
   1794   1793   1792   1805     1  0.0000000  0.6508444  3
   1794   1793   1792   1806     1  0.0000000  0.6508444  3
   1795   1789   1788   1801     1  0.0000000  3.3472000  1
   1795   1789   1788   1801     1  0.0000000  0.0000000  2
   1795   1789   1788   1801     1  180.0000771  0.3347200  3
   1795   1789   1788   1802     1  0.0000000  3.3472000  1
   1795   1789   1788   1802     1  0.0000000  0.0000000  2
   1795   1789   1788   1802     1  180.0000771  0.3347200  3
   1795   1789   3435   3436     1  0.0000000  8.3680000  1
   1795   1789   3435   3436     1  180.0000771  10.4600000  2
   1796   1791   1790   1803     1  0.0000000  3.3472000  1
   1796   1791   1790   1803     1  0.0000000  0.0000000  2
   1796   1791   1790   1803     1  180.0000771  0.3347200  3
   1796   1791   1790   1804     1  0.0000000  3.3472000  1
   1796   1791   1790   1804     1  0.0000000  0.0000000  2
   1796   1791   1790   1804     1  180.0000771  0.3347200  3
   1796   1791   3447   3448     1  0.0000000  8.3680000  1
   1796   1791   3447   3448     1  180.0000771  10.4600000  2
   1797   1786   1785   1810     1  0.0000000  0.6508444  3
   1797   1786   1788   1801     1  0.0000000  0.6508444  3
   1797   1786   1788   1802     1  0.0000000  0.6508444  3
   1798   1786   1785   1810     1  0.0000000  0.6508444  3
   1798   1786   1788   1801     1  0.0000000  0.6508444  3
   1798   1786   1788   1802     1  0.0000000  0.6508444  3
   1799   1787   1785   1810     1  0.0000000  0.6508444  3
   1799   1787   1790   1803     1  0.0000000  0.6508444  3
   1799   1787   1790   1804     1  0.0000000  0.6508444  3
   1800   1787   1785   1810     1  0.0000000  0.6508444  3
   1800   1787   1790   1803     1  0.0000000  0.6508444  3
   1800   1787   1790   1804     1  0.0000000  0.6508444  3
   1801   1788   1789   3435     1  180.0000771  0.0000000  2
   1802   1788   1789   3435     1  180.0000771  0.0000000  2
   1803   1790   1791   3447     1  180.0000771  0.0000000  2
   1804   1790   1791   3447     1  180.0000771  0.0000000  2
   1805   1792   1785   1810     1  0.0000000  0.6508444  3
   1805   1792   1793   1807     1  0.0000000  0.6508444  3
   1805   1792   1793   1808     1  0.0000000  0.6508444  3
   1806   1792   1785   1810     1  0.0000000  0.6508444  3
   1806   1792   1793   1807     1  0.0000000  0.6508444  3
   1806   1792   1793   1808     1  0.0000000  0.6508444  3
   1807   1793   1794   1809     1  0.0000000  0.0000000  2
   1808   1793   1794   1809     1  0.0000000  0.0000000  2
   1811   1812   1814   1827     1  0.0000000  0.6508444  3
   1811   1812   1814   1828     1  0.0000000  0.6508444  3
   1811   1813   1816   1829     1  0.0000000  0.6508444  3
   1811   1813   1816   1830     1  0.0000000  0.6508444  3
   1811   1818   1819   1833     1  0.0000000  0.6508444  3
   1811   1818   1819   1834     1  0.0000000  0.6508444  3
   1812   1811   1813   1825     1  0.0000000  0.6508444  3
   1812   1811   1813   1826     1  0.0000000  0.6508444  3
   1812   1811   1818   1831     1  0.0000000  0.6508444  3
   1812   1811   1818   1832     1  0.0000000  0.6508444  3
   1813   1811   1812   1823     1  0.0000000  0.6508444  3
   1813   1811   1812   1824     1  0.0000000  0.6508444  3
   1813   1811   1818   1831     1  0.0000000  0.6508444  3
   1813   1811   1818   1832     1  0.0000000  0.6508444  3
   1814   1812   1811   1836     1  0.0000000  0.6508444  3
   1814   1815   3459   3460     1  180.0000771  10.4600000  2
   1815   1814   1812   1823     1  0.0000000  0.6508444  3
   1815   1814   1812   1824     1  0.0000000  0.6508444  3
   1815   3459   3461   3463     1  0.0000000  0.0000000  2
   1815   3459   3461   3464     1  0.0000000  0.0000000  2
   1816   1813   1811   1836     1  0.0000000  0.6508444  3
   1816   1817   3471   3472     1  180.0000771  10.4600000  2
   1817   1816   1813   1825     1  0.0000000  0.6508444  3
   1817   1816   1813   1826     1  0.0000000  0.6508444  3
   1817   3471   3473   3475     1  0.0000000  0.0000000  2
   1817   3471   3473   3476     1  0.0000000  0.0000000  2
   1818   1811   1812   1823     1  0.0000000  0.6508444  3
   1818   1811   1812   1824     1  0.0000000  0.6508444  3
   1818   1811   1813   1825     1  0.0000000  0.6508444  3
   1818   1811   1813   1826     1  0.0000000  0.6508444  3
   1818   1819   1820   1835     1  0.0000000  0.0000000  2
   1819   1818   1811   1836     1  0.0000000  0.6508444  3
   1820   1819   1818   1831     1  0.0000000  0.6508444  3
   1820   1819   1818   1832     1  0.0000000  0.6508444  3
   1821   1815   1814   1827     1  0.0000000  3.3472000  1
   1821   1815   1814   1827     1  0.0000000  0.0000000  2
   1821   1815   1814   1827     1  180.0000771  0.3347200  3
   1821   1815   1814   1828     1  0.0000000  3.3472000  1
   1821   1815   1814   1828     1  0.0000000  0.0000000  2
   1821   1815   1814   1828     1  180.0000771  0.3347200  3
   1821   1815   3459   3460     1  0.0000000  8.3680000  1
   1821   1815   3459   3460     1  180.0000771  10.4600000  2
   1822   1817   1816   1829     1  0.0000000  3.3472000  1
   1822   1817   1816   1829     1  0.0000000  0.0000000  2
   1822   1817   1816   1829     1  180.0000771  0.3347200  3
   1822   1817   1816   1830     1  0.0000000  3.3472000  1
   1822   1817   1816   1830     1  0.0000000  0.0000000  2
   1822   1817   1816   1830     1  180.0000771  0.3347200  3
   1822   1817   3471   3472     1  0.0000000  8.3680000  1
   1822   1817   3471   3472     1  180.0000771  10.4600000  2
   1823   1812   1811   1836     1  0.0000000  0.6508444  3
   1823   1812   1814   1827     1  0.0000000  0.6508444  3
   1823   1812   1814   1828     1  0.0000000  0.6508444  3
   1824   1812   1811   1836     1  0.0000000  0.6508444  3
   1824   1812   1814   1827     1  0.0000000  0.6508444  3
   1824   1812   1814   1828     1  0.0000000  0.6508444  3
   1825   1813   1811   1836     1  0.0000000  0.6508444  3
   1825   1813   1816   1829     1  0.0000000  0.6508444  3
   1825   1813   1816   1830     1  0.0000000  0.6508444  3
   1826   1813   1811   1836     1  0.0000000  0.6508444  3
   1826   1813   1816   1829     1  0.0000000  0.6508444  3
   1826   1813   1816   1830     1  0.0000000  0.6508444  3
   1827   1814   1815   3459     1  180.0000771  0.0000000  2
   1828   1814   1815   3459     1  180.0000771  0.0000000  2
   1829   1816   1817   3471     1  180.0000771  0.0000000  2
   1830   1816   1817   3471     1  180.0000771  0.0000000  2
   1831   1818   1811   1836     1  0.0000000  0.6508444  3
   1831   1818   1819   1833     1  0.0000000  0.6508444  3
   1831   1818   1819   1834     1  0.0000000  0.6508444  3
   1832   1818   1811   1836     1  0.0000000  0.6508444  3
   1832   1818   1819   1833     1  0.0000000  0.6508444  3
   1832   1818   1819   1834     1  0.0000000  0.6508444  3
   1833   1819   1820   1835     1  0.0000000  0.0000000  2
   1834   1819   1820   1835     1  0.0000000  0.0000000  2
   1837   1838   1840   1853     1  0.0000000  0.6508444  3
   1837   1838   1840   1854     1  0.0000000  0.6508444  3
   1837   1839   1842   1855     1  0.0000000  0.6508444  3
   1837   1839   1842   1856     1  0.0000000  0.6508444  3
   1837   1844   1845   1859     1  0.0000000  0.6508444  3
   1837   1844   1845   1860     1  0.0000000  0.6508444  3
   1838   1837   1839   1851     1  0.0000000  0.6508444  3
   1838   1837   1839   1852     1  0.0000000  0.6508444  3
   1838   1837   1844   1857     1  0.0000000  0.6508444  3
   1838   1837   1844   1858     1  0.0000000  0.6508444  3
   1839   1837   1838   1849     1  0.0000000  0.6508444  3
   1839   1837   1838   1850     1  0.0000000  0.6508444  3
   1839   1837   1844   1857     1  0.0000000  0.6508444  3
   1839   1837   1844   1858     1  0.0000000  0.6508444  3
   1840   1838   1837   1862     1  0.0000000  0.6508444  3
   1840   1841   3483   3484     1  180.0000771  10.4600000  2
   1841   1840   1838   1849     1  0.0000000  0.6508444  3
   1841   1840   1838   1850     1  0.0000000  0.6508444  3
   1841   3483   3485   3487     1  0.0000000  0.0000000  2
   1841   3483   3485   3488     1  0.0000000  0.0000000  2
   1842   1839   1837   1862     1  0.0000000  0.6508444  3
   1842   1843   3495   3496     1  180.0000771  10.4600000  2
   1843   1842   1839   1851     1  0.0000000  0.6508444  3
   1843   1842   1839   1852     1  0.0000000  0.6508444  3
   1843   3495   3497   3499     1  0.0000000  0.0000000  2
   1843   3495   3497   3500     1  0.0000000  0.0000000  2
   1844   1837   1838   1849     1  0.0000000  0.6508444  3
   1844   1837   1838   1850     1  0.0000000  0.6508444  3
   1844   1837   1839   1851     1  0.0000000  0.6508444  3
   1844   1837   1839   1852     1  0.0000000  0.6508444  3
   1844   1845   1846   1861     1  0.0000000  0.0000000  2
   1845   1844   1837   1862     1  0.0000000  0.6508444  3
   1846   1845   1844   1857     1  0.0000000  0.6508444  3
   1846   1845   1844   1858     1  0.0000000  0.6508444  3
   1847   1841   1840   1853     1  0.0000000  3.3472000  1
   1847   1841   1840   1853     1  0.0000000  0.0000000  2
   1847   1841   1840   1853     1  180.0000771  0.3347200  3
   1847   1841   1840   1854     1  0.0000000  3.3472000  1
   1847   1841   1840   1854     1  0.0000000  0.0000000  2
   1847   1841   1840   1854     1  180.0000771  0.3347200  3
   1847   1841   3483   3484     1  0.0000000  8.3680000  1
   1847   1841   3483   3484     1  180.0000771  10.4600000  2
   1848   1843   1842   1855     1  0.0000000  3.3472000  1
   1848   1843   1842   1855     1  0.0000000  0.0000000  2
   1848   1843   1842   1855     1  180.0000771  0.3347200  3
   1848   1843   1842   1856     1  0.0000000  3.3472000  1
   1848   1843   1842   1856     1  0.0000000  0.0000000  2
   1848   1843   1842   1856     1  180.0000771  0.3347200  3
   1848   1843   3495   3496     1  0.0000000  8.3680000  1
   1848   1843   3495   3496     1  180.0000771  10.4600000  2
   1849   1838   1837   1862     1  0.0000000  0.6508444  3
   1849   1838   1840   1853     1  0.0000000  0.6508444  3
   1849   1838   1840   1854     1  0.0000000  0.6508444  3
   1850   1838   1837   1862     1  0.0000000  0.6508444  3
   1850   1838   1840   1853     1  0.0000000  0.6508444  3
   1850   1838   1840   1854     1  0.0000000  0.6508444  3
   1851   1839   1837   1862     1  0.0000000  0.6508444  3
   1851   1839   1842   1855     1  0.0000000  0.6508444  3
   1851   1839   1842   1856     1  0.0000000  0.6508444  3
   1852   1839   1837   1862     1  0.0000000  0.6508444  3
   1852   1839   1842   1855     1  0.0000000  0.6508444  3
   1852   1839   1842   1856     1  0.0000000  0.6508444  3
   1853   1840   1841   3483     1  180.0000771  0.0000000  2
   1854   1840   1841   3483     1  180.0000771  0.0000000  2
   1855   1842   1843   3495     1  180.0000771  0.0000000  2
   1856   1842   1843   3495     1  180.0000771  0.0000000  2
   1857   1844   1837   1862     1  0.0000000  0.6508444  3
   1857   1844   1845   1859     1  0.0000000  0.6508444  3
   1857   1844   1845   1860     1  0.0000000  0.6508444  3
   1858   1844   1837   1862     1  0.0000000  0.6508444  3
   1858   1844   1845   1859     1  0.0000000  0.6508444  3
   1858   1844   1845   1860     1  0.0000000  0.6508444  3
   1859   1845   1846   1861     1  0.0000000  0.0000000  2
   1860   1845   1846   1861     1  0.0000000  0.0000000  2
   1863   1864   1866   1879     1  0.0000000  0.6508444  3
   1863   1864   1866   1880     1  0.0000000  0.6508444  3
   1863   1865   1868   1881     1  0.0000000  0.6508444  3
   1863   1865   1868   1882     1  0.0000000  0.6508444  3
   1863   1870   1871   1885     1  0.0000000  0.6508444  3
   1863   1870   1871   1886     1  0.0000000  0.6508444  3
   1864   1863   1865   1877     1  0.0000000  0.6508444  3
   1864   1863   1865   1878     1  0.0000000  0.6508444  3
   1864   1863   1870   1883     1  0.0000000  0.6508444  3
   1864   1863   1870   1884     1  0.0000000  0.6508444  3
   1865   1863   1864   1875     1  0.0000000  0.6508444  3
   1865   1863   1864   1876     1  0.0000000  0.6508444  3
   1865   1863   1870   1883     1  0.0000000  0.6508444  3
   1865   1863   1870   1884     1  0.0000000  0.6508444  3
   1866   1864   1863   1888     1  0.0000000  0.6508444  3
   1866   1867   3507   3508     1  180.0000771  10.4600000  2
   1867   1866   1864   1875     1  0.0000000  0.6508444  3
   1867   1866   1864   1876     1  0.0000000  0.6508444  3
   1867   3507   3509   3511     1  0.0000000  0.0000000  2
   1867   3507   3509   3512     1  0.0000000  0.0000000  2
   1868   1865   1863   1888     1  0.0000000  0.6508444  3
   1868   1869   3519   3520     1  180.0000771  10.4600000  2
   1869   1868   1865   1877     1  0.0000000  0.6508444  3
   1869   1868   1865   1878     1  0.0000000  0.6508444  3
   1869   3519   3521   3523     1  0.0000000  0.0000000  2
   1869   3519   3521   3524     1  0.0000000  0.0000000  2
   1870   1863   1864   1875     1  0.0000000  0.6508444  3
   1870   1863   1864   1876     1  0.0000000  0.6508444  3
   1870   1863   1865   1877     1  0.0000000  0.6508444  3
   1870   1863   1865   1878     1  0.0000000  0.6508444  3
   1870   1871   1872   1887     1  0.0000000  0.0000000  2
   1871   1870   1863   1888     1  0.0000000  0.6508444  3
   1872   1871   1870   1883     1  0.0000000  0.6508444  3
   1872   1871   1870   1884     1  0.0000000  0.6508444  3
   1873   1867   1866   1879     1  0.0000000  3.3472000  1
   1873   1867   1866   1879     1  0.0000000  0.0000000  2
   1873   1867   1866   1879     1  180.0000771  0.3347200  3
   1873   1867   1866   1880     1  0.0000000  3.3472000  1
   1873   1867   1866   1880     1  0.0000000  0.0000000  2
   1873   1867   1866   1880     1  180.0000771  0.3347200  3
   1873   1867   3507   3508     1  0.0000000  8.3680000  1
   1873   1867   3507   3508     1  180.0000771  10.4600000  2
   1874   1869   1868   1881     1  0.0000000  3.3472000  1
   1874   1869   1868   1881     1  0.0000000  0.0000000  2
   1874   1869   1868   1881     1  180.0000771  0.3347200  3
   1874   1869   1868   1882     1  0.0000000  3.3472000  1
   1874   1869   1868   1882     1  0.0000000  0.0000000  2
   1874   1869   1868   1882     1  180.0000771  0.3347200  3
   1874   1869   3519   3520     1  0.0000000  8.3680000  1
   1874   1869   3519   3520     1  180.0000771  10.4600000  2
   1875   1864   1863   1888     1  0.0000000  0.6508444  3
   1875   1864   1866   1879     1  0.0000000  0.6508444  3
   1875   1864   1866   1880     1  0.0000000  0.6508444  3
   1876   1864   1863   1888     1  0.0000000  0.6508444  3
   1876   1864   1866   1879     1  0.0000000  0.6508444  3
   1876   1864   1866   1880     1  0.0000000  0.6508444  3
   1877   1865   1863   1888     1  0.0000000  0.6508444  3
   1877   1865   1868   1881     1  0.0000000  0.6508444  3
   1877   1865   1868   1882     1  0.0000000  0.6508444  3
   1878   1865   1863   1888     1  0.0000000  0.6508444  3
   1878   1865   1868   1881     1  0.0000000  0.6508444  3
   1878   1865   1868   1882     1  0.0000000  0.6508444  3
   1879   1866   1867   3507     1  180.0000771  0.0000000  2
   1880   1866   1867   3507     1  180.0000771  0.0000000  2
   1881   1868   1869   3519     1  180.0000771  0.0000000  2
   1882   1868   1869   3519     1  180.0000771  0.0000000  2
   1883   1870   1863   1888     1  0.0000000  0.6508444  3
   1883   1870   1871   1885     1  0.0000000  0.6508444  3
   1883   1870   1871   1886     1  0.0000000  0.6508444  3
   1884   1870   1863   1888     1  0.0000000  0.6508444  3
   1884   1870   1871   1885     1  0.0000000  0.6508444  3
   1884   1870   1871   1886     1  0.0000000  0.6508444  3
   1885   1871   1872   1887     1  0.0000000  0.0000000  2
   1886   1871   1872   1887     1  0.0000000  0.0000000  2
   1889   1890   1892   1905     1  0.0000000  0.6508444  3
   1889   1890   1892   1906     1  0.0000000  0.6508444  3
   1889   1891   1894   1907     1  0.0000000  0.6508444  3
   1889   1891   1894   1908     1  0.0000000  0.6508444  3
   1889   1896   1897   1911     1  0.0000000  0.6508444  3
   1889   1896   1897   1912     1  0.0000000  0.6508444  3
   1890   1889   1891   1903     1  0.0000000  0.6508444  3
   1890   1889   1891   1904     1  0.0000000  0.6508444  3
   1890   1889   1896   1909     1  0.0000000  0.6508444  3
   1890   1889   1896   1910     1  0.0000000  0.6508444  3
   1891   1889   1890   1901     1  0.0000000  0.6508444  3
   1891   1889   1890   1902     1  0.0000000  0.6508444  3
   1891   1889   1896   1909     1  0.0000000  0.6508444  3
   1891   1889   1896   1910     1  0.0000000  0.6508444  3
   1892   1890   1889   1914     1  0.0000000  0.6508444  3
   1892   1893   3531   3532     1  180.0000771  10.4600000  2
   1893   1892   1890   1901     1  0.0000000  0.6508444  3
   1893   1892   1890   1902     1  0.0000000  0.6508444  3
   1893   3531   3533   3535     1  0.0000000  0.0000000  2
   1893   3531   3533   3536     1  0.0000000  0.0000000  2
   1894   1891   1889   1914     1  0.0000000  0.6508444  3
   1894   1895   3543   3544     1  180.0000771  10.4600000  2
   1895   1894   1891   1903     1  0.0000000  0.6508444  3
   1895   1894   1891   1904     1  0.0000000  0.6508444  3
   1895   3543   3545   3547     1  0.0000000  0.0000000  2
   1895   3543   3545   3548     1  0.0000000  0.0000000  2
   1896   1889   1890   1901     1  0.0000000  0.6508444  3
   1896   1889   1890   1902     1  0.0000000  0.6508444  3
   1896   1889   1891   1903     1  0.0000000  0.6508444  3
   1896   1889   1891   1904     1  0.0000000  0.6508444  3
   1896   1897   1898   1913     1  0.0000000  0.0000000  2
   1897   1896   1889   1914     1  0.0000000  0.6508444  3
   1898   1897   1896   1909     1  0.0000000  0.6508444  3
   1898   1897   1896   1910     1  0.0000000  0.6508444  3
   1899   1893   1892   1905     1  0.0000000  3.3472000  1
   1899   1893   1892   1905     1  0.0000000  0.0000000  2
   1899   1893   1892   1905     1  180.0000771  0.3347200  3
   1899   1893   1892   1906     1  0.0000000  3.3472000  1
   1899   1893   1892   1906     1  0.0000000  0.0000000  2
   1899   1893   1892   1906     1  180.0000771  0.3347200  3
   1899   1893   3531   3532     1  0.0000000  8.3680000  1
   1899   1893   3531   3532     1  180.0000771  10.4600000  2
   1900   1895   1894   1907     1  0.0000000  3.3472000  1
   1900   1895   1894   1907     1  0.0000000  0.0000000  2
   1900   1895   1894   1907     1  180.0000771  0.3347200  3
   1900   1895   1894   1908     1  0.0000000  3.3472000  1
   1900   1895   1894   1908     1  0.0000000  0.0000000  2
   1900   1895   1894   1908     1  180.0000771  0.3347200  3
   1900   1895   3543   3544     1  0.0000000  8.3680000  1
   1900   1895   3543   3544     1  180.0000771  10.4600000  2
   1901   1890   1889   1914     1  0.0000000  0.6508444  3
   1901   1890   1892   1905     1  0.0000000  0.6508444  3
   1901   1890   1892   1906     1  0.0000000  0.6508444  3
   1902   1890   1889   1914     1  0.0000000  0.6508444  3
   1902   1890   1892   1905     1  0.0000000  0.6508444  3
   1902   1890   1892   1906     1  0.0000000  0.6508444  3
   1903   1891   1889   1914     1  0.0000000  0.6508444  3
   1903   1891   1894   1907     1  0.0000000  0.6508444  3
   1903   1891   1894   1908     1  0.0000000  0.6508444  3
   1904   1891   1889   1914     1  0.0000000  0.6508444  3
   1904   1891   1894   1907     1  0.0000000  0.6508444  3
   1904   1891   1894   1908     1  0.0000000  0.6508444  3
   1905   1892   1893   3531     1  180.0000771  0.0000000  2
   1906   1892   1893   3531     1  180.0000771  0.0000000  2
   1907   1894   1895   3543     1  180.0000771  0.0000000  2
   1908   1894   1895   3543     1  180.0000771  0.0000000  2
   1909   1896   1889   1914     1  0.0000000  0.6508444  3
   1909   1896   1897   1911     1  0.0000000  0.6508444  3
   1909   1896   1897   1912     1  0.0000000  0.6508444  3
   1910   1896   1889   1914     1  0.0000000  0.6508444  3
   1910   1896   1897   1911     1  0.0000000  0.6508444  3
   1910   1896   1897   1912     1  0.0000000  0.6508444  3
   1911   1897   1898   1913     1  0.0000000  0.0000000  2
   1912   1897   1898   1913     1  0.0000000  0.0000000  2
   1915   1916   1918   1931     1  0.0000000  0.6508444  3
   1915   1916   1918   1932     1  0.0000000  0.6508444  3
   1915   1917   1920   1933     1  0.0000000  0.6508444  3
   1915   1917   1920   1934     1  0.0000000  0.6508444  3
   1915   1922   1923   1937     1  0.0000000  0.6508444  3
   1915   1922   1923   1938     1  0.0000000  0.6508444  3
   1916   1915   1917   1929     1  0.0000000  0.6508444  3
   1916   1915   1917   1930     1  0.0000000  0.6508444  3
   1916   1915   1922   1935     1  0.0000000  0.6508444  3
   1916   1915   1922   1936     1  0.0000000  0.6508444  3
   1917   1915   1916   1927     1  0.0000000  0.6508444  3
   1917   1915   1916   1928     1  0.0000000  0.6508444  3
   1917   1915   1922   1935     1  0.0000000  0.6508444  3
   1917   1915   1922   1936     1  0.0000000  0.6508444  3
   1918   1916   1915   1940     1  0.0000000  0.6508444  3
   1918   1919   3555   3556     1  180.0000771  10.4600000  2
   1919   1918   1916   1927     1  0.0000000  0.6508444  3
   1919   1918   1916   1928     1  0.0000000  0.6508444  3
   1919   3555   3557   3559     1  0.0000000  0.0000000  2
   1919   3555   3557   3560     1  0.0000000  0.0000000  2
   1920   1917   1915   1940     1  0.0000000  0.6508444  3
   1920   1921   3567   3568     1  180.0000771  10.4600000  2
   1921   1920   1917   1929     1  0.0000000  0.6508444  3
   1921   1920   1917   1930     1  0.0000000  0.6508444  3
   1921   3567   3569   3571     1  0.0000000  0.0000000  2
   1921   3567   3569   3572     1  0.0000000  0.0000000  2
   1922   1915   1916   1927     1  0.0000000  0.6508444  3
   1922   1915   1916   1928     1  0.0000000  0.6508444  3
   1922   1915   1917   1929     1  0.0000000  0.6508444  3
   1922   1915   1917   1930     1  0.0000000  0.6508444  3
   1922   1923   1924   1939     1  0.0000000  0.0000000  2
   1923   1922   1915   1940     1  0.0000000  0.6508444  3
   1924   1923   1922   1935     1  0.0000000  0.6508444  3
   1924   1923   1922   1936     1  0.0000000  0.6508444  3
   1925   1919   1918   1931     1  0.0000000  3.3472000  1
   1925   1919   1918   1931     1  0.0000000  0.0000000  2
   1925   1919   1918   1931     1  180.0000771  0.3347200  3
   1925   1919   1918   1932     1  0.0000000  3.3472000  1
   1925   1919   1918   1932     1  0.0000000  0.0000000  2
   1925   1919   1918   1932     1  180.0000771  0.3347200  3
   1925   1919   3555   3556     1  0.0000000  8.3680000  1
   1925   1919   3555   3556     1  180.0000771  10.4600000  2
   1926   1921   1920   1933     1  0.0000000  3.3472000  1
   1926   1921   1920   1933     1  0.0000000  0.0000000  2
   1926   1921   1920   1933     1  180.0000771  0.3347200  3
   1926   1921   1920   1934     1  0.0000000  3.3472000  1
   1926   1921   1920   1934     1  0.0000000  0.0000000  2
   1926   1921   1920   1934     1  180.0000771  0.3347200  3
   1926   1921   3567   3568     1  0.0000000  8.3680000  1
   1926   1921   3567   3568     1  180.0000771  10.4600000  2
   1927   1916   1915   1940     1  0.0000000  0.6508444  3
   1927   1916   1918   1931     1  0.0000000  0.6508444  3
   1927   1916   1918   1932     1  0.0000000  0.6508444  3
   1928   1916   1915   1940     1  0.0000000  0.6508444  3
   1928   1916   1918   1931     1  0.0000000  0.6508444  3
   1928   1916   1918   1932     1  0.0000000  0.6508444  3
   1929   1917   1915   1940     1  0.0000000  0.6508444  3
   1929   1917   1920   1933     1  0.0000000  0.6508444  3
   1929   1917   1920   1934     1  0.0000000  0.6508444  3
   1930   1917   1915   1940     1  0.0000000  0.6508444  3
   1930   1917   1920   1933     1  0.0000000  0.6508444  3
   1930   1917   1920   1934     1  0.0000000  0.6508444  3
   1931   1918   1919   3555     1  180.0000771  0.0000000  2
   1932   1918   1919   3555     1  180.0000771  0.0000000  2
   1933   1920   1921   3567     1  180.0000771  0.0000000  2
   1934   1920   1921   3567     1  180.0000771  0.0000000  2
   1935   1922   1915   1940     1  0.0000000  0.6508444  3
   1935   1922   1923   1937     1  0.0000000  0.6508444  3
   1935   1922   1923   1938     1  0.0000000  0.6508444  3
   1936   1922   1915   1940     1  0.0000000  0.6508444  3
   1936   1922   1923   1937     1  0.0000000  0.6508444  3
   1936   1922   1923   1938     1  0.0000000  0.6508444  3
   1937   1923   1924   1939     1  0.0000000  0.0000000  2
   1938   1923   1924   1939     1  0.0000000  0.0000000  2
   1941   1942   1944   1957     1  0.0000000  0.6508444  3
   1941   1942   1944   1958     1  0.0000000  0.6508444  3
   1941   1943   1946   1959     1  0.0000000  0.6508444  3
   1941   1943   1946   1960     1  0.0000000  0.6508444  3
   1941   1948   1949   1963     1  0.0000000  0.6508444  3
   1941   1948   1949   1964     1  0.0000000  0.6508444  3
   1942   1941   1943   1955     1  0.0000000  0.6508444  3
   1942   1941   1943   1956     1  0.0000000  0.6508444  3
   1942   1941   1948   1961     1  0.0000000  0.6508444  3
   1942   1941   1948   1962     1  0.0000000  0.6508444  3
   1943   1941   1942   1953     1  0.0000000  0.6508444  3
   1943   1941   1942   1954     1  0.0000000  0.6508444  3
   1943   1941   1948   1961     1  0.0000000  0.6508444  3
   1943   1941   1948   1962     1  0.0000000  0.6508444  3
   1944   1942   1941   1966     1  0.0000000  0.6508444  3
   1944   1945   3579   3580     1  180.0000771  10.4600000  2
   1945   1944   1942   1953     1  0.0000000  0.6508444  3
   1945   1944   1942   1954     1  0.0000000  0.6508444  3
   1945   3579   3581   3583     1  0.0000000  0.0000000  2
   1945   3579   3581   3584     1  0.0000000  0.0000000  2
   1946   1943   1941   1966     1  0.0000000  0.6508444  3
   1946   1947   3591   3592     1  180.0000771  10.4600000  2
   1947   1946   1943   1955     1  0.0000000  0.6508444  3
   1947   1946   1943   1956     1  0.0000000  0.6508444  3
   1947   3591   3593   3595     1  0.0000000  0.0000000  2
   1947   3591   3593   3596     1  0.0000000  0.0000000  2
   1948   1941   1942   1953     1  0.0000000  0.6508444  3
   1948   1941   1942   1954     1  0.0000000  0.6508444  3
   1948   1941   1943   1955     1  0.0000000  0.6508444  3
   1948   1941   1943   1956     1  0.0000000  0.6508444  3
   1948   1949   1950   1965     1  0.0000000  0.0000000  2
   1949   1948   1941   1966     1  0.0000000  0.6508444  3
   1950   1949   1948   1961     1  0.0000000  0.6508444  3
   1950   1949   1948   1962     1  0.0000000  0.6508444  3
   1951   1945   1944   1957     1  0.0000000  3.3472000  1
   1951   1945   1944   1957     1  0.0000000  0.0000000  2
   1951   1945   1944   1957     1  180.0000771  0.3347200  3
   1951   1945   1944   1958     1  0.0000000  3.3472000  1
   1951   1945   1944   1958     1  0.0000000  0.0000000  2
   1951   1945   1944   1958     1  180.0000771  0.3347200  3
   1951   1945   3579   3580     1  0.0000000  8.3680000  1
   1951   1945   3579   3580     1  180.0000771  10.4600000  2
   1952   1947   1946   1959     1  0.0000000  3.3472000  1
   1952   1947   1946   1959     1  0.0000000  0.0000000  2
   1952   1947   1946   1959     1  180.0000771  0.3347200  3
   1952   1947   1946   1960     1  0.0000000  3.3472000  1
   1952   1947   1946   1960     1  0.0000000  0.0000000  2
   1952   1947   1946   1960     1  180.0000771  0.3347200  3
   1952   1947   3591   3592     1  0.0000000  8.3680000  1
   1952   1947   3591   3592     1  180.0000771  10.4600000  2
   1953   1942   1941   1966     1  0.0000000  0.6508444  3
   1953   1942   1944   1957     1  0.0000000  0.6508444  3
   1953   1942   1944   1958     1  0.0000000  0.6508444  3
   1954   1942   1941   1966     1  0.0000000  0.6508444  3
   1954   1942   1944   1957     1  0.0000000  0.6508444  3
   1954   1942   1944   1958     1  0.0000000  0.6508444  3
   1955   1943   1941   1966     1  0.0000000  0.6508444  3
   1955   1943   1946   1959     1  0.0000000  0.6508444  3
   1955   1943   1946   1960     1  0.0000000  0.6508444  3
   1956   1943   1941   1966     1  0.0000000  0.6508444  3
   1956   1943   1946   1959     1  0.0000000  0.6508444  3
   1956   1943   1946   1960     1  0.0000000  0.6508444  3
   1957   1944   1945   3579     1  180.0000771  0.0000000  2
   1958   1944   1945   3579     1  180.0000771  0.0000000  2
   1959   1946   1947   3591     1  180.0000771  0.0000000  2
   1960   1946   1947   3591     1  180.0000771  0.0000000  2
   1961   1948   1941   1966     1  0.0000000  0.6508444  3
   1961   1948   1949   1963     1  0.0000000  0.6508444  3
   1961   1948   1949   1964     1  0.0000000  0.6508444  3
   1962   1948   1941   1966     1  0.0000000  0.6508444  3
   1962   1948   1949   1963     1  0.0000000  0.6508444  3
   1962   1948   1949   1964     1  0.0000000  0.6508444  3
   1963   1949   1950   1965     1  0.0000000  0.0000000  2
   1964   1949   1950   1965     1  0.0000000  0.0000000  2
   1967   1968   1970   1983     1  0.0000000  0.6508444  3
   1967   1968   1970   1984     1  0.0000000  0.6508444  3
   1967   1969   1972   1985     1  0.0000000  0.6508444  3
   1967   1969   1972   1986     1  0.0000000  0.6508444  3
   1967   1974   1975   1989     1  0.0000000  0.6508444  3
   1967   1974   1975   1990     1  0.0000000  0.6508444  3
   1968   1967   1969   1981     1  0.0000000  0.6508444  3
   1968   1967   1969   1982     1  0.0000000  0.6508444  3
   1968   1967   1974   1987     1  0.0000000  0.6508444  3
   1968   1967   1974   1988     1  0.0000000  0.6508444  3
   1969   1967   1968   1979     1  0.0000000  0.6508444  3
   1969   1967   1968   1980     1  0.0000000  0.6508444  3
   1969   1967   1974   1987     1  0.0000000  0.6508444  3
   1969   1967   1974   1988     1  0.0000000  0.6508444  3
   1970   1968   1967   1992     1  0.0000000  0.6508444  3
   1970   1971   3603   3604     1  180.0000771  10.4600000  2
   1971   1970   1968   1979     1  0.0000000  0.6508444  3
   1971   1970   1968   1980     1  0.0000000  0.6508444  3
   1971   3603   3605   3607     1  0.0000000  0.0000000  2
   1971   3603   3605   3608     1  0.0000000  0.0000000  2
   1972   1969   1967   1992     1  0.0000000  0.6508444  3
   1972   1973   3615   3616     1  180.0000771  10.4600000  2
   1973   1972   1969   1981     1  0.0000000  0.6508444  3
   1973   1972   1969   1982     1  0.0000000  0.6508444  3
   1973   3615   3617   3619     1  0.0000000  0.0000000  2
   1973   3615   3617   3620     1  0.0000000  0.0000000  2
   1974   1967   1968   1979     1  0.0000000  0.6508444  3
   1974   1967   1968   1980     1  0.0000000  0.6508444  3
   1974   1967   1969   1981     1  0.0000000  0.6508444  3
   1974   1967   1969   1982     1  0.0000000  0.6508444  3
   1974   1975   1976   1991     1  0.0000000  0.0000000  2
   1975   1974   1967   1992     1  0.0000000  0.6508444  3
   1976   1975   1974   1987     1  0.0000000  0.6508444  3
   1976   1975   1974   1988     1  0.0000000  0.6508444  3
   1977   1971   1970   1983     1  0.0000000  3.3472000  1
   1977   1971   1970   1983     1  0.0000000  0.0000000  2
   1977   1971   1970   1983     1  180.0000771  0.3347200  3
   1977   1971   1970   1984     1  0.0000000  3.3472000  1
   1977   1971   1970   1984     1  0.0000000  0.0000000  2
   1977   1971   1970   1984     1  180.0000771  0.3347200  3
   1977   1971   3603   3604     1  0.0000000  8.3680000  1
   1977   1971   3603   3604     1  180.0000771  10.4600000  2
   1978   1973   1972   1985     1  0.0000000  3.3472000  1
   1978   1973   1972   1985     1  0.0000000  0.0000000  2
   1978   1973   1972   1985     1  180.0000771  0.3347200  3
   1978   1973   1972   1986     1  0.0000000  3.3472000  1
   1978   1973   1972   1986     1  0.0000000  0.0000000  2
   1978   1973   1972   1986     1  180.0000771  0.3347200  3
   1978   1973   3615   3616     1  0.0000000  8.3680000  1
   1978   1973   3615   3616     1  180.0000771  10.4600000  2
   1979   1968   1967   1992     1  0.0000000  0.6508444  3
   1979   1968   1970   1983     1  0.0000000  0.6508444  3
   1979   1968   1970   1984     1  0.0000000  0.6508444  3
   1980   1968   1967   1992     1  0.0000000  0.6508444  3
   1980   1968   1970   1983     1  0.0000000  0.6508444  3
   1980   1968   1970   1984     1  0.0000000  0.6508444  3
   1981   1969   1967   1992     1  0.0000000  0.6508444  3
   1981   1969   1972   1985     1  0.0000000  0.6508444  3
   1981   1969   1972   1986     1  0.0000000  0.6508444  3
   1982   1969   1967   1992     1  0.0000000  0.6508444  3
   1982   1969   1972   1985     1  0.0000000  0.6508444  3
   1982   1969   1972   1986     1  0.0000000  0.6508444  3
   1983   1970   1971   3603     1  180.0000771  0.0000000  2
   1984   1970   1971   3603     1  180.0000771  0.0000000  2
   1985   1972   1973   3615     1  180.0000771  0.0000000  2
   1986   1972   1973   3615     1  180.0000771  0.0000000  2
   1987   1974   1967   1992     1  0.0000000  0.6508444  3
   1987   1974   1975   1989     1  0.0000000  0.6508444  3
   1987   1974   1975   1990     1  0.0000000  0.6508444  3
   1988   1974   1967   1992     1  0.0000000  0.6508444  3
   1988   1974   1975   1989     1  0.0000000  0.6508444  3
   1988   1974   1975   1990     1  0.0000000  0.6508444  3
   1989   1975   1976   1991     1  0.0000000  0.0000000  2
   1990   1975   1976   1991     1  0.0000000  0.0000000  2
   1993   1994   1996   2009     1  0.0000000  0.6508444  3
   1993   1994   1996   2010     1  0.0000000  0.6508444  3
   1993   1995   1998   2011     1  0.0000000  0.6508444  3
   1993   1995   1998   2012     1  0.0000000  0.6508444  3
   1993   2000   2001   2015     1  0.0000000  0.6508444  3
   1993   2000   2001   2016     1  0.0000000  0.6508444  3
   1994   1993   1995   2007     1  0.0000000  0.6508444  3
   1994   1993   1995   2008     1  0.0000000  0.6508444  3
   1994   1993   2000   2013     1  0.0000000  0.6508444  3
   1994   1993   2000   2014     1  0.0000000  0.6508444  3
   1995   1993   1994   2005     1  0.0000000  0.6508444  3
   1995   1993   1994   2006     1  0.0000000  0.6508444  3
   1995   1993   2000   2013     1  0.0000000  0.6508444  3
   1995   1993   2000   2014     1  0.0000000  0.6508444  3
   1996   1994   1993   2018     1  0.0000000  0.6508444  3
   1996   1997   3627   3628     1  180.0000771  10.4600000  2
   1997   1996   1994   2005     1  0.0000000  0.6508444  3
   1997   1996   1994   2006     1  0.0000000  0.6508444  3
   1997   3627   3629   3631     1  0.0000000  0.0000000  2
   1997   3627   3629   3632     1  0.0000000  0.0000000  2
   1998   1995   1993   2018     1  0.0000000  0.6508444  3
   1998   1999   3639   3640     1  180.0000771  10.4600000  2
   1999   1998   1995   2007     1  0.0000000  0.6508444  3
   1999   1998   1995   2008     1  0.0000000  0.6508444  3
   1999   3639   3641   3643     1  0.0000000  0.0000000  2
   1999   3639   3641   3644     1  0.0000000  0.0000000  2
   2000   1993   1994   2005     1  0.0000000  0.6508444  3
   2000   1993   1994   2006     1  0.0000000  0.6508444  3
   2000   1993   1995   2007     1  0.0000000  0.6508444  3
   2000   1993   1995   2008     1  0.0000000  0.6508444  3
   2000   2001   2002   2017     1  0.0000000  0.0000000  2
   2001   2000   1993   2018     1  0.0000000  0.6508444  3
   2002   2001   2000   2013     1  0.0000000  0.6508444  3
   2002   2001   2000   2014     1  0.0000000  0.6508444  3
   2003   1997   1996   2009     1  0.0000000  3.3472000  1
   2003   1997   1996   2009     1  0.0000000  0.0000000  2
   2003   1997   1996   2009     1  180.0000771  0.3347200  3
   2003   1997   1996   2010     1  0.0000000  3.3472000  1
   2003   1997   1996   2010     1  0.0000000  0.0000000  2
   2003   1997   1996   2010     1  180.0000771  0.3347200  3
   2003   1997   3627   3628     1  0.0000000  8.3680000  1
   2003   1997   3627   3628     1  180.0000771  10.4600000  2
   2004   1999   1998   2011     1  0.0000000  3.3472000  1
   2004   1999   1998   2011     1  0.0000000  0.0000000  2
   2004   1999   1998   2011     1  180.0000771  0.3347200  3
   2004   1999   1998   2012     1  0.0000000  3.3472000  1
   2004   1999   1998   2012     1  0.0000000  0.0000000  2
   2004   1999   1998   2012     1  180.0000771  0.3347200  3
   2004   1999   3639   3640     1  0.0000000  8.3680000  1
   2004   1999   3639   3640     1  180.0000771  10.4600000  2
   2005   1994   1993   2018     1  0.0000000  0.6508444  3
   2005   1994   1996   2009     1  0.0000000  0.6508444  3
   2005   1994   1996   2010     1  0.0000000  0.6508444  3
   2006   1994   1993   2018     1  0.0000000  0.6508444  3
   2006   1994   1996   2009     1  0.0000000  0.6508444  3
   2006   1994   1996   2010     1  0.0000000  0.6508444  3
   2007   1995   1993   2018     1  0.0000000  0.6508444  3
   2007   1995   1998   2011     1  0.0000000  0.6508444  3
   2007   1995   1998   2012     1  0.0000000  0.6508444  3
   2008   1995   1993   2018     1  0.0000000  0.6508444  3
   2008   1995   1998   2011     1  0.0000000  0.6508444  3
   2008   1995   1998   2012     1  0.0000000  0.6508444  3
   2009   1996   1997   3627     1  180.0000771  0.0000000  2
   2010   1996   1997   3627     1  180.0000771  0.0000000  2
   2011   1998   1999   3639     1  180.0000771  0.0000000  2
   2012   1998   1999   3639     1  180.0000771  0.0000000  2
   2013   2000   1993   2018     1  0.0000000  0.6508444  3
   2013   2000   2001   2015     1  0.0000000  0.6508444  3
   2013   2000   2001   2016     1  0.0000000  0.6508444  3
   2014   2000   1993   2018     1  0.0000000  0.6508444  3
   2014   2000   2001   2015     1  0.0000000  0.6508444  3
   2014   2000   2001   2016     1  0.0000000  0.6508444  3
   2015   2001   2002   2017     1  0.0000000  0.0000000  2
   2016   2001   2002   2017     1  0.0000000  0.0000000  2
   2019   2020   2022   2035     1  0.0000000  0.6508444  3
   2019   2020   2022   2036     1  0.0000000  0.6508444  3
   2019   2021   2024   2037     1  0.0000000  0.6508444  3
   2019   2021   2024   2038     1  0.0000000  0.6508444  3
   2019   2026   2027   2041     1  0.0000000  0.6508444  3
   2019   2026   2027   2042     1  0.0000000  0.6508444  3
   2020   2019   2021   2033     1  0.0000000  0.6508444  3
   2020   2019   2021   2034     1  0.0000000  0.6508444  3
   2020   2019   2026   2039     1  0.0000000  0.6508444  3
   2020   2019   2026   2040     1  0.0000000  0.6508444  3
   2021   2019   2020   2031     1  0.0000000  0.6508444  3
   2021   2019   2020   2032     1  0.0000000  0.6508444  3
   2021   2019   2026   2039     1  0.0000000  0.6508444  3
   2021   2019   2026   2040     1  0.0000000  0.6508444  3
   2022   2020   2019   2044     1  0.0000000  0.6508444  3
   2022   2023   3651   3652     1  180.0000771  10.4600000  2
   2023   2022   2020   2031     1  0.0000000  0.6508444  3
   2023   2022   2020   2032     1  0.0000000  0.6508444  3
   2023   3651   3653   3655     1  0.0000000  0.0000000  2
   2023   3651   3653   3656     1  0.0000000  0.0000000  2
   2024   2021   2019   2044     1  0.0000000  0.6508444  3
   2024   2025   3663   3664     1  180.0000771  10.4600000  2
   2025   2024   2021   2033     1  0.0000000  0.6508444  3
   2025   2024   2021   2034     1  0.0000000  0.6508444  3
   2025   3663   3665   3667     1  0.0000000  0.0000000  2
   2025   3663   3665   3668     1  0.0000000  0.0000000  2
   2026   2019   2020   2031     1  0.0000000  0.6508444  3
   2026   2019   2020   2032     1  0.0000000  0.6508444  3
   2026   2019   2021   2033     1  0.0000000  0.6508444  3
   2026   2019   2021   2034     1  0.0000000  0.6508444  3
   2026   2027   2028   2043     1  0.0000000  0.0000000  2
   2027   2026   2019   2044     1  0.0000000  0.6508444  3
   2028   2027   2026   2039     1  0.0000000  0.6508444  3
   2028   2027   2026   2040     1  0.0000000  0.6508444  3
   2029   2023   2022   2035     1  0.0000000  3.3472000  1
   2029   2023   2022   2035     1  0.0000000  0.0000000  2
   2029   2023   2022   2035     1  180.0000771  0.3347200  3
   2029   2023   2022   2036     1  0.0000000  3.3472000  1
   2029   2023   2022   2036     1  0.0000000  0.0000000  2
   2029   2023   2022   2036     1  180.0000771  0.3347200  3
   2029   2023   3651   3652     1  0.0000000  8.3680000  1
   2029   2023   3651   3652     1  180.0000771  10.4600000  2
   2030   2025   2024   2037     1  0.0000000  3.3472000  1
   2030   2025   2024   2037     1  0.0000000  0.0000000  2
   2030   2025   2024   2037     1  180.0000771  0.3347200  3
   2030   2025   2024   2038     1  0.0000000  3.3472000  1
   2030   2025   2024   2038     1  0.0000000  0.0000000  2
   2030   2025   2024   2038     1  180.0000771  0.3347200  3
   2030   2025   3663   3664     1  0.0000000  8.3680000  1
   2030   2025   3663   3664     1  180.0000771  10.4600000  2
   2031   2020   2019   2044     1  0.0000000  0.6508444  3
   2031   2020   2022   2035     1  0.0000000  0.6508444  3
   2031   2020   2022   2036     1  0.0000000  0.6508444  3
   2032   2020   2019   2044     1  0.0000000  0.6508444  3
   2032   2020   2022   2035     1  0.0000000  0.6508444  3
   2032   2020   2022   2036     1  0.0000000  0.6508444  3
   2033   2021   2019   2044     1  0.0000000  0.6508444  3
   2033   2021   2024   2037     1  0.0000000  0.6508444  3
   2033   2021   2024   2038     1  0.0000000  0.6508444  3
   2034   2021   2019   2044     1  0.0000000  0.6508444  3
   2034   2021   2024   2037     1  0.0000000  0.6508444  3
   2034   2021   2024   2038     1  0.0000000  0.6508444  3
   2035   2022   2023   3651     1  180.0000771  0.0000000  2
   2036   2022   2023   3651     1  180.0000771  0.0000000  2
   2037   2024   2025   3663     1  180.0000771  0.0000000  2
   2038   2024   2025   3663     1  180.0000771  0.0000000  2
   2039   2026   2019   2044     1  0.0000000  0.6508444  3
   2039   2026   2027   2041     1  0.0000000  0.6508444  3
   2039   2026   2027   2042     1  0.0000000  0.6508444  3
   2040   2026   2019   2044     1  0.0000000  0.6508444  3
   2040   2026   2027   2041     1  0.0000000  0.6508444  3
   2040   2026   2027   2042     1  0.0000000  0.6508444  3
   2041   2027   2028   2043     1  0.0000000  0.0000000  2
   2042   2027   2028   2043     1  0.0000000  0.0000000  2
   2045   2046   2048   2061     1  0.0000000  0.6508444  3
   2045   2046   2048   2062     1  0.0000000  0.6508444  3
   2045   2047   2050   2063     1  0.0000000  0.6508444  3
   2045   2047   2050   2064     1  0.0000000  0.6508444  3
   2045   2052   2053   2067     1  0.0000000  0.6508444  3
   2045   2052   2053   2068     1  0.0000000  0.6508444  3
   2046   2045   2047   2059     1  0.0000000  0.6508444  3
   2046   2045   2047   2060     1  0.0000000  0.6508444  3
   2046   2045   2052   2065     1  0.0000000  0.6508444  3
   2046   2045   2052   2066     1  0.0000000  0.6508444  3
   2047   2045   2046   2057     1  0.0000000  0.6508444  3
   2047   2045   2046   2058     1  0.0000000  0.6508444  3
   2047   2045   2052   2065     1  0.0000000  0.6508444  3
   2047   2045   2052   2066     1  0.0000000  0.6508444  3
   2048   2046   2045   2070     1  0.0000000  0.6508444  3
   2048   2049   3675   3676     1  180.0000771  10.4600000  2
   2049   2048   2046   2057     1  0.0000000  0.6508444  3
   2049   2048   2046   2058     1  0.0000000  0.6508444  3
   2049   3675   3677   3679     1  0.0000000  0.0000000  2
   2049   3675   3677   3680     1  0.0000000  0.0000000  2
   2050   2047   2045   2070     1  0.0000000  0.6508444  3
   2050   2051   3687   3688     1  180.0000771  10.4600000  2
   2051   2050   2047   2059     1  0.0000000  0.6508444  3
   2051   2050   2047   2060     1  0.0000000  0.6508444  3
   2051   3687   3689   3691     1  0.0000000  0.0000000  2
   2051   3687   3689   3692     1  0.0000000  0.0000000  2
   2052   2045   2046   2057     1  0.0000000  0.6508444  3
   2052   2045   2046   2058     1  0.0000000  0.6508444  3
   2052   2045   2047   2059     1  0.0000000  0.6508444  3
   2052   2045   2047   2060     1  0.0000000  0.6508444  3
   2052   2053   2054   2069     1  0.0000000  0.0000000  2
   2053   2052   2045   2070     1  0.0000000  0.6508444  3
   2054   2053   2052   2065     1  0.0000000  0.6508444  3
   2054   2053   2052   2066     1  0.0000000  0.6508444  3
   2055   2049   2048   2061     1  0.0000000  3.3472000  1
   2055   2049   2048   2061     1  0.0000000  0.0000000  2
   2055   2049   2048   2061     1  180.0000771  0.3347200  3
   2055   2049   2048   2062     1  0.0000000  3.3472000  1
   2055   2049   2048   2062     1  0.0000000  0.0000000  2
   2055   2049   2048   2062     1  180.0000771  0.3347200  3
   2055   2049   3675   3676     1  0.0000000  8.3680000  1
   2055   2049   3675   3676     1  180.0000771  10.4600000  2
   2056   2051   2050   2063     1  0.0000000  3.3472000  1
   2056   2051   2050   2063     1  0.0000000  0.0000000  2
   2056   2051   2050   2063     1  180.0000771  0.3347200  3
   2056   2051   2050   2064     1  0.0000000  3.3472000  1
   2056   2051   2050   2064     1  0.0000000  0.0000000  2
   2056   2051   2050   2064     1  180.0000771  0.3347200  3
   2056   2051   3687   3688     1  0.0000000  8.3680000  1
   2056   2051   3687   3688     1  180.0000771  10.4600000  2
   2057   2046   2045   2070     1  0.0000000  0.6508444  3
   2057   2046   2048   2061     1  0.0000000  0.6508444  3
   2057   2046   2048   2062     1  0.0000000  0.6508444  3
   2058   2046   2045   2070     1  0.0000000  0.6508444  3
   2058   2046   2048   2061     1  0.0000000  0.6508444  3
   2058   2046   2048   2062     1  0.0000000  0.6508444  3
   2059   2047   2045   2070     1  0.0000000  0.6508444  3
   2059   2047   2050   2063     1  0.0000000  0.6508444  3
   2059   2047   2050   2064     1  0.0000000  0.6508444  3
   2060   2047   2045   2070     1  0.0000000  0.6508444  3
   2060   2047   2050   2063     1  0.0000000  0.6508444  3
   2060   2047   2050   2064     1  0.0000000  0.6508444  3
   2061   2048   2049   3675     1  180.0000771  0.0000000  2
   2062   2048   2049   3675     1  180.0000771  0.0000000  2
   2063   2050   2051   3687     1  180.0000771  0.0000000  2
   2064   2050   2051   3687     1  180.0000771  0.0000000  2
   2065   2052   2045   2070     1  0.0000000  0.6508444  3
   2065   2052   2053   2067     1  0.0000000  0.6508444  3
   2065   2052   2053   2068     1  0.0000000  0.6508444  3
   2066   2052   2045   2070     1  0.0000000  0.6508444  3
   2066   2052   2053   2067     1  0.0000000  0.6508444  3
   2066   2052   2053   2068     1  0.0000000  0.6508444  3
   2067   2053   2054   2069     1  0.0000000  0.0000000  2
   2068   2053   2054   2069     1  0.0000000  0.0000000  2
   2071   2072   2074   2087     1  0.0000000  0.6508444  3
   2071   2072   2074   2088     1  0.0000000  0.6508444  3
   2071   2073   2076   2089     1  0.0000000  0.6508444  3
   2071   2073   2076   2090     1  0.0000000  0.6508444  3
   2071   2078   2079   2093     1  0.0000000  0.6508444  3
   2071   2078   2079   2094     1  0.0000000  0.6508444  3
   2072   2071   2073   2085     1  0.0000000  0.6508444  3
   2072   2071   2073   2086     1  0.0000000  0.6508444  3
   2072   2071   2078   2091     1  0.0000000  0.6508444  3
   2072   2071   2078   2092     1  0.0000000  0.6508444  3
   2073   2071   2072   2083     1  0.0000000  0.6508444  3
   2073   2071   2072   2084     1  0.0000000  0.6508444  3
   2073   2071   2078   2091     1  0.0000000  0.6508444  3
   2073   2071   2078   2092     1  0.0000000  0.6508444  3
   2074   2072   2071   2096     1  0.0000000  0.6508444  3
   2074   2075   3699   3700     1  180.0000771  10.4600000  2
   2075   2074   2072   2083     1  0.0000000  0.6508444  3
   2075   2074   2072   2084     1  0.0000000  0.6508444  3
   2075   3699   3701   3703     1  0.0000000  0.0000000  2
   2075   3699   3701   3704     1  0.0000000  0.0000000  2
   2076   2073   2071   2096     1  0.0000000  0.6508444  3
   2076   2077   3711   3712     1  180.0000771  10.4600000  2
   2077   2076   2073   2085     1  0.0000000  0.6508444  3
   2077   2076   2073   2086     1  0.0000000  0.6508444  3
   2077   3711   3713   3715     1  0.0000000  0.0000000  2
   2077   3711   3713   3716     1  0.0000000  0.0000000  2
   2078   2071   2072   2083     1  0.0000000  0.6508444  3
   2078   2071   2072   2084     1  0.0000000  0.6508444  3
   2078   2071   2073   2085     1  0.0000000  0.6508444  3
   2078   2071   2073   2086     1  0.0000000  0.6508444  3
   2078   2079   2080   2095     1  0.0000000  0.0000000  2
   2079   2078   2071   2096     1  0.0000000  0.6508444  3
   2080   2079   2078   2091     1  0.0000000  0.6508444  3
   2080   2079   2078   2092     1  0.0000000  0.6508444  3
   2081   2075   2074   2087     1  0.0000000  3.3472000  1
   2081   2075   2074   2087     1  0.0000000  0.0000000  2
   2081   2075   2074   2087     1  180.0000771  0.3347200  3
   2081   2075   2074   2088     1  0.0000000  3.3472000  1
   2081   2075   2074   2088     1  0.0000000  0.0000000  2
   2081   2075   2074   2088     1  180.0000771  0.3347200  3
   2081   2075   3699   3700     1  0.0000000  8.3680000  1
   2081   2075   3699   3700     1  180.0000771  10.4600000  2
   2082   2077   2076   2089     1  0.0000000  3.3472000  1
   2082   2077   2076   2089     1  0.0000000  0.0000000  2
   2082   2077   2076   2089     1  180.0000771  0.3347200  3
   2082   2077   2076   2090     1  0.0000000  3.3472000  1
   2082   2077   2076   2090     1  0.0000000  0.0000000  2
   2082   2077   2076   2090     1  180.0000771  0.3347200  3
   2082   2077   3711   3712     1  0.0000000  8.3680000  1
   2082   2077   3711   3712     1  180.0000771  10.4600000  2
   2083   2072   2071   2096     1  0.0000000  0.6508444  3
   2083   2072   2074   2087     1  0.0000000  0.6508444  3
   2083   2072   2074   2088     1  0.0000000  0.6508444  3
   2084   2072   2071   2096     1  0.0000000  0.6508444  3
   2084   2072   2074   2087     1  0.0000000  0.6508444  3
   2084   2072   2074   2088     1  0.0000000  0.6508444  3
   2085   2073   2071   2096     1  0.0000000  0.6508444  3
   2085   2073   2076   2089     1  0.0000000  0.6508444  3
   2085   2073   2076   2090     1  0.0000000  0.6508444  3
   2086   2073   2071   2096     1  0.0000000  0.6508444  3
   2086   2073   2076   2089     1  0.0000000  0.6508444  3
   2086   2073   2076   2090     1  0.0000000  0.6508444  3
   2087   2074   2075   3699     1  180.0000771  0.0000000  2
   2088   2074   2075   3699     1  180.0000771  0.0000000  2
   2089   2076   2077   3711     1  180.0000771  0.0000000  2
   2090   2076   2077   3711     1  180.0000771  0.0000000  2
   2091   2078   2071   2096     1  0.0000000  0.6508444  3
   2091   2078   2079   2093     1  0.0000000  0.6508444  3
   2091   2078   2079   2094     1  0.0000000  0.6508444  3
   2092   2078   2071   2096     1  0.0000000  0.6508444  3
   2092   2078   2079   2093     1  0.0000000  0.6508444  3
   2092   2078   2079   2094     1  0.0000000  0.6508444  3
   2093   2079   2080   2095     1  0.0000000  0.0000000  2
   2094   2079   2080   2095     1  0.0000000  0.0000000  2
   2097   2098   2100   2113     1  0.0000000  0.6508444  3
   2097   2098   2100   2114     1  0.0000000  0.6508444  3
   2097   2099   2102   2115     1  0.0000000  0.6508444  3
   2097   2099   2102   2116     1  0.0000000  0.6508444  3
   2097   2104   2105   2119     1  0.0000000  0.6508444  3
   2097   2104   2105   2120     1  0.0000000  0.6508444  3
   2098   2097   2099   2111     1  0.0000000  0.6508444  3
   2098   2097   2099   2112     1  0.0000000  0.6508444  3
   2098   2097   2104   2117     1  0.0000000  0.6508444  3
   2098   2097   2104   2118     1  0.0000000  0.6508444  3
   2099   2097   2098   2109     1  0.0000000  0.6508444  3
   2099   2097   2098   2110     1  0.0000000  0.6508444  3
   2099   2097   2104   2117     1  0.0000000  0.6508444  3
   2099   2097   2104   2118     1  0.0000000  0.6508444  3
   2100   2098   2097   2122     1  0.0000000  0.6508444  3
   2100   2101   3723   3724     1  180.0000771  10.4600000  2
   2101   2100   2098   2109     1  0.0000000  0.6508444  3
   2101   2100   2098   2110     1  0.0000000  0.6508444  3
   2101   3723   3725   3727     1  0.0000000  0.0000000  2
   2101   3723   3725   3728     1  0.0000000  0.0000000  2
   2102   2099   2097   2122     1  0.0000000  0.6508444  3
   2102   2103   3735   3736     1  180.0000771  10.4600000  2
   2103   2102   2099   2111     1  0.0000000  0.6508444  3
   2103   2102   2099   2112     1  0.0000000  0.6508444  3
   2103   3735   3737   3739     1  0.0000000  0.0000000  2
   2103   3735   3737   3740     1  0.0000000  0.0000000  2
   2104   2097   2098   2109     1  0.0000000  0.6508444  3
   2104   2097   2098   2110     1  0.0000000  0.6508444  3
   2104   2097   2099   2111     1  0.0000000  0.6508444  3
   2104   2097   2099   2112     1  0.0000000  0.6508444  3
   2104   2105   2106   2121     1  0.0000000  0.0000000  2
   2105   2104   2097   2122     1  0.0000000  0.6508444  3
   2106   2105   2104   2117     1  0.0000000  0.6508444  3
   2106   2105   2104   2118     1  0.0000000  0.6508444  3
   2107   2101   2100   2113     1  0.0000000  3.3472000  1
   2107   2101   2100   2113     1  0.0000000  0.0000000  2
   2107   2101   2100   2113     1  180.0000771  0.3347200  3
   2107   2101   2100   2114     1  0.0000000  3.3472000  1
   2107   2101   2100   2114     1  0.0000000  0.0000000  2
   2107   2101   2100   2114     1  180.0000771  0.3347200  3
   2107   2101   3723   3724     1  0.0000000  8.3680000  1
   2107   2101   3723   3724     1  180.0000771  10.4600000  2
   2108   2103   2102   2115     1  0.0000000  3.3472000  1
   2108   2103   2102   2115     1  0.0000000  0.0000000  2
   2108   2103   2102   2115     1  180.0000771  0.3347200  3
   2108   2103   2102   2116     1  0.0000000  3.3472000  1
   2108   2103   2102   2116     1  0.0000000  0.0000000  2
   2108   2103   2102   2116     1  180.0000771  0.3347200  3
   2108   2103   3735   3736     1  0.0000000  8.3680000  1
   2108   2103   3735   3736     1  180.0000771  10.4600000  2
   2109   2098   2097   2122     1  0.0000000  0.6508444  3
   2109   2098   2100   2113     1  0.0000000  0.6508444  3
   2109   2098   2100   2114     1  0.0000000  0.6508444  3
   2110   2098   2097   2122     1  0.0000000  0.6508444  3
   2110   2098   2100   2113     1  0.0000000  0.6508444  3
   2110   2098   2100   2114     1  0.0000000  0.6508444  3
   2111   2099   2097   2122     1  0.0000000  0.6508444  3
   2111   2099   2102   2115     1  0.0000000  0.6508444  3
   2111   2099   2102   2116     1  0.0000000  0.6508444  3
   2112   2099   2097   2122     1  0.0000000  0.6508444  3
   2112   2099   2102   2115     1  0.0000000  0.6508444  3
   2112   2099   2102   2116     1  0.0000000  0.6508444  3
   2113   2100   2101   3723     1  180.0000771  0.0000000  2
   2114   2100   2101   3723     1  180.0000771  0.0000000  2
   2115   2102   2103   3735     1  180.0000771  0.0000000  2
   2116   2102   2103   3735     1  180.0000771  0.0000000  2
   2117   2104   2097   2122     1  0.0000000  0.6508444  3
   2117   2104   2105   2119     1  0.0000000  0.6508444  3
   2117   2104   2105   2120     1  0.0000000  0.6508444  3
   2118   2104   2097   2122     1  0.0000000  0.6508444  3
   2118   2104   2105   2119     1  0.0000000  0.6508444  3
   2118   2104   2105   2120     1  0.0000000  0.6508444  3
   2119   2105   2106   2121     1  0.0000000  0.0000000  2
   2120   2105   2106   2121     1  0.0000000  0.0000000  2
   2123   2124   2126   2139     1  0.0000000  0.6508444  3
   2123   2124   2126   2140     1  0.0000000  0.6508444  3
   2123   2125   2128   2141     1  0.0000000  0.6508444  3
   2123   2125   2128   2142     1  0.0000000  0.6508444  3
   2123   2130   2131   2145     1  0.0000000  0.6508444  3
   2123   2130   2131   2146     1  0.0000000  0.6508444  3
   2124   2123   2125   2137     1  0.0000000  0.6508444  3
   2124   2123   2125   2138     1  0.0000000  0.6508444  3
   2124   2123   2130   2143     1  0.0000000  0.6508444  3
   2124   2123   2130   2144     1  0.0000000  0.6508444  3
   2125   2123   2124   2135     1  0.0000000  0.6508444  3
   2125   2123   2124   2136     1  0.0000000  0.6508444  3
   2125   2123   2130   2143     1  0.0000000  0.6508444  3
   2125   2123   2130   2144     1  0.0000000  0.6508444  3
   2126   2124   2123   2148     1  0.0000000  0.6508444  3
   2126   2127   3747   3748     1  180.0000771  10.4600000  2
   2127   2126   2124   2135     1  0.0000000  0.6508444  3
   2127   2126   2124   2136     1  0.0000000  0.6508444  3
   2127   3747   3749   3751     1  0.0000000  0.0000000  2
   2127   3747   3749   3752     1  0.0000000  0.0000000  2
   2128   2125   2123   2148     1  0.0000000  0.6508444  3
   2128   2129   3759   3760     1  180.0000771  10.4600000  2
   2129   2128   2125   2137     1  0.0000000  0.6508444  3
   2129   2128   2125   2138     1  0.0000000  0.6508444  3
   2129   3759   3761   3763     1  0.0000000  0.0000000  2
   2129   3759   3761   3764     1  0.0000000  0.0000000  2
   2130   2123   2124   2135     1  0.0000000  0.6508444  3
   2130   2123   2124   2136     1  0.0000000  0.6508444  3
   2130   2123   2125   2137     1  0.0000000  0.6508444  3
   2130   2123   2125   2138     1  0.0000000  0.6508444  3
   2130   2131   2132   2147     1  0.0000000  0.0000000  2
   2131   2130   2123   2148     1  0.0000000  0.6508444  3
   2132   2131   2130   2143     1  0.0000000  0.6508444  3
   2132   2131   2130   2144     1  0.0000000  0.6508444  3
   2133   2127   2126   2139     1  0.0000000  3.3472000  1
   2133   2127   2126   2139     1  0.0000000  0.0000000  2
   2133   2127   2126   2139     1  180.0000771  0.3347200  3
   2133   2127   2126   2140     1  0.0000000  3.3472000  1
   2133   2127   2126   2140     1  0.0000000  0.0000000  2
   2133   2127   2126   2140     1  180.0000771  0.3347200  3
   2133   2127   3747   3748     1  0.0000000  8.3680000  1
   2133   2127   3747   3748     1  180.0000771  10.4600000  2
   2134   2129   2128   2141     1  0.0000000  3.3472000  1
   2134   2129   2128   2141     1  0.0000000  0.0000000  2
   2134   2129   2128   2141     1  180.0000771  0.3347200  3
   2134   2129   2128   2142     1  0.0000000  3.3472000  1
   2134   2129   2128   2142     1  0.0000000  0.0000000  2
   2134   2129   2128   2142     1  180.0000771  0.3347200  3
   2134   2129   3759   3760     1  0.0000000  8.3680000  1
   2134   2129   3759   3760     1  180.0000771  10.4600000  2
   2135   2124   2123   2148     1  0.0000000  0.6508444  3
   2135   2124   2126   2139     1  0.0000000  0.6508444  3
   2135   2124   2126   2140     1  0.0000000  0.6508444  3
   2136   2124   2123   2148     1  0.0000000  0.6508444  3
   2136   2124   2126   2139     1  0.0000000  0.6508444  3
   2136   2124   2126   2140     1  0.0000000  0.6508444  3
   2137   2125   2123   2148     1  0.0000000  0.6508444  3
   2137   2125   2128   2141     1  0.0000000  0.6508444  3
   2137   2125   2128   2142     1  0.0000000  0.6508444  3
   2138   2125   2123   2148     1  0.0000000  0.6508444  3
   2138   2125   2128   2141     1  0.0000000  0.6508444  3
   2138   2125   2128   2142     1  0.0000000  0.6508444  3
   2139   2126   2127   3747     1  180.0000771  0.0000000  2
   2140   2126   2127   3747     1  180.0000771  0.0000000  2
   2141   2128   2129   3759     1  180.0000771  0.0000000  2
   2142   2128   2129   3759     1  180.0000771  0.0000000  2
   2143   2130   2123   2148     1  0.0000000  0.6508444  3
   2143   2130   2131   2145     1  0.0000000  0.6508444  3
   2143   2130   2131   2146     1  0.0000000  0.6508444  3
   2144   2130   2123   2148     1  0.0000000  0.6508444  3
   2144   2130   2131   2145     1  0.0000000  0.6508444  3
   2144   2130   2131   2146     1  0.0000000  0.6508444  3
   2145   2131   2132   2147     1  0.0000000  0.0000000  2
   2146   2131   2132   2147     1  0.0000000  0.0000000  2
   2149   2150   2152   2165     1  0.0000000  0.6508444  3
   2149   2150   2152   2166     1  0.0000000  0.6508444  3
   2149   2151   2154   2167     1  0.0000000  0.6508444  3
   2149   2151   2154   2168     1  0.0000000  0.6508444  3
   2149   2156   2157   2171     1  0.0000000  0.6508444  3
   2149   2156   2157   2172     1  0.0000000  0.6508444  3
   2150   2149   2151   2163     1  0.0000000  0.6508444  3
   2150   2149   2151   2164     1  0.0000000  0.6508444  3
   2150   2149   2156   2169     1  0.0000000  0.6508444  3
   2150   2149   2156   2170     1  0.0000000  0.6508444  3
   2151   2149   2150   2161     1  0.0000000  0.6508444  3
   2151   2149   2150   2162     1  0.0000000  0.6508444  3
   2151   2149   2156   2169     1  0.0000000  0.6508444  3
   2151   2149   2156   2170     1  0.0000000  0.6508444  3
   2152   2150   2149   2174     1  0.0000000  0.6508444  3
   2152   2153   3771   3772     1  180.0000771  10.4600000  2
   2153   2152   2150   2161     1  0.0000000  0.6508444  3
   2153   2152   2150   2162     1  0.0000000  0.6508444  3
   2153   3771   3773   3775     1  0.0000000  0.0000000  2
   2153   3771   3773   3776     1  0.0000000  0.0000000  2
   2154   2151   2149   2174     1  0.0000000  0.6508444  3
   2154   2155   3783   3784     1  180.0000771  10.4600000  2
   2155   2154   2151   2163     1  0.0000000  0.6508444  3
   2155   2154   2151   2164     1  0.0000000  0.6508444  3
   2155   3783   3785   3787     1  0.0000000  0.0000000  2
   2155   3783   3785   3788     1  0.0000000  0.0000000  2
   2156   2149   2150   2161     1  0.0000000  0.6508444  3
   2156   2149   2150   2162     1  0.0000000  0.6508444  3
   2156   2149   2151   2163     1  0.0000000  0.6508444  3
   2156   2149   2151   2164     1  0.0000000  0.6508444  3
   2156   2157   2158   2173     1  0.0000000  0.0000000  2
   2157   2156   2149   2174     1  0.0000000  0.6508444  3
   2158   2157   2156   2169     1  0.0000000  0.6508444  3
   2158   2157   2156   2170     1  0.0000000  0.6508444  3
   2159   2153   2152   2165     1  0.0000000  3.3472000  1
   2159   2153   2152   2165     1  0.0000000  0.0000000  2
   2159   2153   2152   2165     1  180.0000771  0.3347200  3
   2159   2153   2152   2166     1  0.0000000  3.3472000  1
   2159   2153   2152   2166     1  0.0000000  0.0000000  2
   2159   2153   2152   2166     1  180.0000771  0.3347200  3
   2159   2153   3771   3772     1  0.0000000  8.3680000  1
   2159   2153   3771   3772     1  180.0000771  10.4600000  2
   2160   2155   2154   2167     1  0.0000000  3.3472000  1
   2160   2155   2154   2167     1  0.0000000  0.0000000  2
   2160   2155   2154   2167     1  180.0000771  0.3347200  3
   2160   2155   2154   2168     1  0.0000000  3.3472000  1
   2160   2155   2154   2168     1  0.0000000  0.0000000  2
   2160   2155   2154   2168     1  180.0000771  0.3347200  3
   2160   2155   3783   3784     1  0.0000000  8.3680000  1
   2160   2155   3783   3784     1  180.0000771  10.4600000  2
   2161   2150   2149   2174     1  0.0000000  0.6508444  3
   2161   2150   2152   2165     1  0.0000000  0.6508444  3
   2161   2150   2152   2166     1  0.0000000  0.6508444  3
   2162   2150   2149   2174     1  0.0000000  0.6508444  3
   2162   2150   2152   2165     1  0.0000000  0.6508444  3
   2162   2150   2152   2166     1  0.0000000  0.6508444  3
   2163   2151   2149   2174     1  0.0000000  0.6508444  3
   2163   2151   2154   2167     1  0.0000000  0.6508444  3
   2163   2151   2154   2168     1  0.0000000  0.6508444  3
   2164   2151   2149   2174     1  0.0000000  0.6508444  3
   2164   2151   2154   2167     1  0.0000000  0.6508444  3
   2164   2151   2154   2168     1  0.0000000  0.6508444  3
   2165   2152   2153   3771     1  180.0000771  0.0000000  2
   2166   2152   2153   3771     1  180.0000771  0.0000000  2
   2167   2154   2155   3783     1  180.0000771  0.0000000  2
   2168   2154   2155   3783     1  180.0000771  0.0000000  2
   2169   2156   2149   2174     1  0.0000000  0.6508444  3
   2169   2156   2157   2171     1  0.0000000  0.6508444  3
   2169   2156   2157   2172     1  0.0000000  0.6508444  3
   2170   2156   2149   2174     1  0.0000000  0.6508444  3
   2170   2156   2157   2171     1  0.0000000  0.6508444  3
   2170   2156   2157   2172     1  0.0000000  0.6508444  3
   2171   2157   2158   2173     1  0.0000000  0.0000000  2
   2172   2157   2158   2173     1  0.0000000  0.0000000  2
   2175   2176   2178   2191     1  0.0000000  0.6508444  3
   2175   2176   2178   2192     1  0.0000000  0.6508444  3
   2175   2177   2180   2193     1  0.0000000  0.6508444  3
   2175   2177   2180   2194     1  0.0000000  0.6508444  3
   2175   2182   2183   2197     1  0.0000000  0.6508444  3
   2175   2182   2183   2198     1  0.0000000  0.6508444  3
   2176   2175   2177   2189     1  0.0000000  0.6508444  3
   2176   2175   2177   2190     1  0.0000000  0.6508444  3
   2176   2175   2182   2195     1  0.0000000  0.6508444  3
   2176   2175   2182   2196     1  0.0000000  0.6508444  3
   2177   2175   2176   2187     1  0.0000000  0.6508444  3
   2177   2175   2176   2188     1  0.0000000  0.6508444  3
   2177   2175   2182   2195     1  0.0000000  0.6508444  3
   2177   2175   2182   2196     1  0.0000000  0.6508444  3
   2178   2176   2175   2200     1  0.0000000  0.6508444  3
   2178   2179   3795   3796     1  180.0000771  10.4600000  2
   2179   2178   2176   2187     1  0.0000000  0.6508444  3
   2179   2178   2176   2188     1  0.0000000  0.6508444  3
   2179   3795   3797   3799     1  0.0000000  0.0000000  2
   2179   3795   3797   3800     1  0.0000000  0.0000000  2
   2180   2177   2175   2200     1  0.0000000  0.6508444  3
   2180   2181   3807   3808     1  180.0000771  10.4600000  2
   2181   2180   2177   2189     1  0.0000000  0.6508444  3
   2181   2180   2177   2190     1  0.0000000  0.6508444  3
   2181   3807   3809   3811     1  0.0000000  0.0000000  2
   2181   3807   3809   3812     1  0.0000000  0.0000000  2
   2182   2175   2176   2187     1  0.0000000  0.6508444  3
   2182   2175   2176   2188     1  0.0000000  0.6508444  3
   2182   2175   2177   2189     1  0.0000000  0.6508444  3
   2182   2175   2177   2190     1  0.0000000  0.6508444  3
   2182   2183   2184   2199     1  0.0000000  0.0000000  2
   2183   2182   2175   2200     1  0.0000000  0.6508444  3
   2184   2183   2182   2195     1  0.0000000  0.6508444  3
   2184   2183   2182   2196     1  0.0000000  0.6508444  3
   2185   2179   2178   2191     1  0.0000000  3.3472000  1
   2185   2179   2178   2191     1  0.0000000  0.0000000  2
   2185   2179   2178   2191     1  180.0000771  0.3347200  3
   2185   2179   2178   2192     1  0.0000000  3.3472000  1
   2185   2179   2178   2192     1  0.0000000  0.0000000  2
   2185   2179   2178   2192     1  180.0000771  0.3347200  3
   2185   2179   3795   3796     1  0.0000000  8.3680000  1
   2185   2179   3795   3796     1  180.0000771  10.4600000  2
   2186   2181   2180   2193     1  0.0000000  3.3472000  1
   2186   2181   2180   2193     1  0.0000000  0.0000000  2
   2186   2181   2180   2193     1  180.0000771  0.3347200  3
   2186   2181   2180   2194     1  0.0000000  3.3472000  1
   2186   2181   2180   2194     1  0.0000000  0.0000000  2
   2186   2181   2180   2194     1  180.0000771  0.3347200  3
   2186   2181   3807   3808     1  0.0000000  8.3680000  1
   2186   2181   3807   3808     1  180.0000771  10.4600000  2
   2187   2176   2175   2200     1  0.0000000  0.6508444  3
   2187   2176   2178   2191     1  0.0000000  0.6508444  3
   2187   2176   2178   2192     1  0.0000000  0.6508444  3
   2188   2176   2175   2200     1  0.0000000  0.6508444  3
   2188   2176   2178   2191     1  0.0000000  0.6508444  3
   2188   2176   2178   2192     1  0.0000000  0.6508444  3
   2189   2177   2175   2200     1  0.0000000  0.6508444  3
   2189   2177   2180   2193     1  0.0000000  0.6508444  3
   2189   2177   2180   2194     1  0.0000000  0.6508444  3
   2190   2177   2175   2200     1  0.0000000  0.6508444  3
   2190   2177   2180   2193     1  0.0000000  0.6508444  3
   2190   2177   2180   2194     1  0.0000000  0.6508444  3
   2191   2178   2179   3795     1  180.0000771  0.0000000  2
   2192   2178   2179   3795     1  180.0000771  0.0000000  2
   2193   2180   2181   3807     1  180.0000771  0.0000000  2
   2194   2180   2181   3807     1  180.0000771  0.0000000  2
   2195   2182   2175   2200     1  0.0000000  0.6508444  3
   2195   2182   2183   2197     1  0.0000000  0.6508444  3
   2195   2182   2183   2198     1  0.0000000  0.6508444  3
   2196   2182   2175   2200     1  0.0000000  0.6508444  3
   2196   2182   2183   2197     1  0.0000000  0.6508444  3
   2196   2182   2183   2198     1  0.0000000  0.6508444  3
   2197   2183   2184   2199     1  0.0000000  0.0000000  2
   2198   2183   2184   2199     1  0.0000000  0.0000000  2
   2201   2202   2204   2217     1  0.0000000  0.6508444  3
   2201   2202   2204   2218     1  0.0000000  0.6508444  3
   2201   2203   2206   2219     1  0.0000000  0.6508444  3
   2201   2203   2206   2220     1  0.0000000  0.6508444  3
   2201   2208   2209   2223     1  0.0000000  0.6508444  3
   2201   2208   2209   2224     1  0.0000000  0.6508444  3
   2202   2201   2203   2215     1  0.0000000  0.6508444  3
   2202   2201   2203   2216     1  0.0000000  0.6508444  3
   2202   2201   2208   2221     1  0.0000000  0.6508444  3
   2202   2201   2208   2222     1  0.0000000  0.6508444  3
   2203   2201   2202   2213     1  0.0000000  0.6508444  3
   2203   2201   2202   2214     1  0.0000000  0.6508444  3
   2203   2201   2208   2221     1  0.0000000  0.6508444  3
   2203   2201   2208   2222     1  0.0000000  0.6508444  3
   2204   2202   2201   2226     1  0.0000000  0.6508444  3
   2204   2205   3819   3820     1  180.0000771  10.4600000  2
   2205   2204   2202   2213     1  0.0000000  0.6508444  3
   2205   2204   2202   2214     1  0.0000000  0.6508444  3
   2205   3819   3821   3823     1  0.0000000  0.0000000  2
   2205   3819   3821   3824     1  0.0000000  0.0000000  2
   2206   2203   2201   2226     1  0.0000000  0.6508444  3
   2206   2207   3831   3832     1  180.0000771  10.4600000  2
   2207   2206   2203   2215     1  0.0000000  0.6508444  3
   2207   2206   2203   2216     1  0.0000000  0.6508444  3
   2207   3831   3833   3835     1  0.0000000  0.0000000  2
   2207   3831   3833   3836     1  0.0000000  0.0000000  2
   2208   2201   2202   2213     1  0.0000000  0.6508444  3
   2208   2201   2202   2214     1  0.0000000  0.6508444  3
   2208   2201   2203   2215     1  0.0000000  0.6508444  3
   2208   2201   2203   2216     1  0.0000000  0.6508444  3
   2208   2209   2210   2225     1  0.0000000  0.0000000  2
   2209   2208   2201   2226     1  0.0000000  0.6508444  3
   2210   2209   2208   2221     1  0.0000000  0.6508444  3
   2210   2209   2208   2222     1  0.0000000  0.6508444  3
   2211   2205   2204   2217     1  0.0000000  3.3472000  1
   2211   2205   2204   2217     1  0.0000000  0.0000000  2
   2211   2205   2204   2217     1  180.0000771  0.3347200  3
   2211   2205   2204   2218     1  0.0000000  3.3472000  1
   2211   2205   2204   2218     1  0.0000000  0.0000000  2
   2211   2205   2204   2218     1  180.0000771  0.3347200  3
   2211   2205   3819   3820     1  0.0000000  8.3680000  1
   2211   2205   3819   3820     1  180.0000771  10.4600000  2
   2212   2207   2206   2219     1  0.0000000  3.3472000  1
   2212   2207   2206   2219     1  0.0000000  0.0000000  2
   2212   2207   2206   2219     1  180.0000771  0.3347200  3
   2212   2207   2206   2220     1  0.0000000  3.3472000  1
   2212   2207   2206   2220     1  0.0000000  0.0000000  2
   2212   2207   2206   2220     1  180.0000771  0.3347200  3
   2212   2207   3831   3832     1  0.0000000  8.3680000  1
   2212   2207   3831   3832     1  180.0000771  10.4600000  2
   2213   2202   2201   2226     1  0.0000000  0.6508444  3
   2213   2202   2204   2217     1  0.0000000  0.6508444  3
   2213   2202   2204   2218     1  0.0000000  0.6508444  3
   2214   2202   2201   2226     1  0.0000000  0.6508444  3
   2214   2202   2204   2217     1  0.0000000  0.6508444  3
   2214   2202   2204   2218     1  0.0000000  0.6508444  3
   2215   2203   2201   2226     1  0.0000000  0.6508444  3
   2215   2203   2206   2219     1  0.0000000  0.6508444  3
   2215   2203   2206   2220     1  0.0000000  0.6508444  3
   2216   2203   2201   2226     1  0.0000000  0.6508444  3
   2216   2203   2206   2219     1  0.0000000  0.6508444  3
   2216   2203   2206   2220     1  0.0000000  0.6508444  3
   2217   2204   2205   3819     1  180.0000771  0.0000000  2
   2218   2204   2205   3819     1  180.0000771  0.0000000  2
   2219   2206   2207   3831     1  180.0000771  0.0000000  2
   2220   2206   2207   3831     1  180.0000771  0.0000000  2
   2221   2208   2201   2226     1  0.0000000  0.6508444  3
   2221   2208   2209   2223     1  0.0000000  0.6508444  3
   2221   2208   2209   2224     1  0.0000000  0.6508444  3
   2222   2208   2201   2226     1  0.0000000  0.6508444  3
   2222   2208   2209   2223     1  0.0000000  0.6508444  3
   2222   2208   2209   2224     1  0.0000000  0.6508444  3
   2223   2209   2210   2225     1  0.0000000  0.0000000  2
   2224   2209   2210   2225     1  0.0000000  0.0000000  2
   2227   2228   2230   2243     1  0.0000000  0.6508444  3
   2227   2228   2230   2244     1  0.0000000  0.6508444  3
   2227   2229   2232   2245     1  0.0000000  0.6508444  3
   2227   2229   2232   2246     1  0.0000000  0.6508444  3
   2227   2234   2235   2249     1  0.0000000  0.6508444  3
   2227   2234   2235   2250     1  0.0000000  0.6508444  3
   2228   2227   2229   2241     1  0.0000000  0.6508444  3
   2228   2227   2229   2242     1  0.0000000  0.6508444  3
   2228   2227   2234   2247     1  0.0000000  0.6508444  3
   2228   2227   2234   2248     1  0.0000000  0.6508444  3
   2229   2227   2228   2239     1  0.0000000  0.6508444  3
   2229   2227   2228   2240     1  0.0000000  0.6508444  3
   2229   2227   2234   2247     1  0.0000000  0.6508444  3
   2229   2227   2234   2248     1  0.0000000  0.6508444  3
   2230   2228   2227   2252     1  0.0000000  0.6508444  3
   2230   2231   3843   3844     1  180.0000771  10.4600000  2
   2231   2230   2228   2239     1  0.0000000  0.6508444  3
   2231   2230   2228   2240     1  0.0000000  0.6508444  3
   2231   3843   3845   3847     1  0.0000000  0.0000000  2
   2231   3843   3845   3848     1  0.0000000  0.0000000  2
   2232   2229   2227   2252     1  0.0000000  0.6508444  3
   2232   2233   3855   3856     1  180.0000771  10.4600000  2
   2233   2232   2229   2241     1  0.0000000  0.6508444  3
   2233   2232   2229   2242     1  0.0000000  0.6508444  3
   2233   3855   3857   3859     1  0.0000000  0.0000000  2
   2233   3855   3857   3860     1  0.0000000  0.0000000  2
   2234   2227   2228   2239     1  0.0000000  0.6508444  3
   2234   2227   2228   2240     1  0.0000000  0.6508444  3
   2234   2227   2229   2241     1  0.0000000  0.6508444  3
   2234   2227   2229   2242     1  0.0000000  0.6508444  3
   2234   2235   2236   2251     1  0.0000000  0.0000000  2
   2235   2234   2227   2252     1  0.0000000  0.6508444  3
   2236   2235   2234   2247     1  0.0000000  0.6508444  3
   2236   2235   2234   2248     1  0.0000000  0.6508444  3
   2237   2231   2230   2243     1  0.0000000  3.3472000  1
   2237   2231   2230   2243     1  0.0000000  0.0000000  2
   2237   2231   2230   2243     1  180.0000771  0.3347200  3
   2237   2231   2230   2244     1  0.0000000  3.3472000  1
   2237   2231   2230   2244     1  0.0000000  0.0000000  2
   2237   2231   2230   2244     1  180.0000771  0.3347200  3
   2237   2231   3843   3844     1  0.0000000  8.3680000  1
   2237   2231   3843   3844     1  180.0000771  10.4600000  2
   2238   2233   2232   2245     1  0.0000000  3.3472000  1
   2238   2233   2232   2245     1  0.0000000  0.0000000  2
   2238   2233   2232   2245     1  180.0000771  0.3347200  3
   2238   2233   2232   2246     1  0.0000000  3.3472000  1
   2238   2233   2232   2246     1  0.0000000  0.0000000  2
   2238   2233   2232   2246     1  180.0000771  0.3347200  3
   2238   2233   3855   3856     1  0.0000000  8.3680000  1
   2238   2233   3855   3856     1  180.0000771  10.4600000  2
   2239   2228   2227   2252     1  0.0000000  0.6508444  3
   2239   2228   2230   2243     1  0.0000000  0.6508444  3
   2239   2228   2230   2244     1  0.0000000  0.6508444  3
   2240   2228   2227   2252     1  0.0000000  0.6508444  3
   2240   2228   2230   2243     1  0.0000000  0.6508444  3
   2240   2228   2230   2244     1  0.0000000  0.6508444  3
   2241   2229   2227   2252     1  0.0000000  0.6508444  3
   2241   2229   2232   2245     1  0.0000000  0.6508444  3
   2241   2229   2232   2246     1  0.0000000  0.6508444  3
   2242   2229   2227   2252     1  0.0000000  0.6508444  3
   2242   2229   2232   2245     1  0.0000000  0.6508444  3
   2242   2229   2232   2246     1  0.0000000  0.6508444  3
   2243   2230   2231   3843     1  180.0000771  0.0000000  2
   2244   2230   2231   3843     1  180.0000771  0.0000000  2
   2245   2232   2233   3855     1  180.0000771  0.0000000  2
   2246   2232   2233   3855     1  180.0000771  0.0000000  2
   2247   2234   2227   2252     1  0.0000000  0.6508444  3
   2247   2234   2235   2249     1  0.0000000  0.6508444  3
   2247   2234   2235   2250     1  0.0000000  0.6508444  3
   2248   2234   2227   2252     1  0.0000000  0.6508444  3
   2248   2234   2235   2249     1  0.0000000  0.6508444  3
   2248   2234   2235   2250     1  0.0000000  0.6508444  3
   2249   2235   2236   2251     1  0.0000000  0.0000000  2
   2250   2235   2236   2251     1  0.0000000  0.0000000  2
   2253   2254   2256   2269     1  0.0000000  0.6508444  3
   2253   2254   2256   2270     1  0.0000000  0.6508444  3
   2253   2255   2258   2271     1  0.0000000  0.6508444  3
   2253   2255   2258   2272     1  0.0000000  0.6508444  3
   2253   2260   2261   2275     1  0.0000000  0.6508444  3
   2253   2260   2261   2276     1  0.0000000  0.6508444  3
   2254   2253   2255   2267     1  0.0000000  0.6508444  3
   2254   2253   2255   2268     1  0.0000000  0.6508444  3
   2254   2253   2260   2273     1  0.0000000  0.6508444  3
   2254   2253   2260   2274     1  0.0000000  0.6508444  3
   2255   2253   2254   2265     1  0.0000000  0.6508444  3
   2255   2253   2254   2266     1  0.0000000  0.6508444  3
   2255   2253   2260   2273     1  0.0000000  0.6508444  3
   2255   2253   2260   2274     1  0.0000000  0.6508444  3
   2256   2254   2253   2278     1  0.0000000  0.6508444  3
   2256   2257   3867   3868     1  180.0000771  10.4600000  2
   2257   2256   2254   2265     1  0.0000000  0.6508444  3
   2257   2256   2254   2266     1  0.0000000  0.6508444  3
   2257   3867   3869   3871     1  0.0000000  0.0000000  2
   2257   3867   3869   3872     1  0.0000000  0.0000000  2
   2258   2255   2253   2278     1  0.0000000  0.6508444  3
   2258   2259   3879   3880     1  180.0000771  10.4600000  2
   2259   2258   2255   2267     1  0.0000000  0.6508444  3
   2259   2258   2255   2268     1  0.0000000  0.6508444  3
   2259   3879   3881   3883     1  0.0000000  0.0000000  2
   2259   3879   3881   3884     1  0.0000000  0.0000000  2
   2260   2253   2254   2265     1  0.0000000  0.6508444  3
   2260   2253   2254   2266     1  0.0000000  0.6508444  3
   2260   2253   2255   2267     1  0.0000000  0.6508444  3
   2260   2253   2255   2268     1  0.0000000  0.6508444  3
   2260   2261   2262   2277     1  0.0000000  0.0000000  2
   2261   2260   2253   2278     1  0.0000000  0.6508444  3
   2262   2261   2260   2273     1  0.0000000  0.6508444  3
   2262   2261   2260   2274     1  0.0000000  0.6508444  3
   2263   2257   2256   2269     1  0.0000000  3.3472000  1
   2263   2257   2256   2269     1  0.0000000  0.0000000  2
   2263   2257   2256   2269     1  180.0000771  0.3347200  3
   2263   2257   2256   2270     1  0.0000000  3.3472000  1
   2263   2257   2256   2270     1  0.0000000  0.0000000  2
   2263   2257   2256   2270     1  180.0000771  0.3347200  3
   2263   2257   3867   3868     1  0.0000000  8.3680000  1
   2263   2257   3867   3868     1  180.0000771  10.4600000  2
   2264   2259   2258   2271     1  0.0000000  3.3472000  1
   2264   2259   2258   2271     1  0.0000000  0.0000000  2
   2264   2259   2258   2271     1  180.0000771  0.3347200  3
   2264   2259   2258   2272     1  0.0000000  3.3472000  1
   2264   2259   2258   2272     1  0.0000000  0.0000000  2
   2264   2259   2258   2272     1  180.0000771  0.3347200  3
   2264   2259   3879   3880     1  0.0000000  8.3680000  1
   2264   2259   3879   3880     1  180.0000771  10.4600000  2
   2265   2254   2253   2278     1  0.0000000  0.6508444  3
   2265   2254   2256   2269     1  0.0000000  0.6508444  3
   2265   2254   2256   2270     1  0.0000000  0.6508444  3
   2266   2254   2253   2278     1  0.0000000  0.6508444  3
   2266   2254   2256   2269     1  0.0000000  0.6508444  3
   2266   2254   2256   2270     1  0.0000000  0.6508444  3
   2267   2255   2253   2278     1  0.0000000  0.6508444  3
   2267   2255   2258   2271     1  0.0000000  0.6508444  3
   2267   2255   2258   2272     1  0.0000000  0.6508444  3
   2268   2255   2253   2278     1  0.0000000  0.6508444  3
   2268   2255   2258   2271     1  0.0000000  0.6508444  3
   2268   2255   2258   2272     1  0.0000000  0.6508444  3
   2269   2256   2257   3867     1  180.0000771  0.0000000  2
   2270   2256   2257   3867     1  180.0000771  0.0000000  2
   2271   2258   2259   3879     1  180.0000771  0.0000000  2
   2272   2258   2259   3879     1  180.0000771  0.0000000  2
   2273   2260   2253   2278     1  0.0000000  0.6508444  3
   2273   2260   2261   2275     1  0.0000000  0.6508444  3
   2273   2260   2261   2276     1  0.0000000  0.6508444  3
   2274   2260   2253   2278     1  0.0000000  0.6508444  3
   2274   2260   2261   2275     1  0.0000000  0.6508444  3
   2274   2260   2261   2276     1  0.0000000  0.6508444  3
   2275   2261   2262   2277     1  0.0000000  0.0000000  2
   2276   2261   2262   2277     1  0.0000000  0.0000000  2
   2279   2280   2282   2295     1  0.0000000  0.6508444  3
   2279   2280   2282   2296     1  0.0000000  0.6508444  3
   2279   2281   2284   2297     1  0.0000000  0.6508444  3
   2279   2281   2284   2298     1  0.0000000  0.6508444  3
   2279   2286   2287   2301     1  0.0000000  0.6508444  3
   2279   2286   2287   2302     1  0.0000000  0.6508444  3
   2280   2279   2281   2293     1  0.0000000  0.6508444  3
   2280   2279   2281   2294     1  0.0000000  0.6508444  3
   2280   2279   2286   2299     1  0.0000000  0.6508444  3
   2280   2279   2286   2300     1  0.0000000  0.6508444  3
   2281   2279   2280   2291     1  0.0000000  0.6508444  3
   2281   2279   2280   2292     1  0.0000000  0.6508444  3
   2281   2279   2286   2299     1  0.0000000  0.6508444  3
   2281   2279   2286   2300     1  0.0000000  0.6508444  3
   2282   2280   2279   2304     1  0.0000000  0.6508444  3
   2282   2283   3891   3892     1  180.0000771  10.4600000  2
   2283   2282   2280   2291     1  0.0000000  0.6508444  3
   2283   2282   2280   2292     1  0.0000000  0.6508444  3
   2283   3891   3893   3895     1  0.0000000  0.0000000  2
   2283   3891   3893   3896     1  0.0000000  0.0000000  2
   2284   2281   2279   2304     1  0.0000000  0.6508444  3
   2284   2285   3903   3904     1  180.0000771  10.4600000  2
   2285   2284   2281   2293     1  0.0000000  0.6508444  3
   2285   2284   2281   2294     1  0.0000000  0.6508444  3
   2285   3903   3905   3907     1  0.0000000  0.0000000  2
   2285   3903   3905   3908     1  0.0000000  0.0000000  2
   2286   2279   2280   2291     1  0.0000000  0.6508444  3
   2286   2279   2280   2292     1  0.0000000  0.6508444  3
   2286   2279   2281   2293     1  0.0000000  0.6508444  3
   2286   2279   2281   2294     1  0.0000000  0.6508444  3
   2286   2287   2288   2303     1  0.0000000  0.0000000  2
   2287   2286   2279   2304     1  0.0000000  0.6508444  3
   2288   2287   2286   2299     1  0.0000000  0.6508444  3
   2288   2287   2286   2300     1  0.0000000  0.6508444  3
   2289   2283   2282   2295     1  0.0000000  3.3472000  1
   2289   2283   2282   2295     1  0.0000000  0.0000000  2
   2289   2283   2282   2295     1  180.0000771  0.3347200  3
   2289   2283   2282   2296     1  0.0000000  3.3472000  1
   2289   2283   2282   2296     1  0.0000000  0.0000000  2
   2289   2283   2282   2296     1  180.0000771  0.3347200  3
   2289   2283   3891   3892     1  0.0000000  8.3680000  1
   2289   2283   3891   3892     1  180.0000771  10.4600000  2
   2290   2285   2284   2297     1  0.0000000  3.3472000  1
   2290   2285   2284   2297     1  0.0000000  0.0000000  2
   2290   2285   2284   2297     1  180.0000771  0.3347200  3
   2290   2285   2284   2298     1  0.0000000  3.3472000  1
   2290   2285   2284   2298     1  0.0000000  0.0000000  2
   2290   2285   2284   2298     1  180.0000771  0.3347200  3
   2290   2285   3903   3904     1  0.0000000  8.3680000  1
   2290   2285   3903   3904     1  180.0000771  10.4600000  2
   2291   2280   2279   2304     1  0.0000000  0.6508444  3
   2291   2280   2282   2295     1  0.0000000  0.6508444  3
   2291   2280   2282   2296     1  0.0000000  0.6508444  3
   2292   2280   2279   2304     1  0.0000000  0.6508444  3
   2292   2280   2282   2295     1  0.0000000  0.6508444  3
   2292   2280   2282   2296     1  0.0000000  0.6508444  3
   2293   2281   2279   2304     1  0.0000000  0.6508444  3
   2293   2281   2284   2297     1  0.0000000  0.6508444  3
   2293   2281   2284   2298     1  0.0000000  0.6508444  3
   2294   2281   2279   2304     1  0.0000000  0.6508444  3
   2294   2281   2284   2297     1  0.0000000  0.6508444  3
   2294   2281   2284   2298     1  0.0000000  0.6508444  3
   2295   2282   2283   3891     1  180.0000771  0.0000000  2
   2296   2282   2283   3891     1  180.0000771  0.0000000  2
   2297   2284   2285   3903     1  180.0000771  0.0000000  2
   2298   2284   2285   3903     1  180.0000771  0.0000000  2
   2299   2286   2279   2304     1  0.0000000  0.6508444  3
   2299   2286   2287   2301     1  0.0000000  0.6508444  3
   2299   2286   2287   2302     1  0.0000000  0.6508444  3
   2300   2286   2279   2304     1  0.0000000  0.6508444  3
   2300   2286   2287   2301     1  0.0000000  0.6508444  3
   2300   2286   2287   2302     1  0.0000000  0.6508444  3
   2301   2287   2288   2303     1  0.0000000  0.0000000  2
   2302   2287   2288   2303     1  0.0000000  0.0000000  2
   2305   2306   2308   2321     1  0.0000000  0.6508444  3
   2305   2306   2308   2322     1  0.0000000  0.6508444  3
   2305   2307   2310   2323     1  0.0000000  0.6508444  3
   2305   2307   2310   2324     1  0.0000000  0.6508444  3
   2305   2312   2313   2327     1  0.0000000  0.6508444  3
   2305   2312   2313   2328     1  0.0000000  0.6508444  3
   2306   2305   2307   2319     1  0.0000000  0.6508444  3
   2306   2305   2307   2320     1  0.0000000  0.6508444  3
   2306   2305   2312   2325     1  0.0000000  0.6508444  3
   2306   2305   2312   2326     1  0.0000000  0.6508444  3
   2307   2305   2306   2317     1  0.0000000  0.6508444  3
   2307   2305   2306   2318     1  0.0000000  0.6508444  3
   2307   2305   2312   2325     1  0.0000000  0.6508444  3
   2307   2305   2312   2326     1  0.0000000  0.6508444  3
   2308   2306   2305   2330     1  0.0000000  0.6508444  3
   2308   2309   3915   3916     1  180.0000771  10.4600000  2
   2309   2308   2306   2317     1  0.0000000  0.6508444  3
   2309   2308   2306   2318     1  0.0000000  0.6508444  3
   2309   3915   3917   3919     1  0.0000000  0.0000000  2
   2309   3915   3917   3920     1  0.0000000  0.0000000  2
   2310   2307   2305   2330     1  0.0000000  0.6508444  3
   2310   2311   3927   3928     1  180.0000771  10.4600000  2
   2311   2310   2307   2319     1  0.0000000  0.6508444  3
   2311   2310   2307   2320     1  0.0000000  0.6508444  3
   2311   3927   3929   3931     1  0.0000000  0.0000000  2
   2311   3927   3929   3932     1  0.0000000  0.0000000  2
   2312   2305   2306   2317     1  0.0000000  0.6508444  3
   2312   2305   2306   2318     1  0.0000000  0.6508444  3
   2312   2305   2307   2319     1  0.0000000  0.6508444  3
   2312   2305   2307   2320     1  0.0000000  0.6508444  3
   2312   2313   2314   2329     1  0.0000000  0.0000000  2
   2313   2312   2305   2330     1  0.0000000  0.6508444  3
   2314   2313   2312   2325     1  0.0000000  0.6508444  3
   2314   2313   2312   2326     1  0.0000000  0.6508444  3
   2315   2309   2308   2321     1  0.0000000  3.3472000  1
   2315   2309   2308   2321     1  0.0000000  0.0000000  2
   2315   2309   2308   2321     1  180.0000771  0.3347200  3
   2315   2309   2308   2322     1  0.0000000  3.3472000  1
   2315   2309   2308   2322     1  0.0000000  0.0000000  2
   2315   2309   2308   2322     1  180.0000771  0.3347200  3
   2315   2309   3915   3916     1  0.0000000  8.3680000  1
   2315   2309   3915   3916     1  180.0000771  10.4600000  2
   2316   2311   2310   2323     1  0.0000000  3.3472000  1
   2316   2311   2310   2323     1  0.0000000  0.0000000  2
   2316   2311   2310   2323     1  180.0000771  0.3347200  3
   2316   2311   2310   2324     1  0.0000000  3.3472000  1
   2316   2311   2310   2324     1  0.0000000  0.0000000  2
   2316   2311   2310   2324     1  180.0000771  0.3347200  3
   2316   2311   3927   3928     1  0.0000000  8.3680000  1
   2316   2311   3927   3928     1  180.0000771  10.4600000  2
   2317   2306   2305   2330     1  0.0000000  0.6508444  3
   2317   2306   2308   2321     1  0.0000000  0.6508444  3
   2317   2306   2308   2322     1  0.0000000  0.6508444  3
   2318   2306   2305   2330     1  0.0000000  0.6508444  3
   2318   2306   2308   2321     1  0.0000000  0.6508444  3
   2318   2306   2308   2322     1  0.0000000  0.6508444  3
   2319   2307   2305   2330     1  0.0000000  0.6508444  3
   2319   2307   2310   2323     1  0.0000000  0.6508444  3
   2319   2307   2310   2324     1  0.0000000  0.6508444  3
   2320   2307   2305   2330     1  0.0000000  0.6508444  3
   2320   2307   2310   2323     1  0.0000000  0.6508444  3
   2320   2307   2310   2324     1  0.0000000  0.6508444  3
   2321   2308   2309   3915     1  180.0000771  0.0000000  2
   2322   2308   2309   3915     1  180.0000771  0.0000000  2
   2323   2310   2311   3927     1  180.0000771  0.0000000  2
   2324   2310   2311   3927     1  180.0000771  0.0000000  2
   2325   2312   2305   2330     1  0.0000000  0.6508444  3
   2325   2312   2313   2327     1  0.0000000  0.6508444  3
   2325   2312   2313   2328     1  0.0000000  0.6508444  3
   2326   2312   2305   2330     1  0.0000000  0.6508444  3
   2326   2312   2313   2327     1  0.0000000  0.6508444  3
   2326   2312   2313   2328     1  0.0000000  0.6508444  3
   2327   2313   2314   2329     1  0.0000000  0.0000000  2
   2328   2313   2314   2329     1  0.0000000  0.0000000  2
   2331   2332   2334   2347     1  0.0000000  0.6508444  3
   2331   2332   2334   2348     1  0.0000000  0.6508444  3
   2331   2333   2336   2349     1  0.0000000  0.6508444  3
   2331   2333   2336   2350     1  0.0000000  0.6508444  3
   2331   2338   2339   2353     1  0.0000000  0.6508444  3
   2331   2338   2339   2354     1  0.0000000  0.6508444  3
   2332   2331   2333   2345     1  0.0000000  0.6508444  3
   2332   2331   2333   2346     1  0.0000000  0.6508444  3
   2332   2331   2338   2351     1  0.0000000  0.6508444  3
   2332   2331   2338   2352     1  0.0000000  0.6508444  3
   2333   2331   2332   2343     1  0.0000000  0.6508444  3
   2333   2331   2332   2344     1  0.0000000  0.6508444  3
   2333   2331   2338   2351     1  0.0000000  0.6508444  3
   2333   2331   2338   2352     1  0.0000000  0.6508444  3
   2334   2332   2331   2356     1  0.0000000  0.6508444  3
   2334   2335   3939   3940     1  180.0000771  10.4600000  2
   2335   2334   2332   2343     1  0.0000000  0.6508444  3
   2335   2334   2332   2344     1  0.0000000  0.6508444  3
   2335   3939   3941   3943     1  0.0000000  0.0000000  2
   2335   3939   3941   3944     1  0.0000000  0.0000000  2
   2336   2333   2331   2356     1  0.0000000  0.6508444  3
   2336   2337   3951   3952     1  180.0000771  10.4600000  2
   2337   2336   2333   2345     1  0.0000000  0.6508444  3
   2337   2336   2333   2346     1  0.0000000  0.6508444  3
   2337   3951   3953   3955     1  0.0000000  0.0000000  2
   2337   3951   3953   3956     1  0.0000000  0.0000000  2
   2338   2331   2332   2343     1  0.0000000  0.6508444  3
   2338   2331   2332   2344     1  0.0000000  0.6508444  3
   2338   2331   2333   2345     1  0.0000000  0.6508444  3
   2338   2331   2333   2346     1  0.0000000  0.6508444  3
   2338   2339   2340   2355     1  0.0000000  0.0000000  2
   2339   2338   2331   2356     1  0.0000000  0.6508444  3
   2340   2339   2338   2351     1  0.0000000  0.6508444  3
   2340   2339   2338   2352     1  0.0000000  0.6508444  3
   2341   2335   2334   2347     1  0.0000000  3.3472000  1
   2341   2335   2334   2347     1  0.0000000  0.0000000  2
   2341   2335   2334   2347     1  180.0000771  0.3347200  3
   2341   2335   2334   2348     1  0.0000000  3.3472000  1
   2341   2335   2334   2348     1  0.0000000  0.0000000  2
   2341   2335   2334   2348     1  180.0000771  0.3347200  3
   2341   2335   3939   3940     1  0.0000000  8.3680000  1
   2341   2335   3939   3940     1  180.0000771  10.4600000  2
   2342   2337   2336   2349     1  0.0000000  3.3472000  1
   2342   2337   2336   2349     1  0.0000000  0.0000000  2
   2342   2337   2336   2349     1  180.0000771  0.3347200  3
   2342   2337   2336   2350     1  0.0000000  3.3472000  1
   2342   2337   2336   2350     1  0.0000000  0.0000000  2
   2342   2337   2336   2350     1  180.0000771  0.3347200  3
   2342   2337   3951   3952     1  0.0000000  8.3680000  1
   2342   2337   3951   3952     1  180.0000771  10.4600000  2
   2343   2332   2331   2356     1  0.0000000  0.6508444  3
   2343   2332   2334   2347     1  0.0000000  0.6508444  3
   2343   2332   2334   2348     1  0.0000000  0.6508444  3
   2344   2332   2331   2356     1  0.0000000  0.6508444  3
   2344   2332   2334   2347     1  0.0000000  0.6508444  3
   2344   2332   2334   2348     1  0.0000000  0.6508444  3
   2345   2333   2331   2356     1  0.0000000  0.6508444  3
   2345   2333   2336   2349     1  0.0000000  0.6508444  3
   2345   2333   2336   2350     1  0.0000000  0.6508444  3
   2346   2333   2331   2356     1  0.0000000  0.6508444  3
   2346   2333   2336   2349     1  0.0000000  0.6508444  3
   2346   2333   2336   2350     1  0.0000000  0.6508444  3
   2347   2334   2335   3939     1  180.0000771  0.0000000  2
   2348   2334   2335   3939     1  180.0000771  0.0000000  2
   2349   2336   2337   3951     1  180.0000771  0.0000000  2
   2350   2336   2337   3951     1  180.0000771  0.0000000  2
   2351   2338   2331   2356     1  0.0000000  0.6508444  3
   2351   2338   2339   2353     1  0.0000000  0.6508444  3
   2351   2338   2339   2354     1  0.0000000  0.6508444  3
   2352   2338   2331   2356     1  0.0000000  0.6508444  3
   2352   2338   2339   2353     1  0.0000000  0.6508444  3
   2352   2338   2339   2354     1  0.0000000  0.6508444  3
   2353   2339   2340   2355     1  0.0000000  0.0000000  2
   2354   2339   2340   2355     1  0.0000000  0.0000000  2
   2357   2358   2360   2373     1  0.0000000  0.6508444  3
   2357   2358   2360   2374     1  0.0000000  0.6508444  3
   2357   2359   2362   2375     1  0.0000000  0.6508444  3
   2357   2359   2362   2376     1  0.0000000  0.6508444  3
   2357   2364   2365   2379     1  0.0000000  0.6508444  3
   2357   2364   2365   2380     1  0.0000000  0.6508444  3
   2358   2357   2359   2371     1  0.0000000  0.6508444  3
   2358   2357   2359   2372     1  0.0000000  0.6508444  3
   2358   2357   2364   2377     1  0.0000000  0.6508444  3
   2358   2357   2364   2378     1  0.0000000  0.6508444  3
   2359   2357   2358   2369     1  0.0000000  0.6508444  3
   2359   2357   2358   2370     1  0.0000000  0.6508444  3
   2359   2357   2364   2377     1  0.0000000  0.6508444  3
   2359   2357   2364   2378     1  0.0000000  0.6508444  3
   2360   2358   2357   2382     1  0.0000000  0.6508444  3
   2360   2361   3963   3964     1  180.0000771  10.4600000  2
   2361   2360   2358   2369     1  0.0000000  0.6508444  3
   2361   2360   2358   2370     1  0.0000000  0.6508444  3
   2361   3963   3965   3967     1  0.0000000  0.0000000  2
   2361   3963   3965   3968     1  0.0000000  0.0000000  2
   2362   2359   2357   2382     1  0.0000000  0.6508444  3
   2362   2363   3975   3976     1  180.0000771  10.4600000  2
   2363   2362   2359   2371     1  0.0000000  0.6508444  3
   2363   2362   2359   2372     1  0.0000000  0.6508444  3
   2363   3975   3977   3979     1  0.0000000  0.0000000  2
   2363   3975   3977   3980     1  0.0000000  0.0000000  2
   2364   2357   2358   2369     1  0.0000000  0.6508444  3
   2364   2357   2358   2370     1  0.0000000  0.6508444  3
   2364   2357   2359   2371     1  0.0000000  0.6508444  3
   2364   2357   2359   2372     1  0.0000000  0.6508444  3
   2364   2365   2366   2381     1  0.0000000  0.0000000  2
   2365   2364   2357   2382     1  0.0000000  0.6508444  3
   2366   2365   2364   2377     1  0.0000000  0.6508444  3
   2366   2365   2364   2378     1  0.0000000  0.6508444  3
   2367   2361   2360   2373     1  0.0000000  3.3472000  1
   2367   2361   2360   2373     1  0.0000000  0.0000000  2
   2367   2361   2360   2373     1  180.0000771  0.3347200  3
   2367   2361   2360   2374     1  0.0000000  3.3472000  1
   2367   2361   2360   2374     1  0.0000000  0.0000000  2
   2367   2361   2360   2374     1  180.0000771  0.3347200  3
   2367   2361   3963   3964     1  0.0000000  8.3680000  1
   2367   2361   3963   3964     1  180.0000771  10.4600000  2
   2368   2363   2362   2375     1  0.0000000  3.3472000  1
   2368   2363   2362   2375     1  0.0000000  0.0000000  2
   2368   2363   2362   2375     1  180.0000771  0.3347200  3
   2368   2363   2362   2376     1  0.0000000  3.3472000  1
   2368   2363   2362   2376     1  0.0000000  0.0000000  2
   2368   2363   2362   2376     1  180.0000771  0.3347200  3
   2368   2363   3975   3976     1  0.0000000  8.3680000  1
   2368   2363   3975   3976     1  180.0000771  10.4600000  2
   2369   2358   2357   2382     1  0.0000000  0.6508444  3
   2369   2358   2360   2373     1  0.0000000  0.6508444  3
   2369   2358   2360   2374     1  0.0000000  0.6508444  3
   2370   2358   2357   2382     1  0.0000000  0.6508444  3
   2370   2358   2360   2373     1  0.0000000  0.6508444  3
   2370   2358   2360   2374     1  0.0000000  0.6508444  3
   2371   2359   2357   2382     1  0.0000000  0.6508444  3
   2371   2359   2362   2375     1  0.0000000  0.6508444  3
   2371   2359   2362   2376     1  0.0000000  0.6508444  3
   2372   2359   2357   2382     1  0.0000000  0.6508444  3
   2372   2359   2362   2375     1  0.0000000  0.6508444  3
   2372   2359   2362   2376     1  0.0000000  0.6508444  3
   2373   2360   2361   3963     1  180.0000771  0.0000000  2
   2374   2360   2361   3963     1  180.0000771  0.0000000  2
   2375   2362   2363   3975     1  180.0000771  0.0000000  2
   2376   2362   2363   3975     1  180.0000771  0.0000000  2
   2377   2364   2357   2382     1  0.0000000  0.6508444  3
   2377   2364   2365   2379     1  0.0000000  0.6508444  3
   2377   2364   2365   2380     1  0.0000000  0.6508444  3
   2378   2364   2357   2382     1  0.0000000  0.6508444  3
   2378   2364   2365   2379     1  0.0000000  0.6508444  3
   2378   2364   2365   2380     1  0.0000000  0.6508444  3
   2379   2365   2366   2381     1  0.0000000  0.0000000  2
   2380   2365   2366   2381     1  0.0000000  0.0000000  2
   2383   2384   2386   2399     1  0.0000000  0.6508444  3
   2383   2384   2386   2400     1  0.0000000  0.6508444  3
   2383   2385   2388   2401     1  0.0000000  0.6508444  3
   2383   2385   2388   2402     1  0.0000000  0.6508444  3
   2383   2390   2391   2405     1  0.0000000  0.6508444  3
   2383   2390   2391   2406     1  0.0000000  0.6508444  3
   2384   2383   2385   2397     1  0.0000000  0.6508444  3
   2384   2383   2385   2398     1  0.0000000  0.6508444  3
   2384   2383   2390   2403     1  0.0000000  0.6508444  3
   2384   2383   2390   2404     1  0.0000000  0.6508444  3
   2385   2383   2384   2395     1  0.0000000  0.6508444  3
   2385   2383   2384   2396     1  0.0000000  0.6508444  3
   2385   2383   2390   2403     1  0.0000000  0.6508444  3
   2385   2383   2390   2404     1  0.0000000  0.6508444  3
   2386   2384   2383   2408     1  0.0000000  0.6508444  3
   2386   2387   3987   3988     1  180.0000771  10.4600000  2
   2387   2386   2384   2395     1  0.0000000  0.6508444  3
   2387   2386   2384   2396     1  0.0000000  0.6508444  3
   2387   3987   3989   3991     1  0.0000000  0.0000000  2
   2387   3987   3989   3992     1  0.0000000  0.0000000  2
   2388   2385   2383   2408     1  0.0000000  0.6508444  3
   2388   2389   3999   4000     1  180.0000771  10.4600000  2
   2389   2388   2385   2397     1  0.0000000  0.6508444  3
   2389   2388   2385   2398     1  0.0000000  0.6508444  3
   2389   3999   4001   4003     1  0.0000000  0.0000000  2
   2389   3999   4001   4004     1  0.0000000  0.0000000  2
   2390   2383   2384   2395     1  0.0000000  0.6508444  3
   2390   2383   2384   2396     1  0.0000000  0.6508444  3
   2390   2383   2385   2397     1  0.0000000  0.6508444  3
   2390   2383   2385   2398     1  0.0000000  0.6508444  3
   2390   2391   2392   2407     1  0.0000000  0.0000000  2
   2391   2390   2383   2408     1  0.0000000  0.6508444  3
   2392   2391   2390   2403     1  0.0000000  0.6508444  3
   2392   2391   2390   2404     1  0.0000000  0.6508444  3
   2393   2387   2386   2399     1  0.0000000  3.3472000  1
   2393   2387   2386   2399     1  0.0000000  0.0000000  2
   2393   2387   2386   2399     1  180.0000771  0.3347200  3
   2393   2387   2386   2400     1  0.0000000  3.3472000  1
   2393   2387   2386   2400     1  0.0000000  0.0000000  2
   2393   2387   2386   2400     1  180.0000771  0.3347200  3
   2393   2387   3987   3988     1  0.0000000  8.3680000  1
   2393   2387   3987   3988     1  180.0000771  10.4600000  2
   2394   2389   2388   2401     1  0.0000000  3.3472000  1
   2394   2389   2388   2401     1  0.0000000  0.0000000  2
   2394   2389   2388   2401     1  180.0000771  0.3347200  3
   2394   2389   2388   2402     1  0.0000000  3.3472000  1
   2394   2389   2388   2402     1  0.0000000  0.0000000  2
   2394   2389   2388   2402     1  180.0000771  0.3347200  3
   2394   2389   3999   4000     1  0.0000000  8.3680000  1
   2394   2389   3999   4000     1  180.0000771  10.4600000  2
   2395   2384   2383   2408     1  0.0000000  0.6508444  3
   2395   2384   2386   2399     1  0.0000000  0.6508444  3
   2395   2384   2386   2400     1  0.0000000  0.6508444  3
   2396   2384   2383   2408     1  0.0000000  0.6508444  3
   2396   2384   2386   2399     1  0.0000000  0.6508444  3
   2396   2384   2386   2400     1  0.0000000  0.6508444  3
   2397   2385   2383   2408     1  0.0000000  0.6508444  3
   2397   2385   2388   2401     1  0.0000000  0.6508444  3
   2397   2385   2388   2402     1  0.0000000  0.6508444  3
   2398   2385   2383   2408     1  0.0000000  0.6508444  3
   2398   2385   2388   2401     1  0.0000000  0.6508444  3
   2398   2385   2388   2402     1  0.0000000  0.6508444  3
   2399   2386   2387   3987     1  180.0000771  0.0000000  2
   2400   2386   2387   3987     1  180.0000771  0.0000000  2
   2401   2388   2389   3999     1  180.0000771  0.0000000  2
   2402   2388   2389   3999     1  180.0000771  0.0000000  2
   2403   2390   2383   2408     1  0.0000000  0.6508444  3
   2403   2390   2391   2405     1  0.0000000  0.6508444  3
   2403   2390   2391   2406     1  0.0000000  0.6508444  3
   2404   2390   2383   2408     1  0.0000000  0.6508444  3
   2404   2390   2391   2405     1  0.0000000  0.6508444  3
   2404   2390   2391   2406     1  0.0000000  0.6508444  3
   2405   2391   2392   2407     1  0.0000000  0.0000000  2
   2406   2391   2392   2407     1  0.0000000  0.0000000  2
   2409   2410   2412   2425     1  0.0000000  0.6508444  3
   2409   2410   2412   2426     1  0.0000000  0.6508444  3
   2409   2411   2414   2427     1  0.0000000  0.6508444  3
   2409   2411   2414   2428     1  0.0000000  0.6508444  3
   2409   2416   2417   2431     1  0.0000000  0.6508444  3
   2409   2416   2417   2432     1  0.0000000  0.6508444  3
   2410   2409   2411   2423     1  0.0000000  0.6508444  3
   2410   2409   2411   2424     1  0.0000000  0.6508444  3
   2410   2409   2416   2429     1  0.0000000  0.6508444  3
   2410   2409   2416   2430     1  0.0000000  0.6508444  3
   2411   2409   2410   2421     1  0.0000000  0.6508444  3
   2411   2409   2410   2422     1  0.0000000  0.6508444  3
   2411   2409   2416   2429     1  0.0000000  0.6508444  3
   2411   2409   2416   2430     1  0.0000000  0.6508444  3
   2412   2410   2409   2434     1  0.0000000  0.6508444  3
   2412   2413   4011   4012     1  180.0000771  10.4600000  2
   2413   2412   2410   2421     1  0.0000000  0.6508444  3
   2413   2412   2410   2422     1  0.0000000  0.6508444  3
   2413   4011   4013   4015     1  0.0000000  0.0000000  2
   2413   4011   4013   4016     1  0.0000000  0.0000000  2
   2414   2411   2409   2434     1  0.0000000  0.6508444  3
   2414   2415   4023   4024     1  180.0000771  10.4600000  2
   2415   2414   2411   2423     1  0.0000000  0.6508444  3
   2415   2414   2411   2424     1  0.0000000  0.6508444  3
   2415   4023   4025   4027     1  0.0000000  0.0000000  2
   2415   4023   4025   4028     1  0.0000000  0.0000000  2
   2416   2409   2410   2421     1  0.0000000  0.6508444  3
   2416   2409   2410   2422     1  0.0000000  0.6508444  3
   2416   2409   2411   2423     1  0.0000000  0.6508444  3
   2416   2409   2411   2424     1  0.0000000  0.6508444  3
   2416   2417   2418   2433     1  0.0000000  0.0000000  2
   2417   2416   2409   2434     1  0.0000000  0.6508444  3
   2418   2417   2416   2429     1  0.0000000  0.6508444  3
   2418   2417   2416   2430     1  0.0000000  0.6508444  3
   2419   2413   2412   2425     1  0.0000000  3.3472000  1
   2419   2413   2412   2425     1  0.0000000  0.0000000  2
   2419   2413   2412   2425     1  180.0000771  0.3347200  3
   2419   2413   2412   2426     1  0.0000000  3.3472000  1
   2419   2413   2412   2426     1  0.0000000  0.0000000  2
   2419   2413   2412   2426     1  180.0000771  0.3347200  3
   2419   2413   4011   4012     1  0.0000000  8.3680000  1
   2419   2413   4011   4012     1  180.0000771  10.4600000  2
   2420   2415   2414   2427     1  0.0000000  3.3472000  1
   2420   2415   2414   2427     1  0.0000000  0.0000000  2
   2420   2415   2414   2427     1  180.0000771  0.3347200  3
   2420   2415   2414   2428     1  0.0000000  3.3472000  1
   2420   2415   2414   2428     1  0.0000000  0.0000000  2
   2420   2415   2414   2428     1  180.0000771  0.3347200  3
   2420   2415   4023   4024     1  0.0000000  8.3680000  1
   2420   2415   4023   4024     1  180.0000771  10.4600000  2
   2421   2410   2409   2434     1  0.0000000  0.6508444  3
   2421   2410   2412   2425     1  0.0000000  0.6508444  3
   2421   2410   2412   2426     1  0.0000000  0.6508444  3
   2422   2410   2409   2434     1  0.0000000  0.6508444  3
   2422   2410   2412   2425     1  0.0000000  0.6508444  3
   2422   2410   2412   2426     1  0.0000000  0.6508444  3
   2423   2411   2409   2434     1  0.0000000  0.6508444  3
   2423   2411   2414   2427     1  0.0000000  0.6508444  3
   2423   2411   2414   2428     1  0.0000000  0.6508444  3
   2424   2411   2409   2434     1  0.0000000  0.6508444  3
   2424   2411   2414   2427     1  0.0000000  0.6508444  3
   2424   2411   2414   2428     1  0.0000000  0.6508444  3
   2425   2412   2413   4011     1  180.0000771  0.0000000  2
   2426   2412   2413   4011     1  180.0000771  0.0000000  2
   2427   2414   2415   4023     1  180.0000771  0.0000000  2
   2428   2414   2415   4023     1  180.0000771  0.0000000  2
   2429   2416   2409   2434     1  0.0000000  0.6508444  3
   2429   2416   2417   2431     1  0.0000000  0.6508444  3
   2429   2416   2417   2432     1  0.0000000  0.6508444  3
   2430   2416   2409   2434     1  0.0000000  0.6508444  3
   2430   2416   2417   2431     1  0.0000000  0.6508444  3
   2430   2416   2417   2432     1  0.0000000  0.6508444  3
   2431   2417   2418   2433     1  0.0000000  0.0000000  2
   2432   2417   2418   2433     1  0.0000000  0.0000000  2
   2435   2436   2438   2451     1  0.0000000  0.6508444  3
   2435   2436   2438   2452     1  0.0000000  0.6508444  3
   2435   2437   2440   2453     1  0.0000000  0.6508444  3
   2435   2437   2440   2454     1  0.0000000  0.6508444  3
   2435   2442   2443   2457     1  0.0000000  0.6508444  3
   2435   2442   2443   2458     1  0.0000000  0.6508444  3
   2436   2435   2437   2449     1  0.0000000  0.6508444  3
   2436   2435   2437   2450     1  0.0000000  0.6508444  3
   2436   2435   2442   2455     1  0.0000000  0.6508444  3
   2436   2435   2442   2456     1  0.0000000  0.6508444  3
   2437   2435   2436   2447     1  0.0000000  0.6508444  3
   2437   2435   2436   2448     1  0.0000000  0.6508444  3
   2437   2435   2442   2455     1  0.0000000  0.6508444  3
   2437   2435   2442   2456     1  0.0000000  0.6508444  3
   2438   2436   2435   2460     1  0.0000000  0.6508444  3
   2438   2439   4035   4036     1  180.0000771  10.4600000  2
   2439   2438   2436   2447     1  0.0000000  0.6508444  3
   2439   2438   2436   2448     1  0.0000000  0.6508444  3
   2439   4035   4037   4039     1  0.0000000  0.0000000  2
   2439   4035   4037   4040     1  0.0000000  0.0000000  2
   2440   2437   2435   2460     1  0.0000000  0.6508444  3
   2440   2441   4047   4048     1  180.0000771  10.4600000  2
   2441   2440   2437   2449     1  0.0000000  0.6508444  3
   2441   2440   2437   2450     1  0.0000000  0.6508444  3
   2441   4047   4049   4051     1  0.0000000  0.0000000  2
   2441   4047   4049   4052     1  0.0000000  0.0000000  2
   2442   2435   2436   2447     1  0.0000000  0.6508444  3
   2442   2435   2436   2448     1  0.0000000  0.6508444  3
   2442   2435   2437   2449     1  0.0000000  0.6508444  3
   2442   2435   2437   2450     1  0.0000000  0.6508444  3
   2442   2443   2444   2459     1  0.0000000  0.0000000  2
   2443   2442   2435   2460     1  0.0000000  0.6508444  3
   2444   2443   2442   2455     1  0.0000000  0.6508444  3
   2444   2443   2442   2456     1  0.0000000  0.6508444  3
   2445   2439   2438   2451     1  0.0000000  3.3472000  1
   2445   2439   2438   2451     1  0.0000000  0.0000000  2
   2445   2439   2438   2451     1  180.0000771  0.3347200  3
   2445   2439   2438   2452     1  0.0000000  3.3472000  1
   2445   2439   2438   2452     1  0.0000000  0.0000000  2
   2445   2439   2438   2452     1  180.0000771  0.3347200  3
   2445   2439   4035   4036     1  0.0000000  8.3680000  1
   2445   2439   4035   4036     1  180.0000771  10.4600000  2
   2446   2441   2440   2453     1  0.0000000  3.3472000  1
   2446   2441   2440   2453     1  0.0000000  0.0000000  2
   2446   2441   2440   2453     1  180.0000771  0.3347200  3
   2446   2441   2440   2454     1  0.0000000  3.3472000  1
   2446   2441   2440   2454     1  0.0000000  0.0000000  2
   2446   2441   2440   2454     1  180.0000771  0.3347200  3
   2446   2441   4047   4048     1  0.0000000  8.3680000  1
   2446   2441   4047   4048     1  180.0000771  10.4600000  2
   2447   2436   2435   2460     1  0.0000000  0.6508444  3
   2447   2436   2438   2451     1  0.0000000  0.6508444  3
   2447   2436   2438   2452     1  0.0000000  0.6508444  3
   2448   2436   2435   2460     1  0.0000000  0.6508444  3
   2448   2436   2438   2451     1  0.0000000  0.6508444  3
   2448   2436   2438   2452     1  0.0000000  0.6508444  3
   2449   2437   2435   2460     1  0.0000000  0.6508444  3
   2449   2437   2440   2453     1  0.0000000  0.6508444  3
   2449   2437   2440   2454     1  0.0000000  0.6508444  3
   2450   2437   2435   2460     1  0.0000000  0.6508444  3
   2450   2437   2440   2453     1  0.0000000  0.6508444  3
   2450   2437   2440   2454     1  0.0000000  0.6508444  3
   2451   2438   2439   4035     1  180.0000771  0.0000000  2
   2452   2438   2439   4035     1  180.0000771  0.0000000  2
   2453   2440   2441   4047     1  180.0000771  0.0000000  2
   2454   2440   2441   4047     1  180.0000771  0.0000000  2
   2455   2442   2435   2460     1  0.0000000  0.6508444  3
   2455   2442   2443   2457     1  0.0000000  0.6508444  3
   2455   2442   2443   2458     1  0.0000000  0.6508444  3
   2456   2442   2435   2460     1  0.0000000  0.6508444  3
   2456   2442   2443   2457     1  0.0000000  0.6508444  3
   2456   2442   2443   2458     1  0.0000000  0.6508444  3
   2457   2443   2444   2459     1  0.0000000  0.0000000  2
   2458   2443   2444   2459     1  0.0000000  0.0000000  2
   2461   2462   2464   2477     1  0.0000000  0.6508444  3
   2461   2462   2464   2478     1  0.0000000  0.6508444  3
   2461   2463   2466   2479     1  0.0000000  0.6508444  3
   2461   2463   2466   2480     1  0.0000000  0.6508444  3
   2461   2468   2469   2483     1  0.0000000  0.6508444  3
   2461   2468   2469   2484     1  0.0000000  0.6508444  3
   2462   2461   2463   2475     1  0.0000000  0.6508444  3
   2462   2461   2463   2476     1  0.0000000  0.6508444  3
   2462   2461   2468   2481     1  0.0000000  0.6508444  3
   2462   2461   2468   2482     1  0.0000000  0.6508444  3
   2463   2461   2462   2473     1  0.0000000  0.6508444  3
   2463   2461   2462   2474     1  0.0000000  0.6508444  3
   2463   2461   2468   2481     1  0.0000000  0.6508444  3
   2463   2461   2468   2482     1  0.0000000  0.6508444  3
   2464   2462   2461   2486     1  0.0000000  0.6508444  3
   2464   2465   4059   4060     1  180.0000771  10.4600000  2
   2465   2464   2462   2473     1  0.0000000  0.6508444  3
   2465   2464   2462   2474     1  0.0000000  0.6508444  3
   2465   4059   4061   4063     1  0.0000000  0.0000000  2
   2465   4059   4061   4064     1  0.0000000  0.0000000  2
   2466   2463   2461   2486     1  0.0000000  0.6508444  3
   2466   2467   4071   4072     1  180.0000771  10.4600000  2
   2467   2466   2463   2475     1  0.0000000  0.6508444  3
   2467   2466   2463   2476     1  0.0000000  0.6508444  3
   2467   4071   4073   4075     1  0.0000000  0.0000000  2
   2467   4071   4073   4076     1  0.0000000  0.0000000  2
   2468   2461   2462   2473     1  0.0000000  0.6508444  3
   2468   2461   2462   2474     1  0.0000000  0.6508444  3
   2468   2461   2463   2475     1  0.0000000  0.6508444  3
   2468   2461   2463   2476     1  0.0000000  0.6508444  3
   2468   2469   2470   2485     1  0.0000000  0.0000000  2
   2469   2468   2461   2486     1  0.0000000  0.6508444  3
   2470   2469   2468   2481     1  0.0000000  0.6508444  3
   2470   2469   2468   2482     1  0.0000000  0.6508444  3
   2471   2465   2464   2477     1  0.0000000  3.3472000  1
   2471   2465   2464   2477     1  0.0000000  0.0000000  2
   2471   2465   2464   2477     1  180.0000771  0.3347200  3
   2471   2465   2464   2478     1  0.0000000  3.3472000  1
   2471   2465   2464   2478     1  0.0000000  0.0000000  2
   2471   2465   2464   2478     1  180.0000771  0.3347200  3
   2471   2465   4059   4060     1  0.0000000  8.3680000  1
   2471   2465   4059   4060     1  180.0000771  10.4600000  2
   2472   2467   2466   2479     1  0.0000000  3.3472000  1
   2472   2467   2466   2479     1  0.0000000  0.0000000  2
   2472   2467   2466   2479     1  180.0000771  0.3347200  3
   2472   2467   2466   2480     1  0.0000000  3.3472000  1
   2472   2467   2466   2480     1  0.0000000  0.0000000  2
   2472   2467   2466   2480     1  180.0000771  0.3347200  3
   2472   2467   4071   4072     1  0.0000000  8.3680000  1
   2472   2467   4071   4072     1  180.0000771  10.4600000  2
   2473   2462   2461   2486     1  0.0000000  0.6508444  3
   2473   2462   2464   2477     1  0.0000000  0.6508444  3
   2473   2462   2464   2478     1  0.0000000  0.6508444  3
   2474   2462   2461   2486     1  0.0000000  0.6508444  3
   2474   2462   2464   2477     1  0.0000000  0.6508444  3
   2474   2462   2464   2478     1  0.0000000  0.6508444  3
   2475   2463   2461   2486     1  0.0000000  0.6508444  3
   2475   2463   2466   2479     1  0.0000000  0.6508444  3
   2475   2463   2466   2480     1  0.0000000  0.6508444  3
   2476   2463   2461   2486     1  0.0000000  0.6508444  3
   2476   2463   2466   2479     1  0.0000000  0.6508444  3
   2476   2463   2466   2480     1  0.0000000  0.6508444  3
   2477   2464   2465   4059     1  180.0000771  0.0000000  2
   2478   2464   2465   4059     1  180.0000771  0.0000000  2
   2479   2466   2467   4071     1  180.0000771  0.0000000  2
   2480   2466   2467   4071     1  180.0000771  0.0000000  2
   2481   2468   2461   2486     1  0.0000000  0.6508444  3
   2481   2468   2469   2483     1  0.0000000  0.6508444  3
   2481   2468   2469   2484     1  0.0000000  0.6508444  3
   2482   2468   2461   2486     1  0.0000000  0.6508444  3
   2482   2468   2469   2483     1  0.0000000  0.6508444  3
   2482   2468   2469   2484     1  0.0000000  0.6508444  3
   2483   2469   2470   2485     1  0.0000000  0.0000000  2
   2484   2469   2470   2485     1  0.0000000  0.0000000  2
   2487   2488   2490   2503     1  0.0000000  0.6508444  3
   2487   2488   2490   2504     1  0.0000000  0.6508444  3
   2487   2489   2492   2505     1  0.0000000  0.6508444  3
   2487   2489   2492   2506     1  0.0000000  0.6508444  3
   2487   2494   2495   2509     1  0.0000000  0.6508444  3
   2487   2494   2495   2510     1  0.0000000  0.6508444  3
   2488   2487   2489   2501     1  0.0000000  0.6508444  3
   2488   2487   2489   2502     1  0.0000000  0.6508444  3
   2488   2487   2494   2507     1  0.0000000  0.6508444  3
   2488   2487   2494   2508     1  0.0000000  0.6508444  3
   2489   2487   2488   2499     1  0.0000000  0.6508444  3
   2489   2487   2488   2500     1  0.0000000  0.6508444  3
   2489   2487   2494   2507     1  0.0000000  0.6508444  3
   2489   2487   2494   2508     1  0.0000000  0.6508444  3
   2490   2488   2487   2512     1  0.0000000  0.6508444  3
   2490   2491   4083   4084     1  180.0000771  10.4600000  2
   2491   2490   2488   2499     1  0.0000000  0.6508444  3
   2491   2490   2488   2500     1  0.0000000  0.6508444  3
   2491   4083   4085   4087     1  0.0000000  0.0000000  2
   2491   4083   4085   4088     1  0.0000000  0.0000000  2
   2492   2489   2487   2512     1  0.0000000  0.6508444  3
   2492   2493   4095   4096     1  180.0000771  10.4600000  2
   2493   2492   2489   2501     1  0.0000000  0.6508444  3
   2493   2492   2489   2502     1  0.0000000  0.6508444  3
   2493   4095   4097   4099     1  0.0000000  0.0000000  2
   2493   4095   4097   4100     1  0.0000000  0.0000000  2
   2494   2487   2488   2499     1  0.0000000  0.6508444  3
   2494   2487   2488   2500     1  0.0000000  0.6508444  3
   2494   2487   2489   2501     1  0.0000000  0.6508444  3
   2494   2487   2489   2502     1  0.0000000  0.6508444  3
   2494   2495   2496   2511     1  0.0000000  0.0000000  2
   2495   2494   2487   2512     1  0.0000000  0.6508444  3
   2496   2495   2494   2507     1  0.0000000  0.6508444  3
   2496   2495   2494   2508     1  0.0000000  0.6508444  3
   2497   2491   2490   2503     1  0.0000000  3.3472000  1
   2497   2491   2490   2503     1  0.0000000  0.0000000  2
   2497   2491   2490   2503     1  180.0000771  0.3347200  3
   2497   2491   2490   2504     1  0.0000000  3.3472000  1
   2497   2491   2490   2504     1  0.0000000  0.0000000  2
   2497   2491   2490   2504     1  180.0000771  0.3347200  3
   2497   2491   4083   4084     1  0.0000000  8.3680000  1
   2497   2491   4083   4084     1  180.0000771  10.4600000  2
   2498   2493   2492   2505     1  0.0000000  3.3472000  1
   2498   2493   2492   2505     1  0.0000000  0.0000000  2
   2498   2493   2492   2505     1  180.0000771  0.3347200  3
   2498   2493   2492   2506     1  0.0000000  3.3472000  1
   2498   2493   2492   2506     1  0.0000000  0.0000000  2
   2498   2493   2492   2506     1  180.0000771  0.3347200  3
   2498   2493   4095   4096     1  0.0000000  8.3680000  1
   2498   2493   4095   4096     1  180.0000771  10.4600000  2
   2499   2488   2487   2512     1  0.0000000  0.6508444  3
   2499   2488   2490   2503     1  0.0000000  0.6508444  3
   2499   2488   2490   2504     1  0.0000000  0.6508444  3
   2500   2488   2487   2512     1  0.0000000  0.6508444  3
   2500   2488   2490   2503     1  0.0000000  0.6508444  3
   2500   2488   2490   2504     1  0.0000000  0.6508444  3
   2501   2489   2487   2512     1  0.0000000  0.6508444  3
   2501   2489   2492   2505     1  0.0000000  0.6508444  3
   2501   2489   2492   2506     1  0.0000000  0.6508444  3
   2502   2489   2487   2512     1  0.0000000  0.6508444  3
   2502   2489   2492   2505     1  0.0000000  0.6508444  3
   2502   2489   2492   2506     1  0.0000000  0.6508444  3
   2503   2490   2491   4083     1  180.0000771  0.0000000  2
   2504   2490   2491   4083     1  180.0000771  0.0000000  2
   2505   2492   2493   4095     1  180.0000771  0.0000000  2
   2506   2492   2493   4095     1  180.0000771  0.0000000  2
   2507   2494   2487   2512     1  0.0000000  0.6508444  3
   2507   2494   2495   2509     1  0.0000000  0.6508444  3
   2507   2494   2495   2510     1  0.0000000  0.6508444  3
   2508   2494   2487   2512     1  0.0000000  0.6508444  3
   2508   2494   2495   2509     1  0.0000000  0.6508444  3
   2508   2494   2495   2510     1  0.0000000  0.6508444  3
   2509   2495   2496   2511     1  0.0000000  0.0000000  2
   2510   2495   2496   2511     1  0.0000000  0.0000000  2
   2513   2514   2516   2529     1  0.0000000  0.6508444  3
   2513   2514   2516   2530     1  0.0000000  0.6508444  3
   2513   2515   2518   2531     1  0.0000000  0.6508444  3
   2513   2515   2518   2532     1  0.0000000  0.6508444  3
   2513   2520   2521   2535     1  0.0000000  0.6508444  3
   2513   2520   2521   2536     1  0.0000000  0.6508444  3
   2514   2513   2515   2527     1  0.0000000  0.6508444  3
   2514   2513   2515   2528     1  0.0000000  0.6508444  3
   2514   2513   2520   2533     1  0.0000000  0.6508444  3
   2514   2513   2520   2534     1  0.0000000  0.6508444  3
   2515   2513   2514   2525     1  0.0000000  0.6508444  3
   2515   2513   2514   2526     1  0.0000000  0.6508444  3
   2515   2513   2520   2533     1  0.0000000  0.6508444  3
   2515   2513   2520   2534     1  0.0000000  0.6508444  3
   2516   2514   2513   2538     1  0.0000000  0.6508444  3
   2516   2517   4107   4108     1  180.0000771  10.4600000  2
   2517   2516   2514   2525     1  0.0000000  0.6508444  3
   2517   2516   2514   2526     1  0.0000000  0.6508444  3
   2517   4107   4109   4111     1  0.0000000  0.0000000  2
   2517   4107   4109   4112     1  0.0000000  0.0000000  2
   2518   2515   2513   2538     1  0.0000000  0.6508444  3
   2518   2519   4119   4120     1  180.0000771  10.4600000  2
   2519   2518   2515   2527     1  0.0000000  0.6508444  3
   2519   2518   2515   2528     1  0.0000000  0.6508444  3
   2519   4119   4121   4123     1  0.0000000  0.0000000  2
   2519   4119   4121   4124     1  0.0000000  0.0000000  2
   2520   2513   2514   2525     1  0.0000000  0.6508444  3
   2520   2513   2514   2526     1  0.0000000  0.6508444  3
   2520   2513   2515   2527     1  0.0000000  0.6508444  3
   2520   2513   2515   2528     1  0.0000000  0.6508444  3
   2520   2521   2522   2537     1  0.0000000  0.0000000  2
   2521   2520   2513   2538     1  0.0000000  0.6508444  3
   2522   2521   2520   2533     1  0.0000000  0.6508444  3
   2522   2521   2520   2534     1  0.0000000  0.6508444  3
   2523   2517   2516   2529     1  0.0000000  3.3472000  1
   2523   2517   2516   2529     1  0.0000000  0.0000000  2
   2523   2517   2516   2529     1  180.0000771  0.3347200  3
   2523   2517   2516   2530     1  0.0000000  3.3472000  1
   2523   2517   2516   2530     1  0.0000000  0.0000000  2
   2523   2517   2516   2530     1  180.0000771  0.3347200  3
   2523   2517   4107   4108     1  0.0000000  8.3680000  1
   2523   2517   4107   4108     1  180.0000771  10.4600000  2
   2524   2519   2518   2531     1  0.0000000  3.3472000  1
   2524   2519   2518   2531     1  0.0000000  0.0000000  2
   2524   2519   2518   2531     1  180.0000771  0.3347200  3
   2524   2519   2518   2532     1  0.0000000  3.3472000  1
   2524   2519   2518   2532     1  0.0000000  0.0000000  2
   2524   2519   2518   2532     1  180.0000771  0.3347200  3
   2524   2519   4119   4120     1  0.0000000  8.3680000  1
   2524   2519   4119   4120     1  180.0000771  10.4600000  2
   2525   2514   2513   2538     1  0.0000000  0.6508444  3
   2525   2514   2516   2529     1  0.0000000  0.6508444  3
   2525   2514   2516   2530     1  0.0000000  0.6508444  3
   2526   2514   2513   2538     1  0.0000000  0.6508444  3
   2526   2514   2516   2529     1  0.0000000  0.6508444  3
   2526   2514   2516   2530     1  0.0000000  0.6508444  3
   2527   2515   2513   2538     1  0.0000000  0.6508444  3
   2527   2515   2518   2531     1  0.0000000  0.6508444  3
   2527   2515   2518   2532     1  0.0000000  0.6508444  3
   2528   2515   2513   2538     1  0.0000000  0.6508444  3
   2528   2515   2518   2531     1  0.0000000  0.6508444  3
   2528   2515   2518   2532     1  0.0000000  0.6508444  3
   2529   2516   2517   4107     1  180.0000771  0.0000000  2
   2530   2516   2517   4107     1  180.0000771  0.0000000  2
   2531   2518   2519   4119     1  180.0000771  0.0000000  2
   2532   2518   2519   4119     1  180.0000771  0.0000000  2
   2533   2520   2513   2538     1  0.0000000  0.6508444  3
   2533   2520   2521   2535     1  0.0000000  0.6508444  3
   2533   2520   2521   2536     1  0.0000000  0.6508444  3
   2534   2520   2513   2538     1  0.0000000  0.6508444  3
   2534   2520   2521   2535     1  0.0000000  0.6508444  3
   2534   2520   2521   2536     1  0.0000000  0.6508444  3
   2535   2521   2522   2537     1  0.0000000  0.0000000  2
   2536   2521   2522   2537     1  0.0000000  0.0000000  2
   2539   2540   2542   2555     1  0.0000000  0.6508444  3
   2539   2540   2542   2556     1  0.0000000  0.6508444  3
   2539   2541   2544   2557     1  0.0000000  0.6508444  3
   2539   2541   2544   2558     1  0.0000000  0.6508444  3
   2539   2546   2547   2561     1  0.0000000  0.6508444  3
   2539   2546   2547   2562     1  0.0000000  0.6508444  3
   2540   2539   2541   2553     1  0.0000000  0.6508444  3
   2540   2539   2541   2554     1  0.0000000  0.6508444  3
   2540   2539   2546   2559     1  0.0000000  0.6508444  3
   2540   2539   2546   2560     1  0.0000000  0.6508444  3
   2541   2539   2540   2551     1  0.0000000  0.6508444  3
   2541   2539   2540   2552     1  0.0000000  0.6508444  3
   2541   2539   2546   2559     1  0.0000000  0.6508444  3
   2541   2539   2546   2560     1  0.0000000  0.6508444  3
   2542   2540   2539   2564     1  0.0000000  0.6508444  3
   2542   2543   4131   4132     1  180.0000771  10.4600000  2
   2543   2542   2540   2551     1  0.0000000  0.6508444  3
   2543   2542   2540   2552     1  0.0000000  0.6508444  3
   2543   4131   4133   4135     1  0.0000000  0.0000000  2
   2543   4131   4133   4136     1  0.0000000  0.0000000  2
   2544   2541   2539   2564     1  0.0000000  0.6508444  3
   2544   2545   4143   4144     1  180.0000771  10.4600000  2
   2545   2544   2541   2553     1  0.0000000  0.6508444  3
   2545   2544   2541   2554     1  0.0000000  0.6508444  3
   2545   4143   4145   4147     1  0.0000000  0.0000000  2
   2545   4143   4145   4148     1  0.0000000  0.0000000  2
   2546   2539   2540   2551     1  0.0000000  0.6508444  3
   2546   2539   2540   2552     1  0.0000000  0.6508444  3
   2546   2539   2541   2553     1  0.0000000  0.6508444  3
   2546   2539   2541   2554     1  0.0000000  0.6508444  3
   2546   2547   2548   2563     1  0.0000000  0.0000000  2
   2547   2546   2539   2564     1  0.0000000  0.6508444  3
   2548   2547   2546   2559     1  0.0000000  0.6508444  3
   2548   2547   2546   2560     1  0.0000000  0.6508444  3
   2549   2543   2542   2555     1  0.0000000  3.3472000  1
   2549   2543   2542   2555     1  0.0000000  0.0000000  2
   2549   2543   2542   2555     1  180.0000771  0.3347200  3
   2549   2543   2542   2556     1  0.0000000  3.3472000  1
   2549   2543   2542   2556     1  0.0000000  0.0000000  2
   2549   2543   2542   2556     1  180.0000771  0.3347200  3
   2549   2543   4131   4132     1  0.0000000  8.3680000  1
   2549   2543   4131   4132     1  180.0000771  10.4600000  2
   2550   2545   2544   2557     1  0.0000000  3.3472000  1
   2550   2545   2544   2557     1  0.0000000  0.0000000  2
   2550   2545   2544   2557     1  180.0000771  0.3347200  3
   2550   2545   2544   2558     1  0.0000000  3.3472000  1
   2550   2545   2544   2558     1  0.0000000  0.0000000  2
   2550   2545   2544   2558     1  180.0000771  0.3347200  3
   2550   2545   4143   4144     1  0.0000000  8.3680000  1
   2550   2545   4143   4144     1  180.0000771  10.4600000  2
   2551   2540   2539   2564     1  0.0000000  0.6508444  3
   2551   2540   2542   2555     1  0.0000000  0.6508444  3
   2551   2540   2542   2556     1  0.0000000  0.6508444  3
   2552   2540   2539   2564     1  0.0000000  0.6508444  3
   2552   2540   2542   2555     1  0.0000000  0.6508444  3
   2552   2540   2542   2556     1  0.0000000  0.6508444  3
   2553   2541   2539   2564     1  0.0000000  0.6508444  3
   2553   2541   2544   2557     1  0.0000000  0.6508444  3
   2553   2541   2544   2558     1  0.0000000  0.6508444  3
   2554   2541   2539   2564     1  0.0000000  0.6508444  3
   2554   2541   2544   2557     1  0.0000000  0.6508444  3
   2554   2541   2544   2558     1  0.0000000  0.6508444  3
   2555   2542   2543   4131     1  180.0000771  0.0000000  2
   2556   2542   2543   4131     1  180.0000771  0.0000000  2
   2557   2544   2545   4143     1  180.0000771  0.0000000  2
   2558   2544   2545   4143     1  180.0000771  0.0000000  2
   2559   2546   2539   2564     1  0.0000000  0.6508444  3
   2559   2546   2547   2561     1  0.0000000  0.6508444  3
   2559   2546   2547   2562     1  0.0000000  0.6508444  3
   2560   2546   2539   2564     1  0.0000000  0.6508444  3
   2560   2546   2547   2561     1  0.0000000  0.6508444  3
   2560   2546   2547   2562     1  0.0000000  0.6508444  3
   2561   2547   2548   2563     1  0.0000000  0.0000000  2
   2562   2547   2548   2563     1  0.0000000  0.0000000  2
   2565   2566   2568   2581     1  0.0000000  0.6508444  3
   2565   2566   2568   2582     1  0.0000000  0.6508444  3
   2565   2567   2570   2583     1  0.0000000  0.6508444  3
   2565   2567   2570   2584     1  0.0000000  0.6508444  3
   2565   2572   2573   2587     1  0.0000000  0.6508444  3
   2565   2572   2573   2588     1  0.0000000  0.6508444  3
   2566   2565   2567   2579     1  0.0000000  0.6508444  3
   2566   2565   2567   2580     1  0.0000000  0.6508444  3
   2566   2565   2572   2585     1  0.0000000  0.6508444  3
   2566   2565   2572   2586     1  0.0000000  0.6508444  3
   2567   2565   2566   2577     1  0.0000000  0.6508444  3
   2567   2565   2566   2578     1  0.0000000  0.6508444  3
   2567   2565   2572   2585     1  0.0000000  0.6508444  3
   2567   2565   2572   2586     1  0.0000000  0.6508444  3
   2568   2566   2565   2590     1  0.0000000  0.6508444  3
   2568   2569   4155   4156     1  180.0000771  10.4600000  2
   2569   2568   2566   2577     1  0.0000000  0.6508444  3
   2569   2568   2566   2578     1  0.0000000  0.6508444  3
   2569   4155   4157   4159     1  0.0000000  0.0000000  2
   2569   4155   4157   4160     1  0.0000000  0.0000000  2
   2570   2567   2565   2590     1  0.0000000  0.6508444  3
   2570   2571   4167   4168     1  180.0000771  10.4600000  2
   2571   2570   2567   2579     1  0.0000000  0.6508444  3
   2571   2570   2567   2580     1  0.0000000  0.6508444  3
   2571   4167   4169   4171     1  0.0000000  0.0000000  2
   2571   4167   4169   4172     1  0.0000000  0.0000000  2
   2572   2565   2566   2577     1  0.0000000  0.6508444  3
   2572   2565   2566   2578     1  0.0000000  0.6508444  3
   2572   2565   2567   2579     1  0.0000000  0.6508444  3
   2572   2565   2567   2580     1  0.0000000  0.6508444  3
   2572   2573   2574   2589     1  0.0000000  0.0000000  2
   2573   2572   2565   2590     1  0.0000000  0.6508444  3
   2574   2573   2572   2585     1  0.0000000  0.6508444  3
   2574   2573   2572   2586     1  0.0000000  0.6508444  3
   2575   2569   2568   2581     1  0.0000000  3.3472000  1
   2575   2569   2568   2581     1  0.0000000  0.0000000  2
   2575   2569   2568   2581     1  180.0000771  0.3347200  3
   2575   2569   2568   2582     1  0.0000000  3.3472000  1
   2575   2569   2568   2582     1  0.0000000  0.0000000  2
   2575   2569   2568   2582     1  180.0000771  0.3347200  3
   2575   2569   4155   4156     1  0.0000000  8.3680000  1
   2575   2569   4155   4156     1  180.0000771  10.4600000  2
   2576   2571   2570   2583     1  0.0000000  3.3472000  1
   2576   2571   2570   2583     1  0.0000000  0.0000000  2
   2576   2571   2570   2583     1  180.0000771  0.3347200  3
   2576   2571   2570   2584     1  0.0000000  3.3472000  1
   2576   2571   2570   2584     1  0.0000000  0.0000000  2
   2576   2571   2570   2584     1  180.0000771  0.3347200  3
   2576   2571   4167   4168     1  0.0000000  8.3680000  1
   2576   2571   4167   4168     1  180.0000771  10.4600000  2
   2577   2566   2565   2590     1  0.0000000  0.6508444  3
   2577   2566   2568   2581     1  0.0000000  0.6508444  3
   2577   2566   2568   2582     1  0.0000000  0.6508444  3
   2578   2566   2565   2590     1  0.0000000  0.6508444  3
   2578   2566   2568   2581     1  0.0000000  0.6508444  3
   2578   2566   2568   2582     1  0.0000000  0.6508444  3
   2579   2567   2565   2590     1  0.0000000  0.6508444  3
   2579   2567   2570   2583     1  0.0000000  0.6508444  3
   2579   2567   2570   2584     1  0.0000000  0.6508444  3
   2580   2567   2565   2590     1  0.0000000  0.6508444  3
   2580   2567   2570   2583     1  0.0000000  0.6508444  3
   2580   2567   2570   2584     1  0.0000000  0.6508444  3
   2581   2568   2569   4155     1  180.0000771  0.0000000  2
   2582   2568   2569   4155     1  180.0000771  0.0000000  2
   2583   2570   2571   4167     1  180.0000771  0.0000000  2
   2584   2570   2571   4167     1  180.0000771  0.0000000  2
   2585   2572   2565   2590     1  0.0000000  0.6508444  3
   2585   2572   2573   2587     1  0.0000000  0.6508444  3
   2585   2572   2573   2588     1  0.0000000  0.6508444  3
   2586   2572   2565   2590     1  0.0000000  0.6508444  3
   2586   2572   2573   2587     1  0.0000000  0.6508444  3
   2586   2572   2573   2588     1  0.0000000  0.6508444  3
   2587   2573   2574   2589     1  0.0000000  0.0000000  2
   2588   2573   2574   2589     1  0.0000000  0.0000000  2
   2591   2592   2594   2607     1  0.0000000  0.6508444  3
   2591   2592   2594   2608     1  0.0000000  0.6508444  3
   2591   2593   2596   2609     1  0.0000000  0.6508444  3
   2591   2593   2596   2610     1  0.0000000  0.6508444  3
   2591   2598   2599   2613     1  0.0000000  0.6508444  3
   2591   2598   2599   2614     1  0.0000000  0.6508444  3
   2592   2591   2593   2605     1  0.0000000  0.6508444  3
   2592   2591   2593   2606     1  0.0000000  0.6508444  3
   2592   2591   2598   2611     1  0.0000000  0.6508444  3
   2592   2591   2598   2612     1  0.0000000  0.6508444  3
   2593   2591   2592   2603     1  0.0000000  0.6508444  3
   2593   2591   2592   2604     1  0.0000000  0.6508444  3
   2593   2591   2598   2611     1  0.0000000  0.6508444  3
   2593   2591   2598   2612     1  0.0000000  0.6508444  3
   2594   2592   2591   2616     1  0.0000000  0.6508444  3
   2594   2595   4179   4180     1  180.0000771  10.4600000  2
   2595   2594   2592   2603     1  0.0000000  0.6508444  3
   2595   2594   2592   2604     1  0.0000000  0.6508444  3
   2595   4179   4181   4183     1  0.0000000  0.0000000  2
   2595   4179   4181   4184     1  0.0000000  0.0000000  2
   2596   2593   2591   2616     1  0.0000000  0.6508444  3
   2596   2597   4191   4192     1  180.0000771  10.4600000  2
   2597   2596   2593   2605     1  0.0000000  0.6508444  3
   2597   2596   2593   2606     1  0.0000000  0.6508444  3
   2597   4191   4193   4195     1  0.0000000  0.0000000  2
   2597   4191   4193   4196     1  0.0000000  0.0000000  2
   2598   2591   2592   2603     1  0.0000000  0.6508444  3
   2598   2591   2592   2604     1  0.0000000  0.6508444  3
   2598   2591   2593   2605     1  0.0000000  0.6508444  3
   2598   2591   2593   2606     1  0.0000000  0.6508444  3
   2598   2599   2600   2615     1  0.0000000  0.0000000  2
   2599   2598   2591   2616     1  0.0000000  0.6508444  3
   2600   2599   2598   2611     1  0.0000000  0.6508444  3
   2600   2599   2598   2612     1  0.0000000  0.6508444  3
   2601   2595   2594   2607     1  0.0000000  3.3472000  1
   2601   2595   2594   2607     1  0.0000000  0.0000000  2
   2601   2595   2594   2607     1  180.0000771  0.3347200  3
   2601   2595   2594   2608     1  0.0000000  3.3472000  1
   2601   2595   2594   2608     1  0.0000000  0.0000000  2
   2601   2595   2594   2608     1  180.0000771  0.3347200  3
   2601   2595   4179   4180     1  0.0000000  8.3680000  1
   2601   2595   4179   4180     1  180.0000771  10.4600000  2
   2602   2597   2596   2609     1  0.0000000  3.3472000  1
   2602   2597   2596   2609     1  0.0000000  0.0000000  2
   2602   2597   2596   2609     1  180.0000771  0.3347200  3
   2602   2597   2596   2610     1  0.0000000  3.3472000  1
   2602   2597   2596   2610     1  0.0000000  0.0000000  2
   2602   2597   2596   2610     1  180.0000771  0.3347200  3
   2602   2597   4191   4192     1  0.0000000  8.3680000  1
   2602   2597   4191   4192     1  180.0000771  10.4600000  2
   2603   2592   2591   2616     1  0.0000000  0.6508444  3
   2603   2592   2594   2607     1  0.0000000  0.6508444  3
   2603   2592   2594   2608     1  0.0000000  0.6508444  3
   2604   2592   2591   2616     1  0.0000000  0.6508444  3
   2604   2592   2594   2607     1  0.0000000  0.6508444  3
   2604   2592   2594   2608     1  0.0000000  0.6508444  3
   2605   2593   2591   2616     1  0.0000000  0.6508444  3
   2605   2593   2596   2609     1  0.0000000  0.6508444  3
   2605   2593   2596   2610     1  0.0000000  0.6508444  3
   2606   2593   2591   2616     1  0.0000000  0.6508444  3
   2606   2593   2596   2609     1  0.0000000  0.6508444  3
   2606   2593   2596   2610     1  0.0000000  0.6508444  3
   2607   2594   2595   4179     1  180.0000771  0.0000000  2
   2608   2594   2595   4179     1  180.0000771  0.0000000  2
   2609   2596   2597   4191     1  180.0000771  0.0000000  2
   2610   2596   2597   4191     1  180.0000771  0.0000000  2
   2611   2598   2591   2616     1  0.0000000  0.6508444  3
   2611   2598   2599   2613     1  0.0000000  0.6508444  3
   2611   2598   2599   2614     1  0.0000000  0.6508444  3
   2612   2598   2591   2616     1  0.0000000  0.6508444  3
   2612   2598   2599   2613     1  0.0000000  0.6508444  3
   2612   2598   2599   2614     1  0.0000000  0.6508444  3
   2613   2599   2600   2615     1  0.0000000  0.0000000  2
   2614   2599   2600   2615     1  0.0000000  0.0000000  2
   2617   2618   2620   2633     1  0.0000000  0.6508444  3
   2617   2618   2620   2634     1  0.0000000  0.6508444  3
   2617   2619   2622   2635     1  0.0000000  0.6508444  3
   2617   2619   2622   2636     1  0.0000000  0.6508444  3
   2617   2624   2625   2639     1  0.0000000  0.6508444  3
   2617   2624   2625   2640     1  0.0000000  0.6508444  3
   2618   2617   2619   2631     1  0.0000000  0.6508444  3
   2618   2617   2619   2632     1  0.0000000  0.6508444  3
   2618   2617   2624   2637     1  0.0000000  0.6508444  3
   2618   2617   2624   2638     1  0.0000000  0.6508444  3
   2619   2617   2618   2629     1  0.0000000  0.6508444  3
   2619   2617   2618   2630     1  0.0000000  0.6508444  3
   2619   2617   2624   2637     1  0.0000000  0.6508444  3
   2619   2617   2624   2638     1  0.0000000  0.6508444  3
   2620   2618   2617   2642     1  0.0000000  0.6508444  3
   2620   2621   4203   4204     1  180.0000771  10.4600000  2
   2621   2620   2618   2629     1  0.0000000  0.6508444  3
   2621   2620   2618   2630     1  0.0000000  0.6508444  3
   2621   4203   4205   4207     1  0.0000000  0.0000000  2
   2621   4203   4205   4208     1  0.0000000  0.0000000  2
   2622   2619   2617   2642     1  0.0000000  0.6508444  3
   2622   2623   4215   4216     1  180.0000771  10.4600000  2
   2623   2622   2619   2631     1  0.0000000  0.6508444  3
   2623   2622   2619   2632     1  0.0000000  0.6508444  3
   2623   4215   4217   4219     1  0.0000000  0.0000000  2
   2623   4215   4217   4220     1  0.0000000  0.0000000  2
   2624   2617   2618   2629     1  0.0000000  0.6508444  3
   2624   2617   2618   2630     1  0.0000000  0.6508444  3
   2624   2617   2619   2631     1  0.0000000  0.6508444  3
   2624   2617   2619   2632     1  0.0000000  0.6508444  3
   2624   2625   2626   2641     1  0.0000000  0.0000000  2
   2625   2624   2617   2642     1  0.0000000  0.6508444  3
   2626   2625   2624   2637     1  0.0000000  0.6508444  3
   2626   2625   2624   2638     1  0.0000000  0.6508444  3
   2627   2621   2620   2633     1  0.0000000  3.3472000  1
   2627   2621   2620   2633     1  0.0000000  0.0000000  2
   2627   2621   2620   2633     1  180.0000771  0.3347200  3
   2627   2621   2620   2634     1  0.0000000  3.3472000  1
   2627   2621   2620   2634     1  0.0000000  0.0000000  2
   2627   2621   2620   2634     1  180.0000771  0.3347200  3
   2627   2621   4203   4204     1  0.0000000  8.3680000  1
   2627   2621   4203   4204     1  180.0000771  10.4600000  2
   2628   2623   2622   2635     1  0.0000000  3.3472000  1
   2628   2623   2622   2635     1  0.0000000  0.0000000  2
   2628   2623   2622   2635     1  180.0000771  0.3347200  3
   2628   2623   2622   2636     1  0.0000000  3.3472000  1
   2628   2623   2622   2636     1  0.0000000  0.0000000  2
   2628   2623   2622   2636     1  180.0000771  0.3347200  3
   2628   2623   4215   4216     1  0.0000000  8.3680000  1
   2628   2623   4215   4216     1  180.0000771  10.4600000  2
   2629   2618   2617   2642     1  0.0000000  0.6508444  3
   2629   2618   2620   2633     1  0.0000000  0.6508444  3
   2629   2618   2620   2634     1  0.0000000  0.6508444  3
   2630   2618   2617   2642     1  0.0000000  0.6508444  3
   2630   2618   2620   2633     1  0.0000000  0.6508444  3
   2630   2618   2620   2634     1  0.0000000  0.6508444  3
   2631   2619   2617   2642     1  0.0000000  0.6508444  3
   2631   2619   2622   2635     1  0.0000000  0.6508444  3
   2631   2619   2622   2636     1  0.0000000  0.6508444  3
   2632   2619   2617   2642     1  0.0000000  0.6508444  3
   2632   2619   2622   2635     1  0.0000000  0.6508444  3
   2632   2619   2622   2636     1  0.0000000  0.6508444  3
   2633   2620   2621   4203     1  180.0000771  0.0000000  2
   2634   2620   2621   4203     1  180.0000771  0.0000000  2
   2635   2622   2623   4215     1  180.0000771  0.0000000  2
   2636   2622   2623   4215     1  180.0000771  0.0000000  2
   2637   2624   2617   2642     1  0.0000000  0.6508444  3
   2637   2624   2625   2639     1  0.0000000  0.6508444  3
   2637   2624   2625   2640     1  0.0000000  0.6508444  3
   2638   2624   2617   2642     1  0.0000000  0.6508444  3
   2638   2624   2625   2639     1  0.0000000  0.6508444  3
   2638   2624   2625   2640     1  0.0000000  0.6508444  3
   2639   2625   2626   2641     1  0.0000000  0.0000000  2
   2640   2625   2626   2641     1  0.0000000  0.0000000  2
   2643   2644   2646   2659     1  0.0000000  0.6508444  3
   2643   2644   2646   2660     1  0.0000000  0.6508444  3
   2643   2645   2648   2661     1  0.0000000  0.6508444  3
   2643   2645   2648   2662     1  0.0000000  0.6508444  3
   2643   2650   2651   2665     1  0.0000000  0.6508444  3
   2643   2650   2651   2666     1  0.0000000  0.6508444  3
   2644   2643   2645   2657     1  0.0000000  0.6508444  3
   2644   2643   2645   2658     1  0.0000000  0.6508444  3
   2644   2643   2650   2663     1  0.0000000  0.6508444  3
   2644   2643   2650   2664     1  0.0000000  0.6508444  3
   2645   2643   2644   2655     1  0.0000000  0.6508444  3
   2645   2643   2644   2656     1  0.0000000  0.6508444  3
   2645   2643   2650   2663     1  0.0000000  0.6508444  3
   2645   2643   2650   2664     1  0.0000000  0.6508444  3
   2646   2644   2643   2668     1  0.0000000  0.6508444  3
   2646   2647   4227   4228     1  180.0000771  10.4600000  2
   2647   2646   2644   2655     1  0.0000000  0.6508444  3
   2647   2646   2644   2656     1  0.0000000  0.6508444  3
   2647   4227   4229   4231     1  0.0000000  0.0000000  2
   2647   4227   4229   4232     1  0.0000000  0.0000000  2
   2648   2645   2643   2668     1  0.0000000  0.6508444  3
   2648   2649   4239   4240     1  180.0000771  10.4600000  2
   2649   2648   2645   2657     1  0.0000000  0.6508444  3
   2649   2648   2645   2658     1  0.0000000  0.6508444  3
   2649   4239   4241   4243     1  0.0000000  0.0000000  2
   2649   4239   4241   4244     1  0.0000000  0.0000000  2
   2650   2643   2644   2655     1  0.0000000  0.6508444  3
   2650   2643   2644   2656     1  0.0000000  0.6508444  3
   2650   2643   2645   2657     1  0.0000000  0.6508444  3
   2650   2643   2645   2658     1  0.0000000  0.6508444  3
   2650   2651   2652   2667     1  0.0000000  0.0000000  2
   2651   2650   2643   2668     1  0.0000000  0.6508444  3
   2652   2651   2650   2663     1  0.0000000  0.6508444  3
   2652   2651   2650   2664     1  0.0000000  0.6508444  3
   2653   2647   2646   2659     1  0.0000000  3.3472000  1
   2653   2647   2646   2659     1  0.0000000  0.0000000  2
   2653   2647   2646   2659     1  180.0000771  0.3347200  3
   2653   2647   2646   2660     1  0.0000000  3.3472000  1
   2653   2647   2646   2660     1  0.0000000  0.0000000  2
   2653   2647   2646   2660     1  180.0000771  0.3347200  3
   2653   2647   4227   4228     1  0.0000000  8.3680000  1
   2653   2647   4227   4228     1  180.0000771  10.4600000  2
   2654   2649   2648   2661     1  0.0000000  3.3472000  1
   2654   2649   2648   2661     1  0.0000000  0.0000000  2
   2654   2649   2648   2661     1  180.0000771  0.3347200  3
   2654   2649   2648   2662     1  0.0000000  3.3472000  1
   2654   2649   2648   2662     1  0.0000000  0.0000000  2
   2654   2649   2648   2662     1  180.0000771  0.3347200  3
   2654   2649   4239   4240     1  0.0000000  8.3680000  1
   2654   2649   4239   4240     1  180.0000771  10.4600000  2
   2655   2644   2643   2668     1  0.0000000  0.6508444  3
   2655   2644   2646   2659     1  0.0000000  0.6508444  3
   2655   2644   2646   2660     1  0.0000000  0.6508444  3
   2656   2644   2643   2668     1  0.0000000  0.6508444  3
   2656   2644   2646   2659     1  0.0000000  0.6508444  3
   2656   2644   2646   2660     1  0.0000000  0.6508444  3
   2657   2645   2643   2668     1  0.0000000  0.6508444  3
   2657   2645   2648   2661     1  0.0000000  0.6508444  3
   2657   2645   2648   2662     1  0.0000000  0.6508444  3
   2658   2645   2643   2668     1  0.0000000  0.6508444  3
   2658   2645   2648   2661     1  0.0000000  0.6508444  3
   2658   2645   2648   2662     1  0.0000000  0.6508444  3
   2659   2646   2647   4227     1  180.0000771  0.0000000  2
   2660   2646   2647   4227     1  180.0000771  0.0000000  2
   2661   2648   2649   4239     1  180.0000771  0.0000000  2
   2662   2648   2649   4239     1  180.0000771  0.0000000  2
   2663   2650   2643   2668     1  0.0000000  0.6508444  3
   2663   2650   2651   2665     1  0.0000000  0.6508444  3
   2663   2650   2651   2666     1  0.0000000  0.6508444  3
   2664   2650   2643   2668     1  0.0000000  0.6508444  3
   2664   2650   2651   2665     1  0.0000000  0.6508444  3
   2664   2650   2651   2666     1  0.0000000  0.6508444  3
   2665   2651   2652   2667     1  0.0000000  0.0000000  2
   2666   2651   2652   2667     1  0.0000000  0.0000000  2
   2669   2670   2672   2685     1  0.0000000  0.6508444  3
   2669   2670   2672   2686     1  0.0000000  0.6508444  3
   2669   2671   2674   2687     1  0.0000000  0.6508444  3
   2669   2671   2674   2688     1  0.0000000  0.6508444  3
   2669   2676   2677   2691     1  0.0000000  0.6508444  3
   2669   2676   2677   2692     1  0.0000000  0.6508444  3
   2670   2669   2671   2683     1  0.0000000  0.6508444  3
   2670   2669   2671   2684     1  0.0000000  0.6508444  3
   2670   2669   2676   2689     1  0.0000000  0.6508444  3
   2670   2669   2676   2690     1  0.0000000  0.6508444  3
   2671   2669   2670   2681     1  0.0000000  0.6508444  3
   2671   2669   2670   2682     1  0.0000000  0.6508444  3
   2671   2669   2676   2689     1  0.0000000  0.6508444  3
   2671   2669   2676   2690     1  0.0000000  0.6508444  3
   2672   2670   2669   2694     1  0.0000000  0.6508444  3
   2672   2673   4251   4252     1  180.0000771  10.4600000  2
   2673   2672   2670   2681     1  0.0000000  0.6508444  3
   2673   2672   2670   2682     1  0.0000000  0.6508444  3
   2673   4251   4253   4255     1  0.0000000  0.0000000  2
   2673   4251   4253   4256     1  0.0000000  0.0000000  2
   2674   2671   2669   2694     1  0.0000000  0.6508444  3
   2674   2675   4263   4264     1  180.0000771  10.4600000  2
   2675   2674   2671   2683     1  0.0000000  0.6508444  3
   2675   2674   2671   2684     1  0.0000000  0.6508444  3
   2675   4263   4265   4267     1  0.0000000  0.0000000  2
   2675   4263   4265   4268     1  0.0000000  0.0000000  2
   2676   2669   2670   2681     1  0.0000000  0.6508444  3
   2676   2669   2670   2682     1  0.0000000  0.6508444  3
   2676   2669   2671   2683     1  0.0000000  0.6508444  3
   2676   2669   2671   2684     1  0.0000000  0.6508444  3
   2676   2677   2678   2693     1  0.0000000  0.0000000  2
   2677   2676   2669   2694     1  0.0000000  0.6508444  3
   2678   2677   2676   2689     1  0.0000000  0.6508444  3
   2678   2677   2676   2690     1  0.0000000  0.6508444  3
   2679   2673   2672   2685     1  0.0000000  3.3472000  1
   2679   2673   2672   2685     1  0.0000000  0.0000000  2
   2679   2673   2672   2685     1  180.0000771  0.3347200  3
   2679   2673   2672   2686     1  0.0000000  3.3472000  1
   2679   2673   2672   2686     1  0.0000000  0.0000000  2
   2679   2673   2672   2686     1  180.0000771  0.3347200  3
   2679   2673   4251   4252     1  0.0000000  8.3680000  1
   2679   2673   4251   4252     1  180.0000771  10.4600000  2
   2680   2675   2674   2687     1  0.0000000  3.3472000  1
   2680   2675   2674   2687     1  0.0000000  0.0000000  2
   2680   2675   2674   2687     1  180.0000771  0.3347200  3
   2680   2675   2674   2688     1  0.0000000  3.3472000  1
   2680   2675   2674   2688     1  0.0000000  0.0000000  2
   2680   2675   2674   2688     1  180.0000771  0.3347200  3
   2680   2675   4263   4264     1  0.0000000  8.3680000  1
   2680   2675   4263   4264     1  180.0000771  10.4600000  2
   2681   2670   2669   2694     1  0.0000000  0.6508444  3
   2681   2670   2672   2685     1  0.0000000  0.6508444  3
   2681   2670   2672   2686     1  0.0000000  0.6508444  3
   2682   2670   2669   2694     1  0.0000000  0.6508444  3
   2682   2670   2672   2685     1  0.0000000  0.6508444  3
   2682   2670   2672   2686     1  0.0000000  0.6508444  3
   2683   2671   2669   2694     1  0.0000000  0.6508444  3
   2683   2671   2674   2687     1  0.0000000  0.6508444  3
   2683   2671   2674   2688     1  0.0000000  0.6508444  3
   2684   2671   2669   2694     1  0.0000000  0.6508444  3
   2684   2671   2674   2687     1  0.0000000  0.6508444  3
   2684   2671   2674   2688     1  0.0000000  0.6508444  3
   2685   2672   2673   4251     1  180.0000771  0.0000000  2
   2686   2672   2673   4251     1  180.0000771  0.0000000  2
   2687   2674   2675   4263     1  180.0000771  0.0000000  2
   2688   2674   2675   4263     1  180.0000771  0.0000000  2
   2689   2676   2669   2694     1  0.0000000  0.6508444  3
   2689   2676   2677   2691     1  0.0000000  0.6508444  3
   2689   2676   2677   2692     1  0.0000000  0.6508444  3
   2690   2676   2669   2694     1  0.0000000  0.6508444  3
   2690   2676   2677   2691     1  0.0000000  0.6508444  3
   2690   2676   2677   2692     1  0.0000000  0.6508444  3
   2691   2677   2678   2693     1  0.0000000  0.0000000  2
   2692   2677   2678   2693     1  0.0000000  0.0000000  2
   2695   2696   2698   2711     1  0.0000000  0.6508444  3
   2695   2696   2698   2712     1  0.0000000  0.6508444  3
   2695   2697   2700   2713     1  0.0000000  0.6508444  3
   2695   2697   2700   2714     1  0.0000000  0.6508444  3
   2695   2702   2703   2717     1  0.0000000  0.6508444  3
   2695   2702   2703   2718     1  0.0000000  0.6508444  3
   2696   2695   2697   2709     1  0.0000000  0.6508444  3
   2696   2695   2697   2710     1  0.0000000  0.6508444  3
   2696   2695   2702   2715     1  0.0000000  0.6508444  3
   2696   2695   2702   2716     1  0.0000000  0.6508444  3
   2697   2695   2696   2707     1  0.0000000  0.6508444  3
   2697   2695   2696   2708     1  0.0000000  0.6508444  3
   2697   2695   2702   2715     1  0.0000000  0.6508444  3
   2697   2695   2702   2716     1  0.0000000  0.6508444  3
   2698   2696   2695   2720     1  0.0000000  0.6508444  3
   2698   2699   4275   4276     1  180.0000771  10.4600000  2
   2699   2698   2696   2707     1  0.0000000  0.6508444  3
   2699   2698   2696   2708     1  0.0000000  0.6508444  3
   2699   4275   4277   4279     1  0.0000000  0.0000000  2
   2699   4275   4277   4280     1  0.0000000  0.0000000  2
   2700   2697   2695   2720     1  0.0000000  0.6508444  3
   2700   2701   4287   4288     1  180.0000771  10.4600000  2
   2701   2700   2697   2709     1  0.0000000  0.6508444  3
   2701   2700   2697   2710     1  0.0000000  0.6508444  3
   2701   4287   4289   4291     1  0.0000000  0.0000000  2
   2701   4287   4289   4292     1  0.0000000  0.0000000  2
   2702   2695   2696   2707     1  0.0000000  0.6508444  3
   2702   2695   2696   2708     1  0.0000000  0.6508444  3
   2702   2695   2697   2709     1  0.0000000  0.6508444  3
   2702   2695   2697   2710     1  0.0000000  0.6508444  3
   2702   2703   2704   2719     1  0.0000000  0.0000000  2
   2703   2702   2695   2720     1  0.0000000  0.6508444  3
   2704   2703   2702   2715     1  0.0000000  0.6508444  3
   2704   2703   2702   2716     1  0.0000000  0.6508444  3
   2705   2699   2698   2711     1  0.0000000  3.3472000  1
   2705   2699   2698   2711     1  0.0000000  0.0000000  2
   2705   2699   2698   2711     1  180.0000771  0.3347200  3
   2705   2699   2698   2712     1  0.0000000  3.3472000  1
   2705   2699   2698   2712     1  0.0000000  0.0000000  2
   2705   2699   2698   2712     1  180.0000771  0.3347200  3
   2705   2699   4275   4276     1  0.0000000  8.3680000  1
   2705   2699   4275   4276     1  180.0000771  10.4600000  2
   2706   2701   2700   2713     1  0.0000000  3.3472000  1
   2706   2701   2700   2713     1  0.0000000  0.0000000  2
   2706   2701   2700   2713     1  180.0000771  0.3347200  3
   2706   2701   2700   2714     1  0.0000000  3.3472000  1
   2706   2701   2700   2714     1  0.0000000  0.0000000  2
   2706   2701   2700   2714     1  180.0000771  0.3347200  3
   2706   2701   4287   4288     1  0.0000000  8.3680000  1
   2706   2701   4287   4288     1  180.0000771  10.4600000  2
   2707   2696   2695   2720     1  0.0000000  0.6508444  3
   2707   2696   2698   2711     1  0.0000000  0.6508444  3
   2707   2696   2698   2712     1  0.0000000  0.6508444  3
   2708   2696   2695   2720     1  0.0000000  0.6508444  3
   2708   2696   2698   2711     1  0.0000000  0.6508444  3
   2708   2696   2698   2712     1  0.0000000  0.6508444  3
   2709   2697   2695   2720     1  0.0000000  0.6508444  3
   2709   2697   2700   2713     1  0.0000000  0.6508444  3
   2709   2697   2700   2714     1  0.0000000  0.6508444  3
   2710   2697   2695   2720     1  0.0000000  0.6508444  3
   2710   2697   2700   2713     1  0.0000000  0.6508444  3
   2710   2697   2700   2714     1  0.0000000  0.6508444  3
   2711   2698   2699   4275     1  180.0000771  0.0000000  2
   2712   2698   2699   4275     1  180.0000771  0.0000000  2
   2713   2700   2701   4287     1  180.0000771  0.0000000  2
   2714   2700   2701   4287     1  180.0000771  0.0000000  2
   2715   2702   2695   2720     1  0.0000000  0.6508444  3
   2715   2702   2703   2717     1  0.0000000  0.6508444  3
   2715   2702   2703   2718     1  0.0000000  0.6508444  3
   2716   2702   2695   2720     1  0.0000000  0.6508444  3
   2716   2702   2703   2717     1  0.0000000  0.6508444  3
   2716   2702   2703   2718     1  0.0000000  0.6508444  3
   2717   2703   2704   2719     1  0.0000000  0.0000000  2
   2718   2703   2704   2719     1  0.0000000  0.0000000  2
   2721   2722   2724   2737     1  0.0000000  0.6508444  3
   2721   2722   2724   2738     1  0.0000000  0.6508444  3
   2721   2723   2726   2739     1  0.0000000  0.6508444  3
   2721   2723   2726   2740     1  0.0000000  0.6508444  3
   2721   2728   2729   2743     1  0.0000000  0.6508444  3
   2721   2728   2729   2744     1  0.0000000  0.6508444  3
   2722   2721   2723   2735     1  0.0000000  0.6508444  3
   2722   2721   2723   2736     1  0.0000000  0.6508444  3
   2722   2721   2728   2741     1  0.0000000  0.6508444  3
   2722   2721   2728   2742     1  0.0000000  0.6508444  3
   2723   2721   2722   2733     1  0.0000000  0.6508444  3
   2723   2721   2722   2734     1  0.0000000  0.6508444  3
   2723   2721   2728   2741     1  0.0000000  0.6508444  3
   2723   2721   2728   2742     1  0.0000000  0.6508444  3
   2724   2722   2721   2746     1  0.0000000  0.6508444  3
   2724   2725   4299   4300     1  180.0000771  10.4600000  2
   2725   2724   2722   2733     1  0.0000000  0.6508444  3
   2725   2724   2722   2734     1  0.0000000  0.6508444  3
   2725   4299   4301   4303     1  0.0000000  0.0000000  2
   2725   4299   4301   4304     1  0.0000000  0.0000000  2
   2726   2723   2721   2746     1  0.0000000  0.6508444  3
   2726   2727   4311   4312     1  180.0000771  10.4600000  2
   2727   2726   2723   2735     1  0.0000000  0.6508444  3
   2727   2726   2723   2736     1  0.0000000  0.6508444  3
   2727   4311   4313   4315     1  0.0000000  0.0000000  2
   2727   4311   4313   4316     1  0.0000000  0.0000000  2
   2728   2721   2722   2733     1  0.0000000  0.6508444  3
   2728   2721   2722   2734     1  0.0000000  0.6508444  3
   2728   2721   2723   2735     1  0.0000000  0.6508444  3
   2728   2721   2723   2736     1  0.0000000  0.6508444  3
   2728   2729   2730   2745     1  0.0000000  0.0000000  2
   2729   2728   2721   2746     1  0.0000000  0.6508444  3
   2730   2729   2728   2741     1  0.0000000  0.6508444  3
   2730   2729   2728   2742     1  0.0000000  0.6508444  3
   2731   2725   2724   2737     1  0.0000000  3.3472000  1
   2731   2725   2724   2737     1  0.0000000  0.0000000  2
   2731   2725   2724   2737     1  180.0000771  0.3347200  3
   2731   2725   2724   2738     1  0.0000000  3.3472000  1
   2731   2725   2724   2738     1  0.0000000  0.0000000  2
   2731   2725   2724   2738     1  180.0000771  0.3347200  3
   2731   2725   4299   4300     1  0.0000000  8.3680000  1
   2731   2725   4299   4300     1  180.0000771  10.4600000  2
   2732   2727   2726   2739     1  0.0000000  3.3472000  1
   2732   2727   2726   2739     1  0.0000000  0.0000000  2
   2732   2727   2726   2739     1  180.0000771  0.3347200  3
   2732   2727   2726   2740     1  0.0000000  3.3472000  1
   2732   2727   2726   2740     1  0.0000000  0.0000000  2
   2732   2727   2726   2740     1  180.0000771  0.3347200  3
   2732   2727   4311   4312     1  0.0000000  8.3680000  1
   2732   2727   4311   4312     1  180.0000771  10.4600000  2
   2733   2722   2721   2746     1  0.0000000  0.6508444  3
   2733   2722   2724   2737     1  0.0000000  0.6508444  3
   2733   2722   2724   2738     1  0.0000000  0.6508444  3
   2734   2722   2721   2746     1  0.0000000  0.6508444  3
   2734   2722   2724   2737     1  0.0000000  0.6508444  3
   2734   2722   2724   2738     1  0.0000000  0.6508444  3
   2735   2723   2721   2746     1  0.0000000  0.6508444  3
   2735   2723   2726   2739     1  0.0000000  0.6508444  3
   2735   2723   2726   2740     1  0.0000000  0.6508444  3
   2736   2723   2721   2746     1  0.0000000  0.6508444  3
   2736   2723   2726   2739     1  0.0000000  0.6508444  3
   2736   2723   2726   2740     1  0.0000000  0.6508444  3
   2737   2724   2725   4299     1  180.0000771  0.0000000  2
   2738   2724   2725   4299     1  180.0000771  0.0000000  2
   2739   2726   2727   4311     1  180.0000771  0.0000000  2
   2740   2726   2727   4311     1  180.0000771  0.0000000  2
   2741   2728   2721   2746     1  0.0000000  0.6508444  3
   2741   2728   2729   2743     1  0.0000000  0.6508444  3
   2741   2728   2729   2744     1  0.0000000  0.6508444  3
   2742   2728   2721   2746     1  0.0000000  0.6508444  3
   2742   2728   2729   2743     1  0.0000000  0.6508444  3
   2742   2728   2729   2744     1  0.0000000  0.6508444  3
   2743   2729   2730   2745     1  0.0000000  0.0000000  2
   2744   2729   2730   2745     1  0.0000000  0.0000000  2
   2747   2748   2750   2763     1  0.0000000  0.6508444  3
   2747   2748   2750   2764     1  0.0000000  0.6508444  3
   2747   2749   2752   2765     1  0.0000000  0.6508444  3
   2747   2749   2752   2766     1  0.0000000  0.6508444  3
   2747   2754   2755   2769     1  0.0000000  0.6508444  3
   2747   2754   2755   2770     1  0.0000000  0.6508444  3
   2748   2747   2749   2761     1  0.0000000  0.6508444  3
   2748   2747   2749   2762     1  0.0000000  0.6508444  3
   2748   2747   2754   2767     1  0.0000000  0.6508444  3
   2748   2747   2754   2768     1  0.0000000  0.6508444  3
   2749   2747   2748   2759     1  0.0000000  0.6508444  3
   2749   2747   2748   2760     1  0.0000000  0.6508444  3
   2749   2747   2754   2767     1  0.0000000  0.6508444  3
   2749   2747   2754   2768     1  0.0000000  0.6508444  3
   2750   2748   2747   2772     1  0.0000000  0.6508444  3
   2750   2751   4323   4324     1  180.0000771  10.4600000  2
   2751   2750   2748   2759     1  0.0000000  0.6508444  3
   2751   2750   2748   2760     1  0.0000000  0.6508444  3
   2751   4323   4325   4327     1  0.0000000  0.0000000  2
   2751   4323   4325   4328     1  0.0000000  0.0000000  2
   2752   2749   2747   2772     1  0.0000000  0.6508444  3
   2752   2753   4335   4336     1  180.0000771  10.4600000  2
   2753   2752   2749   2761     1  0.0000000  0.6508444  3
   2753   2752   2749   2762     1  0.0000000  0.6508444  3
   2753   4335   4337   4339     1  0.0000000  0.0000000  2
   2753   4335   4337   4340     1  0.0000000  0.0000000  2
   2754   2747   2748   2759     1  0.0000000  0.6508444  3
   2754   2747   2748   2760     1  0.0000000  0.6508444  3
   2754   2747   2749   2761     1  0.0000000  0.6508444  3
   2754   2747   2749   2762     1  0.0000000  0.6508444  3
   2754   2755   2756   2771     1  0.0000000  0.0000000  2
   2755   2754   2747   2772     1  0.0000000  0.6508444  3
   2756   2755   2754   2767     1  0.0000000  0.6508444  3
   2756   2755   2754   2768     1  0.0000000  0.6508444  3
   2757   2751   2750   2763     1  0.0000000  3.3472000  1
   2757   2751   2750   2763     1  0.0000000  0.0000000  2
   2757   2751   2750   2763     1  180.0000771  0.3347200  3
   2757   2751   2750   2764     1  0.0000000  3.3472000  1
   2757   2751   2750   2764     1  0.0000000  0.0000000  2
   2757   2751   2750   2764     1  180.0000771  0.3347200  3
   2757   2751   4323   4324     1  0.0000000  8.3680000  1
   2757   2751   4323   4324     1  180.0000771  10.4600000  2
   2758   2753   2752   2765     1  0.0000000  3.3472000  1
   2758   2753   2752   2765     1  0.0000000  0.0000000  2
   2758   2753   2752   2765     1  180.0000771  0.3347200  3
   2758   2753   2752   2766     1  0.0000000  3.3472000  1
   2758   2753   2752   2766     1  0.0000000  0.0000000  2
   2758   2753   2752   2766     1  180.0000771  0.3347200  3
   2758   2753   4335   4336     1  0.0000000  8.3680000  1
   2758   2753   4335   4336     1  180.0000771  10.4600000  2
   2759   2748   2747   2772     1  0.0000000  0.6508444  3
   2759   2748   2750   2763     1  0.0000000  0.6508444  3
   2759   2748   2750   2764     1  0.0000000  0.6508444  3
   2760   2748   2747   2772     1  0.0000000  0.6508444  3
   2760   2748   2750   2763     1  0.0000000  0.6508444  3
   2760   2748   2750   2764     1  0.0000000  0.6508444  3
   2761   2749   2747   2772     1  0.0000000  0.6508444  3
   2761   2749   2752   2765     1  0.0000000  0.6508444  3
   2761   2749   2752   2766     1  0.0000000  0.6508444  3
   2762   2749   2747   2772     1  0.0000000  0.6508444  3
   2762   2749   2752   2765     1  0.0000000  0.6508444  3
   2762   2749   2752   2766     1  0.0000000  0.6508444  3
   2763   2750   2751   4323     1  180.0000771  0.0000000  2
   2764   2750   2751   4323     1  180.0000771  0.0000000  2
   2765   2752   2753   4335     1  180.0000771  0.0000000  2
   2766   2752   2753   4335     1  180.0000771  0.0000000  2
   2767   2754   2747   2772     1  0.0000000  0.6508444  3
   2767   2754   2755   2769     1  0.0000000  0.6508444  3
   2767   2754   2755   2770     1  0.0000000  0.6508444  3
   2768   2754   2747   2772     1  0.0000000  0.6508444  3
   2768   2754   2755   2769     1  0.0000000  0.6508444  3
   2768   2754   2755   2770     1  0.0000000  0.6508444  3
   2769   2755   2756   2771     1  0.0000000  0.0000000  2
   2770   2755   2756   2771     1  0.0000000  0.0000000  2
   2773   2774   2776   2789     1  0.0000000  0.6508444  3
   2773   2774   2776   2790     1  0.0000000  0.6508444  3
   2773   2775   2778   2791     1  0.0000000  0.6508444  3
   2773   2775   2778   2792     1  0.0000000  0.6508444  3
   2773   2780   2781   2795     1  0.0000000  0.6508444  3
   2773   2780   2781   2796     1  0.0000000  0.6508444  3
   2774   2773   2775   2787     1  0.0000000  0.6508444  3
   2774   2773   2775   2788     1  0.0000000  0.6508444  3
   2774   2773   2780   2793     1  0.0000000  0.6508444  3
   2774   2773   2780   2794     1  0.0000000  0.6508444  3
   2775   2773   2774   2785     1  0.0000000  0.6508444  3
   2775   2773   2774   2786     1  0.0000000  0.6508444  3
   2775   2773   2780   2793     1  0.0000000  0.6508444  3
   2775   2773   2780   2794     1  0.0000000  0.6508444  3
   2776   2774   2773   2798     1  0.0000000  0.6508444  3
   2776   2777   4347   4348     1  180.0000771  10.4600000  2
   2777   2776   2774   2785     1  0.0000000  0.6508444  3
   2777   2776   2774   2786     1  0.0000000  0.6508444  3
   2777   4347   4349   4351     1  0.0000000  0.0000000  2
   2777   4347   4349   4352     1  0.0000000  0.0000000  2
   2778   2775   2773   2798     1  0.0000000  0.6508444  3
   2778   2779   4359   4360     1  180.0000771  10.4600000  2
   2779   2778   2775   2787     1  0.0000000  0.6508444  3
   2779   2778   2775   2788     1  0.0000000  0.6508444  3
   2779   4359   4361   4363     1  0.0000000  0.0000000  2
   2779   4359   4361   4364     1  0.0000000  0.0000000  2
   2780   2773   2774   2785     1  0.0000000  0.6508444  3
   2780   2773   2774   2786     1  0.0000000  0.6508444  3
   2780   2773   2775   2787     1  0.0000000  0.6508444  3
   2780   2773   2775   2788     1  0.0000000  0.6508444  3
   2780   2781   2782   2797     1  0.0000000  0.0000000  2
   2781   2780   2773   2798     1  0.0000000  0.6508444  3
   2782   2781   2780   2793     1  0.0000000  0.6508444  3
   2782   2781   2780   2794     1  0.0000000  0.6508444  3
   2783   2777   2776   2789     1  0.0000000  3.3472000  1
   2783   2777   2776   2789     1  0.0000000  0.0000000  2
   2783   2777   2776   2789     1  180.0000771  0.3347200  3
   2783   2777   2776   2790     1  0.0000000  3.3472000  1
   2783   2777   2776   2790     1  0.0000000  0.0000000  2
   2783   2777   2776   2790     1  180.0000771  0.3347200  3
   2783   2777   4347   4348     1  0.0000000  8.3680000  1
   2783   2777   4347   4348     1  180.0000771  10.4600000  2
   2784   2779   2778   2791     1  0.0000000  3.3472000  1
   2784   2779   2778   2791     1  0.0000000  0.0000000  2
   2784   2779   2778   2791     1  180.0000771  0.3347200  3
   2784   2779   2778   2792     1  0.0000000  3.3472000  1
   2784   2779   2778   2792     1  0.0000000  0.0000000  2
   2784   2779   2778   2792     1  180.0000771  0.3347200  3
   2784   2779   4359   4360     1  0.0000000  8.3680000  1
   2784   2779   4359   4360     1  180.0000771  10.4600000  2
   2785   2774   2773   2798     1  0.0000000  0.6508444  3
   2785   2774   2776   2789     1  0.0000000  0.6508444  3
   2785   2774   2776   2790     1  0.0000000  0.6508444  3
   2786   2774   2773   2798     1  0.0000000  0.6508444  3
   2786   2774   2776   2789     1  0.0000000  0.6508444  3
   2786   2774   2776   2790     1  0.0000000  0.6508444  3
   2787   2775   2773   2798     1  0.0000000  0.6508444  3
   2787   2775   2778   2791     1  0.0000000  0.6508444  3
   2787   2775   2778   2792     1  0.0000000  0.6508444  3
   2788   2775   2773   2798     1  0.0000000  0.6508444  3
   2788   2775   2778   2791     1  0.0000000  0.6508444  3
   2788   2775   2778   2792     1  0.0000000  0.6508444  3
   2789   2776   2777   4347     1  180.0000771  0.0000000  2
   2790   2776   2777   4347     1  180.0000771  0.0000000  2
   2791   2778   2779   4359     1  180.0000771  0.0000000  2
   2792   2778   2779   4359     1  180.0000771  0.0000000  2
   2793   2780   2773   2798     1  0.0000000  0.6508444  3
   2793   2780   2781   2795     1  0.0000000  0.6508444  3
   2793   2780   2781   2796     1  0.0000000  0.6508444  3
   2794   2780   2773   2798     1  0.0000000  0.6508444  3
   2794   2780   2781   2795     1  0.0000000  0.6508444  3
   2794   2780   2781   2796     1  0.0000000  0.6508444  3
   2795   2781   2782   2797     1  0.0000000  0.0000000  2
   2796   2781   2782   2797     1  0.0000000  0.0000000  2
   2799   2800   2802   2815     1  0.0000000  0.6508444  3
   2799   2800   2802   2816     1  0.0000000  0.6508444  3
   2799   2801   2804   2817     1  0.0000000  0.6508444  3
   2799   2801   2804   2818     1  0.0000000  0.6508444  3
   2799   2806   2807   2821     1  0.0000000  0.6508444  3
   2799   2806   2807   2822     1  0.0000000  0.6508444  3
   2800   2799   2801   2813     1  0.0000000  0.6508444  3
   2800   2799   2801   2814     1  0.0000000  0.6508444  3
   2800   2799   2806   2819     1  0.0000000  0.6508444  3
   2800   2799   2806   2820     1  0.0000000  0.6508444  3
   2801   2799   2800   2811     1  0.0000000  0.6508444  3
   2801   2799   2800   2812     1  0.0000000  0.6508444  3
   2801   2799   2806   2819     1  0.0000000  0.6508444  3
   2801   2799   2806   2820     1  0.0000000  0.6508444  3
   2802   2800   2799   2824     1  0.0000000  0.6508444  3
   2802   2803   4371   4372     1  180.0000771  10.4600000  2
   2803   2802   2800   2811     1  0.0000000  0.6508444  3
   2803   2802   2800   2812     1  0.0000000  0.6508444  3
   2803   4371   4373   4375     1  0.0000000  0.0000000  2
   2803   4371   4373   4376     1  0.0000000  0.0000000  2
   2804   2801   2799   2824     1  0.0000000  0.6508444  3
   2804   2805   4383   4384     1  180.0000771  10.4600000  2
   2805   2804   2801   2813     1  0.0000000  0.6508444  3
   2805   2804   2801   2814     1  0.0000000  0.6508444  3
   2805   4383   4385   4387     1  0.0000000  0.0000000  2
   2805   4383   4385   4388     1  0.0000000  0.0000000  2
   2806   2799   2800   2811     1  0.0000000  0.6508444  3
   2806   2799   2800   2812     1  0.0000000  0.6508444  3
   2806   2799   2801   2813     1  0.0000000  0.6508444  3
   2806   2799   2801   2814     1  0.0000000  0.6508444  3
   2806   2807   2808   2823     1  0.0000000  0.0000000  2
   2807   2806   2799   2824     1  0.0000000  0.6508444  3
   2808   2807   2806   2819     1  0.0000000  0.6508444  3
   2808   2807   2806   2820     1  0.0000000  0.6508444  3
   2809   2803   2802   2815     1  0.0000000  3.3472000  1
   2809   2803   2802   2815     1  0.0000000  0.0000000  2
   2809   2803   2802   2815     1  180.0000771  0.3347200  3
   2809   2803   2802   2816     1  0.0000000  3.3472000  1
   2809   2803   2802   2816     1  0.0000000  0.0000000  2
   2809   2803   2802   2816     1  180.0000771  0.3347200  3
   2809   2803   4371   4372     1  0.0000000  8.3680000  1
   2809   2803   4371   4372     1  180.0000771  10.4600000  2
   2810   2805   2804   2817     1  0.0000000  3.3472000  1
   2810   2805   2804   2817     1  0.0000000  0.0000000  2
   2810   2805   2804   2817     1  180.0000771  0.3347200  3
   2810   2805   2804   2818     1  0.0000000  3.3472000  1
   2810   2805   2804   2818     1  0.0000000  0.0000000  2
   2810   2805   2804   2818     1  180.0000771  0.3347200  3
   2810   2805   4383   4384     1  0.0000000  8.3680000  1
   2810   2805   4383   4384     1  180.0000771  10.4600000  2
   2811   2800   2799   2824     1  0.0000000  0.6508444  3
   2811   2800   2802   2815     1  0.0000000  0.6508444  3
   2811   2800   2802   2816     1  0.0000000  0.6508444  3
   2812   2800   2799   2824     1  0.0000000  0.6508444  3
   2812   2800   2802   2815     1  0.0000000  0.6508444  3
   2812   2800   2802   2816     1  0.0000000  0.6508444  3
   2813   2801   2799   2824     1  0.0000000  0.6508444  3
   2813   2801   2804   2817     1  0.0000000  0.6508444  3
   2813   2801   2804   2818     1  0.0000000  0.6508444  3
   2814   2801   2799   2824     1  0.0000000  0.6508444  3
   2814   2801   2804   2817     1  0.0000000  0.6508444  3
   2814   2801   2804   2818     1  0.0000000  0.6508444  3
   2815   2802   2803   4371     1  180.0000771  0.0000000  2
   2816   2802   2803   4371     1  180.0000771  0.0000000  2
   2817   2804   2805   4383     1  180.0000771  0.0000000  2
   2818   2804   2805   4383     1  180.0000771  0.0000000  2
   2819   2806   2799   2824     1  0.0000000  0.6508444  3
   2819   2806   2807   2821     1  0.0000000  0.6508444  3
   2819   2806   2807   2822     1  0.0000000  0.6508444  3
   2820   2806   2799   2824     1  0.0000000  0.6508444  3
   2820   2806   2807   2821     1  0.0000000  0.6508444  3
   2820   2806   2807   2822     1  0.0000000  0.6508444  3
   2821   2807   2808   2823     1  0.0000000  0.0000000  2
   2822   2807   2808   2823     1  0.0000000  0.0000000  2
   2825   2826   2828   2841     1  0.0000000  0.6508444  3
   2825   2826   2828   2842     1  0.0000000  0.6508444  3
   2825   2827   2830   2843     1  0.0000000  0.6508444  3
   2825   2827   2830   2844     1  0.0000000  0.6508444  3
   2825   2832   2833   2847     1  0.0000000  0.6508444  3
   2825   2832   2833   2848     1  0.0000000  0.6508444  3
   2826   2825   2827   2839     1  0.0000000  0.6508444  3
   2826   2825   2827   2840     1  0.0000000  0.6508444  3
   2826   2825   2832   2845     1  0.0000000  0.6508444  3
   2826   2825   2832   2846     1  0.0000000  0.6508444  3
   2827   2825   2826   2837     1  0.0000000  0.6508444  3
   2827   2825   2826   2838     1  0.0000000  0.6508444  3
   2827   2825   2832   2845     1  0.0000000  0.6508444  3
   2827   2825   2832   2846     1  0.0000000  0.6508444  3
   2828   2826   2825   2850     1  0.0000000  0.6508444  3
   2828   2829   4395   4396     1  180.0000771  10.4600000  2
   2829   2828   2826   2837     1  0.0000000  0.6508444  3
   2829   2828   2826   2838     1  0.0000000  0.6508444  3
   2829   4395   4397   4399     1  0.0000000  0.0000000  2
   2829   4395   4397   4400     1  0.0000000  0.0000000  2
   2830   2827   2825   2850     1  0.0000000  0.6508444  3
   2830   2831   4407   4408     1  180.0000771  10.4600000  2
   2831   2830   2827   2839     1  0.0000000  0.6508444  3
   2831   2830   2827   2840     1  0.0000000  0.6508444  3
   2831   4407   4409   4411     1  0.0000000  0.0000000  2
   2831   4407   4409   4412     1  0.0000000  0.0000000  2
   2832   2825   2826   2837     1  0.0000000  0.6508444  3
   2832   2825   2826   2838     1  0.0000000  0.6508444  3
   2832   2825   2827   2839     1  0.0000000  0.6508444  3
   2832   2825   2827   2840     1  0.0000000  0.6508444  3
   2832   2833   2834   2849     1  0.0000000  0.0000000  2
   2833   2832   2825   2850     1  0.0000000  0.6508444  3
   2834   2833   2832   2845     1  0.0000000  0.6508444  3
   2834   2833   2832   2846     1  0.0000000  0.6508444  3
   2835   2829   2828   2841     1  0.0000000  3.3472000  1
   2835   2829   2828   2841     1  0.0000000  0.0000000  2
   2835   2829   2828   2841     1  180.0000771  0.3347200  3
   2835   2829   2828   2842     1  0.0000000  3.3472000  1
   2835   2829   2828   2842     1  0.0000000  0.0000000  2
   2835   2829   2828   2842     1  180.0000771  0.3347200  3
   2835   2829   4395   4396     1  0.0000000  8.3680000  1
   2835   2829   4395   4396     1  180.0000771  10.4600000  2
   2836   2831   2830   2843     1  0.0000000  3.3472000  1
   2836   2831   2830   2843     1  0.0000000  0.0000000  2
   2836   2831   2830   2843     1  180.0000771  0.3347200  3
   2836   2831   2830   2844     1  0.0000000  3.3472000  1
   2836   2831   2830   2844     1  0.0000000  0.0000000  2
   2836   2831   2830   2844     1  180.0000771  0.3347200  3
   2836   2831   4407   4408     1  0.0000000  8.3680000  1
   2836   2831   4407   4408     1  180.0000771  10.4600000  2
   2837   2826   2825   2850     1  0.0000000  0.6508444  3
   2837   2826   2828   2841     1  0.0000000  0.6508444  3
   2837   2826   2828   2842     1  0.0000000  0.6508444  3
   2838   2826   2825   2850     1  0.0000000  0.6508444  3
   2838   2826   2828   2841     1  0.0000000  0.6508444  3
   2838   2826   2828   2842     1  0.0000000  0.6508444  3
   2839   2827   2825   2850     1  0.0000000  0.6508444  3
   2839   2827   2830   2843     1  0.0000000  0.6508444  3
   2839   2827   2830   2844     1  0.0000000  0.6508444  3
   2840   2827   2825   2850     1  0.0000000  0.6508444  3
   2840   2827   2830   2843     1  0.0000000  0.6508444  3
   2840   2827   2830   2844     1  0.0000000  0.6508444  3
   2841   2828   2829   4395     1  180.0000771  0.0000000  2
   2842   2828   2829   4395     1  180.0000771  0.0000000  2
   2843   2830   2831   4407     1  180.0000771  0.0000000  2
   2844   2830   2831   4407     1  180.0000771  0.0000000  2
   2845   2832   2825   2850     1  0.0000000  0.6508444  3
   2845   2832   2833   2847     1  0.0000000  0.6508444  3
   2845   2832   2833   2848     1  0.0000000  0.6508444  3
   2846   2832   2825   2850     1  0.0000000  0.6508444  3
   2846   2832   2833   2847     1  0.0000000  0.6508444  3
   2846   2832   2833   2848     1  0.0000000  0.6508444  3
   2847   2833   2834   2849     1  0.0000000  0.0000000  2
   2848   2833   2834   2849     1  0.0000000  0.0000000  2
   2851   2852   2854   2867     1  0.0000000  0.6508444  3
   2851   2852   2854   2868     1  0.0000000  0.6508444  3
   2851   2853   2856   2869     1  0.0000000  0.6508444  3
   2851   2853   2856   2870     1  0.0000000  0.6508444  3
   2851   2858   2859   2873     1  0.0000000  0.6508444  3
   2851   2858   2859   2874     1  0.0000000  0.6508444  3
   2852   2851   2853   2865     1  0.0000000  0.6508444  3
   2852   2851   2853   2866     1  0.0000000  0.6508444  3
   2852   2851   2858   2871     1  0.0000000  0.6508444  3
   2852   2851   2858   2872     1  0.0000000  0.6508444  3
   2853   2851   2852   2863     1  0.0000000  0.6508444  3
   2853   2851   2852   2864     1  0.0000000  0.6508444  3
   2853   2851   2858   2871     1  0.0000000  0.6508444  3
   2853   2851   2858   2872     1  0.0000000  0.6508444  3
   2854   2852   2851   2876     1  0.0000000  0.6508444  3
   2854   2855   4419   4420     1  180.0000771  10.4600000  2
   2855   2854   2852   2863     1  0.0000000  0.6508444  3
   2855   2854   2852   2864     1  0.0000000  0.6508444  3
   2855   4419   4421   4423     1  0.0000000  0.0000000  2
   2855   4419   4421   4424     1  0.0000000  0.0000000  2
   2856   2853   2851   2876     1  0.0000000  0.6508444  3
   2856   2857   4431   4432     1  180.0000771  10.4600000  2
   2857   2856   2853   2865     1  0.0000000  0.6508444  3
   2857   2856   2853   2866     1  0.0000000  0.6508444  3
   2857   4431   4433   4435     1  0.0000000  0.0000000  2
   2857   4431   4433   4436     1  0.0000000  0.0000000  2
   2858   2851   2852   2863     1  0.0000000  0.6508444  3
   2858   2851   2852   2864     1  0.0000000  0.6508444  3
   2858   2851   2853   2865     1  0.0000000  0.6508444  3
   2858   2851   2853   2866     1  0.0000000  0.6508444  3
   2858   2859   2860   2875     1  0.0000000  0.0000000  2
   2859   2858   2851   2876     1  0.0000000  0.6508444  3
   2860   2859   2858   2871     1  0.0000000  0.6508444  3
   2860   2859   2858   2872     1  0.0000000  0.6508444  3
   2861   2855   2854   2867     1  0.0000000  3.3472000  1
   2861   2855   2854   2867     1  0.0000000  0.0000000  2
   2861   2855   2854   2867     1  180.0000771  0.3347200  3
   2861   2855   2854   2868     1  0.0000000  3.3472000  1
   2861   2855   2854   2868     1  0.0000000  0.0000000  2
   2861   2855   2854   2868     1  180.0000771  0.3347200  3
   2861   2855   4419   4420     1  0.0000000  8.3680000  1
   2861   2855   4419   4420     1  180.0000771  10.4600000  2
   2862   2857   2856   2869     1  0.0000000  3.3472000  1
   2862   2857   2856   2869     1  0.0000000  0.0000000  2
   2862   2857   2856   2869     1  180.0000771  0.3347200  3
   2862   2857   2856   2870     1  0.0000000  3.3472000  1
   2862   2857   2856   2870     1  0.0000000  0.0000000  2
   2862   2857   2856   2870     1  180.0000771  0.3347200  3
   2862   2857   4431   4432     1  0.0000000  8.3680000  1
   2862   2857   4431   4432     1  180.0000771  10.4600000  2
   2863   2852   2851   2876     1  0.0000000  0.6508444  3
   2863   2852   2854   2867     1  0.0000000  0.6508444  3
   2863   2852   2854   2868     1  0.0000000  0.6508444  3
   2864   2852   2851   2876     1  0.0000000  0.6508444  3
   2864   2852   2854   2867     1  0.0000000  0.6508444  3
   2864   2852   2854   2868     1  0.0000000  0.6508444  3
   2865   2853   2851   2876     1  0.0000000  0.6508444  3
   2865   2853   2856   2869     1  0.0000000  0.6508444  3
   2865   2853   2856   2870     1  0.0000000  0.6508444  3
   2866   2853   2851   2876     1  0.0000000  0.6508444  3
   2866   2853   2856   2869     1  0.0000000  0.6508444  3
   2866   2853   2856   2870     1  0.0000000  0.6508444  3
   2867   2854   2855   4419     1  180.0000771  0.0000000  2
   2868   2854   2855   4419     1  180.0000771  0.0000000  2
   2869   2856   2857   4431     1  180.0000771  0.0000000  2
   2870   2856   2857   4431     1  180.0000771  0.0000000  2
   2871   2858   2851   2876     1  0.0000000  0.6508444  3
   2871   2858   2859   2873     1  0.0000000  0.6508444  3
   2871   2858   2859   2874     1  0.0000000  0.6508444  3
   2872   2858   2851   2876     1  0.0000000  0.6508444  3
   2872   2858   2859   2873     1  0.0000000  0.6508444  3
   2872   2858   2859   2874     1  0.0000000  0.6508444  3
   2873   2859   2860   2875     1  0.0000000  0.0000000  2
   2874   2859   2860   2875     1  0.0000000  0.0000000  2
   2877   2878   2880   2893     1  0.0000000  0.6508444  3
   2877   2878   2880   2894     1  0.0000000  0.6508444  3
   2877   2879   2882   2895     1  0.0000000  0.6508444  3
   2877   2879   2882   2896     1  0.0000000  0.6508444  3
   2877   2884   2885   2899     1  0.0000000  0.6508444  3
   2877   2884   2885   2900     1  0.0000000  0.6508444  3
   2878   2877   2879   2891     1  0.0000000  0.6508444  3
   2878   2877   2879   2892     1  0.0000000  0.6508444  3
   2878   2877   2884   2897     1  0.0000000  0.6508444  3
   2878   2877   2884   2898     1  0.0000000  0.6508444  3
   2879   2877   2878   2889     1  0.0000000  0.6508444  3
   2879   2877   2878   2890     1  0.0000000  0.6508444  3
   2879   2877   2884   2897     1  0.0000000  0.6508444  3
   2879   2877   2884   2898     1  0.0000000  0.6508444  3
   2880   2878   2877   2902     1  0.0000000  0.6508444  3
   2880   2881   4443   4444     1  180.0000771  10.4600000  2
   2881   2880   2878   2889     1  0.0000000  0.6508444  3
   2881   2880   2878   2890     1  0.0000000  0.6508444  3
   2881   4443   4445   4447     1  0.0000000  0.0000000  2
   2881   4443   4445   4448     1  0.0000000  0.0000000  2
   2882   2879   2877   2902     1  0.0000000  0.6508444  3
   2882   2883   4455   4456     1  180.0000771  10.4600000  2
   2883   2882   2879   2891     1  0.0000000  0.6508444  3
   2883   2882   2879   2892     1  0.0000000  0.6508444  3
   2883   4455   4457   4459     1  0.0000000  0.0000000  2
   2883   4455   4457   4460     1  0.0000000  0.0000000  2
   2884   2877   2878   2889     1  0.0000000  0.6508444  3
   2884   2877   2878   2890     1  0.0000000  0.6508444  3
   2884   2877   2879   2891     1  0.0000000  0.6508444  3
   2884   2877   2879   2892     1  0.0000000  0.6508444  3
   2884   2885   2886   2901     1  0.0000000  0.0000000  2
   2885   2884   2877   2902     1  0.0000000  0.6508444  3
   2886   2885   2884   2897     1  0.0000000  0.6508444  3
   2886   2885   2884   2898     1  0.0000000  0.6508444  3
   2887   2881   2880   2893     1  0.0000000  3.3472000  1
   2887   2881   2880   2893     1  0.0000000  0.0000000  2
   2887   2881   2880   2893     1  180.0000771  0.3347200  3
   2887   2881   2880   2894     1  0.0000000  3.3472000  1
   2887   2881   2880   2894     1  0.0000000  0.0000000  2
   2887   2881   2880   2894     1  180.0000771  0.3347200  3
   2887   2881   4443   4444     1  0.0000000  8.3680000  1
   2887   2881   4443   4444     1  180.0000771  10.4600000  2
   2888   2883   2882   2895     1  0.0000000  3.3472000  1
   2888   2883   2882   2895     1  0.0000000  0.0000000  2
   2888   2883   2882   2895     1  180.0000771  0.3347200  3
   2888   2883   2882   2896     1  0.0000000  3.3472000  1
   2888   2883   2882   2896     1  0.0000000  0.0000000  2
   2888   2883   2882   2896     1  180.0000771  0.3347200  3
   2888   2883   4455   4456     1  0.0000000  8.3680000  1
   2888   2883   4455   4456     1  180.0000771  10.4600000  2
   2889   2878   2877   2902     1  0.0000000  0.6508444  3
   2889   2878   2880   2893     1  0.0000000  0.6508444  3
   2889   2878   2880   2894     1  0.0000000  0.6508444  3
   2890   2878   2877   2902     1  0.0000000  0.6508444  3
   2890   2878   2880   2893     1  0.0000000  0.6508444  3
   2890   2878   2880   2894     1  0.0000000  0.6508444  3
   2891   2879   2877   2902     1  0.0000000  0.6508444  3
   2891   2879   2882   2895     1  0.0000000  0.6508444  3
   2891   2879   2882   2896     1  0.0000000  0.6508444  3
   2892   2879   2877   2902     1  0.0000000  0.6508444  3
   2892   2879   2882   2895     1  0.0000000  0.6508444  3
   2892   2879   2882   2896     1  0.0000000  0.6508444  3
   2893   2880   2881   4443     1  180.0000771  0.0000000  2
   2894   2880   2881   4443     1  180.0000771  0.0000000  2
   2895   2882   2883   4455     1  180.0000771  0.0000000  2
   2896   2882   2883   4455     1  180.0000771  0.0000000  2
   2897   2884   2877   2902     1  0.0000000  0.6508444  3
   2897   2884   2885   2899     1  0.0000000  0.6508444  3
   2897   2884   2885   2900     1  0.0000000  0.6508444  3
   2898   2884   2877   2902     1  0.0000000  0.6508444  3
   2898   2884   2885   2899     1  0.0000000  0.6508444  3
   2898   2884   2885   2900     1  0.0000000  0.6508444  3
   2899   2885   2886   2901     1  0.0000000  0.0000000  2
   2900   2885   2886   2901     1  0.0000000  0.0000000  2
   2903   2904   2906   2919     1  0.0000000  0.6508444  3
   2903   2904   2906   2920     1  0.0000000  0.6508444  3
   2903   2905   2908   2921     1  0.0000000  0.6508444  3
   2903   2905   2908   2922     1  0.0000000  0.6508444  3
   2903   2910   2911   2925     1  0.0000000  0.6508444  3
   2903   2910   2911   2926     1  0.0000000  0.6508444  3
   2904   2903   2905   2917     1  0.0000000  0.6508444  3
   2904   2903   2905   2918     1  0.0000000  0.6508444  3
   2904   2903   2910   2923     1  0.0000000  0.6508444  3
   2904   2903   2910   2924     1  0.0000000  0.6508444  3
   2905   2903   2904   2915     1  0.0000000  0.6508444  3
   2905   2903   2904   2916     1  0.0000000  0.6508444  3
   2905   2903   2910   2923     1  0.0000000  0.6508444  3
   2905   2903   2910   2924     1  0.0000000  0.6508444  3
   2906   2904   2903   2928     1  0.0000000  0.6508444  3
   2906   2907   4467   4468     1  180.0000771  10.4600000  2
   2907   2906   2904   2915     1  0.0000000  0.6508444  3
   2907   2906   2904   2916     1  0.0000000  0.6508444  3
   2907   4467   4469   4471     1  0.0000000  0.0000000  2
   2907   4467   4469   4472     1  0.0000000  0.0000000  2
   2908   2905   2903   2928     1  0.0000000  0.6508444  3
   2908   2909   4479   4480     1  180.0000771  10.4600000  2
   2909   2908   2905   2917     1  0.0000000  0.6508444  3
   2909   2908   2905   2918     1  0.0000000  0.6508444  3
   2909   4479   4481   4483     1  0.0000000  0.0000000  2
   2909   4479   4481   4484     1  0.0000000  0.0000000  2
   2910   2903   2904   2915     1  0.0000000  0.6508444  3
   2910   2903   2904   2916     1  0.0000000  0.6508444  3
   2910   2903   2905   2917     1  0.0000000  0.6508444  3
   2910   2903   2905   2918     1  0.0000000  0.6508444  3
   2910   2911   2912   2927     1  0.0000000  0.0000000  2
   2911   2910   2903   2928     1  0.0000000  0.6508444  3
   2912   2911   2910   2923     1  0.0000000  0.6508444  3
   2912   2911   2910   2924     1  0.0000000  0.6508444  3
   2913   2907   2906   2919     1  0.0000000  3.3472000  1
   2913   2907   2906   2919     1  0.0000000  0.0000000  2
   2913   2907   2906   2919     1  180.0000771  0.3347200  3
   2913   2907   2906   2920     1  0.0000000  3.3472000  1
   2913   2907   2906   2920     1  0.0000000  0.0000000  2
   2913   2907   2906   2920     1  180.0000771  0.3347200  3
   2913   2907   4467   4468     1  0.0000000  8.3680000  1
   2913   2907   4467   4468     1  180.0000771  10.4600000  2
   2914   2909   2908   2921     1  0.0000000  3.3472000  1
   2914   2909   2908   2921     1  0.0000000  0.0000000  2
   2914   2909   2908   2921     1  180.0000771  0.3347200  3
   2914   2909   2908   2922     1  0.0000000  3.3472000  1
   2914   2909   2908   2922     1  0.0000000  0.0000000  2
   2914   2909   2908   2922     1  180.0000771  0.3347200  3
   2914   2909   4479   4480     1  0.0000000  8.3680000  1
   2914   2909   4479   4480     1  180.0000771  10.4600000  2
   2915   2904   2903   2928     1  0.0000000  0.6508444  3
   2915   2904   2906   2919     1  0.0000000  0.6508444  3
   2915   2904   2906   2920     1  0.0000000  0.6508444  3
   2916   2904   2903   2928     1  0.0000000  0.6508444  3
   2916   2904   2906   2919     1  0.0000000  0.6508444  3
   2916   2904   2906   2920     1  0.0000000  0.6508444  3
   2917   2905   2903   2928     1  0.0000000  0.6508444  3
   2917   2905   2908   2921     1  0.0000000  0.6508444  3
   2917   2905   2908   2922     1  0.0000000  0.6508444  3
   2918   2905   2903   2928     1  0.0000000  0.6508444  3
   2918   2905   2908   2921     1  0.0000000  0.6508444  3
   2918   2905   2908   2922     1  0.0000000  0.6508444  3
   2919   2906   2907   4467     1  180.0000771  0.0000000  2
   2920   2906   2907   4467     1  180.0000771  0.0000000  2
   2921   2908   2909   4479     1  180.0000771  0.0000000  2
   2922   2908   2909   4479     1  180.0000771  0.0000000  2
   2923   2910   2903   2928     1  0.0000000  0.6508444  3
   2923   2910   2911   2925     1  0.0000000  0.6508444  3
   2923   2910   2911   2926     1  0.0000000  0.6508444  3
   2924   2910   2903   2928     1  0.0000000  0.6508444  3
   2924   2910   2911   2925     1  0.0000000  0.6508444  3
   2924   2910   2911   2926     1  0.0000000  0.6508444  3
   2925   2911   2912   2927     1  0.0000000  0.0000000  2
   2926   2911   2912   2927     1  0.0000000  0.0000000  2
   2929   2930   2932   2945     1  0.0000000  0.6508444  3
   2929   2930   2932   2946     1  0.0000000  0.6508444  3
   2929   2931   2934   2947     1  0.0000000  0.6508444  3
   2929   2931   2934   2948     1  0.0000000  0.6508444  3
   2929   2936   2937   2951     1  0.0000000  0.6508444  3
   2929   2936   2937   2952     1  0.0000000  0.6508444  3
   2930   2929   2931   2943     1  0.0000000  0.6508444  3
   2930   2929   2931   2944     1  0.0000000  0.6508444  3
   2930   2929   2936   2949     1  0.0000000  0.6508444  3
   2930   2929   2936   2950     1  0.0000000  0.6508444  3
   2931   2929   2930   2941     1  0.0000000  0.6508444  3
   2931   2929   2930   2942     1  0.0000000  0.6508444  3
   2931   2929   2936   2949     1  0.0000000  0.6508444  3
   2931   2929   2936   2950     1  0.0000000  0.6508444  3
   2932   2930   2929   2954     1  0.0000000  0.6508444  3
   2932   2933   4491   4492     1  180.0000771  10.4600000  2
   2933   2932   2930   2941     1  0.0000000  0.6508444  3
   2933   2932   2930   2942     1  0.0000000  0.6508444  3
   2933   4491   4493   4495     1  0.0000000  0.0000000  2
   2933   4491   4493   4496     1  0.0000000  0.0000000  2
   2934   2931   2929   2954     1  0.0000000  0.6508444  3
   2934   2935   4503   4504     1  180.0000771  10.4600000  2
   2935   2934   2931   2943     1  0.0000000  0.6508444  3
   2935   2934   2931   2944     1  0.0000000  0.6508444  3
   2935   4503   4505   4507     1  0.0000000  0.0000000  2
   2935   4503   4505   4508     1  0.0000000  0.0000000  2
   2936   2929   2930   2941     1  0.0000000  0.6508444  3
   2936   2929   2930   2942     1  0.0000000  0.6508444  3
   2936   2929   2931   2943     1  0.0000000  0.6508444  3
   2936   2929   2931   2944     1  0.0000000  0.6508444  3
   2936   2937   2938   2953     1  0.0000000  0.0000000  2
   2937   2936   2929   2954     1  0.0000000  0.6508444  3
   2938   2937   2936   2949     1  0.0000000  0.6508444  3
   2938   2937   2936   2950     1  0.0000000  0.6508444  3
   2939   2933   2932   2945     1  0.0000000  3.3472000  1
   2939   2933   2932   2945     1  0.0000000  0.0000000  2
   2939   2933   2932   2945     1  180.0000771  0.3347200  3
   2939   2933   2932   2946     1  0.0000000  3.3472000  1
   2939   2933   2932   2946     1  0.0000000  0.0000000  2
   2939   2933   2932   2946     1  180.0000771  0.3347200  3
   2939   2933   4491   4492     1  0.0000000  8.3680000  1
   2939   2933   4491   4492     1  180.0000771  10.4600000  2
   2940   2935   2934   2947     1  0.0000000  3.3472000  1
   2940   2935   2934   2947     1  0.0000000  0.0000000  2
   2940   2935   2934   2947     1  180.0000771  0.3347200  3
   2940   2935   2934   2948     1  0.0000000  3.3472000  1
   2940   2935   2934   2948     1  0.0000000  0.0000000  2
   2940   2935   2934   2948     1  180.0000771  0.3347200  3
   2940   2935   4503   4504     1  0.0000000  8.3680000  1
   2940   2935   4503   4504     1  180.0000771  10.4600000  2
   2941   2930   2929   2954     1  0.0000000  0.6508444  3
   2941   2930   2932   2945     1  0.0000000  0.6508444  3
   2941   2930   2932   2946     1  0.0000000  0.6508444  3
   2942   2930   2929   2954     1  0.0000000  0.6508444  3
   2942   2930   2932   2945     1  0.0000000  0.6508444  3
   2942   2930   2932   2946     1  0.0000000  0.6508444  3
   2943   2931   2929   2954     1  0.0000000  0.6508444  3
   2943   2931   2934   2947     1  0.0000000  0.6508444  3
   2943   2931   2934   2948     1  0.0000000  0.6508444  3
   2944   2931   2929   2954     1  0.0000000  0.6508444  3
   2944   2931   2934   2947     1  0.0000000  0.6508444  3
   2944   2931   2934   2948     1  0.0000000  0.6508444  3
   2945   2932   2933   4491     1  180.0000771  0.0000000  2
   2946   2932   2933   4491     1  180.0000771  0.0000000  2
   2947   2934   2935   4503     1  180.0000771  0.0000000  2
   2948   2934   2935   4503     1  180.0000771  0.0000000  2
   2949   2936   2929   2954     1  0.0000000  0.6508444  3
   2949   2936   2937   2951     1  0.0000000  0.6508444  3
   2949   2936   2937   2952     1  0.0000000  0.6508444  3
   2950   2936   2929   2954     1  0.0000000  0.6508444  3
   2950   2936   2937   2951     1  0.0000000  0.6508444  3
   2950   2936   2937   2952     1  0.0000000  0.6508444  3
   2951   2937   2938   2953     1  0.0000000  0.0000000  2
   2952   2937   2938   2953     1  0.0000000  0.0000000  2
   2955   2956   2958   2971     1  0.0000000  0.6508444  3
   2955   2956   2958   2972     1  0.0000000  0.6508444  3
   2955   2957   2960   2973     1  0.0000000  0.6508444  3
   2955   2957   2960   2974     1  0.0000000  0.6508444  3
   2955   2962   2963   2977     1  0.0000000  0.6508444  3
   2955   2962   2963   2978     1  0.0000000  0.6508444  3
   2956   2955   2957   2969     1  0.0000000  0.6508444  3
   2956   2955   2957   2970     1  0.0000000  0.6508444  3
   2956   2955   2962   2975     1  0.0000000  0.6508444  3
   2956   2955   2962   2976     1  0.0000000  0.6508444  3
   2957   2955   2956   2967     1  0.0000000  0.6508444  3
   2957   2955   2956   2968     1  0.0000000  0.6508444  3
   2957   2955   2962   2975     1  0.0000000  0.6508444  3
   2957   2955   2962   2976     1  0.0000000  0.6508444  3
   2958   2956   2955   2980     1  0.0000000  0.6508444  3
   2958   2959   4515   4516     1  180.0000771  10.4600000  2
   2959   2958   2956   2967     1  0.0000000  0.6508444  3
   2959   2958   2956   2968     1  0.0000000  0.6508444  3
   2959   4515   4517   4519     1  0.0000000  0.0000000  2
   2959   4515   4517   4520     1  0.0000000  0.0000000  2
   2960   2957   2955   2980     1  0.0000000  0.6508444  3
   2960   2961   4527   4528     1  180.0000771  10.4600000  2
   2961   2960   2957   2969     1  0.0000000  0.6508444  3
   2961   2960   2957   2970     1  0.0000000  0.6508444  3
   2961   4527   4529   4531     1  0.0000000  0.0000000  2
   2961   4527   4529   4532     1  0.0000000  0.0000000  2
   2962   2955   2956   2967     1  0.0000000  0.6508444  3
   2962   2955   2956   2968     1  0.0000000  0.6508444  3
   2962   2955   2957   2969     1  0.0000000  0.6508444  3
   2962   2955   2957   2970     1  0.0000000  0.6508444  3
   2962   2963   2964   2979     1  0.0000000  0.0000000  2
   2963   2962   2955   2980     1  0.0000000  0.6508444  3
   2964   2963   2962   2975     1  0.0000000  0.6508444  3
   2964   2963   2962   2976     1  0.0000000  0.6508444  3
   2965   2959   2958   2971     1  0.0000000  3.3472000  1
   2965   2959   2958   2971     1  0.0000000  0.0000000  2
   2965   2959   2958   2971     1  180.0000771  0.3347200  3
   2965   2959   2958   2972     1  0.0000000  3.3472000  1
   2965   2959   2958   2972     1  0.0000000  0.0000000  2
   2965   2959   2958   2972     1  180.0000771  0.3347200  3
   2965   2959   4515   4516     1  0.0000000  8.3680000  1
   2965   2959   4515   4516     1  180.0000771  10.4600000  2
   2966   2961   2960   2973     1  0.0000000  3.3472000  1
   2966   2961   2960   2973     1  0.0000000  0.0000000  2
   2966   2961   2960   2973     1  180.0000771  0.3347200  3
   2966   2961   2960   2974     1  0.0000000  3.3472000  1
   2966   2961   2960   2974     1  0.0000000  0.0000000  2
   2966   2961   2960   2974     1  180.0000771  0.3347200  3
   2966   2961   4527   4528     1  0.0000000  8.3680000  1
   2966   2961   4527   4528     1  180.0000771  10.4600000  2
   2967   2956   2955   2980     1  0.0000000  0.6508444  3
   2967   2956   2958   2971     1  0.0000000  0.6508444  3
   2967   2956   2958   2972     1  0.0000000  0.6508444  3
   2968   2956   2955   2980     1  0.0000000  0.6508444  3
   2968   2956   2958   2971     1  0.0000000  0.6508444  3
   2968   2956   2958   2972     1  0.0000000  0.6508444  3
   2969   2957   2955   2980     1  0.0000000  0.6508444  3
   2969   2957   2960   2973     1  0.0000000  0.6508444  3
   2969   2957   2960   2974     1  0.0000000  0.6508444  3
   2970   2957   2955   2980     1  0.0000000  0.6508444  3
   2970   2957   2960   2973     1  0.0000000  0.6508444  3
   2970   2957   2960   2974     1  0.0000000  0.6508444  3
   2971   2958   2959   4515     1  180.0000771  0.0000000  2
   2972   2958   2959   4515     1  180.0000771  0.0000000  2
   2973   2960   2961   4527     1  180.0000771  0.0000000  2
   2974   2960   2961   4527     1  180.0000771  0.0000000  2
   2975   2962   2955   2980     1  0.0000000  0.6508444  3
   2975   2962   2963   2977     1  0.0000000  0.6508444  3
   2975   2962   2963   2978     1  0.0000000  0.6508444  3
   2976   2962   2955   2980     1  0.0000000  0.6508444  3
   2976   2962   2963   2977     1  0.0000000  0.6508444  3
   2976   2962   2963   2978     1  0.0000000  0.6508444  3
   2977   2963   2964   2979     1  0.0000000  0.0000000  2
   2978   2963   2964   2979     1  0.0000000  0.0000000  2
   2981   2982   2984   2997     1  0.0000000  0.6508444  3
   2981   2982   2984   2998     1  0.0000000  0.6508444  3
   2981   2983   2986   2999     1  0.0000000  0.6508444  3
   2981   2983   2986   3000     1  0.0000000  0.6508444  3
   2981   2988   2989   3003     1  0.0000000  0.6508444  3
   2981   2988   2989   3004     1  0.0000000  0.6508444  3
   2982   2981   2983   2995     1  0.0000000  0.6508444  3
   2982   2981   2983   2996     1  0.0000000  0.6508444  3
   2982   2981   2988   3001     1  0.0000000  0.6508444  3
   2982   2981   2988   3002     1  0.0000000  0.6508444  3
   2983   2981   2982   2993     1  0.0000000  0.6508444  3
   2983   2981   2982   2994     1  0.0000000  0.6508444  3
   2983   2981   2988   3001     1  0.0000000  0.6508444  3
   2983   2981   2988   3002     1  0.0000000  0.6508444  3
   2984   2982   2981   3006     1  0.0000000  0.6508444  3
   2984   2985   4539   4540     1  180.0000771  10.4600000  2
   2985   2984   2982   2993     1  0.0000000  0.6508444  3
   2985   2984   2982   2994     1  0.0000000  0.6508444  3
   2985   4539   4541   4543     1  0.0000000  0.0000000  2
   2985   4539   4541   4544     1  0.0000000  0.0000000  2
   2986   2983   2981   3006     1  0.0000000  0.6508444  3
   2986   2987   4551   4552     1  180.0000771  10.4600000  2
   2987   2986   2983   2995     1  0.0000000  0.6508444  3
   2987   2986   2983   2996     1  0.0000000  0.6508444  3
   2987   4551   4553   4555     1  0.0000000  0.0000000  2
   2987   4551   4553   4556     1  0.0000000  0.0000000  2
   2988   2981   2982   2993     1  0.0000000  0.6508444  3
   2988   2981   2982   2994     1  0.0000000  0.6508444  3
   2988   2981   2983   2995     1  0.0000000  0.6508444  3
   2988   2981   2983   2996     1  0.0000000  0.6508444  3
   2988   2989   2990   3005     1  0.0000000  0.0000000  2
   2989   2988   2981   3006     1  0.0000000  0.6508444  3
   2990   2989   2988   3001     1  0.0000000  0.6508444  3
   2990   2989   2988   3002     1  0.0000000  0.6508444  3
   2991   2985   2984   2997     1  0.0000000  3.3472000  1
   2991   2985   2984   2997     1  0.0000000  0.0000000  2
   2991   2985   2984   2997     1  180.0000771  0.3347200  3
   2991   2985   2984   2998     1  0.0000000  3.3472000  1
   2991   2985   2984   2998     1  0.0000000  0.0000000  2
   2991   2985   2984   2998     1  180.0000771  0.3347200  3
   2991   2985   4539   4540     1  0.0000000  8.3680000  1
   2991   2985   4539   4540     1  180.0000771  10.4600000  2
   2992   2987   2986   2999     1  0.0000000  3.3472000  1
   2992   2987   2986   2999     1  0.0000000  0.0000000  2
   2992   2987   2986   2999     1  180.0000771  0.3347200  3
   2992   2987   2986   3000     1  0.0000000  3.3472000  1
   2992   2987   2986   3000     1  0.0000000  0.0000000  2
   2992   2987   2986   3000     1  180.0000771  0.3347200  3
   2992   2987   4551   4552     1  0.0000000  8.3680000  1
   2992   2987   4551   4552     1  180.0000771  10.4600000  2
   2993   2982   2981   3006     1  0.0000000  0.6508444  3
   2993   2982   2984   2997     1  0.0000000  0.6508444  3
   2993   2982   2984   2998     1  0.0000000  0.6508444  3
   2994   2982   2981   3006     1  0.0000000  0.6508444  3
   2994   2982   2984   2997     1  0.0000000  0.6508444  3
   2994   2982   2984   2998     1  0.0000000  0.6508444  3
   2995   2983   2981   3006     1  0.0000000  0.6508444  3
   2995   2983   2986   2999     1  0.0000000  0.6508444  3
   2995   2983   2986   3000     1  0.0000000  0.6508444  3
   2996   2983   2981   3006     1  0.0000000  0.6508444  3
   2996   2983   2986   2999     1  0.0000000  0.6508444  3
   2996   2983   2986   3000     1  0.0000000  0.6508444  3
   2997   2984   2985   4539     1  180.0000771  0.0000000  2
   2998   2984   2985   4539     1  180.0000771  0.0000000  2
   2999   2986   2987   4551     1  180.0000771  0.0000000  2
   3000   2986   2987   4551     1  180.0000771  0.0000000  2
   3001   2988   2981   3006     1  0.0000000  0.6508444  3
   3001   2988   2989   3003     1  0.0000000  0.6508444  3
   3001   2988   2989   3004     1  0.0000000  0.6508444  3
   3002   2988   2981   3006     1  0.0000000  0.6508444  3
   3002   2988   2989   3003     1  0.0000000  0.6508444  3
   3002   2988   2989   3004     1  0.0000000  0.6508444  3
   3003   2989   2990   3005     1  0.0000000  0.0000000  2
   3004   2989   2990   3005     1  0.0000000  0.0000000  2
   3007   3008   3010   3023     1  0.0000000  0.6508444  3
   3007   3008   3010   3024     1  0.0000000  0.6508444  3
   3007   3009   3012   3025     1  0.0000000  0.6508444  3
   3007   3009   3012   3026     1  0.0000000  0.6508444  3
   3007   3014   3015   3029     1  0.0000000  0.6508444  3
   3007   3014   3015   3030     1  0.0000000  0.6508444  3
   3008   3007   3009   3021     1  0.0000000  0.6508444  3
   3008   3007   3009   3022     1  0.0000000  0.6508444  3
   3008   3007   3014   3027     1  0.0000000  0.6508444  3
   3008   3007   3014   3028     1  0.0000000  0.6508444  3
   3009   3007   3008   3019     1  0.0000000  0.6508444  3
   3009   3007   3008   3020     1  0.0000000  0.6508444  3
   3009   3007   3014   3027     1  0.0000000  0.6508444  3
   3009   3007   3014   3028     1  0.0000000  0.6508444  3
   3010   3008   3007   3032     1  0.0000000  0.6508444  3
   3010   3011   4563   4564     1  180.0000771  10.4600000  2
   3011   3010   3008   3019     1  0.0000000  0.6508444  3
   3011   3010   3008   3020     1  0.0000000  0.6508444  3
   3011   4563   4565   4567     1  0.0000000  0.0000000  2
   3011   4563   4565   4568     1  0.0000000  0.0000000  2
   3012   3009   3007   3032     1  0.0000000  0.6508444  3
   3012   3013   4575   4576     1  180.0000771  10.4600000  2
   3013   3012   3009   3021     1  0.0000000  0.6508444  3
   3013   3012   3009   3022     1  0.0000000  0.6508444  3
   3013   4575   4577   4579     1  0.0000000  0.0000000  2
   3013   4575   4577   4580     1  0.0000000  0.0000000  2
   3014   3007   3008   3019     1  0.0000000  0.6508444  3
   3014   3007   3008   3020     1  0.0000000  0.6508444  3
   3014   3007   3009   3021     1  0.0000000  0.6508444  3
   3014   3007   3009   3022     1  0.0000000  0.6508444  3
   3014   3015   3016   3031     1  0.0000000  0.0000000  2
   3015   3014   3007   3032     1  0.0000000  0.6508444  3
   3016   3015   3014   3027     1  0.0000000  0.6508444  3
   3016   3015   3014   3028     1  0.0000000  0.6508444  3
   3017   3011   3010   3023     1  0.0000000  3.3472000  1
   3017   3011   3010   3023     1  0.0000000  0.0000000  2
   3017   3011   3010   3023     1  180.0000771  0.3347200  3
   3017   3011   3010   3024     1  0.0000000  3.3472000  1
   3017   3011   3010   3024     1  0.0000000  0.0000000  2
   3017   3011   3010   3024     1  180.0000771  0.3347200  3
   3017   3011   4563   4564     1  0.0000000  8.3680000  1
   3017   3011   4563   4564     1  180.0000771  10.4600000  2
   3018   3013   3012   3025     1  0.0000000  3.3472000  1
   3018   3013   3012   3025     1  0.0000000  0.0000000  2
   3018   3013   3012   3025     1  180.0000771  0.3347200  3
   3018   3013   3012   3026     1  0.0000000  3.3472000  1
   3018   3013   3012   3026     1  0.0000000  0.0000000  2
   3018   3013   3012   3026     1  180.0000771  0.3347200  3
   3018   3013   4575   4576     1  0.0000000  8.3680000  1
   3018   3013   4575   4576     1  180.0000771  10.4600000  2
   3019   3008   3007   3032     1  0.0000000  0.6508444  3
   3019   3008   3010   3023     1  0.0000000  0.6508444  3
   3019   3008   3010   3024     1  0.0000000  0.6508444  3
   3020   3008   3007   3032     1  0.0000000  0.6508444  3
   3020   3008   3010   3023     1  0.0000000  0.6508444  3
   3020   3008   3010   3024     1  0.0000000  0.6508444  3
   3021   3009   3007   3032     1  0.0000000  0.6508444  3
   3021   3009   3012   3025     1  0.0000000  0.6508444  3
   3021   3009   3012   3026     1  0.0000000  0.6508444  3
   3022   3009   3007   3032     1  0.0000000  0.6508444  3
   3022   3009   3012   3025     1  0.0000000  0.6508444  3
   3022   3009   3012   3026     1  0.0000000  0.6508444  3
   3023   3010   3011   4563     1  180.0000771  0.0000000  2
   3024   3010   3011   4563     1  180.0000771  0.0000000  2
   3025   3012   3013   4575     1  180.0000771  0.0000000  2
   3026   3012   3013   4575     1  180.0000771  0.0000000  2
   3027   3014   3007   3032     1  0.0000000  0.6508444  3
   3027   3014   3015   3029     1  0.0000000  0.6508444  3
   3027   3014   3015   3030     1  0.0000000  0.6508444  3
   3028   3014   3007   3032     1  0.0000000  0.6508444  3
   3028   3014   3015   3029     1  0.0000000  0.6508444  3
   3028   3014   3015   3030     1  0.0000000  0.6508444  3
   3029   3015   3016   3031     1  0.0000000  0.0000000  2
   3030   3015   3016   3031     1  0.0000000  0.0000000  2
   3033   3034   3036   3049     1  0.0000000  0.6508444  3
   3033   3034   3036   3050     1  0.0000000  0.6508444  3
   3033   3035   3038   3051     1  0.0000000  0.6508444  3
   3033   3035   3038   3052     1  0.0000000  0.6508444  3
   3033   3040   3041   3055     1  0.0000000  0.6508444  3
   3033   3040   3041   3056     1  0.0000000  0.6508444  3
   3034   3033   3035   3047     1  0.0000000  0.6508444  3
   3034   3033   3035   3048     1  0.0000000  0.6508444  3
   3034   3033   3040   3053     1  0.0000000  0.6508444  3
   3034   3033   3040   3054     1  0.0000000  0.6508444  3
   3035   3033   3034   3045     1  0.0000000  0.6508444  3
   3035   3033   3034   3046     1  0.0000000  0.6508444  3
   3035   3033   3040   3053     1  0.0000000  0.6508444  3
   3035   3033   3040   3054     1  0.0000000  0.6508444  3
   3036   3034   3033   3058     1  0.0000000  0.6508444  3
   3036   3037   4587   4588     1  180.0000771  10.4600000  2
   3037   3036   3034   3045     1  0.0000000  0.6508444  3
   3037   3036   3034   3046     1  0.0000000  0.6508444  3
   3037   4587   4589   4591     1  0.0000000  0.0000000  2
   3037   4587   4589   4592     1  0.0000000  0.0000000  2
   3038   3035   3033   3058     1  0.0000000  0.6508444  3
   3038   3039   4599   4600     1  180.0000771  10.4600000  2
   3039   3038   3035   3047     1  0.0000000  0.6508444  3
   3039   3038   3035   3048     1  0.0000000  0.6508444  3
   3039   4599   4601   4603     1  0.0000000  0.0000000  2
   3039   4599   4601   4604     1  0.0000000  0.0000000  2
   3040   3033   3034   3045     1  0.0000000  0.6508444  3
   3040   3033   3034   3046     1  0.0000000  0.6508444  3
   3040   3033   3035   3047     1  0.0000000  0.6508444  3
   3040   3033   3035   3048     1  0.0000000  0.6508444  3
   3040   3041   3042   3057     1  0.0000000  0.0000000  2
   3041   3040   3033   3058     1  0.0000000  0.6508444  3
   3042   3041   3040   3053     1  0.0000000  0.6508444  3
   3042   3041   3040   3054     1  0.0000000  0.6508444  3
   3043   3037   3036   3049     1  0.0000000  3.3472000  1
   3043   3037   3036   3049     1  0.0000000  0.0000000  2
   3043   3037   3036   3049     1  180.0000771  0.3347200  3
   3043   3037   3036   3050     1  0.0000000  3.3472000  1
   3043   3037   3036   3050     1  0.0000000  0.0000000  2
   3043   3037   3036   3050     1  180.0000771  0.3347200  3
   3043   3037   4587   4588     1  0.0000000  8.3680000  1
   3043   3037   4587   4588     1  180.0000771  10.4600000  2
   3044   3039   3038   3051     1  0.0000000  3.3472000  1
   3044   3039   3038   3051     1  0.0000000  0.0000000  2
   3044   3039   3038   3051     1  180.0000771  0.3347200  3
   3044   3039   3038   3052     1  0.0000000  3.3472000  1
   3044   3039   3038   3052     1  0.0000000  0.0000000  2
   3044   3039   3038   3052     1  180.0000771  0.3347200  3
   3044   3039   4599   4600     1  0.0000000  8.3680000  1
   3044   3039   4599   4600     1  180.0000771  10.4600000  2
   3045   3034   3033   3058     1  0.0000000  0.6508444  3
   3045   3034   3036   3049     1  0.0000000  0.6508444  3
   3045   3034   3036   3050     1  0.0000000  0.6508444  3
   3046   3034   3033   3058     1  0.0000000  0.6508444  3
   3046   3034   3036   3049     1  0.0000000  0.6508444  3
   3046   3034   3036   3050     1  0.0000000  0.6508444  3
   3047   3035   3033   3058     1  0.0000000  0.6508444  3
   3047   3035   3038   3051     1  0.0000000  0.6508444  3
   3047   3035   3038   3052     1  0.0000000  0.6508444  3
   3048   3035   3033   3058     1  0.0000000  0.6508444  3
   3048   3035   3038   3051     1  0.0000000  0.6508444  3
   3048   3035   3038   3052     1  0.0000000  0.6508444  3
   3049   3036   3037   4587     1  180.0000771  0.0000000  2
   3050   3036   3037   4587     1  180.0000771  0.0000000  2
   3051   3038   3039   4599     1  180.0000771  0.0000000  2
   3052   3038   3039   4599     1  180.0000771  0.0000000  2
   3053   3040   3033   3058     1  0.0000000  0.6508444  3
   3053   3040   3041   3055     1  0.0000000  0.6508444  3
   3053   3040   3041   3056     1  0.0000000  0.6508444  3
   3054   3040   3033   3058     1  0.0000000  0.6508444  3
   3054   3040   3041   3055     1  0.0000000  0.6508444  3
   3054   3040   3041   3056     1  0.0000000  0.6508444  3
   3055   3041   3042   3057     1  0.0000000  0.0000000  2
   3056   3041   3042   3057     1  0.0000000  0.0000000  2
   3059   3060   3062   3075     1  0.0000000  0.6508444  3
   3059   3060   3062   3076     1  0.0000000  0.6508444  3
   3059   3061   3064   3077     1  0.0000000  0.6508444  3
   3059   3061   3064   3078     1  0.0000000  0.6508444  3
   3059   3066   3067   3081     1  0.0000000  0.6508444  3
   3059   3066   3067   3082     1  0.0000000  0.6508444  3
   3060   3059   3061   3073     1  0.0000000  0.6508444  3
   3060   3059   3061   3074     1  0.0000000  0.6508444  3
   3060   3059   3066   3079     1  0.0000000  0.6508444  3
   3060   3059   3066   3080     1  0.0000000  0.6508444  3
   3061   3059   3060   3071     1  0.0000000  0.6508444  3
   3061   3059   3060   3072     1  0.0000000  0.6508444  3
   3061   3059   3066   3079     1  0.0000000  0.6508444  3
   3061   3059   3066   3080     1  0.0000000  0.6508444  3
   3062   3060   3059   3084     1  0.0000000  0.6508444  3
   3062   3063   4611   4612     1  180.0000771  10.4600000  2
   3063   3062   3060   3071     1  0.0000000  0.6508444  3
   3063   3062   3060   3072     1  0.0000000  0.6508444  3
   3063   4611   4613   4615     1  0.0000000  0.0000000  2
   3063   4611   4613   4616     1  0.0000000  0.0000000  2
   3064   3061   3059   3084     1  0.0000000  0.6508444  3
   3064   3065   4623   4624     1  180.0000771  10.4600000  2
   3065   3064   3061   3073     1  0.0000000  0.6508444  3
   3065   3064   3061   3074     1  0.0000000  0.6508444  3
   3065   4623   4625   4627     1  0.0000000  0.0000000  2
   3065   4623   4625   4628     1  0.0000000  0.0000000  2
   3066   3059   3060   3071     1  0.0000000  0.6508444  3
   3066   3059   3060   3072     1  0.0000000  0.6508444  3
   3066   3059   3061   3073     1  0.0000000  0.6508444  3
   3066   3059   3061   3074     1  0.0000000  0.6508444  3
   3066   3067   3068   3083     1  0.0000000  0.0000000  2
   3067   3066   3059   3084     1  0.0000000  0.6508444  3
   3068   3067   3066   3079     1  0.0000000  0.6508444  3
   3068   3067   3066   3080     1  0.0000000  0.6508444  3
   3069   3063   3062   3075     1  0.0000000  3.3472000  1
   3069   3063   3062   3075     1  0.0000000  0.0000000  2
   3069   3063   3062   3075     1  180.0000771  0.3347200  3
   3069   3063   3062   3076     1  0.0000000  3.3472000  1
   3069   3063   3062   3076     1  0.0000000  0.0000000  2
   3069   3063   3062   3076     1  180.0000771  0.3347200  3
   3069   3063   4611   4612     1  0.0000000  8.3680000  1
   3069   3063   4611   4612     1  180.0000771  10.4600000  2
   3070   3065   3064   3077     1  0.0000000  3.3472000  1
   3070   3065   3064   3077     1  0.0000000  0.0000000  2
   3070   3065   3064   3077     1  180.0000771  0.3347200  3
   3070   3065   3064   3078     1  0.0000000  3.3472000  1
   3070   3065   3064   3078     1  0.0000000  0.0000000  2
   3070   3065   3064   3078     1  180.0000771  0.3347200  3
   3070   3065   4623   4624     1  0.0000000  8.3680000  1
   3070   3065   4623   4624     1  180.0000771  10.4600000  2
   3071   3060   3059   3084     1  0.0000000  0.6508444  3
   3071   3060   3062   3075     1  0.0000000  0.6508444  3
   3071   3060   3062   3076     1  0.0000000  0.6508444  3
   3072   3060   3059   3084     1  0.0000000  0.6508444  3
   3072   3060   3062   3075     1  0.0000000  0.6508444  3
   3072   3060   3062   3076     1  0.0000000  0.6508444  3
   3073   3061   3059   3084     1  0.0000000  0.6508444  3
   3073   3061   3064   3077     1  0.0000000  0.6508444  3
   3073   3061   3064   3078     1  0.0000000  0.6508444  3
   3074   3061   3059   3084     1  0.0000000  0.6508444  3
   3074   3061   3064   3077     1  0.0000000  0.6508444  3
   3074   3061   3064   3078     1  0.0000000  0.6508444  3
   3075   3062   3063   4611     1  180.0000771  0.0000000  2
   3076   3062   3063   4611     1  180.0000771  0.0000000  2
   3077   3064   3065   4623     1  180.0000771  0.0000000  2
   3078   3064   3065   4623     1  180.0000771  0.0000000  2
   3079   3066   3059   3084     1  0.0000000  0.6508444  3
   3079   3066   3067   3081     1  0.0000000  0.6508444  3
   3079   3066   3067   3082     1  0.0000000  0.6508444  3
   3080   3066   3059   3084     1  0.0000000  0.6508444  3
   3080   3066   3067   3081     1  0.0000000  0.6508444  3
   3080   3066   3067   3082     1  0.0000000  0.6508444  3
   3081   3067   3068   3083     1  0.0000000  0.0000000  2
   3082   3067   3068   3083     1  0.0000000  0.0000000  2
   3085   3086   3088   3101     1  0.0000000  0.6508444  3
   3085   3086   3088   3102     1  0.0000000  0.6508444  3
   3085   3087   3090   3103     1  0.0000000  0.6508444  3
   3085   3087   3090   3104     1  0.0000000  0.6508444  3
   3085   3092   3093   3107     1  0.0000000  0.6508444  3
   3085   3092   3093   3108     1  0.0000000  0.6508444  3
   3086   3085   3087   3099     1  0.0000000  0.6508444  3
   3086   3085   3087   3100     1  0.0000000  0.6508444  3
   3086   3085   3092   3105     1  0.0000000  0.6508444  3
   3086   3085   3092   3106     1  0.0000000  0.6508444  3
   3087   3085   3086   3097     1  0.0000000  0.6508444  3
   3087   3085   3086   3098     1  0.0000000  0.6508444  3
   3087   3085   3092   3105     1  0.0000000  0.6508444  3
   3087   3085   3092   3106     1  0.0000000  0.6508444  3
   3088   3086   3085   3110     1  0.0000000  0.6508444  3
   3088   3089   4635   4636     1  180.0000771  10.4600000  2
   3089   3088   3086   3097     1  0.0000000  0.6508444  3
   3089   3088   3086   3098     1  0.0000000  0.6508444  3
   3089   4635   4637   4639     1  0.0000000  0.0000000  2
   3089   4635   4637   4640     1  0.0000000  0.0000000  2
   3090   3087   3085   3110     1  0.0000000  0.6508444  3
   3090   3091   4647   4648     1  180.0000771  10.4600000  2
   3091   3090   3087   3099     1  0.0000000  0.6508444  3
   3091   3090   3087   3100     1  0.0000000  0.6508444  3
   3091   4647   4649   4651     1  0.0000000  0.0000000  2
   3091   4647   4649   4652     1  0.0000000  0.0000000  2
   3092   3085   3086   3097     1  0.0000000  0.6508444  3
   3092   3085   3086   3098     1  0.0000000  0.6508444  3
   3092   3085   3087   3099     1  0.0000000  0.6508444  3
   3092   3085   3087   3100     1  0.0000000  0.6508444  3
   3092   3093   3094   3109     1  0.0000000  0.0000000  2
   3093   3092   3085   3110     1  0.0000000  0.6508444  3
   3094   3093   3092   3105     1  0.0000000  0.6508444  3
   3094   3093   3092   3106     1  0.0000000  0.6508444  3
   3095   3089   3088   3101     1  0.0000000  3.3472000  1
   3095   3089   3088   3101     1  0.0000000  0.0000000  2
   3095   3089   3088   3101     1  180.0000771  0.3347200  3
   3095   3089   3088   3102     1  0.0000000  3.3472000  1
   3095   3089   3088   3102     1  0.0000000  0.0000000  2
   3095   3089   3088   3102     1  180.0000771  0.3347200  3
   3095   3089   4635   4636     1  0.0000000  8.3680000  1
   3095   3089   4635   4636     1  180.0000771  10.4600000  2
   3096   3091   3090   3103     1  0.0000000  3.3472000  1
   3096   3091   3090   3103     1  0.0000000  0.0000000  2
   3096   3091   3090   3103     1  180.0000771  0.3347200  3
   3096   3091   3090   3104     1  0.0000000  3.3472000  1
   3096   3091   3090   3104     1  0.0000000  0.0000000  2
   3096   3091   3090   3104     1  180.0000771  0.3347200  3
   3096   3091   4647   4648     1  0.0000000  8.3680000  1
   3096   3091   4647   4648     1  180.0000771  10.4600000  2
   3097   3086   3085   3110     1  0.0000000  0.6508444  3
   3097   3086   3088   3101     1  0.0000000  0.6508444  3
   3097   3086   3088   3102     1  0.0000000  0.6508444  3
   3098   3086   3085   3110     1  0.0000000  0.6508444  3
   3098   3086   3088   3101     1  0.0000000  0.6508444  3
   3098   3086   3088   3102     1  0.0000000  0.6508444  3
   3099   3087   3085   3110     1  0.0000000  0.6508444  3
   3099   3087   3090   3103     1  0.0000000  0.6508444  3
   3099   3087   3090   3104     1  0.0000000  0.6508444  3
   3100   3087   3085   3110     1  0.0000000  0.6508444  3
   3100   3087   3090   3103     1  0.0000000  0.6508444  3
   3100   3087   3090   3104     1  0.0000000  0.6508444  3
   3101   3088   3089   4635     1  180.0000771  0.0000000  2
   3102   3088   3089   4635     1  180.0000771  0.0000000  2
   3103   3090   3091   4647     1  180.0000771  0.0000000  2
   3104   3090   3091   4647     1  180.0000771  0.0000000  2
   3105   3092   3085   3110     1  0.0000000  0.6508444  3
   3105   3092   3093   3107     1  0.0000000  0.6508444  3
   3105   3092   3093   3108     1  0.0000000  0.6508444  3
   3106   3092   3085   3110     1  0.0000000  0.6508444  3
   3106   3092   3093   3107     1  0.0000000  0.6508444  3
   3106   3092   3093   3108     1  0.0000000  0.6508444  3
   3107   3093   3094   3109     1  0.0000000  0.0000000  2
   3108   3093   3094   3109     1  0.0000000  0.0000000  2
   3111   3112   3114   3127     1  0.0000000  0.6508444  3
   3111   3112   3114   3128     1  0.0000000  0.6508444  3
   3111   3113   3116   3129     1  0.0000000  0.6508444  3
   3111   3113   3116   3130     1  0.0000000  0.6508444  3
   3111   3118   3119   3133     1  0.0000000  0.6508444  3
   3111   3118   3119   3134     1  0.0000000  0.6508444  3
   3112   3111   3113   3125     1  0.0000000  0.6508444  3
   3112   3111   3113   3126     1  0.0000000  0.6508444  3
   3112   3111   3118   3131     1  0.0000000  0.6508444  3
   3112   3111   3118   3132     1  0.0000000  0.6508444  3
   3113   3111   3112   3123     1  0.0000000  0.6508444  3
   3113   3111   3112   3124     1  0.0000000  0.6508444  3
   3113   3111   3118   3131     1  0.0000000  0.6508444  3
   3113   3111   3118   3132     1  0.0000000  0.6508444  3
   3114   3112   3111   3136     1  0.0000000  0.6508444  3
   3114   3115   4659   4660     1  180.0000771  10.4600000  2
   3115   3114   3112   3123     1  0.0000000  0.6508444  3
   3115   3114   3112   3124     1  0.0000000  0.6508444  3
   3115   4659   4661   4663     1  0.0000000  0.0000000  2
   3115   4659   4661   4664     1  0.0000000  0.0000000  2
   3116   3113   3111   3136     1  0.0000000  0.6508444  3
   3116   3117   4671   4672     1  180.0000771  10.4600000  2
   3117   3116   3113   3125     1  0.0000000  0.6508444  3
   3117   3116   3113   3126     1  0.0000000  0.6508444  3
   3117   4671   4673   4675     1  0.0000000  0.0000000  2
   3117   4671   4673   4676     1  0.0000000  0.0000000  2
   3118   3111   3112   3123     1  0.0000000  0.6508444  3
   3118   3111   3112   3124     1  0.0000000  0.6508444  3
   3118   3111   3113   3125     1  0.0000000  0.6508444  3
   3118   3111   3113   3126     1  0.0000000  0.6508444  3
   3118   3119   3120   3135     1  0.0000000  0.0000000  2
   3119   3118   3111   3136     1  0.0000000  0.6508444  3
   3120   3119   3118   3131     1  0.0000000  0.6508444  3
   3120   3119   3118   3132     1  0.0000000  0.6508444  3
   3121   3115   3114   3127     1  0.0000000  3.3472000  1
   3121   3115   3114   3127     1  0.0000000  0.0000000  2
   3121   3115   3114   3127     1  180.0000771  0.3347200  3
   3121   3115   3114   3128     1  0.0000000  3.3472000  1
   3121   3115   3114   3128     1  0.0000000  0.0000000  2
   3121   3115   3114   3128     1  180.0000771  0.3347200  3
   3121   3115   4659   4660     1  0.0000000  8.3680000  1
   3121   3115   4659   4660     1  180.0000771  10.4600000  2
   3122   3117   3116   3129     1  0.0000000  3.3472000  1
   3122   3117   3116   3129     1  0.0000000  0.0000000  2
   3122   3117   3116   3129     1  180.0000771  0.3347200  3
   3122   3117   3116   3130     1  0.0000000  3.3472000  1
   3122   3117   3116   3130     1  0.0000000  0.0000000  2
   3122   3117   3116   3130     1  180.0000771  0.3347200  3
   3122   3117   4671   4672     1  0.0000000  8.3680000  1
   3122   3117   4671   4672     1  180.0000771  10.4600000  2
   3123   3112   3111   3136     1  0.0000000  0.6508444  3
   3123   3112   3114   3127     1  0.0000000  0.6508444  3
   3123   3112   3114   3128     1  0.0000000  0.6508444  3
   3124   3112   3111   3136     1  0.0000000  0.6508444  3
   3124   3112   3114   3127     1  0.0000000  0.6508444  3
   3124   3112   3114   3128     1  0.0000000  0.6508444  3
   3125   3113   3111   3136     1  0.0000000  0.6508444  3
   3125   3113   3116   3129     1  0.0000000  0.6508444  3
   3125   3113   3116   3130     1  0.0000000  0.6508444  3
   3126   3113   3111   3136     1  0.0000000  0.6508444  3
   3126   3113   3116   3129     1  0.0000000  0.6508444  3
   3126   3113   3116   3130     1  0.0000000  0.6508444  3
   3127   3114   3115   4659     1  180.0000771  0.0000000  2
   3128   3114   3115   4659     1  180.0000771  0.0000000  2
   3129   3116   3117   4671     1  180.0000771  0.0000000  2
   3130   3116   3117   4671     1  180.0000771  0.0000000  2
   3131   3118   3111   3136     1  0.0000000  0.6508444  3
   3131   3118   3119   3133     1  0.0000000  0.6508444  3
   3131   3118   3119   3134     1  0.0000000  0.6508444  3
   3132   3118   3111   3136     1  0.0000000  0.6508444  3
   3132   3118   3119   3133     1  0.0000000  0.6508444  3
   3132   3118   3119   3134     1  0.0000000  0.6508444  3
   3133   3119   3120   3135     1  0.0000000  0.0000000  2
   3134   3119   3120   3135     1  0.0000000  0.0000000  2
   3137   3138   3140   3153     1  0.0000000  0.6508444  3
   3137   3138   3140   3154     1  0.0000000  0.6508444  3
   3137   3139   3142   3155     1  0.0000000  0.6508444  3
   3137   3139   3142   3156     1  0.0000000  0.6508444  3
   3137   3144   3145   3159     1  0.0000000  0.6508444  3
   3137   3144   3145   3160     1  0.0000000  0.6508444  3
   3138   3137   3139   3151     1  0.0000000  0.6508444  3
   3138   3137   3139   3152     1  0.0000000  0.6508444  3
   3138   3137   3144   3157     1  0.0000000  0.6508444  3
   3138   3137   3144   3158     1  0.0000000  0.6508444  3
   3139   3137   3138   3149     1  0.0000000  0.6508444  3
   3139   3137   3138   3150     1  0.0000000  0.6508444  3
   3139   3137   3144   3157     1  0.0000000  0.6508444  3
   3139   3137   3144   3158     1  0.0000000  0.6508444  3
   3140   3138   3137   3162     1  0.0000000  0.6508444  3
   3140   3141   4683   4684     1  180.0000771  10.4600000  2
   3141   3140   3138   3149     1  0.0000000  0.6508444  3
   3141   3140   3138   3150     1  0.0000000  0.6508444  3
   3141   4683   4685   4687     1  0.0000000  0.0000000  2
   3141   4683   4685   4688     1  0.0000000  0.0000000  2
   3142   3139   3137   3162     1  0.0000000  0.6508444  3
   3142   3143   4695   4696     1  180.0000771  10.4600000  2
   3143   3142   3139   3151     1  0.0000000  0.6508444  3
   3143   3142   3139   3152     1  0.0000000  0.6508444  3
   3143   4695   4697   4699     1  0.0000000  0.0000000  2
   3143   4695   4697   4700     1  0.0000000  0.0000000  2
   3144   3137   3138   3149     1  0.0000000  0.6508444  3
   3144   3137   3138   3150     1  0.0000000  0.6508444  3
   3144   3137   3139   3151     1  0.0000000  0.6508444  3
   3144   3137   3139   3152     1  0.0000000  0.6508444  3
   3144   3145   3146   3161     1  0.0000000  0.0000000  2
   3145   3144   3137   3162     1  0.0000000  0.6508444  3
   3146   3145   3144   3157     1  0.0000000  0.6508444  3
   3146   3145   3144   3158     1  0.0000000  0.6508444  3
   3147   3141   3140   3153     1  0.0000000  3.3472000  1
   3147   3141   3140   3153     1  0.0000000  0.0000000  2
   3147   3141   3140   3153     1  180.0000771  0.3347200  3
   3147   3141   3140   3154     1  0.0000000  3.3472000  1
   3147   3141   3140   3154     1  0.0000000  0.0000000  2
   3147   3141   3140   3154     1  180.0000771  0.3347200  3
   3147   3141   4683   4684     1  0.0000000  8.3680000  1
   3147   3141   4683   4684     1  180.0000771  10.4600000  2
   3148   3143   3142   3155     1  0.0000000  3.3472000  1
   3148   3143   3142   3155     1  0.0000000  0.0000000  2
   3148   3143   3142   3155     1  180.0000771  0.3347200  3
   3148   3143   3142   3156     1  0.0000000  3.3472000  1
   3148   3143   3142   3156     1  0.0000000  0.0000000  2
   3148   3143   3142   3156     1  180.0000771  0.3347200  3
   3148   3143   4695   4696     1  0.0000000  8.3680000  1
   3148   3143   4695   4696     1  180.0000771  10.4600000  2
   3149   3138   3137   3162     1  0.0000000  0.6508444  3
   3149   3138   3140   3153     1  0.0000000  0.6508444  3
   3149   3138   3140   3154     1  0.0000000  0.6508444  3
   3150   3138   3137   3162     1  0.0000000  0.6508444  3
   3150   3138   3140   3153     1  0.0000000  0.6508444  3
   3150   3138   3140   3154     1  0.0000000  0.6508444  3
   3151   3139   3137   3162     1  0.0000000  0.6508444  3
   3151   3139   3142   3155     1  0.0000000  0.6508444  3
   3151   3139   3142   3156     1  0.0000000  0.6508444  3
   3152   3139   3137   3162     1  0.0000000  0.6508444  3
   3152   3139   3142   3155     1  0.0000000  0.6508444  3
   3152   3139   3142   3156     1  0.0000000  0.6508444  3
   3153   3140   3141   4683     1  180.0000771  0.0000000  2
   3154   3140   3141   4683     1  180.0000771  0.0000000  2
   3155   3142   3143   4695     1  180.0000771  0.0000000  2
   3156   3142   3143   4695     1  180.0000771  0.0000000  2
   3157   3144   3137   3162     1  0.0000000  0.6508444  3
   3157   3144   3145   3159     1  0.0000000  0.6508444  3
   3157   3144   3145   3160     1  0.0000000  0.6508444  3
   3158   3144   3137   3162     1  0.0000000  0.6508444  3
   3158   3144   3145   3159     1  0.0000000  0.6508444  3
   3158   3144   3145   3160     1  0.0000000  0.6508444  3
   3159   3145   3146   3161     1  0.0000000  0.0000000  2
   3160   3145   3146   3161     1  0.0000000  0.0000000  2
   3163   3164   3166   3179     1  0.0000000  0.6508444  3
   3163   3164   3166   3180     1  0.0000000  0.6508444  3
   3163   3165   3168   3181     1  0.0000000  0.6508444  3
   3163   3165   3168   3182     1  0.0000000  0.6508444  3
   3163   3170   3171   3185     1  0.0000000  0.6508444  3
   3163   3170   3171   3186     1  0.0000000  0.6508444  3
   3164   3163   3165   3177     1  0.0000000  0.6508444  3
   3164   3163   3165   3178     1  0.0000000  0.6508444  3
   3164   3163   3170   3183     1  0.0000000  0.6508444  3
   3164   3163   3170   3184     1  0.0000000  0.6508444  3
   3165   3163   3164   3175     1  0.0000000  0.6508444  3
   3165   3163   3164   3176     1  0.0000000  0.6508444  3
   3165   3163   3170   3183     1  0.0000000  0.6508444  3
   3165   3163   3170   3184     1  0.0000000  0.6508444  3
   3166   3164   3163   3188     1  0.0000000  0.6508444  3
   3166   3167   4707   4708     1  180.0000771  10.4600000  2
   3167   3166   3164   3175     1  0.0000000  0.6508444  3
   3167   3166   3164   3176     1  0.0000000  0.6508444  3
   3167   4707   4709   4711     1  0.0000000  0.0000000  2
   3167   4707   4709   4712     1  0.0000000  0.0000000  2
   3168   3165   3163   3188     1  0.0000000  0.6508444  3
   3168   3169   4719   4720     1  180.0000771  10.4600000  2
   3169   3168   3165   3177     1  0.0000000  0.6508444  3
   3169   3168   3165   3178     1  0.0000000  0.6508444  3
   3169   4719   4721   4723     1  0.0000000  0.0000000  2
   3169   4719   4721   4724     1  0.0000000  0.0000000  2
   3170   3163   3164   3175     1  0.0000000  0.6508444  3
   3170   3163   3164   3176     1  0.0000000  0.6508444  3
   3170   3163   3165   3177     1  0.0000000  0.6508444  3
   3170   3163   3165   3178     1  0.0000000  0.6508444  3
   3170   3171   3172   3187     1  0.0000000  0.0000000  2
   3171   3170   3163   3188     1  0.0000000  0.6508444  3
   3172   3171   3170   3183     1  0.0000000  0.6508444  3
   3172   3171   3170   3184     1  0.0000000  0.6508444  3
   3173   3167   3166   3179     1  0.0000000  3.3472000  1
   3173   3167   3166   3179     1  0.0000000  0.0000000  2
   3173   3167   3166   3179     1  180.0000771  0.3347200  3
   3173   3167   3166   3180     1  0.0000000  3.3472000  1
   3173   3167   3166   3180     1  0.0000000  0.0000000  2
   3173   3167   3166   3180     1  180.0000771  0.3347200  3
   3173   3167   4707   4708     1  0.0000000  8.3680000  1
   3173   3167   4707   4708     1  180.0000771  10.4600000  2
   3174   3169   3168   3181     1  0.0000000  3.3472000  1
   3174   3169   3168   3181     1  0.0000000  0.0000000  2
   3174   3169   3168   3181     1  180.0000771  0.3347200  3
   3174   3169   3168   3182     1  0.0000000  3.3472000  1
   3174   3169   3168   3182     1  0.0000000  0.0000000  2
   3174   3169   3168   3182     1  180.0000771  0.3347200  3
   3174   3169   4719   4720     1  0.0000000  8.3680000  1
   3174   3169   4719   4720     1  180.0000771  10.4600000  2
   3175   3164   3163   3188     1  0.0000000  0.6508444  3
   3175   3164   3166   3179     1  0.0000000  0.6508444  3
   3175   3164   3166   3180     1  0.0000000  0.6508444  3
   3176   3164   3163   3188     1  0.0000000  0.6508444  3
   3176   3164   3166   3179     1  0.0000000  0.6508444  3
   3176   3164   3166   3180     1  0.0000000  0.6508444  3
   3177   3165   3163   3188     1  0.0000000  0.6508444  3
   3177   3165   3168   3181     1  0.0000000  0.6508444  3
   3177   3165   3168   3182     1  0.0000000  0.6508444  3
   3178   3165   3163   3188     1  0.0000000  0.6508444  3
   3178   3165   3168   3181     1  0.0000000  0.6508444  3
   3178   3165   3168   3182     1  0.0000000  0.6508444  3
   3179   3166   3167   4707     1  180.0000771  0.0000000  2
   3180   3166   3167   4707     1  180.0000771  0.0000000  2
   3181   3168   3169   4719     1  180.0000771  0.0000000  2
   3182   3168   3169   4719     1  180.0000771  0.0000000  2
   3183   3170   3163   3188     1  0.0000000  0.6508444  3
   3183   3170   3171   3185     1  0.0000000  0.6508444  3
   3183   3170   3171   3186     1  0.0000000  0.6508444  3
   3184   3170   3163   3188     1  0.0000000  0.6508444  3
   3184   3170   3171   3185     1  0.0000000  0.6508444  3
   3184   3170   3171   3186     1  0.0000000  0.6508444  3
   3185   3171   3172   3187     1  0.0000000  0.0000000  2
   3186   3171   3172   3187     1  0.0000000  0.0000000  2
   3189   3190   3192   3205     1  0.0000000  0.6508444  3
   3189   3190   3192   3206     1  0.0000000  0.6508444  3
   3189   3191   3194   3207     1  0.0000000  0.6508444  3
   3189   3191   3194   3208     1  0.0000000  0.6508444  3
   3189   3196   3197   3211     1  0.0000000  0.6508444  3
   3189   3196   3197   3212     1  0.0000000  0.6508444  3
   3190   3189   3191   3203     1  0.0000000  0.6508444  3
   3190   3189   3191   3204     1  0.0000000  0.6508444  3
   3190   3189   3196   3209     1  0.0000000  0.6508444  3
   3190   3189   3196   3210     1  0.0000000  0.6508444  3
   3191   3189   3190   3201     1  0.0000000  0.6508444  3
   3191   3189   3190   3202     1  0.0000000  0.6508444  3
   3191   3189   3196   3209     1  0.0000000  0.6508444  3
   3191   3189   3196   3210     1  0.0000000  0.6508444  3
   3192   3190   3189   3214     1  0.0000000  0.6508444  3
   3192   3193   4731   4732     1  180.0000771  10.4600000  2
   3193   3192   3190   3201     1  0.0000000  0.6508444  3
   3193   3192   3190   3202     1  0.0000000  0.6508444  3
   3193   4731   4733   4735     1  0.0000000  0.0000000  2
   3193   4731   4733   4736     1  0.0000000  0.0000000  2
   3194   3191   3189   3214     1  0.0000000  0.6508444  3
   3194   3195   4743   4744     1  180.0000771  10.4600000  2
   3195   3194   3191   3203     1  0.0000000  0.6508444  3
   3195   3194   3191   3204     1  0.0000000  0.6508444  3
   3195   4743   4745   4747     1  0.0000000  0.0000000  2
   3195   4743   4745   4748     1  0.0000000  0.0000000  2
   3196   3189   3190   3201     1  0.0000000  0.6508444  3
   3196   3189   3190   3202     1  0.0000000  0.6508444  3
   3196   3189   3191   3203     1  0.0000000  0.6508444  3
   3196   3189   3191   3204     1  0.0000000  0.6508444  3
   3196   3197   3198   3213     1  0.0000000  0.0000000  2
   3197   3196   3189   3214     1  0.0000000  0.6508444  3
   3198   3197   3196   3209     1  0.0000000  0.6508444  3
   3198   3197   3196   3210     1  0.0000000  0.6508444  3
   3199   3193   3192   3205     1  0.0000000  3.3472000  1
   3199   3193   3192   3205     1  0.0000000  0.0000000  2
   3199   3193   3192   3205     1  180.0000771  0.3347200  3
   3199   3193   3192   3206     1  0.0000000  3.3472000  1
   3199   3193   3192   3206     1  0.0000000  0.0000000  2
   3199   3193   3192   3206     1  180.0000771  0.3347200  3
   3199   3193   4731   4732     1  0.0000000  8.3680000  1
   3199   3193   4731   4732     1  180.0000771  10.4600000  2
   3200   3195   3194   3207     1  0.0000000  3.3472000  1
   3200   3195   3194   3207     1  0.0000000  0.0000000  2
   3200   3195   3194   3207     1  180.0000771  0.3347200  3
   3200   3195   3194   3208     1  0.0000000  3.3472000  1
   3200   3195   3194   3208     1  0.0000000  0.0000000  2
   3200   3195   3194   3208     1  180.0000771  0.3347200  3
   3200   3195   4743   4744     1  0.0000000  8.3680000  1
   3200   3195   4743   4744     1  180.0000771  10.4600000  2
   3201   3190   3189   3214     1  0.0000000  0.6508444  3
   3201   3190   3192   3205     1  0.0000000  0.6508444  3
   3201   3190   3192   3206     1  0.0000000  0.6508444  3
   3202   3190   3189   3214     1  0.0000000  0.6508444  3
   3202   3190   3192   3205     1  0.0000000  0.6508444  3
   3202   3190   3192   3206     1  0.0000000  0.6508444  3
   3203   3191   3189   3214     1  0.0000000  0.6508444  3
   3203   3191   3194   3207     1  0.0000000  0.6508444  3
   3203   3191   3194   3208     1  0.0000000  0.6508444  3
   3204   3191   3189   3214     1  0.0000000  0.6508444  3
   3204   3191   3194   3207     1  0.0000000  0.6508444  3
   3204   3191   3194   3208     1  0.0000000  0.6508444  3
   3205   3192   3193   4731     1  180.0000771  0.0000000  2
   3206   3192   3193   4731     1  180.0000771  0.0000000  2
   3207   3194   3195   4743     1  180.0000771  0.0000000  2
   3208   3194   3195   4743     1  180.0000771  0.0000000  2
   3209   3196   3189   3214     1  0.0000000  0.6508444  3
   3209   3196   3197   3211     1  0.0000000  0.6508444  3
   3209   3196   3197   3212     1  0.0000000  0.6508444  3
   3210   3196   3189   3214     1  0.0000000  0.6508444  3
   3210   3196   3197   3211     1  0.0000000  0.6508444  3
   3210   3196   3197   3212     1  0.0000000  0.6508444  3
   3211   3197   3198   3213     1  0.0000000  0.0000000  2
   3212   3197   3198   3213     1  0.0000000  0.0000000  2
   3215   3216   3218   3231     1  0.0000000  0.6508444  3
   3215   3216   3218   3232     1  0.0000000  0.6508444  3
   3215   3217   3220   3233     1  0.0000000  0.6508444  3
   3215   3217   3220   3234     1  0.0000000  0.6508444  3
   3215   3222   3223   3237     1  0.0000000  0.6508444  3
   3215   3222   3223   3238     1  0.0000000  0.6508444  3
   3216   3215   3217   3229     1  0.0000000  0.6508444  3
   3216   3215   3217   3230     1  0.0000000  0.6508444  3
   3216   3215   3222   3235     1  0.0000000  0.6508444  3
   3216   3215   3222   3236     1  0.0000000  0.6508444  3
   3217   3215   3216   3227     1  0.0000000  0.6508444  3
   3217   3215   3216   3228     1  0.0000000  0.6508444  3
   3217   3215   3222   3235     1  0.0000000  0.6508444  3
   3217   3215   3222   3236     1  0.0000000  0.6508444  3
   3218   3216   3215   3240     1  0.0000000  0.6508444  3
   3218   3219   4755   4756     1  180.0000771  10.4600000  2
   3219   3218   3216   3227     1  0.0000000  0.6508444  3
   3219   3218   3216   3228     1  0.0000000  0.6508444  3
   3219   4755   4757   4759     1  0.0000000  0.0000000  2
   3219   4755   4757   4760     1  0.0000000  0.0000000  2
   3220   3217   3215   3240     1  0.0000000  0.6508444  3
   3220   3221   4767   4768     1  180.0000771  10.4600000  2
   3221   3220   3217   3229     1  0.0000000  0.6508444  3
   3221   3220   3217   3230     1  0.0000000  0.6508444  3
   3221   4767   4769   4771     1  0.0000000  0.0000000  2
   3221   4767   4769   4772     1  0.0000000  0.0000000  2
   3222   3215   3216   3227     1  0.0000000  0.6508444  3
   3222   3215   3216   3228     1  0.0000000  0.6508444  3
   3222   3215   3217   3229     1  0.0000000  0.6508444  3
   3222   3215   3217   3230     1  0.0000000  0.6508444  3
   3222   3223   3224   3239     1  0.0000000  0.0000000  2
   3223   3222   3215   3240     1  0.0000000  0.6508444  3
   3224   3223   3222   3235     1  0.0000000  0.6508444  3
   3224   3223   3222   3236     1  0.0000000  0.6508444  3
   3225   3219   3218   3231     1  0.0000000  3.3472000  1
   3225   3219   3218   3231     1  0.0000000  0.0000000  2
   3225   3219   3218   3231     1  180.0000771  0.3347200  3
   3225   3219   3218   3232     1  0.0000000  3.3472000  1
   3225   3219   3218   3232     1  0.0000000  0.0000000  2
   3225   3219   3218   3232     1  180.0000771  0.3347200  3
   3225   3219   4755   4756     1  0.0000000  8.3680000  1
   3225   3219   4755   4756     1  180.0000771  10.4600000  2
   3226   3221   3220   3233     1  0.0000000  3.3472000  1
   3226   3221   3220   3233     1  0.0000000  0.0000000  2
   3226   3221   3220   3233     1  180.0000771  0.3347200  3
   3226   3221   3220   3234     1  0.0000000  3.3472000  1
   3226   3221   3220   3234     1  0.0000000  0.0000000  2
   3226   3221   3220   3234     1  180.0000771  0.3347200  3
   3226   3221   4767   4768     1  0.0000000  8.3680000  1
   3226   3221   4767   4768     1  180.0000771  10.4600000  2
   3227   3216   3215   3240     1  0.0000000  0.6508444  3
   3227   3216   3218   3231     1  0.0000000  0.6508444  3
   3227   3216   3218   3232     1  0.0000000  0.6508444  3
   3228   3216   3215   3240     1  0.0000000  0.6508444  3
   3228   3216   3218   3231     1  0.0000000  0.6508444  3
   3228   3216   3218   3232     1  0.0000000  0.6508444  3
   3229   3217   3215   3240     1  0.0000000  0.6508444  3
   3229   3217   3220   3233     1  0.0000000  0.6508444  3
   3229   3217   3220   3234     1  0.0000000  0.6508444  3
   3230   3217   3215   3240     1  0.0000000  0.6508444  3
   3230   3217   3220   3233     1  0.0000000  0.6508444  3
   3230   3217   3220   3234     1  0.0000000  0.6508444  3
   3231   3218   3219   4755     1  180.0000771  0.0000000  2
   3232   3218   3219   4755     1  180.0000771  0.0000000  2
   3233   3220   3221   4767     1  180.0000771  0.0000000  2
   3234   3220   3221   4767     1  180.0000771  0.0000000  2
   3235   3222   3215   3240     1  0.0000000  0.6508444  3
   3235   3222   3223   3237     1  0.0000000  0.6508444  3
   3235   3222   3223   3238     1  0.0000000  0.6508444  3
   3236   3222   3215   3240     1  0.0000000  0.6508444  3
   3236   3222   3223   3237     1  0.0000000  0.6508444  3
   3236   3222   3223   3238     1  0.0000000  0.6508444  3
   3237   3223   3224   3239     1  0.0000000  0.0000000  2
   3238   3223   3224   3239     1  0.0000000  0.0000000  2
   3241   3242   3244   3257     1  0.0000000  0.6508444  3
   3241   3242   3244   3258     1  0.0000000  0.6508444  3
   3241   3243   3246   3259     1  0.0000000  0.6508444  3
   3241   3243   3246   3260     1  0.0000000  0.6508444  3
   3241   3248   3249   3263     1  0.0000000  0.6508444  3
   3241   3248   3249   3264     1  0.0000000  0.6508444  3
   3242   3241   3243   3255     1  0.0000000  0.6508444  3
   3242   3241   3243   3256     1  0.0000000  0.6508444  3
   3242   3241   3248   3261     1  0.0000000  0.6508444  3
   3242   3241   3248   3262     1  0.0000000  0.6508444  3
   3243   3241   3242   3253     1  0.0000000  0.6508444  3
   3243   3241   3242   3254     1  0.0000000  0.6508444  3
   3243   3241   3248   3261     1  0.0000000  0.6508444  3
   3243   3241   3248   3262     1  0.0000000  0.6508444  3
   3244   3242   3241   3266     1  0.0000000  0.6508444  3
   3244   3245   4779   4780     1  180.0000771  10.4600000  2
   3245   3244   3242   3253     1  0.0000000  0.6508444  3
   3245   3244   3242   3254     1  0.0000000  0.6508444  3
   3245   4779   4781   4783     1  0.0000000  0.0000000  2
   3245   4779   4781   4784     1  0.0000000  0.0000000  2
   3246   3243   3241   3266     1  0.0000000  0.6508444  3
   3246   3247   4791   4792     1  180.0000771  10.4600000  2
   3247   3246   3243   3255     1  0.0000000  0.6508444  3
   3247   3246   3243   3256     1  0.0000000  0.6508444  3
   3247   4791   4793   4795     1  0.0000000  0.0000000  2
   3247   4791   4793   4796     1  0.0000000  0.0000000  2
   3248   3241   3242   3253     1  0.0000000  0.6508444  3
   3248   3241   3242   3254     1  0.0000000  0.6508444  3
   3248   3241   3243   3255     1  0.0000000  0.6508444  3
   3248   3241   3243   3256     1  0.0000000  0.6508444  3
   3248   3249   3250   3265     1  0.0000000  0.0000000  2
   3249   3248   3241   3266     1  0.0000000  0.6508444  3
   3250   3249   3248   3261     1  0.0000000  0.6508444  3
   3250   3249   3248   3262     1  0.0000000  0.6508444  3
   3251   3245   3244   3257     1  0.0000000  3.3472000  1
   3251   3245   3244   3257     1  0.0000000  0.0000000  2
   3251   3245   3244   3257     1  180.0000771  0.3347200  3
   3251   3245   3244   3258     1  0.0000000  3.3472000  1
   3251   3245   3244   3258     1  0.0000000  0.0000000  2
   3251   3245   3244   3258     1  180.0000771  0.3347200  3
   3251   3245   4779   4780     1  0.0000000  8.3680000  1
   3251   3245   4779   4780     1  180.0000771  10.4600000  2
   3252   3247   3246   3259     1  0.0000000  3.3472000  1
   3252   3247   3246   3259     1  0.0000000  0.0000000  2
   3252   3247   3246   3259     1  180.0000771  0.3347200  3
   3252   3247   3246   3260     1  0.0000000  3.3472000  1
   3252   3247   3246   3260     1  0.0000000  0.0000000  2
   3252   3247   3246   3260     1  180.0000771  0.3347200  3
   3252   3247   4791   4792     1  0.0000000  8.3680000  1
   3252   3247   4791   4792     1  180.0000771  10.4600000  2
   3253   3242   3241   3266     1  0.0000000  0.6508444  3
   3253   3242   3244   3257     1  0.0000000  0.6508444  3
   3253   3242   3244   3258     1  0.0000000  0.6508444  3
   3254   3242   3241   3266     1  0.0000000  0.6508444  3
   3254   3242   3244   3257     1  0.0000000  0.6508444  3
   3254   3242   3244   3258     1  0.0000000  0.6508444  3
   3255   3243   3241   3266     1  0.0000000  0.6508444  3
   3255   3243   3246   3259     1  0.0000000  0.6508444  3
   3255   3243   3246   3260     1  0.0000000  0.6508444  3
   3256   3243   3241   3266     1  0.0000000  0.6508444  3
   3256   3243   3246   3259     1  0.0000000  0.6508444  3
   3256   3243   3246   3260     1  0.0000000  0.6508444  3
   3257   3244   3245   4779     1  180.0000771  0.0000000  2
   3258   3244   3245   4779     1  180.0000771  0.0000000  2
   3259   3246   3247   4791     1  180.0000771  0.0000000  2
   3260   3246   3247   4791     1  180.0000771  0.0000000  2
   3261   3248   3241   3266     1  0.0000000  0.6508444  3
   3261   3248   3249   3263     1  0.0000000  0.6508444  3
   3261   3248   3249   3264     1  0.0000000  0.6508444  3
   3262   3248   3241   3266     1  0.0000000  0.6508444  3
   3262   3248   3249   3263     1  0.0000000  0.6508444  3
   3262   3248   3249   3264     1  0.0000000  0.6508444  3
   3263   3249   3250   3265     1  0.0000000  0.0000000  2
   3264   3249   3250   3265     1  0.0000000  0.0000000  2
   3267   3269   3270   3273     1  0.0000000  0.6508444  3
   3267   3269   3270   3274     1  0.0000000  0.6508444  3
   3268   3267   3269   3270     1  0.0000000  0.0000000  2
   3268   3267   3269   3271     1  0.0000000  0.0000000  2
   3268   3267   3269   3272     1  0.0000000  0.0000000  2
   3269   3270   3275   3276     1  0.0000000  0.6508444  3
   3269   3270   3275   3277     1  0.0000000  0.6508444  3
   3269   3270   3275   3278     1  0.0000000  0.6508444  3
   3271   3269   3270   3275     1  0.0000000  0.6508444  3
   3271   3269   3270   3273     1  0.0000000  0.6508444  3
   3271   3269   3270   3274     1  0.0000000  0.6508444  3
   3272   3269   3270   3275     1  0.0000000  0.6508444  3
   3272   3269   3270   3273     1  0.0000000  0.6508444  3
   3272   3269   3270   3274     1  0.0000000  0.6508444  3
   3273   3270   3275   3276     1  0.0000000  0.6508444  3
   3273   3270   3275   3277     1  0.0000000  0.6508444  3
   3273   3270   3275   3278     1  0.0000000  0.6508444  3
   3274   3270   3275   3276     1  0.0000000  0.6508444  3
   3274   3270   3275   3277     1  0.0000000  0.6508444  3
   3274   3270   3275   3278     1  0.0000000  0.6508444  3
   3279   3281   3282   3285     1  0.0000000  0.6508444  3
   3279   3281   3282   3286     1  0.0000000  0.6508444  3
   3280   3279   3281   3282     1  0.0000000  0.0000000  2
   3280   3279   3281   3283     1  0.0000000  0.0000000  2
   3280   3279   3281   3284     1  0.0000000  0.0000000  2
   3281   3282   3287   3288     1  0.0000000  0.6508444  3
   3281   3282   3287   3289     1  0.0000000  0.6508444  3
   3281   3282   3287   3290     1  0.0000000  0.6508444  3
   3283   3281   3282   3287     1  0.0000000  0.6508444  3
   3283   3281   3282   3285     1  0.0000000  0.6508444  3
   3283   3281   3282   3286     1  0.0000000  0.6508444  3
   3284   3281   3282   3287     1  0.0000000  0.6508444  3
   3284   3281   3282   3285     1  0.0000000  0.6508444  3
   3284   3281   3282   3286     1  0.0000000  0.6508444  3
   3285   3282   3287   3288     1  0.0000000  0.6508444  3
   3285   3282   3287   3289     1  0.0000000  0.6508444  3
   3285   3282   3287   3290     1  0.0000000  0.6508444  3
   3286   3282   3287   3288     1  0.0000000  0.6508444  3
   3286   3282   3287   3289     1  0.0000000  0.6508444  3
   3286   3282   3287   3290     1  0.0000000  0.6508444  3
   3291   3293   3294   3297     1  0.0000000  0.6508444  3
   3291   3293   3294   3298     1  0.0000000  0.6508444  3
   3292   3291   3293   3294     1  0.0000000  0.0000000  2
   3292   3291   3293   3295     1  0.0000000  0.0000000  2
   3292   3291   3293   3296     1  0.0000000  0.0000000  2
   3293   3294   3299   3300     1  0.0000000  0.6508444  3
   3293   3294   3299   3301     1  0.0000000  0.6508444  3
   3293   3294   3299   3302     1  0.0000000  0.6508444  3
   3295   3293   3294   3299     1  0.0000000  0.6508444  3
   3295   3293   3294   3297     1  0.0000000  0.6508444  3
   3295   3293   3294   3298     1  0.0000000  0.6508444  3
   3296   3293   3294   3299     1  0.0000000  0.6508444  3
   3296   3293   3294   3297     1  0.0000000  0.6508444  3
   3296   3293   3294   3298     1  0.0000000  0.6508444  3
   3297   3294   3299   3300     1  0.0000000  0.6508444  3
   3297   3294   3299   3301     1  0.0000000  0.6508444  3
   3297   3294   3299   3302     1  0.0000000  0.6508444  3
   3298   3294   3299   3300     1  0.0000000  0.6508444  3
   3298   3294   3299   3301     1  0.0000000  0.6508444  3
   3298   3294   3299   3302     1  0.0000000  0.6508444  3
   3303   3305   3306   3309     1  0.0000000  0.6508444  3
   3303   3305   3306   3310     1  0.0000000  0.6508444  3
   3304   3303   3305   3306     1  0.0000000  0.0000000  2
   3304   3303   3305   3307     1  0.0000000  0.0000000  2
   3304   3303   3305   3308     1  0.0000000  0.0000000  2
   3305   3306   3311   3312     1  0.0000000  0.6508444  3
   3305   3306   3311   3313     1  0.0000000  0.6508444  3
   3305   3306   3311   3314     1  0.0000000  0.6508444  3
   3307   3305   3306   3311     1  0.0000000  0.6508444  3
   3307   3305   3306   3309     1  0.0000000  0.6508444  3
   3307   3305   3306   3310     1  0.0000000  0.6508444  3
   3308   3305   3306   3311     1  0.0000000  0.6508444  3
   3308   3305   3306   3309     1  0.0000000  0.6508444  3
   3308   3305   3306   3310     1  0.0000000  0.6508444  3
   3309   3306   3311   3312     1  0.0000000  0.6508444  3
   3309   3306   3311   3313     1  0.0000000  0.6508444  3
   3309   3306   3311   3314     1  0.0000000  0.6508444  3
   3310   3306   3311   3312     1  0.0000000  0.6508444  3
   3310   3306   3311   3313     1  0.0000000  0.6508444  3
   3310   3306   3311   3314     1  0.0000000  0.6508444  3
   3315   3317   3318   3321     1  0.0000000  0.6508444  3
   3315   3317   3318   3322     1  0.0000000  0.6508444  3
   3316   3315   3317   3318     1  0.0000000  0.0000000  2
   3316   3315   3317   3319     1  0.0000000  0.0000000  2
   3316   3315   3317   3320     1  0.0000000  0.0000000  2
   3317   3318   3323   3324     1  0.0000000  0.6508444  3
   3317   3318   3323   3325     1  0.0000000  0.6508444  3
   3317   3318   3323   3326     1  0.0000000  0.6508444  3
   3319   3317   3318   3323     1  0.0000000  0.6508444  3
   3319   3317   3318   3321     1  0.0000000  0.6508444  3
   3319   3317   3318   3322     1  0.0000000  0.6508444  3
   3320   3317   3318   3323     1  0.0000000  0.6508444  3
   3320   3317   3318   3321     1  0.0000000  0.6508444  3
   3320   3317   3318   3322     1  0.0000000  0.6508444  3
   3321   3318   3323   3324     1  0.0000000  0.6508444  3
   3321   3318   3323   3325     1  0.0000000  0.6508444  3
   3321   3318   3323   3326     1  0.0000000  0.6508444  3
   3322   3318   3323   3324     1  0.0000000  0.6508444  3
   3322   3318   3323   3325     1  0.0000000  0.6508444  3
   3322   3318   3323   3326     1  0.0000000  0.6508444  3
   3327   3329   3330   3333     1  0.0000000  0.6508444  3
   3327   3329   3330   3334     1  0.0000000  0.6508444  3
   3328   3327   3329   3330     1  0.0000000  0.0000000  2
   3328   3327   3329   3331     1  0.0000000  0.0000000  2
   3328   3327   3329   3332     1  0.0000000  0.0000000  2
   3329   3330   3335   3336     1  0.0000000  0.6508444  3
   3329   3330   3335   3337     1  0.0000000  0.6508444  3
   3329   3330   3335   3338     1  0.0000000  0.6508444  3
   3331   3329   3330   3335     1  0.0000000  0.6508444  3
   3331   3329   3330   3333     1  0.0000000  0.6508444  3
   3331   3329   3330   3334     1  0.0000000  0.6508444  3
   3332   3329   3330   3335     1  0.0000000  0.6508444  3
   3332   3329   3330   3333     1  0.0000000  0.6508444  3
   3332   3329   3330   3334     1  0.0000000  0.6508444  3
   3333   3330   3335   3336     1  0.0000000  0.6508444  3
   3333   3330   3335   3337     1  0.0000000  0.6508444  3
   3333   3330   3335   3338     1  0.0000000  0.6508444  3
   3334   3330   3335   3336     1  0.0000000  0.6508444  3
   3334   3330   3335   3337     1  0.0000000  0.6508444  3
   3334   3330   3335   3338     1  0.0000000  0.6508444  3
   3339   3341   3342   3345     1  0.0000000  0.6508444  3
   3339   3341   3342   3346     1  0.0000000  0.6508444  3
   3340   3339   3341   3342     1  0.0000000  0.0000000  2
   3340   3339   3341   3343     1  0.0000000  0.0000000  2
   3340   3339   3341   3344     1  0.0000000  0.0000000  2
   3341   3342   3347   3348     1  0.0000000  0.6508444  3
   3341   3342   3347   3349     1  0.0000000  0.6508444  3
   3341   3342   3347   3350     1  0.0000000  0.6508444  3
   3343   3341   3342   3347     1  0.0000000  0.6508444  3
   3343   3341   3342   3345     1  0.0000000  0.6508444  3
   3343   3341   3342   3346     1  0.0000000  0.6508444  3
   3344   3341   3342   3347     1  0.0000000  0.6508444  3
   3344   3341   3342   3345     1  0.0000000  0.6508444  3
   3344   3341   3342   3346     1  0.0000000  0.6508444  3
   3345   3342   3347   3348     1  0.0000000  0.6508444  3
   3345   3342   3347   3349     1  0.0000000  0.6508444  3
   3345   3342   3347   3350     1  0.0000000  0.6508444  3
   3346   3342   3347   3348     1  0.0000000  0.6508444  3
   3346   3342   3347   3349     1  0.0000000  0.6508444  3
   3346   3342   3347   3350     1  0.0000000  0.6508444  3
   3351   3353   3354   3357     1  0.0000000  0.6508444  3
   3351   3353   3354   3358     1  0.0000000  0.6508444  3
   3352   3351   3353   3354     1  0.0000000  0.0000000  2
   3352   3351   3353   3355     1  0.0000000  0.0000000  2
   3352   3351   3353   3356     1  0.0000000  0.0000000  2
   3353   3354   3359   3360     1  0.0000000  0.6508444  3
   3353   3354   3359   3361     1  0.0000000  0.6508444  3
   3353   3354   3359   3362     1  0.0000000  0.6508444  3
   3355   3353   3354   3359     1  0.0000000  0.6508444  3
   3355   3353   3354   3357     1  0.0000000  0.6508444  3
   3355   3353   3354   3358     1  0.0000000  0.6508444  3
   3356   3353   3354   3359     1  0.0000000  0.6508444  3
   3356   3353   3354   3357     1  0.0000000  0.6508444  3
   3356   3353   3354   3358     1  0.0000000  0.6508444  3
   3357   3354   3359   3360     1  0.0000000  0.6508444  3
   3357   3354   3359   3361     1  0.0000000  0.6508444  3
   3357   3354   3359   3362     1  0.0000000  0.6508444  3
   3358   3354   3359   3360     1  0.0000000  0.6508444  3
   3358   3354   3359   3361     1  0.0000000  0.6508444  3
   3358   3354   3359   3362     1  0.0000000  0.6508444  3
   3363   3365   3366   3369     1  0.0000000  0.6508444  3
   3363   3365   3366   3370     1  0.0000000  0.6508444  3
   3364   3363   3365   3366     1  0.0000000  0.0000000  2
   3364   3363   3365   3367     1  0.0000000  0.0000000  2
   3364   3363   3365   3368     1  0.0000000  0.0000000  2
   3365   3366   3371   3372     1  0.0000000  0.6508444  3
   3365   3366   3371   3373     1  0.0000000  0.6508444  3
   3365   3366   3371   3374     1  0.0000000  0.6508444  3
   3367   3365   3366   3371     1  0.0000000  0.6508444  3
   3367   3365   3366   3369     1  0.0000000  0.6508444  3
   3367   3365   3366   3370     1  0.0000000  0.6508444  3
   3368   3365   3366   3371     1  0.0000000  0.6508444  3
   3368   3365   3366   3369     1  0.0000000  0.6508444  3
   3368   3365   3366   3370     1  0.0000000  0.6508444  3
   3369   3366   3371   3372     1  0.0000000  0.6508444  3
   3369   3366   3371   3373     1  0.0000000  0.6508444  3
   3369   3366   3371   3374     1  0.0000000  0.6508444  3
   3370   3366   3371   3372     1  0.0000000  0.6508444  3
   3370   3366   3371   3373     1  0.0000000  0.6508444  3
   3370   3366   3371   3374     1  0.0000000  0.6508444  3
   3375   3377   3378   3381     1  0.0000000  0.6508444  3
   3375   3377   3378   3382     1  0.0000000  0.6508444  3
   3376   3375   3377   3378     1  0.0000000  0.0000000  2
   3376   3375   3377   3379     1  0.0000000  0.0000000  2
   3376   3375   3377   3380     1  0.0000000  0.0000000  2
   3377   3378   3383   3384     1  0.0000000  0.6508444  3
   3377   3378   3383   3385     1  0.0000000  0.6508444  3
   3377   3378   3383   3386     1  0.0000000  0.6508444  3
   3379   3377   3378   3383     1  0.0000000  0.6508444  3
   3379   3377   3378   3381     1  0.0000000  0.6508444  3
   3379   3377   3378   3382     1  0.0000000  0.6508444  3
   3380   3377   3378   3383     1  0.0000000  0.6508444  3
   3380   3377   3378   3381     1  0.0000000  0.6508444  3
   3380   3377   3378   3382     1  0.0000000  0.6508444  3
   3381   3378   3383   3384     1  0.0000000  0.6508444  3
   3381   3378   3383   3385     1  0.0000000  0.6508444  3
   3381   3378   3383   3386     1  0.0000000  0.6508444  3
   3382   3378   3383   3384     1  0.0000000  0.6508444  3
   3382   3378   3383   3385     1  0.0000000  0.6508444  3
   3382   3378   3383   3386     1  0.0000000  0.6508444  3
   3387   3389   3390   3393     1  0.0000000  0.6508444  3
   3387   3389   3390   3394     1  0.0000000  0.6508444  3
   3388   3387   3389   3390     1  0.0000000  0.0000000  2
   3388   3387   3389   3391     1  0.0000000  0.0000000  2
   3388   3387   3389   3392     1  0.0000000  0.0000000  2
   3389   3390   3395   3396     1  0.0000000  0.6508444  3
   3389   3390   3395   3397     1  0.0000000  0.6508444  3
   3389   3390   3395   3398     1  0.0000000  0.6508444  3
   3391   3389   3390   3395     1  0.0000000  0.6508444  3
   3391   3389   3390   3393     1  0.0000000  0.6508444  3
   3391   3389   3390   3394     1  0.0000000  0.6508444  3
   3392   3389   3390   3395     1  0.0000000  0.6508444  3
   3392   3389   3390   3393     1  0.0000000  0.6508444  3
   3392   3389   3390   3394     1  0.0000000  0.6508444  3
   3393   3390   3395   3396     1  0.0000000  0.6508444  3
   3393   3390   3395   3397     1  0.0000000  0.6508444  3
   3393   3390   3395   3398     1  0.0000000  0.6508444  3
   3394   3390   3395   3396     1  0.0000000  0.6508444  3
   3394   3390   3395   3397     1  0.0000000  0.6508444  3
   3394   3390   3395   3398     1  0.0000000  0.6508444  3
   3399   3401   3402   3405     1  0.0000000  0.6508444  3
   3399   3401   3402   3406     1  0.0000000  0.6508444  3
   3400   3399   3401   3402     1  0.0000000  0.0000000  2
   3400   3399   3401   3403     1  0.0000000  0.0000000  2
   3400   3399   3401   3404     1  0.0000000  0.0000000  2
   3401   3402   3407   3408     1  0.0000000  0.6508444  3
   3401   3402   3407   3409     1  0.0000000  0.6508444  3
   3401   3402   3407   3410     1  0.0000000  0.6508444  3
   3403   3401   3402   3407     1  0.0000000  0.6508444  3
   3403   3401   3402   3405     1  0.0000000  0.6508444  3
   3403   3401   3402   3406     1  0.0000000  0.6508444  3
   3404   3401   3402   3407     1  0.0000000  0.6508444  3
   3404   3401   3402   3405     1  0.0000000  0.6508444  3
   3404   3401   3402   3406     1  0.0000000  0.6508444  3
   3405   3402   3407   3408     1  0.0000000  0.6508444  3
   3405   3402   3407   3409     1  0.0000000  0.6508444  3
   3405   3402   3407   3410     1  0.0000000  0.6508444  3
   3406   3402   3407   3408     1  0.0000000  0.6508444  3
   3406   3402   3407   3409     1  0.0000000  0.6508444  3
   3406   3402   3407   3410     1  0.0000000  0.6508444  3
   3411   3413   3414   3417     1  0.0000000  0.6508444  3
   3411   3413   3414   3418     1  0.0000000  0.6508444  3
   3412   3411   3413   3414     1  0.0000000  0.0000000  2
   3412   3411   3413   3415     1  0.0000000  0.0000000  2
   3412   3411   3413   3416     1  0.0000000  0.0000000  2
   3413   3414   3419   3420     1  0.0000000  0.6508444  3
   3413   3414   3419   3421     1  0.0000000  0.6508444  3
   3413   3414   3419   3422     1  0.0000000  0.6508444  3
   3415   3413   3414   3419     1  0.0000000  0.6508444  3
   3415   3413   3414   3417     1  0.0000000  0.6508444  3
   3415   3413   3414   3418     1  0.0000000  0.6508444  3
   3416   3413   3414   3419     1  0.0000000  0.6508444  3
   3416   3413   3414   3417     1  0.0000000  0.6508444  3
   3416   3413   3414   3418     1  0.0000000  0.6508444  3
   3417   3414   3419   3420     1  0.0000000  0.6508444  3
   3417   3414   3419   3421     1  0.0000000  0.6508444  3
   3417   3414   3419   3422     1  0.0000000  0.6508444  3
   3418   3414   3419   3420     1  0.0000000  0.6508444  3
   3418   3414   3419   3421     1  0.0000000  0.6508444  3
   3418   3414   3419   3422     1  0.0000000  0.6508444  3
   3423   3425   3426   3429     1  0.0000000  0.6508444  3
   3423   3425   3426   3430     1  0.0000000  0.6508444  3
   3424   3423   3425   3426     1  0.0000000  0.0000000  2
   3424   3423   3425   3427     1  0.0000000  0.0000000  2
   3424   3423   3425   3428     1  0.0000000  0.0000000  2
   3425   3426   3431   3432     1  0.0000000  0.6508444  3
   3425   3426   3431   3433     1  0.0000000  0.6508444  3
   3425   3426   3431   3434     1  0.0000000  0.6508444  3
   3427   3425   3426   3431     1  0.0000000  0.6508444  3
   3427   3425   3426   3429     1  0.0000000  0.6508444  3
   3427   3425   3426   3430     1  0.0000000  0.6508444  3
   3428   3425   3426   3431     1  0.0000000  0.6508444  3
   3428   3425   3426   3429     1  0.0000000  0.6508444  3
   3428   3425   3426   3430     1  0.0000000  0.6508444  3
   3429   3426   3431   3432     1  0.0000000  0.6508444  3
   3429   3426   3431   3433     1  0.0000000  0.6508444  3
   3429   3426   3431   3434     1  0.0000000  0.6508444  3
   3430   3426   3431   3432     1  0.0000000  0.6508444  3
   3430   3426   3431   3433     1  0.0000000  0.6508444  3
   3430   3426   3431   3434     1  0.0000000  0.6508444  3
   3435   3437   3438   3441     1  0.0000000  0.6508444  3
   3435   3437   3438   3442     1  0.0000000  0.6508444  3
   3436   3435   3437   3438     1  0.0000000  0.0000000  2
   3436   3435   3437   3439     1  0.0000000  0.0000000  2
   3436   3435   3437   3440     1  0.0000000  0.0000000  2
   3437   3438   3443   3444     1  0.0000000  0.6508444  3
   3437   3438   3443   3445     1  0.0000000  0.6508444  3
   3437   3438   3443   3446     1  0.0000000  0.6508444  3
   3439   3437   3438   3443     1  0.0000000  0.6508444  3
   3439   3437   3438   3441     1  0.0000000  0.6508444  3
   3439   3437   3438   3442     1  0.0000000  0.6508444  3
   3440   3437   3438   3443     1  0.0000000  0.6508444  3
   3440   3437   3438   3441     1  0.0000000  0.6508444  3
   3440   3437   3438   3442     1  0.0000000  0.6508444  3
   3441   3438   3443   3444     1  0.0000000  0.6508444  3
   3441   3438   3443   3445     1  0.0000000  0.6508444  3
   3441   3438   3443   3446     1  0.0000000  0.6508444  3
   3442   3438   3443   3444     1  0.0000000  0.6508444  3
   3442   3438   3443   3445     1  0.0000000  0.6508444  3
   3442   3438   3443   3446     1  0.0000000  0.6508444  3
   3447   3449   3450   3453     1  0.0000000  0.6508444  3
   3447   3449   3450   3454     1  0.0000000  0.6508444  3
   3448   3447   3449   3450     1  0.0000000  0.0000000  2
   3448   3447   3449   3451     1  0.0000000  0.0000000  2
   3448   3447   3449   3452     1  0.0000000  0.0000000  2
   3449   3450   3455   3456     1  0.0000000  0.6508444  3
   3449   3450   3455   3457     1  0.0000000  0.6508444  3
   3449   3450   3455   3458     1  0.0000000  0.6508444  3
   3451   3449   3450   3455     1  0.0000000  0.6508444  3
   3451   3449   3450   3453     1  0.0000000  0.6508444  3
   3451   3449   3450   3454     1  0.0000000  0.6508444  3
   3452   3449   3450   3455     1  0.0000000  0.6508444  3
   3452   3449   3450   3453     1  0.0000000  0.6508444  3
   3452   3449   3450   3454     1  0.0000000  0.6508444  3
   3453   3450   3455   3456     1  0.0000000  0.6508444  3
   3453   3450   3455   3457     1  0.0000000  0.6508444  3
   3453   3450   3455   3458     1  0.0000000  0.6508444  3
   3454   3450   3455   3456     1  0.0000000  0.6508444  3
   3454   3450   3455   3457     1  0.0000000  0.6508444  3
   3454   3450   3455   3458     1  0.0000000  0.6508444  3
   3459   3461   3462   3465     1  0.0000000  0.6508444  3
   3459   3461   3462   3466     1  0.0000000  0.6508444  3
   3460   3459   3461   3462     1  0.0000000  0.0000000  2
   3460   3459   3461   3463     1  0.0000000  0.0000000  2
   3460   3459   3461   3464     1  0.0000000  0.0000000  2
   3461   3462   3467   3468     1  0.0000000  0.6508444  3
   3461   3462   3467   3469     1  0.0000000  0.6508444  3
   3461   3462   3467   3470     1  0.0000000  0.6508444  3
   3463   3461   3462   3467     1  0.0000000  0.6508444  3
   3463   3461   3462   3465     1  0.0000000  0.6508444  3
   3463   3461   3462   3466     1  0.0000000  0.6508444  3
   3464   3461   3462   3467     1  0.0000000  0.6508444  3
   3464   3461   3462   3465     1  0.0000000  0.6508444  3
   3464   3461   3462   3466     1  0.0000000  0.6508444  3
   3465   3462   3467   3468     1  0.0000000  0.6508444  3
   3465   3462   3467   3469     1  0.0000000  0.6508444  3
   3465   3462   3467   3470     1  0.0000000  0.6508444  3
   3466   3462   3467   3468     1  0.0000000  0.6508444  3
   3466   3462   3467   3469     1  0.0000000  0.6508444  3
   3466   3462   3467   3470     1  0.0000000  0.6508444  3
   3471   3473   3474   3477     1  0.0000000  0.6508444  3
   3471   3473   3474   3478     1  0.0000000  0.6508444  3
   3472   3471   3473   3474     1  0.0000000  0.0000000  2
   3472   3471   3473   3475     1  0.0000000  0.0000000  2
   3472   3471   3473   3476     1  0.0000000  0.0000000  2
   3473   3474   3479   3480     1  0.0000000  0.6508444  3
   3473   3474   3479   3481     1  0.0000000  0.6508444  3
   3473   3474   3479   3482     1  0.0000000  0.6508444  3
   3475   3473   3474   3479     1  0.0000000  0.6508444  3
   3475   3473   3474   3477     1  0.0000000  0.6508444  3
   3475   3473   3474   3478     1  0.0000000  0.6508444  3
   3476   3473   3474   3479     1  0.0000000  0.6508444  3
   3476   3473   3474   3477     1  0.0000000  0.6508444  3
   3476   3473   3474   3478     1  0.0000000  0.6508444  3
   3477   3474   3479   3480     1  0.0000000  0.6508444  3
   3477   3474   3479   3481     1  0.0000000  0.6508444  3
   3477   3474   3479   3482     1  0.0000000  0.6508444  3
   3478   3474   3479   3480     1  0.0000000  0.6508444  3
   3478   3474   3479   3481     1  0.0000000  0.6508444  3
   3478   3474   3479   3482     1  0.0000000  0.6508444  3
   3483   3485   3486   3489     1  0.0000000  0.6508444  3
   3483   3485   3486   3490     1  0.0000000  0.6508444  3
   3484   3483   3485   3486     1  0.0000000  0.0000000  2
   3484   3483   3485   3487     1  0.0000000  0.0000000  2
   3484   3483   3485   3488     1  0.0000000  0.0000000  2
   3485   3486   3491   3492     1  0.0000000  0.6508444  3
   3485   3486   3491   3493     1  0.0000000  0.6508444  3
   3485   3486   3491   3494     1  0.0000000  0.6508444  3
   3487   3485   3486   3491     1  0.0000000  0.6508444  3
   3487   3485   3486   3489     1  0.0000000  0.6508444  3
   3487   3485   3486   3490     1  0.0000000  0.6508444  3
   3488   3485   3486   3491     1  0.0000000  0.6508444  3
   3488   3485   3486   3489     1  0.0000000  0.6508444  3
   3488   3485   3486   3490     1  0.0000000  0.6508444  3
   3489   3486   3491   3492     1  0.0000000  0.6508444  3
   3489   3486   3491   3493     1  0.0000000  0.6508444  3
   3489   3486   3491   3494     1  0.0000000  0.6508444  3
   3490   3486   3491   3492     1  0.0000000  0.6508444  3
   3490   3486   3491   3493     1  0.0000000  0.6508444  3
   3490   3486   3491   3494     1  0.0000000  0.6508444  3
   3495   3497   3498   3501     1  0.0000000  0.6508444  3
   3495   3497   3498   3502     1  0.0000000  0.6508444  3
   3496   3495   3497   3498     1  0.0000000  0.0000000  2
   3496   3495   3497   3499     1  0.0000000  0.0000000  2
   3496   3495   3497   3500     1  0.0000000  0.0000000  2
   3497   3498   3503   3504     1  0.0000000  0.6508444  3
   3497   3498   3503   3505     1  0.0000000  0.6508444  3
   3497   3498   3503   3506     1  0.0000000  0.6508444  3
   3499   3497   3498   3503     1  0.0000000  0.6508444  3
   3499   3497   3498   3501     1  0.0000000  0.6508444  3
   3499   3497   3498   3502     1  0.0000000  0.6508444  3
   3500   3497   3498   3503     1  0.0000000  0.6508444  3
   3500   3497   3498   3501     1  0.0000000  0.6508444  3
   3500   3497   3498   3502     1  0.0000000  0.6508444  3
   3501   3498   3503   3504     1  0.0000000  0.6508444  3
   3501   3498   3503   3505     1  0.0000000  0.6508444  3
   3501   3498   3503   3506     1  0.0000000  0.6508444  3
   3502   3498   3503   3504     1  0.0000000  0.6508444  3
   3502   3498   3503   3505     1  0.0000000  0.6508444  3
   3502   3498   3503   3506     1  0.0000000  0.6508444  3
   3507   3509   3510   3513     1  0.0000000  0.6508444  3
   3507   3509   3510   3514     1  0.0000000  0.6508444  3
   3508   3507   3509   3510     1  0.0000000  0.0000000  2
   3508   3507   3509   3511     1  0.0000000  0.0000000  2
   3508   3507   3509   3512     1  0.0000000  0.0000000  2
   3509   3510   3515   3516     1  0.0000000  0.6508444  3
   3509   3510   3515   3517     1  0.0000000  0.6508444  3
   3509   3510   3515   3518     1  0.0000000  0.6508444  3
   3511   3509   3510   3515     1  0.0000000  0.6508444  3
   3511   3509   3510   3513     1  0.0000000  0.6508444  3
   3511   3509   3510   3514     1  0.0000000  0.6508444  3
   3512   3509   3510   3515     1  0.0000000  0.6508444  3
   3512   3509   3510   3513     1  0.0000000  0.6508444  3
   3512   3509   3510   3514     1  0.0000000  0.6508444  3
   3513   3510   3515   3516     1  0.0000000  0.6508444  3
   3513   3510   3515   3517     1  0.0000000  0.6508444  3
   3513   3510   3515   3518     1  0.0000000  0.6508444  3
   3514   3510   3515   3516     1  0.0000000  0.6508444  3
   3514   3510   3515   3517     1  0.0000000  0.6508444  3
   3514   3510   3515   3518     1  0.0000000  0.6508444  3
   3519   3521   3522   3525     1  0.0000000  0.6508444  3
   3519   3521   3522   3526     1  0.0000000  0.6508444  3
   3520   3519   3521   3522     1  0.0000000  0.0000000  2
   3520   3519   3521   3523     1  0.0000000  0.0000000  2
   3520   3519   3521   3524     1  0.0000000  0.0000000  2
   3521   3522   3527   3528     1  0.0000000  0.6508444  3
   3521   3522   3527   3529     1  0.0000000  0.6508444  3
   3521   3522   3527   3530     1  0.0000000  0.6508444  3
   3523   3521   3522   3527     1  0.0000000  0.6508444  3
   3523   3521   3522   3525     1  0.0000000  0.6508444  3
   3523   3521   3522   3526     1  0.0000000  0.6508444  3
   3524   3521   3522   3527     1  0.0000000  0.6508444  3
   3524   3521   3522   3525     1  0.0000000  0.6508444  3
   3524   3521   3522   3526     1  0.0000000  0.6508444  3
   3525   3522   3527   3528     1  0.0000000  0.6508444  3
   3525   3522   3527   3529     1  0.0000000  0.6508444  3
   3525   3522   3527   3530     1  0.0000000  0.6508444  3
   3526   3522   3527   3528     1  0.0000000  0.6508444  3
   3526   3522   3527   3529     1  0.0000000  0.6508444  3
   3526   3522   3527   3530     1  0.0000000  0.6508444  3
   3531   3533   3534   3537     1  0.0000000  0.6508444  3
   3531   3533   3534   3538     1  0.0000000  0.6508444  3
   3532   3531   3533   3534     1  0.0000000  0.0000000  2
   3532   3531   3533   3535     1  0.0000000  0.0000000  2
   3532   3531   3533   3536     1  0.0000000  0.0000000  2
   3533   3534   3539   3540     1  0.0000000  0.6508444  3
   3533   3534   3539   3541     1  0.0000000  0.6508444  3
   3533   3534   3539   3542     1  0.0000000  0.6508444  3
   3535   3533   3534   3539     1  0.0000000  0.6508444  3
   3535   3533   3534   3537     1  0.0000000  0.6508444  3
   3535   3533   3534   3538     1  0.0000000  0.6508444  3
   3536   3533   3534   3539     1  0.0000000  0.6508444  3
   3536   3533   3534   3537     1  0.0000000  0.6508444  3
   3536   3533   3534   3538     1  0.0000000  0.6508444  3
   3537   3534   3539   3540     1  0.0000000  0.6508444  3
   3537   3534   3539   3541     1  0.0000000  0.6508444  3
   3537   3534   3539   3542     1  0.0000000  0.6508444  3
   3538   3534   3539   3540     1  0.0000000  0.6508444  3
   3538   3534   3539   3541     1  0.0000000  0.6508444  3
   3538   3534   3539   3542     1  0.0000000  0.6508444  3
   3543   3545   3546   3549     1  0.0000000  0.6508444  3
   3543   3545   3546   3550     1  0.0000000  0.6508444  3
   3544   3543   3545   3546     1  0.0000000  0.0000000  2
   3544   3543   3545   3547     1  0.0000000  0.0000000  2
   3544   3543   3545   3548     1  0.0000000  0.0000000  2
   3545   3546   3551   3552     1  0.0000000  0.6508444  3
   3545   3546   3551   3553     1  0.0000000  0.6508444  3
   3545   3546   3551   3554     1  0.0000000  0.6508444  3
   3547   3545   3546   3551     1  0.0000000  0.6508444  3
   3547   3545   3546   3549     1  0.0000000  0.6508444  3
   3547   3545   3546   3550     1  0.0000000  0.6508444  3
   3548   3545   3546   3551     1  0.0000000  0.6508444  3
   3548   3545   3546   3549     1  0.0000000  0.6508444  3
   3548   3545   3546   3550     1  0.0000000  0.6508444  3
   3549   3546   3551   3552     1  0.0000000  0.6508444  3
   3549   3546   3551   3553     1  0.0000000  0.6508444  3
   3549   3546   3551   3554     1  0.0000000  0.6508444  3
   3550   3546   3551   3552     1  0.0000000  0.6508444  3
   3550   3546   3551   3553     1  0.0000000  0.6508444  3
   3550   3546   3551   3554     1  0.0000000  0.6508444  3
   3555   3557   3558   3561     1  0.0000000  0.6508444  3
   3555   3557   3558   3562     1  0.0000000  0.6508444  3
   3556   3555   3557   3558     1  0.0000000  0.0000000  2
   3556   3555   3557   3559     1  0.0000000  0.0000000  2
   3556   3555   3557   3560     1  0.0000000  0.0000000  2
   3557   3558   3563   3564     1  0.0000000  0.6508444  3
   3557   3558   3563   3565     1  0.0000000  0.6508444  3
   3557   3558   3563   3566     1  0.0000000  0.6508444  3
   3559   3557   3558   3563     1  0.0000000  0.6508444  3
   3559   3557   3558   3561     1  0.0000000  0.6508444  3
   3559   3557   3558   3562     1  0.0000000  0.6508444  3
   3560   3557   3558   3563     1  0.0000000  0.6508444  3
   3560   3557   3558   3561     1  0.0000000  0.6508444  3
   3560   3557   3558   3562     1  0.0000000  0.6508444  3
   3561   3558   3563   3564     1  0.0000000  0.6508444  3
   3561   3558   3563   3565     1  0.0000000  0.6508444  3
   3561   3558   3563   3566     1  0.0000000  0.6508444  3
   3562   3558   3563   3564     1  0.0000000  0.6508444  3
   3562   3558   3563   3565     1  0.0000000  0.6508444  3
   3562   3558   3563   3566     1  0.0000000  0.6508444  3
   3567   3569   3570   3573     1  0.0000000  0.6508444  3
   3567   3569   3570   3574     1  0.0000000  0.6508444  3
   3568   3567   3569   3570     1  0.0000000  0.0000000  2
   3568   3567   3569   3571     1  0.0000000  0.0000000  2
   3568   3567   3569   3572     1  0.0000000  0.0000000  2
   3569   3570   3575   3576     1  0.0000000  0.6508444  3
   3569   3570   3575   3577     1  0.0000000  0.6508444  3
   3569   3570   3575   3578     1  0.0000000  0.6508444  3
   3571   3569   3570   3575     1  0.0000000  0.6508444  3
   3571   3569   3570   3573     1  0.0000000  0.6508444  3
   3571   3569   3570   3574     1  0.0000000  0.6508444  3
   3572   3569   3570   3575     1  0.0000000  0.6508444  3
   3572   3569   3570   3573     1  0.0000000  0.6508444  3
   3572   3569   3570   3574     1  0.0000000  0.6508444  3
   3573   3570   3575   3576     1  0.0000000  0.6508444  3
   3573   3570   3575   3577     1  0.0000000  0.6508444  3
   3573   3570   3575   3578     1  0.0000000  0.6508444  3
   3574   3570   3575   3576     1  0.0000000  0.6508444  3
   3574   3570   3575   3577     1  0.0000000  0.6508444  3
   3574   3570   3575   3578     1  0.0000000  0.6508444  3
   3579   3581   3582   3585     1  0.0000000  0.6508444  3
   3579   3581   3582   3586     1  0.0000000  0.6508444  3
   3580   3579   3581   3582     1  0.0000000  0.0000000  2
   3580   3579   3581   3583     1  0.0000000  0.0000000  2
   3580   3579   3581   3584     1  0.0000000  0.0000000  2
   3581   3582   3587   3588     1  0.0000000  0.6508444  3
   3581   3582   3587   3589     1  0.0000000  0.6508444  3
   3581   3582   3587   3590     1  0.0000000  0.6508444  3
   3583   3581   3582   3587     1  0.0000000  0.6508444  3
   3583   3581   3582   3585     1  0.0000000  0.6508444  3
   3583   3581   3582   3586     1  0.0000000  0.6508444  3
   3584   3581   3582   3587     1  0.0000000  0.6508444  3
   3584   3581   3582   3585     1  0.0000000  0.6508444  3
   3584   3581   3582   3586     1  0.0000000  0.6508444  3
   3585   3582   3587   3588     1  0.0000000  0.6508444  3
   3585   3582   3587   3589     1  0.0000000  0.6508444  3
   3585   3582   3587   3590     1  0.0000000  0.6508444  3
   3586   3582   3587   3588     1  0.0000000  0.6508444  3
   3586   3582   3587   3589     1  0.0000000  0.6508444  3
   3586   3582   3587   3590     1  0.0000000  0.6508444  3
   3591   3593   3594   3597     1  0.0000000  0.6508444  3
   3591   3593   3594   3598     1  0.0000000  0.6508444  3
   3592   3591   3593   3594     1  0.0000000  0.0000000  2
   3592   3591   3593   3595     1  0.0000000  0.0000000  2
   3592   3591   3593   3596     1  0.0000000  0.0000000  2
   3593   3594   3599   3600     1  0.0000000  0.6508444  3
   3593   3594   3599   3601     1  0.0000000  0.6508444  3
   3593   3594   3599   3602     1  0.0000000  0.6508444  3
   3595   3593   3594   3599     1  0.0000000  0.6508444  3
   3595   3593   3594   3597     1  0.0000000  0.6508444  3
   3595   3593   3594   3598     1  0.0000000  0.6508444  3
   3596   3593   3594   3599     1  0.0000000  0.6508444  3
   3596   3593   3594   3597     1  0.0000000  0.6508444  3
   3596   3593   3594   3598     1  0.0000000  0.6508444  3
   3597   3594   3599   3600     1  0.0000000  0.6508444  3
   3597   3594   3599   3601     1  0.0000000  0.6508444  3
   3597   3594   3599   3602     1  0.0000000  0.6508444  3
   3598   3594   3599   3600     1  0.0000000  0.6508444  3
   3598   3594   3599   3601     1  0.0000000  0.6508444  3
   3598   3594   3599   3602     1  0.0000000  0.6508444  3
   3603   3605   3606   3609     1  0.0000000  0.6508444  3
   3603   3605   3606   3610     1  0.0000000  0.6508444  3
   3604   3603   3605   3606     1  0.0000000  0.0000000  2
   3604   3603   3605   3607     1  0.0000000  0.0000000  2
   3604   3603   3605   3608     1  0.0000000  0.0000000  2
   3605   3606   3611   3612     1  0.0000000  0.6508444  3
   3605   3606   3611   3613     1  0.0000000  0.6508444  3
   3605   3606   3611   3614     1  0.0000000  0.6508444  3
   3607   3605   3606   3611     1  0.0000000  0.6508444  3
   3607   3605   3606   3609     1  0.0000000  0.6508444  3
   3607   3605   3606   3610     1  0.0000000  0.6508444  3
   3608   3605   3606   3611     1  0.0000000  0.6508444  3
   3608   3605   3606   3609     1  0.0000000  0.6508444  3
   3608   3605   3606   3610     1  0.0000000  0.6508444  3
   3609   3606   3611   3612     1  0.0000000  0.6508444  3
   3609   3606   3611   3613     1  0.0000000  0.6508444  3
   3609   3606   3611   3614     1  0.0000000  0.6508444  3
   3610   3606   3611   3612     1  0.0000000  0.6508444  3
   3610   3606   3611   3613     1  0.0000000  0.6508444  3
   3610   3606   3611   3614     1  0.0000000  0.6508444  3
   3615   3617   3618   3621     1  0.0000000  0.6508444  3
   3615   3617   3618   3622     1  0.0000000  0.6508444  3
   3616   3615   3617   3618     1  0.0000000  0.0000000  2
   3616   3615   3617   3619     1  0.0000000  0.0000000  2
   3616   3615   3617   3620     1  0.0000000  0.0000000  2
   3617   3618   3623   3624     1  0.0000000  0.6508444  3
   3617   3618   3623   3625     1  0.0000000  0.6508444  3
   3617   3618   3623   3626     1  0.0000000  0.6508444  3
   3619   3617   3618   3623     1  0.0000000  0.6508444  3
   3619   3617   3618   3621     1  0.0000000  0.6508444  3
   3619   3617   3618   3622     1  0.0000000  0.6508444  3
   3620   3617   3618   3623     1  0.0000000  0.6508444  3
   3620   3617   3618   3621     1  0.0000000  0.6508444  3
   3620   3617   3618   3622     1  0.0000000  0.6508444  3
   3621   3618   3623   3624     1  0.0000000  0.6508444  3
   3621   3618   3623   3625     1  0.0000000  0.6508444  3
   3621   3618   3623   3626     1  0.0000000  0.6508444  3
   3622   3618   3623   3624     1  0.0000000  0.6508444  3
   3622   3618   3623   3625     1  0.0000000  0.6508444  3
   3622   3618   3623   3626     1  0.0000000  0.6508444  3
   3627   3629   3630   3633     1  0.0000000  0.6508444  3
   3627   3629   3630   3634     1  0.0000000  0.6508444  3
   3628   3627   3629   3630     1  0.0000000  0.0000000  2
   3628   3627   3629   3631     1  0.0000000  0.0000000  2
   3628   3627   3629   3632     1  0.0000000  0.0000000  2
   3629   3630   3635   3636     1  0.0000000  0.6508444  3
   3629   3630   3635   3637     1  0.0000000  0.6508444  3
   3629   3630   3635   3638     1  0.0000000  0.6508444  3
   3631   3629   3630   3635     1  0.0000000  0.6508444  3
   3631   3629   3630   3633     1  0.0000000  0.6508444  3
   3631   3629   3630   3634     1  0.0000000  0.6508444  3
   3632   3629   3630   3635     1  0.0000000  0.6508444  3
   3632   3629   3630   3633     1  0.0000000  0.6508444  3
   3632   3629   3630   3634     1  0.0000000  0.6508444  3
   3633   3630   3635   3636     1  0.0000000  0.6508444  3
   3633   3630   3635   3637     1  0.0000000  0.6508444  3
   3633   3630   3635   3638     1  0.0000000  0.6508444  3
   3634   3630   3635   3636     1  0.0000000  0.6508444  3
   3634   3630   3635   3637     1  0.0000000  0.6508444  3
   3634   3630   3635   3638     1  0.0000000  0.6508444  3
   3639   3641   3642   3645     1  0.0000000  0.6508444  3
   3639   3641   3642   3646     1  0.0000000  0.6508444  3
   3640   3639   3641   3642     1  0.0000000  0.0000000  2
   3640   3639   3641   3643     1  0.0000000  0.0000000  2
   3640   3639   3641   3644     1  0.0000000  0.0000000  2
   3641   3642   3647   3648     1  0.0000000  0.6508444  3
   3641   3642   3647   3649     1  0.0000000  0.6508444  3
   3641   3642   3647   3650     1  0.0000000  0.6508444  3
   3643   3641   3642   3647     1  0.0000000  0.6508444  3
   3643   3641   3642   3645     1  0.0000000  0.6508444  3
   3643   3641   3642   3646     1  0.0000000  0.6508444  3
   3644   3641   3642   3647     1  0.0000000  0.6508444  3
   3644   3641   3642   3645     1  0.0000000  0.6508444  3
   3644   3641   3642   3646     1  0.0000000  0.6508444  3
   3645   3642   3647   3648     1  0.0000000  0.6508444  3
   3645   3642   3647   3649     1  0.0000000  0.6508444  3
   3645   3642   3647   3650     1  0.0000000  0.6508444  3
   3646   3642   3647   3648     1  0.0000000  0.6508444  3
   3646   3642   3647   3649     1  0.0000000  0.6508444  3
   3646   3642   3647   3650     1  0.0000000  0.6508444  3
   3651   3653   3654   3657     1  0.0000000  0.6508444  3
   3651   3653   3654   3658     1  0.0000000  0.6508444  3
   3652   3651   3653   3654     1  0.0000000  0.0000000  2
   3652   3651   3653   3655     1  0.0000000  0.0000000  2
   3652   3651   3653   3656     1  0.0000000  0.0000000  2
   3653   3654   3659   3660     1  0.0000000  0.6508444  3
   3653   3654   3659   3661     1  0.0000000  0.6508444  3
   3653   3654   3659   3662     1  0.0000000  0.6508444  3
   3655   3653   3654   3659     1  0.0000000  0.6508444  3
   3655   3653   3654   3657     1  0.0000000  0.6508444  3
   3655   3653   3654   3658     1  0.0000000  0.6508444  3
   3656   3653   3654   3659     1  0.0000000  0.6508444  3
   3656   3653   3654   3657     1  0.0000000  0.6508444  3
   3656   3653   3654   3658     1  0.0000000  0.6508444  3
   3657   3654   3659   3660     1  0.0000000  0.6508444  3
   3657   3654   3659   3661     1  0.0000000  0.6508444  3
   3657   3654   3659   3662     1  0.0000000  0.6508444  3
   3658   3654   3659   3660     1  0.0000000  0.6508444  3
   3658   3654   3659   3661     1  0.0000000  0.6508444  3
   3658   3654   3659   3662     1  0.0000000  0.6508444  3
   3663   3665   3666   3669     1  0.0000000  0.6508444  3
   3663   3665   3666   3670     1  0.0000000  0.6508444  3
   3664   3663   3665   3666     1  0.0000000  0.0000000  2
   3664   3663   3665   3667     1  0.0000000  0.0000000  2
   3664   3663   3665   3668     1  0.0000000  0.0000000  2
   3665   3666   3671   3672     1  0.0000000  0.6508444  3
   3665   3666   3671   3673     1  0.0000000  0.6508444  3
   3665   3666   3671   3674     1  0.0000000  0.6508444  3
   3667   3665   3666   3671     1  0.0000000  0.6508444  3
   3667   3665   3666   3669     1  0.0000000  0.6508444  3
   3667   3665   3666   3670     1  0.0000000  0.6508444  3
   3668   3665   3666   3671     1  0.0000000  0.6508444  3
   3668   3665   3666   3669     1  0.0000000  0.6508444  3
   3668   3665   3666   3670     1  0.0000000  0.6508444  3
   3669   3666   3671   3672     1  0.0000000  0.6508444  3
   3669   3666   3671   3673     1  0.0000000  0.6508444  3
   3669   3666   3671   3674     1  0.0000000  0.6508444  3
   3670   3666   3671   3672     1  0.0000000  0.6508444  3
   3670   3666   3671   3673     1  0.0000000  0.6508444  3
   3670   3666   3671   3674     1  0.0000000  0.6508444  3
   3675   3677   3678   3681     1  0.0000000  0.6508444  3
   3675   3677   3678   3682     1  0.0000000  0.6508444  3
   3676   3675   3677   3678     1  0.0000000  0.0000000  2
   3676   3675   3677   3679     1  0.0000000  0.0000000  2
   3676   3675   3677   3680     1  0.0000000  0.0000000  2
   3677   3678   3683   3684     1  0.0000000  0.6508444  3
   3677   3678   3683   3685     1  0.0000000  0.6508444  3
   3677   3678   3683   3686     1  0.0000000  0.6508444  3
   3679   3677   3678   3683     1  0.0000000  0.6508444  3
   3679   3677   3678   3681     1  0.0000000  0.6508444  3
   3679   3677   3678   3682     1  0.0000000  0.6508444  3
   3680   3677   3678   3683     1  0.0000000  0.6508444  3
   3680   3677   3678   3681     1  0.0000000  0.6508444  3
   3680   3677   3678   3682     1  0.0000000  0.6508444  3
   3681   3678   3683   3684     1  0.0000000  0.6508444  3
   3681   3678   3683   3685     1  0.0000000  0.6508444  3
   3681   3678   3683   3686     1  0.0000000  0.6508444  3
   3682   3678   3683   3684     1  0.0000000  0.6508444  3
   3682   3678   3683   3685     1  0.0000000  0.6508444  3
   3682   3678   3683   3686     1  0.0000000  0.6508444  3
   3687   3689   3690   3693     1  0.0000000  0.6508444  3
   3687   3689   3690   3694     1  0.0000000  0.6508444  3
   3688   3687   3689   3690     1  0.0000000  0.0000000  2
   3688   3687   3689   3691     1  0.0000000  0.0000000  2
   3688   3687   3689   3692     1  0.0000000  0.0000000  2
   3689   3690   3695   3696     1  0.0000000  0.6508444  3
   3689   3690   3695   3697     1  0.0000000  0.6508444  3
   3689   3690   3695   3698     1  0.0000000  0.6508444  3
   3691   3689   3690   3695     1  0.0000000  0.6508444  3
   3691   3689   3690   3693     1  0.0000000  0.6508444  3
   3691   3689   3690   3694     1  0.0000000  0.6508444  3
   3692   3689   3690   3695     1  0.0000000  0.6508444  3
   3692   3689   3690   3693     1  0.0000000  0.6508444  3
   3692   3689   3690   3694     1  0.0000000  0.6508444  3
   3693   3690   3695   3696     1  0.0000000  0.6508444  3
   3693   3690   3695   3697     1  0.0000000  0.6508444  3
   3693   3690   3695   3698     1  0.0000000  0.6508444  3
   3694   3690   3695   3696     1  0.0000000  0.6508444  3
   3694   3690   3695   3697     1  0.0000000  0.6508444  3
   3694   3690   3695   3698     1  0.0000000  0.6508444  3
   3699   3701   3702   3705     1  0.0000000  0.6508444  3
   3699   3701   3702   3706     1  0.0000000  0.6508444  3
   3700   3699   3701   3702     1  0.0000000  0.0000000  2
   3700   3699   3701   3703     1  0.0000000  0.0000000  2
   3700   3699   3701   3704     1  0.0000000  0.0000000  2
   3701   3702   3707   3708     1  0.0000000  0.6508444  3
   3701   3702   3707   3709     1  0.0000000  0.6508444  3
   3701   3702   3707   3710     1  0.0000000  0.6508444  3
   3703   3701   3702   3707     1  0.0000000  0.6508444  3
   3703   3701   3702   3705     1  0.0000000  0.6508444  3
   3703   3701   3702   3706     1  0.0000000  0.6508444  3
   3704   3701   3702   3707     1  0.0000000  0.6508444  3
   3704   3701   3702   3705     1  0.0000000  0.6508444  3
   3704   3701   3702   3706     1  0.0000000  0.6508444  3
   3705   3702   3707   3708     1  0.0000000  0.6508444  3
   3705   3702   3707   3709     1  0.0000000  0.6508444  3
   3705   3702   3707   3710     1  0.0000000  0.6508444  3
   3706   3702   3707   3708     1  0.0000000  0.6508444  3
   3706   3702   3707   3709     1  0.0000000  0.6508444  3
   3706   3702   3707   3710     1  0.0000000  0.6508444  3
   3711   3713   3714   3717     1  0.0000000  0.6508444  3
   3711   3713   3714   3718     1  0.0000000  0.6508444  3
   3712   3711   3713   3714     1  0.0000000  0.0000000  2
   3712   3711   3713   3715     1  0.0000000  0.0000000  2
   3712   3711   3713   3716     1  0.0000000  0.0000000  2
   3713   3714   3719   3720     1  0.0000000  0.6508444  3
   3713   3714   3719   3721     1  0.0000000  0.6508444  3
   3713   3714   3719   3722     1  0.0000000  0.6508444  3
   3715   3713   3714   3719     1  0.0000000  0.6508444  3
   3715   3713   3714   3717     1  0.0000000  0.6508444  3
   3715   3713   3714   3718     1  0.0000000  0.6508444  3
   3716   3713   3714   3719     1  0.0000000  0.6508444  3
   3716   3713   3714   3717     1  0.0000000  0.6508444  3
   3716   3713   3714   3718     1  0.0000000  0.6508444  3
   3717   3714   3719   3720     1  0.0000000  0.6508444  3
   3717   3714   3719   3721     1  0.0000000  0.6508444  3
   3717   3714   3719   3722     1  0.0000000  0.6508444  3
   3718   3714   3719   3720     1  0.0000000  0.6508444  3
   3718   3714   3719   3721     1  0.0000000  0.6508444  3
   3718   3714   3719   3722     1  0.0000000  0.6508444  3
   3723   3725   3726   3729     1  0.0000000  0.6508444  3
   3723   3725   3726   3730     1  0.0000000  0.6508444  3
   3724   3723   3725   3726     1  0.0000000  0.0000000  2
   3724   3723   3725   3727     1  0.0000000  0.0000000  2
   3724   3723   3725   3728     1  0.0000000  0.0000000  2
   3725   3726   3731   3732     1  0.0000000  0.6508444  3
   3725   3726   3731   3733     1  0.0000000  0.6508444  3
   3725   3726   3731   3734     1  0.0000000  0.6508444  3
   3727   3725   3726   3731     1  0.0000000  0.6508444  3
   3727   3725   3726   3729     1  0.0000000  0.6508444  3
   3727   3725   3726   3730     1  0.0000000  0.6508444  3
   3728   3725   3726   3731     1  0.0000000  0.6508444  3
   3728   3725   3726   3729     1  0.0000000  0.6508444  3
   3728   3725   3726   3730     1  0.0000000  0.6508444  3
   3729   3726   3731   3732     1  0.0000000  0.6508444  3
   3729   3726   3731   3733     1  0.0000000  0.6508444  3
   3729   3726   3731   3734     1  0.0000000  0.6508444  3
   3730   3726   3731   3732     1  0.0000000  0.6508444  3
   3730   3726   3731   3733     1  0.0000000  0.6508444  3
   3730   3726   3731   3734     1  0.0000000  0.6508444  3
   3735   3737   3738   3741     1  0.0000000  0.6508444  3
   3735   3737   3738   3742     1  0.0000000  0.6508444  3
   3736   3735   3737   3738     1  0.0000000  0.0000000  2
   3736   3735   3737   3739     1  0.0000000  0.0000000  2
   3736   3735   3737   3740     1  0.0000000  0.0000000  2
   3737   3738   3743   3744     1  0.0000000  0.6508444  3
   3737   3738   3743   3745     1  0.0000000  0.6508444  3
   3737   3738   3743   3746     1  0.0000000  0.6508444  3
   3739   3737   3738   3743     1  0.0000000  0.6508444  3
   3739   3737   3738   3741     1  0.0000000  0.6508444  3
   3739   3737   3738   3742     1  0.0000000  0.6508444  3
   3740   3737   3738   3743     1  0.0000000  0.6508444  3
   3740   3737   3738   3741     1  0.0000000  0.6508444  3
   3740   3737   3738   3742     1  0.0000000  0.6508444  3
   3741   3738   3743   3744     1  0.0000000  0.6508444  3
   3741   3738   3743   3745     1  0.0000000  0.6508444  3
   3741   3738   3743   3746     1  0.0000000  0.6508444  3
   3742   3738   3743   3744     1  0.0000000  0.6508444  3
   3742   3738   3743   3745     1  0.0000000  0.6508444  3
   3742   3738   3743   3746     1  0.0000000  0.6508444  3
   3747   3749   3750   3753     1  0.0000000  0.6508444  3
   3747   3749   3750   3754     1  0.0000000  0.6508444  3
   3748   3747   3749   3750     1  0.0000000  0.0000000  2
   3748   3747   3749   3751     1  0.0000000  0.0000000  2
   3748   3747   3749   3752     1  0.0000000  0.0000000  2
   3749   3750   3755   3756     1  0.0000000  0.6508444  3
   3749   3750   3755   3757     1  0.0000000  0.6508444  3
   3749   3750   3755   3758     1  0.0000000  0.6508444  3
   3751   3749   3750   3755     1  0.0000000  0.6508444  3
   3751   3749   3750   3753     1  0.0000000  0.6508444  3
   3751   3749   3750   3754     1  0.0000000  0.6508444  3
   3752   3749   3750   3755     1  0.0000000  0.6508444  3
   3752   3749   3750   3753     1  0.0000000  0.6508444  3
   3752   3749   3750   3754     1  0.0000000  0.6508444  3
   3753   3750   3755   3756     1  0.0000000  0.6508444  3
   3753   3750   3755   3757     1  0.0000000  0.6508444  3
   3753   3750   3755   3758     1  0.0000000  0.6508444  3
   3754   3750   3755   3756     1  0.0000000  0.6508444  3
   3754   3750   3755   3757     1  0.0000000  0.6508444  3
   3754   3750   3755   3758     1  0.0000000  0.6508444  3
   3759   3761   3762   3765     1  0.0000000  0.6508444  3
   3759   3761   3762   3766     1  0.0000000  0.6508444  3
   3760   3759   3761   3762     1  0.0000000  0.0000000  2
   3760   3759   3761   3763     1  0.0000000  0.0000000  2
   3760   3759   3761   3764     1  0.0000000  0.0000000  2
   3761   3762   3767   3768     1  0.0000000  0.6508444  3
   3761   3762   3767   3769     1  0.0000000  0.6508444  3
   3761   3762   3767   3770     1  0.0000000  0.6508444  3
   3763   3761   3762   3767     1  0.0000000  0.6508444  3
   3763   3761   3762   3765     1  0.0000000  0.6508444  3
   3763   3761   3762   3766     1  0.0000000  0.6508444  3
   3764   3761   3762   3767     1  0.0000000  0.6508444  3
   3764   3761   3762   3765     1  0.0000000  0.6508444  3
   3764   3761   3762   3766     1  0.0000000  0.6508444  3
   3765   3762   3767   3768     1  0.0000000  0.6508444  3
   3765   3762   3767   3769     1  0.0000000  0.6508444  3
   3765   3762   3767   3770     1  0.0000000  0.6508444  3
   3766   3762   3767   3768     1  0.0000000  0.6508444  3
   3766   3762   3767   3769     1  0.0000000  0.6508444  3
   3766   3762   3767   3770     1  0.0000000  0.6508444  3
   3771   3773   3774   3777     1  0.0000000  0.6508444  3
   3771   3773   3774   3778     1  0.0000000  0.6508444  3
   3772   3771   3773   3774     1  0.0000000  0.0000000  2
   3772   3771   3773   3775     1  0.0000000  0.0000000  2
   3772   3771   3773   3776     1  0.0000000  0.0000000  2
   3773   3774   3779   3780     1  0.0000000  0.6508444  3
   3773   3774   3779   3781     1  0.0000000  0.6508444  3
   3773   3774   3779   3782     1  0.0000000  0.6508444  3
   3775   3773   3774   3779     1  0.0000000  0.6508444  3
   3775   3773   3774   3777     1  0.0000000  0.6508444  3
   3775   3773   3774   3778     1  0.0000000  0.6508444  3
   3776   3773   3774   3779     1  0.0000000  0.6508444  3
   3776   3773   3774   3777     1  0.0000000  0.6508444  3
   3776   3773   3774   3778     1  0.0000000  0.6508444  3
   3777   3774   3779   3780     1  0.0000000  0.6508444  3
   3777   3774   3779   3781     1  0.0000000  0.6508444  3
   3777   3774   3779   3782     1  0.0000000  0.6508444  3
   3778   3774   3779   3780     1  0.0000000  0.6508444  3
   3778   3774   3779   3781     1  0.0000000  0.6508444  3
   3778   3774   3779   3782     1  0.0000000  0.6508444  3
   3783   3785   3786   3789     1  0.0000000  0.6508444  3
   3783   3785   3786   3790     1  0.0000000  0.6508444  3
   3784   3783   3785   3786     1  0.0000000  0.0000000  2
   3784   3783   3785   3787     1  0.0000000  0.0000000  2
   3784   3783   3785   3788     1  0.0000000  0.0000000  2
   3785   3786   3791   3792     1  0.0000000  0.6508444  3
   3785   3786   3791   3793     1  0.0000000  0.6508444  3
   3785   3786   3791   3794     1  0.0000000  0.6508444  3
   3787   3785   3786   3791     1  0.0000000  0.6508444  3
   3787   3785   3786   3789     1  0.0000000  0.6508444  3
   3787   3785   3786   3790     1  0.0000000  0.6508444  3
   3788   3785   3786   3791     1  0.0000000  0.6508444  3
   3788   3785   3786   3789     1  0.0000000  0.6508444  3
   3788   3785   3786   3790     1  0.0000000  0.6508444  3
   3789   3786   3791   3792     1  0.0000000  0.6508444  3
   3789   3786   3791   3793     1  0.0000000  0.6508444  3
   3789   3786   3791   3794     1  0.0000000  0.6508444  3
   3790   3786   3791   3792     1  0.0000000  0.6508444  3
   3790   3786   3791   3793     1  0.0000000  0.6508444  3
   3790   3786   3791   3794     1  0.0000000  0.6508444  3
   3795   3797   3798   3801     1  0.0000000  0.6508444  3
   3795   3797   3798   3802     1  0.0000000  0.6508444  3
   3796   3795   3797   3798     1  0.0000000  0.0000000  2
   3796   3795   3797   3799     1  0.0000000  0.0000000  2
   3796   3795   3797   3800     1  0.0000000  0.0000000  2
   3797   3798   3803   3804     1  0.0000000  0.6508444  3
   3797   3798   3803   3805     1  0.0000000  0.6508444  3
   3797   3798   3803   3806     1  0.0000000  0.6508444  3
   3799   3797   3798   3803     1  0.0000000  0.6508444  3
   3799   3797   3798   3801     1  0.0000000  0.6508444  3
   3799   3797   3798   3802     1  0.0000000  0.6508444  3
   3800   3797   3798   3803     1  0.0000000  0.6508444  3
   3800   3797   3798   3801     1  0.0000000  0.6508444  3
   3800   3797   3798   3802     1  0.0000000  0.6508444  3
   3801   3798   3803   3804     1  0.0000000  0.6508444  3
   3801   3798   3803   3805     1  0.0000000  0.6508444  3
   3801   3798   3803   3806     1  0.0000000  0.6508444  3
   3802   3798   3803   3804     1  0.0000000  0.6508444  3
   3802   3798   3803   3805     1  0.0000000  0.6508444  3
   3802   3798   3803   3806     1  0.0000000  0.6508444  3
   3807   3809   3810   3813     1  0.0000000  0.6508444  3
   3807   3809   3810   3814     1  0.0000000  0.6508444  3
   3808   3807   3809   3810     1  0.0000000  0.0000000  2
   3808   3807   3809   3811     1  0.0000000  0.0000000  2
   3808   3807   3809   3812     1  0.0000000  0.0000000  2
   3809   3810   3815   3816     1  0.0000000  0.6508444  3
   3809   3810   3815   3817     1  0.0000000  0.6508444  3
   3809   3810   3815   3818     1  0.0000000  0.6508444  3
   3811   3809   3810   3815     1  0.0000000  0.6508444  3
   3811   3809   3810   3813     1  0.0000000  0.6508444  3
   3811   3809   3810   3814     1  0.0000000  0.6508444  3
   3812   3809   3810   3815     1  0.0000000  0.6508444  3
   3812   3809   3810   3813     1  0.0000000  0.6508444  3
   3812   3809   3810   3814     1  0.0000000  0.6508444  3
   3813   3810   3815   3816     1  0.0000000  0.6508444  3
   3813   3810   3815   3817     1  0.0000000  0.6508444  3
   3813   3810   3815   3818     1  0.0000000  0.6508444  3
   3814   3810   3815   3816     1  0.0000000  0.6508444  3
   3814   3810   3815   3817     1  0.0000000  0.6508444  3
   3814   3810   3815   3818     1  0.0000000  0.6508444  3
   3819   3821   3822   3825     1  0.0000000  0.6508444  3
   3819   3821   3822   3826     1  0.0000000  0.6508444  3
   3820   3819   3821   3822     1  0.0000000  0.0000000  2
   3820   3819   3821   3823     1  0.0000000  0.0000000  2
   3820   3819   3821   3824     1  0.0000000  0.0000000  2
   3821   3822   3827   3828     1  0.0000000  0.6508444  3
   3821   3822   3827   3829     1  0.0000000  0.6508444  3
   3821   3822   3827   3830     1  0.0000000  0.6508444  3
   3823   3821   3822   3827     1  0.0000000  0.6508444  3
   3823   3821   3822   3825     1  0.0000000  0.6508444  3
   3823   3821   3822   3826     1  0.0000000  0.6508444  3
   3824   3821   3822   3827     1  0.0000000  0.6508444  3
   3824   3821   3822   3825     1  0.0000000  0.6508444  3
   3824   3821   3822   3826     1  0.0000000  0.6508444  3
   3825   3822   3827   3828     1  0.0000000  0.6508444  3
   3825   3822   3827   3829     1  0.0000000  0.6508444  3
   3825   3822   3827   3830     1  0.0000000  0.6508444  3
   3826   3822   3827   3828     1  0.0000000  0.6508444  3
   3826   3822   3827   3829     1  0.0000000  0.6508444  3
   3826   3822   3827   3830     1  0.0000000  0.6508444  3
   3831   3833   3834   3837     1  0.0000000  0.6508444  3
   3831   3833   3834   3838     1  0.0000000  0.6508444  3
   3832   3831   3833   3834     1  0.0000000  0.0000000  2
   3832   3831   3833   3835     1  0.0000000  0.0000000  2
   3832   3831   3833   3836     1  0.0000000  0.0000000  2
   3833   3834   3839   3840     1  0.0000000  0.6508444  3
   3833   3834   3839   3841     1  0.0000000  0.6508444  3
   3833   3834   3839   3842     1  0.0000000  0.6508444  3
   3835   3833   3834   3839     1  0.0000000  0.6508444  3
   3835   3833   3834   3837     1  0.0000000  0.6508444  3
   3835   3833   3834   3838     1  0.0000000  0.6508444  3
   3836   3833   3834   3839     1  0.0000000  0.6508444  3
   3836   3833   3834   3837     1  0.0000000  0.6508444  3
   3836   3833   3834   3838     1  0.0000000  0.6508444  3
   3837   3834   3839   3840     1  0.0000000  0.6508444  3
   3837   3834   3839   3841     1  0.0000000  0.6508444  3
   3837   3834   3839   3842     1  0.0000000  0.6508444  3
   3838   3834   3839   3840     1  0.0000000  0.6508444  3
   3838   3834   3839   3841     1  0.0000000  0.6508444  3
   3838   3834   3839   3842     1  0.0000000  0.6508444  3
   3843   3845   3846   3849     1  0.0000000  0.6508444  3
   3843   3845   3846   3850     1  0.0000000  0.6508444  3
   3844   3843   3845   3846     1  0.0000000  0.0000000  2
   3844   3843   3845   3847     1  0.0000000  0.0000000  2
   3844   3843   3845   3848     1  0.0000000  0.0000000  2
   3845   3846   3851   3852     1  0.0000000  0.6508444  3
   3845   3846   3851   3853     1  0.0000000  0.6508444  3
   3845   3846   3851   3854     1  0.0000000  0.6508444  3
   3847   3845   3846   3851     1  0.0000000  0.6508444  3
   3847   3845   3846   3849     1  0.0000000  0.6508444  3
   3847   3845   3846   3850     1  0.0000000  0.6508444  3
   3848   3845   3846   3851     1  0.0000000  0.6508444  3
   3848   3845   3846   3849     1  0.0000000  0.6508444  3
   3848   3845   3846   3850     1  0.0000000  0.6508444  3
   3849   3846   3851   3852     1  0.0000000  0.6508444  3
   3849   3846   3851   3853     1  0.0000000  0.6508444  3
   3849   3846   3851   3854     1  0.0000000  0.6508444  3
   3850   3846   3851   3852     1  0.0000000  0.6508444  3
   3850   3846   3851   3853     1  0.0000000  0.6508444  3
   3850   3846   3851   3854     1  0.0000000  0.6508444  3
   3855   3857   3858   3861     1  0.0000000  0.6508444  3
   3855   3857   3858   3862     1  0.0000000  0.6508444  3
   3856   3855   3857   3858     1  0.0000000  0.0000000  2
   3856   3855   3857   3859     1  0.0000000  0.0000000  2
   3856   3855   3857   3860     1  0.0000000  0.0000000  2
   3857   3858   3863   3864     1  0.0000000  0.6508444  3
   3857   3858   3863   3865     1  0.0000000  0.6508444  3
   3857   3858   3863   3866     1  0.0000000  0.6508444  3
   3859   3857   3858   3863     1  0.0000000  0.6508444  3
   3859   3857   3858   3861     1  0.0000000  0.6508444  3
   3859   3857   3858   3862     1  0.0000000  0.6508444  3
   3860   3857   3858   3863     1  0.0000000  0.6508444  3
   3860   3857   3858   3861     1  0.0000000  0.6508444  3
   3860   3857   3858   3862     1  0.0000000  0.6508444  3
   3861   3858   3863   3864     1  0.0000000  0.6508444  3
   3861   3858   3863   3865     1  0.0000000  0.6508444  3
   3861   3858   3863   3866     1  0.0000000  0.6508444  3
   3862   3858   3863   3864     1  0.0000000  0.6508444  3
   3862   3858   3863   3865     1  0.0000000  0.6508444  3
   3862   3858   3863   3866     1  0.0000000  0.6508444  3
   3867   3869   3870   3873     1  0.0000000  0.6508444  3
   3867   3869   3870   3874     1  0.0000000  0.6508444  3
   3868   3867   3869   3870     1  0.0000000  0.0000000  2
   3868   3867   3869   3871     1  0.0000000  0.0000000  2
   3868   3867   3869   3872     1  0.0000000  0.0000000  2
   3869   3870   3875   3876     1  0.0000000  0.6508444  3
   3869   3870   3875   3877     1  0.0000000  0.6508444  3
   3869   3870   3875   3878     1  0.0000000  0.6508444  3
   3871   3869   3870   3875     1  0.0000000  0.6508444  3
   3871   3869   3870   3873     1  0.0000000  0.6508444  3
   3871   3869   3870   3874     1  0.0000000  0.6508444  3
   3872   3869   3870   3875     1  0.0000000  0.6508444  3
   3872   3869   3870   3873     1  0.0000000  0.6508444  3
   3872   3869   3870   3874     1  0.0000000  0.6508444  3
   3873   3870   3875   3876     1  0.0000000  0.6508444  3
   3873   3870   3875   3877     1  0.0000000  0.6508444  3
   3873   3870   3875   3878     1  0.0000000  0.6508444  3
   3874   3870   3875   3876     1  0.0000000  0.6508444  3
   3874   3870   3875   3877     1  0.0000000  0.6508444  3
   3874   3870   3875   3878     1  0.0000000  0.6508444  3
   3879   3881   3882   3885     1  0.0000000  0.6508444  3
   3879   3881   3882   3886     1  0.0000000  0.6508444  3
   3880   3879   3881   3882     1  0.0000000  0.0000000  2
   3880   3879   3881   3883     1  0.0000000  0.0000000  2
   3880   3879   3881   3884     1  0.0000000  0.0000000  2
   3881   3882   3887   3888     1  0.0000000  0.6508444  3
   3881   3882   3887   3889     1  0.0000000  0.6508444  3
   3881   3882   3887   3890     1  0.0000000  0.6508444  3
   3883   3881   3882   3887     1  0.0000000  0.6508444  3
   3883   3881   3882   3885     1  0.0000000  0.6508444  3
   3883   3881   3882   3886     1  0.0000000  0.6508444  3
   3884   3881   3882   3887     1  0.0000000  0.6508444  3
   3884   3881   3882   3885     1  0.0000000  0.6508444  3
   3884   3881   3882   3886     1  0.0000000  0.6508444  3
   3885   3882   3887   3888     1  0.0000000  0.6508444  3
   3885   3882   3887   3889     1  0.0000000  0.6508444  3
   3885   3882   3887   3890     1  0.0000000  0.6508444  3
   3886   3882   3887   3888     1  0.0000000  0.6508444  3
   3886   3882   3887   3889     1  0.0000000  0.6508444  3
   3886   3882   3887   3890     1  0.0000000  0.6508444  3
   3891   3893   3894   3897     1  0.0000000  0.6508444  3
   3891   3893   3894   3898     1  0.0000000  0.6508444  3
   3892   3891   3893   3894     1  0.0000000  0.0000000  2
   3892   3891   3893   3895     1  0.0000000  0.0000000  2
   3892   3891   3893   3896     1  0.0000000  0.0000000  2
   3893   3894   3899   3900     1  0.0000000  0.6508444  3
   3893   3894   3899   3901     1  0.0000000  0.6508444  3
   3893   3894   3899   3902     1  0.0000000  0.6508444  3
   3895   3893   3894   3899     1  0.0000000  0.6508444  3
   3895   3893   3894   3897     1  0.0000000  0.6508444  3
   3895   3893   3894   3898     1  0.0000000  0.6508444  3
   3896   3893   3894   3899     1  0.0000000  0.6508444  3
   3896   3893   3894   3897     1  0.0000000  0.6508444  3
   3896   3893   3894   3898     1  0.0000000  0.6508444  3
   3897   3894   3899   3900     1  0.0000000  0.6508444  3
   3897   3894   3899   3901     1  0.0000000  0.6508444  3
   3897   3894   3899   3902     1  0.0000000  0.6508444  3
   3898   3894   3899   3900     1  0.0000000  0.6508444  3
   3898   3894   3899   3901     1  0.0000000  0.6508444  3
   3898   3894   3899   3902     1  0.0000000  0.6508444  3
   3903   3905   3906   3909     1  0.0000000  0.6508444  3
   3903   3905   3906   3910     1  0.0000000  0.6508444  3
   3904   3903   3905   3906     1  0.0000000  0.0000000  2
   3904   3903   3905   3907     1  0.0000000  0.0000000  2
   3904   3903   3905   3908     1  0.0000000  0.0000000  2
   3905   3906   3911   3912     1  0.0000000  0.6508444  3
   3905   3906   3911   3913     1  0.0000000  0.6508444  3
   3905   3906   3911   3914     1  0.0000000  0.6508444  3
   3907   3905   3906   3911     1  0.0000000  0.6508444  3
   3907   3905   3906   3909     1  0.0000000  0.6508444  3
   3907   3905   3906   3910     1  0.0000000  0.6508444  3
   3908   3905   3906   3911     1  0.0000000  0.6508444  3
   3908   3905   3906   3909     1  0.0000000  0.6508444  3
   3908   3905   3906   3910     1  0.0000000  0.6508444  3
   3909   3906   3911   3912     1  0.0000000  0.6508444  3
   3909   3906   3911   3913     1  0.0000000  0.6508444  3
   3909   3906   3911   3914     1  0.0000000  0.6508444  3
   3910   3906   3911   3912     1  0.0000000  0.6508444  3
   3910   3906   3911   3913     1  0.0000000  0.6508444  3
   3910   3906   3911   3914     1  0.0000000  0.6508444  3
   3915   3917   3918   3921     1  0.0000000  0.6508444  3
   3915   3917   3918   3922     1  0.0000000  0.6508444  3
   3916   3915   3917   3918     1  0.0000000  0.0000000  2
   3916   3915   3917   3919     1  0.0000000  0.0000000  2
   3916   3915   3917   3920     1  0.0000000  0.0000000  2
   3917   3918   3923   3924     1  0.0000000  0.6508444  3
   3917   3918   3923   3925     1  0.0000000  0.6508444  3
   3917   3918   3923   3926     1  0.0000000  0.6508444  3
   3919   3917   3918   3923     1  0.0000000  0.6508444  3
   3919   3917   3918   3921     1  0.0000000  0.6508444  3
   3919   3917   3918   3922     1  0.0000000  0.6508444  3
   3920   3917   3918   3923     1  0.0000000  0.6508444  3
   3920   3917   3918   3921     1  0.0000000  0.6508444  3
   3920   3917   3918   3922     1  0.0000000  0.6508444  3
   3921   3918   3923   3924     1  0.0000000  0.6508444  3
   3921   3918   3923   3925     1  0.0000000  0.6508444  3
   3921   3918   3923   3926     1  0.0000000  0.6508444  3
   3922   3918   3923   3924     1  0.0000000  0.6508444  3
   3922   3918   3923   3925     1  0.0000000  0.6508444  3
   3922   3918   3923   3926     1  0.0000000  0.6508444  3
   3927   3929   3930   3933     1  0.0000000  0.6508444  3
   3927   3929   3930   3934     1  0.0000000  0.6508444  3
   3928   3927   3929   3930     1  0.0000000  0.0000000  2
   3928   3927   3929   3931     1  0.0000000  0.0000000  2
   3928   3927   3929   3932     1  0.0000000  0.0000000  2
   3929   3930   3935   3936     1  0.0000000  0.6508444  3
   3929   3930   3935   3937     1  0.0000000  0.6508444  3
   3929   3930   3935   3938     1  0.0000000  0.6508444  3
   3931   3929   3930   3935     1  0.0000000  0.6508444  3
   3931   3929   3930   3933     1  0.0000000  0.6508444  3
   3931   3929   3930   3934     1  0.0000000  0.6508444  3
   3932   3929   3930   3935     1  0.0000000  0.6508444  3
   3932   3929   3930   3933     1  0.0000000  0.6508444  3
   3932   3929   3930   3934     1  0.0000000  0.6508444  3
   3933   3930   3935   3936     1  0.0000000  0.6508444  3
   3933   3930   3935   3937     1  0.0000000  0.6508444  3
   3933   3930   3935   3938     1  0.0000000  0.6508444  3
   3934   3930   3935   3936     1  0.0000000  0.6508444  3
   3934   3930   3935   3937     1  0.0000000  0.6508444  3
   3934   3930   3935   3938     1  0.0000000  0.6508444  3
   3939   3941   3942   3945     1  0.0000000  0.6508444  3
   3939   3941   3942   3946     1  0.0000000  0.6508444  3
   3940   3939   3941   3942     1  0.0000000  0.0000000  2
   3940   3939   3941   3943     1  0.0000000  0.0000000  2
   3940   3939   3941   3944     1  0.0000000  0.0000000  2
   3941   3942   3947   3948     1  0.0000000  0.6508444  3
   3941   3942   3947   3949     1  0.0000000  0.6508444  3
   3941   3942   3947   3950     1  0.0000000  0.6508444  3
   3943   3941   3942   3947     1  0.0000000  0.6508444  3
   3943   3941   3942   3945     1  0.0000000  0.6508444  3
   3943   3941   3942   3946     1  0.0000000  0.6508444  3
   3944   3941   3942   3947     1  0.0000000  0.6508444  3
   3944   3941   3942   3945     1  0.0000000  0.6508444  3
   3944   3941   3942   3946     1  0.0000000  0.6508444  3
   3945   3942   3947   3948     1  0.0000000  0.6508444  3
   3945   3942   3947   3949     1  0.0000000  0.6508444  3
   3945   3942   3947   3950     1  0.0000000  0.6508444  3
   3946   3942   3947   3948     1  0.0000000  0.6508444  3
   3946   3942   3947   3949     1  0.0000000  0.6508444  3
   3946   3942   3947   3950     1  0.0000000  0.6508444  3
   3951   3953   3954   3957     1  0.0000000  0.6508444  3
   3951   3953   3954   3958     1  0.0000000  0.6508444  3
   3952   3951   3953   3954     1  0.0000000  0.0000000  2
   3952   3951   3953   3955     1  0.0000000  0.0000000  2
   3952   3951   3953   3956     1  0.0000000  0.0000000  2
   3953   3954   3959   3960     1  0.0000000  0.6508444  3
   3953   3954   3959   3961     1  0.0000000  0.6508444  3
   3953   3954   3959   3962     1  0.0000000  0.6508444  3
   3955   3953   3954   3959     1  0.0000000  0.6508444  3
   3955   3953   3954   3957     1  0.0000000  0.6508444  3
   3955   3953   3954   3958     1  0.0000000  0.6508444  3
   3956   3953   3954   3959     1  0.0000000  0.6508444  3
   3956   3953   3954   3957     1  0.0000000  0.6508444  3
   3956   3953   3954   3958     1  0.0000000  0.6508444  3
   3957   3954   3959   3960     1  0.0000000  0.6508444  3
   3957   3954   3959   3961     1  0.0000000  0.6508444  3
   3957   3954   3959   3962     1  0.0000000  0.6508444  3
   3958   3954   3959   3960     1  0.0000000  0.6508444  3
   3958   3954   3959   3961     1  0.0000000  0.6508444  3
   3958   3954   3959   3962     1  0.0000000  0.6508444  3
   3963   3965   3966   3969     1  0.0000000  0.6508444  3
   3963   3965   3966   3970     1  0.0000000  0.6508444  3
   3964   3963   3965   3966     1  0.0000000  0.0000000  2
   3964   3963   3965   3967     1  0.0000000  0.0000000  2
   3964   3963   3965   3968     1  0.0000000  0.0000000  2
   3965   3966   3971   3972     1  0.0000000  0.6508444  3
   3965   3966   3971   3973     1  0.0000000  0.6508444  3
   3965   3966   3971   3974     1  0.0000000  0.6508444  3
   3967   3965   3966   3971     1  0.0000000  0.6508444  3
   3967   3965   3966   3969     1  0.0000000  0.6508444  3
   3967   3965   3966   3970     1  0.0000000  0.6508444  3
   3968   3965   3966   3971     1  0.0000000  0.6508444  3
   3968   3965   3966   3969     1  0.0000000  0.6508444  3
   3968   3965   3966   3970     1  0.0000000  0.6508444  3
   3969   3966   3971   3972     1  0.0000000  0.6508444  3
   3969   3966   3971   3973     1  0.0000000  0.6508444  3
   3969   3966   3971   3974     1  0.0000000  0.6508444  3
   3970   3966   3971   3972     1  0.0000000  0.6508444  3
   3970   3966   3971   3973     1  0.0000000  0.6508444  3
   3970   3966   3971   3974     1  0.0000000  0.6508444  3
   3975   3977   3978   3981     1  0.0000000  0.6508444  3
   3975   3977   3978   3982     1  0.0000000  0.6508444  3
   3976   3975   3977   3978     1  0.0000000  0.0000000  2
   3976   3975   3977   3979     1  0.0000000  0.0000000  2
   3976   3975   3977   3980     1  0.0000000  0.0000000  2
   3977   3978   3983   3984     1  0.0000000  0.6508444  3
   3977   3978   3983   3985     1  0.0000000  0.6508444  3
   3977   3978   3983   3986     1  0.0000000  0.6508444  3
   3979   3977   3978   3983     1  0.0000000  0.6508444  3
   3979   3977   3978   3981     1  0.0000000  0.6508444  3
   3979   3977   3978   3982     1  0.0000000  0.6508444  3
   3980   3977   3978   3983     1  0.0000000  0.6508444  3
   3980   3977   3978   3981     1  0.0000000  0.6508444  3
   3980   3977   3978   3982     1  0.0000000  0.6508444  3
   3981   3978   3983   3984     1  0.0000000  0.6508444  3
   3981   3978   3983   3985     1  0.0000000  0.6508444  3
   3981   3978   3983   3986     1  0.0000000  0.6508444  3
   3982   3978   3983   3984     1  0.0000000  0.6508444  3
   3982   3978   3983   3985     1  0.0000000  0.6508444  3
   3982   3978   3983   3986     1  0.0000000  0.6508444  3
   3987   3989   3990   3993     1  0.0000000  0.6508444  3
   3987   3989   3990   3994     1  0.0000000  0.6508444  3
   3988   3987   3989   3990     1  0.0000000  0.0000000  2
   3988   3987   3989   3991     1  0.0000000  0.0000000  2
   3988   3987   3989   3992     1  0.0000000  0.0000000  2
   3989   3990   3995   3996     1  0.0000000  0.6508444  3
   3989   3990   3995   3997     1  0.0000000  0.6508444  3
   3989   3990   3995   3998     1  0.0000000  0.6508444  3
   3991   3989   3990   3995     1  0.0000000  0.6508444  3
   3991   3989   3990   3993     1  0.0000000  0.6508444  3
   3991   3989   3990   3994     1  0.0000000  0.6508444  3
   3992   3989   3990   3995     1  0.0000000  0.6508444  3
   3992   3989   3990   3993     1  0.0000000  0.6508444  3
   3992   3989   3990   3994     1  0.0000000  0.6508444  3
   3993   3990   3995   3996     1  0.0000000  0.6508444  3
   3993   3990   3995   3997     1  0.0000000  0.6508444  3
   3993   3990   3995   3998     1  0.0000000  0.6508444  3
   3994   3990   3995   3996     1  0.0000000  0.6508444  3
   3994   3990   3995   3997     1  0.0000000  0.6508444  3
   3994   3990   3995   3998     1  0.0000000  0.6508444  3
   3999   4001   4002   4005     1  0.0000000  0.6508444  3
   3999   4001   4002   4006     1  0.0000000  0.6508444  3
   4000   3999   4001   4002     1  0.0000000  0.0000000  2
   4000   3999   4001   4003     1  0.0000000  0.0000000  2
   4000   3999   4001   4004     1  0.0000000  0.0000000  2
   4001   4002   4007   4008     1  0.0000000  0.6508444  3
   4001   4002   4007   4009     1  0.0000000  0.6508444  3
   4001   4002   4007   4010     1  0.0000000  0.6508444  3
   4003   4001   4002   4007     1  0.0000000  0.6508444  3
   4003   4001   4002   4005     1  0.0000000  0.6508444  3
   4003   4001   4002   4006     1  0.0000000  0.6508444  3
   4004   4001   4002   4007     1  0.0000000  0.6508444  3
   4004   4001   4002   4005     1  0.0000000  0.6508444  3
   4004   4001   4002   4006     1  0.0000000  0.6508444  3
   4005   4002   4007   4008     1  0.0000000  0.6508444  3
   4005   4002   4007   4009     1  0.0000000  0.6508444  3
   4005   4002   4007   4010     1  0.0000000  0.6508444  3
   4006   4002   4007   4008     1  0.0000000  0.6508444  3
   4006   4002   4007   4009     1  0.0000000  0.6508444  3
   4006   4002   4007   4010     1  0.0000000  0.6508444  3
   4011   4013   4014   4017     1  0.0000000  0.6508444  3
   4011   4013   4014   4018     1  0.0000000  0.6508444  3
   4012   4011   4013   4014     1  0.0000000  0.0000000  2
   4012   4011   4013   4015     1  0.0000000  0.0000000  2
   4012   4011   4013   4016     1  0.0000000  0.0000000  2
   4013   4014   4019   4020     1  0.0000000  0.6508444  3
   4013   4014   4019   4021     1  0.0000000  0.6508444  3
   4013   4014   4019   4022     1  0.0000000  0.6508444  3
   4015   4013   4014   4019     1  0.0000000  0.6508444  3
   4015   4013   4014   4017     1  0.0000000  0.6508444  3
   4015   4013   4014   4018     1  0.0000000  0.6508444  3
   4016   4013   4014   4019     1  0.0000000  0.6508444  3
   4016   4013   4014   4017     1  0.0000000  0.6508444  3
   4016   4013   4014   4018     1  0.0000000  0.6508444  3
   4017   4014   4019   4020     1  0.0000000  0.6508444  3
   4017   4014   4019   4021     1  0.0000000  0.6508444  3
   4017   4014   4019   4022     1  0.0000000  0.6508444  3
   4018   4014   4019   4020     1  0.0000000  0.6508444  3
   4018   4014   4019   4021     1  0.0000000  0.6508444  3
   4018   4014   4019   4022     1  0.0000000  0.6508444  3
   4023   4025   4026   4029     1  0.0000000  0.6508444  3
   4023   4025   4026   4030     1  0.0000000  0.6508444  3
   4024   4023   4025   4026     1  0.0000000  0.0000000  2
   4024   4023   4025   4027     1  0.0000000  0.0000000  2
   4024   4023   4025   4028     1  0.0000000  0.0000000  2
   4025   4026   4031   4032     1  0.0000000  0.6508444  3
   4025   4026   4031   4033     1  0.0000000  0.6508444  3
   4025   4026   4031   4034     1  0.0000000  0.6508444  3
   4027   4025   4026   4031     1  0.0000000  0.6508444  3
   4027   4025   4026   4029     1  0.0000000  0.6508444  3
   4027   4025   4026   4030     1  0.0000000  0.6508444  3
   4028   4025   4026   4031     1  0.0000000  0.6508444  3
   4028   4025   4026   4029     1  0.0000000  0.6508444  3
   4028   4025   4026   4030     1  0.0000000  0.6508444  3
   4029   4026   4031   4032     1  0.0000000  0.6508444  3
   4029   4026   4031   4033     1  0.0000000  0.6508444  3
   4029   4026   4031   4034     1  0.0000000  0.6508444  3
   4030   4026   4031   4032     1  0.0000000  0.6508444  3
   4030   4026   4031   4033     1  0.0000000  0.6508444  3
   4030   4026   4031   4034     1  0.0000000  0.6508444  3
   4035   4037   4038   4041     1  0.0000000  0.6508444  3
   4035   4037   4038   4042     1  0.0000000  0.6508444  3
   4036   4035   4037   4038     1  0.0000000  0.0000000  2
   4036   4035   4037   4039     1  0.0000000  0.0000000  2
   4036   4035   4037   4040     1  0.0000000  0.0000000  2
   4037   4038   4043   4044     1  0.0000000  0.6508444  3
   4037   4038   4043   4045     1  0.0000000  0.6508444  3
   4037   4038   4043   4046     1  0.0000000  0.6508444  3
   4039   4037   4038   4043     1  0.0000000  0.6508444  3
   4039   4037   4038   4041     1  0.0000000  0.6508444  3
   4039   4037   4038   4042     1  0.0000000  0.6508444  3
   4040   4037   4038   4043     1  0.0000000  0.6508444  3
   4040   4037   4038   4041     1  0.0000000  0.6508444  3
   4040   4037   4038   4042     1  0.0000000  0.6508444  3
   4041   4038   4043   4044     1  0.0000000  0.6508444  3
   4041   4038   4043   4045     1  0.0000000  0.6508444  3
   4041   4038   4043   4046     1  0.0000000  0.6508444  3
   4042   4038   4043   4044     1  0.0000000  0.6508444  3
   4042   4038   4043   4045     1  0.0000000  0.6508444  3
   4042   4038   4043   4046     1  0.0000000  0.6508444  3
   4047   4049   4050   4053     1  0.0000000  0.6508444  3
   4047   4049   4050   4054     1  0.0000000  0.6508444  3
   4048   4047   4049   4050     1  0.0000000  0.0000000  2
   4048   4047   4049   4051     1  0.0000000  0.0000000  2
   4048   4047   4049   4052     1  0.0000000  0.0000000  2
   4049   4050   4055   4056     1  0.0000000  0.6508444  3
   4049   4050   4055   4057     1  0.0000000  0.6508444  3
   4049   4050   4055   4058     1  0.0000000  0.6508444  3
   4051   4049   4050   4055     1  0.0000000  0.6508444  3
   4051   4049   4050   4053     1  0.0000000  0.6508444  3
   4051   4049   4050   4054     1  0.0000000  0.6508444  3
   4052   4049   4050   4055     1  0.0000000  0.6508444  3
   4052   4049   4050   4053     1  0.0000000  0.6508444  3
   4052   4049   4050   4054     1  0.0000000  0.6508444  3
   4053   4050   4055   4056     1  0.0000000  0.6508444  3
   4053   4050   4055   4057     1  0.0000000  0.6508444  3
   4053   4050   4055   4058     1  0.0000000  0.6508444  3
   4054   4050   4055   4056     1  0.0000000  0.6508444  3
   4054   4050   4055   4057     1  0.0000000  0.6508444  3
   4054   4050   4055   4058     1  0.0000000  0.6508444  3
   4059   4061   4062   4065     1  0.0000000  0.6508444  3
   4059   4061   4062   4066     1  0.0000000  0.6508444  3
   4060   4059   4061   4062     1  0.0000000  0.0000000  2
   4060   4059   4061   4063     1  0.0000000  0.0000000  2
   4060   4059   4061   4064     1  0.0000000  0.0000000  2
   4061   4062   4067   4068     1  0.0000000  0.6508444  3
   4061   4062   4067   4069     1  0.0000000  0.6508444  3
   4061   4062   4067   4070     1  0.0000000  0.6508444  3
   4063   4061   4062   4067     1  0.0000000  0.6508444  3
   4063   4061   4062   4065     1  0.0000000  0.6508444  3
   4063   4061   4062   4066     1  0.0000000  0.6508444  3
   4064   4061   4062   4067     1  0.0000000  0.6508444  3
   4064   4061   4062   4065     1  0.0000000  0.6508444  3
   4064   4061   4062   4066     1  0.0000000  0.6508444  3
   4065   4062   4067   4068     1  0.0000000  0.6508444  3
   4065   4062   4067   4069     1  0.0000000  0.6508444  3
   4065   4062   4067   4070     1  0.0000000  0.6508444  3
   4066   4062   4067   4068     1  0.0000000  0.6508444  3
   4066   4062   4067   4069     1  0.0000000  0.6508444  3
   4066   4062   4067   4070     1  0.0000000  0.6508444  3
   4071   4073   4074   4077     1  0.0000000  0.6508444  3
   4071   4073   4074   4078     1  0.0000000  0.6508444  3
   4072   4071   4073   4074     1  0.0000000  0.0000000  2
   4072   4071   4073   4075     1  0.0000000  0.0000000  2
   4072   4071   4073   4076     1  0.0000000  0.0000000  2
   4073   4074   4079   4080     1  0.0000000  0.6508444  3
   4073   4074   4079   4081     1  0.0000000  0.6508444  3
   4073   4074   4079   4082     1  0.0000000  0.6508444  3
   4075   4073   4074   4079     1  0.0000000  0.6508444  3
   4075   4073   4074   4077     1  0.0000000  0.6508444  3
   4075   4073   4074   4078     1  0.0000000  0.6508444  3
   4076   4073   4074   4079     1  0.0000000  0.6508444  3
   4076   4073   4074   4077     1  0.0000000  0.6508444  3
   4076   4073   4074   4078     1  0.0000000  0.6508444  3
   4077   4074   4079   4080     1  0.0000000  0.6508444  3
   4077   4074   4079   4081     1  0.0000000  0.6508444  3
   4077   4074   4079   4082     1  0.0000000  0.6508444  3
   4078   4074   4079   4080     1  0.0000000  0.6508444  3
   4078   4074   4079   4081     1  0.0000000  0.6508444  3
   4078   4074   4079   4082     1  0.0000000  0.6508444  3
   4083   4085   4086   4089     1  0.0000000  0.6508444  3
   4083   4085   4086   4090     1  0.0000000  0.6508444  3
   4084   4083   4085   4086     1  0.0000000  0.0000000  2
   4084   4083   4085   4087     1  0.0000000  0.0000000  2
   4084   4083   4085   4088     1  0.0000000  0.0000000  2
   4085   4086   4091   4092     1  0.0000000  0.6508444  3
   4085   4086   4091   4093     1  0.0000000  0.6508444  3
   4085   4086   4091   4094     1  0.0000000  0.6508444  3
   4087   4085   4086   4091     1  0.0000000  0.6508444  3
   4087   4085   4086   4089     1  0.0000000  0.6508444  3
   4087   4085   4086   4090     1  0.0000000  0.6508444  3
   4088   4085   4086   4091     1  0.0000000  0.6508444  3
   4088   4085   4086   4089     1  0.0000000  0.6508444  3
   4088   4085   4086   4090     1  0.0000000  0.6508444  3
   4089   4086   4091   4092     1  0.0000000  0.6508444  3
   4089   4086   4091   4093     1  0.0000000  0.6508444  3
   4089   4086   4091   4094     1  0.0000000  0.6508444  3
   4090   4086   4091   4092     1  0.0000000  0.6508444  3
   4090   4086   4091   4093     1  0.0000000  0.6508444  3
   4090   4086   4091   4094     1  0.0000000  0.6508444  3
   4095   4097   4098   4101     1  0.0000000  0.6508444  3
   4095   4097   4098   4102     1  0.0000000  0.6508444  3
   4096   4095   4097   4098     1  0.0000000  0.0000000  2
   4096   4095   4097   4099     1  0.0000000  0.0000000  2
   4096   4095   4097   4100     1  0.0000000  0.0000000  2
   4097   4098   4103   4104     1  0.0000000  0.6508444  3
   4097   4098   4103   4105     1  0.0000000  0.6508444  3
   4097   4098   4103   4106     1  0.0000000  0.6508444  3
   4099   4097   4098   4103     1  0.0000000  0.6508444  3
   4099   4097   4098   4101     1  0.0000000  0.6508444  3
   4099   4097   4098   4102     1  0.0000000  0.6508444  3
   4100   4097   4098   4103     1  0.0000000  0.6508444  3
   4100   4097   4098   4101     1  0.0000000  0.6508444  3
   4100   4097   4098   4102     1  0.0000000  0.6508444  3
   4101   4098   4103   4104     1  0.0000000  0.6508444  3
   4101   4098   4103   4105     1  0.0000000  0.6508444  3
   4101   4098   4103   4106     1  0.0000000  0.6508444  3
   4102   4098   4103   4104     1  0.0000000  0.6508444  3
   4102   4098   4103   4105     1  0.0000000  0.6508444  3
   4102   4098   4103   4106     1  0.0000000  0.6508444  3
   4107   4109   4110   4113     1  0.0000000  0.6508444  3
   4107   4109   4110   4114     1  0.0000000  0.6508444  3
   4108   4107   4109   4110     1  0.0000000  0.0000000  2
   4108   4107   4109   4111     1  0.0000000  0.0000000  2
   4108   4107   4109   4112     1  0.0000000  0.0000000  2
   4109   4110   4115   4116     1  0.0000000  0.6508444  3
   4109   4110   4115   4117     1  0.0000000  0.6508444  3
   4109   4110   4115   4118     1  0.0000000  0.6508444  3
   4111   4109   4110   4115     1  0.0000000  0.6508444  3
   4111   4109   4110   4113     1  0.0000000  0.6508444  3
   4111   4109   4110   4114     1  0.0000000  0.6508444  3
   4112   4109   4110   4115     1  0.0000000  0.6508444  3
   4112   4109   4110   4113     1  0.0000000  0.6508444  3
   4112   4109   4110   4114     1  0.0000000  0.6508444  3
   4113   4110   4115   4116     1  0.0000000  0.6508444  3
   4113   4110   4115   4117     1  0.0000000  0.6508444  3
   4113   4110   4115   4118     1  0.0000000  0.6508444  3
   4114   4110   4115   4116     1  0.0000000  0.6508444  3
   4114   4110   4115   4117     1  0.0000000  0.6508444  3
   4114   4110   4115   4118     1  0.0000000  0.6508444  3
   4119   4121   4122   4125     1  0.0000000  0.6508444  3
   4119   4121   4122   4126     1  0.0000000  0.6508444  3
   4120   4119   4121   4122     1  0.0000000  0.0000000  2
   4120   4119   4121   4123     1  0.0000000  0.0000000  2
   4120   4119   4121   4124     1  0.0000000  0.0000000  2
   4121   4122   4127   4128     1  0.0000000  0.6508444  3
   4121   4122   4127   4129     1  0.0000000  0.6508444  3
   4121   4122   4127   4130     1  0.0000000  0.6508444  3
   4123   4121   4122   4127     1  0.0000000  0.6508444  3
   4123   4121   4122   4125     1  0.0000000  0.6508444  3
   4123   4121   4122   4126     1  0.0000000  0.6508444  3
   4124   4121   4122   4127     1  0.0000000  0.6508444  3
   4124   4121   4122   4125     1  0.0000000  0.6508444  3
   4124   4121   4122   4126     1  0.0000000  0.6508444  3
   4125   4122   4127   4128     1  0.0000000  0.6508444  3
   4125   4122   4127   4129     1  0.0000000  0.6508444  3
   4125   4122   4127   4130     1  0.0000000  0.6508444  3
   4126   4122   4127   4128     1  0.0000000  0.6508444  3
   4126   4122   4127   4129     1  0.0000000  0.6508444  3
   4126   4122   4127   4130     1  0.0000000  0.6508444  3
   4131   4133   4134   4137     1  0.0000000  0.6508444  3
   4131   4133   4134   4138     1  0.0000000  0.6508444  3
   4132   4131   4133   4134     1  0.0000000  0.0000000  2
   4132   4131   4133   4135     1  0.0000000  0.0000000  2
   4132   4131   4133   4136     1  0.0000000  0.0000000  2
   4133   4134   4139   4140     1  0.0000000  0.6508444  3
   4133   4134   4139   4141     1  0.0000000  0.6508444  3
   4133   4134   4139   4142     1  0.0000000  0.6508444  3
   4135   4133   4134   4139     1  0.0000000  0.6508444  3
   4135   4133   4134   4137     1  0.0000000  0.6508444  3
   4135   4133   4134   4138     1  0.0000000  0.6508444  3
   4136   4133   4134   4139     1  0.0000000  0.6508444  3
   4136   4133   4134   4137     1  0.0000000  0.6508444  3
   4136   4133   4134   4138     1  0.0000000  0.6508444  3
   4137   4134   4139   4140     1  0.0000000  0.6508444  3
   4137   4134   4139   4141     1  0.0000000  0.6508444  3
   4137   4134   4139   4142     1  0.0000000  0.6508444  3
   4138   4134   4139   4140     1  0.0000000  0.6508444  3
   4138   4134   4139   4141     1  0.0000000  0.6508444  3
   4138   4134   4139   4142     1  0.0000000  0.6508444  3
   4143   4145   4146   4149     1  0.0000000  0.6508444  3
   4143   4145   4146   4150     1  0.0000000  0.6508444  3
   4144   4143   4145   4146     1  0.0000000  0.0000000  2
   4144   4143   4145   4147     1  0.0000000  0.0000000  2
   4144   4143   4145   4148     1  0.0000000  0.0000000  2
   4145   4146   4151   4152     1  0.0000000  0.6508444  3
   4145   4146   4151   4153     1  0.0000000  0.6508444  3
   4145   4146   4151   4154     1  0.0000000  0.6508444  3
   4147   4145   4146   4151     1  0.0000000  0.6508444  3
   4147   4145   4146   4149     1  0.0000000  0.6508444  3
   4147   4145   4146   4150     1  0.0000000  0.6508444  3
   4148   4145   4146   4151     1  0.0000000  0.6508444  3
   4148   4145   4146   4149     1  0.0000000  0.6508444  3
   4148   4145   4146   4150     1  0.0000000  0.6508444  3
   4149   4146   4151   4152     1  0.0000000  0.6508444  3
   4149   4146   4151   4153     1  0.0000000  0.6508444  3
   4149   4146   4151   4154     1  0.0000000  0.6508444  3
   4150   4146   4151   4152     1  0.0000000  0.6508444  3
   4150   4146   4151   4153     1  0.0000000  0.6508444  3
   4150   4146   4151   4154     1  0.0000000  0.6508444  3
   4155   4157   4158   4161     1  0.0000000  0.6508444  3
   4155   4157   4158   4162     1  0.0000000  0.6508444  3
   4156   4155   4157   4158     1  0.0000000  0.0000000  2
   4156   4155   4157   4159     1  0.0000000  0.0000000  2
   4156   4155   4157   4160     1  0.0000000  0.0000000  2
   4157   4158   4163   4164     1  0.0000000  0.6508444  3
   4157   4158   4163   4165     1  0.0000000  0.6508444  3
   4157   4158   4163   4166     1  0.0000000  0.6508444  3
   4159   4157   4158   4163     1  0.0000000  0.6508444  3
   4159   4157   4158   4161     1  0.0000000  0.6508444  3
   4159   4157   4158   4162     1  0.0000000  0.6508444  3
   4160   4157   4158   4163     1  0.0000000  0.6508444  3
   4160   4157   4158   4161     1  0.0000000  0.6508444  3
   4160   4157   4158   4162     1  0.0000000  0.6508444  3
   4161   4158   4163   4164     1  0.0000000  0.6508444  3
   4161   4158   4163   4165     1  0.0000000  0.6508444  3
   4161   4158   4163   4166     1  0.0000000  0.6508444  3
   4162   4158   4163   4164     1  0.0000000  0.6508444  3
   4162   4158   4163   4165     1  0.0000000  0.6508444  3
   4162   4158   4163   4166     1  0.0000000  0.6508444  3
   4167   4169   4170   4173     1  0.0000000  0.6508444  3
   4167   4169   4170   4174     1  0.0000000  0.6508444  3
   4168   4167   4169   4170     1  0.0000000  0.0000000  2
   4168   4167   4169   4171     1  0.0000000  0.0000000  2
   4168   4167   4169   4172     1  0.0000000  0.0000000  2
   4169   4170   4175   4176     1  0.0000000  0.6508444  3
   4169   4170   4175   4177     1  0.0000000  0.6508444  3
   4169   4170   4175   4178     1  0.0000000  0.6508444  3
   4171   4169   4170   4175     1  0.0000000  0.6508444  3
   4171   4169   4170   4173     1  0.0000000  0.6508444  3
   4171   4169   4170   4174     1  0.0000000  0.6508444  3
   4172   4169   4170   4175     1  0.0000000  0.6508444  3
   4172   4169   4170   4173     1  0.0000000  0.6508444  3
   4172   4169   4170   4174     1  0.0000000  0.6508444  3
   4173   4170   4175   4176     1  0.0000000  0.6508444  3
   4173   4170   4175   4177     1  0.0000000  0.6508444  3
   4173   4170   4175   4178     1  0.0000000  0.6508444  3
   4174   4170   4175   4176     1  0.0000000  0.6508444  3
   4174   4170   4175   4177     1  0.0000000  0.6508444  3
   4174   4170   4175   4178     1  0.0000000  0.6508444  3
   4179   4181   4182   4185     1  0.0000000  0.6508444  3
   4179   4181   4182   4186     1  0.0000000  0.6508444  3
   4180   4179   4181   4182     1  0.0000000  0.0000000  2
   4180   4179   4181   4183     1  0.0000000  0.0000000  2
   4180   4179   4181   4184     1  0.0000000  0.0000000  2
   4181   4182   4187   4188     1  0.0000000  0.6508444  3
   4181   4182   4187   4189     1  0.0000000  0.6508444  3
   4181   4182   4187   4190     1  0.0000000  0.6508444  3
   4183   4181   4182   4187     1  0.0000000  0.6508444  3
   4183   4181   4182   4185     1  0.0000000  0.6508444  3
   4183   4181   4182   4186     1  0.0000000  0.6508444  3
   4184   4181   4182   4187     1  0.0000000  0.6508444  3
   4184   4181   4182   4185     1  0.0000000  0.6508444  3
   4184   4181   4182   4186     1  0.0000000  0.6508444  3
   4185   4182   4187   4188     1  0.0000000  0.6508444  3
   4185   4182   4187   4189     1  0.0000000  0.6508444  3
   4185   4182   4187   4190     1  0.0000000  0.6508444  3
   4186   4182   4187   4188     1  0.0000000  0.6508444  3
   4186   4182   4187   4189     1  0.0000000  0.6508444  3
   4186   4182   4187   4190     1  0.0000000  0.6508444  3
   4191   4193   4194   4197     1  0.0000000  0.6508444  3
   4191   4193   4194   4198     1  0.0000000  0.6508444  3
   4192   4191   4193   4194     1  0.0000000  0.0000000  2
   4192   4191   4193   4195     1  0.0000000  0.0000000  2
   4192   4191   4193   4196     1  0.0000000  0.0000000  2
   4193   4194   4199   4200     1  0.0000000  0.6508444  3
   4193   4194   4199   4201     1  0.0000000  0.6508444  3
   4193   4194   4199   4202     1  0.0000000  0.6508444  3
   4195   4193   4194   4199     1  0.0000000  0.6508444  3
   4195   4193   4194   4197     1  0.0000000  0.6508444  3
   4195   4193   4194   4198     1  0.0000000  0.6508444  3
   4196   4193   4194   4199     1  0.0000000  0.6508444  3
   4196   4193   4194   4197     1  0.0000000  0.6508444  3
   4196   4193   4194   4198     1  0.0000000  0.6508444  3
   4197   4194   4199   4200     1  0.0000000  0.6508444  3
   4197   4194   4199   4201     1  0.0000000  0.6508444  3
   4197   4194   4199   4202     1  0.0000000  0.6508444  3
   4198   4194   4199   4200     1  0.0000000  0.6508444  3
   4198   4194   4199   4201     1  0.0000000  0.6508444  3
   4198   4194   4199   4202     1  0.0000000  0.6508444  3
   4203   4205   4206   4209     1  0.0000000  0.6508444  3
   4203   4205   4206   4210     1  0.0000000  0.6508444  3
   4204   4203   4205   4206     1  0.0000000  0.0000000  2
   4204   4203   4205   4207     1  0.0000000  0.0000000  2
   4204   4203   4205   4208     1  0.0000000  0.0000000  2
   4205   4206   4211   4212     1  0.0000000  0.6508444  3
   4205   4206   4211   4213     1  0.0000000  0.6508444  3
   4205   4206   4211   4214     1  0.0000000  0.6508444  3
   4207   4205   4206   4211     1  0.0000000  0.6508444  3
   4207   4205   4206   4209     1  0.0000000  0.6508444  3
   4207   4205   4206   4210     1  0.0000000  0.6508444  3
   4208   4205   4206   4211     1  0.0000000  0.6508444  3
   4208   4205   4206   4209     1  0.0000000  0.6508444  3
   4208   4205   4206   4210     1  0.0000000  0.6508444  3
   4209   4206   4211   4212     1  0.0000000  0.6508444  3
   4209   4206   4211   4213     1  0.0000000  0.6508444  3
   4209   4206   4211   4214     1  0.0000000  0.6508444  3
   4210   4206   4211   4212     1  0.0000000  0.6508444  3
   4210   4206   4211   4213     1  0.0000000  0.6508444  3
   4210   4206   4211   4214     1  0.0000000  0.6508444  3
   4215   4217   4218   4221     1  0.0000000  0.6508444  3
   4215   4217   4218   4222     1  0.0000000  0.6508444  3
   4216   4215   4217   4218     1  0.0000000  0.0000000  2
   4216   4215   4217   4219     1  0.0000000  0.0000000  2
   4216   4215   4217   4220     1  0.0000000  0.0000000  2
   4217   4218   4223   4224     1  0.0000000  0.6508444  3
   4217   4218   4223   4225     1  0.0000000  0.6508444  3
   4217   4218   4223   4226     1  0.0000000  0.6508444  3
   4219   4217   4218   4223     1  0.0000000  0.6508444  3
   4219   4217   4218   4221     1  0.0000000  0.6508444  3
   4219   4217   4218   4222     1  0.0000000  0.6508444  3
   4220   4217   4218   4223     1  0.0000000  0.6508444  3
   4220   4217   4218   4221     1  0.0000000  0.6508444  3
   4220   4217   4218   4222     1  0.0000000  0.6508444  3
   4221   4218   4223   4224     1  0.0000000  0.6508444  3
   4221   4218   4223   4225     1  0.0000000  0.6508444  3
   4221   4218   4223   4226     1  0.0000000  0.6508444  3
   4222   4218   4223   4224     1  0.0000000  0.6508444  3
   4222   4218   4223   4225     1  0.0000000  0.6508444  3
   4222   4218   4223   4226     1  0.0000000  0.6508444  3
   4227   4229   4230   4233     1  0.0000000  0.6508444  3
   4227   4229   4230   4234     1  0.0000000  0.6508444  3
   4228   4227   4229   4230     1  0.0000000  0.0000000  2
   4228   4227   4229   4231     1  0.0000000  0.0000000  2
   4228   4227   4229   4232     1  0.0000000  0.0000000  2
   4229   4230   4235   4236     1  0.0000000  0.6508444  3
   4229   4230   4235   4237     1  0.0000000  0.6508444  3
   4229   4230   4235   4238     1  0.0000000  0.6508444  3
   4231   4229   4230   4235     1  0.0000000  0.6508444  3
   4231   4229   4230   4233     1  0.0000000  0.6508444  3
   4231   4229   4230   4234     1  0.0000000  0.6508444  3
   4232   4229   4230   4235     1  0.0000000  0.6508444  3
   4232   4229   4230   4233     1  0.0000000  0.6508444  3
   4232   4229   4230   4234     1  0.0000000  0.6508444  3
   4233   4230   4235   4236     1  0.0000000  0.6508444  3
   4233   4230   4235   4237     1  0.0000000  0.6508444  3
   4233   4230   4235   4238     1  0.0000000  0.6508444  3
   4234   4230   4235   4236     1  0.0000000  0.6508444  3
   4234   4230   4235   4237     1  0.0000000  0.6508444  3
   4234   4230   4235   4238     1  0.0000000  0.6508444  3
   4239   4241   4242   4245     1  0.0000000  0.6508444  3
   4239   4241   4242   4246     1  0.0000000  0.6508444  3
   4240   4239   4241   4242     1  0.0000000  0.0000000  2
   4240   4239   4241   4243     1  0.0000000  0.0000000  2
   4240   4239   4241   4244     1  0.0000000  0.0000000  2
   4241   4242   4247   4248     1  0.0000000  0.6508444  3
   4241   4242   4247   4249     1  0.0000000  0.6508444  3
   4241   4242   4247   4250     1  0.0000000  0.6508444  3
   4243   4241   4242   4247     1  0.0000000  0.6508444  3
   4243   4241   4242   4245     1  0.0000000  0.6508444  3
   4243   4241   4242   4246     1  0.0000000  0.6508444  3
   4244   4241   4242   4247     1  0.0000000  0.6508444  3
   4244   4241   4242   4245     1  0.0000000  0.6508444  3
   4244   4241   4242   4246     1  0.0000000  0.6508444  3
   4245   4242   4247   4248     1  0.0000000  0.6508444  3
   4245   4242   4247   4249     1  0.0000000  0.6508444  3
   4245   4242   4247   4250     1  0.0000000  0.6508444  3
   4246   4242   4247   4248     1  0.0000000  0.6508444  3
   4246   4242   4247   4249     1  0.0000000  0.6508444  3
   4246   4242   4247   4250     1  0.0000000  0.6508444  3
   4251   4253   4254   4257     1  0.0000000  0.6508444  3
   4251   4253   4254   4258     1  0.0000000  0.6508444  3
   4252   4251   4253   4254     1  0.0000000  0.0000000  2
   4252   4251   4253   4255     1  0.0000000  0.0000000  2
   4252   4251   4253   4256     1  0.0000000  0.0000000  2
   4253   4254   4259   4260     1  0.0000000  0.6508444  3
   4253   4254   4259   4261     1  0.0000000  0.6508444  3
   4253   4254   4259   4262     1  0.0000000  0.6508444  3
   4255   4253   4254   4259     1  0.0000000  0.6508444  3
   4255   4253   4254   4257     1  0.0000000  0.6508444  3
   4255   4253   4254   4258     1  0.0000000  0.6508444  3
   4256   4253   4254   4259     1  0.0000000  0.6508444  3
   4256   4253   4254   4257     1  0.0000000  0.6508444  3
   4256   4253   4254   4258     1  0.0000000  0.6508444  3
   4257   4254   4259   4260     1  0.0000000  0.6508444  3
   4257   4254   4259   4261     1  0.0000000  0.6508444  3
   4257   4254   4259   4262     1  0.0000000  0.6508444  3
   4258   4254   4259   4260     1  0.0000000  0.6508444  3
   4258   4254   4259   4261     1  0.0000000  0.6508444  3
   4258   4254   4259   4262     1  0.0000000  0.6508444  3
   4263   4265   4266   4269     1  0.0000000  0.6508444  3
   4263   4265   4266   4270     1  0.0000000  0.6508444  3
   4264   4263   4265   4266     1  0.0000000  0.0000000  2
   4264   4263   4265   4267     1  0.0000000  0.0000000  2
   4264   4263   4265   4268     1  0.0000000  0.0000000  2
   4265   4266   4271   4272     1  0.0000000  0.6508444  3
   4265   4266   4271   4273     1  0.0000000  0.6508444  3
   4265   4266   4271   4274     1  0.0000000  0.6508444  3
   4267   4265   4266   4271     1  0.0000000  0.6508444  3
   4267   4265   4266   4269     1  0.0000000  0.6508444  3
   4267   4265   4266   4270     1  0.0000000  0.6508444  3
   4268   4265   4266   4271     1  0.0000000  0.6508444  3
   4268   4265   4266   4269     1  0.0000000  0.6508444  3
   4268   4265   4266   4270     1  0.0000000  0.6508444  3
   4269   4266   4271   4272     1  0.0000000  0.6508444  3
   4269   4266   4271   4273     1  0.0000000  0.6508444  3
   4269   4266   4271   4274     1  0.0000000  0.6508444  3
   4270   4266   4271   4272     1  0.0000000  0.6508444  3
   4270   4266   4271   4273     1  0.0000000  0.6508444  3
   4270   4266   4271   4274     1  0.0000000  0.6508444  3
   4275   4277   4278   4281     1  0.0000000  0.6508444  3
   4275   4277   4278   4282     1  0.0000000  0.6508444  3
   4276   4275   4277   4278     1  0.0000000  0.0000000  2
   4276   4275   4277   4279     1  0.0000000  0.0000000  2
   4276   4275   4277   4280     1  0.0000000  0.0000000  2
   4277   4278   4283   4284     1  0.0000000  0.6508444  3
   4277   4278   4283   4285     1  0.0000000  0.6508444  3
   4277   4278   4283   4286     1  0.0000000  0.6508444  3
   4279   4277   4278   4283     1  0.0000000  0.6508444  3
   4279   4277   4278   4281     1  0.0000000  0.6508444  3
   4279   4277   4278   4282     1  0.0000000  0.6508444  3
   4280   4277   4278   4283     1  0.0000000  0.6508444  3
   4280   4277   4278   4281     1  0.0000000  0.6508444  3
   4280   4277   4278   4282     1  0.0000000  0.6508444  3
   4281   4278   4283   4284     1  0.0000000  0.6508444  3
   4281   4278   4283   4285     1  0.0000000  0.6508444  3
   4281   4278   4283   4286     1  0.0000000  0.6508444  3
   4282   4278   4283   4284     1  0.0000000  0.6508444  3
   4282   4278   4283   4285     1  0.0000000  0.6508444  3
   4282   4278   4283   4286     1  0.0000000  0.6508444  3
   4287   4289   4290   4293     1  0.0000000  0.6508444  3
   4287   4289   4290   4294     1  0.0000000  0.6508444  3
   4288   4287   4289   4290     1  0.0000000  0.0000000  2
   4288   4287   4289   4291     1  0.0000000  0.0000000  2
   4288   4287   4289   4292     1  0.0000000  0.0000000  2
   4289   4290   4295   4296     1  0.0000000  0.6508444  3
   4289   4290   4295   4297     1  0.0000000  0.6508444  3
   4289   4290   4295   4298     1  0.0000000  0.6508444  3
   4291   4289   4290   4295     1  0.0000000  0.6508444  3
   4291   4289   4290   4293     1  0.0000000  0.6508444  3
   4291   4289   4290   4294     1  0.0000000  0.6508444  3
   4292   4289   4290   4295     1  0.0000000  0.6508444  3
   4292   4289   4290   4293     1  0.0000000  0.6508444  3
   4292   4289   4290   4294     1  0.0000000  0.6508444  3
   4293   4290   4295   4296     1  0.0000000  0.6508444  3
   4293   4290   4295   4297     1  0.0000000  0.6508444  3
   4293   4290   4295   4298     1  0.0000000  0.6508444  3
   4294   4290   4295   4296     1  0.0000000  0.6508444  3
   4294   4290   4295   4297     1  0.0000000  0.6508444  3
   4294   4290   4295   4298     1  0.0000000  0.6508444  3
   4299   4301   4302   4305     1  0.0000000  0.6508444  3
   4299   4301   4302   4306     1  0.0000000  0.6508444  3
   4300   4299   4301   4302     1  0.0000000  0.0000000  2
   4300   4299   4301   4303     1  0.0000000  0.0000000  2
   4300   4299   4301   4304     1  0.0000000  0.0000000  2
   4301   4302   4307   4308     1  0.0000000  0.6508444  3
   4301   4302   4307   4309     1  0.0000000  0.6508444  3
   4301   4302   4307   4310     1  0.0000000  0.6508444  3
   4303   4301   4302   4307     1  0.0000000  0.6508444  3
   4303   4301   4302   4305     1  0.0000000  0.6508444  3
   4303   4301   4302   4306     1  0.0000000  0.6508444  3
   4304   4301   4302   4307     1  0.0000000  0.6508444  3
   4304   4301   4302   4305     1  0.0000000  0.6508444  3
   4304   4301   4302   4306     1  0.0000000  0.6508444  3
   4305   4302   4307   4308     1  0.0000000  0.6508444  3
   4305   4302   4307   4309     1  0.0000000  0.6508444  3
   4305   4302   4307   4310     1  0.0000000  0.6508444  3
   4306   4302   4307   4308     1  0.0000000  0.6508444  3
   4306   4302   4307   4309     1  0.0000000  0.6508444  3
   4306   4302   4307   4310     1  0.0000000  0.6508444  3
   4311   4313   4314   4317     1  0.0000000  0.6508444  3
   4311   4313   4314   4318     1  0.0000000  0.6508444  3
   4312   4311   4313   4314     1  0.0000000  0.0000000  2
   4312   4311   4313   4315     1  0.0000000  0.0000000  2
   4312   4311   4313   4316     1  0.0000000  0.0000000  2
   4313   4314   4319   4320     1  0.0000000  0.6508444  3
   4313   4314   4319   4321     1  0.0000000  0.6508444  3
   4313   4314   4319   4322     1  0.0000000  0.6508444  3
   4315   4313   4314   4319     1  0.0000000  0.6508444  3
   4315   4313   4314   4317     1  0.0000000  0.6508444  3
   4315   4313   4314   4318     1  0.0000000  0.6508444  3
   4316   4313   4314   4319     1  0.0000000  0.6508444  3
   4316   4313   4314   4317     1  0.0000000  0.6508444  3
   4316   4313   4314   4318     1  0.0000000  0.6508444  3
   4317   4314   4319   4320     1  0.0000000  0.6508444  3
   4317   4314   4319   4321     1  0.0000000  0.6508444  3
   4317   4314   4319   4322     1  0.0000000  0.6508444  3
   4318   4314   4319   4320     1  0.0000000  0.6508444  3
   4318   4314   4319   4321     1  0.0000000  0.6508444  3
   4318   4314   4319   4322     1  0.0000000  0.6508444  3
   4323   4325   4326   4329     1  0.0000000  0.6508444  3
   4323   4325   4326   4330     1  0.0000000  0.6508444  3
   4324   4323   4325   4326     1  0.0000000  0.0000000  2
   4324   4323   4325   4327     1  0.0000000  0.0000000  2
   4324   4323   4325   4328     1  0.0000000  0.0000000  2
   4325   4326   4331   4332     1  0.0000000  0.6508444  3
   4325   4326   4331   4333     1  0.0000000  0.6508444  3
   4325   4326   4331   4334     1  0.0000000  0.6508444  3
   4327   4325   4326   4331     1  0.0000000  0.6508444  3
   4327   4325   4326   4329     1  0.0000000  0.6508444  3
   4327   4325   4326   4330     1  0.0000000  0.6508444  3
   4328   4325   4326   4331     1  0.0000000  0.6508444  3
   4328   4325   4326   4329     1  0.0000000  0.6508444  3
   4328   4325   4326   4330     1  0.0000000  0.6508444  3
   4329   4326   4331   4332     1  0.0000000  0.6508444  3
   4329   4326   4331   4333     1  0.0000000  0.6508444  3
   4329   4326   4331   4334     1  0.0000000  0.6508444  3
   4330   4326   4331   4332     1  0.0000000  0.6508444  3
   4330   4326   4331   4333     1  0.0000000  0.6508444  3
   4330   4326   4331   4334     1  0.0000000  0.6508444  3
   4335   4337   4338   4341     1  0.0000000  0.6508444  3
   4335   4337   4338   4342     1  0.0000000  0.6508444  3
   4336   4335   4337   4338     1  0.0000000  0.0000000  2
   4336   4335   4337   4339     1  0.0000000  0.0000000  2
   4336   4335   4337   4340     1  0.0000000  0.0000000  2
   4337   4338   4343   4344     1  0.0000000  0.6508444  3
   4337   4338   4343   4345     1  0.0000000  0.6508444  3
   4337   4338   4343   4346     1  0.0000000  0.6508444  3
   4339   4337   4338   4343     1  0.0000000  0.6508444  3
   4339   4337   4338   4341     1  0.0000000  0.6508444  3
   4339   4337   4338   4342     1  0.0000000  0.6508444  3
   4340   4337   4338   4343     1  0.0000000  0.6508444  3
   4340   4337   4338   4341     1  0.0000000  0.6508444  3
   4340   4337   4338   4342     1  0.0000000  0.6508444  3
   4341   4338   4343   4344     1  0.0000000  0.6508444  3
   4341   4338   4343   4345     1  0.0000000  0.6508444  3
   4341   4338   4343   4346     1  0.0000000  0.6508444  3
   4342   4338   4343   4344     1  0.0000000  0.6508444  3
   4342   4338   4343   4345     1  0.0000000  0.6508444  3
   4342   4338   4343   4346     1  0.0000000  0.6508444  3
   4347   4349   4350   4353     1  0.0000000  0.6508444  3
   4347   4349   4350   4354     1  0.0000000  0.6508444  3
   4348   4347   4349   4350     1  0.0000000  0.0000000  2
   4348   4347   4349   4351     1  0.0000000  0.0000000  2
   4348   4347   4349   4352     1  0.0000000  0.0000000  2
   4349   4350   4355   4356     1  0.0000000  0.6508444  3
   4349   4350   4355   4357     1  0.0000000  0.6508444  3
   4349   4350   4355   4358     1  0.0000000  0.6508444  3
   4351   4349   4350   4355     1  0.0000000  0.6508444  3
   4351   4349   4350   4353     1  0.0000000  0.6508444  3
   4351   4349   4350   4354     1  0.0000000  0.6508444  3
   4352   4349   4350   4355     1  0.0000000  0.6508444  3
   4352   4349   4350   4353     1  0.0000000  0.6508444  3
   4352   4349   4350   4354     1  0.0000000  0.6508444  3
   4353   4350   4355   4356     1  0.0000000  0.6508444  3
   4353   4350   4355   4357     1  0.0000000  0.6508444  3
   4353   4350   4355   4358     1  0.0000000  0.6508444  3
   4354   4350   4355   4356     1  0.0000000  0.6508444  3
   4354   4350   4355   4357     1  0.0000000  0.6508444  3
   4354   4350   4355   4358     1  0.0000000  0.6508444  3
   4359   4361   4362   4365     1  0.0000000  0.6508444  3
   4359   4361   4362   4366     1  0.0000000  0.6508444  3
   4360   4359   4361   4362     1  0.0000000  0.0000000  2
   4360   4359   4361   4363     1  0.0000000  0.0000000  2
   4360   4359   4361   4364     1  0.0000000  0.0000000  2
   4361   4362   4367   4368     1  0.0000000  0.6508444  3
   4361   4362   4367   4369     1  0.0000000  0.6508444  3
   4361   4362   4367   4370     1  0.0000000  0.6508444  3
   4363   4361   4362   4367     1  0.0000000  0.6508444  3
   4363   4361   4362   4365     1  0.0000000  0.6508444  3
   4363   4361   4362   4366     1  0.0000000  0.6508444  3
   4364   4361   4362   4367     1  0.0000000  0.6508444  3
   4364   4361   4362   4365     1  0.0000000  0.6508444  3
   4364   4361   4362   4366     1  0.0000000  0.6508444  3
   4365   4362   4367   4368     1  0.0000000  0.6508444  3
   4365   4362   4367   4369     1  0.0000000  0.6508444  3
   4365   4362   4367   4370     1  0.0000000  0.6508444  3
   4366   4362   4367   4368     1  0.0000000  0.6508444  3
   4366   4362   4367   4369     1  0.0000000  0.6508444  3
   4366   4362   4367   4370     1  0.0000000  0.6508444  3
   4371   4373   4374   4377     1  0.0000000  0.6508444  3
   4371   4373   4374   4378     1  0.0000000  0.6508444  3
   4372   4371   4373   4374     1  0.0000000  0.0000000  2
   4372   4371   4373   4375     1  0.0000000  0.0000000  2
   4372   4371   4373   4376     1  0.0000000  0.0000000  2
   4373   4374   4379   4380     1  0.0000000  0.6508444  3
   4373   4374   4379   4381     1  0.0000000  0.6508444  3
   4373   4374   4379   4382     1  0.0000000  0.6508444  3
   4375   4373   4374   4379     1  0.0000000  0.6508444  3
   4375   4373   4374   4377     1  0.0000000  0.6508444  3
   4375   4373   4374   4378     1  0.0000000  0.6508444  3
   4376   4373   4374   4379     1  0.0000000  0.6508444  3
   4376   4373   4374   4377     1  0.0000000  0.6508444  3
   4376   4373   4374   4378     1  0.0000000  0.6508444  3
   4377   4374   4379   4380     1  0.0000000  0.6508444  3
   4377   4374   4379   4381     1  0.0000000  0.6508444  3
   4377   4374   4379   4382     1  0.0000000  0.6508444  3
   4378   4374   4379   4380     1  0.0000000  0.6508444  3
   4378   4374   4379   4381     1  0.0000000  0.6508444  3
   4378   4374   4379   4382     1  0.0000000  0.6508444  3
   4383   4385   4386   4389     1  0.0000000  0.6508444  3
   4383   4385   4386   4390     1  0.0000000  0.6508444  3
   4384   4383   4385   4386     1  0.0000000  0.0000000  2
   4384   4383   4385   4387     1  0.0000000  0.0000000  2
   4384   4383   4385   4388     1  0.0000000  0.0000000  2
   4385   4386   4391   4392     1  0.0000000  0.6508444  3
   4385   4386   4391   4393     1  0.0000000  0.6508444  3
   4385   4386   4391   4394     1  0.0000000  0.6508444  3
   4387   4385   4386   4391     1  0.0000000  0.6508444  3
   4387   4385   4386   4389     1  0.0000000  0.6508444  3
   4387   4385   4386   4390     1  0.0000000  0.6508444  3
   4388   4385   4386   4391     1  0.0000000  0.6508444  3
   4388   4385   4386   4389     1  0.0000000  0.6508444  3
   4388   4385   4386   4390     1  0.0000000  0.6508444  3
   4389   4386   4391   4392     1  0.0000000  0.6508444  3
   4389   4386   4391   4393     1  0.0000000  0.6508444  3
   4389   4386   4391   4394     1  0.0000000  0.6508444  3
   4390   4386   4391   4392     1  0.0000000  0.6508444  3
   4390   4386   4391   4393     1  0.0000000  0.6508444  3
   4390   4386   4391   4394     1  0.0000000  0.6508444  3
   4395   4397   4398   4401     1  0.0000000  0.6508444  3
   4395   4397   4398   4402     1  0.0000000  0.6508444  3
   4396   4395   4397   4398     1  0.0000000  0.0000000  2
   4396   4395   4397   4399     1  0.0000000  0.0000000  2
   4396   4395   4397   4400     1  0.0000000  0.0000000  2
   4397   4398   4403   4404     1  0.0000000  0.6508444  3
   4397   4398   4403   4405     1  0.0000000  0.6508444  3
   4397   4398   4403   4406     1  0.0000000  0.6508444  3
   4399   4397   4398   4403     1  0.0000000  0.6508444  3
   4399   4397   4398   4401     1  0.0000000  0.6508444  3
   4399   4397   4398   4402     1  0.0000000  0.6508444  3
   4400   4397   4398   4403     1  0.0000000  0.6508444  3
   4400   4397   4398   4401     1  0.0000000  0.6508444  3
   4400   4397   4398   4402     1  0.0000000  0.6508444  3
   4401   4398   4403   4404     1  0.0000000  0.6508444  3
   4401   4398   4403   4405     1  0.0000000  0.6508444  3
   4401   4398   4403   4406     1  0.0000000  0.6508444  3
   4402   4398   4403   4404     1  0.0000000  0.6508444  3
   4402   4398   4403   4405     1  0.0000000  0.6508444  3
   4402   4398   4403   4406     1  0.0000000  0.6508444  3
   4407   4409   4410   4413     1  0.0000000  0.6508444  3
   4407   4409   4410   4414     1  0.0000000  0.6508444  3
   4408   4407   4409   4410     1  0.0000000  0.0000000  2
   4408   4407   4409   4411     1  0.0000000  0.0000000  2
   4408   4407   4409   4412     1  0.0000000  0.0000000  2
   4409   4410   4415   4416     1  0.0000000  0.6508444  3
   4409   4410   4415   4417     1  0.0000000  0.6508444  3
   4409   4410   4415   4418     1  0.0000000  0.6508444  3
   4411   4409   4410   4415     1  0.0000000  0.6508444  3
   4411   4409   4410   4413     1  0.0000000  0.6508444  3
   4411   4409   4410   4414     1  0.0000000  0.6508444  3
   4412   4409   4410   4415     1  0.0000000  0.6508444  3
   4412   4409   4410   4413     1  0.0000000  0.6508444  3
   4412   4409   4410   4414     1  0.0000000  0.6508444  3
   4413   4410   4415   4416     1  0.0000000  0.6508444  3
   4413   4410   4415   4417     1  0.0000000  0.6508444  3
   4413   4410   4415   4418     1  0.0000000  0.6508444  3
   4414   4410   4415   4416     1  0.0000000  0.6508444  3
   4414   4410   4415   4417     1  0.0000000  0.6508444  3
   4414   4410   4415   4418     1  0.0000000  0.6508444  3
   4419   4421   4422   4425     1  0.0000000  0.6508444  3
   4419   4421   4422   4426     1  0.0000000  0.6508444  3
   4420   4419   4421   4422     1  0.0000000  0.0000000  2
   4420   4419   4421   4423     1  0.0000000  0.0000000  2
   4420   4419   4421   4424     1  0.0000000  0.0000000  2
   4421   4422   4427   4428     1  0.0000000  0.6508444  3
   4421   4422   4427   4429     1  0.0000000  0.6508444  3
   4421   4422   4427   4430     1  0.0000000  0.6508444  3
   4423   4421   4422   4427     1  0.0000000  0.6508444  3
   4423   4421   4422   4425     1  0.0000000  0.6508444  3
   4423   4421   4422   4426     1  0.0000000  0.6508444  3
   4424   4421   4422   4427     1  0.0000000  0.6508444  3
   4424   4421   4422   4425     1  0.0000000  0.6508444  3
   4424   4421   4422   4426     1  0.0000000  0.6508444  3
   4425   4422   4427   4428     1  0.0000000  0.6508444  3
   4425   4422   4427   4429     1  0.0000000  0.6508444  3
   4425   4422   4427   4430     1  0.0000000  0.6508444  3
   4426   4422   4427   4428     1  0.0000000  0.6508444  3
   4426   4422   4427   4429     1  0.0000000  0.6508444  3
   4426   4422   4427   4430     1  0.0000000  0.6508444  3
   4431   4433   4434   4437     1  0.0000000  0.6508444  3
   4431   4433   4434   4438     1  0.0000000  0.6508444  3
   4432   4431   4433   4434     1  0.0000000  0.0000000  2
   4432   4431   4433   4435     1  0.0000000  0.0000000  2
   4432   4431   4433   4436     1  0.0000000  0.0000000  2
   4433   4434   4439   4440     1  0.0000000  0.6508444  3
   4433   4434   4439   4441     1  0.0000000  0.6508444  3
   4433   4434   4439   4442     1  0.0000000  0.6508444  3
   4435   4433   4434   4439     1  0.0000000  0.6508444  3
   4435   4433   4434   4437     1  0.0000000  0.6508444  3
   4435   4433   4434   4438     1  0.0000000  0.6508444  3
   4436   4433   4434   4439     1  0.0000000  0.6508444  3
   4436   4433   4434   4437     1  0.0000000  0.6508444  3
   4436   4433   4434   4438     1  0.0000000  0.6508444  3
   4437   4434   4439   4440     1  0.0000000  0.6508444  3
   4437   4434   4439   4441     1  0.0000000  0.6508444  3
   4437   4434   4439   4442     1  0.0000000  0.6508444  3
   4438   4434   4439   4440     1  0.0000000  0.6508444  3
   4438   4434   4439   4441     1  0.0000000  0.6508444  3
   4438   4434   4439   4442     1  0.0000000  0.6508444  3
   4443   4445   4446   4449     1  0.0000000  0.6508444  3
   4443   4445   4446   4450     1  0.0000000  0.6508444  3
   4444   4443   4445   4446     1  0.0000000  0.0000000  2
   4444   4443   4445   4447     1  0.0000000  0.0000000  2
   4444   4443   4445   4448     1  0.0000000  0.0000000  2
   4445   4446   4451   4452     1  0.0000000  0.6508444  3
   4445   4446   4451   4453     1  0.0000000  0.6508444  3
   4445   4446   4451   4454     1  0.0000000  0.6508444  3
   4447   4445   4446   4451     1  0.0000000  0.6508444  3
   4447   4445   4446   4449     1  0.0000000  0.6508444  3
   4447   4445   4446   4450     1  0.0000000  0.6508444  3
   4448   4445   4446   4451     1  0.0000000  0.6508444  3
   4448   4445   4446   4449     1  0.0000000  0.6508444  3
   4448   4445   4446   4450     1  0.0000000  0.6508444  3
   4449   4446   4451   4452     1  0.0000000  0.6508444  3
   4449   4446   4451   4453     1  0.0000000  0.6508444  3
   4449   4446   4451   4454     1  0.0000000  0.6508444  3
   4450   4446   4451   4452     1  0.0000000  0.6508444  3
   4450   4446   4451   4453     1  0.0000000  0.6508444  3
   4450   4446   4451   4454     1  0.0000000  0.6508444  3
   4455   4457   4458   4461     1  0.0000000  0.6508444  3
   4455   4457   4458   4462     1  0.0000000  0.6508444  3
   4456   4455   4457   4458     1  0.0000000  0.0000000  2
   4456   4455   4457   4459     1  0.0000000  0.0000000  2
   4456   4455   4457   4460     1  0.0000000  0.0000000  2
   4457   4458   4463   4464     1  0.0000000  0.6508444  3
   4457   4458   4463   4465     1  0.0000000  0.6508444  3
   4457   4458   4463   4466     1  0.0000000  0.6508444  3
   4459   4457   4458   4463     1  0.0000000  0.6508444  3
   4459   4457   4458   4461     1  0.0000000  0.6508444  3
   4459   4457   4458   4462     1  0.0000000  0.6508444  3
   4460   4457   4458   4463     1  0.0000000  0.6508444  3
   4460   4457   4458   4461     1  0.0000000  0.6508444  3
   4460   4457   4458   4462     1  0.0000000  0.6508444  3
   4461   4458   4463   4464     1  0.0000000  0.6508444  3
   4461   4458   4463   4465     1  0.0000000  0.6508444  3
   4461   4458   4463   4466     1  0.0000000  0.6508444  3
   4462   4458   4463   4464     1  0.0000000  0.6508444  3
   4462   4458   4463   4465     1  0.0000000  0.6508444  3
   4462   4458   4463   4466     1  0.0000000  0.6508444  3
   4467   4469   4470   4473     1  0.0000000  0.6508444  3
   4467   4469   4470   4474     1  0.0000000  0.6508444  3
   4468   4467   4469   4470     1  0.0000000  0.0000000  2
   4468   4467   4469   4471     1  0.0000000  0.0000000  2
   4468   4467   4469   4472     1  0.0000000  0.0000000  2
   4469   4470   4475   4476     1  0.0000000  0.6508444  3
   4469   4470   4475   4477     1  0.0000000  0.6508444  3
   4469   4470   4475   4478     1  0.0000000  0.6508444  3
   4471   4469   4470   4475     1  0.0000000  0.6508444  3
   4471   4469   4470   4473     1  0.0000000  0.6508444  3
   4471   4469   4470   4474     1  0.0000000  0.6508444  3
   4472   4469   4470   4475     1  0.0000000  0.6508444  3
   4472   4469   4470   4473     1  0.0000000  0.6508444  3
   4472   4469   4470   4474     1  0.0000000  0.6508444  3
   4473   4470   4475   4476     1  0.0000000  0.6508444  3
   4473   4470   4475   4477     1  0.0000000  0.6508444  3
   4473   4470   4475   4478     1  0.0000000  0.6508444  3
   4474   4470   4475   4476     1  0.0000000  0.6508444  3
   4474   4470   4475   4477     1  0.0000000  0.6508444  3
   4474   4470   4475   4478     1  0.0000000  0.6508444  3
   4479   4481   4482   4485     1  0.0000000  0.6508444  3
   4479   4481   4482   4486     1  0.0000000  0.6508444  3
   4480   4479   4481   4482     1  0.0000000  0.0000000  2
   4480   4479   4481   4483     1  0.0000000  0.0000000  2
   4480   4479   4481   4484     1  0.0000000  0.0000000  2
   4481   4482   4487   4488     1  0.0000000  0.6508444  3
   4481   4482   4487   4489     1  0.0000000  0.6508444  3
   4481   4482   4487   4490     1  0.0000000  0.6508444  3
   4483   4481   4482   4487     1  0.0000000  0.6508444  3
   4483   4481   4482   4485     1  0.0000000  0.6508444  3
   4483   4481   4482   4486     1  0.0000000  0.6508444  3
   4484   4481   4482   4487     1  0.0000000  0.6508444  3
   4484   4481   4482   4485     1  0.0000000  0.6508444  3
   4484   4481   4482   4486     1  0.0000000  0.6508444  3
   4485   4482   4487   4488     1  0.0000000  0.6508444  3
   4485   4482   4487   4489     1  0.0000000  0.6508444  3
   4485   4482   4487   4490     1  0.0000000  0.6508444  3
   4486   4482   4487   4488     1  0.0000000  0.6508444  3
   4486   4482   4487   4489     1  0.0000000  0.6508444  3
   4486   4482   4487   4490     1  0.0000000  0.6508444  3
   4491   4493   4494   4497     1  0.0000000  0.6508444  3
   4491   4493   4494   4498     1  0.0000000  0.6508444  3
   4492   4491   4493   4494     1  0.0000000  0.0000000  2
   4492   4491   4493   4495     1  0.0000000  0.0000000  2
   4492   4491   4493   4496     1  0.0000000  0.0000000  2
   4493   4494   4499   4500     1  0.0000000  0.6508444  3
   4493   4494   4499   4501     1  0.0000000  0.6508444  3
   4493   4494   4499   4502     1  0.0000000  0.6508444  3
   4495   4493   4494   4499     1  0.0000000  0.6508444  3
   4495   4493   4494   4497     1  0.0000000  0.6508444  3
   4495   4493   4494   4498     1  0.0000000  0.6508444  3
   4496   4493   4494   4499     1  0.0000000  0.6508444  3
   4496   4493   4494   4497     1  0.0000000  0.6508444  3
   4496   4493   4494   4498     1  0.0000000  0.6508444  3
   4497   4494   4499   4500     1  0.0000000  0.6508444  3
   4497   4494   4499   4501     1  0.0000000  0.6508444  3
   4497   4494   4499   4502     1  0.0000000  0.6508444  3
   4498   4494   4499   4500     1  0.0000000  0.6508444  3
   4498   4494   4499   4501     1  0.0000000  0.6508444  3
   4498   4494   4499   4502     1  0.0000000  0.6508444  3
   4503   4505   4506   4509     1  0.0000000  0.6508444  3
   4503   4505   4506   4510     1  0.0000000  0.6508444  3
   4504   4503   4505   4506     1  0.0000000  0.0000000  2
   4504   4503   4505   4507     1  0.0000000  0.0000000  2
   4504   4503   4505   4508     1  0.0000000  0.0000000  2
   4505   4506   4511   4512     1  0.0000000  0.6508444  3
   4505   4506   4511   4513     1  0.0000000  0.6508444  3
   4505   4506   4511   4514     1  0.0000000  0.6508444  3
   4507   4505   4506   4511     1  0.0000000  0.6508444  3
   4507   4505   4506   4509     1  0.0000000  0.6508444  3
   4507   4505   4506   4510     1  0.0000000  0.6508444  3
   4508   4505   4506   4511     1  0.0000000  0.6508444  3
   4508   4505   4506   4509     1  0.0000000  0.6508444  3
   4508   4505   4506   4510     1  0.0000000  0.6508444  3
   4509   4506   4511   4512     1  0.0000000  0.6508444  3
   4509   4506   4511   4513     1  0.0000000  0.6508444  3
   4509   4506   4511   4514     1  0.0000000  0.6508444  3
   4510   4506   4511   4512     1  0.0000000  0.6508444  3
   4510   4506   4511   4513     1  0.0000000  0.6508444  3
   4510   4506   4511   4514     1  0.0000000  0.6508444  3
   4515   4517   4518   4521     1  0.0000000  0.6508444  3
   4515   4517   4518   4522     1  0.0000000  0.6508444  3
   4516   4515   4517   4518     1  0.0000000  0.0000000  2
   4516   4515   4517   4519     1  0.0000000  0.0000000  2
   4516   4515   4517   4520     1  0.0000000  0.0000000  2
   4517   4518   4523   4524     1  0.0000000  0.6508444  3
   4517   4518   4523   4525     1  0.0000000  0.6508444  3
   4517   4518   4523   4526     1  0.0000000  0.6508444  3
   4519   4517   4518   4523     1  0.0000000  0.6508444  3
   4519   4517   4518   4521     1  0.0000000  0.6508444  3
   4519   4517   4518   4522     1  0.0000000  0.6508444  3
   4520   4517   4518   4523     1  0.0000000  0.6508444  3
   4520   4517   4518   4521     1  0.0000000  0.6508444  3
   4520   4517   4518   4522     1  0.0000000  0.6508444  3
   4521   4518   4523   4524     1  0.0000000  0.6508444  3
   4521   4518   4523   4525     1  0.0000000  0.6508444  3
   4521   4518   4523   4526     1  0.0000000  0.6508444  3
   4522   4518   4523   4524     1  0.0000000  0.6508444  3
   4522   4518   4523   4525     1  0.0000000  0.6508444  3
   4522   4518   4523   4526     1  0.0000000  0.6508444  3
   4527   4529   4530   4533     1  0.0000000  0.6508444  3
   4527   4529   4530   4534     1  0.0000000  0.6508444  3
   4528   4527   4529   4530     1  0.0000000  0.0000000  2
   4528   4527   4529   4531     1  0.0000000  0.0000000  2
   4528   4527   4529   4532     1  0.0000000  0.0000000  2
   4529   4530   4535   4536     1  0.0000000  0.6508444  3
   4529   4530   4535   4537     1  0.0000000  0.6508444  3
   4529   4530   4535   4538     1  0.0000000  0.6508444  3
   4531   4529   4530   4535     1  0.0000000  0.6508444  3
   4531   4529   4530   4533     1  0.0000000  0.6508444  3
   4531   4529   4530   4534     1  0.0000000  0.6508444  3
   4532   4529   4530   4535     1  0.0000000  0.6508444  3
   4532   4529   4530   4533     1  0.0000000  0.6508444  3
   4532   4529   4530   4534     1  0.0000000  0.6508444  3
   4533   4530   4535   4536     1  0.0000000  0.6508444  3
   4533   4530   4535   4537     1  0.0000000  0.6508444  3
   4533   4530   4535   4538     1  0.0000000  0.6508444  3
   4534   4530   4535   4536     1  0.0000000  0.6508444  3
   4534   4530   4535   4537     1  0.0000000  0.6508444  3
   4534   4530   4535   4538     1  0.0000000  0.6508444  3
   4539   4541   4542   4545     1  0.0000000  0.6508444  3
   4539   4541   4542   4546     1  0.0000000  0.6508444  3
   4540   4539   4541   4542     1  0.0000000  0.0000000  2
   4540   4539   4541   4543     1  0.0000000  0.0000000  2
   4540   4539   4541   4544     1  0.0000000  0.0000000  2
   4541   4542   4547   4548     1  0.0000000  0.6508444  3
   4541   4542   4547   4549     1  0.0000000  0.6508444  3
   4541   4542   4547   4550     1  0.0000000  0.6508444  3
   4543   4541   4542   4547     1  0.0000000  0.6508444  3
   4543   4541   4542   4545     1  0.0000000  0.6508444  3
   4543   4541   4542   4546     1  0.0000000  0.6508444  3
   4544   4541   4542   4547     1  0.0000000  0.6508444  3
   4544   4541   4542   4545     1  0.0000000  0.6508444  3
   4544   4541   4542   4546     1  0.0000000  0.6508444  3
   4545   4542   4547   4548     1  0.0000000  0.6508444  3
   4545   4542   4547   4549     1  0.0000000  0.6508444  3
   4545   4542   4547   4550     1  0.0000000  0.6508444  3
   4546   4542   4547   4548     1  0.0000000  0.6508444  3
   4546   4542   4547   4549     1  0.0000000  0.6508444  3
   4546   4542   4547   4550     1  0.0000000  0.6508444  3
   4551   4553   4554   4557     1  0.0000000  0.6508444  3
   4551   4553   4554   4558     1  0.0000000  0.6508444  3
   4552   4551   4553   4554     1  0.0000000  0.0000000  2
   4552   4551   4553   4555     1  0.0000000  0.0000000  2
   4552   4551   4553   4556     1  0.0000000  0.0000000  2
   4553   4554   4559   4560     1  0.0000000  0.6508444  3
   4553   4554   4559   4561     1  0.0000000  0.6508444  3
   4553   4554   4559   4562     1  0.0000000  0.6508444  3
   4555   4553   4554   4559     1  0.0000000  0.6508444  3
   4555   4553   4554   4557     1  0.0000000  0.6508444  3
   4555   4553   4554   4558     1  0.0000000  0.6508444  3
   4556   4553   4554   4559     1  0.0000000  0.6508444  3
   4556   4553   4554   4557     1  0.0000000  0.6508444  3
   4556   4553   4554   4558     1  0.0000000  0.6508444  3
   4557   4554   4559   4560     1  0.0000000  0.6508444  3
   4557   4554   4559   4561     1  0.0000000  0.6508444  3
   4557   4554   4559   4562     1  0.0000000  0.6508444  3
   4558   4554   4559   4560     1  0.0000000  0.6508444  3
   4558   4554   4559   4561     1  0.0000000  0.6508444  3
   4558   4554   4559   4562     1  0.0000000  0.6508444  3
   4563   4565   4566   4569     1  0.0000000  0.6508444  3
   4563   4565   4566   4570     1  0.0000000  0.6508444  3
   4564   4563   4565   4566     1  0.0000000  0.0000000  2
   4564   4563   4565   4567     1  0.0000000  0.0000000  2
   4564   4563   4565   4568     1  0.0000000  0.0000000  2
   4565   4566   4571   4572     1  0.0000000  0.6508444  3
   4565   4566   4571   4573     1  0.0000000  0.6508444  3
   4565   4566   4571   4574     1  0.0000000  0.6508444  3
   4567   4565   4566   4571     1  0.0000000  0.6508444  3
   4567   4565   4566   4569     1  0.0000000  0.6508444  3
   4567   4565   4566   4570     1  0.0000000  0.6508444  3
   4568   4565   4566   4571     1  0.0000000  0.6508444  3
   4568   4565   4566   4569     1  0.0000000  0.6508444  3
   4568   4565   4566   4570     1  0.0000000  0.6508444  3
   4569   4566   4571   4572     1  0.0000000  0.6508444  3
   4569   4566   4571   4573     1  0.0000000  0.6508444  3
   4569   4566   4571   4574     1  0.0000000  0.6508444  3
   4570   4566   4571   4572     1  0.0000000  0.6508444  3
   4570   4566   4571   4573     1  0.0000000  0.6508444  3
   4570   4566   4571   4574     1  0.0000000  0.6508444  3
   4575   4577   4578   4581     1  0.0000000  0.6508444  3
   4575   4577   4578   4582     1  0.0000000  0.6508444  3
   4576   4575   4577   4578     1  0.0000000  0.0000000  2
   4576   4575   4577   4579     1  0.0000000  0.0000000  2
   4576   4575   4577   4580     1  0.0000000  0.0000000  2
   4577   4578   4583   4584     1  0.0000000  0.6508444  3
   4577   4578   4583   4585     1  0.0000000  0.6508444  3
   4577   4578   4583   4586     1  0.0000000  0.6508444  3
   4579   4577   4578   4583     1  0.0000000  0.6508444  3
   4579   4577   4578   4581     1  0.0000000  0.6508444  3
   4579   4577   4578   4582     1  0.0000000  0.6508444  3
   4580   4577   4578   4583     1  0.0000000  0.6508444  3
   4580   4577   4578   4581     1  0.0000000  0.6508444  3
   4580   4577   4578   4582     1  0.0000000  0.6508444  3
   4581   4578   4583   4584     1  0.0000000  0.6508444  3
   4581   4578   4583   4585     1  0.0000000  0.6508444  3
   4581   4578   4583   4586     1  0.0000000  0.6508444  3
   4582   4578   4583   4584     1  0.0000000  0.6508444  3
   4582   4578   4583   4585     1  0.0000000  0.6508444  3
   4582   4578   4583   4586     1  0.0000000  0.6508444  3
   4587   4589   4590   4593     1  0.0000000  0.6508444  3
   4587   4589   4590   4594     1  0.0000000  0.6508444  3
   4588   4587   4589   4590     1  0.0000000  0.0000000  2
   4588   4587   4589   4591     1  0.0000000  0.0000000  2
   4588   4587   4589   4592     1  0.0000000  0.0000000  2
   4589   4590   4595   4596     1  0.0000000  0.6508444  3
   4589   4590   4595   4597     1  0.0000000  0.6508444  3
   4589   4590   4595   4598     1  0.0000000  0.6508444  3
   4591   4589   4590   4595     1  0.0000000  0.6508444  3
   4591   4589   4590   4593     1  0.0000000  0.6508444  3
   4591   4589   4590   4594     1  0.0000000  0.6508444  3
   4592   4589   4590   4595     1  0.0000000  0.6508444  3
   4592   4589   4590   4593     1  0.0000000  0.6508444  3
   4592   4589   4590   4594     1  0.0000000  0.6508444  3
   4593   4590   4595   4596     1  0.0000000  0.6508444  3
   4593   4590   4595   4597     1  0.0000000  0.6508444  3
   4593   4590   4595   4598     1  0.0000000  0.6508444  3
   4594   4590   4595   4596     1  0.0000000  0.6508444  3
   4594   4590   4595   4597     1  0.0000000  0.6508444  3
   4594   4590   4595   4598     1  0.0000000  0.6508444  3
   4599   4601   4602   4605     1  0.0000000  0.6508444  3
   4599   4601   4602   4606     1  0.0000000  0.6508444  3
   4600   4599   4601   4602     1  0.0000000  0.0000000  2
   4600   4599   4601   4603     1  0.0000000  0.0000000  2
   4600   4599   4601   4604     1  0.0000000  0.0000000  2
   4601   4602   4607   4608     1  0.0000000  0.6508444  3
   4601   4602   4607   4609     1  0.0000000  0.6508444  3
   4601   4602   4607   4610     1  0.0000000  0.6508444  3
   4603   4601   4602   4607     1  0.0000000  0.6508444  3
   4603   4601   4602   4605     1  0.0000000  0.6508444  3
   4603   4601   4602   4606     1  0.0000000  0.6508444  3
   4604   4601   4602   4607     1  0.0000000  0.6508444  3
   4604   4601   4602   4605     1  0.0000000  0.6508444  3
   4604   4601   4602   4606     1  0.0000000  0.6508444  3
   4605   4602   4607   4608     1  0.0000000  0.6508444  3
   4605   4602   4607   4609     1  0.0000000  0.6508444  3
   4605   4602   4607   4610     1  0.0000000  0.6508444  3
   4606   4602   4607   4608     1  0.0000000  0.6508444  3
   4606   4602   4607   4609     1  0.0000000  0.6508444  3
   4606   4602   4607   4610     1  0.0000000  0.6508444  3
   4611   4613   4614   4617     1  0.0000000  0.6508444  3
   4611   4613   4614   4618     1  0.0000000  0.6508444  3
   4612   4611   4613   4614     1  0.0000000  0.0000000  2
   4612   4611   4613   4615     1  0.0000000  0.0000000  2
   4612   4611   4613   4616     1  0.0000000  0.0000000  2
   4613   4614   4619   4620     1  0.0000000  0.6508444  3
   4613   4614   4619   4621     1  0.0000000  0.6508444  3
   4613   4614   4619   4622     1  0.0000000  0.6508444  3
   4615   4613   4614   4619     1  0.0000000  0.6508444  3
   4615   4613   4614   4617     1  0.0000000  0.6508444  3
   4615   4613   4614   4618     1  0.0000000  0.6508444  3
   4616   4613   4614   4619     1  0.0000000  0.6508444  3
   4616   4613   4614   4617     1  0.0000000  0.6508444  3
   4616   4613   4614   4618     1  0.0000000  0.6508444  3
   4617   4614   4619   4620     1  0.0000000  0.6508444  3
   4617   4614   4619   4621     1  0.0000000  0.6508444  3
   4617   4614   4619   4622     1  0.0000000  0.6508444  3
   4618   4614   4619   4620     1  0.0000000  0.6508444  3
   4618   4614   4619   4621     1  0.0000000  0.6508444  3
   4618   4614   4619   4622     1  0.0000000  0.6508444  3
   4623   4625   4626   4629     1  0.0000000  0.6508444  3
   4623   4625   4626   4630     1  0.0000000  0.6508444  3
   4624   4623   4625   4626     1  0.0000000  0.0000000  2
   4624   4623   4625   4627     1  0.0000000  0.0000000  2
   4624   4623   4625   4628     1  0.0000000  0.0000000  2
   4625   4626   4631   4632     1  0.0000000  0.6508444  3
   4625   4626   4631   4633     1  0.0000000  0.6508444  3
   4625   4626   4631   4634     1  0.0000000  0.6508444  3
   4627   4625   4626   4631     1  0.0000000  0.6508444  3
   4627   4625   4626   4629     1  0.0000000  0.6508444  3
   4627   4625   4626   4630     1  0.0000000  0.6508444  3
   4628   4625   4626   4631     1  0.0000000  0.6508444  3
   4628   4625   4626   4629     1  0.0000000  0.6508444  3
   4628   4625   4626   4630     1  0.0000000  0.6508444  3
   4629   4626   4631   4632     1  0.0000000  0.6508444  3
   4629   4626   4631   4633     1  0.0000000  0.6508444  3
   4629   4626   4631   4634     1  0.0000000  0.6508444  3
   4630   4626   4631   4632     1  0.0000000  0.6508444  3
   4630   4626   4631   4633     1  0.0000000  0.6508444  3
   4630   4626   4631   4634     1  0.0000000  0.6508444  3
   4635   4637   4638   4641     1  0.0000000  0.6508444  3
   4635   4637   4638   4642     1  0.0000000  0.6508444  3
   4636   4635   4637   4638     1  0.0000000  0.0000000  2
   4636   4635   4637   4639     1  0.0000000  0.0000000  2
   4636   4635   4637   4640     1  0.0000000  0.0000000  2
   4637   4638   4643   4644     1  0.0000000  0.6508444  3
   4637   4638   4643   4645     1  0.0000000  0.6508444  3
   4637   4638   4643   4646     1  0.0000000  0.6508444  3
   4639   4637   4638   4643     1  0.0000000  0.6508444  3
   4639   4637   4638   4641     1  0.0000000  0.6508444  3
   4639   4637   4638   4642     1  0.0000000  0.6508444  3
   4640   4637   4638   4643     1  0.0000000  0.6508444  3
   4640   4637   4638   4641     1  0.0000000  0.6508444  3
   4640   4637   4638   4642     1  0.0000000  0.6508444  3
   4641   4638   4643   4644     1  0.0000000  0.6508444  3
   4641   4638   4643   4645     1  0.0000000  0.6508444  3
   4641   4638   4643   4646     1  0.0000000  0.6508444  3
   4642   4638   4643   4644     1  0.0000000  0.6508444  3
   4642   4638   4643   4645     1  0.0000000  0.6508444  3
   4642   4638   4643   4646     1  0.0000000  0.6508444  3
   4647   4649   4650   4653     1  0.0000000  0.6508444  3
   4647   4649   4650   4654     1  0.0000000  0.6508444  3
   4648   4647   4649   4650     1  0.0000000  0.0000000  2
   4648   4647   4649   4651     1  0.0000000  0.0000000  2
   4648   4647   4649   4652     1  0.0000000  0.0000000  2
   4649   4650   4655   4656     1  0.0000000  0.6508444  3
   4649   4650   4655   4657     1  0.0000000  0.6508444  3
   4649   4650   4655   4658     1  0.0000000  0.6508444  3
   4651   4649   4650   4655     1  0.0000000  0.6508444  3
   4651   4649   4650   4653     1  0.0000000  0.6508444  3
   4651   4649   4650   4654     1  0.0000000  0.6508444  3
   4652   4649   4650   4655     1  0.0000000  0.6508444  3
   4652   4649   4650   4653     1  0.0000000  0.6508444  3
   4652   4649   4650   4654     1  0.0000000  0.6508444  3
   4653   4650   4655   4656     1  0.0000000  0.6508444  3
   4653   4650   4655   4657     1  0.0000000  0.6508444  3
   4653   4650   4655   4658     1  0.0000000  0.6508444  3
   4654   4650   4655   4656     1  0.0000000  0.6508444  3
   4654   4650   4655   4657     1  0.0000000  0.6508444  3
   4654   4650   4655   4658     1  0.0000000  0.6508444  3
   4659   4661   4662   4665     1  0.0000000  0.6508444  3
   4659   4661   4662   4666     1  0.0000000  0.6508444  3
   4660   4659   4661   4662     1  0.0000000  0.0000000  2
   4660   4659   4661   4663     1  0.0000000  0.0000000  2
   4660   4659   4661   4664     1  0.0000000  0.0000000  2
   4661   4662   4667   4668     1  0.0000000  0.6508444  3
   4661   4662   4667   4669     1  0.0000000  0.6508444  3
   4661   4662   4667   4670     1  0.0000000  0.6508444  3
   4663   4661   4662   4667     1  0.0000000  0.6508444  3
   4663   4661   4662   4665     1  0.0000000  0.6508444  3
   4663   4661   4662   4666     1  0.0000000  0.6508444  3
   4664   4661   4662   4667     1  0.0000000  0.6508444  3
   4664   4661   4662   4665     1  0.0000000  0.6508444  3
   4664   4661   4662   4666     1  0.0000000  0.6508444  3
   4665   4662   4667   4668     1  0.0000000  0.6508444  3
   4665   4662   4667   4669     1  0.0000000  0.6508444  3
   4665   4662   4667   4670     1  0.0000000  0.6508444  3
   4666   4662   4667   4668     1  0.0000000  0.6508444  3
   4666   4662   4667   4669     1  0.0000000  0.6508444  3
   4666   4662   4667   4670     1  0.0000000  0.6508444  3
   4671   4673   4674   4677     1  0.0000000  0.6508444  3
   4671   4673   4674   4678     1  0.0000000  0.6508444  3
   4672   4671   4673   4674     1  0.0000000  0.0000000  2
   4672   4671   4673   4675     1  0.0000000  0.0000000  2
   4672   4671   4673   4676     1  0.0000000  0.0000000  2
   4673   4674   4679   4680     1  0.0000000  0.6508444  3
   4673   4674   4679   4681     1  0.0000000  0.6508444  3
   4673   4674   4679   4682     1  0.0000000  0.6508444  3
   4675   4673   4674   4679     1  0.0000000  0.6508444  3
   4675   4673   4674   4677     1  0.0000000  0.6508444  3
   4675   4673   4674   4678     1  0.0000000  0.6508444  3
   4676   4673   4674   4679     1  0.0000000  0.6508444  3
   4676   4673   4674   4677     1  0.0000000  0.6508444  3
   4676   4673   4674   4678     1  0.0000000  0.6508444  3
   4677   4674   4679   4680     1  0.0000000  0.6508444  3
   4677   4674   4679   4681     1  0.0000000  0.6508444  3
   4677   4674   4679   4682     1  0.0000000  0.6508444  3
   4678   4674   4679   4680     1  0.0000000  0.6508444  3
   4678   4674   4679   4681     1  0.0000000  0.6508444  3
   4678   4674   4679   4682     1  0.0000000  0.6508444  3
   4683   4685   4686   4689     1  0.0000000  0.6508444  3
   4683   4685   4686   4690     1  0.0000000  0.6508444  3
   4684   4683   4685   4686     1  0.0000000  0.0000000  2
   4684   4683   4685   4687     1  0.0000000  0.0000000  2
   4684   4683   4685   4688     1  0.0000000  0.0000000  2
   4685   4686   4691   4692     1  0.0000000  0.6508444  3
   4685   4686   4691   4693     1  0.0000000  0.6508444  3
   4685   4686   4691   4694     1  0.0000000  0.6508444  3
   4687   4685   4686   4691     1  0.0000000  0.6508444  3
   4687   4685   4686   4689     1  0.0000000  0.6508444  3
   4687   4685   4686   4690     1  0.0000000  0.6508444  3
   4688   4685   4686   4691     1  0.0000000  0.6508444  3
   4688   4685   4686   4689     1  0.0000000  0.6508444  3
   4688   4685   4686   4690     1  0.0000000  0.6508444  3
   4689   4686   4691   4692     1  0.0000000  0.6508444  3
   4689   4686   4691   4693     1  0.0000000  0.6508444  3
   4689   4686   4691   4694     1  0.0000000  0.6508444  3
   4690   4686   4691   4692     1  0.0000000  0.6508444  3
   4690   4686   4691   4693     1  0.0000000  0.6508444  3
   4690   4686   4691   4694     1  0.0000000  0.6508444  3
   4695   4697   4698   4701     1  0.0000000  0.6508444  3
   4695   4697   4698   4702     1  0.0000000  0.6508444  3
   4696   4695   4697   4698     1  0.0000000  0.0000000  2
   4696   4695   4697   4699     1  0.0000000  0.0000000  2
   4696   4695   4697   4700     1  0.0000000  0.0000000  2
   4697   4698   4703   4704     1  0.0000000  0.6508444  3
   4697   4698   4703   4705     1  0.0000000  0.6508444  3
   4697   4698   4703   4706     1  0.0000000  0.6508444  3
   4699   4697   4698   4703     1  0.0000000  0.6508444  3
   4699   4697   4698   4701     1  0.0000000  0.6508444  3
   4699   4697   4698   4702     1  0.0000000  0.6508444  3
   4700   4697   4698   4703     1  0.0000000  0.6508444  3
   4700   4697   4698   4701     1  0.0000000  0.6508444  3
   4700   4697   4698   4702     1  0.0000000  0.6508444  3
   4701   4698   4703   4704     1  0.0000000  0.6508444  3
   4701   4698   4703   4705     1  0.0000000  0.6508444  3
   4701   4698   4703   4706     1  0.0000000  0.6508444  3
   4702   4698   4703   4704     1  0.0000000  0.6508444  3
   4702   4698   4703   4705     1  0.0000000  0.6508444  3
   4702   4698   4703   4706     1  0.0000000  0.6508444  3
   4707   4709   4710   4713     1  0.0000000  0.6508444  3
   4707   4709   4710   4714     1  0.0000000  0.6508444  3
   4708   4707   4709   4710     1  0.0000000  0.0000000  2
   4708   4707   4709   4711     1  0.0000000  0.0000000  2
   4708   4707   4709   4712     1  0.0000000  0.0000000  2
   4709   4710   4715   4716     1  0.0000000  0.6508444  3
   4709   4710   4715   4717     1  0.0000000  0.6508444  3
   4709   4710   4715   4718     1  0.0000000  0.6508444  3
   4711   4709   4710   4715     1  0.0000000  0.6508444  3
   4711   4709   4710   4713     1  0.0000000  0.6508444  3
   4711   4709   4710   4714     1  0.0000000  0.6508444  3
   4712   4709   4710   4715     1  0.0000000  0.6508444  3
   4712   4709   4710   4713     1  0.0000000  0.6508444  3
   4712   4709   4710   4714     1  0.0000000  0.6508444  3
   4713   4710   4715   4716     1  0.0000000  0.6508444  3
   4713   4710   4715   4717     1  0.0000000  0.6508444  3
   4713   4710   4715   4718     1  0.0000000  0.6508444  3
   4714   4710   4715   4716     1  0.0000000  0.6508444  3
   4714   4710   4715   4717     1  0.0000000  0.6508444  3
   4714   4710   4715   4718     1  0.0000000  0.6508444  3
   4719   4721   4722   4725     1  0.0000000  0.6508444  3
   4719   4721   4722   4726     1  0.0000000  0.6508444  3
   4720   4719   4721   4722     1  0.0000000  0.0000000  2
   4720   4719   4721   4723     1  0.0000000  0.0000000  2
   4720   4719   4721   4724     1  0.0000000  0.0000000  2
   4721   4722   4727   4728     1  0.0000000  0.6508444  3
   4721   4722   4727   4729     1  0.0000000  0.6508444  3
   4721   4722   4727   4730     1  0.0000000  0.6508444  3
   4723   4721   4722   4727     1  0.0000000  0.6508444  3
   4723   4721   4722   4725     1  0.0000000  0.6508444  3
   4723   4721   4722   4726     1  0.0000000  0.6508444  3
   4724   4721   4722   4727     1  0.0000000  0.6508444  3
   4724   4721   4722   4725     1  0.0000000  0.6508444  3
   4724   4721   4722   4726     1  0.0000000  0.6508444  3
   4725   4722   4727   4728     1  0.0000000  0.6508444  3
   4725   4722   4727   4729     1  0.0000000  0.6508444  3
   4725   4722   4727   4730     1  0.0000000  0.6508444  3
   4726   4722   4727   4728     1  0.0000000  0.6508444  3
   4726   4722   4727   4729     1  0.0000000  0.6508444  3
   4726   4722   4727   4730     1  0.0000000  0.6508444  3
   4731   4733   4734   4737     1  0.0000000  0.6508444  3
   4731   4733   4734   4738     1  0.0000000  0.6508444  3
   4732   4731   4733   4734     1  0.0000000  0.0000000  2
   4732   4731   4733   4735     1  0.0000000  0.0000000  2
   4732   4731   4733   4736     1  0.0000000  0.0000000  2
   4733   4734   4739   4740     1  0.0000000  0.6508444  3
   4733   4734   4739   4741     1  0.0000000  0.6508444  3
   4733   4734   4739   4742     1  0.0000000  0.6508444  3
   4735   4733   4734   4739     1  0.0000000  0.6508444  3
   4735   4733   4734   4737     1  0.0000000  0.6508444  3
   4735   4733   4734   4738     1  0.0000000  0.6508444  3
   4736   4733   4734   4739     1  0.0000000  0.6508444  3
   4736   4733   4734   4737     1  0.0000000  0.6508444  3
   4736   4733   4734   4738     1  0.0000000  0.6508444  3
   4737   4734   4739   4740     1  0.0000000  0.6508444  3
   4737   4734   4739   4741     1  0.0000000  0.6508444  3
   4737   4734   4739   4742     1  0.0000000  0.6508444  3
   4738   4734   4739   4740     1  0.0000000  0.6508444  3
   4738   4734   4739   4741     1  0.0000000  0.6508444  3
   4738   4734   4739   4742     1  0.0000000  0.6508444  3
   4743   4745   4746   4749     1  0.0000000  0.6508444  3
   4743   4745   4746   4750     1  0.0000000  0.6508444  3
   4744   4743   4745   4746     1  0.0000000  0.0000000  2
   4744   4743   4745   4747     1  0.0000000  0.0000000  2
   4744   4743   4745   4748     1  0.0000000  0.0000000  2
   4745   4746   4751   4752     1  0.0000000  0.6508444  3
   4745   4746   4751   4753     1  0.0000000  0.6508444  3
   4745   4746   4751   4754     1  0.0000000  0.6508444  3
   4747   4745   4746   4751     1  0.0000000  0.6508444  3
   4747   4745   4746   4749     1  0.0000000  0.6508444  3
   4747   4745   4746   4750     1  0.0000000  0.6508444  3
   4748   4745   4746   4751     1  0.0000000  0.6508444  3
   4748   4745   4746   4749     1  0.0000000  0.6508444  3
   4748   4745   4746   4750     1  0.0000000  0.6508444  3
   4749   4746   4751   4752     1  0.0000000  0.6508444  3
   4749   4746   4751   4753     1  0.0000000  0.6508444  3
   4749   4746   4751   4754     1  0.0000000  0.6508444  3
   4750   4746   4751   4752     1  0.0000000  0.6508444  3
   4750   4746   4751   4753     1  0.0000000  0.6508444  3
   4750   4746   4751   4754     1  0.0000000  0.6508444  3
   4755   4757   4758   4761     1  0.0000000  0.6508444  3
   4755   4757   4758   4762     1  0.0000000  0.6508444  3
   4756   4755   4757   4758     1  0.0000000  0.0000000  2
   4756   4755   4757   4759     1  0.0000000  0.0000000  2
   4756   4755   4757   4760     1  0.0000000  0.0000000  2
   4757   4758   4763   4764     1  0.0000000  0.6508444  3
   4757   4758   4763   4765     1  0.0000000  0.6508444  3
   4757   4758   4763   4766     1  0.0000000  0.6508444  3
   4759   4757   4758   4763     1  0.0000000  0.6508444  3
   4759   4757   4758   4761     1  0.0000000  0.6508444  3
   4759   4757   4758   4762     1  0.0000000  0.6508444  3
   4760   4757   4758   4763     1  0.0000000  0.6508444  3
   4760   4757   4758   4761     1  0.0000000  0.6508444  3
   4760   4757   4758   4762     1  0.0000000  0.6508444  3
   4761   4758   4763   4764     1  0.0000000  0.6508444  3
   4761   4758   4763   4765     1  0.0000000  0.6508444  3
   4761   4758   4763   4766     1  0.0000000  0.6508444  3
   4762   4758   4763   4764     1  0.0000000  0.6508444  3
   4762   4758   4763   4765     1  0.0000000  0.6508444  3
   4762   4758   4763   4766     1  0.0000000  0.6508444  3
   4767   4769   4770   4773     1  0.0000000  0.6508444  3
   4767   4769   4770   4774     1  0.0000000  0.6508444  3
   4768   4767   4769   4770     1  0.0000000  0.0000000  2
   4768   4767   4769   4771     1  0.0000000  0.0000000  2
   4768   4767   4769   4772     1  0.0000000  0.0000000  2
   4769   4770   4775   4776     1  0.0000000  0.6508444  3
   4769   4770   4775   4777     1  0.0000000  0.6508444  3
   4769   4770   4775   4778     1  0.0000000  0.6508444  3
   4771   4769   4770   4775     1  0.0000000  0.6508444  3
   4771   4769   4770   4773     1  0.0000000  0.6508444  3
   4771   4769   4770   4774     1  0.0000000  0.6508444  3
   4772   4769   4770   4775     1  0.0000000  0.6508444  3
   4772   4769   4770   4773     1  0.0000000  0.6508444  3
   4772   4769   4770   4774     1  0.0000000  0.6508444  3
   4773   4770   4775   4776     1  0.0000000  0.6508444  3
   4773   4770   4775   4777     1  0.0000000  0.6508444  3
   4773   4770   4775   4778     1  0.0000000  0.6508444  3
   4774   4770   4775   4776     1  0.0000000  0.6508444  3
   4774   4770   4775   4777     1  0.0000000  0.6508444  3
   4774   4770   4775   4778     1  0.0000000  0.6508444  3
   4779   4781   4782   4785     1  0.0000000  0.6508444  3
   4779   4781   4782   4786     1  0.0000000  0.6508444  3
   4780   4779   4781   4782     1  0.0000000  0.0000000  2
   4780   4779   4781   4783     1  0.0000000  0.0000000  2
   4780   4779   4781   4784     1  0.0000000  0.0000000  2
   4781   4782   4787   4788     1  0.0000000  0.6508444  3
   4781   4782   4787   4789     1  0.0000000  0.6508444  3
   4781   4782   4787   4790     1  0.0000000  0.6508444  3
   4783   4781   4782   4787     1  0.0000000  0.6508444  3
   4783   4781   4782   4785     1  0.0000000  0.6508444  3
   4783   4781   4782   4786     1  0.0000000  0.6508444  3
   4784   4781   4782   4787     1  0.0000000  0.6508444  3
   4784   4781   4782   4785     1  0.0000000  0.6508444  3
   4784   4781   4782   4786     1  0.0000000  0.6508444  3
   4785   4782   4787   4788     1  0.0000000  0.6508444  3
   4785   4782   4787   4789     1  0.0000000  0.6508444  3
   4785   4782   4787   4790     1  0.0000000  0.6508444  3
   4786   4782   4787   4788     1  0.0000000  0.6508444  3
   4786   4782   4787   4789     1  0.0000000  0.6508444  3
   4786   4782   4787   4790     1  0.0000000  0.6508444  3
   4791   4793   4794   4797     1  0.0000000  0.6508444  3
   4791   4793   4794   4798     1  0.0000000  0.6508444  3
   4792   4791   4793   4794     1  0.0000000  0.0000000  2
   4792   4791   4793   4795     1  0.0000000  0.0000000  2
   4792   4791   4793   4796     1  0.0000000  0.0000000  2
   4793   4794   4799   4800     1  0.0000000  0.6508444  3
   4793   4794   4799   4801     1  0.0000000  0.6508444  3
   4793   4794   4799   4802     1  0.0000000  0.6508444  3
   4795   4793   4794   4799     1  0.0000000  0.6508444  3
   4795   4793   4794   4797     1  0.0000000  0.6508444  3
   4795   4793   4794   4798     1  0.0000000  0.6508444  3
   4796   4793   4794   4799     1  0.0000000  0.6508444  3
   4796   4793   4794   4797     1  0.0000000  0.6508444  3
   4796   4793   4794   4798     1  0.0000000  0.6508444  3
   4797   4794   4799   4800     1  0.0000000  0.6508444  3
   4797   4794   4799   4801     1  0.0000000  0.6508444  3
   4797   4794   4799   4802     1  0.0000000  0.6508444  3
   4798   4794   4799   4800     1  0.0000000  0.6508444  3
   4798   4794   4799   4801     1  0.0000000  0.6508444  3
   4798   4794   4799   4802     1  0.0000000  0.6508444  3
     10     51     52     67     4  180.0000771  4.6024000  2
     12     77     78     93     4  180.0000771  4.6024000  2
     14    103    104    119     4  180.0000771  4.6024000  2
     16    129    130    145     4  180.0000771  4.6024000  2
     47    155    156    171     4  180.0000771  4.6024000  2
     49    181    182    197     4  180.0000771  4.6024000  2
     73    207    208    223     4  180.0000771  4.6024000  2
     75    233    234    249     4  180.0000771  4.6024000  2
     99    259    260    275     4  180.0000771  4.6024000  2
    101    285    286    301     4  180.0000771  4.6024000  2
    125    311    312    327     4  180.0000771  4.6024000  2
    127    337    338    353     4  180.0000771  4.6024000  2
    151    363    364    379     4  180.0000771  4.6024000  2
    153    389    390    405     4  180.0000771  4.6024000  2
    177    415    416    431     4  180.0000771  4.6024000  2
    179    441    442    457     4  180.0000771  4.6024000  2
    203    467    468    483     4  180.0000771  4.6024000  2
    205    493    494    509     4  180.0000771  4.6024000  2
    229    519    520    535     4  180.0000771  4.6024000  2
    231    545    546    561     4  180.0000771  4.6024000  2
    255    571    572    587     4  180.0000771  4.6024000  2
    257    597    598    613     4  180.0000771  4.6024000  2
    281    623    624    639     4  180.0000771  4.6024000  2
    283    649    650    665     4  180.0000771  4.6024000  2
    307    675    676    691     4  180.0000771  4.6024000  2
    309    701    702    717     4  180.0000771  4.6024000  2
    333    727    728    743     4  180.0000771  4.6024000  2
    335    753    754    769     4  180.0000771  4.6024000  2
    359    779    780    795     4  180.0000771  4.6024000  2
    361    805    806    821     4  180.0000771  4.6024000  2
    385    831    832    847     4  180.0000771  4.6024000  2
    387    857    858    873     4  180.0000771  4.6024000  2
    411    883    884    899     4  180.0000771  4.6024000  2
    413    909    910    925     4  180.0000771  4.6024000  2
    437    935    936    951     4  180.0000771  4.6024000  2
    439    961    962    977     4  180.0000771  4.6024000  2
    463    987    988   1003     4  180.0000771  4.6024000  2
    465   1013   1014   1029     4  180.0000771  4.6024000  2
    489   1039   1040   1055     4  180.0000771  4.6024000  2
    491   1065   1066   1081     4  180.0000771  4.6024000  2
    515   1091   1092   1107     4  180.0000771  4.6024000  2
    517   1117   1118   1133     4  180.0000771  4.6024000  2
    541   1143   1144   1159     4  180.0000771  4.6024000  2
    543   1169   1170   1185     4  180.0000771  4.6024000  2
    567   1195   1196   1211     4  180.0000771  4.6024000  2
    569   1221   1222   1237     4  180.0000771  4.6024000  2
    593   1247   1248   1263     4  180.0000771  4.6024000  2
    595   1273   1274   1289     4  180.0000771  4.6024000  2
    619   1299   1300   1315     4  180.0000771  4.6024000  2
    621   1325   1326   1341     4  180.0000771  4.6024000  2
    645   1351   1352   1367     4  180.0000771  4.6024000  2
    647   1377   1378   1393     4  180.0000771  4.6024000  2
    671   1403   1404   1419     4  180.0000771  4.6024000  2
    673   1429   1430   1445     4  180.0000771  4.6024000  2
    697   1455   1456   1471     4  180.0000771  4.6024000  2
    699   1481   1482   1497     4  180.0000771  4.6024000  2
    723   1507   1508   1523     4  180.0000771  4.6024000  2
    725   1533   1534   1549     4  180.0000771  4.6024000  2
    749   1559   1560   1575     4  180.0000771  4.6024000  2
    751   1585   1586   1601     4  180.0000771  4.6024000  2
    775   1611   1612   1627     4  180.0000771  4.6024000  2
    777   1637   1638   1653     4  180.0000771  4.6024000  2
    801   1663   1664   1679     4  180.0000771  4.6024000  2
    803   1689   1690   1705     4  180.0000771  4.6024000  2
    827   1715   1716   1731     4  180.0000771  4.6024000  2
    829   1741   1742   1757     4  180.0000771  4.6024000  2
    853   1767   1768   1783     4  180.0000771  4.6024000  2
    855   1793   1794   1809     4  180.0000771  4.6024000  2
    879   1819   1820   1835     4  180.0000771  4.6024000  2
    881   1845   1846   1861     4  180.0000771  4.6024000  2
    905   1871   1872   1887     4  180.0000771  4.6024000  2
    907   1897   1898   1913     4  180.0000771  4.6024000  2
    931   1923   1924   1939     4  180.0000771  4.6024000  2
    933   1949   1950   1965     4  180.0000771  4.6024000  2
    957   1975   1976   1991     4  180.0000771  4.6024000  2
    959   2001   2002   2017     4  180.0000771  4.6024000  2
    983   2027   2028   2043     4  180.0000771  4.6024000  2
    985   2053   2054   2069     4  180.0000771  4.6024000  2
   1009   2079   2080   2095     4  180.0000771  4.6024000  2
   1011   2105   2106   2121     4  180.0000771  4.6024000  2
   1035   2131   2132   2147     4  180.0000771  4.6024000  2
   1037   2157   2158   2173     4  180.0000771  4.6024000  2
   1061   2183   2184   2199     4  180.0000771  4.6024000  2
   1063   2209   2210   2225     4  180.0000771  4.6024000  2
   1087   2235   2236   2251     4  180.0000771  4.6024000  2
   1089   2261   2262   2277     4  180.0000771  4.6024000  2
   1113   2287   2288   2303     4  180.0000771  4.6024000  2
   1115   2313   2314   2329     4  180.0000771  4.6024000  2
   1139   2339   2340   2355     4  180.0000771  4.6024000  2
   1141   2365   2366   2381     4  180.0000771  4.6024000  2
   1165   2391   2392   2407     4  180.0000771  4.6024000  2
   1167   2417   2418   2433     4  180.0000771  4.6024000  2
   1191   2443   2444   2459     4  180.0000771  4.6024000  2
   1193   2469   2470   2485     4  180.0000771  4.6024000  2
   1217   2495   2496   2511     4  180.0000771  4.6024000  2
   1219   2521   2522   2537     4  180.0000771  4.6024000  2
   1243   2547   2548   2563     4  180.0000771  4.6024000  2
   1245   2573   2574   2589     4  180.0000771  4.6024000  2
   1269   2599   2600   2615     4  180.0000771  4.6024000  2
   1271   2625   2626   2641     4  180.0000771  4.6024000  2
   1295   2651   2652   2667     4  180.0000771  4.6024000  2
   1297   2677   2678   2693     4  180.0000771  4.6024000  2
   1321   2703   2704   2719     4  180.0000771  4.6024000  2
   1323   2729   2730   2745     4  180.0000771  4.6024000  2
   1347   2755   2756   2771     4  180.0000771  4.6024000  2
   1349   2781   2782   2797     4  180.0000771  4.6024000  2
   1373   2807   2808   2823     4  180.0000771  4.6024000  2
   1375   2833   2834   2849     4  180.0000771  4.6024000  2
   1399   2859   2860   2875     4  180.0000771  4.6024000  2
   1401   2885   2886   2901     4  180.0000771  4.6024000  2
   1425   2911   2912   2927     4  180.0000771  4.6024000  2
   1427   2937   2938   2953     4  180.0000771  4.6024000  2
   1451   2963   2964   2979     4  180.0000771  4.6024000  2
   1453   2989   2990   3005     4  180.0000771  4.6024000  2
   1477   3015   3016   3031     4  180.0000771  4.6024000  2
   1479   3041   3042   3057     4  180.0000771  4.6024000  2
   1503   3067   3068   3083     4  180.0000771  4.6024000  2
   1505   3093   3094   3109     4  180.0000771  4.6024000  2
   1529   3119   3120   3135     4  180.0000771  4.6024000  2
   1531   3145   3146   3161     4  180.0000771  4.6024000  2
   1555   3171   3172   3187     4  180.0000771  4.6024000  2
   1557   3197   3198   3213     4  180.0000771  4.6024000  2
   1581   3223   3224   3239     4  180.0000771  4.6024000  2
   1583   3249   3250   3265     4  180.0000771  4.6024000  2
   1607   3269   3267   3268     4  180.0000771  4.6024000  2
   1609   3281   3279   3280     4  180.0000771  4.6024000  2
   1633   3293   3291   3292     4  180.0000771  4.6024000  2
   1635   3305   3303   3304     4  180.0000771  4.6024000  2
   1659   3317   3315   3316     4  180.0000771  4.6024000  2
   1661   3329   3327   3328     4  180.0000771  4.6024000  2
   1685   3341   3339   3340     4  180.0000771  4.6024000  2
   1687   3353   3351   3352     4  180.0000771  4.6024000  2
   1711   3365   3363   3364     4  180.0000771  4.6024000  2
   1713   3377   3375   3376     4  180.0000771  4.6024000  2
   1737   3389   3387   3388     4  180.0000771  4.6024000  2
   1739   3401   3399   3400     4  180.0000771  4.6024000  2
   1763   3413   3411   3412     4  180.0000771  4.6024000  2
   1765   3425   3423   3424     4  180.0000771  4.6024000  2
   1789   3437   3435   3436     4  180.0000771  4.6024000  2
   1791   3449   3447   3448     4  180.0000771  4.6024000  2
   1815   3461   3459   3460     4  180.0000771  4.6024000  2
   1817   3473   3471   3472     4  180.0000771  4.6024000  2
   1841   3485   3483   3484     4  180.0000771  4.6024000  2
   1843   3497   3495   3496     4  180.0000771  4.6024000  2
   1867   3509   3507   3508     4  180.0000771  4.6024000  2
   1869   3521   3519   3520     4  180.0000771  4.6024000  2
   1893   3533   3531   3532     4  180.0000771  4.6024000  2
   1895   3545   3543   3544     4  180.0000771  4.6024000  2
   1919   3557   3555   3556     4  180.0000771  4.6024000  2
   1921   3569   3567   3568     4  180.0000771  4.6024000  2
   1945   3581   3579   3580     4  180.0000771  4.6024000  2
   1947   3593   3591   3592     4  180.0000771  4.6024000  2
   1971   3605   3603   3604     4  180.0000771  4.6024000  2
   1973   3617   3615   3616     4  180.0000771  4.6024000  2
   1997   3629   3627   3628     4  180.0000771  4.6024000  2
   1999   3641   3639   3640     4  180.0000771  4.6024000  2
   2023   3653   3651   3652     4  180.0000771  4.6024000  2
   2025   3665   3663   3664     4  180.0000771  4.6024000  2
   2049   3677   3675   3676     4  180.0000771  4.6024000  2
   2051   3689   3687   3688     4  180.0000771  4.6024000  2
   2075   3701   3699   3700     4  180.0000771  4.6024000  2
   2077   3713   3711   3712     4  180.0000771  4.6024000  2
   2101   3725   3723   3724     4  180.0000771  4.6024000  2
   2103   3737   3735   3736     4  180.0000771  4.6024000  2
   2127   3749   3747   3748     4  180.0000771  4.6024000  2
   2129   3761   3759   3760     4  180.0000771  4.6024000  2
   2153   3773   3771   3772     4  180.0000771  4.6024000  2
   2155   3785   3783   3784     4  180.0000771  4.6024000  2
   2179   3797   3795   3796     4  180.0000771  4.6024000  2
   2181   3809   3807   3808     4  180.0000771  4.6024000  2
   2205   3821   3819   3820     4  180.0000771  4.6024000  2
   2207   3833   3831   3832     4  180.0000771  4.6024000  2
   2231   3845   3843   3844     4  180.0000771  4.6024000  2
   2233   3857   3855   3856     4  180.0000771  4.6024000  2
   2257   3869   3867   3868     4  180.0000771  4.6024000  2
   2259   3881   3879   3880     4  180.0000771  4.6024000  2
   2283   3893   3891   3892     4  180.0000771  4.6024000  2
   2285   3905   3903   3904     4  180.0000771  4.6024000  2
   2309   3917   3915   3916     4  180.0000771  4.6024000  2
   2311   3929   3927   3928     4  180.0000771  4.6024000  2
   2335   3941   3939   3940     4  180.0000771  4.6024000  2
   2337   3953   3951   3952     4  180.0000771  4.6024000  2
   2361   3965   3963   3964     4  180.0000771  4.6024000  2
   2363   3977   3975   3976     4  180.0000771  4.6024000  2
   2387   3989   3987   3988     4  180.0000771  4.6024000  2
   2389   4001   3999   4000     4  180.0000771  4.6024000  2
   2413   4013   4011   4012     4  180.0000771  4.6024000  2
   2415   4025   4023   4024     4  180.0000771  4.6024000  2
   2439   4037   4035   4036     4  180.0000771  4.6024000  2
   2441   4049   4047   4048     4  180.0000771  4.6024000  2
   2465   4061   4059   4060     4  180.0000771  4.6024000  2
   2467   4073   4071   4072     4  180.0000771  4.6024000  2
   2491   4085   4083   4084     4  180.0000771  4.6024000  2
   2493   4097   4095   4096     4  180.0000771  4.6024000  2
   2517   4109   4107   4108     4  180.0000771  4.6024000  2
   2519   4121   4119   4120     4  180.0000771  4.6024000  2
   2543   4133   4131   4132     4  180.0000771  4.6024000  2
   2545   4145   4143   4144     4  180.0000771  4.6024000  2
   2569   4157   4155   4156     4  180.0000771  4.6024000  2
   2571   4169   4167   4168     4  180.0000771  4.6024000  2
   2595   4181   4179   4180     4  180.0000771  4.6024000  2
   2597   4193   4191   4192     4  180.0000771  4.6024000  2
   2621   4205   4203   4204     4  180.0000771  4.6024000  2
   2623   4217   4215   4216     4  180.0000771  4.6024000  2
   2647   4229   4227   4228     4  180.0000771  4.6024000  2
   2649   4241   4239   4240     4  180.0000771  4.6024000  2
   2673   4253   4251   4252     4  180.0000771  4.6024000  2
   2675   4265   4263   4264     4  180.0000771  4.6024000  2
   2699   4277   4275   4276     4  180.0000771  4.6024000  2
   2701   4289   4287   4288     4  180.0000771  4.6024000  2
   2725   4301   4299   4300     4  180.0000771  4.6024000  2
   2727   4313   4311   4312     4  180.0000771  4.6024000  2
   2751   4325   4323   4324     4  180.0000771  4.6024000  2
   2753   4337   4335   4336     4  180.0000771  4.6024000  2
   2777   4349   4347   4348     4  180.0000771  4.6024000  2
   2779   4361   4359   4360     4  180.0000771  4.6024000  2
   2803   4373   4371   4372     4  180.0000771  4.6024000  2
   2805   4385   4383   4384     4  180.0000771  4.6024000  2
   2829   4397   4395   4396     4  180.0000771  4.6024000  2
   2831   4409   4407   4408     4  180.0000771  4.6024000  2
   2855   4421   4419   4420     4  180.0000771  4.6024000  2
   2857   4433   4431   4432     4  180.0000771  4.6024000  2
   2881   4445   4443   4444     4  180.0000771  4.6024000  2
   2883   4457   4455   4456     4  180.0000771  4.6024000  2
   2907   4469   4467   4468     4  180.0000771  4.6024000  2
   2909   4481   4479   4480     4  180.0000771  4.6024000  2
   2933   4493   4491   4492     4  180.0000771  4.6024000  2
   2935   4505   4503   4504     4  180.0000771  4.6024000  2
   2959   4517   4515   4516     4  180.0000771  4.6024000  2
   2961   4529   4527   4528     4  180.0000771  4.6024000  2
   2985   4541   4539   4540     4  180.0000771  4.6024000  2
   2987   4553   4551   4552     4  180.0000771  4.6024000  2
   3011   4565   4563   4564     4  180.0000771  4.6024000  2
   3013   4577   4575   4576     4  180.0000771  4.6024000  2
   3037   4589   4587   4588     4  180.0000771  4.6024000  2
   3039   4601   4599   4600     4  180.0000771  4.6024000  2
   3063   4613   4611   4612     4  180.0000771  4.6024000  2
   3065   4625   4623   4624     4  180.0000771  4.6024000  2
   3089   4637   4635   4636     4  180.0000771  4.6024000  2
   3091   4649   4647   4648     4  180.0000771  4.6024000  2
   3115   4661   4659   4660     4  180.0000771  4.6024000  2
   3117   4673   4671   4672     4  180.0000771  4.6024000  2
   3141   4685   4683   4684     4  180.0000771  4.6024000  2
   3143   4697   4695   4696     4  180.0000771  4.6024000  2
   3167   4709   4707   4708     4  180.0000771  4.6024000  2
   3169   4721   4719   4720     4  180.0000771  4.6024000  2
   3193   4733   4731   4732     4  180.0000771  4.6024000  2
   3195   4745   4743   4744     4  180.0000771  4.6024000  2
   3219   4757   4755   4756     4  180.0000771  4.6024000  2
   3221   4769   4767   4768     4  180.0000771  4.6024000  2
   3245   4781   4779   4780     4  180.0000771  4.6024000  2
   3247   4793   4791   4792     4  180.0000771  4.6024000  2

;[ system ]
;; Name
;Generic title
;
;[ molecules ]
;; Compound       #mols
;g5dp_pamam           1
