G5DP-PAMAM in water
108656
    1aaa     N1    1   4.143   5.323   5.965  0.1825 -0.3484 -0.2236
    1aaa     C1    2   4.164   5.218   6.067  0.3653 -0.1135  0.6608
    1aaa     C2    3   4.198   5.074   6.013 -0.1217  0.1911 -0.3121
    1aaa     N2    4   4.211   4.961   6.118 -0.1254 -0.2439  0.0925
    1aaa     C3    5   4.295   4.997   6.241  0.0785 -0.3980  0.8563
    1aaa     C4    6   4.256   4.831   6.048 -0.0648 -0.2710 -0.1405
    1aaa     C5    7   4.265   5.345   5.870 -0.3416  0.6602 -0.2987
    1aaa     C6    8   4.113   5.457   6.028  0.0555  0.0586  0.4173
    1aaa     C7    9   4.153   4.785   5.947  0.1545  0.1557  0.5252
    1aaa     C8   10   4.202   4.670   5.857 -0.0051  0.7495 -0.2319
    1aaa     C9   11   4.317   4.879   6.348 -0.3241  0.3725 -0.1657
    1aaa    C10   12   4.386   4.928   6.474 -0.0213 -0.6467  0.2662
    1aaa    C11   13   4.241   5.423   5.739  1.4870  0.1428 -0.2533
    1aaa    C12   14   4.353   5.449   5.636  0.4308  0.2558  0.4813
    1aaa    C13   15   3.990   5.464   6.130  0.0288 -0.6858 -0.2686
    1aaa    C14   16   3.923   5.596   6.156  0.9613  0.1787  0.2709
    1aaa     O1   17   4.401   5.053   6.494 -0.5050  0.0760 -0.0300
    1aaa     O2   18   4.309   4.675   5.799 -0.2937  0.0385  0.0454
    1aaa     O3   19   3.848   5.652   6.080  0.0226  0.8832 -0.3932
    1aaa     O4   20   4.467   5.412   5.656 -0.3962 -0.1022  0.0050
    1aaa     H1   21   4.082   5.217   6.139  0.3009 -1.6896  0.6082
    1aaa     H2   22   4.254   5.247   6.121  0.8139 -0.4845  0.1276
    1aaa     H3   23   4.300   5.085   5.976  0.4864 -0.6245  1.0385
    1aaa     H4   24   4.128   5.055   5.932 -0.5407  1.3556 -0.2483
    1aaa     H5   25   4.247   5.085   6.285 -0.5206 -0.6275  0.6722
    1aaa     H6   26   4.395   5.026   6.209  0.4282 -1.9591  0.4516
    1aaa     H7   27   4.352   4.844   5.999 -0.3921 -2.0070 -1.3386
    1aaa     H8   28   4.271   4.755   6.125 -3.1621 -1.5263 -0.6073
    1aaa     H9   29   4.351   5.390   5.920 -0.4323  0.4836  0.0158
    1aaa    H10   30   4.305   5.247   5.844  1.0148  1.3166 -0.8288
    1aaa    H11   31   4.209   5.481   6.075  1.2917  1.0892 -2.4542
    1aaa    H12   32   4.100   5.524   5.943 -1.2971  0.7189  1.1131
    1aaa    H13   33   4.056   4.762   5.993  0.2179  1.9796  1.6673
    1aaa    H14   34   4.125   4.867   5.880 -0.2701 -1.7603 -1.8044
    1aaa    H15   35   4.390   4.808   6.308  1.7933  2.0548  0.5021
    1aaa    H16   36   4.229   4.827   6.386  0.9304 -2.5055 -0.9494
    1aaa    H17   37   4.160   5.367   5.691  0.4389 -0.2318  1.8724
    1aaa    H18   38   4.197   5.520   5.764  0.9856 -0.1885  0.1613
    1aaa    H19   39   3.908   5.392   6.117 -2.5671  1.7818  1.0084
    1aaa    H20   40   4.036   5.437   6.226 -0.4583 -0.5684  0.0017
    1aaa    H37   41   4.058   5.299   5.911  0.5322  0.7197 -1.2891
    1aaa    H38   42   4.114   4.952   6.150  0.1188  0.5610  1.1116
    2bbb     N1   43   3.964   4.333   5.728  0.2746 -0.5235 -0.0720
    2bbb     C1   44   3.812   4.306   5.773 -0.1818  0.3999 -0.1011
    2bbb     C2   45   4.007   4.248   5.604 -0.0857 -0.4377 -0.3734
    2bbb     C3   46   3.775   4.159   5.813 -0.0880  0.2681  0.5581
    2bbb     C4   47   3.639   4.140   5.883  0.3427 -0.2213  0.2889
    2bbb     C5   48   3.938   4.271   5.472  0.6023  0.6950 -0.6355
    2bbb     C6   49   3.995   4.172   5.361 -0.3361  0.0826  0.1114
    2bbb     C7   50   4.067   4.317   5.845 -0.4991  0.1474 -0.1717
    2bbb     C8   51   4.177   4.421   5.846 -0.2754 -0.0322  0.1354
    2bbb     N2   52   4.125   4.556   5.868 -0.1588  0.0472 -0.2175
    2bbb     O1   53   3.552   4.225   5.880 -0.5426 -0.2260  0.5077
    2bbb     O2   54   3.976   4.048   5.375  0.5211  0.4890 -0.1534
    2bbb     H1   55   3.802   4.370   5.861  0.7135 -0.0954  0.3729
    2bbb     H2   56   3.747   4.337   5.692 -0.9433 -0.9964 -0.0565
    2bbb     H3   57   4.002   4.142   5.630 -0.7436 -0.0833  1.0254
    2bbb     H4   58   4.110   4.277   5.585 -0.2911  0.8675  0.4233
    2bbb     H5   59   3.756   4.094   5.727 -1.1833 -1.7753  2.2492
    2bbb     H6   60   3.854   4.118   5.878  0.2818  1.5001  0.9257
    2bbb     H7   61   3.953   4.372   5.432 -0.6283 -0.1083 -3.3566
    2bbb     H8   62   3.831   4.254   5.483  0.8176  0.2167  0.9142
    2bbb     H9   63   4.097   4.212   5.845 -1.6411 -0.1950 -0.4187
    2bbb    H10   64   4.005   4.329   5.934 -0.4052 -1.0967  0.0830
    2bbb    H11   65   4.234   4.418   5.752  0.0320  0.3541  0.3069
    2bbb    H12   66   4.234   4.392   5.935 -1.5720 -1.9851  0.3987
    2bbb    H13   67   4.036   4.561   5.917 -1.2047  1.6934 -2.1249
    2bbb    H25   68   3.975   4.431   5.697  0.1233 -0.9179 -1.4417
    3bbb     N1   69   4.568   4.760   6.900  0.1054 -0.0388 -0.1778
    3bbb     C1   70   4.709   4.704   6.860  0.2159  0.4267 -0.4600
    3bbb     C2   71   4.494   4.689   7.007  0.2049 -0.1613 -0.0888
    3bbb     C3   72   4.801   4.670   6.981  0.4944  0.3377 -0.0656
    3bbb     C4   73   4.939   4.616   6.935  0.4237 -0.0979  0.0833
    3bbb     C5   74   4.405   4.786   7.095  0.1406  0.1948 -0.6841
    3bbb     C6   75   4.483   4.836   7.221  0.5834 -0.0482  0.0872
    3bbb     C7   76   4.480   4.777   6.781  0.2653  0.4611  0.4348
    3bbb     C8   77   4.532   4.835   6.649  0.6635  0.6249  0.2333
    3bbb     N2   78   4.440   4.823   6.544 -0.4606 -0.1431 -0.1686
    3bbb     O1   79   4.992   4.653   6.833 -0.1061 -0.3157 -0.2197
    3bbb     O2   80   4.607   4.841   7.221  0.1363 -0.1581 -0.0788
    3bbb     H1   81   4.696   4.610   6.805  0.7127 -0.6101  1.0967
    3bbb     H2   82   4.756   4.776   6.794  0.4009 -2.0210 -3.2353
    3bbb     H3   83   4.563   4.647   7.079 -1.2244 -1.8239  0.3890
    3bbb     H4   84   4.438   4.606   6.962  2.3864 -2.8322  1.7769
    3bbb     H5   85   4.817   4.755   7.048  0.1613 -0.1589  0.6509
    3bbb     H6   86   4.748   4.588   7.030 -0.0057  0.0055 -1.1252
    3bbb     H7   87   4.315   4.732   7.129 -0.3916  1.6715  0.3401
    3bbb     H8   88   4.375   4.876   7.040  0.5397 -0.4408 -1.9870
    3bbb     H9   89   4.390   4.834   6.804 -0.0531  0.2865 -0.3481
    3bbb    H10   90   4.448   4.675   6.762  0.4868  0.5292 -0.3465
    3bbb    H11   91   4.624   4.780   6.625  2.5798  2.2290  3.3346
    3bbb    H12   92   4.563   4.938   6.667  1.4892  0.1322  1.8477
    3bbb    H13   93   4.417   4.731   6.508 -0.6818 -0.5567  0.9831
    3bbb    H25   94   4.589   4.855   6.934  0.4421 -0.8238  1.9033
    4bbb     N1   95   4.431   5.611   5.150 -0.4081  0.3281  0.1741
    4bbb     C1   96   4.503   5.745   5.174  0.5690 -0.0199  0.3909
    4bbb     C2   97   4.354   5.617   5.018  0.0927 -0.2112  0.2027
    4bbb     C3   98   4.622   5.766   5.078 -0.0694 -0.3261 -0.1693
    4bbb     C4   99   4.720   5.868   5.120 -0.0257  0.0547 -0.0308
    4bbb     C5  100   4.231   5.712   5.007  0.1358 -0.1406 -0.3762
    4bbb     C6  101   4.209   5.742   4.857  0.3590 -0.0945 -0.2237
    4bbb     C7  102   4.337   5.575   5.266  0.5965  0.1885  0.2958
    4bbb     C8  103   4.403   5.532   5.405  0.8188 -0.3562  0.1990
    4bbb     N2  104   4.311   5.504   5.516  0.3628 -0.0563 -0.2931
    4bbb     O1  105   4.683   5.966   5.174 -0.5837  0.2603 -0.2456
    4bbb     O2  106   4.289   5.787   4.779  0.2925 -0.0084 -0.1394
    4bbb     H1  107   4.433   5.829   5.173  0.0710 -0.3954 -1.8398
    4bbb     H2  108   4.534   5.736   5.278 -0.3976 -1.6978  0.5679
    4bbb     H3  109   4.323   5.515   4.997  0.2413 -0.5555  1.5460
    4bbb     H4  110   4.428   5.642   4.941  1.1820 -0.3436  1.1723
    4bbb     H5  111   4.676   5.673   5.057 -1.2760 -1.0684 -0.1001
    4bbb     H6  112   4.566   5.789   4.986 -1.7263 -3.7417 -0.1929
    4bbb     H7  113   4.257   5.803   5.062  3.4957  0.1970 -2.2640
    4bbb     H8  114   4.146   5.666   5.058  1.9850 -1.3424  1.8442
    4bbb     H9  115   4.279   5.488   5.234 -0.3953  0.9336  0.0280
    4bbb    H10  116   4.271   5.661   5.272  1.4383  1.0669 -2.0403
    4bbb    H11  117   4.472   5.610   5.441 -1.0228  0.5031  2.1022
    4bbb    H12  118   4.460   5.439   5.396  1.1475 -0.1617  0.2360
    4bbb    H13  119   4.212   5.519   5.506  0.3553 -0.3316 -0.6310
    4bbb    H25  120   4.504   5.538   5.149  0.2121  0.9532 -1.0125
    5bbb     N1  121   3.855   5.949   6.502 -0.1546 -0.0510 -0.2341
    5bbb     C1  122   3.943   6.072   6.520 -0.7124 -0.2382 -0.4617
    5bbb     C2  123   3.810   5.904   6.636 -0.0825  0.0166  0.2908
    5bbb     C3  124   3.984   6.136   6.385 -0.0472 -0.5904  0.1981
    5bbb     C4  125   4.071   6.266   6.394 -0.1148 -0.3875 -0.0379
    5bbb     C5  126   3.676   5.958   6.689 -0.3348 -0.6115  0.1648
    5bbb     C6  127   3.637   5.890   6.816 -0.2299  0.2314 -0.2903
    5bbb     C7  128   3.939   5.841   6.435 -0.1616  0.0116 -0.3824
    5bbb     C8  129   3.865   5.769   6.323 -0.6247  0.6537 -0.0912
    5bbb     N2  130   3.945   5.653   6.278 -0.1240 -0.5455  0.6587
    5bbb     O1  131   4.167   6.267   6.464 -0.1137 -0.2026 -0.3323
    5bbb     O2  132   3.683   5.778   6.840 -0.3034  0.4859  0.3820
    5bbb     H1  133   3.894   6.140   6.590 -1.6680 -2.4137  1.0945
    5bbb     H2  134   4.039   6.043   6.565 -0.2111  1.6897 -0.1781
    5bbb     H3  135   3.892   5.929   6.703 -0.7877  1.8916  0.5035
    5bbb     H4  136   3.812   5.795   6.627  0.3229 -0.0540  1.1727
    5bbb     H5  137   4.032   6.061   6.320  0.0554  0.5072 -1.0398
    5bbb     H6  138   3.887   6.159   6.338 -0.0188  1.3086  0.9925
    5bbb     H7  139   3.590   5.945   6.623 -1.2219  0.3791  1.1122
    5bbb     H8  140   3.681   6.063   6.718 -1.4613 -0.7948  1.0868
    5bbb     H9  141   3.971   5.768   6.510 -0.6354  1.0667  0.8936
    5bbb    H10  142   4.036   5.879   6.401  0.8368 -2.1887 -0.1763
    5bbb    H11  143   3.850   5.841   6.241 -1.5762  0.4197 -0.1362
    5bbb    H12  144   3.764   5.744   6.360 -1.3626  1.4227 -1.4764
    5bbb    H13  145   4.017   5.618   6.340  0.0265  1.8780  1.9736
    5bbb    H25  146   3.782   5.972   6.433  0.2726 -0.0581 -0.6932
    6bbb     N1  147   3.405   3.767   6.124 -0.0045  0.3901 -0.4439
    6bbb     C1  148   3.457   3.621   6.157 -0.5057 -0.1129 -0.4085
    6bbb     C2  149   3.280   3.758   6.035 -0.5273  0.4981  0.0283
    6bbb     C3  150   3.552   3.553   6.057 -0.1727  0.5305  0.4308
    6bbb     C4  151   3.584   3.411   6.102 -0.2186  0.0168  0.6373
    6bbb     C5  152   3.159   3.706   6.115 -0.3548  0.7482 -0.0989
    6bbb     C6  153   3.028   3.750   6.057  0.0444 -0.3559 -0.4883
    6bbb     C7  154   3.519   3.837   6.056  0.0753 -0.4329 -0.6949
    6bbb     C8  155   3.493   3.982   6.006 -0.1244  0.1614 -0.0192
    6bbb     N2  156   3.613   4.019   5.936  0.1503  0.1299 -0.2808
    6bbb     O1  157   3.585   3.384   6.223  0.1343  0.5479  0.3132
    6bbb     O2  158   2.996   3.861   6.026  0.4160  0.6468  0.0502
    6bbb     H1  159   3.515   3.618   6.249 -0.8953 -0.7005 -0.1802
    6bbb     H2  160   3.369   3.558   6.172 -0.3311  0.1697  2.2031
    6bbb     H3  161   3.306   3.693   5.952 -2.4504 -0.8538  0.4199
    6bbb     H4  162   3.254   3.854   5.989 -0.2017 -0.3951 -2.1586
    6bbb     H5  163   3.505   3.541   5.959 -0.9570 -0.4825  0.9253
    6bbb     H6  164   3.647   3.608   6.042 -1.2490  2.9047  1.7045
    6bbb     H7  165   3.163   3.729   6.222  3.2358 -1.0702  0.3167
    6bbb     H8  166   3.163   3.597   6.103 -1.1766  0.5572  1.1305
    6bbb     H9  167   3.554   3.784   5.967 -0.2083  0.8853 -1.6130
    6bbb    H10  168   3.601   3.838   6.128  0.0491 -0.4032 -0.6659
    6bbb    H11  169   3.478   4.054   6.088 -1.2553 -0.9548  0.7935
    6bbb    H12  170   3.402   3.983   5.944 -0.7182 -1.0336  0.7933
    6bbb    H13  171   3.692   3.955   5.932  1.3512  1.4824  0.4527
    6bbb    H25  172   3.379   3.822   6.207  0.8597  0.8223 -0.4497
    7bbb     N1  173   4.187   4.007   4.998  0.4005 -0.2823  0.1824
    7bbb     C1  174   4.085   3.931   4.922  0.5660  0.3822 -0.2687
    7bbb     C2  175   4.274   3.911   5.085  0.1117 -0.4573 -0.0452
    7bbb     C3  176   4.009   4.003   4.806 -0.6014 -0.3450  0.6058
    7bbb     C4  177   3.913   3.906   4.747 -0.5166 -0.1355 -0.4208
    7bbb     C5  178   4.353   3.805   5.013  1.1488 -0.3145 -0.2843
    7bbb     C6  179   4.471   3.865   4.942 -0.1129  0.5029 -0.6432
    7bbb     C7  180   4.112   4.104   5.080 -0.2405  0.4670 -0.3372
    7bbb     C8  181   4.186   4.174   5.198  0.5487 -0.8593 -0.1713
    7bbb     N2  182   4.077   4.241   5.272  0.1696  0.1388 -0.3892
    7bbb     O1  183   3.944   3.829   4.662 -0.1631  0.0226  0.8785
    7bbb     O2  184   4.482   3.987   4.922  0.4971  0.2016  0.3263
    7bbb     H1  185   4.126   3.840   4.877 -0.3097 -0.3404  0.3544
    7bbb     H2  186   4.008   3.893   4.990  0.9825  0.9319  0.5312
    7bbb     H3  187   4.201   3.870   5.154 -0.9790  0.3199 -0.6965
    7bbb     H4  188   4.342   3.980   5.135 -3.0957  1.6293  1.8145
    7bbb     H5  189   3.956   4.094   4.833 -0.8344  0.7392 -2.9519
    7bbb     H6  190   4.070   4.024   4.717 -1.6719 -2.1383 -0.6273
    7bbb     H7  191   4.279   3.747   4.956 -1.0148  2.5989 -0.6873
    7bbb     H8  192   4.395   3.733   5.085 -1.0463 -1.6461 -0.2335
    7bbb     H9  193   4.043   4.038   5.133 -0.2069 -0.6930 -1.6882
    7bbb    H10  194   4.050   4.175   5.027 -2.1930 -0.4879  0.5659
    7bbb    H11  195   4.258   4.248   5.161 -0.4772 -0.3477 -1.2163
    7bbb    H12  196   4.234   4.109   5.272  1.3815 -0.4020 -0.3039
    7bbb    H13  197   4.091   4.341   5.277 -0.6757  0.2643 -0.3312
    7bbb    H25  198   4.246   4.056   4.929  0.6848 -1.9083 -0.7633
    8bbb     N1  199   5.313   4.309   7.095  0.3036 -0.4143  0.0929
    8bbb     C1  200   5.273   4.191   7.005 -0.5814 -1.0956  0.3772
    8bbb     C2  201   5.365   4.267   7.234  0.0196  0.5619  0.0318
    8bbb     C3  202   5.354   4.050   7.010  0.5050  0.1241 -0.2374
    8bbb     C4  203   5.315   3.964   6.890 -0.2470 -0.0610 -0.2964
    8bbb     C5  204   5.424   4.373   7.331  0.4327 -0.0160  0.4954
    8bbb     C6  205   5.567   4.342   7.374  0.4634 -0.1597 -0.6785
    8bbb     C7  206   5.195   4.403   7.125  0.2475 -0.1718 -0.5412
    8bbb     C8  207   5.150   4.499   7.014  0.0280  0.9780  0.3258
    8bbb     N2  208   5.013   4.540   7.032 -0.3270 -0.2180  0.4179
    8bbb     O1  209   5.211   3.987   6.820  0.1191  0.1887  0.1875
    8bbb     O2  210   5.640   4.278   7.305 -0.1386  0.2580  0.4548
    8bbb     H1  211   5.166   4.174   7.012 -0.7337 -1.2140 -1.6681
    8bbb     H2  212   5.300   4.231   6.907  3.4354 -0.0901  1.7052
    8bbb     H3  213   5.438   4.189   7.213  0.5199  0.5674  1.5845
    8bbb     H4  214   5.283   4.212   7.280  0.2073 -0.4007 -0.7391
    8bbb     H5  215   5.462   4.065   7.022  0.8222  0.5667 -2.9189
    8bbb     H6  216   5.313   3.987   7.089  1.3947  1.1847  1.1272
    8bbb     H7  217   5.366   4.366   7.424  0.5708 -1.1528  0.5105
    8bbb     H8  218   5.413   4.477   7.298  0.1926  0.7616  2.7902
    8bbb     H9  219   5.231   4.462   7.209  1.1537  0.5185 -1.3856
    8bbb    H10  220   5.112   4.337   7.150  1.0253 -0.3961  1.6754
    8bbb    H11  221   5.164   4.445   6.920  1.7772 -0.6354  1.4308
    8bbb    H12  222   5.210   4.591   7.009 -2.6302  2.8632  1.0583
    8bbb    H13  223   4.971   4.540   7.125 -2.2366  0.8233 -0.3887
    8bbb    H25  224   5.388   4.350   7.037  0.9598 -2.1171 -0.3297
    9bbb     N1  225   4.503   4.903   7.708  0.2460 -0.1954 -0.0786
    9bbb     C1  226   4.642   4.959   7.727 -0.4546 -0.2469 -0.6440
    9bbb     C2  227   4.497   4.795   7.814 -0.3955  0.3271  0.0203
    9bbb     C3  228   4.637   5.099   7.788 -0.4823 -0.3913  0.0608
    9bbb     C4  229   4.767   5.172   7.769 -0.8105 -0.8112 -0.0748
    9bbb     C5  230   4.361   4.746   7.849  0.4953 -0.0865 -0.3532
    9bbb     C6  231   4.351   4.647   7.972 -0.3294 -0.2239  0.0761
    9bbb     C7  232   4.478   4.844   7.573  0.7283 -1.0579 -0.0832
    9bbb     C8  233   4.462   4.938   7.454 -0.0925 -0.2147  0.4673
    9bbb     N2  234   4.409   4.881   7.330  0.8055  0.4382 -0.4394
    9bbb     O1  235   4.869   5.133   7.723  0.0324  0.3865 -0.3854
    9bbb     O2  236   4.444   4.571   7.989 -0.1984 -0.0087 -0.0240
    9bbb     H1  237   4.699   4.884   7.784  1.0686  0.8511 -0.6693
    9bbb     H2  238   4.697   4.968   7.633  1.1016 -0.6023  0.1974
    9bbb     H3  239   4.548   4.838   7.901  1.7854  0.9927 -1.5137
    9bbb     H4  240   4.552   4.704   7.789 -0.1684 -0.0059  1.6149
    9bbb     H5  241   4.553   5.161   7.755 -0.4135  0.2932  1.1247
    9bbb     H6  242   4.629   5.094   7.897  3.4935 -1.5599  0.4753
    9bbb     H7  243   4.313   4.698   7.762  2.2500 -2.0803 -0.3039
    9bbb     H8  244   4.300   4.832   7.880  0.2960  0.6806 -2.6887
    9bbb     H9  245   4.387   4.784   7.579 -1.0359  1.5973  1.2949
    9bbb    H10  246   4.563   4.778   7.555  2.0477  1.0835 -2.2859
    9bbb    H11  247   4.562   4.975   7.426  0.0470 -0.3212  0.8177
    9bbb    H12  248   4.404   5.029   7.474 -1.9614 -1.3686  0.4927
    9bbb    H13  249   4.310   4.859   7.330  0.4723  1.6864  1.6039
    9bbb    H25  250   4.431   4.974   7.726 -0.4515 -0.7963 -0.4517
   10bbb     N1  251   5.104   6.107   4.988  0.2462 -0.2438  0.4877
   10bbb     C1  252   5.181   6.139   4.853  0.4630 -0.1615 -0.8825
   10bbb     C2  253   5.209   6.108   5.105  0.2397 -0.1621  0.8768
   10bbb     C3  254   5.254   6.277   4.843 -0.0615 -0.3738  0.4959
   10bbb     C4  255   5.316   6.313   4.707 -0.2893  0.2523 -0.4446
   10bbb     C5  256   5.323   6.005   5.109 -0.5533  0.6110 -0.1995
   10bbb     C6  257   5.446   6.016   5.024  0.1476 -0.5758  0.1847
   10bbb     C7  258   5.021   5.980   4.975 -0.1912  0.8403  0.2708
   10bbb     C8  259   4.956   5.933   5.101  0.0502  0.0937 -0.1084
   10bbb     N2  260   4.842   5.847   5.076 -0.2810  0.1790 -0.1438
   10bbb     O1  261   5.433   6.289   4.690 -0.4094 -0.2464  0.6223
   10bbb     O2  262   5.448   5.984   4.906  0.2322 -0.7522  0.2979
   10bbb     H1  263   5.250   6.055   4.846 -1.3995 -1.7662 -0.7970
   10bbb     H2  264   5.106   6.126   4.776 -1.1515  0.7778  0.4647
   10bbb     H3  265   5.153   6.099   5.198  1.1691  3.2282  1.8888
   10bbb     H4  266   5.240   6.212   5.109  3.0783 -0.6720 -2.7131
   10bbb     H5  267   5.187   6.358   4.874  1.4641  0.1698  2.5962
   10bbb     H6  268   5.333   6.279   4.919  0.8153  1.7548 -0.4001
   10bbb     H7  269   5.280   5.907   5.084 -2.4617  1.0813  1.0461
   10bbb     H8  270   5.350   5.998   5.215  0.2200 -0.8493 -0.4734
   10bbb     H9  271   5.085   5.901   4.935 -1.3213 -0.3481  0.7467
   10bbb    H10  272   4.947   6.002   4.899  0.5248 -1.3032 -1.1374
   10bbb    H11  273   4.914   6.020   5.153  0.1125  0.0215  0.0625
   10bbb    H12  274   5.027   5.880   5.165  0.0890 -0.5922 -0.6935
   10bbb    H13  275   4.857   5.750   5.050  0.2156  0.0855  0.4742
   10bbb    H25  276   5.042   6.186   5.010  1.3157  0.7008  0.2151
   11bbb     N1  277   3.839   5.705   4.505  0.2252 -0.4398 -0.1190
   11bbb     C1  278   3.786   5.848   4.507 -0.2314 -0.0962  0.0748
   11bbb     C2  279   3.727   5.606   4.461 -0.5074 -0.6910 -1.2706
   11bbb     C3  280   3.753   5.907   4.366 -0.0040 -0.2121 -0.5469
   11bbb     C4  281   3.670   6.038   4.372 -0.2355  0.3157 -0.7971
   11bbb     C5  282   3.592   5.621   4.535  0.2406  0.2761  0.2462
   11bbb     C6  283   3.510   5.497   4.523  0.5027 -0.2401 -0.8456
   11bbb     C7  284   3.899   5.667   4.635  1.1499 -0.0533 -0.4682
   11bbb     C8  285   4.033   5.738   4.675 -0.0563 -0.3727 -0.0373
   11bbb     N2  286   4.078   5.720   4.816  0.3368  0.2756 -0.7233
   11bbb     O1  287   3.645   6.094   4.477  0.2540 -0.0059 -0.0225
   11bbb     O2  288   3.435   5.465   4.614 -0.3861 -0.0998  0.0606
   11bbb     H1  289   3.693   5.852   4.563  0.1633 -3.6579  1.1880
   11bbb     H2  290   3.855   5.918   4.555 -0.5936 -0.0044  0.4679
   11bbb     H3  291   3.766   5.508   4.487 -2.1314 -1.5365 -1.9020
   11bbb     H4  292   3.712   5.610   4.353 -0.5397 -0.3659 -1.2545
   11bbb     H5  293   3.838   5.915   4.297 -0.4405 -1.5683 -1.2682
   11bbb     H6  294   3.683   5.838   4.317 -1.9230  1.3153 -0.0938
   11bbb     H7  295   3.540   5.707   4.490  0.1709 -0.5278 -1.2661
   11bbb     H8  296   3.607   5.636   4.643 -1.5827 -1.5645  0.8093
   11bbb     H9  297   3.929   5.563   4.626  0.2093 -0.5078  1.2268
   11bbb    H10  298   3.831   5.688   4.717  0.4721 -0.5166 -0.9065
   11bbb    H11  299   4.040   5.847   4.659  0.1265 -0.1623  1.3490
   11bbb    H12  300   4.101   5.700   4.598 -1.6492  0.0161 -1.7138
   11bbb    H13  301   4.003   5.693   4.878  1.1338 -0.8385 -0.2172
   11bbb    H25  302   3.911   5.700   4.432  1.1546 -1.4244  0.8227
   12bbb     N1  303   4.036   6.760   6.289 -0.0731 -0.0624  0.2825
   12bbb     C1  304   3.946   6.852   6.212  0.0932 -0.3616  0.1990
   12bbb     C2  305   4.182   6.785   6.259  0.5043  0.3905 -0.2314
   12bbb     C3  306   3.981   7.002   6.214  0.2679 -0.5230  0.5768
   12bbb     C4  307   3.883   7.096   6.150  0.3977  0.1426  0.0329
   12bbb     C5  308   4.234   6.754   6.118  0.1544 -0.3473  0.3082
   12bbb     C6  309   4.387   6.759   6.114 -0.7490  0.5479 -0.2176
   12bbb     C7  310   3.986   6.618   6.288  0.3973  0.1625  0.6318
   12bbb     C8  311   4.062   6.510   6.374  0.0401  0.0498 -0.2495
   12bbb     N2  312   4.019   6.375   6.339  0.0704  0.0982  0.3751
   12bbb     O1  313   3.784   7.058   6.089 -0.3005 -0.3294  0.1175
   12bbb     O2  314   4.457   6.767   6.215  0.5467  0.4379 -0.3756
   12bbb     H1  315   3.938   6.820   6.108  0.4531 -0.4291  0.1925
   12bbb     H2  316   3.854   6.834   6.269  0.0246  0.1934  0.2679
   12bbb     H3  317   4.238   6.732   6.336  1.2562  1.2984 -0.1390
   12bbb     H4  318   4.209   6.889   6.278 -0.9899  0.6096  0.8462
   12bbb     H5  319   3.991   7.018   6.323  1.0737 -1.5983  0.6809
   12bbb     H6  320   4.077   7.014   6.163  0.4070 -1.1883  0.6744
   12bbb     H7  321   4.190   6.830   6.052  1.5457  2.0007  1.9206
   12bbb     H8  322   4.206   6.654   6.084 -0.4606  0.0956 -0.5118
   12bbb     H9  323   3.990   6.588   6.183 -3.6504 -2.8201  1.0884
   12bbb    H10  324   3.882   6.617   6.319 -0.4154 -0.2229 -1.9473
   12bbb    H11  325   4.042   6.535   6.479  0.6922  3.3294 -0.7966
   12bbb    H12  326   4.170   6.516   6.359 -0.1329  3.0196 -0.9894
   12bbb    H13  327   3.929   6.356   6.298 -0.5905 -1.0170  2.2287
   12bbb    H25  328   4.032   6.795   6.386  0.3835  0.3446  0.1609
   13bbb     N1  329   3.228   5.929   6.988  0.3364 -0.3424 -0.1002
   13bbb     C1  330   3.202   5.971   7.138  0.3933  0.3308 -0.2095
   13bbb     C2  331   3.097   5.865   6.932  0.2855 -0.2153  0.7368
   13bbb     C3  332   3.118   5.866   7.222  0.1791 -0.1358 -0.2343
   13bbb     C4  333   3.104   5.910   7.366  0.3041 -0.4786 -0.5470
   13bbb     C5  334   2.981   5.961   6.921 -0.1776 -0.1338  0.6102
   13bbb     C6  335   2.861   5.881   6.867  0.4231 -0.8427  0.4436
   13bbb     C7  336   3.339   5.824   6.992  0.9640  0.1152  0.6795
   13bbb     C8  337   3.485   5.869   7.015  0.0750 -0.3901 -0.5214
   13bbb     N2  338   3.544   5.946   6.899  0.4660  0.0074  0.0477
   13bbb     O1  339   3.106   6.028   7.400 -0.4266 -0.2895  0.2342
   13bbb     O2  340   2.831   5.770   6.910  0.1296  0.0279  0.3683
   13bbb     H1  341   3.297   5.999   7.184  0.8286  0.1663 -0.9951
   13bbb     H2  342   3.138   6.059   7.143 -0.4621 -0.3260  0.7112
   13bbb     H3  343   3.075   5.778   6.994 -1.5697  0.3069  0.8936
   13bbb     H4  344   3.115   5.831   6.830 -1.0556  0.7320  0.1388
   13bbb     H5  345   3.018   5.851   7.178  0.8330 -2.5923 -0.9888
   13bbb     H6  346   3.162   5.767   7.234  0.6524  0.2319  1.3074
   13bbb     H7  347   3.008   6.038   6.847  1.4079 -1.4326 -0.2362
   13bbb     H8  348   2.964   6.016   7.014 -1.2767 -1.2505  1.1047
   13bbb     H9  349   3.323   5.767   6.901 -0.6711  0.0437  0.9831
   13bbb    H10  350   3.313   5.757   7.074 -0.6562 -0.5236 -0.3228
   13bbb    H11  351   3.559   5.788   7.024  2.1802  1.2429 -1.9951
   13bbb    H12  352   3.494   5.923   7.110  0.4425  0.9636 -1.2996
   13bbb    H13  353   3.511   6.041   6.886 -0.5565 -0.0819  1.7665
   13bbb    H25  354   3.254   6.007   6.927 -2.1455 -0.8356 -1.9700
   14bbb     N1  355   3.784   3.017   6.161  0.3427 -0.5677  0.3857
   14bbb     C1  356   3.664   2.929   6.198 -0.6194  0.0220 -0.2573
   14bbb     C2  357   3.894   3.016   6.266 -1.1484 -0.0898 -0.3609
   14bbb     C3  358   3.577   2.982   6.311  0.3294 -0.3251 -0.2744
   14bbb     C4  359   3.504   2.862   6.389  0.3052 -0.0768  0.5526
   14bbb     C5  360   3.945   2.871   6.292 -0.1409 -0.0108  0.6459
   14bbb     C6  361   4.054   2.855   6.392  0.0060 -0.0649  0.3105
   14bbb     C7  362   3.742   3.157   6.132  0.1290  0.0012 -0.0954
   14bbb     C8  363   3.645   3.181   6.013 -0.5830  0.6933 -0.5691
   14bbb     N2  364   3.626   3.326   6.001  0.1843 -0.2312 -0.5659
   14bbb     O1  365   3.566   2.767   6.428 -0.2670 -0.2402  0.3866
   14bbb     O2  366   4.117   2.949   6.439 -0.3156 -0.1627 -0.4162
   14bbb     H1  367   3.601   2.919   6.109  1.1939 -0.6983 -1.5189
   14bbb     H2  368   3.697   2.829   6.228 -0.6864  0.5042  1.5255
   14bbb     H3  369   3.851   3.054   6.359 -2.3512  0.0412 -0.9397
   14bbb     H4  370   3.976   3.084   6.242  0.6290 -1.3861  1.7213
   14bbb     H5  371   3.634   3.041   6.384  0.3606  1.1681 -1.4626
   14bbb     H6  372   3.504   3.054   6.273 -1.2524 -1.5006  0.4336
   14bbb     H7  373   3.984   2.825   6.200  2.1048  0.3074  1.3852
   14bbb     H8  374   3.860   2.810   6.325  0.4840 -0.7410  0.9361
   14bbb     H9  375   3.839   3.205   6.119  1.1231 -1.5066  1.3656
   14bbb    H10  376   3.701   3.203   6.222  2.5209  0.7544  0.6875
   14bbb    H11  377   3.548   3.139   6.039 -0.5618  1.7664  1.5007
   14bbb    H12  378   3.698   3.141   5.926 -0.7828  0.3588 -0.5391
   14bbb    H13  379   3.644   3.374   5.914  0.9349 -1.2533 -0.9863
   14bbb    H25  380   3.832   2.981   6.078  2.7033  1.6337  0.6700
   15bbb     N1  381   2.557   3.592   5.931  0.1554  0.2678  0.0668
   15bbb     C1  382   2.470   3.475   5.937  0.0030  0.3977  0.0753
   15bbb     C2  383   2.531   3.657   5.794 -0.6282  0.0569 -0.0258
   15bbb     C3  384   2.425   3.425   6.078 -0.6587 -0.0332  1.3429
   15bbb     C4  385   2.338   3.305   6.082  0.1428  0.0342  0.6225
   15bbb     C5  386   2.482   3.803   5.814 -0.1553  0.1875  0.1875
   15bbb     C6  387   2.478   3.876   5.676 -0.3677  0.2586  0.4142
   15bbb     C7  388   2.703   3.562   5.974  0.3226  0.0295 -0.1884
   15bbb     C8  389   2.798   3.681   5.978 -0.6958 -0.0895 -1.0695
   15bbb     N2  390   2.927   3.654   6.050 -0.0118 -0.0750  0.4061
   15bbb     O1  391   2.310   3.252   5.979  0.2054  0.1415  0.1199
   15bbb     O2  392   2.561   3.862   5.593 -0.6950  0.2738 -0.2898
   15bbb     H1  393   2.383   3.498   5.875 -0.7329 -1.2285  0.4513
   15bbb     H2  394   2.513   3.383   5.896 -0.0312  0.3895  0.0579
   15bbb     H3  395   2.454   3.595   5.749 -1.4231 -0.5214  2.0395
   15bbb     H4  396   2.628   3.662   5.743 -0.8491  0.2638 -0.4333
   15bbb     H5  397   2.518   3.403   6.132  0.7164 -2.6294 -1.7426
   15bbb     H6  398   2.371   3.501   6.135  1.1185  0.4548  2.4639
   15bbb     H7  399   2.548   3.867   5.875 -0.5809 -0.5725  1.4830
   15bbb     H8  400   2.385   3.819   5.863  0.5377  2.5001  0.9691
   15bbb     H9  401   2.738   3.481   5.910 -0.2468 -2.0590  1.9928
   15bbb    H10  402   2.693   3.516   6.073 -1.7683 -0.5180 -0.6217
   15bbb    H11  403   2.757   3.770   6.026 -0.8749  0.2986 -1.9266
   15bbb    H12  404   2.826   3.716   5.878 -1.9583  1.4568 -0.9224
   15bbb    H13  405   2.939   3.566   6.099 -1.6510 -0.6315 -0.1221
   15bbb    H25  406   2.534   3.660   6.004 -1.7861  1.5308 -1.6290
   16bbb     N1  407   3.508   3.901   4.547 -0.1634  0.2149  0.0635
   16bbb     C1  408   3.487   4.001   4.436  1.0003  0.5526 -0.4781
   16bbb     C2  409   3.379   3.899   4.636 -0.5722 -0.6446 -0.0714
   16bbb     C3  410   3.579   4.016   4.310 -0.7871  0.4073 -0.4990
   16bbb     C4  411   3.544   3.920   4.199  0.1464 -0.0094 -0.2758
   16bbb     C5  412   3.243   3.854   4.573  0.9606 -0.4680  0.4532
   16bbb     C6  413   3.252   3.713   4.522 -0.4393 -0.0994  0.3988
   16bbb     C7  414   3.619   3.955   4.630 -0.6837  0.0188 -0.4128
   16bbb     C8  415   3.668   3.863   4.741 -0.1557  0.7483 -0.4963
   16bbb     N2  416   3.788   3.918   4.802 -0.7706 -0.9055  0.2307
   16bbb     O1  417   3.449   3.844   4.208 -0.2454 -0.0500 -0.0323
   16bbb     O2  418   3.308   3.624   4.585  0.4356  0.5868  0.0474
   16bbb     H1  419   3.383   3.988   4.405  1.2871 -2.2459 -0.4423
   16bbb     H2  420   3.498   4.094   4.492  1.0032 -0.3538  1.0734
   16bbb     H3  421   3.378   3.997   4.684 -0.5183 -1.6052  1.9835
   16bbb     H4  422   3.404   3.826   4.714  1.2962  1.3561  1.3400
   16bbb     H5  423   3.582   4.117   4.267 -1.2903  0.9383  0.6708
   16bbb     H6  424   3.681   3.999   4.346 -1.6767 -0.6247  1.7238
   16bbb     H7  425   3.208   3.923   4.495  0.6935 -1.2345 -0.1187
   16bbb     H8  426   3.169   3.854   4.654  2.1852  2.0196  1.6643
   16bbb     H9  427   3.596   4.051   4.677 -0.5195 -0.0110 -0.2690
   16bbb    H10  428   3.701   3.966   4.559 -1.5814  2.5847 -1.1624
   16bbb    H11  429   3.690   3.765   4.697 -1.7974 -0.1655  0.5976
   16bbb    H12  430   3.585   3.866   4.812  0.3343  1.0015  0.0720
   16bbb    H13  431   3.782   3.999   4.863  2.5141 -1.0112  0.8923
   16bbb    H25  432   3.534   3.810   4.506 -0.0563  0.7520 -1.0814
   17bbb     N1  433   4.787   3.563   4.792 -0.0947 -0.0283 -0.4705
   17bbb     C1  434   4.899   3.509   4.878 -0.1717  0.2425  0.0733
   17bbb     C2  435   4.808   3.523   4.647 -0.4907 -0.2555 -0.4297
   17bbb     C3  436   4.902   3.348   4.879 -0.0060 -0.0111  0.3006
   17bbb     C4  437   5.032   3.298   4.929 -0.5959  0.5427  0.1101
   17bbb     C5  438   4.925   3.591   4.575 -0.0857 -0.7170  0.2497
   17bbb     C6  439   4.932   3.548   4.431  0.4845 -0.2842  0.4076
   17bbb     C7  440   4.795   3.715   4.824  0.1479 -0.7437 -0.3539
   17bbb     C8  441   4.667   3.804   4.805 -0.6534 -0.3337 -0.0452
   17bbb     N2  442   4.561   3.774   4.904  0.1977 -0.1865 -0.2398
   17bbb     O1  443   5.118   3.365   4.983 -0.0568 -0.2714 -0.3750
   17bbb     O2  444   4.867   3.456   4.387  0.3040  0.4924 -0.2101
   17bbb     H1  445   4.997   3.551   4.856  0.7239 -0.1439  2.8718
   17bbb     H2  446   4.883   3.533   4.983  0.5577  0.2082  0.1969
   17bbb     H3  447   4.709   3.545   4.607  0.1580  0.9045 -1.4966
   17bbb     H4  448   4.825   3.415   4.643  0.9506 -0.0809  0.1397
   17bbb     H5  449   4.815   3.300   4.926  1.6504 -1.6191  1.8418
   17bbb     H6  450   4.903   3.313   4.775  0.1276  0.0712  0.2738
   17bbb     H7  451   5.027   3.576   4.613  1.5866 -1.2123 -3.8840
   17bbb     H8  452   4.901   3.698   4.569 -0.8085 -0.6903  2.4387
   17bbb     H9  453   4.870   3.759   4.757  0.2272 -0.6134 -0.1795
   17bbb    H10  454   4.828   3.734   4.925 -1.6986  0.5030  0.0773
   17bbb    H11  455   4.628   3.788   4.704 -0.3395  1.5290 -0.5140
   17bbb    H12  456   4.699   3.909   4.806 -0.2387 -0.4598  0.0127
   17bbb    H13  457   4.539   3.678   4.927 -0.0216 -0.6016 -2.0001
   17bbb    H25  458   4.697   3.529   4.828 -0.4680  0.6352 -0.7602
   18bbb     N1  459   5.593   3.581   6.879 -0.3075  0.7317 -0.6649
   18bbb     C1  460   5.740   3.587   6.843  0.1563  0.3523 -0.2265
   18bbb     C2  461   5.548   3.436   6.901 -0.3811 -0.6688  0.5106
   18bbb     C3  462   5.767   3.528   6.705 -1.1233 -0.6884  0.3124
   18bbb     C4  463   5.922   3.501   6.679  0.1372 -0.3551  0.8960
   18bbb     C5  464   5.618   3.363   7.018  0.0266  0.2542 -0.0264
   18bbb     C6  465   5.565   3.226   7.049  0.8015 -0.0267 -0.0157
   18bbb     C7  466   5.511   3.654   6.777 -0.4706 -0.6166 -0.4031
   18bbb     C8  467   5.375   3.734   6.810 -0.1600 -0.1875  0.5001
   18bbb     N2  468   5.403   3.864   6.865 -0.6227 -0.4017  0.3758
   18bbb     O1  469   6.016   3.541   6.747  0.1513 -0.3517  1.0090
   18bbb     O2  470   5.456   3.188   6.996 -0.6348 -0.1334  0.5466
   18bbb     H1  471   5.772   3.691   6.851  1.0969 -0.0290  1.4655
   18bbb     H2  472   5.800   3.521   6.906 -1.1379 -0.1020  0.5686
   18bbb     H3  473   5.573   3.379   6.812  0.9165 -1.0250  1.0723
   18bbb     H4  474   5.441   3.450   6.918  0.0049  2.5301  1.0013
   18bbb     H5  475   5.718   3.430   6.694  2.6606 -2.7897  0.2907
   18bbb     H6  476   5.733   3.594   6.624 -0.7718 -1.7462 -0.7404
   18bbb     H7  477   5.627   3.426   7.107 -0.9353  0.6519 -0.1898
   18bbb     H8  478   5.722   3.343   6.989  0.1183  0.4811  0.1429
   18bbb     H9  479   5.502   3.588   6.691  0.2323  0.1809 -1.1130
   18bbb    H10  480   5.580   3.728   6.736 -0.7355  0.3394  0.8341
   18bbb    H11  481   5.315   3.674   6.880  0.7566 -1.6515  0.0766
   18bbb    H12  482   5.329   3.740   6.711  3.2472 -0.9275 -1.2895
   18bbb    H13  483   5.482   3.860   6.928  0.6202  0.0002 -1.1101
   18bbb    H25  484   5.578   3.626   6.971  0.6252 -0.4058  0.0669
   19bbb     N1  485   5.931   4.420   7.705  0.1196 -0.0107  0.6629
   19bbb     C1  486   5.921   4.289   7.784 -0.4368 -0.5381 -0.4446
   19bbb     C2  487   5.979   4.527   7.798 -0.0662  0.1597  0.6529
   19bbb     C3  488   6.055   4.226   7.817  0.1045  0.4744  0.3702
   19bbb     C4  489   6.041   4.086   7.886  0.1829 -0.4307  1.2965
   19bbb     C5  490   6.026   4.651   7.720  0.2991 -0.0160 -0.3694
   19bbb     C6  491   6.122   4.726   7.800  0.0338 -1.3146  0.5698
   19bbb     C7  492   5.788   4.452   7.661  0.0179 -0.7326  0.2794
   19bbb     C8  493   5.750   4.395   7.518 -1.0073  0.0110 -0.3519
   19bbb     N2  494   5.608   4.403   7.487  0.2688 -0.0823  0.4126
   19bbb     O1  495   5.936   4.020   7.881 -0.0413 -0.1661 -0.1126
   19bbb     O2  496   6.148   4.714   7.918 -0.2868 -0.5901 -0.4974
   19bbb     H1  497   5.854   4.309   7.867  0.8005 -1.6158  0.8666
   19bbb     H2  498   5.869   4.217   7.720 -0.0734  0.4543 -1.9076
   19bbb     H3  499   6.061   4.484   7.856 -0.3498 -3.4563 -1.3270
   19bbb     H4  500   5.904   4.554   7.873  1.0021  1.0007  1.4491
   19bbb     H5  501   6.099   4.201   7.720 -1.2482 -0.4997 -0.0164
   19bbb     H6  502   6.117   4.293   7.878  0.1063  0.0193  0.8781
   19bbb     H7  503   5.944   4.723   7.704 -0.1023 -0.8039 -2.1593
   19bbb     H8  504   6.055   4.617   7.620 -2.1010 -0.0432 -1.1327
   19bbb     H9  505   5.791   4.560   7.645  2.5180 -0.9940 -1.5868
   19bbb    H10  506   5.717   4.432   7.742 -0.2781 -1.2788 -0.1098
   19bbb    H11  507   5.773   4.288   7.521 -1.2411 -0.0977 -1.8409
   19bbb    H12  508   5.810   4.440   7.438 -1.1652 -1.5123 -1.3638
   19bbb    H13  509   5.546   4.472   7.526 -1.1754 -1.8041  1.3221
   19bbb    H25  510   5.995   4.413   7.625  1.7634  2.6529  1.6044
   20bbb     N1  511   4.965   5.608   7.892 -0.4525 -0.2536 -0.0104
   20bbb     C1  512   5.017   5.666   8.022 -0.0482  0.1697  0.0780
   20bbb     C2  513   4.931   5.722   7.797  0.3199 -0.2332 -0.0054
   20bbb     C3  514   4.916   5.753   8.099 -0.2459  0.0466 -0.2789
   20bbb     C4  515   4.935   5.760   8.253 -0.2757  0.6395  0.1549
   20bbb     C5  516   5.038   5.819   7.750  0.1660 -0.0297 -0.0102
   20bbb     C6  517   5.144   5.748   7.664  0.0029 -0.3093 -0.4183
   20bbb     C7  518   4.860   5.502   7.915  0.4095  0.1904  0.1357
   20bbb     C8  519   4.840   5.414   7.786 -0.3251 -0.3842 -0.4453
   20bbb     N2  520   4.752   5.302   7.798 -0.0472 -0.5684 -0.0042
   20bbb     O1  521   5.044   5.736   8.297 -0.1414  0.2112 -0.4491
   20bbb     O2  522   5.130   5.632   7.631 -0.1380  0.2105  0.2984
   20bbb     H1  523   5.029   5.580   8.088 -0.5806  0.2345  0.2618
   20bbb     H2  524   5.111   5.719   8.006  0.0289  0.2833  0.9054
   20bbb     H3  525   4.855   5.781   7.848 -0.4425  0.7067 -2.1150
   20bbb     H4  526   4.885   5.663   7.717  0.6262 -0.7289  0.1814
   20bbb     H5  527   4.911   5.853   8.054 -0.5389  0.8755  1.5231
   20bbb     H6  528   4.819   5.706   8.082 -0.6311 -0.6859  3.2691
   20bbb     H7  529   5.081   5.879   7.830 -0.6504  1.7212 -0.8271
   20bbb     H8  530   4.992   5.903   7.696  2.2612  1.8558  0.9871
   20bbb     H9  531   4.763   5.549   7.933  0.5935  1.1868 -1.3333
   20bbb    H10  532   4.898   5.438   7.994  1.5929 -1.5129 -1.7195
   20bbb    H11  533   4.936   5.365   7.765 -0.5812 -0.7692 -0.7257
   20bbb    H12  534   4.804   5.483   7.710 -0.8320  0.0629  0.1867
   20bbb    H13  535   4.657   5.324   7.826  0.1060 -0.7927  0.7026
   20bbb    H25  536   5.047   5.559   7.854 -0.6030 -1.6964  1.4555
   21bbb     N1  537   4.071   4.670   8.315  0.0991 -0.5918 -0.1796
   21bbb     C1  538   4.140   4.625   8.442 -0.3799 -0.1760 -0.2780
   21bbb     C2  539   3.932   4.722   8.342 -0.0094 -0.3990  0.9726
   21bbb     C3  540   4.189   4.729   8.542 -0.4546 -0.0698  0.7645
   21bbb     C4  541   4.228   4.667   8.675 -0.6863  0.1852  0.0209
   21bbb     C5  542   3.832   4.630   8.409 -0.5123  1.0671  0.2529
   21bbb     C6  543   3.690   4.686   8.405 -0.6737  0.1255 -0.2495
   21bbb     C7  544   4.075   4.557   8.212  0.7785  0.1596  0.1849
   21bbb     C8  545   4.205   4.537   8.133  0.3255  0.3406  0.8531
   21bbb     N2  546   4.241   4.647   8.052 -0.4422  0.4838 -0.0802
   21bbb     O1  547   4.212   4.547   8.693 -0.0296  0.0297  0.1948
   21bbb     O2  548   3.628   4.695   8.303  0.5414  0.1054  0.4715
   21bbb     H1  549   4.076   4.551   8.490  0.2219 -0.6647 -0.2168
   21bbb     H2  550   4.232   4.575   8.411  0.6968  1.2010  0.5875
   21bbb     H3  551   3.894   4.769   8.251  0.4814 -0.4792  0.7276
   21bbb     H4  552   3.942   4.807   8.410 -0.8328  1.2445 -0.8519
   21bbb     H5  553   4.272   4.790   8.505  0.8340 -2.3871 -0.3978
   21bbb     H6  554   4.107   4.800   8.555 -0.3437  0.6250 -1.8287
   21bbb     H7  555   3.867   4.612   8.512  1.5951  0.9528 -0.4400
   21bbb     H8  556   3.829   4.531   8.362  1.8483  1.7338 -1.4752
   21bbb     H9  557   3.995   4.585   8.143  1.8294  1.4890 -0.5436
   21bbb    H10  558   4.042   4.462   8.253 -3.0618 -0.4223 -3.5329
   21bbb    H11  559   4.191   4.458   8.058  3.0664  0.8647 -0.3250
   21bbb    H12  560   4.288   4.508   8.199 -1.5912 -1.2717  2.7050
   21bbb    H13  561   4.183   4.730   8.051  0.1665  0.9596  1.5171
   21bbb    H25  562   4.132   4.744   8.277  1.8512 -2.9712 -2.4146
   22bbb     N1  563   5.468   6.545   4.342  0.0342  0.3149 -0.0737
   22bbb     C1  564   5.550   6.424   4.313 -0.1638  0.8025  0.5031
   22bbb     C2  565   5.566   6.657   4.374 -0.0359 -0.6610 -0.4262
   22bbb     C3  566   5.534   6.373   4.165  0.2131  0.3545 -0.8432
   22bbb     C4  567   5.629   6.251   4.155  0.0337 -0.0658 -0.4659
   22bbb     C5  568   5.665   6.716   4.268 -0.9088  0.0311 -0.1601
   22bbb     C6  569   5.591   6.774   4.146 -0.4122 -0.4047 -0.5577
   22bbb     C7  570   5.382   6.532   4.469  0.0352 -0.4790  0.3754
   22bbb     C8  571   5.289   6.408   4.477 -0.4539 -0.2659 -0.0556
   22bbb     N2  572   5.240   6.381   4.618 -0.2416 -0.1079  0.6633
   22bbb     O1  573   5.706   6.226   4.250  0.2291  0.3652  0.2165
   22bbb     O2  574   5.472   6.752   4.126  0.0036 -0.2496  0.3475
   22bbb     H1  575   5.655   6.443   4.333  0.2777 -0.8892 -0.0161
   22bbb     H2  576   5.515   6.352   4.388 -0.5123 -0.2397 -0.6308
   22bbb     H3  577   5.607   6.632   4.471 -1.2597 -0.2885  0.2156
   22bbb     H4  578   5.499   6.738   4.403  0.4326  0.7773 -3.0265
   22bbb     H5  579   5.433   6.341   4.138 -0.0252 -1.7985  2.0962
   22bbb     H6  580   5.568   6.444   4.089 -1.4867  0.3353 -1.6628
   22bbb     H7  581   5.738   6.639   4.238 -0.1515  0.6962 -0.0649
   22bbb     H8  582   5.734   6.790   4.309 -0.5490 -0.2168 -0.3138
   22bbb     H9  583   5.309   6.614   4.467 -0.7189 -1.0840 -2.9377
   22bbb    H10  584   5.447   6.546   4.555 -1.2457  2.0153  1.0434
   22bbb    H11  585   5.355   6.325   4.448  1.7641  0.7817  1.7042
   22bbb    H12  586   5.204   6.408   4.407 -0.6135 -1.3165  0.1201
   22bbb    H13  587   5.142   6.392   4.642 -0.8700 -1.8409 -0.9064
   22bbb    H25  588   5.414   6.580   4.262 -0.1395 -0.8556 -0.4799
   23bbb     N1  589   5.907   6.246   5.099 -0.1880  0.3084 -0.2645
   23bbb     C1  590   5.997   6.146   5.022 -0.6261 -0.0337 -0.2396
   23bbb     C2  591   5.972   6.288   5.231  0.2663  0.3896 -1.0470
   23bbb     C3  592   6.010   6.012   5.082  0.1919  0.7357 -0.8021
   23bbb     C4  593   6.120   5.924   5.019  0.3282  0.5006  0.5240
   23bbb     C5  594   6.112   6.360   5.223  0.1846  0.0514  0.8319
   23bbb     C6  595   6.104   6.506   5.171 -0.3918  0.3948 -0.6082
   23bbb     C7  596   5.765   6.180   5.127 -0.1313  0.4815  0.3572
   23bbb     C8  597   5.665   6.146   5.020 -0.4580  1.0985 -0.3933
   23bbb     N2  598   5.541   6.101   5.088  0.5020  0.0075  0.2878
   23bbb     O1  599   6.180   5.966   4.925 -0.3698 -0.0126  0.2272
   23bbb     O2  600   6.003   6.536   5.109  0.0463 -0.2642  0.4239
   23bbb     H1  601   5.955   6.138   4.921 -0.4347 -2.8930 -0.1840
   23bbb     H2  602   6.099   6.183   5.008  0.4631 -2.1020  1.4878
   23bbb     H3  603   5.975   6.203   5.299  0.7858  0.6336 -0.7539
   23bbb     H4  604   5.898   6.352   5.281  0.5614 -0.0830  0.0196
   23bbb     H5  605   6.007   6.014   5.191  1.0027  0.4617 -0.7684
   23bbb     H6  606   5.919   5.960   5.048  1.4355 -2.0757 -0.1521
   23bbb     H7  607   6.182   6.296   5.168 -0.2151 -0.0401  0.4227
   23bbb     H8  608   6.153   6.363   5.324 -1.4816 -2.2612  1.6720
   23bbb     H9  609   5.711   6.246   5.196 -2.5443 -0.4731 -0.5305
   23bbb    H10  610   5.787   6.083   5.171 -0.4724 -0.0325 -0.5818
   23bbb    H11  611   5.691   6.061   4.956 -1.2828  0.8922 -0.4637
   23bbb    H12  612   5.641   6.235   4.960 -0.1696 -0.3846 -2.8056
   23bbb    H13  613   5.519   6.144   5.177  3.1604 -0.6159  1.3174
   23bbb    H25  614   5.906   6.329   5.037 -0.5987  1.2597  0.9697
   24bbb     N1  615   3.434   6.354   4.052  0.3573 -0.3419  0.1109
   24bbb     C1  616   3.323   6.399   4.147 -0.4156  0.3094 -0.2672
   24bbb     C2  617   3.387   6.348   3.909  0.1871  0.0458  0.4662
   24bbb     C3  618   3.199   6.307   4.157 -0.6834  0.5468  0.1439
   24bbb     C4  619   3.106   6.341   4.278  0.1124  0.4173 -0.8659
   24bbb     C5  620   3.373   6.487   3.837  0.4829  0.1828 -0.8828
   24bbb     C6  621   3.354   6.481   3.690 -0.2461 -0.0477 -0.2571
   24bbb     C7  622   3.495   6.218   4.095  0.6342 -0.2010 -0.5710
   24bbb     C8  623   3.561   6.211   4.238  0.3318 -0.2779 -0.7408
   24bbb     N2  624   3.637   6.087   4.251  0.5540  0.1632 -0.5364
   24bbb     O1  625   3.156   6.376   4.381 -0.2710  0.2023 -0.4159
   24bbb     O2  626   3.408   6.394   3.623 -0.2862 -0.4623  0.8167
   24bbb     H1  627   3.361   6.425   4.246  0.2715  3.5175 -1.2588
   24bbb     H2  628   3.286   6.492   4.104  0.7695  0.5309 -0.8343
   24bbb     H3  629   3.303   6.279   3.897  0.2512  0.1242 -0.5095
   24bbb     H4  630   3.468   6.293   3.860  1.0618  1.8628 -0.2139
   24bbb     H5  631   3.142   6.309   4.064  0.7284  0.9857 -0.7340
   24bbb     H6  632   3.230   6.202   4.160  0.3346  0.8111 -0.6737
   24bbb     H7  633   3.467   6.542   3.853  1.1245 -1.7401  3.6038
   24bbb     H8  634   3.292   6.540   3.889  1.2198  0.8052 -0.3348
   24bbb     H9  635   3.572   6.186   4.025 -0.1569 -2.4206 -0.5077
   24bbb    H10  636   3.414   6.145   4.089 -0.1347  0.6541 -0.9747
   24bbb    H11  637   3.481   6.218   4.313  0.2622 -0.7327 -0.7684
   24bbb    H12  638   3.632   6.293   4.244 -1.0793  1.2649 -3.1940
   24bbb    H13  639   3.659   6.028   4.171 -1.3781 -0.1791 -0.8639
   24bbb    H25  640   3.504   6.429   4.054 -0.0077  0.0249 -0.3577
   25bbb     N1  641   3.290   5.205   4.187  0.6852  0.3585 -0.5713
   25bbb     C1  642   3.399   5.100   4.146 -0.4304  0.5120  0.4845
   25bbb     C2  643   3.189   5.233   4.074  0.0046 -0.6640  0.4350
   25bbb     C3  644   3.340   4.959   4.110 -0.5955 -0.0711 -0.0651
   25bbb     C4  645   3.454   4.850   4.114 -0.5503 -0.2493 -0.4347
   25bbb     C5  646   3.247   5.269   3.934  0.4260 -0.2884  0.6909
   25bbb     C6  647   3.150   5.351   3.842 -0.0246 -0.4607 -0.8424
   25bbb     C7  648   3.354   5.336   4.230  0.2055 -0.0258 -0.7150
   25bbb     C8  649   3.425   5.325   4.369  0.2693  0.6351  0.3677
   25bbb     N2  650   3.516   5.433   4.407  0.2362 -0.4403  0.3143
   25bbb     O1  651   3.527   4.828   4.214 -0.0741 -0.1425  0.0559
   25bbb     O2  652   3.169   5.472   3.821  0.3011 -0.0927  0.3373
   25bbb     H1  653   3.457   5.145   4.065 -0.9592  2.0079  0.9004
   25bbb     H2  654   3.459   5.083   4.235 -2.3321 -3.1970  1.2490
   25bbb     H3  655   3.126   5.313   4.114  1.0826 -0.1947  1.2156
   25bbb     H4  656   3.123   5.148   4.057  1.9573 -2.4446  1.4363
   25bbb     H5  657   3.261   4.921   4.177  0.1487 -2.3536 -0.3846
   25bbb     H6  658   3.302   4.967   4.008  2.6218  1.2677 -1.2826
   25bbb     H7  659   3.279   5.187   3.869  0.9711  0.4586 -0.0038
   25bbb     H8  660   3.328   5.342   3.944 -0.3681  0.7031  0.0716
   25bbb     H9  661   3.271   5.406   4.235 -0.3283 -0.7449  1.1405
   25bbb    H10  662   3.427   5.360   4.153 -0.5856 -0.9242 -1.7782
   25bbb    H11  663   3.486   5.233   4.374  1.4044  1.2631 -0.9704
   25bbb    H12  664   3.339   5.322   4.435 -1.0278 -2.4485 -1.2462
   25bbb    H13  665   3.579   5.472   4.338 -0.0301  0.4704  0.5729
   25bbb    H25  666   3.240   5.170   4.270  2.7820 -0.0301  0.5988
   26bbb     N1  667   3.832   7.594   6.061 -0.2007 -1.1884  0.3481
   26bbb     C1  668   3.870   7.727   6.124  0.9808 -0.3478  0.0097
   26bbb     C2  669   3.682   7.604   6.023  0.0970 -0.5173 -0.0646
   26bbb     C3  670   3.874   7.849   6.031  0.8616 -0.3080 -0.2679
   26bbb     C4  671   3.982   7.836   5.926 -0.0720 -0.3185  0.3307
   26bbb     C5  672   3.576   7.577   6.137 -0.2472 -0.2424 -0.4056
   26bbb     C6  673   3.430   7.567   6.088 -0.5225  0.5156 -0.1752
   26bbb     C7  674   3.862   7.473   6.145 -0.4120 -0.1570 -0.1654
   26bbb     C8  675   3.852   7.337   6.075 -1.0856 -0.2230  0.1082
   26bbb     N2  676   3.906   7.227   6.163 -0.1246  0.1494 -0.5363
   26bbb     O1  677   4.053   7.738   5.909  0.0275  0.5972 -0.0605
   26bbb     O2  678   3.399   7.553   5.969  0.5826  0.4328  0.0194
   26bbb     H1  679   3.801   7.751   6.205  0.2955  0.9706 -0.9376
   26bbb     H2  680   3.971   7.715   6.164  1.4837 -0.6808 -1.3121
   26bbb     H3  681   3.666   7.518   5.957  0.4784 -1.2702  0.8023
   26bbb     H4  682   3.660   7.702   5.981  1.5526  0.5393  1.5155
   26bbb     H5  683   3.781   7.852   5.974  0.2578  0.4720  0.7375
   26bbb     H6  684   3.895   7.938   6.091 -0.6122  0.5856 -1.0308
   26bbb     H7  685   3.584   7.660   6.208 -1.4451  0.2575 -0.8297
   26bbb     H8  686   3.596   7.491   6.201 -0.7490 -0.2640 -0.2744
   26bbb     H9  687   3.795   7.469   6.232  0.3195  1.2560  0.4889
   26bbb    H10  688   3.964   7.482   6.182 -0.6033  1.8007 -0.0458
   26bbb    H11  689   3.905   7.322   5.979 -2.5672 -2.2560 -0.4453
   26bbb    H12  690   3.748   7.310   6.057 -0.7859 -1.8061  0.6035
   26bbb    H13  691   3.988   7.242   6.220  0.2345  0.9596 -1.2476
   26bbb    H25  692   3.885   7.588   5.972  0.6624 -2.8245  0.9192
   27bbb     N1  693   4.669   6.964   6.044  0.4350  0.1737  0.1510
   27bbb     C1  694   4.743   7.077   5.989  0.7645 -0.2468  0.4270
   27bbb     C2  695   4.719   6.913   6.181  0.9749  0.2803  0.1684
   27bbb     C3  696   4.678   7.164   5.878  0.6398  0.3274 -0.1134
   27bbb     C4  697   4.744   7.296   5.856 -0.6661 -1.1344 -0.0659
   27bbb     C5  698   4.691   7.016   6.296 -0.5262  0.3164 -0.0157
   27bbb     C6  699   4.780   6.992   6.416  0.4603  0.7693  0.2224
   27bbb     C7  700   4.668   6.854   5.941  0.1161  0.1536  0.8571
   27bbb     C8  701   4.588   6.729   5.971  0.2766 -0.4260 -0.2550
   27bbb     N2  702   4.446   6.747   5.991  0.4657  0.1749  0.4616
   27bbb     O1  703   4.838   7.326   5.928  0.2571  0.0503 -0.2955
   27bbb     O2  704   4.864   6.907   6.423 -0.4479  0.4656  0.0923
   27bbb     H1  705   4.761   7.139   6.077 -1.5613  0.6822  0.3330
   27bbb     H2  706   4.840   7.033   5.968  1.4881 -0.6920  3.9577
   27bbb     H3  707   4.827   6.908   6.170  0.9580 -1.2011  0.3979
   27bbb     H4  708   4.680   6.813   6.202  1.4895 -0.0472 -0.3974
   27bbb     H5  709   4.673   7.113   5.781  0.1738 -1.6652  0.9243
   27bbb     H6  710   4.575   7.170   5.913  0.9964 -2.2680  1.6764
   27bbb     H7  711   4.585   7.017   6.323 -0.4641  1.3998  0.2460
   27bbb     H8  712   4.720   7.117   6.265  0.2391  0.3714  0.8227
   27bbb     H9  713   4.771   6.830   5.913  0.3511  0.6733  1.2737
   27bbb    H10  714   4.621   6.895   5.852  2.4654 -1.5339 -1.3264
   27bbb    H11  715   4.630   6.687   6.063 -1.7036  0.8027  1.3048
   27bbb    H12  716   4.604   6.659   5.888  0.3459 -0.2850 -0.3602
   27bbb    H13  717   4.379   6.729   5.917 -0.0779  2.0590  0.4298
   27bbb    H25  718   4.572   6.998   6.054  0.0013 -1.1676  0.7934
   28bbb     N1  719   3.099   5.741   7.852  0.9874  0.5434 -0.0658
   28bbb     C1  720   3.112   5.606   7.924  0.4242 -0.0479 -0.2651
   28bbb     C2  721   2.975   5.814   7.899  0.7209  0.8062  0.1492
   28bbb     C3  722   3.017   5.489   7.882 -0.0449 -0.5239  0.3874
   28bbb     C4  723   3.047   5.353   7.946 -0.1407 -0.7108 -0.2566
   28bbb     C5  724   2.979   5.869   8.044  0.7738 -0.5003 -0.1444
   28bbb     C6  725   2.836   5.913   8.086 -0.4654 -0.1338 -0.5048
   28bbb     C7  726   3.095   5.713   7.701 -0.4860 -0.0477  0.8560
   28bbb     C8  727   3.103   5.836   7.602 -0.0182 -0.6764 -0.3093
   28bbb     N2  728   3.088   5.810   7.460 -0.3735  0.3173 -0.3052
   28bbb     O1  729   3.149   5.329   8.007  1.3740  0.3940 -0.6074
   28bbb     O2  730   2.763   5.857   8.168  0.1849  0.7289  0.0015
   28bbb     H1  731   3.218   5.582   7.913  0.5576  1.3443 -2.5888
   28bbb     H2  732   3.091   5.622   8.030 -0.3039 -1.8473 -0.1021
   28bbb     H3  733   2.890   5.747   7.884  0.5124  1.5222 -2.1550
   28bbb     H4  734   2.954   5.899   7.835 -0.0620  1.1383  0.8247
   28bbb     H5  735   2.909   5.507   7.890 -0.3140 -1.0840 -1.4872
   28bbb     H6  736   3.028   5.477   7.774 -1.5119  0.6006  0.0834
   28bbb     H7  737   3.056   5.947   8.043  1.3156 -0.8645 -3.8903
   28bbb     H8  738   2.994   5.786   8.113 -2.7871 -0.4861  0.8138
   28bbb     H9  739   3.004   5.660   7.674 -0.3410  0.6629 -1.1986
   28bbb    H10  740   3.178   5.648   7.674  0.7394  1.4978  0.6980
   28bbb    H11  741   3.198   5.885   7.623 -0.8871  1.4101 -0.9427
   28bbb    H12  742   3.028   5.913   7.625  2.3339  1.3353  1.1469
   28bbb    H13  743   3.054   5.718   7.436 -1.2604 -0.6916  3.9664
   28bbb    H25  744   3.182   5.800   7.865 -0.0820  1.7033  2.1435
   29bbb     N1  745   2.403   6.030   6.805 -0.0198  0.9922 -0.2088
   29bbb     C1  746   2.328   5.920   6.722  0.3871  0.6000 -0.0829
   29bbb     C2  747   2.324   6.161   6.817  0.2530 -0.1892  0.5879
   29bbb     C3  748   2.183   5.886   6.779 -1.1047  0.0291 -0.0166
   29bbb     C4  749   2.120   5.773   6.701 -0.6921 -0.2833  0.2561
   29bbb     C5  750   2.274   6.234   6.693 -0.5806 -0.1954  0.8550
   29bbb     C6  751   2.213   6.373   6.720 -0.2603  0.2942 -0.0903
   29bbb     C7  752   2.543   6.047   6.761  0.1279  0.3644 -0.0313
   29bbb     C8  753   2.633   5.924   6.772  0.2792 -0.3261 -0.1723
   29bbb     N2  754   2.780   5.956   6.786  0.4745  0.2468  0.6607
   29bbb     O1  755   2.011   5.791   6.644  0.5570  0.4562  0.0791
   29bbb     O2  756   2.115   6.377   6.791 -0.0902 -0.2165  0.2778
   29bbb     H1  757   2.325   5.952   6.618 -0.3809 -1.0673 -0.6101
   29bbb     H2  758   2.385   5.827   6.721 -0.0780  0.3011 -1.3930
   29bbb     H3  759   2.383   6.237   6.868 -2.1887  0.9799  1.8027
   29bbb     H4  760   2.233   6.138   6.872 -0.2120 -1.8039 -0.7808
   29bbb     H5  761   2.192   5.845   6.880  0.6488  0.0372 -0.1386
   29bbb     H6  762   2.109   5.966   6.785 -1.1239 -0.1036  2.2105
   29bbb     H7  763   2.198   6.179   6.637  1.2683 -0.7319 -1.2821
   29bbb     H8  764   2.360   6.249   6.627  0.5479  1.6225  2.5976
   29bbb     H9  765   2.590   6.123   6.825 -1.4825  0.4410  1.1234
   29bbb    H10  766   2.551   6.081   6.658 -2.5059 -0.7418 -0.6794
   29bbb    H11  767   2.623   5.859   6.684 -0.6997  0.2822 -0.5171
   29bbb    H12  768   2.603   5.862   6.858  1.2658  0.4555  0.7604
   29bbb    H13  769   2.814   6.042   6.745 -0.8046 -1.0435 -3.6186
   29bbb    H25  770   2.406   5.981   6.895 -2.0971 -2.0438 -1.6126
   30bbb     N1  771   3.027   2.716   6.542  0.1314  0.5084  0.3250
   30bbb     C1  772   3.046   2.759   6.682  0.6745 -0.1585 -0.5484
   30bbb     C2  773   3.047   2.571   6.518  0.0925  0.3396  0.0183
   30bbb     C3  774   3.003   2.899   6.722  0.0292  0.2119  0.3724
   30bbb     C4  775   3.033   2.929   6.865 -0.2494  0.2089 -0.1351
   30bbb     C5  776   2.977   2.476   6.631 -0.5377 -0.4847  0.2057
   30bbb     C6  777   2.980   2.336   6.588 -0.2023  0.4676 -0.3113
   30bbb     C7  778   3.135   2.799   6.461  0.1682  0.7281  0.0789
   30bbb     C8  779   3.290   2.780   6.483 -0.0640 -0.1457 -0.1479
   30bbb     N2  780   3.366   2.873   6.397  0.8761  0.7311 -0.5659
   30bbb     O1  781   3.104   2.854   6.943  0.5084 -0.6474  0.3389
   30bbb     O2  782   3.038   2.298   6.489 -0.0633  0.8092 -0.4969
   30bbb     H1  783   2.974   2.701   6.740 -0.7319  2.6406  0.7150
   30bbb     H2  784   3.150   2.742   6.710  0.3501 -2.4487 -0.5105
   30bbb     H3  785   3.154   2.552   6.510 -0.1682 -1.4888  0.3489
   30bbb     H4  786   3.009   2.544   6.420  0.2235  0.3340 -0.0312
   30bbb     H5  787   3.075   2.960   6.664 -0.0348 -0.7191 -0.7155
   30bbb     H6  788   2.903   2.933   6.693  0.5800  0.6915 -1.0432
   30bbb     H7  789   2.874   2.510   6.647 -0.7888 -1.5531  0.9199
   30bbb     H8  790   3.032   2.472   6.726 -2.6606 -0.3903  1.5016
   30bbb     H9  791   3.110   2.903   6.480  0.1117  0.6065  0.7214
   30bbb    H10  792   3.109   2.773   6.359 -1.4985 -0.8855  0.8436
   30bbb    H11  793   3.326   2.677   6.468 -1.2339 -0.5232 -0.4587
   30bbb    H12  794   3.310   2.814   6.585 -0.8385 -0.8840  0.2600
   30bbb    H13  795   3.325   2.961   6.369 -0.4525  0.3823  0.2243
   30bbb    H25  796   2.935   2.738   6.501 -1.2057 -2.9843  1.0713
   31bbb     N1  797   4.264   2.624   6.765  0.6186  0.1039 -0.0806
   31bbb     C1  798   4.275   2.475   6.755 -0.5114  0.1536  0.0417
   31bbb     C2  799   4.220   2.677   6.899 -0.1525  0.0076  0.2358
   31bbb     C3  800   4.397   2.409   6.820  0.0223 -0.7897 -0.3849
   31bbb     C4  801   4.378   2.351   6.964 -0.6364  0.3386  0.4276
   31bbb     C5  802   4.087   2.623   6.956  0.6026  0.0911  0.0173
   31bbb     C6  803   4.060   2.673   7.097 -0.0629  0.5794  0.2831
   31bbb     C7  804   4.153   2.664   6.667  0.0424  0.6174 -0.4231
   31bbb     C8  805   4.189   2.676   6.517  0.1428 -0.4880  0.4767
   31bbb     N2  806   4.082   2.724   6.421 -0.1187 -0.5981 -0.2086
   31bbb     O1  807   4.281   2.368   7.035 -0.1185 -0.1589 -0.8413
   31bbb     O2  808   3.993   2.773   7.127 -0.3244  0.3475  0.0660
   31bbb     H1  809   4.181   2.428   6.787  0.7587 -3.2884 -0.8624
   31bbb     H2  810   4.276   2.458   6.647 -0.7230  0.1214  0.0431
   31bbb     H3  811   4.219   2.786   6.887  0.4915 -0.1275 -1.2801
   31bbb     H4  812   4.310   2.655   6.957 -0.0246 -0.7049 -0.2197
   31bbb     H5  813   4.424   2.316   6.770 -0.4608 -1.6775  0.9385
   31bbb     H6  814   4.480   2.481   6.823  0.3813 -1.2042 -0.1551
   31bbb     H7  815   4.095   2.513   6.958 -1.8086 -0.1520 -1.0405
   31bbb     H8  816   3.997   2.644   6.898  1.7831  2.9515 -0.9225
   31bbb     H9  817   4.130   2.763   6.709 -1.0174  0.8658 -1.5554
   31bbb    H10  818   4.064   2.602   6.675  0.2456 -0.0192 -2.6381
   31bbb    H11  819   4.212   2.572   6.492 -1.2053 -0.4509 -1.0111
   31bbb    H12  820   4.279   2.737   6.501  0.0550 -0.1207  1.3238
   31bbb    H13  821   4.021   2.658   6.375  0.5195 -0.5191 -1.2102
   31bbb    H25  822   4.352   2.667   6.734  0.6941 -0.6043 -0.8917
   32bbb     N1  823   2.013   3.013   6.300 -0.0821  0.0378  0.4127
   32bbb     C1  824   1.949   2.979   6.165 -0.3276  0.2714  0.9024
   32bbb     C2  825   1.922   3.010   6.428 -1.0655  0.0289  0.2456
   32bbb     C3  826   1.888   2.842   6.154  0.0181  0.0593 -0.3108
   32bbb     C4  827   1.826   2.818   6.023  0.2304  0.0648 -0.6550
   32bbb     C5  828   1.804   3.104   6.430 -0.3170  0.3049 -0.2023
   32bbb     C6  829   1.720   3.094   6.557  0.4050  0.6876  0.1659
   32bbb     C7  830   2.087   3.145   6.291  0.6181  0.3443  0.5700
   32bbb     C8  831   2.228   3.135   6.222  0.1466  0.1670 -0.1350
   32bbb     N2  832   2.300   3.261   6.207  0.5228  0.5385 -0.6838
   32bbb     O1  833   1.870   2.873   5.923  0.0713  0.4064  0.0285
   32bbb     O2  834   1.776   3.068   6.660  0.2974 -0.0923  0.3142
   32bbb     H1  835   1.874   3.051   6.131  0.2164 -0.4742 -2.2012
   32bbb     H2  836   2.029   2.983   6.091 -2.6986 -0.7641 -1.9106
   32bbb     H3  837   1.984   3.023   6.516 -0.8901  0.2778  0.0873
   32bbb     H4  838   1.885   2.907   6.434 -0.0493 -0.4438 -1.0032
   32bbb     H5  839   1.958   2.760   6.174 -1.3960 -0.8240  1.3463
   32bbb     H6  840   1.811   2.833   6.232  0.7359  0.7927  0.5038
   32bbb     H7  841   1.731   3.071   6.356  0.2885  1.3202 -1.2798
   32bbb     H8  842   1.827   3.207   6.401 -0.5256 -0.2747 -2.5754
   32bbb     H9  843   2.101   3.170   6.396  0.0455 -0.1999  0.7834
   32bbb    H10  844   2.020   3.225   6.258  0.1997  0.5270  1.8215
   32bbb    H11  845   2.202   3.100   6.121 -1.2132 -2.6255  1.0696
   32bbb    H12  846   2.293   3.055   6.260  1.8247  2.1978  1.4886
   32bbb    H13  847   2.334   3.307   6.291 -0.1366 -0.6527  0.2783
   32bbb    H25  848   2.076   2.933   6.316  1.4098  1.1324  0.1536
   33bbb     N1  849   2.166   4.155   5.411 -0.1973  0.5821  0.0654
   33bbb     C1  850   2.012   4.143   5.412  0.6095 -0.1532  0.5262
   33bbb     C2  851   2.209   4.298   5.405  0.1799 -0.0621 -0.4312
   33bbb     C3  852   1.948   4.004   5.387  0.0609  0.1636  0.6684
   33bbb     C4  853   1.989   3.934   5.255  0.1584  0.4704 -0.4560
   33bbb     C5  854   2.137   4.392   5.510  0.0655  0.4036 -0.4432
   33bbb     C6  855   2.192   4.531   5.500  0.2242 -0.1026  0.9548
   33bbb     C7  856   2.209   4.091   5.542  0.5239  0.5136  0.2404
   33bbb     C8  857   2.360   4.072   5.564  0.4871 -0.4035  0.3049
   33bbb     N2  858   2.380   3.972   5.670 -0.7631  0.3375  0.3424
   33bbb     O1  859   2.070   3.975   5.173 -0.0217 -0.4714 -0.6068
   33bbb     O2  860   2.284   4.551   5.428 -0.6577  0.1973 -0.1927
   33bbb     H1  861   1.976   4.168   5.512 -1.1212 -0.5376  0.0307
   33bbb     H2  862   1.973   4.213   5.337  1.4350 -0.7024 -0.4452
   33bbb     H3  863   2.212   4.335   5.303  3.5453  1.1605 -0.0178
   33bbb     H4  864   2.316   4.295   5.425  0.1750  0.4207 -0.3287
   33bbb     H5  865   1.977   3.934   5.466  0.8476 -1.0704 -0.6642
   33bbb     H6  866   1.839   4.007   5.371  0.3275 -1.5851 -2.2477
   33bbb     H7  867   2.145   4.361   5.615 -0.6490  1.8360  0.0674
   33bbb     H8  868   2.030   4.408   5.491 -0.4812 -1.4848  0.7304
   33bbb     H9  869   2.170   3.990   5.530 -0.2688  0.9735 -1.3871
   33bbb    H10  870   2.163   4.144   5.625  0.0191 -1.6052  1.3847
   33bbb    H11  871   2.405   4.171   5.578 -0.8428  0.2553  0.0363
   33bbb    H12  872   2.402   4.036   5.469 -1.3423 -0.2789 -0.5863
   33bbb    H13  873   2.308   3.969   5.741 -2.2797  0.9842 -1.1066
   33bbb    H25  874   2.199   4.098   5.331 -1.0872 -2.0290  1.4188
   34bbb     N1  875   3.727   3.663   4.070 -0.5583  0.2124  0.3836
   34bbb     C1  876   3.866   3.603   4.063  0.2212 -0.8392  0.0569
   34bbb     C2  877   3.617   3.561   4.091 -0.1031 -0.1420  0.0509
   34bbb     C3  878   3.891   3.505   3.941 -0.0699  1.0624  0.2874
   34bbb     C4  879   4.029   3.449   3.945  0.0168 -0.2705 -0.2476
   34bbb     C5  880   3.635   3.483   4.223 -0.2480 -0.4237 -0.5485
   34bbb     C6  881   3.669   3.560   4.348 -0.3400  0.0420  0.0229
   34bbb     C7  882   3.707   3.739   3.942  0.2195 -0.0752  0.2729
   34bbb     C8  883   3.605   3.857   3.961  0.5779  0.2551  0.0962
   34bbb     N2  884   3.622   3.929   4.089  0.1644 -0.2539  0.5107
   34bbb     O1  885   4.123   3.510   3.997  0.1504 -0.0453  0.6046
   34bbb     O2  886   3.620   3.668   4.380  0.3975  0.0865 -0.6803
   34bbb     H1  887   3.928   3.693   4.058 -0.6096 -0.2647 -0.3483
   34bbb     H2  888   3.893   3.554   4.156  0.9733 -1.7319 -0.6193
   34bbb     H3  889   3.615   3.483   4.015 -0.6410 -0.4914  0.4103
   34bbb     H4  890   3.523   3.616   4.099 -0.2022 -0.2745 -0.1946
   34bbb     H5  891   3.814   3.427   3.942 -0.0141  0.9868 -0.5474
   34bbb     H6  892   3.873   3.559   3.847 -1.3686  0.3892  0.1335
   34bbb     H7  893   3.713   3.409   4.201  1.2563  0.9738 -0.1181
   34bbb     H8  894   3.542   3.428   4.243  0.3641 -2.8164 -3.4474
   34bbb     H9  895   3.671   3.664   3.871 -0.4820  1.8040 -1.4301
   34bbb    H10  896   3.802   3.789   3.923 -0.7212  1.3682 -0.8185
   34bbb    H11  897   3.501   3.823   3.950  0.3803  1.1805 -1.0552
   34bbb    H12  898   3.630   3.927   3.880 -0.1071 -1.1047 -1.3453
   34bbb    H13  899   3.695   3.998   4.093  0.8569 -0.9725  0.5778
   34bbb    H25  900   3.729   3.740   4.139  0.7815  0.3646  0.2000
   35bbb     N1  901   2.973   3.506   4.265  0.0176  0.0548 -0.3429
   35bbb     C1  902   2.955   3.356   4.290  0.3124  0.3501  0.5488
   35bbb     C2  903   2.877   3.561   4.161 -0.2792  0.3227  1.1286
   35bbb     C3  904   2.950   3.260   4.166  0.2799  0.2983 -0.5439
   35bbb     C4  905   2.926   3.108   4.194  0.3144  0.0131  0.2173
   35bbb     C5  906   2.726   3.536   4.193  0.6518  0.6941  0.2946
   35bbb     C6  907   2.631   3.635   4.122 -0.5155 -0.5974 -0.5286
   35bbb     C7  908   3.115   3.529   4.213 -0.1095 -0.2102 -0.1297
   35bbb     C8  909   3.227   3.571   4.317  0.8482  0.1870 -0.3392
   35bbb     N2  910   3.196   3.690   4.397 -0.0472 -0.0930 -0.1143
   35bbb     O1  911   2.909   3.060   4.300  0.5601 -0.5292 -0.1111
   35bbb     O2  912   2.650   3.681   4.011 -0.1696  0.0323  0.7742
   35bbb     H1  913   3.029   3.321   4.362 -0.3839 -6.0374 -1.2138
   35bbb     H2  914   2.856   3.342   4.336 -0.6312  1.4241 -1.0658
   35bbb     H3  915   2.909   3.520   4.065  1.1383 -0.5918  1.9577
   35bbb     H4  916   2.905   3.667   4.152 -1.1986  0.5749  1.1465
   35bbb     H5  917   2.874   3.292   4.093 -0.1705  2.5454  0.8097
   35bbb     H6  918   3.044   3.256   4.109  0.9514 -1.5331  0.6118
   35bbb     H7  919   2.712   3.548   4.301  1.1384 -0.0982  0.4535
   35bbb     H8  920   2.695   3.435   4.166  2.7765 -0.1141  0.6390
   35bbb     H9  921   3.107   3.609   4.140  1.1500  0.3595  0.3282
   35bbb    H10  922   3.143   3.434   4.167  1.1987 -0.6099  1.3939
   35bbb    H11  923   3.316   3.577   4.253  0.5853  0.0255 -0.7229
   35bbb    H12  924   3.243   3.481   4.377  0.0114 -0.4435 -1.0223
   35bbb    H13  925   3.142   3.766   4.359  1.5445  0.9379 -0.4172
   35bbb    H25  926   2.966   3.554   4.356  0.2138 -0.1891 -0.1962
   36bbb     N1  927   5.287   2.872   4.955 -0.1398  0.1894  0.5675
   36bbb     C1  928   5.259   2.729   4.977 -0.5795 -0.6235 -0.3093
   36bbb     C2  929   5.404   2.927   5.032 -0.9443 -0.2663  0.2031
   36bbb     C3  930   5.392   2.644   4.968 -0.1628  0.1817 -0.0827
   36bbb     C4  931   5.360   2.498   4.974 -0.0874 -0.7791 -0.1428
   36bbb     C5  932   5.536   2.951   4.943  0.8982  0.0100 -0.0903
   36bbb     C6  933   5.631   3.049   5.015  0.4629 -0.3310  0.0457
   36bbb     C7  934   5.168   2.958   4.989 -0.1035  0.6413  0.1912
   36bbb     C8  935   5.183   3.095   4.922  0.1895  0.1249  0.4623
   36bbb     N2  936   5.054   3.159   4.908  0.3972 -0.3847 -0.0091
   36bbb     O1  937   5.261   2.457   4.924  0.1812  0.1184  0.0073
   36bbb     O2  938   5.618   3.081   5.128 -0.0936  0.2372  0.4233
   36bbb     H1  939   5.210   2.719   5.074  0.2524 -0.1352  0.1745
   36bbb     H2  940   5.184   2.699   4.904  0.1781  1.3597 -2.0338
   36bbb     H3  941   5.430   2.865   5.118 -1.2986  0.4852  0.8607
   36bbb     H4  942   5.372   3.027   5.061 -0.0724 -0.1476  0.8157
   36bbb     H5  943   5.435   2.662   4.869  1.6411 -4.0027 -0.2658
   36bbb     H6  944   5.470   2.675   5.039  1.2854  1.9213 -2.3155
   36bbb     H7  945   5.495   2.994   4.851 -0.8126 -0.6672  0.3253
   36bbb     H8  946   5.586   2.857   4.919 -0.4644 -0.5774 -0.7576
   36bbb     H9  947   5.161   2.971   5.097  1.4047 -0.3738  0.4417
   36bbb    H10  948   5.087   2.897   4.948 -0.2471  0.3832  0.8471
   36bbb    H11  949   5.211   3.084   4.817 -0.7810  1.3263  0.0556
   36bbb    H12  950   5.249   3.165   4.974 -0.6970  1.7568 -0.5340
   36bbb    H13  951   4.974   3.113   4.867  1.7653 -1.3749 -1.6641
   36bbb    H25  952   5.302   2.873   4.853  0.8320  1.8364  0.6960
   37bbb     N1  953   5.239   3.524   4.041  0.7141 -0.4348 -0.6432
   37bbb     C1  954   5.389   3.496   4.046 -0.7445 -0.2500 -0.4620
   37bbb     C2  955   5.202   3.634   3.942 -0.1988  0.1818  0.1309
   37bbb     C3  956   5.444   3.370   4.124  0.1707  0.2950  0.5151
   37bbb     C4  957   5.598   3.368   4.124  0.3190  0.4402 -0.4332
   37bbb     C5  958   5.225   3.595   3.796  0.1340 -0.1491 -0.3484
   37bbb     C6  959   5.255   3.724   3.711 -0.2964  0.4104  0.4580
   37bbb     C7  960   5.197   3.557   4.179 -0.1169 -0.0387 -0.5009
   37bbb     C8  961   5.048   3.585   4.211  0.5724  0.0964 -0.1875
   37bbb     N2  962   5.016   3.622   4.350 -0.3868  0.7441 -1.0051
   37bbb     O1  963   5.654   3.369   4.019  0.4940  0.1436  1.1305
   37bbb     O2  964   5.171   3.813   3.702  0.2281 -0.1907  0.3335
   37bbb     H1  965   5.426   3.495   3.943  1.1699  2.3381  0.1042
   37bbb     H2  966   5.448   3.582   4.076 -0.1846 -1.2780  1.5756
   37bbb     H3  967   5.273   3.713   3.968  0.6875 -1.3582  2.8888
   37bbb     H4  968   5.098   3.660   3.956 -0.0295  2.2740 -1.8899
   37bbb     H5  969   5.402   3.380   4.225 -0.4957  0.4287  0.2322
   37bbb     H6  970   5.394   3.282   4.082 -0.5861 -0.3970  2.7170
   37bbb     H7  971   5.145   3.537   3.750 -1.0438  1.4529 -0.4106
   37bbb     H8  972   5.312   3.531   3.779  2.2508  1.6182  2.8795
   37bbb     H9  973   5.260   3.645   4.194 -0.8698  0.7469 -1.7117
   37bbb    H10  974   5.221   3.478   4.251 -1.9119  0.5511  0.8287
   37bbb    H11  975   4.994   3.493   4.186  3.7753 -1.2251 -3.2015
   37bbb    H12  976   5.004   3.664   4.149  0.0483 -1.7543 -2.3156
   37bbb    H13  977   5.057   3.709   4.380 -0.6392  0.5615 -0.0911
   37bbb    H25  978   5.178   3.444   4.015 -1.8911  1.1729  0.1184
   38bbb     N1  979   6.142   3.246   6.324  0.0796 -0.4379 -1.3294
   38bbb     C1  980   6.232   3.347   6.255  0.1483 -0.4368 -0.3154
   38bbb     C2  981   6.082   3.151   6.223 -0.5467  0.0888  0.1418
   38bbb     C3  982   6.153   3.450   6.166  0.1648  0.2114  0.6898
   38bbb     C4  983   6.257   3.536   6.088  0.4777 -0.0103  0.0022
   38bbb     C5  984   6.029   3.019   6.278 -0.7471 -0.1647  0.4576
   38bbb     C6  985   5.996   2.912   6.174 -0.3346  0.5058  0.5558
   38bbb     C7  986   6.026   3.311   6.402  0.0038  0.4329  0.4591
   38bbb     C8  987   6.065   3.376   6.526  1.3995  0.2411  0.1153
   38bbb     N2  988   5.934   3.427   6.565  0.4861 -0.8018 -0.4305
   38bbb     O1  989   6.262   3.544   5.964  0.1305 -0.4660  0.7720
   38bbb     O2  990   5.954   2.944   6.062  0.3904  0.2066  0.1078
   38bbb     H1  991   6.270   3.410   6.335 -1.8858  1.2023 -0.5310
   38bbb     H2  992   6.307   3.286   6.206  0.9802  0.4750 -0.1965
   38bbb     H3  993   6.156   3.136   6.144 -0.4333 -1.8965  0.5824
   38bbb     H4  994   5.996   3.199   6.176 -0.7553  0.8757  1.2827
   38bbb     H5  995   6.088   3.397   6.096 -0.1488  0.1437  1.0245
   38bbb     H6  996   6.095   3.522   6.226  1.0027 -0.0666  1.8580
   38bbb     H7  997   5.937   3.041   6.335 -0.8862 -1.5972  0.8056
   38bbb     H8  998   6.097   2.988   6.358  0.8788  0.7340 -0.5114
   38bbb     H9  999   5.949   3.238   6.430  1.8519 -2.6989 -1.9390
   38bbb    H10 1000   5.991   3.400   6.351  0.6732  0.1524 -0.5094
   38bbb    H11 1001   6.121   3.466   6.497 -1.6977  1.8431 -1.4110
   38bbb    H12 1002   6.112   3.316   6.604 -0.2033 -2.4498 -0.8649
   38bbb    H13 1003   5.851   3.389   6.521  0.5824 -0.7665 -0.6423
   38bbb    H25 1004   6.198   3.194   6.393 -0.1967 -0.2818 -0.9826
   39bbb     N1 1005   5.765   3.025   7.388 -0.4635  0.2795 -0.1519
   39bbb     C1 1006   5.856   2.933   7.466  0.2146 -0.0613 -0.1242
   39bbb     C2 1007   5.653   3.085   7.473  0.3617 -0.0670  0.1667
   39bbb     C3 1008   5.972   2.861   7.377  0.3382 -0.5964  1.0728
   39bbb     C4 1009   6.065   2.783   7.465  0.2723 -0.1820  0.2272
   39bbb     C5 1010   5.698   3.210   7.566 -0.0751 -0.8006 -0.4286
   39bbb     C6 1011   5.692   3.345   7.482  0.5284 -0.0037  0.0515
   39bbb     C7 1012   5.719   2.953   7.267 -0.1228 -0.2131  0.2358
   39bbb     C8 1013   5.611   3.017   7.181  0.2324  0.0257  0.3533
   39bbb     N2 1014   5.648   3.157   7.137  0.4062  0.5533 -0.0753
   39bbb     O1 1015   6.082   2.799   7.584 -0.6439 -0.3693  0.1805
   39bbb     O2 1016   5.631   3.355   7.379  0.0017  0.2686  0.2326
   39bbb     H1 1017   5.906   2.995   7.540  0.8375  1.6860 -1.9217
   39bbb     H2 1018   5.784   2.867   7.514 -1.2397  1.1369 -0.5813
   39bbb     H3 1019   5.624   3.003   7.538 -2.4532  0.3233 -0.4659
   39bbb     H4 1020   5.565   3.108   7.414 -0.9592 -3.4850  0.5930
   39bbb     H5 1021   5.907   2.801   7.311 -1.6251  1.2855  1.1812
   39bbb     H6 1022   6.019   2.940   7.317 -1.1016  0.2476  1.0223
   39bbb     H7 1023   5.798   3.191   7.606 -0.7208 -3.3533  0.1597
   39bbb     H8 1024   5.642   3.211   7.661  1.3150  0.3189  0.4134
   39bbb     H9 1025   5.681   2.857   7.301 -2.1782  0.2689 -0.5010
   39bbb    H10 1026   5.803   2.935   7.200 -0.8566 -2.6430 -0.1287
   39bbb    H11 1027   5.526   3.028   7.249  1.6134  0.3135  2.1154
   39bbb    H12 1028   5.583   2.962   7.090 -0.4769  1.2664 -0.2053
   39bbb    H13 1029   5.742   3.192   7.153  0.6826 -0.0637 -0.3429
   39bbb    H25 1030   5.828   3.099   7.357 -0.8219  0.3503 -0.7303
   40bbb     N1 1031   6.316   3.751   8.130 -0.1794 -0.2093 -0.4682
   40bbb     C1 1032   6.302   3.797   8.274  0.0747  0.6711 -0.0904
   40bbb     C2 1033   6.454   3.690   8.099 -0.2128 -0.4072  0.0542
   40bbb     C3 1034   6.390   3.913   8.319 -0.4788 -0.1390 -0.5764
   40bbb     C4 1035   6.367   3.950   8.467 -0.4469 -0.2964  0.5629
   40bbb     C5 1036   6.487   3.562   8.176  0.1182 -0.5526  0.2620
   40bbb     C6 1037   6.626   3.510   8.144 -0.2713 -0.2900  0.6746
   40bbb     C7 1038   6.303   3.859   8.028 -0.0859 -0.2145  0.6660
   40bbb     C8 1039   6.164   3.931   8.034  0.3484 -0.2655  0.2252
   40bbb     N2 1040   6.149   4.046   7.949 -0.8025 -0.5661 -0.3740
   40bbb     O1 1041   6.358   3.869   8.561  0.1308 -0.0483  0.4554
   40bbb     O2 1042   6.697   3.558   8.056  0.2118  0.0731  0.2240
   40bbb     H1 1043   6.200   3.834   8.285  0.9096  2.5030  2.3921
   40bbb     H2 1044   6.311   3.716   8.346 -1.2509 -0.2833 -0.9514
   40bbb     H3 1045   6.531   3.765   8.117 -1.9343  1.6575 -0.8369
   40bbb     H4 1046   6.454   3.666   7.993 -2.2224 -0.6737  0.0749
   40bbb     H5 1047   6.496   3.884   8.311 -1.3383 -3.4380 -1.6529
   40bbb     H6 1048   6.364   3.995   8.251 -1.5994  0.1264  0.1515
   40bbb     H7 1049   6.409   3.492   8.143 -0.7404  0.8227 -0.7297
   40bbb     H8 1050   6.484   3.574   8.285 -0.9954 -0.0566  0.1947
   40bbb     H9 1051   6.317   3.800   7.937 -0.4372  1.3882 -0.4697
   40bbb    H10 1052   6.387   3.928   8.042  1.8068 -1.9510 -1.2449
   40bbb    H11 1053   6.150   3.972   8.134 -1.4518  0.6029 -0.3451
   40bbb    H12 1054   6.083   3.859   8.013  1.2528 -1.1950 -0.1705
   40bbb    H13 1055   6.229   4.109   7.940 -1.6478  0.7656  0.8594
   40bbb    H25 1056   6.253   3.672   8.109  1.0161 -0.9604 -1.4089
   41bbb     N1 1057   6.475   4.977   7.627 -0.2970 -0.0385 -0.4065
   41bbb     C1 1058   6.544   5.092   7.556 -0.4272  0.5249 -0.5151
   41bbb     C2 1059   6.459   4.866   7.534 -0.3769  0.1405  0.4497
   41bbb     C3 1060   6.616   5.211   7.635 -0.1275  0.3408 -0.5013
   41bbb     C4 1061   6.657   5.314   7.536  0.0213  0.3719 -0.1771
   41bbb     C5 1062   6.572   4.770   7.518  0.2739 -0.0615  0.9841
   41bbb     C6 1063   6.535   4.662   7.415 -0.1685  0.3040 -0.7308
   41bbb     C7 1064   6.350   5.031   7.690 -0.0981 -0.5289  0.0405
   41bbb     C8 1065   6.278   4.928   7.786  0.2249 -0.3638  0.4636
   41bbb     N2 1066   6.182   4.831   7.724 -0.1209 -0.1900  0.0695
   41bbb     O1 1067   6.578   5.365   7.454 -0.1963  0.5020 -0.3032
   41bbb     O2 1068   6.422   4.628   7.397  0.6431 -0.3791  0.4645
   41bbb     H1 1069   6.608   5.040   7.485  0.5657  1.0576 -0.0332
   41bbb     H2 1070   6.464   5.137   7.497 -0.6537  1.3635  0.4195
   41bbb     H3 1071   6.430   4.911   7.439 -2.0089 -2.3251 -0.3376
   41bbb     H4 1072   6.376   4.802   7.566 -1.9524  0.9679 -1.6892
   41bbb     H5 1073   6.547   5.260   7.705 -0.7160  1.4421 -1.8055
   41bbb     H6 1074   6.688   5.160   7.700 -2.3375 -1.7072  0.4994
   41bbb     H7 1075   6.598   4.721   7.613 -2.7664 -1.0715  1.4086
   41bbb     H8 1076   6.658   4.827   7.482 -0.0326 -1.2389 -1.8786
   41bbb     H9 1077   6.291   5.080   7.612  1.0222 -0.6922 -0.9411
   41bbb    H10 1078   6.386   5.115   7.750 -1.1811  2.5722 -3.2760
   41bbb    H11 1079   6.221   4.982   7.862  0.1879 -0.9494  0.8512
   41bbb    H12 1080   6.351   4.872   7.845  1.3059  1.7681  1.2873
   41bbb    H13 1081   6.171   4.827   7.623  2.5033 -0.8593 -0.2663
   41bbb    H25 1082   6.551   4.948   7.690  1.7008 -0.6107 -2.9286
   42bbb     N1 1083   4.825   6.004   8.620  0.4015 -0.0433  0.1021
   42bbb     C1 1084   4.839   6.151   8.621 -0.4398 -0.1346 -0.1950
   42bbb     C2 1085   4.931   5.935   8.712  0.1246  0.4520 -0.0221
   42bbb     C3 1086   4.777   6.224   8.744  0.5235 -0.3983  0.5262
   42bbb     C4 1087   4.799   6.372   8.734 -0.0618 -0.3576  0.7347
   42bbb     C5 1088   5.079   5.963   8.683  1.2659 -0.8771 -0.1430
   42bbb     C6 1089   5.171   5.894   8.776 -0.6297  0.7447 -0.1382
   42bbb     C7 1090   4.833   5.939   8.481  0.3197 -0.5449  0.0858
   42bbb     C8 1091   4.821   5.783   8.464  0.1808  0.3206  0.2846
   42bbb     N2 1092   4.820   5.776   8.322 -0.0762  0.3464 -0.4587
   42bbb     O1 1093   4.827   6.427   8.624  0.1930 -0.3634  0.1080
   42bbb     O2 1094   5.151   5.791   8.842  0.0919 -0.2149  0.3878
   42bbb     H1 1095   4.941   6.177   8.592 -0.2222 -1.1563 -0.3840
   42bbb     H2 1096   4.785   6.196   8.538 -1.1840 -0.5282  0.0678
   42bbb     H3 1097   4.913   5.828   8.702  2.5704 -0.2116  1.7522
   42bbb     H4 1098   4.905   5.957   8.816  0.8912  0.9707  0.0686
   42bbb     H5 1099   4.671   6.199   8.759  0.1366 -0.2756 -1.6178
   42bbb     H6 1100   4.827   6.200   8.839  1.3621  3.5323  1.2569
   42bbb     H7 1101   5.092   6.072   8.692  1.5834 -1.0070  1.1243
   42bbb     H8 1102   5.107   5.940   8.579  1.5456 -1.7971  0.1283
   42bbb     H9 1103   4.924   5.974   8.433 -0.9421  0.4693 -1.7211
   42bbb    H10 1104   4.752   5.991   8.428  0.3322  0.8034  1.3299
   42bbb    H11 1105   4.724   5.743   8.496  1.6323 -2.5080  1.4497
   42bbb    H12 1106   4.902   5.720   8.502  0.7825 -0.1650 -1.6961
   42bbb    H13 1107   4.729   5.761   8.279 -0.1078  0.8586 -0.5752
   42bbb    H25 1108   4.731   5.973   8.647  0.5515  0.6611  1.5124
   43bbb     N1 1109   5.532   5.940   7.589  0.4634  0.4146  0.0012
   43bbb     C1 1110   5.531   6.036   7.466  0.6298  0.2132  0.9659
   43bbb     C2 1111   5.674   5.936   7.652  0.3249 -0.0968  0.5050
   43bbb     C3 1112   5.547   6.184   7.511  0.3606 -0.4329 -0.6198
   43bbb     C4 1113   5.520   6.293   7.397  0.0289 -0.3399 -0.1683
   43bbb     C5 1114   5.788   5.870   7.568  0.1212  0.1793  0.5593
   43bbb     C6 1115   5.869   5.966   7.488 -0.0687 -0.2541  0.1608
   43bbb     C7 1116   5.483   5.806   7.549  0.1863 -0.3650 -0.7872
   43bbb     C8 1117   5.335   5.801   7.510  0.4028 -0.3513 -0.2766
   43bbb     N2 1118   5.246   5.829   7.623  0.4929  0.0984  0.0390
   43bbb     O1 1119   5.441   6.269   7.304 -0.7062 -0.1819  0.3032
   43bbb     O2 1120   5.820   6.075   7.462  0.5098  0.3165  0.0010
   43bbb     H1 1121   5.614   6.002   7.403  0.9641 -2.3526  2.6585
   43bbb     H2 1122   5.432   6.024   7.423  1.4345  1.2412 -1.3570
   43bbb     H3 1123   5.655   5.878   7.743  2.5302 -0.0534  1.0655
   43bbb     H4 1124   5.698   6.037   7.686 -0.3504  0.4900 -0.7264
   43bbb     H5 1125   5.479   6.199   7.596  0.3003 -0.0924 -0.7247
   43bbb     H6 1126   5.641   6.209   7.560  0.1522 -1.9869  0.6395
   43bbb     H7 1127   5.758   5.799   7.489  0.8866 -0.3670  0.7497
   43bbb     H8 1128   5.854   5.804   7.626 -2.2728 -3.6513 -0.7182
   43bbb     H9 1129   5.492   5.737   7.633  1.8162 -1.2752 -1.6466
   43bbb    H10 1130   5.545   5.771   7.466  0.6986 -1.2766 -0.0381
   43bbb    H11 1131   5.324   5.698   7.475 -0.6986 -0.1316 -0.6213
   43bbb    H12 1132   5.305   5.869   7.430 -1.5704  0.1482  0.8059
   43bbb    H13 1133   5.256   5.914   7.678 -2.6120 -1.1928  2.9892
   43bbb    H25 1134   5.467   5.981   7.657  0.9380  1.4931 -0.1752
   44bbb     N1 1135   4.559   4.557   8.877 -0.1500 -0.4349 -0.3098
   44bbb     C1 1136   4.548   4.526   8.725  0.1900 -0.2574 -0.0323
   44bbb     C2 1137   4.505   4.441   8.972  1.0895 -0.0232 -0.7113
   44bbb     C3 1138   4.614   4.629   8.626  0.1655  0.3193 -1.1851
   44bbb     C4 1139   4.561   4.599   8.484  0.4800  0.1511 -0.4042
   44bbb     C5 1140   4.575   4.302   8.943 -0.0045 -0.8339 -0.7188
   44bbb     C6 1141   4.517   4.186   9.025  0.0540 -0.3982 -0.1648
   44bbb     C7 1142   4.486   4.688   8.911  0.8883  0.6240 -0.4440
   44bbb     C8 1143   4.331   4.705   8.909 -0.2459  0.2179  0.0192
   44bbb     N2 1144   4.295   4.748   8.768 -0.2796  0.4247  0.7025
   44bbb     O1 1145   4.452   4.559   8.477 -0.0163 -0.3626  0.3221
   44bbb     O2 1146   4.393   4.171   9.030  0.0633 -0.2041  0.5651
   44bbb     H1 1147   4.593   4.430   8.701  1.0472 -0.7504  3.0826
   44bbb     H2 1148   4.440   4.509   8.719  0.1215  0.4455 -1.3015
   44bbb     H3 1149   4.396   4.430   8.963  1.1946 -2.3252  0.1779
   44bbb     H4 1150   4.518   4.482   9.072 -2.8406  3.8238 -1.4256
   44bbb     H5 1151   4.577   4.728   8.654 -0.5725  0.1431 -1.5286
   44bbb     H6 1152   4.724   4.631   8.629  0.2222 -1.3538  2.2243
   44bbb     H7 1153   4.681   4.322   8.963 -0.6376  1.3456  0.7895
   44bbb     H8 1154   4.551   4.278   8.838 -2.1924  0.3126 -0.5487
   44bbb     H9 1155   4.536   4.773   8.863  1.4948  0.4952 -0.0604
   44bbb    H10 1156   4.527   4.703   9.011 -0.6414 -0.2577  0.3486
   44bbb    H11 1157   4.303   4.780   8.983  0.2512  1.7256 -1.2764
   44bbb    H12 1158   4.282   4.609   8.932 -0.3665  0.1835 -0.3819
   44bbb    H13 1159   4.304   4.846   8.743 -1.8732  0.0759 -1.5935
   44bbb    H25 1160   4.659   4.572   8.895 -0.5274 -0.4507  2.1531
   45bbb     N1 1161   3.328   4.814   8.722  0.4458  0.5697  0.0105
   45bbb     C1 1162   3.313   4.934   8.812  0.4331 -0.0036  0.3143
   45bbb     C2 1163   3.256   4.690   8.767  0.9011 -0.1457 -0.4110
   45bbb     C3 1164   3.403   4.941   8.940 -0.1749  0.3616 -0.2276
   45bbb     C4 1165   3.397   5.084   8.994  0.8511 -0.1881 -0.2810
   45bbb     C5 1166   3.101   4.702   8.779 -0.2875  0.2679 -0.1196
   45bbb     C6 1167   3.038   4.567   8.751 -0.2092 -0.0362  0.2398
   45bbb     C7 1168   3.473   4.782   8.697 -0.6406 -0.2078 -0.3883
   45bbb     C8 1169   3.493   4.720   8.559  0.3256  0.5919 -0.4860
   45bbb     N2 1170   3.636   4.696   8.533 -0.0248 -0.0609  0.0611
   45bbb     O1 1171   3.360   5.180   8.928 -0.2850 -0.0463  0.8071
   45bbb     O2 1172   3.085   4.457   8.790  0.3247 -0.0644  0.5089
   45bbb     H1 1173   3.336   5.013   8.741  0.6630 -0.1047  0.2767
   45bbb     H2 1174   3.209   4.945   8.843  0.5546 -0.8083  1.0445
   45bbb     H3 1175   3.284   4.654   8.866 -0.7866 -2.0854 -0.5635
   45bbb     H4 1176   3.278   4.612   8.693  1.6861  1.2452 -1.6943
   45bbb     H5 1177   3.378   4.874   9.023  1.9655  1.5040  1.4485
   45bbb     H6 1178   3.512   4.933   8.927 -0.1471 -0.4535  0.4251
   45bbb     H7 1179   3.067   4.761   8.693  1.0496 -0.7501 -1.3972
   45bbb     H8 1180   3.055   4.737   8.873 -2.5017 -1.3726 -0.5029
   45bbb     H9 1181   3.511   4.715   8.774  1.4283 -0.3010 -1.4295
   45bbb    H10 1182   3.535   4.871   8.703  0.0004 -0.7506  1.9894
   45bbb    H11 1183   3.450   4.793   8.489 -1.5900 -2.3284 -2.6046
   45bbb    H12 1184   3.428   4.634   8.537 -0.9764  1.7396 -1.2973
   45bbb    H13 1185   3.695   4.665   8.609 -0.3719 -2.0234 -0.3995
   45bbb    H25 1186   3.289   4.838   8.630  0.7694 -0.0143 -0.2862
   46bbb     N1 1187   5.750   5.929   3.794 -0.0361 -0.6754  0.1345
   46bbb     C1 1188   5.889   5.905   3.827  0.0146  0.1510  0.0536
   46bbb     C2 1189   5.721   5.925   3.644 -0.3106  0.0490  0.3191
   46bbb     C3 1190   5.934   5.753   3.839 -0.1218 -0.5936 -0.5449
   46bbb     C4 1191   6.081   5.733   3.790  0.0855  0.1924  0.8767
   46bbb     C5 1192   5.578   5.956   3.590 -0.1345 -0.2350 -0.1002
   46bbb     C6 1193   5.553   5.962   3.444 -0.2407  0.5807  0.5629
   46bbb     C7 1194   5.699   6.065   3.839  0.9112  0.0237  0.3315
   46bbb     C8 1195   5.712   6.091   3.992  0.6824 -0.6217  0.1109
   46bbb     N2 1196   5.620   6.199   4.034  0.1506  0.4338  0.4238
   46bbb     O1 1197   6.136   5.819   3.718 -0.3223  0.0095 -0.2245
   46bbb     O2 1198   5.629   5.910   3.361 -0.8173  0.4716  0.4125
   46bbb     H1 1199   5.950   5.970   3.763 -0.2449  1.2729  0.9082
   46bbb     H2 1200   5.902   5.943   3.928  1.1892 -2.4128  0.9361
   46bbb     H3 1201   5.766   5.835   3.601  0.6504  0.7344 -0.1631
   46bbb     H4 1202   5.781   6.004   3.598  0.2792  0.1520  1.2558
   46bbb     H5 1203   5.928   5.726   3.945 -0.5515  3.3381  0.6259
   46bbb     H6 1204   5.868   5.692   3.777  0.7190 -0.3288 -1.7372
   46bbb     H7 1205   5.533   6.048   3.630  0.2860 -0.3258  0.6071
   46bbb     H8 1206   5.517   5.869   3.618 -0.5365 -0.0694 -0.4531
   46bbb     H9 1207   5.601   6.071   3.792  1.8862  1.2559 -1.7004
   46bbb    H10 1208   5.769   6.137   3.795  1.0388  0.4792  1.2510
   46bbb    H11 1209   5.811   6.112   4.034  0.7024 -1.2291  0.3755
   46bbb    H12 1210   5.662   6.005   4.038 -0.8272  0.0862 -0.1260
   46bbb    H13 1211   5.568   6.247   3.962 -1.7980 -0.4969  1.1547
   46bbb    H25 1212   5.685   5.858   3.830 -0.3991 -1.1950 -1.4636
   47bbb     N1 1213   5.425   7.066   4.021  0.5248 -0.1720 -0.2908
   47bbb     C1 1214   5.307   6.988   3.966 -0.2687 -0.0170  0.5809
   47bbb     C2 1215   5.399   7.218   4.015 -0.2135 -1.0404 -0.2822
   47bbb     C3 1216   5.180   6.997   4.047 -0.3670  0.3023  0.1721
   47bbb     C4 1217   5.097   7.124   4.018  0.1812  0.5413  0.3067
   47bbb     C5 1218   5.516   7.306   4.069 -0.5587  0.2990 -0.4346
   47bbb     C6 1219   5.492   7.458   4.068  0.5577 -0.1287 -0.3129
   47bbb     C7 1220   5.549   7.039   3.937  0.0409 -0.1803 -0.2417
   47bbb     C8 1221   5.594   6.894   3.934 -0.6475 -0.3089  0.0282
   47bbb     N2 1222   5.656   6.853   4.060  0.3698 -0.4920 -0.4449
   47bbb     O1 1223   5.124   7.209   3.937  0.7908 -0.6529 -0.1726
   47bbb     O2 1224   5.373   7.500   4.056 -0.0055 -0.4124  0.3348
   47bbb     H1 1225   5.293   7.019   3.863  0.4449  0.6370  0.6678
   47bbb     H2 1226   5.342   6.885   3.968  0.7345  0.0639 -3.7825
   47bbb     H3 1227   5.310   7.252   4.068  0.1269  0.4871 -0.6358
   47bbb     H4 1228   5.382   7.240   3.909  1.2117 -1.3265 -0.5982
   47bbb     H5 1229   5.116   6.912   4.024 -2.1288  1.5903  0.0843
   47bbb     H6 1230   5.199   7.001   4.155 -0.8577  0.2676  0.2637
   47bbb     H7 1231   5.610   7.286   4.016 -0.7992 -1.0140 -0.4117
   47bbb     H8 1232   5.548   7.278   4.170 -1.4490  1.1283  0.0841
   47bbb     H9 1233   5.631   7.104   3.967 -0.5444  1.0915 -1.3331
   47bbb    H10 1234   5.531   7.065   3.832 -1.4390 -1.2032 -0.2775
   47bbb    H11 1235   5.669   6.892   3.854 -0.7966 -1.2950 -0.0913
   47bbb    H12 1236   5.519   6.822   3.899  1.3759 -2.2988 -0.4237
   47bbb    H13 1237   5.755   6.872   4.077  0.3884  0.0433 -1.1072
   47bbb    H25 1238   5.441   7.042   4.120 -0.5976 -0.5415 -0.1879
   48bbb     N1 1239   6.386   5.515   5.140 -0.1405 -0.5862  0.1482
   48bbb     C1 1240   6.357   5.369   5.186  0.1261 -0.0143 -0.3944
   48bbb     C2 1241   6.513   5.577   5.194 -0.1164 -0.4742 -0.1568
   48bbb     C3 1242   6.298   5.354   5.333 -0.1615 -0.1592 -0.2778
   48bbb     C4 1243   6.284   5.208   5.366  0.5280  0.3849 -0.0489
   48bbb     C5 1244   6.633   5.512   5.131 -0.2463 -0.5226  0.2827
   48bbb     C6 1245   6.648   5.540   4.985  0.3699 -0.1053  0.0650
   48bbb     C7 1246   6.271   5.608   5.158 -0.4032  0.1678  0.1555
   48bbb     C8 1247   6.267   5.721   5.050  0.4922 -0.4434 -1.0636
   48bbb     N2 1248   6.144   5.798   5.074 -0.4872 -0.2268 -0.1510
   48bbb     O1 1249   6.303   5.112   5.291  0.3176 -0.0723 -0.4837
   48bbb     O2 1250   6.574   5.616   4.921  0.2659  0.2374  0.4019
   48bbb     H1 1251   6.268   5.348   5.128 -0.6466  3.5506 -0.7267
   48bbb     H2 1252   6.448   5.309   5.175  0.3416 -0.0194  1.1078
   48bbb     H3 1253   6.518   5.569   5.302 -0.6981  1.0062  0.0072
   48bbb     H4 1254   6.509   5.683   5.166 -0.7206 -0.8023 -1.3703
   48bbb     H5 1255   6.361   5.401   5.410  0.3196 -0.5735 -0.4123
   48bbb     H6 1256   6.204   5.410   5.336  0.0435  0.1631  0.3098
   48bbb     H7 1257   6.625   5.403   5.141 -0.1063 -0.5304  0.3160
   48bbb     H8 1258   6.721   5.552   5.184  0.2611 -0.1553 -0.7946
   48bbb     H9 1259   6.282   5.647   5.260 -0.1945  1.0222 -0.1804
   48bbb    H10 1260   6.174   5.558   5.160 -0.0227 -0.6913  3.6353
   48bbb    H11 1261   6.261   5.680   4.948  0.7910 -0.9384 -0.8832
   48bbb    H12 1262   6.359   5.780   5.048  0.1530  0.0935 -2.2286
   48bbb    H13 1263   6.088   5.781   5.157  1.3960  0.6527  1.3749
   48bbb    H25 1264   6.404   5.509   5.038  0.0023  1.9557 -0.0451
   49bbb     N1 1265   6.343   6.943   5.192 -0.4030  0.7349  0.1574
   49bbb     C1 1266   6.405   6.917   5.057  0.1192  0.0434  0.3382
   49bbb     C2 1267   6.432   7.014   5.290 -0.0928  0.3379 -0.1997
   49bbb     C3 1268   6.404   7.033   4.953  0.3753  0.2309 -0.2582
   49bbb     C4 1269   6.461   6.987   4.813  0.6283  0.0033  0.6469
   49bbb     C5 1270   6.375   7.059   5.428  0.9337  0.8016 -0.3496
   49bbb     C6 1271   6.267   7.171   5.421 -0.4265  0.2516  0.3804
   49bbb     C7 1272   6.315   6.806   5.254  0.2640  0.2455  0.3393
   49bbb     C8 1273   6.179   6.741   5.209 -0.5544  0.0781  0.2927
   49bbb     N2 1274   6.189   6.598   5.226  0.7234 -0.0598  0.5129
   49bbb     O1 1275   6.387   6.923   4.739  0.0806 -0.3679 -0.0076
   49bbb     O2 1276   6.205   7.187   5.317 -0.6625 -0.4964  0.0314
   49bbb     H1 1277   6.497   6.861   5.071 -0.0387 -0.4569 -0.5913
   49bbb     H2 1278   6.337   6.841   5.019 -0.3513  0.0479  1.1451
   49bbb     H3 1279   6.469   7.097   5.230 -0.3412 -0.1642 -1.0655
   49bbb     H4 1280   6.510   6.938   5.303  0.1997  0.3258 -1.7903
   49bbb     H5 1281   6.298   7.060   4.962  0.4063 -0.0833  1.3388
   49bbb     H6 1282   6.467   7.121   4.971 -0.2081  1.4485 -3.6027
   49bbb     H7 1283   6.463   7.096   5.482 -0.0852  2.5326  0.1994
   49bbb     H8 1284   6.336   6.979   5.492  0.0044  1.1842 -0.4292
   49bbb     H9 1285   6.329   6.822   5.361 -0.1079  1.9295  0.1662
   49bbb    H10 1286   6.401   6.751   5.215 -1.5772 -3.0706  0.5812
   49bbb    H11 1287   6.160   6.764   5.103  1.5767 -1.2279 -0.4549
   49bbb    H12 1288   6.090   6.774   5.263 -0.4226 -2.1784  2.0497
   49bbb    H13 1289   6.252   6.559   5.296  1.9058 -1.1666 -1.0961
   49bbb    H25 1290   6.258   7.001   5.188  0.1661  2.1826  4.1764
   50bbb     N1 1291   2.685   6.515   4.225  0.1341  0.5376  0.4285
   50bbb     C1 1292   2.741   6.648   4.264  0.1832 -0.5702  0.0246
   50bbb     C2 1293   2.533   6.522   4.202 -0.1279  0.7253  0.0757
   50bbb     C3 1294   2.757   6.747   4.150 -0.7164  0.1055  0.2815
   50bbb     C4 1295   2.813   6.886   4.196 -0.1265  0.1686  0.4151
   50bbb     C5 1296   2.450   6.508   4.333  0.4936 -1.2244 -0.4325
   50bbb     C6 1297   2.301   6.501   4.299  0.1474  0.4835  0.4078
   50bbb     C7 1298   2.722   6.415   4.335 -0.2723 -0.6681 -0.0966
   50bbb     C8 1299   2.874   6.393   4.368  0.3396  0.3831 -0.3732
   50bbb     N2 1300   2.965   6.338   4.263 -0.2375 -0.1168 -0.2794
   50bbb     O1 1301   2.751   6.954   4.276 -0.2766  0.1142  0.3437
   50bbb     O2 1302   2.240   6.394   4.285  0.4259  0.5019 -0.2405
   50bbb     H1 1303   2.691   6.697   4.348  2.2732  0.0586  0.9610
   50bbb     H2 1304   2.841   6.637   4.306  1.1803  2.8787 -1.1622
   50bbb     H3 1305   2.506   6.447   4.127  1.3026  0.5985 -0.3284
   50bbb     H4 1306   2.514   6.622   4.164 -0.0999  1.1588  1.1594
   50bbb     H5 1307   2.828   6.702   4.078 -0.0616 -0.1664  1.0817
   50bbb     H6 1308   2.660   6.757   4.100 -0.9941 -0.1286  0.7691
   50bbb     H7 1309   2.467   6.598   4.392 -0.0263 -1.8692  0.7425
   50bbb     H8 1310   2.479   6.421   4.393  0.2551 -0.5504  0.6931
   50bbb     H9 1311   2.682   6.317   4.308 -1.4466 -0.2662  0.1448
   50bbb    H10 1312   2.679   6.451   4.429 -0.1361 -0.7391 -0.0074
   50bbb    H11 1313   2.876   6.319   4.449  1.4853  0.3134 -0.4483
   50bbb    H12 1314   2.923   6.483   4.406 -1.2850  1.8978 -1.7282
   50bbb    H13 1315   2.923   6.292   4.183 -1.1673  0.2221  0.0094
   50bbb    H25 1316   2.728   6.489   4.135 -1.9037  1.0423 -0.7493
   51bbb     N1 1317   3.340   6.760   3.299  0.3368 -0.5118 -0.1245
   51bbb     C1 1318   3.442   6.869   3.261  0.5636 -0.2397 -0.7096
   51bbb     C2 1319   3.204   6.776   3.220 -0.6055  0.2376 -0.2447
   51bbb     C3 1320   3.573   6.887   3.334  0.1725 -0.0360 -0.4532
   51bbb     C4 1321   3.646   6.995   3.265  0.6570 -0.5251  0.1239
   51bbb     C5 1322   3.213   6.811   3.073 -0.2633 -0.5860 -0.4325
   51bbb     C6 1323   3.087   6.760   3.004  0.2944  0.1813 -0.1985
   51bbb     C7 1324   3.313   6.765   3.453 -0.3066  0.3775 -0.2798
   51bbb     C8 1325   3.275   6.624   3.508  0.3128 -0.0602 -0.6660
   51bbb     N2 1326   3.280   6.592   3.641  0.2725  0.0557 -0.4445
   51bbb     O1 1327   3.592   7.092   3.211  0.5393 -0.0635 -0.3632
   51bbb     O2 1328   2.988   6.738   3.067 -0.1815 -0.1467 -0.2838
   51bbb     H1 1329   3.464   6.841   3.158 -1.6904 -0.6177 -1.1449
   51bbb     H2 1330   3.387   6.962   3.250 -0.3952 -0.9641 -2.6270
   51bbb     H3 1331   3.152   6.861   3.264  0.9414  0.3102  1.5307
   51bbb     H4 1332   3.145   6.684   3.223  0.2350 -0.3757 -1.3594
   51bbb     H5 1333   3.570   6.903   3.442 -1.7621 -0.7165 -0.3766
   51bbb     H6 1334   3.629   6.793   3.335  2.1264  1.0530  1.3850
   51bbb     H7 1335   3.296   6.766   3.018 -0.2231  1.4303 -2.1426
   51bbb     H8 1336   3.229   6.919   3.059 -0.0637 -0.4905  0.4183
   51bbb     H9 1337   3.241   6.844   3.477  0.3334  0.8403  0.1351
   51bbb    H10 1338   3.407   6.794   3.500 -0.1177 -0.5100 -0.1021
   51bbb    H11 1339   3.343   6.552   3.459  2.2950  0.5431  1.0493
   51bbb    H12 1340   3.176   6.590   3.474  0.5754 -0.5711 -0.9499
   51bbb    H13 1341   3.265   6.664   3.711 -1.9582  0.5780 -1.3406
   51bbb    H25 1342   3.381   6.668   3.280  0.6735 -0.7935  1.7504
   52bbb     N1 1343   3.802   4.623   3.890 -0.0657  0.8003  0.0141
   52bbb     C1 1344   3.933   4.686   3.885  0.8766 -0.6662  0.3589
   52bbb     C2 1345   3.740   4.594   3.751  0.2883 -0.8164  0.2909
   52bbb     C3 1346   3.999   4.701   4.020 -0.1540 -0.1688 -0.1755
   52bbb     C4 1347   4.134   4.768   3.992 -0.0875  0.4574  0.2359
   52bbb     C5 1348   3.824   4.502   3.654  0.1321 -0.1855  0.5362
   52bbb     C6 1349   3.780   4.506   3.510  0.1854  0.0269  0.6836
   52bbb     C7 1350   3.706   4.721   3.958  0.0497  0.0889  0.8905
   52bbb     C8 1351   3.560   4.662   3.995  0.2725 -0.9906  0.0876
   52bbb     N2 1352   3.475   4.784   4.001  0.0077 -0.6361  0.0219
   52bbb     O1 1353   4.207   4.728   3.902  0.4817  0.2614  0.3835
   52bbb     O2 1354   3.685   4.448   3.462 -0.2614 -0.5602 -0.0823
   52bbb     H1 1355   4.004   4.619   3.837  1.2129 -0.1626  0.1519
   52bbb     H2 1356   3.914   4.782   3.838 -2.0030 -0.3467  1.9228
   52bbb     H3 1357   3.731   4.694   3.707  1.0856 -0.4769  0.8742
   52bbb     H4 1358   3.640   4.554   3.766 -0.5834  1.0728 -0.0918
   52bbb     H5 1359   3.959   4.763   4.100 -1.2157 -1.8283  0.6317
   52bbb     H6 1360   4.026   4.606   4.067 -0.0458 -0.5645 -1.0186
   52bbb     H7 1361   3.805   4.405   3.702 -0.0411  0.0517  0.9517
   52bbb     H8 1362   3.929   4.534   3.659 -0.4695  2.5101 -1.7619
   52bbb     H9 1363   3.690   4.811   3.899 -0.9687  0.4563  1.7009
   52bbb    H10 1364   3.747   4.761   4.051 -1.6191  2.8182  0.5801
   52bbb    H11 1365   3.545   4.619   4.095  0.2319  1.1315  1.0348
   52bbb    H12 1366   3.513   4.599   3.919  0.2944 -0.3367 -0.4755
   52bbb    H13 1367   3.422   4.807   3.917  1.2478 -1.0464 -0.9134
   52bbb    H25 1368   3.808   4.530   3.933 -1.7457  0.8616  0.4551
   53bbb     N1 1369   2.766   5.266   3.524 -0.2961  0.0206 -0.0791
   53bbb     C1 1370   2.688   5.141   3.489 -0.1513  0.2692  0.5745
   53bbb     C2 1371   2.824   5.327   3.400  0.2074 -0.9402 -0.1999
   53bbb     C3 1372   2.547   5.169   3.436 -0.4089  0.4622  0.2255
   53bbb     C4 1373   2.502   5.052   3.341  1.0088  0.1055 -0.0579
   53bbb     C5 1374   2.795   5.484   3.382 -0.3826  0.4163 -0.4836
   53bbb     C6 1375   2.847   5.529   3.247 -0.3629  0.4052  0.1535
   53bbb     C7 1376   2.887   5.222   3.613 -0.4022 -0.0066 -0.6305
   53bbb     C8 1377   2.955   5.338   3.688  0.1226 -0.5938  0.6668
   53bbb     N2 1378   3.053   5.281   3.780  0.1251  0.4524  0.5790
   53bbb     O1 1379   2.530   4.936   3.361  0.7375  0.0947 -0.2680
   53bbb     O2 1380   2.933   5.468   3.191 -0.3218  0.0166  0.7594
   53bbb     H1 1381   2.744   5.084   3.414  2.1788 -0.0019  2.3841
   53bbb     H2 1382   2.681   5.084   3.582  1.3416 -1.4340 -0.3000
   53bbb     H3 1383   2.790   5.263   3.319  2.2783 -0.6806 -1.3523
   53bbb     H4 1384   2.933   5.320   3.402  0.3590 -0.7350 -3.3111
   53bbb     H5 1385   2.476   5.179   3.518 -0.1129  2.9835  0.2431
   53bbb     H6 1386   2.551   5.262   3.379 -1.3991 -1.2082 -2.8229
   53bbb     H7 1387   2.861   5.528   3.457  0.7731  2.4166 -2.5518
   53bbb     H8 1388   2.688   5.503   3.396  0.0266  1.4185  1.6401
   53bbb     H9 1389   2.957   5.167   3.549 -1.3705  0.9485 -2.5923
   53bbb    H10 1390   2.842   5.152   3.684 -0.2203  0.5079 -0.0065
   53bbb    H11 1391   2.888   5.399   3.750 -1.6466 -0.6469 -1.0803
   53bbb    H12 1392   2.998   5.413   3.621 -1.7283  1.1528  1.3278
   53bbb    H13 1393   3.039   5.185   3.809 -0.2291  0.1841 -0.4263
   53bbb    H25 1394   2.715   5.340   3.573  1.5187  0.3308  1.4702
   54bbb     N1 1395   3.974   8.169   5.629  0.1191 -0.6008  0.3932
   54bbb     C1 1396   3.942   8.085   5.502 -0.3018 -0.6702 -0.2256
   54bbb     C2 1397   3.980   8.323   5.611  0.0436 -0.4015 -0.4517
   54bbb     C3 1398   3.817   8.128   5.427 -0.6227 -0.3659  0.3668
   54bbb     C4 1399   3.837   8.241   5.317 -0.5238 -0.6341 -0.4952
   54bbb     C5 1400   4.021   8.401   5.742 -0.5254  0.0724  0.5154
   54bbb     C6 1401   3.981   8.543   5.720  0.0409 -0.2940  0.3929
   54bbb     C7 1402   4.106   8.113   5.689 -0.0392 -0.2935  0.3470
   54bbb     C8 1403   4.100   7.969   5.743 -0.1288 -0.4299 -0.1915
   54bbb     N2 1404   3.989   7.942   5.837  0.7414 -0.3803  0.2565
   54bbb     O1 1405   3.903   8.336   5.341 -0.2626  0.4008  0.2285
   54bbb     O2 1406   4.055   8.621   5.663  0.0795  0.1938  0.2457
   54bbb     H1 1407   4.031   8.081   5.439 -0.3376 -3.4473 -0.1986
   54bbb     H2 1408   3.928   7.985   5.542 -0.8893 -0.7058 -0.5212
   54bbb     H3 1409   3.878   8.345   5.579 -0.0424  0.1499  0.1859
   54bbb     H4 1410   4.043   8.349   5.526 -0.4465  1.7663 -0.2060
   54bbb     H5 1411   3.778   8.042   5.371  1.6792 -3.4654  3.1284
   54bbb     H6 1412   3.741   8.159   5.500 -1.0972 -0.7443  0.0410
   54bbb     H7 1413   4.129   8.391   5.758 -0.3165 -0.0251 -0.8283
   54bbb     H8 1414   3.975   8.355   5.830  0.4790 -0.2837  0.8620
   54bbb     H9 1415   4.135   8.187   5.764 -3.3567  3.3830 -1.5841
   54bbb    H10 1416   4.184   8.133   5.615 -0.5044  2.8401  0.5260
   54bbb    H11 1417   4.200   7.941   5.779 -0.2084  0.0770  0.4602
   54bbb    H12 1418   4.074   7.919   5.649 -2.5461  1.0552 -0.4154
   54bbb    H13 1419   3.929   8.020   5.862 -1.1201 -1.5314 -0.3800
   54bbb    H25 1420   3.902   8.152   5.701 -1.2414  0.4824 -0.6644
   55bbb     N1 1421   3.129   7.655   6.366 -0.2718 -0.1931 -0.1987
   55bbb     C1 1422   3.071   7.664   6.506  0.5493 -0.3286 -0.3837
   55bbb     C2 1423   3.046   7.736   6.271  0.6357  0.0033  0.1488
   55bbb     C3 1424   3.153   7.750   6.602 -0.0871  0.3545 -0.2253
   55bbb     C4 1425   3.123   7.703   6.750  0.3609 -0.3098 -0.0218
   55bbb     C5 1426   3.006   7.884   6.303 -0.3148 -0.1767  0.2292
   55bbb     C6 1427   2.908   7.931   6.195  0.1055 -0.1662 -0.3227
   55bbb     C7 1428   3.124   7.508   6.316  0.0767 -0.6703  0.0618
   55bbb     C8 1429   3.208   7.486   6.185  0.4249 -0.1501  0.3587
   55bbb     N2 1430   3.335   7.552   6.187  0.0080 -0.1458 -0.4350
   55bbb     O1 1431   3.020   7.644   6.779  0.1560 -0.1517  0.1033
   55bbb     O2 1432   2.835   7.861   6.128 -0.2937 -0.1682 -0.0351
   55bbb     H1 1433   2.971   7.708   6.502  0.7479  0.3191  1.1603
   55bbb     H2 1434   3.069   7.562   6.545 -0.8897  0.2386  1.1701
   55bbb     H3 1435   2.949   7.686   6.261  0.4857  0.2620  0.3115
   55bbb     H4 1436   3.096   7.731   6.174 -1.2299 -3.3013 -0.8118
   55bbb     H5 1437   3.260   7.747   6.581 -0.2207  3.5111 -2.0320
   55bbb     H6 1438   3.126   7.856   6.586  2.6471  1.0673 -0.5602
   55bbb     H7 1439   3.091   7.953   6.307 -1.3807  1.1715  0.0711
   55bbb     H8 1440   2.947   7.889   6.395  1.1293  0.0459  1.1772
   55bbb     H9 1441   3.021   7.475   6.309  0.3917 -1.2889 -3.4683
   55bbb    H10 1442   3.163   7.464   6.408 -0.1881  0.2132  0.6145
   55bbb    H11 1443   3.152   7.546   6.111  0.5603  0.1892  0.5296
   55bbb    H12 1444   3.217   7.377   6.176 -0.4702 -0.2659  0.7519
   55bbb    H13 1445   3.366   7.602   6.270  0.4596  0.1970 -0.8024
   55bbb    H25 1446   3.229   7.679   6.369 -0.4293  0.3977  0.5601
   56bbb     N1 1447   4.966   7.514   5.730 -0.0293  0.7170 -0.0057
   56bbb     C1 1448   5.006   7.577   5.855  0.3803  0.1980 -0.8837
   56bbb     C2 1449   5.077   7.535   5.623  0.0624 -0.1444  0.5929
   56bbb     C3 1450   5.133   7.516   5.921 -0.3689 -0.2580  0.5484
   56bbb     C4 1451   5.159   7.593   6.057 -0.7933  0.1265  0.3244
   56bbb     C5 1452   5.116   7.677   5.596 -0.1945 -1.0106 -0.2406
   56bbb     C6 1453   5.191   7.704   5.466  0.2316 -0.3001  0.6608
   56bbb     C7 1454   4.834   7.572   5.682 -0.3089 -0.4662  0.2946
   56bbb     C8 1455   4.715   7.524   5.760  0.0318 -0.4770  1.0803
   56bbb     N2 1456   4.700   7.380   5.757 -0.1155  0.0897 -0.2570
   56bbb     O1 1457   5.078   7.664   6.108 -0.0680  0.0419 -0.2288
   56bbb     O2 1458   5.154   7.655   5.355 -0.0001  0.2575  0.0521
   56bbb     H1 1459   5.012   7.683   5.832 -1.3965  0.4197 -0.5001
   56bbb     H2 1460   4.919   7.568   5.920 -0.0453 -0.2594 -1.5080
   56bbb     H3 1461   5.037   7.489   5.532 -1.1610  0.4326  0.8151
   56bbb     H4 1462   5.159   7.472   5.656  0.7569  0.6007  0.3129
   56bbb     H5 1463   5.114   7.411   5.945  0.4295 -0.2088  1.4342
   56bbb     H6 1464   5.219   7.525   5.854 -0.1863 -1.5517  0.5788
   56bbb     H7 1465   5.176   7.720   5.677  1.6682 -0.5496 -1.7875
   56bbb     H8 1466   5.024   7.736   5.584 -0.1186 -1.3581 -3.3772
   56bbb     H9 1467   4.819   7.550   5.576 -0.0176  3.4471 -0.7212
   56bbb    H10 1468   4.850   7.680   5.688  1.1863 -0.4914 -1.9207
   56bbb    H11 1469   4.624   7.567   5.715  0.7291  0.0746  0.1574
   56bbb    H12 1470   4.723   7.552   5.866  0.4004  2.4991  0.3709
   56bbb    H13 1471   4.612   7.354   5.712 -0.7336  1.3381  0.1851
   56bbb    H25 1472   4.948   7.413   5.743 -1.3493  1.0824  1.3668
   57bbb     N1 1473   4.661   7.166   6.798 -0.2953 -0.4422 -0.2090
   57bbb     C1 1474   4.655   7.268   6.908 -0.3364 -0.1860 -0.7087
   57bbb     C2 1475   4.612   7.036   6.844  0.5158  0.2107 -0.4592
   57bbb     C3 1476   4.674   7.416   6.869 -0.0297  0.1872  0.6586
   57bbb     C4 1477   4.657   7.502   6.991  0.0125 -0.1737  0.4409
   57bbb     C5 1478   4.454   7.039   6.861  0.3658  0.9859 -0.2284
   57bbb     C6 1479   4.395   6.915   6.929  0.6438 -0.3791 -0.3933
   57bbb     C7 1480   4.808   7.155   6.759  0.4577 -0.0100 -0.3815
   57bbb     C8 1481   4.834   7.052   6.649  0.2094 -0.0282 -0.1587
   57bbb     N2 1482   4.759   7.076   6.523 -0.4869 -0.0343 -0.3398
   57bbb     O1 1483   4.639   7.451   7.097 -0.3630 -0.5295 -0.0715
   57bbb     O2 1484   4.451   6.804   6.931 -0.1387  0.0143  0.2739
   57bbb     H1 1485   4.563   7.266   6.967  0.1079  0.7937  0.0600
   57bbb     H2 1486   4.729   7.233   6.981  0.6529  1.8575 -0.6553
   57bbb     H3 1487   4.662   7.017   6.939 -0.0114 -1.2887 -0.4460
   57bbb     H4 1488   4.634   6.953   6.776  0.1331 -1.8671  1.8188
   57bbb     H5 1489   4.774   7.435   6.829  0.5665 -1.6190  1.1943
   57bbb     H6 1490   4.607   7.457   6.792  1.4136 -1.3020 -1.4941
   57bbb     H7 1491   4.411   7.051   6.761 -0.5119 -0.3677 -0.0280
   57bbb     H8 1492   4.414   7.132   6.902 -1.2336 -0.2518  1.1343
   57bbb     H9 1493   4.862   7.126   6.850 -1.9015 -1.9123  0.5031
   57bbb    H10 1494   4.840   7.254   6.727 -0.3073  0.7576  1.1323
   57bbb    H11 1495   4.822   6.947   6.678 -1.2894  0.3015  0.5163
   57bbb    H12 1496   4.939   7.070   6.624  0.0972  0.9078  0.0150
   57bbb    H13 1497   4.690   7.149   6.512 -0.2708  0.4372  1.1879
   57bbb    H25 1498   4.602   7.196   6.719  0.2415  1.5210  0.0811
   58bbb     N1 1499   2.861   5.001   7.777  0.3215  0.1378 -0.3991
   58bbb     C1 1500   2.735   4.929   7.730 -0.0745  0.8088  0.1862
   58bbb     C2 1501   2.991   4.936   7.726 -0.2816 -0.6829  0.4077
   58bbb     C3 1502   2.593   4.987   7.745 -0.2717  0.8818 -0.3590
   58bbb     C4 1503   2.492   4.957   7.634  0.0045 -0.9927 -0.0704
   58bbb     C5 1504   3.016   4.793   7.765  0.4234  0.4009  0.3829
   58bbb     C6 1505   2.948   4.687   7.673 -0.5696 -0.3057  0.1704
   58bbb     C7 1506   2.860   5.017   7.925  0.5277  0.1599 -0.2537
   58bbb     C8 1507   2.968   5.115   7.983  0.0485  0.3664 -0.7875
   58bbb     N2 1508   2.951   5.251   7.923 -1.1718 -0.3025  0.4613
   58bbb     O1 1509   2.524   4.939   7.519  0.4224  0.1449 -0.1808
   58bbb     O2 1510   2.859   4.718   7.604 -0.3104 -0.2586  0.0644
   58bbb     H1 1511   2.753   4.931   7.623  0.6712 -2.2372  0.1546
   58bbb     H2 1512   2.737   4.827   7.768  1.4214  0.1654 -1.5036
   58bbb     H3 1513   3.071   5.007   7.748 -1.8902  1.4262 -0.2762
   58bbb     H4 1514   2.971   4.948   7.619 -1.8267  0.6742  0.8181
   58bbb     H5 1515   2.567   4.946   7.844  1.0447 -0.1381 -0.4075
   58bbb     H6 1516   2.586   5.096   7.759 -0.1899  0.7742  0.5914
   58bbb     H7 1517   2.983   4.789   7.870 -1.4862  3.9968  0.0847
   58bbb     H8 1518   3.122   4.778   7.785  0.2090  0.4511  1.6713
   58bbb     H9 1519   2.877   4.920   7.972 -0.6425 -0.1350 -0.4130
   58bbb    H10 1520   2.762   5.058   7.946  0.5667  0.0620  0.1415
   58bbb    H11 1521   3.067   5.068   7.988 -0.6794 -1.1812  3.4872
   58bbb    H12 1522   2.947   5.129   8.089  0.9515 -2.7389 -0.0870
   58bbb    H13 1523   2.860   5.276   7.887 -2.3158 -1.8329  2.0923
   58bbb    H25 1524   2.852   5.097   7.740  0.1351  0.8369  1.3420
   59bbb     N1 1525   2.462   6.218   7.954 -0.0308 -0.0157  1.0467
   59bbb     C1 1526   2.365   6.107   7.954  0.1655 -0.5390  0.1771
   59bbb     C2 1527   2.440   6.313   7.834  0.5016  0.8241  0.0193
   59bbb     C3 1528   2.241   6.163   8.029  0.0768 -0.6576  0.2775
   59bbb     C4 1529   2.258   6.200   8.179  0.2917 -0.5803  0.0136
   59bbb     C5 1530   2.488   6.460   7.851 -0.1146  0.3201  0.6874
   59bbb     C6 1531   2.396   6.544   7.946 -0.2273  0.1189 -0.5944
   59bbb     C7 1532   2.607   6.170   7.934 -0.1815 -0.4504 -0.3538
   59bbb     C8 1533   2.666   6.087   8.055 -0.5120  0.2577  0.4999
   59bbb     N2 1534   2.784   6.016   8.008  0.0099  0.4757 -0.2381
   59bbb     O1 1535   2.359   6.187   8.244  0.1561  0.5086  0.0312
   59bbb     O2 1536   2.338   6.497   8.039  0.4591  0.1672  0.0265
   59bbb     H1 1537   2.335   6.071   7.856  3.0125 -0.6793 -0.7076
   59bbb     H2 1538   2.393   6.015   8.004 -1.3032 -2.4386 -2.2854
   59bbb     H3 1539   2.332   6.312   7.818  0.5750  1.0922 -0.5255
   59bbb     H4 1540   2.475   6.256   7.747  2.5609  0.4457  1.0271
   59bbb     H5 1541   2.199   6.243   7.968  1.2518 -0.6094 -0.5076
   59bbb     H6 1542   2.158   6.091   8.026 -0.9392  0.4375  1.2854
   59bbb     H7 1543   2.487   6.506   7.751 -0.0480  0.2486  0.6533
   59bbb     H8 1544   2.589   6.444   7.892 -0.5448 -0.8876  1.3473
   59bbb     H9 1545   2.670   6.255   7.909 -0.3535  1.0689  3.5947
   59bbb    H10 1546   2.613   6.102   7.850  1.1058 -3.3194  1.8892
   59bbb    H11 1547   2.587   6.020   8.092 -1.9214  1.4814 -0.2002
   59bbb    H12 1548   2.690   6.144   8.145 -3.1288  0.3365  1.2377
   59bbb    H13 1549   2.855   6.077   7.970  1.4127 -1.1178 -0.3099
   59bbb    H25 1550   2.455   6.266   8.044 -0.7041 -0.4651  1.2423
   60bbb     N1 1551   1.888   5.528   6.737 -0.5563  0.5543 -0.4807
   60bbb     C1 1552   1.800   5.463   6.841  0.1281 -0.7504 -0.3574
   60bbb     C2 1553   1.825   5.537   6.602  0.0951 -0.6696 -0.0827
   60bbb     C3 1554   1.762   5.314   6.838  0.5467 -0.4866  0.6327
   60bbb     C4 1555   1.650   5.289   6.939 -0.1802  0.4499  0.4040
   60bbb     C5 1556   1.706   5.643   6.596 -0.6823  0.1121 -0.2897
   60bbb     C6 1557   1.614   5.618   6.485  0.6850  0.2461  0.0296
   60bbb     C7 1558   2.017   5.443   6.731  0.9548  0.5746  0.3153
   60bbb     C8 1559   2.126   5.520   6.655  0.1681 -0.9118 -0.1810
   60bbb     N2 1560   2.173   5.647   6.721  0.3880  0.3121  0.0970
   60bbb     O1 1561   1.584   5.380   6.981  0.3944 -0.1285  0.3826
   60bbb     O2 1562   1.603   5.515   6.416 -0.4047 -0.2191 -0.3575
   60bbb     H1 1563   1.838   5.488   6.941  2.7952 -3.7647 -0.4924
   60bbb     H2 1564   1.708   5.522   6.848 -0.1729 -0.9433 -2.2805
   60bbb     H3 1565   1.795   5.439   6.565  0.4041 -0.8276  0.0804
   60bbb     H4 1566   1.902   5.572   6.534 -0.2580 -2.1263 -1.2801
   60bbb     H5 1567   1.726   5.280   6.740  3.6420 -2.4021  0.0240
   60bbb     H6 1568   1.850   5.253   6.862  0.3715 -1.2030 -0.4875
   60bbb     H7 1569   1.756   5.741   6.596 -0.3922 -0.0294 -0.9870
   60bbb     H8 1570   1.641   5.647   6.684 -0.2030  1.3301  0.0329
   60bbb     H9 1571   1.985   5.350   6.685 -1.3629  0.8076  1.3158
   60bbb    H10 1572   2.058   5.423   6.830  1.7336  1.2706  0.1467
   60bbb    H11 1573   2.080   5.530   6.556 -2.5837  0.0621  1.0965
   60bbb    H12 1574   2.212   5.459   6.627  0.7895  1.1677 -3.4047
   60bbb    H13 1575   2.250   5.649   6.786 -0.5029  4.6449  1.3654
   60bbb    H25 1576   1.919   5.618   6.776  1.1235 -0.9625  1.9932
   61bbb     N1 1577   2.187   6.792   6.434  0.3568 -0.3864 -0.2611
   61bbb     C1 1578   2.056   6.762   6.370  0.2568 -0.3395  0.6274
   61bbb     C2 1579   2.286   6.862   6.338 -0.1539  0.0138  0.8680
   61bbb     C3 1580   1.985   6.882   6.308  0.6176  0.2316  0.1315
   61bbb     C4 1581   1.840   6.849   6.262  0.0812  0.6413 -0.6724
   61bbb     C5 1582   2.323   6.787   6.203 -0.2090 -0.1564  1.0636
   61bbb     C6 1583   2.442   6.866   6.129  0.0315 -0.1021  0.4457
   61bbb     C7 1584   2.251   6.664   6.490  0.0885 -0.5936 -0.3108
   61bbb     C8 1585   2.186   6.604   6.613 -0.1271  0.6937 -0.3236
   61bbb     N2 1586   2.260   6.477   6.643  0.2593 -0.0588 -0.4962
   61bbb     O1 1587   1.813   6.733   6.234  0.3875  0.2823 -0.2414
   61bbb     O2 1588   2.430   6.984   6.102 -0.0328 -0.4747 -0.6356
   61bbb     H1 1589   2.075   6.689   6.291 -0.8176  2.7042 -2.7189
   61bbb     H2 1590   1.982   6.726   6.443 -1.2179  0.6319 -0.3258
   61bbb     H3 1591   2.372   6.873   6.405 -0.6216  1.1629  1.2993
   61bbb     H4 1592   2.275   6.967   6.313  1.6342  0.4474  1.7009
   61bbb     H5 1593   1.974   6.959   6.385  3.9090 -1.2066  2.2741
   61bbb     H6 1594   2.040   6.925   6.224  1.7229  0.6143  1.0319
   61bbb     H7 1595   2.243   6.791   6.128  1.7359  1.2096 -1.0751
   61bbb     H8 1596   2.340   6.679   6.208  1.1525 -0.0699 -0.5941
   61bbb     H9 1597   2.356   6.685   6.510 -0.1435 -0.1521  0.4787
   61bbb    H10 1598   2.228   6.597   6.406  1.3975 -1.6113  0.1096
   61bbb    H11 1599   2.079   6.585   6.593 -0.3444  1.4124  0.1121
   61bbb    H12 1600   2.191   6.669   6.701 -1.8821 -1.8861  1.8147
   61bbb    H13 1601   2.351   6.461   6.602  0.2056 -0.5337 -0.4328
   61bbb    H25 1602   2.173   6.863   6.508  1.8112  0.7331 -1.0112
   62bbb     N1 1603   2.917   2.895   7.180  0.4705  0.2622  0.0789
   62bbb     C1 1604   2.812   2.842   7.270  0.4945 -0.6191 -1.1026
   62bbb     C2 1605   3.051   2.874   7.252  0.4454  0.2083  0.1133
   62bbb     C3 1606   2.669   2.839   7.219  0.5079 -0.7576  0.5349
   62bbb     C4 1607   2.614   2.693   7.205 -0.6104 -0.0783 -0.0125
   62bbb     C5 1608   3.111   2.735   7.267  0.0818  0.3562 -0.4243
   62bbb     C6 1609   3.262   2.739   7.301 -0.0273 -0.0233  0.0894
   62bbb     C7 1610   2.891   3.045   7.150 -0.2346 -0.0828 -0.3589
   62bbb     C8 1611   2.983   3.097   7.041 -0.1294  1.3746 -0.0709
   62bbb     N2 1612   2.961   3.037   6.913  0.2505  0.1107  0.9034
   62bbb     O1 1613   2.685   2.599   7.232 -0.2454 -0.2270  0.7518
   62bbb     O2 1614   3.349   2.764   7.218  0.2942  0.0874 -0.1424
   62bbb     H1 1615   2.841   2.742   7.303 -1.5553 -1.7815 -2.6210
   62bbb     H2 1616   2.812   2.910   7.355  0.1949 -0.6080 -1.1095
   62bbb     H3 1617   3.045   2.924   7.349  0.1258  0.3375  0.0273
   62bbb     H4 1618   3.118   2.927   7.183 -1.9015  1.6506 -1.1872
   62bbb     H5 1619   2.608   2.902   7.284 -1.0285 -1.5105 -0.1309
   62bbb     H6 1620   2.673   2.882   7.118  0.5465 -3.3974 -0.6877
   62bbb     H7 1621   3.095   2.673   7.178  0.6138 -0.3505 -0.0452
   62bbb     H8 1622   3.053   2.699   7.352  1.3844 -0.7282  0.0567
   62bbb     H9 1623   2.918   3.091   7.246 -0.7131  0.2166 -0.3629
   62bbb    H10 1624   2.787   3.072   7.128  0.0190  0.8630 -0.4606
   62bbb    H11 1625   3.090   3.094   7.067  0.4728  1.2429 -2.3481
   62bbb    H12 1626   2.954   3.199   7.013 -1.2963  1.6185  1.8418
   62bbb    H13 1627   2.903   3.082   6.843  0.1985  0.6077  1.2624
   62bbb    H25 1628   2.921   2.845   7.090 -1.8744  0.0380  0.0332
   63bbb     N1 1629   2.733   1.890   6.684 -0.2901  0.1791 -0.2051
   63bbb     C1 1630   2.702   1.861   6.538 -0.1577 -0.1599  0.1909
   63bbb     C2 1631   2.628   1.845   6.787 -0.5723 -0.9507  0.1160
   63bbb     C3 1632   2.765   1.731   6.489  0.0197 -0.4354  0.1231
   63bbb     C4 1633   2.916   1.718   6.510  0.3449 -0.4494 -0.3104
   63bbb     C5 1634   2.609   1.693   6.799 -0.5458  0.1841  0.4221
   63bbb     C6 1635   2.533   1.652   6.928 -0.3081  0.2559 -0.1037
   63bbb     C7 1636   2.749   2.045   6.701 -0.3800 -0.5328 -0.3477
   63bbb     C8 1637   2.860   2.114   6.616  0.4803 -0.6585 -0.1211
   63bbb     N2 1638   2.899   2.251   6.665 -0.2869  0.1018 -0.3530
   63bbb     O1 1639   2.980   1.780   6.598 -0.0991  0.7146 -0.1218
   63bbb     O2 1640   2.530   1.736   7.018 -0.2737 -0.6988 -0.2231
   63bbb     H1 1641   2.593   1.861   6.527 -0.4145  1.5525  2.2063
   63bbb     H2 1642   2.745   1.943   6.481 -1.4714 -0.8348 -1.9237
   63bbb     H3 1643   2.541   1.909   6.773  1.2009  1.7292  0.6057
   63bbb     H4 1644   2.661   1.880   6.885 -0.1039  0.0858 -0.3997
   63bbb     H5 1645   2.719   1.654   6.552 -2.4842 -0.8467 -2.0190
   63bbb     H6 1646   2.734   1.696   6.389 -1.9094 -2.4931  1.3521
   63bbb     H7 1647   2.699   1.630   6.798  1.0156  2.3140  0.3912
   63bbb     H8 1648   2.547   1.667   6.712  2.0754  1.5304 -2.0622
   63bbb     H9 1649   2.775   2.057   6.806 -1.5896 -0.7618  0.0041
   63bbb    H10 1650   2.652   2.092   6.684  0.1649  0.0901 -1.9304
   63bbb    H11 1651   2.838   2.123   6.509 -1.2041 -0.6197  0.2006
   63bbb    H12 1652   2.948   2.048   6.612  0.6583 -0.3923 -0.9407
   63bbb    H13 1653   2.854   2.291   6.747 -0.0182  0.5272 -0.4101
   63bbb    H25 1654   2.825   1.849   6.706  0.4619  1.3980 -0.9257
   64bbb     N1 1655   4.404   2.002   7.202 -0.5185  0.4376 -0.4449
   64bbb     C1 1656   4.318   1.979   7.077 -0.5510  0.0031 -0.2063
   64bbb     C2 1657   4.356   1.923   7.323  0.2857 -0.7874 -0.0649
   64bbb     C3 1658   4.358   1.843   7.012 -0.1105 -0.6812 -0.1341
   64bbb     C4 1659   4.282   1.819   6.884 -0.7620  0.2304  0.1730
   64bbb     C5 1660   4.442   1.915   7.447  0.2948  0.2913  0.3270
   64bbb     C6 1661   4.556   1.820   7.427  0.2323  0.5078  0.0935
   64bbb     C7 1662   4.407   2.153   7.230 -0.4441 -0.0573 -0.0992
   64bbb     C8 1663   4.502   2.247   7.150 -0.0251 -0.2588  0.3826
   64bbb     N2 1664   4.462   2.253   7.005 -0.3303  0.2089 -0.0786
   64bbb     O1 1665   4.317   1.875   6.779 -0.3609 -0.2135 -0.4690
   64bbb     O2 1666   4.624   1.823   7.329  0.2377 -0.1308 -0.3300
   64bbb     H1 1667   4.212   1.989   7.105 -0.3678 -0.6839  0.8136
   64bbb     H2 1668   4.337   2.058   7.004  1.9654  1.1104  1.4951
   64bbb     H3 1669   4.334   1.825   7.280 -1.3678  0.1882 -1.6075
   64bbb     H4 1670   4.258   1.960   7.353 -0.6343 -2.4073 -0.9180
   64bbb     H5 1671   4.463   1.850   6.980 -0.0509  2.3237  0.4998
   64bbb     H6 1672   4.347   1.751   7.072  0.2124 -0.0936  0.8535
   64bbb     H7 1673   4.382   1.896   7.537  1.1231 -1.9095  0.4873
   64bbb     H8 1674   4.495   2.010   7.464  1.5550  0.3309 -3.1007
   64bbb     H9 1675   4.422   2.167   7.337  1.0901 -3.2612  0.2210
   64bbb    H10 1676   4.302   2.175   7.211 -0.3709  0.4778  0.0983
   64bbb    H11 1677   4.604   2.208   7.147  0.7187  1.6357 -0.6324
   64bbb    H12 1678   4.498   2.347   7.195  0.0299  0.1665 -0.5346
   64bbb    H13 1679   4.523   2.214   6.934 -2.6610 -0.6065 -1.7472
   64bbb    H25 1680   4.500   1.967   7.192 -0.3651  0.6495  0.2571
   65bbb     N1 1681   4.128   2.500   7.569 -0.2751  0.2325  0.2932
   65bbb     C1 1682   3.992   2.548   7.624  0.0499 -0.3197  0.3215
   65bbb     C2 1683   4.240   2.590   7.615 -0.8921 -0.2207  0.6696
   65bbb     C3 1684   3.904   2.436   7.666 -1.2703  0.2295 -0.2407
   65bbb     C4 1685   3.765   2.471   7.698  0.1299 -0.9009  0.1787
   65bbb     C5 1686   4.282   2.576   7.757  0.3486  0.6339  0.1907
   65bbb     C6 1687   4.366   2.695   7.806  0.3566  0.2056 -0.4219
   65bbb     C7 1688   4.134   2.489   7.414 -0.0982  0.9630 -0.5263
   65bbb     C8 1689   4.104   2.614   7.332 -0.9294 -0.2776  0.4876
   65bbb     N2 1690   4.116   2.587   7.188  0.4343 -0.2034  0.6229
   65bbb     O1 1691   3.707   2.555   7.633  0.6973 -0.2922 -0.3897
   65bbb     O2 1692   4.455   2.753   7.744  0.1055 -0.2693  0.3843
   65bbb     H1 1693   4.014   2.608   7.713  3.1348 -0.0783 -0.4665
   65bbb     H2 1694   3.943   2.608   7.547  0.0746  0.5730  0.9800
   65bbb     H3 1695   4.199   2.690   7.596 -1.7349 -0.8833 -1.3087
   65bbb     H4 1696   4.324   2.580   7.547 -1.4709  2.2283 -0.5484
   65bbb     H5 1697   3.907   2.363   7.585 -1.2966 -0.9173  0.7586
   65bbb     H6 1698   3.946   2.391   7.757  0.3174  2.0106 -0.0348
   65bbb     H7 1699   4.342   2.485   7.774 -1.2387 -0.4004  0.4332
   65bbb     H8 1700   4.191   2.558   7.815  0.3731 -2.2260 -0.5059
   65bbb     H9 1701   4.076   2.403   7.382 -1.8089  2.3773 -1.3522
   65bbb    H10 1702   4.238   2.463   7.393 -0.6288  0.7101 -3.0996
   65bbb    H11 1703   4.171   2.697   7.356 -0.2789 -0.7720  0.4005
   65bbb    H12 1704   4.004   2.658   7.343 -0.0457  1.3935  2.5809
   65bbb    H13 1705   4.168   2.504   7.163  0.4099 -0.2994  0.8874
   65bbb    H25 1706   4.158   2.409   7.604  0.2070 -0.5302 -1.9395
   66bbb     N1 1707   1.443   2.640   5.956  0.5074  0.0936 -0.1331
   66bbb     C1 1708   1.333   2.536   6.003  0.5479 -0.3060  0.5440
   66bbb     C2 1709   1.396   2.749   5.860  0.0201  0.6037 -0.5628
   66bbb     C3 1710   1.345   2.466   6.141  0.2152 -0.1298  0.3148
   66bbb     C4 1711   1.233   2.355   6.144  0.2554 -0.2535  0.1327
   66bbb     C5 1712   1.347   2.695   5.729 -0.0061  0.1519  0.1344
   66bbb     C6 1713   1.338   2.787   5.611 -0.7615 -0.7013 -0.1677
   66bbb     C7 1714   1.565   2.565   5.906 -0.1341  1.2269 -0.1858
   66bbb     C8 1715   1.694   2.647   5.902  0.1737 -0.1946  0.5649
   66bbb     N2 1716   1.724   2.728   6.027 -0.4703  0.2528  0.8385
   66bbb     O1 1717   1.210   2.304   6.038 -0.5120  0.4411 -0.1569
   66bbb     O2 1718   1.389   2.899   5.607  0.2263 -0.1281  0.4734
   66bbb     H1 1719   1.239   2.590   5.997  0.2387 -1.0041 -1.6212
   66bbb     H2 1720   1.318   2.478   5.912  1.1993 -1.5498  1.2076
   66bbb     H3 1721   1.473   2.824   5.841 -0.3646  0.7304 -1.6786
   66bbb     H4 1722   1.313   2.802   5.906 -0.4608 -0.4956 -0.1314
   66bbb     H5 1723   1.440   2.414   6.158 -0.8347 -2.0326  0.6040
   66bbb     H6 1724   1.318   2.534   6.223 -1.6511 -0.7829  0.2850
   66bbb     H7 1725   1.251   2.643   5.738  0.7107 -1.3330 -0.4714
   66bbb     H8 1726   1.413   2.620   5.684 -0.1425 -0.0752  0.3041
   66bbb     H9 1727   1.547   2.528   5.805  1.2902  1.1962 -0.4434
   66bbb    H10 1728   1.584   2.478   5.970 -0.6474  1.3300  0.1129
   66bbb    H11 1729   1.694   2.720   5.820  0.9390 -0.4442  0.3312
   66bbb    H12 1730   1.786   2.590   5.883  0.4673  0.6539 -0.7080
   66bbb    H13 1731   1.712   2.689   6.120  1.0992 -1.2604  0.4601
   66bbb    H25 1732   1.461   2.686   6.046 -2.6715 -0.6857  1.0488
   67bbb     N1 1733   1.547   3.392   6.781 -0.1595  0.1529  0.4530
   67bbb     C1 1734   1.455   3.516   6.807 -0.4628  0.3757 -0.3856
   67bbb     C2 1735   1.678   3.448   6.716  0.2326 -0.0311 -0.2635
   67bbb     C3 1736   1.341   3.495   6.902 -0.5335 -0.0798  0.0157
   67bbb     C4 1737   1.375   3.442   7.041 -0.0247 -1.0150  0.1070
   67bbb     C5 1738   1.775   3.498   6.820 -0.0316 -0.3361 -0.6842
   67bbb     C6 1739   1.836   3.389   6.906  0.5812 -0.1891 -0.0095
   67bbb     C7 1740   1.481   3.310   6.682  0.3169 -0.3479  0.3669
   67bbb     C8 1741   1.511   3.161   6.676  0.0559  1.0339  0.2252
   67bbb     N2 1742   1.585   3.126   6.553  0.6700  0.2574  0.2079
   67bbb     O1 1743   1.483   3.392   7.070  0.3761 -0.0708  0.8027
   67bbb     O2 1744   1.786   3.273   6.903 -0.5959  0.0734 -0.6085
   67bbb     H1 1745   1.511   3.599   6.851 -3.9342  2.7601 -0.0170
   67bbb     H2 1746   1.430   3.553   6.707  0.9611 -0.9926 -1.2999
   67bbb     H3 1747   1.657   3.530   6.648  1.4642  0.2648 -0.3089
   67bbb     H4 1748   1.726   3.368   6.659 -0.5891 -0.1008 -0.8666
   67bbb     H5 1749   1.284   3.589   6.908 -1.2301 -0.3452 -1.6557
   67bbb     H6 1750   1.277   3.414   6.863 -0.6050 -0.6746  1.3240
   67bbb     H7 1751   1.727   3.573   6.884 -0.4035 -0.3479 -0.9437
   67bbb     H8 1752   1.860   3.553   6.779  0.7265 -0.9881 -0.0204
   67bbb     H9 1753   1.490   3.362   6.587  1.0800  2.5992  1.9233
   67bbb    H10 1754   1.376   3.324   6.706  0.5173  2.9750 -0.2019
   67bbb    H11 1755   1.411   3.114   6.673  0.6361 -0.2128 -0.2938
   67bbb    H12 1756   1.572   3.139   6.764 -0.6154  0.8276  0.6468
   67bbb    H13 1757   1.537   3.136   6.465  0.1236 -0.3556  0.4307
   67bbb    H25 1758   1.573   3.344   6.869 -1.5408  1.3663  1.5842
   68bbb     N1 1759   1.728   3.637   5.113 -0.1820 -0.0187  0.4062
   68bbb     C1 1760   1.644   3.513   5.107  0.2499 -0.5978 -0.4316
   68bbb     C2 1761   1.704   3.713   4.989 -0.3085 -0.5898  0.4368
   68bbb     C3 1762   1.631   3.435   5.245 -0.0668 -0.1491  0.0839
   68bbb     C4 1763   1.580   3.296   5.216 -0.3699 -0.6488  0.0369
   68bbb     C5 1764   1.568   3.785   4.970  0.3208  0.3094  0.8185
   68bbb     C6 1765   1.586   3.892   4.863 -0.8714 -0.1892  0.5670
   68bbb     C7 1766   1.873   3.598   5.136 -0.1756  0.1678 -0.0038
   68bbb     C8 1767   1.974   3.716   5.141 -0.3066 -0.4151  0.3112
   68bbb     N2 1768   1.929   3.811   5.242 -0.4232  0.0542 -0.3834
   68bbb     O1 1769   1.579   3.244   5.107 -0.3127 -0.1806 -0.1247
   68bbb     O2 1770   1.545   3.880   4.749 -0.0732 -0.3177 -0.3992
   68bbb     H1 1771   1.541   3.533   5.077  0.3641  0.4703 -0.1510
   68bbb     H2 1772   1.682   3.438   5.038 -0.8290 -3.4807  1.8708
   68bbb     H3 1773   1.724   3.649   4.902  1.9812  1.4095 -0.6244
   68bbb     H4 1774   1.781   3.790   4.981 -0.1553 -0.7217  0.6378
   68bbb     H5 1775   1.727   3.435   5.299 -1.7106  2.0797  3.2928
   68bbb     H6 1776   1.560   3.491   5.307  2.3345  1.9565  1.0929
   68bbb     H7 1777   1.536   3.832   5.064 -2.8473  0.4799 -0.2146
   68bbb     H8 1778   1.487   3.716   4.942  0.1164 -0.1496  2.4511
   68bbb     H9 1779   1.895   3.515   5.068 -2.7667 -1.3757  0.9068
   68bbb    H10 1780   1.880   3.551   5.234 -0.4704 -0.0097 -0.0670
   68bbb    H11 1781   1.972   3.766   5.044 -0.1237  0.6864  0.8587
   68bbb    H12 1782   2.078   3.686   5.158  0.0370  0.0275 -0.9387
   68bbb    H13 1783   1.875   3.785   5.323  1.6074 -0.4848  0.8734
   68bbb    H25 1784   1.697   3.698   5.191 -1.3781  0.7495 -0.6435
   69bbb     N1 1785   2.120   4.995   5.405  0.5954  0.5898  0.7325
   69bbb     C1 1786   2.264   5.035   5.450  0.0100 -0.2858  0.0547
   69bbb     C2 1787   2.016   5.069   5.483  0.1116 -0.3259 -0.2592
   69bbb     C3 1788   2.392   5.028   5.361 -0.4055 -0.1126 -0.2751
   69bbb     C4 1789   2.502   5.102   5.437  0.1459 -0.2646 -0.1945
   69bbb     C5 1790   1.873   5.064   5.422  0.5621  0.1543  0.6790
   69bbb     C6 1791   1.774   5.152   5.489 -0.3683  0.3177 -0.0040
   69bbb     C7 1792   2.118   4.844   5.416  0.6851  0.2045 -0.0100
   69bbb     C8 1793   2.162   4.771   5.550 -0.0863  0.0425 -0.1531
   69bbb     N2 1794   2.114   4.631   5.559 -0.1866  0.0522 -0.5626
   69bbb     O1 1795   2.584   5.047   5.512 -1.1315  0.0741 -0.6275
   69bbb     O2 1796   1.785   5.185   5.608  0.0800  0.2878  0.1445
   69bbb     H1 1797   2.263   5.135   5.494  0.8233 -0.8133  1.3332
   69bbb     H2 1798   2.284   4.974   5.538 -0.3861 -2.0433 -1.0134
   69bbb     H3 1799   2.045   5.174   5.479 -2.4890  0.4482 -0.1214
   69bbb     H4 1800   2.018   5.047   5.590  0.2491  1.2022  0.0797
   69bbb     H5 1801   2.436   4.928   5.348 -0.6370 -0.2499 -0.0223
   69bbb     H6 1802   2.376   5.081   5.266  0.5949 -1.4980 -1.2580
   69bbb     H7 1803   1.831   4.963   5.422  1.2295 -0.1304  0.9764
   69bbb     H8 1804   1.874   5.097   5.318  1.2684 -0.3981  0.5045
   69bbb     H9 1805   2.170   4.804   5.328 -0.8418 -0.4547 -0.6500
   69bbb    H10 1806   2.013   4.829   5.393  0.2326 -0.6022  2.3737
   69bbb    H11 1807   2.112   4.827   5.630 -2.4763 -0.3024 -1.3090
   69bbb    H12 1808   2.271   4.778   5.554 -0.0250  0.2134 -1.7628
   69bbb    H13 1809   2.029   4.600   5.605  0.1231  0.6319  0.4402
   69bbb    H25 1810   2.105   5.018   5.305  0.9077 -1.2131  0.2370
   70bbb     N1 1811   4.053   3.015   3.919 -0.5737 -0.0113  0.4130
   70bbb     C1 1812   3.998   2.900   3.842 -0.3904  0.6023 -0.0182
   70bbb     C2 1813   4.129   2.978   4.051  0.8566 -0.8055  0.4592
   70bbb     C3 1814   3.875   2.843   3.920  0.7892 -0.0639  0.0323
   70bbb     C4 1815   3.792   2.741   3.828 -0.0077 -0.8145  0.2822
   70bbb     C5 1816   4.266   2.907   4.034 -0.4589  0.0212 -0.0532
   70bbb     C6 1817   4.303   2.824   4.157 -0.1104  0.2308  0.2192
   70bbb     C7 1818   4.139   3.104   3.831 -0.4341  0.5414 -0.0687
   70bbb     C8 1819   4.165   3.249   3.877 -0.1301  0.8222 -0.8286
   70bbb     N2 1820   4.039   3.322   3.898  0.0588  0.7370 -0.1442
   70bbb     O1 1821   3.762   2.782   3.719 -0.0520 -0.3410 -0.1971
   70bbb     O2 1822   4.232   2.818   4.259  0.3702  0.6350 -0.0420
   70bbb     H1 1823   3.977   2.928   3.739  0.5357 -2.0485 -1.0286
   70bbb     H2 1824   4.072   2.819   3.837 -0.6043  0.3111  1.2047
   70bbb     H3 1825   4.054   2.928   4.113 -1.0236  2.0682  0.6943
   70bbb     H4 1826   4.157   3.075   4.092 -0.8255  0.1217 -0.4592
   70bbb     H5 1827   3.896   2.806   4.021 -1.3567  1.2924  1.0529
   70bbb     H6 1828   3.806   2.925   3.942 -1.5372 -1.3570 -1.9596
   70bbb     H7 1829   4.336   2.991   4.027 -2.7982  2.2336  1.1318
   70bbb     H8 1830   4.271   2.841   3.947  2.9515 -0.7730  0.6160
   70bbb     H9 1831   4.092   3.110   3.733  0.0822  2.7644 -0.2272
   70bbb    H10 1832   4.236   3.055   3.820 -0.6558  0.1635 -0.3697
   70bbb    H11 1833   4.239   3.297   3.812  0.7289 -1.5038 -1.6398
   70bbb    H12 1834   4.215   3.242   3.974 -1.6032  2.7894  0.1671
   70bbb    H13 1835   3.963   3.306   3.833 -0.5740  0.6983  0.5907
   70bbb    H25 1836   3.975   3.079   3.938  0.0278  0.9102 -0.1988
   71bbb     N1 1837   4.102   3.585   4.576 -0.0071  0.0556  0.1082
   71bbb     C1 1838   4.142   3.656   4.451  0.1719  0.0183  0.3164
   71bbb     C2 1839   4.215   3.488   4.622 -0.1085 -0.1380 -0.4961
   71bbb     C3 1840   4.179   3.566   4.329  0.4671  1.0857  0.2116
   71bbb     C4 1841   4.248   3.650   4.222  0.4837  0.6400 -0.4944
   71bbb     C5 1842   4.230   3.473   4.775  0.1571 -0.5699  0.2666
   71bbb     C6 1843   4.362   3.431   4.833 -0.3575 -0.0850 -0.1811
   71bbb     C7 1844   3.973   3.508   4.563  0.1743 -0.0438  1.2096
   71bbb     C8 1845   3.845   3.578   4.528 -0.0863 -0.1465  0.0183
   71bbb     N2 1846   3.783   3.512   4.415  0.2717  0.7980  0.4208
   71bbb     O1 1847   4.202   3.759   4.193 -0.2344 -0.4040  0.0255
   71bbb     O2 1848   4.455   3.508   4.848  0.1316  0.0325  0.4206
   71bbb     H1 1849   4.065   3.726   4.420 -0.2227 -0.1519  0.8894
   71bbb     H2 1850   4.223   3.724   4.477  0.1113 -0.5059  2.0007
   71bbb     H3 1851   4.308   3.529   4.581 -0.4870  1.8586  0.5212
   71bbb     H4 1852   4.192   3.394   4.571 -2.9415  0.7642 -1.0126
   71bbb     H5 1853   4.232   3.474   4.356 -2.6371 -1.6225 -2.1687
   71bbb     H6 1854   4.081   3.530   4.297 -0.4531  1.7291  2.1927
   71bbb     H7 1855   4.157   3.398   4.810  0.4735 -0.7285  0.5979
   71bbb     H8 1856   4.205   3.561   4.835  1.5328  0.4052 -0.5147
   71bbb     H9 1857   3.974   3.453   4.657 -1.0560  0.7610  1.7177
   71bbb    H10 1858   3.980   3.436   4.482 -2.3543  0.5714  0.3622
   71bbb    H11 1859   3.855   3.679   4.484 -0.2556 -1.2254 -2.7294
   71bbb    H12 1860   3.777   3.590   4.613 -1.0794 -2.0235 -0.4576
   71bbb    H13 1861   3.820   3.428   4.373  1.1909  2.2636 -1.9102
   71bbb    H25 1862   4.084   3.654   4.650 -0.6777 -1.5643  1.5347
   72bbb     N1 1863   2.904   2.715   3.872 -0.3655  0.1449 -0.4577
   72bbb     C1 1864   2.806   2.629   3.958 -0.5872 -0.3481  0.2743
   72bbb     C2 1865   3.057   2.675   3.886 -0.2848 -0.4372  0.3282
   72bbb     C3 1866   2.660   2.646   3.921  0.3377 -0.0664  0.1147
   72bbb     C4 1867   2.555   2.569   4.004  0.5377 -0.0356 -0.7422
   72bbb     C5 1868   3.164   2.743   3.804 -0.0271  0.7436  0.5985
   72bbb     C6 1869   3.113   2.769   3.655 -0.2727  0.1100 -0.0213
   72bbb     C7 1870   2.899   2.863   3.911  0.3603 -0.3654 -0.1804
   72bbb     C8 1871   2.919   2.904   4.058 -0.1852  0.4586  0.0059
   72bbb     N2 1872   2.922   3.043   4.075  0.3110 -0.1162  0.4192
   72bbb     O1 1873   2.584   2.511   4.115  0.2640 -0.0831  0.3837
   72bbb     O2 1874   3.046   2.865   3.619 -0.3995 -0.3973  0.4625
   72bbb     H1 1875   2.844   2.528   3.941  4.1703  0.6097  3.2851
   72bbb     H2 1876   2.826   2.644   4.064 -1.5386  2.1155  0.1770
   72bbb     H3 1877   3.066   2.569   3.860 -2.5581 -0.1191 -2.2791
   72bbb     H4 1878   3.078   2.679   3.993  0.9622 -1.7027  0.1546
   72bbb     H5 1879   2.624   2.750   3.925  0.8952  0.3457 -2.9943
   72bbb     H6 1880   2.643   2.622   3.816  0.2961 -0.5519  0.2320
   72bbb     H7 1881   3.249   2.673   3.810 -0.0829  0.6268  0.0828
   72bbb     H8 1882   3.189   2.838   3.853  1.0431  0.5385  0.4729
   72bbb     H9 1883   2.805   2.909   3.882  0.6745  1.7719  1.8888
   72bbb    H10 1884   2.976   2.914   3.854  0.2807 -1.7253 -1.5748
   72bbb    H11 1885   3.012   2.857   4.092  0.3057  0.0688 -1.7724
   72bbb    H12 1886   2.835   2.867   4.118 -1.5773  1.0588 -1.5125
   72bbb    H13 1887   2.947   3.095   3.991  0.2339  1.6976  1.4629
   72bbb    H25 1888   2.883   2.702   3.772  0.7865 -1.3325 -0.5421
   73bbb     N1 1889   2.317   3.971   4.075  0.3373 -0.3413  0.2635
   73bbb     C1 1890   2.258   3.955   3.939  0.1378  0.1441  0.0738
   73bbb     C2 1891   2.340   4.123   4.093  0.2998 -0.0284 -0.6052
   73bbb     C3 1892   2.104   3.964   3.934  0.1607  0.0046 -0.0676
   73bbb     C4 1893   2.052   3.998   3.785  0.6166  0.0816 -0.0380
   73bbb     C5 1894   2.377   4.168   4.238 -0.3649  0.2305  0.2566
   73bbb     C6 1895   2.380   4.319   4.269  1.3002 -0.1437  0.6381
   73bbb     C7 1896   2.434   3.884   4.097  0.2682  0.1971 -0.3488
   73bbb     C8 1897   2.402   3.735   4.127  0.4749  0.5837 -0.3628
   73bbb     N2 1898   2.510   3.651   4.184 -0.5543  0.0849  0.3117
   73bbb     O1 1899   2.123   4.022   3.689 -0.0305 -0.5438 -0.2027
   73bbb     O2 1900   2.446   4.401   4.206 -0.4336  0.1365  0.3282
   73bbb     H1 1901   2.303   4.036   3.881 -0.4966  0.7852  0.4646
   73bbb     H2 1902   2.283   3.858   3.895 -2.5030 -0.9160  0.7405
   73bbb     H3 1903   2.247   4.174   4.065  1.2658  1.2993 -1.5494
   73bbb     H4 1904   2.417   4.159   4.023  0.0309  1.2376 -0.2736
   73bbb     H5 1905   2.069   3.866   3.969 -0.9645  1.2724  2.5840
   73bbb     H6 1906   2.068   4.039   4.005 -1.7190 -0.6681 -0.2609
   73bbb     H7 1907   2.481   4.141   4.258 -1.2005 -0.8624  3.7400
   73bbb     H8 1908   2.316   4.114   4.311 -0.4297 -0.6205 -0.4113
   73bbb     H9 1909   2.499   3.916   4.179 -0.6729 -1.2227  1.0211
   73bbb    H10 1910   2.488   3.876   4.003  0.9645 -0.7699  0.1261
   73bbb    H11 1911   2.358   3.682   4.042  0.6241  0.0975 -0.1375
   73bbb    H12 1912   2.331   3.737   4.211 -0.3292 -2.8427 -0.8215
   73bbb    H13 1913   2.489   3.593   4.264 -0.5768 -0.4787 -0.0979
   73bbb    H25 1914   2.252   3.932   4.145 -0.2566  0.0632 -0.0626
   74bbb     N1 1915   5.537   2.079   5.187 -0.0286  0.5428  0.0403
   74bbb     C1 1916   5.628   2.047   5.309  0.5830 -0.6252 -0.8047
   74bbb     C2 1917   5.557   1.977   5.075 -0.3707 -0.8653 -0.4934
   74bbb     C3 1918   5.779   2.036   5.286 -0.3625 -0.5115  0.8561
   74bbb     C4 1919   5.868   2.009   5.406  0.9675 -0.1796  0.6304
   74bbb     C5 1920   5.498   1.837   5.071 -0.4861 -0.2541 -0.3055
   74bbb     C6 1921   5.545   1.740   5.180  0.4514  0.5739 -1.0163
   74bbb     C7 1922   5.554   2.220   5.134  0.5169 -0.2378  0.3301
   74bbb     C8 1923   5.426   2.268   5.066 -0.4110 -0.3000 -0.7291
   74bbb     N2 1924   5.441   2.417   5.039 -0.1805 -0.3078 -0.0634
   74bbb     O1 1925   5.914   2.094   5.480 -0.2971 -0.5120 -0.1134
   74bbb     O2 1926   5.609   1.764   5.279 -0.0730 -0.2512 -0.5598
   74bbb     H1 1927   5.619   2.130   5.379  0.4322 -0.7639 -0.6606
   74bbb     H2 1928   5.589   1.961   5.363 -0.6442  0.1042 -0.5028
   74bbb     H3 1929   5.664   1.966   5.056 -0.5906  0.1223 -2.6001
   74bbb     H4 1930   5.531   2.031   4.984  2.5602  0.6764 -0.5427
   74bbb     H5 1931   5.803   1.973   5.200  0.9588 -0.4407  1.1546
   74bbb     H6 1932   5.799   2.134   5.243 -0.3343 -0.7533  0.3121
   74bbb     H7 1933   5.528   1.807   4.969  1.3967  0.5092 -0.0290
   74bbb     H8 1934   5.389   1.832   5.080 -0.5223  2.5512  2.8108
   74bbb     H9 1935   5.635   2.225   5.061 -1.3722  1.5682 -1.8118
   74bbb    H10 1936   5.575   2.280   5.222  3.0105 -1.0407  0.3399
   74bbb    H11 1937   5.334   2.258   5.125  1.4904  0.4829  2.6598
   74bbb    H12 1938   5.408   2.217   4.971 -0.3988  0.5126 -1.1740
   74bbb    H13 1939   5.521   2.463   5.081 -1.0155 -0.1236  1.4074
   74bbb    H25 1940   5.437   2.061   5.209 -0.7392 -0.5692 -3.4806
   75bbb     N1 1941   5.928   3.453   4.943  0.4791  0.3409 -0.0448
   75bbb     C1 1942   5.906   3.571   4.851 -0.3128 -0.6614 -0.6219
   75bbb     C2 1943   6.065   3.392   4.923 -0.0556  0.2427  0.6384
   75bbb     C3 1944   5.790   3.665   4.882 -0.0854  0.1938  0.4202
   75bbb     C4 1945   5.807   3.742   5.012 -0.4029  0.2688 -0.1826
   75bbb     C5 1946   6.183   3.481   4.965  0.0481  0.0560  0.0423
   75bbb     C6 1947   6.316   3.409   4.953 -0.2972 -0.2213 -0.0536
   75bbb     C7 1948   5.812   3.354   4.912 -0.4161 -0.7510 -1.0032
   75bbb     C8 1949   5.819   3.214   4.991 -0.3180 -0.6923  0.8044
   75bbb     N2 1950   5.721   3.118   4.938 -0.0384  0.4717  0.4601
   75bbb     O1 1951   5.911   3.794   5.034 -0.9060  0.0471  0.5584
   75bbb     O2 1952   6.405   3.440   4.876 -0.0315  0.6760  0.1935
   75bbb     H1 1953   5.996   3.632   4.843 -1.8878  1.7151 -1.1451
   75bbb     H2 1954   5.893   3.535   4.748 -0.0280  1.6040 -1.5059
   75bbb     H3 1955   6.074   3.358   4.820 -1.5873 -0.7777  0.8119
   75bbb     H4 1956   6.074   3.299   4.980  0.1578 -0.0605  0.1108
   75bbb     H5 1957   5.775   3.729   4.795 -1.0476 -1.1842 -0.4833
   75bbb     H6 1958   5.695   3.609   4.880  1.0617 -1.8774  0.5229
   75bbb     H7 1959   6.166   3.509   5.070  0.1136  0.7072 -0.1179
   75bbb     H8 1960   6.202   3.570   4.904  1.0681 -0.0186  0.2322
   75bbb     H9 1961   5.821   3.334   4.805  2.3638 -0.7892 -0.8151
   75bbb    H10 1962   5.720   3.401   4.947 -0.3575 -2.1993  1.3131
   75bbb    H11 1963   5.814   3.243   5.096  0.6774  1.0346  0.4161
   75bbb    H12 1964   5.921   3.177   4.972 -0.7714 -0.7277 -1.9167
   75bbb    H13 1965   5.735   3.086   4.843 -0.5750  2.1840 -0.2205
   75bbb    H25 1966   5.926   3.483   5.041  0.7558  0.7873 -0.1767
   76bbb     N1 1967   6.051   3.453   4.168 -0.1546 -0.1812 -0.1832
   76bbb     C1 1968   6.114   3.454   4.301  0.0232  0.5410 -0.0746
   76bbb     C2 1969   6.107   3.565   4.075 -0.2218 -0.2329 -0.1024
   76bbb     C3 1970   6.245   3.375   4.312  0.5737  0.0675 -0.4398
   76bbb     C4 1971   6.212   3.231   4.300  0.1507  0.0678  0.4058
   76bbb     C5 1972   6.103   3.708   4.131 -0.5037  0.4904  0.2972
   76bbb     C6 1973   6.117   3.817   4.030 -0.4001  0.0563  0.4146
   76bbb     C7 1974   5.904   3.478   4.178  0.3807 -0.3275 -0.1590
   76bbb     C8 1975   5.819   3.362   4.237 -0.2489  0.2296 -0.1573
   76bbb     N2 1976   5.672   3.385   4.235  0.4141  0.8820  0.2672
   76bbb     O1 1977   6.109   3.183   4.268  0.5980  0.2280  0.0055
   76bbb     O2 1978   6.121   3.788   3.911 -0.1230 -0.1154 -0.0434
   76bbb     H1 1979   6.128   3.555   4.340  0.6451 -0.0191  1.1937
   76bbb     H2 1980   6.046   3.406   4.371  1.0951  1.1828  1.4542
   76bbb     H3 1981   6.063   3.560   3.975  0.1053 -0.5045 -0.2332
   76bbb     H4 1982   6.212   3.543   4.057 -0.8764 -1.5703 -2.7958
   76bbb     H5 1983   6.317   3.402   4.235  0.9979 -1.1635 -0.4985
   76bbb     H6 1984   6.288   3.380   4.413  0.0930 -0.6099 -0.1885
   76bbb     H7 1985   6.175   3.727   4.212  1.2167 -1.9274 -0.5489
   76bbb     H8 1986   6.010   3.726   4.185  0.1630  1.0591  1.2886
   76bbb     H9 1987   5.870   3.510   4.079  0.7038 -0.3774 -0.2866
   76bbb    H10 1988   5.890   3.564   4.243  1.3081  0.4081 -0.9169
   76bbb    H11 1989   5.851   3.349   4.341 -2.3037 -1.3430  0.3553
   76bbb    H12 1990   5.825   3.270   4.177 -4.7241 -0.4295  0.0157
   76bbb    H13 1991   5.624   3.381   4.324  0.0965 -1.0447  0.0551
   76bbb    H25 1992   6.062   3.362   4.122  0.0244  0.7806 -2.1260
   77bbb     N1 1993   5.529   3.832   3.302  0.3166  0.2866  0.1954
   77bbb     C1 1994   5.434   3.847   3.185  0.2679 -0.6024  0.0701
   77bbb     C2 1995   5.661   3.775   3.259 -0.5721 -0.0168  0.1025
   77bbb     C3 1996   5.473   3.938   3.064  0.1515  0.0620 -0.3946
   77bbb     C4 1997   5.360   3.942   2.959  0.1701  0.6875  0.3960
   77bbb     C5 1998   5.676   3.624   3.225 -0.1886 -0.2260  0.4377
   77bbb     C6 1999   5.810   3.582   3.164 -0.2498  0.6806 -0.0243
   77bbb     C7 2000   5.466   3.739   3.408  0.2689  0.7995  0.2944
   77bbb     C8 2001   5.358   3.798   3.492  0.0819 -0.7450  0.4296
   77bbb     N2 2002   5.359   3.721   3.621 -0.5835 -0.7054  0.1021
   77bbb     O1 2003   5.304   3.839   2.926 -0.5765  0.4951  0.2776
   77bbb     O2 2004   5.899   3.658   3.136 -0.2481 -0.5991 -0.1620
   77bbb     H1 2005   5.419   3.743   3.155  2.8193 -0.9363 -0.3294
   77bbb     H2 2006   5.346   3.885   3.236  0.4479  0.4326 -0.3638
   77bbb     H3 2007   5.727   3.771   3.346 -1.5993 -0.5407  0.8746
   77bbb     H4 2008   5.709   3.833   3.180 -0.2515 -0.5845 -0.1256
   77bbb     H5 2009   5.494   4.039   3.101 -0.6399 -0.4165  1.4894
   77bbb     H6 2010   5.565   3.908   3.014  0.1646 -0.5438 -0.0308
   77bbb     H7 2011   5.599   3.588   3.155  1.0395  0.0138 -1.1138
   77bbb     H8 2012   5.668   3.565   3.317  0.1847  1.4304  1.5773
   77bbb     H9 2013   5.550   3.705   3.469  1.4044 -1.8594 -2.4634
   77bbb    H10 2014   5.432   3.652   3.351  0.8128  0.3505  0.6349
   77bbb    H11 2015   5.257   3.796   3.449 -1.1654 -1.7679  3.1235
   77bbb    H12 2016   5.370   3.905   3.514 -1.9691  0.0998 -2.1185
   77bbb    H13 2017   5.431   3.654   3.644  0.0902  0.4608  1.5977
   77bbb    H25 2018   5.538   3.918   3.357 -1.0934 -0.5234  1.7899
   78bbb     N1 2019   6.679   3.810   6.217  0.4295 -0.1048 -0.3154
   78bbb     C1 2020   6.804   3.752   6.284  0.0080  0.4198 -0.1787
   78bbb     C2 2021   6.636   3.951   6.256 -0.3177 -0.1628  0.1613
   78bbb     C3 2022   6.939   3.805   6.237  0.0359 -0.0061  0.1220
   78bbb     C4 2023   6.971   3.787   6.087 -0.1168 -0.6046 -0.4485
   78bbb     C5 2024   6.599   3.976   6.402  0.5215 -0.5230 -0.2681
   78bbb     C6 2025   6.542   4.117   6.426  0.6466 -0.1640 -0.0441
   78bbb     C7 2026   6.559   3.701   6.248 -0.4582 -0.0328  0.0167
   78bbb     C8 2027   6.466   3.684   6.121  0.2543 -0.1942  0.1709
   78bbb     N2 2028   6.355   3.591   6.166 -0.7605 -0.6350  0.0093
   78bbb     O1 2029   6.889   3.743   6.014 -0.2200  0.1896 -0.1812
   78bbb     O2 2030   6.602   4.213   6.380 -0.4161 -0.0333 -0.1262
   78bbb     H1 2031   6.795   3.761   6.392  1.6912 -1.4028  0.1759
   78bbb     H2 2032   6.800   3.643   6.275 -1.1558  0.3429  1.0581
   78bbb     H3 2033   6.546   3.960   6.195 -0.8054  0.9467  1.0216
   78bbb     H4 2034   6.713   4.014   6.211 -0.1426 -2.4931 -3.1477
   78bbb     H5 2035   6.956   3.911   6.260 -0.2171  0.0763 -0.0660
   78bbb     H6 2036   7.024   3.756   6.287 -2.2962 -3.4703  1.0138
   78bbb     H7 2037   6.682   3.963   6.472 -0.3173  1.7645  1.2516
   78bbb     H8 2038   6.523   3.903   6.432 -1.6097  1.1597 -1.3074
   78bbb     H9 2039   6.492   3.740   6.325 -1.5045 -1.4810 -0.1344
   78bbb    H10 2040   6.604   3.611   6.289  1.7832  1.6783  1.5699
   78bbb    H11 2041   6.523   3.635   6.041  0.4593 -0.0131  0.2042
   78bbb    H12 2042   6.428   3.778   6.080  0.5270 -0.6651 -1.2054
   78bbb    H13 2043   6.331   3.577   6.264 -0.8043 -1.2180 -0.0834
   78bbb    H25 2044   6.703   3.813   6.117  0.7916  2.8004 -0.2291
   79bbb     N1 2045   5.758   2.639   6.145  0.3364 -0.1633  0.0463
   79bbb     C1 2046   5.651   2.534   6.181 -0.4255 -0.1769 -0.2059
   79bbb     C2 2047   5.723   2.717   6.016  0.6165  1.2363  0.0292
   79bbb     C3 2048   5.510   2.594   6.213 -0.8443 -0.5193  0.1154
   79bbb     C4 2049   5.391   2.496   6.237  0.0830 -0.6624  1.3139
   79bbb     C5 2050   5.698   2.640   5.886  0.0105  0.7924  0.1867
   79bbb     C6 2051   5.690   2.743   5.780  0.0796 -0.7670  0.5049
   79bbb     C7 2052   5.899   2.577   6.134 -0.1964  0.1152 -0.1521
   79bbb     C8 2053   6.012   2.672   6.109 -0.5778  0.5935 -0.3872
   79bbb     N2 2054   6.022   2.779   6.208 -0.0558  0.2507 -0.0412
   79bbb     O1 2055   5.407   2.377   6.264  0.6887  0.4555  0.2641
   79bbb     O2 2056   5.611   2.834   5.791  0.1029  0.3674  0.2793
   79bbb     H1 2057   5.637   2.480   6.087 -1.3744 -0.8597  0.3134
   79bbb     H2 2058   5.695   2.470   6.258  1.7296  0.2796 -0.9878
   79bbb     H3 2059   5.809   2.783   6.005  1.4223  0.3006  0.6095
   79bbb     H4 2060   5.634   2.777   6.037 -0.3218  0.5752 -1.7648
   79bbb     H5 2061   5.516   2.650   6.307  1.1475 -1.7098  0.7484
   79bbb     H6 2062   5.475   2.665   6.137 -0.3310  0.9519  1.2058
   79bbb     H7 2063   5.603   2.584   5.891  0.5298  0.0076  2.2145
   79bbb     H8 2064   5.782   2.576   5.856  1.2648  2.3443  0.2597
   79bbb     H9 2065   5.893   2.504   6.053 -0.1451  0.3965 -0.4089
   79bbb    H10 2066   5.923   2.520   6.224 -0.0286 -2.6195 -1.8077
   79bbb    H11 2067   6.010   2.712   6.006  0.4398  1.6922 -0.0034
   79bbb    H12 2068   6.103   2.612   6.117 -0.5881  0.6927  0.5322
   79bbb    H13 2069   6.068   2.760   6.296 -2.7365 -0.0053  1.3914
   79bbb    H25 2070   5.762   2.701   6.227 -0.8445  0.6057 -0.4543
   80bbb     N1 2071   6.379   2.399   7.458  0.6489 -0.8323  0.5121
   80bbb     C1 2072   6.361   2.250   7.430 -0.3777 -0.5619  0.1591
   80bbb     C2 2073   6.416   2.430   7.602  0.1121  0.2715 -1.2030
   80bbb     C3 2074   6.485   2.159   7.453 -0.0160 -0.6904  0.8168
   80bbb     C4 2075   6.544   2.122   7.320 -0.2730  0.0059  0.1743
   80bbb     C5 2076   6.311   2.394   7.714  0.2672 -0.0747 -0.4066
   80bbb     C6 2077   6.356   2.419   7.856  0.5231 -0.7673 -0.0000
   80bbb     C7 2078   6.244   2.466   7.430 -0.0147 -0.0904 -0.5118
   80bbb     C8 2079   6.260   2.621   7.443  0.4049  0.5078  0.4124
   80bbb     N2 2080   6.132   2.685   7.400 -0.1153 -0.5628  0.7207
   80bbb     O1 2081   6.549   2.192   7.219 -0.3074  0.4522 -0.0305
   80bbb     O2 2082   6.476   2.402   7.884  0.5406 -0.2017 -0.1290
   80bbb     H1 2083   6.285   2.213   7.499 -2.0377  0.6933 -0.9114
   80bbb     H2 2084   6.311   2.245   7.333  1.0094 -0.9041 -0.5592
   80bbb     H3 2085   6.432   2.537   7.607 -0.0258  0.2481  2.0024
   80bbb     H4 2086   6.515   2.388   7.619  1.1411  2.3578 -1.7208
   80bbb     H5 2087   6.563   2.216   7.506 -0.1764 -0.2971  0.6374
   80bbb     H6 2088   6.456   2.074   7.515 -0.7170 -0.2504  1.0973
   80bbb     H7 2089   6.286   2.287   7.715  2.5259 -0.7287 -2.9391
   80bbb     H8 2090   6.220   2.453   7.699  0.4107  0.3540  0.3358
   80bbb     H9 2091   6.169   2.430   7.501 -0.4120  3.1272  0.8690
   80bbb    H10 2092   6.210   2.448   7.328 -0.3452 -0.4641 -0.3407
   80bbb    H11 2093   6.338   2.658   7.375  0.5545 -0.5039  0.0211
   80bbb    H12 2094   6.280   2.653   7.545 -0.2564 -0.4571  0.8644
   80bbb    H13 2095   6.118   2.684   7.300  0.9542  0.7891  0.5225
   80bbb    H25 2096   6.449   2.444   7.397 -0.5124 -1.2653 -1.2132
   81bbb     N1 2097   5.679   3.757   7.627  0.6805  0.1596  0.7039
   81bbb     C1 2098   5.546   3.813   7.676 -0.2257 -0.0580  1.2470
   81bbb     C2 2099   5.774   3.875   7.609  0.2777 -0.5297 -0.2743
   81bbb     C3 2100   5.437   3.713   7.721  0.2751  0.2541  0.6202
   81bbb     C4 2101   5.333   3.787   7.796 -0.0657 -0.1830 -0.6406
   81bbb     C5 2102   5.741   3.991   7.507 -0.7559  0.5992  0.5946
   81bbb     C6 2103   5.874   4.063   7.465  1.0030  0.7453 -1.0508
   81bbb     C7 2104   5.649   3.668   7.507  0.4958 -0.2659  0.1692
   81bbb     C8 2105   5.762   3.574   7.454 -0.4709 -0.1059 -0.4722
   81bbb     N2 2106   5.766   3.450   7.523 -0.2043  0.2943 -0.4954
   81bbb     O1 2107   5.351   3.830   7.911 -0.6022  0.3432  0.6136
   81bbb     O2 2108   5.958   4.100   7.545 -0.0548  0.4733 -0.0364
   81bbb     H1 2109   5.573   3.877   7.760  0.4407  0.4082  0.6886
   81bbb     H2 2110   5.507   3.874   7.594  0.8557 -0.5444  0.3313
   81bbb     H3 2111   5.876   3.846   7.584  1.2370  2.1344  0.2310
   81bbb     H4 2112   5.774   3.923   7.707  1.2814  0.1252 -0.5807
   81bbb     H5 2113   5.391   3.668   7.632  0.7640  0.5682  0.2076
   81bbb     H6 2114   5.480   3.634   7.784  1.6629 -0.0580 -0.6685
   81bbb     H7 2115   5.669   4.056   7.558 -0.7217  0.4459  0.8380
   81bbb     H8 2116   5.693   3.950   7.418 -0.4830  4.0832 -1.3471
   81bbb     H9 2117   5.616   3.731   7.424 -1.6265 -2.0028 -0.3818
   81bbb    H10 2118   5.560   3.614   7.537  0.7335  0.3302  2.0775
   81bbb    H11 2119   5.859   3.618   7.478 -1.2270  0.6856  1.3389
   81bbb    H12 2120   5.751   3.565   7.345  2.2775 -0.4632 -0.7723
   81bbb    H13 2121   5.820   3.441   7.608  1.4939  1.5445 -1.3953
   81bbb    H25 2122   5.707   3.693   7.703 -2.2903 -0.2991  1.5439
   82bbb     N1 2123   6.295   4.188   8.851 -0.1508 -0.6072 -0.3228
   82bbb     C1 2124   6.188   4.126   8.944 -0.4272 -0.2717 -0.0022
   82bbb     C2 2125   6.290   4.341   8.843  0.4776 -0.6176  0.5552
   82bbb     C3 2126   6.034   4.152   8.916  0.0301 -0.2957  0.2284
   82bbb     C4 2127   5.941   4.089   9.020  0.5603 -0.0554 -0.0202
   82bbb     C5 2128   6.356   4.413   8.964 -0.1953  0.0969 -0.3886
   82bbb     C6 2129   6.251   4.473   9.062 -0.7072 -0.2829 -0.2724
   82bbb     C7 2130   6.267   4.115   8.717  0.3172 -0.4713 -0.0383
   82bbb     C8 2131   6.382   4.147   8.616 -0.2713  0.3021 -0.3300
   82bbb     N2 2132   6.362   4.083   8.484  0.2455 -0.3405 -0.0990
   82bbb     O1 2133   5.963   3.993   9.091 -0.4934 -0.3061  0.5124
   82bbb     O2 2134   6.135   4.453   9.049  0.2366 -0.2485 -0.0261
   82bbb     H1 2135   6.213   4.020   8.944 -1.6726 -0.5702 -0.0484
   82bbb     H2 2136   6.201   4.151   9.049 -0.5112 -0.2236 -0.0029
   82bbb     H3 2137   6.195   4.387   8.817  1.1294 -0.3599 -1.5970
   82bbb     H4 2138   6.364   4.369   8.768 -1.0468  3.1330  0.2107
   82bbb     H5 2139   6.009   4.259   8.915 -1.3138 -0.5907  0.5285
   82bbb     H6 2140   6.004   4.121   8.816 -1.0020  0.8596  0.1573
   82bbb     H7 2141   6.403   4.502   8.919  2.7791  0.5341  3.0623
   82bbb     H8 2142   6.433   4.355   9.016  0.5677  1.1427 -0.3179
   82bbb     H9 2143   6.173   4.157   8.681  0.2610 -0.1562  0.4632
   82bbb    H10 2144   6.249   4.010   8.739 -0.2652 -0.6099 -1.0817
   82bbb    H11 2145   6.476   4.108   8.658 -1.6335 -1.7714  1.0236
   82bbb    H12 2146   6.387   4.256   8.604  1.1204  0.2294 -0.5247
   82bbb    H13 2147   6.411   4.125   8.406 -0.0446  0.4533  0.1331
   82bbb    H25 2148   6.390   4.160   8.881  1.2992  2.3101 -1.7778
   83bbb     N1 2149   6.678   3.101   8.312 -0.1276  0.6306 -0.1891
   83bbb     C1 2150   6.805   3.109   8.400 -0.2896 -0.3654 -0.8029
   83bbb     C2 2151   6.630   2.964   8.309 -0.6673  0.7126 -0.4096
   83bbb     C3 2152   6.779   3.138   8.558 -0.1622 -0.8958  0.1740
   83bbb     C4 2153   6.716   3.272   8.581  0.0477  0.1493  0.2944
   83bbb     C5 2154   6.508   2.923   8.226  0.8020 -0.4055  0.1778
   83bbb     C6 2155   6.470   2.772   8.219  0.1125 -0.7211 -0.2834
   83bbb     C7 2156   6.719   3.151   8.175  0.8071 -0.4637  0.0713
   83bbb     C8 2157   6.766   3.300   8.168 -0.3933 -0.2416  0.2555
   83bbb     N2 2158   6.655   3.392   8.207  0.0919 -0.2794 -0.3414
   83bbb     O1 2159   6.623   3.320   8.512 -0.4686 -0.4301 -0.0488
   83bbb     O2 2160   6.374   2.739   8.284 -0.3942  0.0176  0.5613
   83bbb     H1 2161   6.864   3.019   8.383  2.0940  0.6476  1.3651
   83bbb     H2 2162   6.871   3.189   8.364 -0.1225  0.2578  0.8075
   83bbb     H3 2163   6.605   2.943   8.413 -0.2599  0.4740 -0.3584
   83bbb     H4 2164   6.717   2.911   8.271 -1.9239 -2.1635  0.4552
   83bbb     H5 2165   6.717   3.065   8.611  1.6083 -0.8466  2.4817
   83bbb     H6 2166   6.870   3.135   8.619 -0.7982  0.4067  1.2311
   83bbb     H7 2167   6.511   2.956   8.122  1.4747  1.9014  0.8738
   83bbb     H8 2168   6.417   2.974   8.260 -1.3830 -5.2778  2.6330
   83bbb     H9 2169   6.633   3.138   8.108 -2.1486 -2.3844  3.8579
   83bbb    H10 2170   6.804   3.096   8.132 -0.0749 -2.2485  0.4865
   83bbb    H11 2171   6.787   3.310   8.061 -0.7079 -1.3408  0.0828
   83bbb    H12 2172   6.861   3.316   8.220 -0.4598  1.9069 -0.2073
   83bbb    H13 2173   6.587   3.353   8.271  1.3481 -2.0049  0.0177
   83bbb    H25 2174   6.609   3.167   8.350 -1.9171 -0.9559 -0.5177
   84bbb     N1 2175   7.065   5.418   7.552  0.2785  0.3793  0.2826
   84bbb     C1 2176   7.033   5.530   7.652  0.3404 -0.3911  0.1069
   84bbb     C2 2177   7.218   5.418   7.531 -0.3825  0.0549  0.4380
   84bbb     C3 2178   7.102   5.528   7.792  0.5605  0.1527  0.0404
   84bbb     C4 2179   7.009   5.467   7.890  0.2556  0.1712 -0.5507
   84bbb     C5 2180   7.276   5.289   7.471  0.3046  0.2754 -0.2687
   84bbb     C6 2181   7.369   5.313   7.354 -0.0039 -0.0941 -0.1750
   84bbb     C7 2182   6.993   5.440   7.421  0.0548  0.0385  0.0717
   84bbb     C8 2183   6.836   5.449   7.441 -0.0634 -0.7431 -0.4636
   84bbb     N2 2184   6.791   5.350   7.543  0.1203 -0.4048 -0.0238
   84bbb     O1 2185   6.889   5.455   7.866  0.1612 -0.7178 -0.0662
   84bbb     O2 2186   7.320   5.369   7.258 -0.0727 -0.5556 -0.0171
   84bbb     H1 2187   7.063   5.627   7.611  0.7456 -0.6014 -0.1098
   84bbb     H2 2188   6.925   5.537   7.659  0.4928  1.4930  1.0879
   84bbb     H3 2189   7.264   5.441   7.628  1.4965  0.4052 -0.4813
   84bbb     H4 2190   7.249   5.499   7.464  1.4812 -0.7313  0.2781
   84bbb     H5 2191   7.190   5.463   7.790  0.1442 -0.4051 -1.1792
   84bbb     H6 2192   7.133   5.626   7.829 -0.3769  0.5166 -0.1091
   84bbb     H7 2193   7.195   5.222   7.439  1.4801 -2.4767  2.0033
   84bbb     H8 2194   7.327   5.229   7.548 -0.0646  0.6571  0.2772
   84bbb     H9 2195   7.015   5.358   7.353 -0.5028 -1.0702  1.2034
   84bbb    H10 2196   7.032   5.526   7.365 -0.9652 -0.2769 -1.1616
   84bbb    H11 2197   6.806   5.424   7.339 -0.1043  2.0093 -1.2005
   84bbb    H12 2198   6.803   5.551   7.464 -1.2008 -0.5998 -2.5105
   84bbb    H13 2199   6.855   5.308   7.609 -0.5197  0.8343  1.4397
   84bbb    H25 2200   7.042   5.325   7.590 -0.7175 -0.0958 -1.3913
   85bbb     N1 2201   6.719   4.323   7.369 -0.0351  0.1982 -0.3951
   85bbb     C1 2202   6.823   4.216   7.400 -0.2461 -0.4419  0.1571
   85bbb     C2 2203   6.585   4.257   7.377  0.6377 -0.3149 -0.3592
   85bbb     C3 2204   6.815   4.148   7.537 -0.2274 -0.8669  0.2313
   85bbb     C4 2205   6.933   4.050   7.559 -0.8238  0.6494  0.6680
   85bbb     C5 2206   6.554   4.149   7.282  0.7912 -0.1575 -0.5980
   85bbb     C6 2207   6.407   4.092   7.294 -0.2003 -0.0374 -0.0791
   85bbb     C7 2208   6.736   4.401   7.240 -0.3435  0.1139  0.8473
   85bbb     C8 2209   6.649   4.527   7.231  0.4814  0.4296  0.1254
   85bbb     N2 2210   6.646   4.619   7.350 -0.1349  0.3277  0.2536
   85bbb     O1 2211   7.052   4.069   7.523  0.2460  0.1151 -0.1514
   85bbb     O2 2212   6.317   4.161   7.243  1.1481 -0.5678 -0.2374
   85bbb     H1 2213   6.812   4.147   7.316  1.0023 -0.0398 -0.3647
   85bbb     H2 2214   6.923   4.260   7.397  0.0315 -0.9705  1.1442
   85bbb     H3 2215   6.523   4.346   7.369  1.1835  0.1200  0.1394
   85bbb     H4 2216   6.562   4.218   7.476 -1.0717  0.9046 -0.2351
   85bbb     H5 2217   6.821   4.229   7.611 -1.0815 -1.4777  1.0099
   85bbb     H6 2218   6.725   4.085   7.548 -0.0033 -1.5094 -1.4062
   85bbb     H7 2219   6.618   4.060   7.275  1.0197  0.1112 -3.0329
   85bbb     H8 2220   6.563   4.189   7.180 -1.7743  0.8515 -0.5083
   85bbb     H9 2221   6.708   4.342   7.153 -0.7227  1.9781 -0.3757
   85bbb    H10 2222   6.839   4.436   7.236 -0.3305  0.1166  1.2172
   85bbb    H11 2223   6.545   4.499   7.209  0.1226  2.6413 -1.2584
   85bbb    H12 2224   6.692   4.587   7.150  1.4440  0.0074  0.3118
   85bbb    H13 2225   6.731   4.664   7.382  0.3055 -0.1824 -0.1684
   85bbb    H25 2226   6.720   4.396   7.442 -0.8744  0.8896 -1.0557
   86bbb     N1 2227   4.703   6.802   8.982  0.2574  0.1181 -0.0272
   86bbb     C1 2228   4.822   6.880   8.917 -0.1551 -0.2282  0.4687
   86bbb     C2 2229   4.649   6.861   9.111  0.7068  0.0030  0.3817
   86bbb     C3 2230   4.782   7.021   8.876  0.4467  0.1950  0.1196
   86bbb     C4 2231   4.893   7.111   8.837  0.3738 -0.6230  0.1262
   86bbb     C5 2232   4.751   6.847   9.231  0.2399  0.0937  0.5795
   86bbb     C6 2233   4.689   6.891   9.364  0.0574  0.1416 -0.0955
   86bbb     C7 2234   4.751   6.654   8.992  0.0101  0.6450 -0.4868
   86bbb     C8 2235   4.787   6.598   8.850  0.3693  0.4442 -0.3028
   86bbb     N2 2236   4.788   6.448   8.850  0.2027 -0.1220 -0.6618
   86bbb     O1 2237   5.009   7.093   8.866 -0.1362 -0.3600  0.0995
   86bbb     O2 2238   4.641   6.999   9.387  0.0310  0.7322 -0.7902
   86bbb     H1 2239   4.902   6.881   8.991  1.9214 -0.0247 -1.6650
   86bbb     H2 2240   4.856   6.809   8.841  1.0186  1.6832 -0.8564
   86bbb     H3 2241   4.569   6.792   9.138  0.9754  0.8305  3.7104
   86bbb     H4 2242   4.609   6.962   9.095 -1.0503 -0.3373  2.2259
   86bbb     H5 2243   4.700   7.010   8.804 -0.5727 -0.4422  1.3424
   86bbb     H6 2244   4.731   7.072   8.958 -1.8289 -0.6322 -0.6958
   86bbb     H7 2245   4.836   6.911   9.202 -0.5010  0.0859 -1.8480
   86bbb     H8 2246   4.782   6.742   9.240 -0.8725 -0.1764  1.4307
   86bbb     H9 2247   4.666   6.597   9.028 -0.2021 -0.3273 -2.4095
   86bbb    H10 2248   4.837   6.633   9.056  0.0158  0.2262 -0.6320
   86bbb    H11 2249   4.886   6.634   8.820 -0.7125  3.0737 -0.9414
   86bbb    H12 2250   4.713   6.635   8.779 -1.0472 -0.1498  0.8119
   86bbb    H13 2251   4.764   6.390   8.929  0.1653 -2.4095 -2.2574
   86bbb    H25 2252   4.629   6.802   8.910 -0.9190 -0.8380  1.1482
   87bbb     N1 2253   5.625   5.987   8.990 -0.3881 -0.3341 -0.2547
   87bbb     C1 2254   5.554   6.006   9.124  0.0264 -0.4607 -0.5661
   87bbb     C2 2255   5.737   6.099   8.976  0.4947  0.4766 -0.0051
   87bbb     C3 2256   5.625   5.953   9.252 -0.2016 -0.4519 -0.4341
   87bbb     C4 2257   5.542   5.985   9.374  0.7716  0.1568 -0.3465
   87bbb     C5 2258   5.818   6.088   8.849  0.2413  0.4636 -1.0960
   87bbb     C6 2259   5.880   5.954   8.832 -1.3600  0.7311  0.8993
   87bbb     C7 2260   5.524   6.007   8.880 -0.6043  0.1766  0.0202
   87bbb     C8 2261   5.398   5.906   8.878 -0.3013  0.0730  0.8005
   87bbb     N2 2262   5.295   5.956   8.785 -0.0504  1.0865  0.8029
   87bbb     O1 2263   5.431   6.026   9.364  0.0224 -0.2448  0.0524
   87bbb     O2 2264   5.816   5.850   8.854 -0.1015 -0.0208  0.9856
   87bbb     H1 2265   5.547   6.115   9.124  0.2432 -0.4242  0.9089
   87bbb     H2 2266   5.450   5.972   9.127 -0.0516 -0.1317  0.8312
   87bbb     H3 2267   5.808   6.090   9.058  0.2424  0.6938  0.2400
   87bbb     H4 2268   5.688   6.195   8.992 -0.9695 -0.2103 -0.1642
   87bbb     H5 2269   5.655   5.848   9.253 -0.0740 -0.4118 -0.0359
   87bbb     H6 2270   5.721   6.007   9.257  0.2257 -0.9383 -2.5567
   87bbb     H7 2271   5.898   6.161   8.832 -0.8373  1.6111 -1.3710
   87bbb     H8 2272   5.741   6.098   8.772 -2.0180  1.1038  1.1192
   87bbb     H9 2273   5.574   5.997   8.783  0.2701 -0.8035  0.5459
   87bbb    H10 2274   5.488   6.109   8.883  0.8644  0.7068  1.4441
   87bbb    H11 2275   5.359   5.889   8.979  0.5254 -0.9139  0.9563
   87bbb    H12 2276   5.437   5.817   8.827 -0.1056  0.4338  0.3099
   87bbb    H13 2277   5.319   6.029   8.720  1.3010 -0.7832 -0.9158
   87bbb    H25 2278   5.653   5.888   8.987 -0.9983 -0.5128 -0.1404
   88bbb     N1 2279   5.648   6.729   7.462  0.8176 -0.4912 -0.7592
   88bbb     C1 2280   5.530   6.797   7.535 -0.8744 -0.2518 -0.2814
   88bbb     C2 2281   5.761   6.829   7.435  0.4448 -0.4102 -0.4151
   88bbb     C3 2282   5.548   6.791   7.691 -0.0869  0.0253  0.2580
   88bbb     C4 2283   5.544   6.651   7.752 -0.1736 -0.3622  0.2417
   88bbb     C5 2284   5.910   6.789   7.474  0.3515 -0.2303  0.3868
   88bbb     C6 2285   5.993   6.912   7.459 -0.3291 -0.1536 -0.1755
   88bbb     C7 2286   5.599   6.667   7.339 -0.5587 -0.0662  0.1454
   88bbb     C8 2287   5.504   6.540   7.341 -0.4125 -0.4140 -0.1713
   88bbb     N2 2288   5.560   6.424   7.419 -0.3109  0.1402 -0.2688
   88bbb     O1 2289   5.525   6.547   7.695 -0.3195  0.0665  0.0808
   88bbb     O2 2290   5.957   7.020   7.501 -0.7307 -0.4690  0.0455
   88bbb     H1 2291   5.520   6.902   7.507 -1.7970 -0.5630 -1.1692
   88bbb     H2 2292   5.442   6.742   7.501 -1.5023  0.4763  0.1389
   88bbb     H3 2293   5.732   6.918   7.490 -1.1349 -0.6249 -0.8550
   88bbb     H4 2294   5.758   6.848   7.327 -0.3345  0.4138 -0.2639
   88bbb     H5 2295   5.647   6.835   7.709 -0.5879  0.8615  1.0267
   88bbb     H6 2296   5.470   6.848   7.743 -1.0614  0.1467 -1.3038
   88bbb     H7 2297   5.943   6.706   7.411 -0.3866  0.3408 -0.7766
   88bbb     H8 2298   5.925   6.759   7.578  0.8954 -0.0765  0.3549
   88bbb     H9 2299   5.685   6.640   7.278 -1.6391  0.4530 -1.7001
   88bbb    H10 2300   5.560   6.748   7.277 -0.4783  0.5540  0.8947
   88bbb    H11 2301   5.492   6.517   7.234  1.2472 -1.3565 -0.1740
   88bbb    H12 2302   5.408   6.571   7.385  0.7971  1.5949  1.2104
   88bbb    H13 2303   5.634   6.443   7.485  0.3391  0.4321 -1.0626
   88bbb    H25 2304   5.683   6.656   7.526 -0.9803 -0.1862  0.6405
   89bbb     N1 2305   6.299   5.950   7.208 -0.0712  0.0463  0.1220
   89bbb     C1 2306   6.386   5.840   7.148 -0.1653  0.4386 -0.2938
   89bbb     C2 2307   6.386   6.063   7.273  0.3534  0.1720  0.5368
   89bbb     C3 2308   6.319   5.706   7.104 -0.0621 -0.4786  0.2381
   89bbb     C4 2309   6.405   5.630   7.004 -0.2162  0.5439 -0.3338
   89bbb     C5 2310   6.497   6.126   7.181  0.2933 -0.2881  0.0348
   89bbb     C6 2311   6.622   6.050   7.189 -0.7206  0.6701 -0.0762
   89bbb     C7 2312   6.203   5.896   7.314  0.1143  0.2331 -1.1384
   89bbb     C8 2313   6.077   5.983   7.345 -0.0843  0.1338  0.1290
   89bbb     N2 2314   5.995   5.924   7.449  0.2401  0.2433 -0.6705
   89bbb     O1 2315   6.514   5.669   6.970  0.3402 -0.1861 -0.2935
   89bbb     O2 2316   6.640   5.954   7.267  0.2031  0.6178 -0.3579
   89bbb     H1 2317   6.427   5.882   7.057 -0.5252 -0.7502 -1.0333
   89bbb     H2 2318   6.468   5.815   7.215 -0.4987 -1.8006 -0.6312
   89bbb     H3 2319   6.439   6.029   7.362 -0.8806 -0.1718  1.1574
   89bbb     H4 2320   6.326   6.148   7.305  0.2720 -0.5850  2.5246
   89bbb     H5 2321   6.293   5.648   7.193  2.0110 -2.8661 -0.5727
   89bbb     H6 2322   6.227   5.728   7.049  0.9728  0.2659 -1.2806
   89bbb     H7 2323   6.512   6.225   7.224 -0.0362  1.1250 -2.8254
   89bbb     H8 2324   6.458   6.133   7.078  0.9251 -0.3906 -0.2160
   89bbb     H9 2325   6.251   5.867   7.408 -1.8843  0.4134  0.0010
   89bbb    H10 2326   6.157   5.809   7.267 -0.4812 -0.8910  1.3544
   89bbb    H11 2327   6.024   6.007   7.252  1.6800 -1.4605 -1.3901
   89bbb    H12 2328   6.117   6.079   7.379  1.7783 -1.1629  1.8783
   89bbb    H13 2329   6.038   5.844   7.495  3.1439  3.0107  1.9078
   89bbb    H25 2330   6.238   5.985   7.133  0.1770  0.1134 -0.0515
   90bbb     N1 2331   4.737   4.380   8.085 -0.2645 -0.1406 -0.3726
   90bbb     C1 2332   4.751   4.477   7.963 -0.0378  0.6946  0.2161
   90bbb     C2 2333   4.611   4.301   8.048 -0.1732  0.1917 -1.0279
   90bbb     C3 2334   4.889   4.548   7.959 -0.1647 -0.0484  0.2035
   90bbb     C4 2335   4.903   4.646   7.842 -0.6236  0.2108  1.1683
   90bbb     C5 2336   4.593   4.174   8.139 -0.2074  1.1964 -0.1814
   90bbb     C6 2337   4.453   4.135   8.161  0.1025  0.1307 -0.0000
   90bbb     C7 2338   4.735   4.442   8.225  0.3744 -0.1454  0.4145
   90bbb     C8 2339   4.620   4.540   8.254  0.3798  0.2033  0.5222
   90bbb     N2 2340   4.641   4.606   8.377  1.3038 -0.0137 -0.3785
   90bbb     O1 2341   4.811   4.668   7.762  0.2956  0.1542 -0.2809
   90bbb     O2 2342   4.360   4.215   8.161  0.0118  0.6447 -0.2679
   90bbb     H1 2343   4.760   4.404   7.882 -0.2493 -1.4750  2.0420
   90bbb     H2 2344   4.664   4.541   7.957  0.5893  1.7108  1.5817
   90bbb     H3 2345   4.616   4.273   7.943  0.5790 -1.5595 -0.5607
   90bbb     H4 2346   4.519   4.359   8.053 -1.9428 -2.5026 -0.3907
   90bbb     H5 2347   4.913   4.610   8.047 -0.3061  0.6800 -0.2678
   90bbb     H6 2348   4.967   4.473   7.945 -0.8888 -0.8744  0.4864
   90bbb     H7 2349   4.647   4.183   8.234  1.4714  1.3611 -1.1180
   90bbb     H8 2350   4.656   4.091   8.102  0.6302  1.6026  0.3020
   90bbb     H9 2351   4.830   4.495   8.219  1.1871 -1.6784 -0.8686
   90bbb    H10 2352   4.741   4.365   8.302 -2.3232 -0.1041  0.7589
   90bbb    H11 2353   4.527   4.481   8.260  0.4634  0.0243  0.1215
   90bbb    H12 2354   4.615   4.613   8.172 -1.2519 -0.9656 -0.5102
   90bbb    H13 2355   4.737   4.631   8.400  0.8962  0.1165  1.3119
   90bbb    H25 2356   4.811   4.309   8.092  0.0340  0.3492  3.7798
   91bbb     N1 2357   4.684   3.765   9.247 -0.3755 -0.2041 -0.3213
   91bbb     C1 2358   4.610   3.786   9.378  0.5252  0.1004  0.1395
   91bbb     C2 2359   4.824   3.701   9.281 -0.0693 -0.0634  0.3092
   91bbb     C3 2360   4.562   3.655   9.444  0.0713  0.7293  0.1330
   91bbb     C4 2361   4.439   3.593   9.374  0.0957 -0.4462  0.3183
   91bbb     C5 2362   4.890   3.616   9.169  0.1430 -0.1997 -0.2487
   91bbb     C6 2363   4.802   3.494   9.120 -0.5672  0.6819  0.8861
   91bbb     C7 2364   4.704   3.899   9.174  0.0497  0.6673  0.2978
   91bbb     C8 2365   4.575   3.967   9.123  0.3110  0.3491 -0.4182
   91bbb     N2 2366   4.610   4.099   9.075 -0.1249  0.3581 -0.1598
   91bbb     O1 2367   4.417   3.612   9.253 -0.1858  0.0697 -0.6575
   91bbb     O2 2368   4.682   3.490   9.137  0.4341 -0.0538 -0.1378
   91bbb     H1 2369   4.684   3.835   9.441 -0.4834  0.5663  0.9780
   91bbb     H2 2370   4.519   3.841   9.354 -0.2983 -1.5866 -0.7734
   91bbb     H3 2371   4.798   3.636   9.365 -0.1910 -1.2159 -0.5933
   91bbb     H4 2372   4.887   3.783   9.315  0.5453  0.7449 -2.5827
   91bbb     H5 2373   4.642   3.583   9.462  1.1658  1.8220 -0.1784
   91bbb     H6 2374   4.523   3.670   9.545  1.2530  1.4401  0.4983
   91bbb     H7 2375   4.991   3.584   9.194  0.0137  0.3454  1.0549
   91bbb     H8 2376   4.899   3.681   9.081  1.2635 -0.1408 -0.0969
   91bbb     H9 2377   4.763   3.882   9.084  2.6672  1.8872  1.6640
   91bbb    H10 2378   4.765   3.956   9.244 -0.6460  0.4976  1.0584
   91bbb    H11 2379   4.492   3.981   9.194  1.0523  1.0028  0.3442
   91bbb    H12 2380   4.539   3.901   9.044  0.1485  1.1057 -0.9879
   91bbb    H13 2381   4.708   4.118   9.059 -0.0934  0.7886  0.5280
   91bbb    H25 2382   4.636   3.692   9.192  2.8538 -3.8905  1.2324
   92bbb     N1 2383   3.259   5.110   9.386  0.6228  0.1429 -0.9689
   92bbb     C1 2384   3.147   5.210   9.363  0.0384  0.1534  0.1964
   92bbb     C2 2385   3.263   5.059   9.534  0.3735 -0.4104  0.4930
   92bbb     C3 2386   3.023   5.134   9.298 -0.5702  0.6191  0.1430
   92bbb     C4 2387   3.052   5.114   9.149  0.0378 -0.3215  0.0787
   92bbb     C5 2388   3.131   4.995   9.584 -0.0965  0.6467  0.2596
   92bbb     C6 2389   3.136   4.948   9.733  0.1845  0.6398  0.4324
   92bbb     C7 2390   3.393   5.166   9.364 -0.5284 -0.4806  0.1945
   92bbb     C8 2391   3.421   5.217   9.219 -0.0557 -0.2926 -0.1415
   92bbb     N2 2392   3.444   5.104   9.127 -0.2259 -0.2264  0.8292
   92bbb     O1 2393   3.120   5.027   9.098  0.9052  0.4124  0.0900
   92bbb     O2 2394   3.190   5.005   9.823 -0.2158  0.0794  0.2518
   92bbb     H1 2395   3.114   5.252   9.458 -0.0314 -2.8419  1.6018
   92bbb     H2 2396   3.186   5.291   9.302  0.7385 -2.0352 -2.4830
   92bbb     H3 2397   3.301   5.139   9.597  1.7579  0.8185 -1.7602
   92bbb     H4 2398   3.336   4.979   9.525 -1.3645 -1.9642 -0.4609
   92bbb     H5 2399   2.996   5.038   9.343  0.6997  1.0201  1.8619
   92bbb     H6 2400   2.934   5.198   9.303 -1.6744 -0.8979  0.5579
   92bbb     H7 2401   3.120   4.903   9.525  0.6639  1.3327 -0.9963
   92bbb     H8 2402   3.049   5.067   9.570  1.3447  2.2766 -0.1317
   92bbb     H9 2403   3.463   5.084   9.383 -1.3445 -1.3586 -0.4786
   92bbb    H10 2404   3.406   5.241   9.442 -1.6732 -2.3023  2.2603
   92bbb    H11 2405   3.518   5.266   9.233  1.3710 -2.8563 -0.4267
   92bbb    H12 2406   3.345   5.289   9.184  0.9329  0.7705 -0.1484
   92bbb    H13 2407   3.481   5.020   9.169 -0.5557 -0.8148 -0.0279
   92bbb    H25 2408   3.249   5.028   9.324  0.8842  0.3615 -1.3026
   93bbb     N1 2409   2.995   4.301   8.581 -0.2118  0.0908  0.1382
   93bbb     C1 2410   3.047   4.244   8.442  0.3130  0.1873  0.3183
   93bbb     C2 2411   2.992   4.199   8.700  0.3306 -0.3962  1.0143
   93bbb     C3 2412   3.052   4.336   8.323  0.3423  0.0948  0.0974
   93bbb     C4 2413   3.145   4.463   8.339 -0.7489 -0.0554  0.1485
   93bbb     C5 2414   2.881   4.095   8.687  0.5023 -0.4449 -0.3865
   93bbb     C6 2415   2.899   3.984   8.793 -0.4743  0.2065 -0.1267
   93bbb     C7 2416   2.861   4.379   8.559 -0.0457  0.5192 -0.3168
   93bbb     C8 2417   2.822   4.464   8.675  0.4902  0.2737 -0.5154
   93bbb     N2 2418   2.919   4.574   8.688  0.7062  0.3202 -0.1666
   93bbb     O1 2419   3.174   4.514   8.448  0.1387  0.2288  0.0190
   93bbb     O2 2420   2.971   4.006   8.890 -0.3889 -0.3061  0.4018
   93bbb     H1 2421   3.150   4.207   8.451  0.6110 -0.3158 -3.6250
   93bbb     H2 2422   2.992   4.153   8.417 -1.3932  1.3128 -0.2013
   93bbb     H3 2423   2.979   4.251   8.795  0.0696 -2.1151  1.9626
   93bbb     H4 2424   3.088   4.147   8.701 -0.1862 -1.7868 -2.9087
   93bbb     H5 2425   3.095   4.281   8.238 -0.8091 -1.3835  0.4334
   93bbb     H6 2426   2.950   4.356   8.288  0.6604  1.0985 -0.2876
   93bbb     H7 2427   2.890   4.046   8.589  0.7888 -1.7517  0.2776
   93bbb     H8 2428   2.779   4.136   8.695  0.9258  0.6283 -0.2432
   93bbb     H9 2429   2.794   4.295   8.548  0.5551 -0.0859  0.5288
   93bbb    H10 2430   2.863   4.446   8.472  0.3594  1.8228  0.6523
   93bbb    H11 2431   2.820   4.413   8.772 -0.0127  0.4079 -0.4520
   93bbb    H12 2432   2.719   4.501   8.664  0.2594  1.3317  3.4341
   93bbb    H13 2433   2.884   4.665   8.659  2.3451  1.3643  0.9673
   93bbb    H25 2434   3.059   4.379   8.600 -0.7626  0.2654  1.3728
   94bbb     N1 2435   6.103   5.342   3.692 -0.4021 -0.6643 -0.4264
   94bbb     C1 2436   6.051   5.222   3.774 -0.2601 -0.2797  0.7625
   94bbb     C2 2437   6.121   5.316   3.545 -0.2065  0.2822 -0.3715
   94bbb     C3 2438   5.905   5.173   3.748 -0.4537 -0.1267 -0.2803
   94bbb     C4 2439   5.802   5.270   3.793  0.1426 -0.6868 -0.2671
   94bbb     C5 2440   6.000   5.363   3.452 -0.0834 -0.0256 -0.1711
   94bbb     C6 2441   5.969   5.512   3.459 -0.0186  0.4261  0.0324
   94bbb     C7 2442   6.224   5.391   3.765 -0.0649 -0.1848  0.0398
   94bbb     C8 2443   6.249   5.543   3.763  0.2863  0.7528  0.2351
   94bbb     N2 2444   6.139   5.619   3.828 -0.0975  0.4166 -0.1124
   94bbb     O1 2445   5.781   5.375   3.734  0.1113 -0.2230 -0.4040
   94bbb     O2 2446   5.969   5.571   3.568 -0.0559 -0.3123 -0.0532
   94bbb     H1 2447   6.123   5.141   3.765 -2.1935 -2.6073  4.0235
   94bbb     H2 2448   6.052   5.254   3.879  2.1923  0.0658  0.6871
   94bbb     H3 2449   6.112   5.207   3.534 -1.1107  0.5242 -2.6854
   94bbb     H4 2450   6.209   5.364   3.503 -0.2477 -0.3094 -1.1759
   94bbb     H5 2451   5.889   5.145   3.643 -1.3435 -1.8265  0.2688
   94bbb     H6 2452   5.896   5.077   3.802 -1.0670  0.2698  0.3307
   94bbb     H7 2453   5.908   5.303   3.464 -0.4409  0.7714  1.1954
   94bbb     H8 2454   6.034   5.353   3.348  0.7380  0.8610 -0.0016
   94bbb     H9 2455   6.316   5.341   3.734 -0.7926 -0.3815 -1.9373
   94bbb    H10 2456   6.203   5.360   3.868 -0.0795  2.4635  0.9199
   94bbb    H11 2457   6.267   5.574   3.660  1.2256 -0.5005  0.0032
   94bbb    H12 2458   6.347   5.568   3.806  0.0446  2.1741 -0.0102
   94bbb    H13 2459   6.087   5.563   3.896 -1.1255  1.4690  0.0102
   94bbb    H25 2460   6.034   5.418   3.703 -1.1482 -1.1373 -1.6084
   95bbb     N1 2461   5.228   6.135   3.098 -0.1506  0.4036 -0.4482
   95bbb     C1 2462   5.113   6.034   3.104 -0.6711 -0.2862  0.2130
   95bbb     C2 2463   5.342   6.106   3.000  0.6835 -0.6376  0.0458
   95bbb     C3 2464   5.036   6.025   2.972  0.8133  0.2971  0.3795
   95bbb     C4 2465   4.888   5.998   2.994 -0.6827 -0.6301 -1.3194
   95bbb     C5 2466   5.340   6.172   2.861  0.2634  0.1762  0.0961
   95bbb     C6 2467   5.453   6.112   2.774 -0.1633  0.2743 -1.0023
   95bbb     C7 2468   5.295   6.149   3.237 -1.1421  0.0178  0.2077
   95bbb     C8 2469   5.366   6.020   3.283 -0.7146  0.8518 -0.1892
   95bbb     N2 2470   5.435   6.019   3.415  0.2434 -1.1744 -0.2707
   95bbb     O1 2471   4.845   5.970   3.105 -0.0828 -0.0459 -0.4038
   95bbb     O2 2472   5.481   5.991   2.784 -0.3774 -0.2575  0.5845
   95bbb     H1 2473   5.147   5.937   3.142 -2.0567 -0.3753  1.3082
   95bbb     H2 2474   5.040   6.074   3.175 -1.1658  0.8475 -0.8890
   95bbb     H3 2475   5.349   5.999   2.980  0.1011 -0.8579  0.9508
   95bbb     H4 2476   5.433   6.134   3.053  1.1498 -1.9241 -0.0349
   95bbb     H5 2477   5.035   6.110   2.902 -0.2818 -0.8453 -1.0729
   95bbb     H6 2478   5.069   5.934   2.920  1.0838  0.2176  0.6915
   95bbb     H7 2479   5.351   6.280   2.877 -0.4258  0.0637  1.4176
   95bbb     H8 2480   5.242   6.169   2.811 -0.4849 -1.1909  1.5690
   95bbb     H9 2481   5.216   6.179   3.306 -1.7804  0.4750 -0.6988
   95bbb    H10 2482   5.366   6.231   3.234 -0.7077 -0.3622 -1.6588
   95bbb    H11 2483   5.435   5.986   3.205 -1.2112  1.5271 -0.9439
   95bbb    H12 2484   5.302   5.931   3.294  2.4543 -1.3667  2.0811
   95bbb    H13 2485   5.380   6.037   3.498 -1.5399  0.2525 -1.6765
   95bbb    H25 2486   5.192   6.229   3.076  1.7372  1.1688 -0.3745
   96bbb     N1 2487   4.832   7.391   4.144  0.0677 -0.6239  0.1550
   96bbb     C1 2488   4.804   7.535   4.120 -0.1521  0.0456 -0.6164
   96bbb     C2 2489   4.947   7.378   4.238  0.1820  0.2050 -0.2489
   96bbb     C3 2490   4.749   7.618   4.236 -0.0715  0.1444 -0.1768
   96bbb     C4 2491   4.683   7.748   4.193 -0.4762  0.2777 -0.3142
   96bbb     C5 2492   5.083   7.447   4.192  0.3918  0.0194  0.0148
   96bbb     C6 2493   5.202   7.387   4.274  1.0137 -0.0089  0.1196
   96bbb     C7 2494   4.850   7.329   4.010  0.3334  0.9803 -0.5521
   96bbb     C8 2495   4.854   7.178   4.000 -0.2819 -0.6509 -0.3868
   96bbb     N2 2496   4.967   7.118   4.073 -0.5580  0.4260  0.2397
   96bbb     O1 2497   4.738   7.826   4.114 -0.0461  0.5123  0.1224
   96bbb     O2 2498   5.214   7.266   4.266 -0.1917  0.3557  0.3841
   96bbb     H1 2499   4.898   7.580   4.088  1.3875 -1.6745  1.2540
   96bbb     H2 2500   4.735   7.533   4.035  0.1837 -3.7532 -0.9714
   96bbb     H3 2501   4.960   7.271   4.255 -4.6074 -0.4948  0.2173
   96bbb     H4 2502   4.918   7.412   4.337 -0.0794  0.9190 -0.5641
   96bbb     H5 2503   4.685   7.563   4.305 -1.4843  2.6448  0.6370
   96bbb     H6 2504   4.830   7.649   4.304 -1.5086  1.4403  1.0153
   96bbb     H7 2505   5.073   7.553   4.217  1.9496 -0.2753  2.1491
   96bbb     H8 2506   5.112   7.436   4.087  2.5430 -2.4201  0.7402
   96bbb     H9 2507   4.939   7.367   3.961  0.6985 -0.2876 -0.9218
   96bbb    H10 2508   4.759   7.353   3.956  0.3830 -1.5036 -1.9126
   96bbb    H11 2509   4.861   7.147   3.895 -2.8028 -0.4106 -0.6868
   96bbb    H12 2510   4.757   7.141   4.035 -1.8251  2.4213 -1.0645
   96bbb    H13 2511   4.944   7.046   4.142  2.8175 -2.9841 -1.8167
   96bbb    H25 2512   4.753   7.339   4.185 -1.4028  2.0369  0.9637
   97bbb     N1 2513   5.717   7.903   4.102  0.3811 -0.2909 -0.4376
   97bbb     C1 2514   5.625   7.986   4.019  0.3282 -0.5656 -0.4310
   97bbb     C2 2515   5.854   7.968   4.115 -0.6063 -0.2709  0.4625
   97bbb     C3 2516   5.573   8.115   4.078 -0.1582  0.3023  0.5453
   97bbb     C4 2517   5.525   8.207   3.974  0.4767 -0.6304  0.5627
   97bbb     C5 2518   5.949   7.944   3.994  0.1181  0.5611  0.3794
   97bbb     C6 2519   6.088   8.003   4.019  0.5800  0.2087  0.5400
   97bbb     C7 2520   5.725   7.764   4.059  0.4130  0.2430  0.2162
   97bbb     C8 2521   5.589   7.690   4.070 -0.3436  0.0678  0.3186
   97bbb     N2 2522   5.598   7.545   4.077  0.2836 -0.1525 -0.0676
   97bbb     O1 2523   5.528   8.186   3.855 -0.4531 -0.4873  0.3907
   97bbb     O2 2524   6.117   8.116   4.042  0.8153  0.2139  0.0869
   97bbb     H1 2525   5.678   8.003   3.926 -0.3786  1.2862 -0.5394
   97bbb     H2 2526   5.540   7.920   3.998  1.9187 -2.1768 -2.2095
   97bbb     H3 2527   5.900   7.928   4.205  0.2345 -1.0052 -0.2726
   97bbb     H4 2528   5.827   8.073   4.131 -0.3296 -0.0556 -0.3791
   97bbb     H5 2529   5.483   8.088   4.136  0.4297 -1.4383  0.7093
   97bbb     H6 2530   5.641   8.165   4.148  1.1711 -1.1029  0.3164
   97bbb     H7 2531   5.911   8.000   3.908 -1.8113  0.0387  0.8477
   97bbb     H8 2532   5.953   7.839   3.965  1.6153  0.8702 -0.6590
   97bbb     H9 2533   5.793   7.725   4.135 -0.7048  0.9983  1.6538
   97bbb    H10 2534   5.774   7.758   3.962  0.6434 -0.8241  0.3785
   97bbb    H11 2535   5.532   7.729   3.984  1.2856  0.9309 -0.4141
   97bbb    H12 2536   5.543   7.725   4.163  1.1412  1.3948  0.5904
   97bbb    H13 2537   5.687   7.501   4.100  0.5686 -0.4194 -1.5744
   97bbb    H25 2538   5.677   7.896   4.197  1.0971  0.6519 -0.0526
   98bbb     N1 2539   6.021   5.028   5.469  0.2213 -0.1950 -0.6999
   98bbb     C1 2540   5.875   5.007   5.499  0.7018 -0.1202 -0.1862
   98bbb     C2 2541   6.082   4.922   5.384 -0.5670 -0.1200 -0.0061
   98bbb     C3 2542   5.834   4.873   5.576  0.0857  0.1810  0.2771
   98bbb     C4 2543   5.681   4.858   5.619 -0.2120  0.3000  0.1794
   98bbb     C5 2544   6.029   4.930   5.238  1.0273 -0.3001 -0.5162
   98bbb     C6 2545   6.066   4.799   5.166  0.1470  0.0992  0.1103
   98bbb     C7 2546   6.094   5.049   5.599  0.0916 -0.0271 -0.1569
   98bbb     C8 2547   6.240   5.075   5.578  0.3636  0.1226  0.5513
   98bbb     N2 2548   6.259   5.196   5.501  0.0161 -0.3727 -0.8826
   98bbb     O1 2549   5.602   4.944   5.586 -0.1877 -0.4672  0.7056
   98bbb     O2 2550   6.007   4.696   5.183 -0.5865 -0.1387 -0.3030
   98bbb     H1 2551   5.844   5.084   5.569 -0.3029 -0.0547 -0.6876
   98bbb     H2 2552   5.824   5.012   5.402  2.5575 -2.8457 -1.4454
   98bbb     H3 2553   6.042   4.837   5.438  0.2361 -0.4736  0.0412
   98bbb     H4 2554   6.191   4.916   5.380 -0.5945 -0.8782 -4.1432
   98bbb     H5 2555   5.860   4.786   5.514 -0.2930  2.1183 -2.8337
   98bbb     H6 2556   5.903   4.862   5.661  4.2055  0.6234 -2.6773
   98bbb     H7 2557   6.069   5.016   5.184 -0.5514  0.2981 -0.7928
   98bbb     H8 2558   5.920   4.935   5.229  0.9258 -1.0448  0.1105
   98bbb     H9 2559   6.072   4.960   5.659  0.5099 -0.3260 -0.4337
   98bbb    H10 2560   6.053   5.137   5.648  0.0922  0.5384 -1.1500
   98bbb    H11 2561   6.298   4.994   5.531  0.2798  1.4619 -1.9630
   98bbb    H12 2562   6.282   5.089   5.679  0.7014 -1.1902  0.6176
   98bbb    H13 2563   6.247   5.287   5.543  1.2678 -0.3876 -0.4584
   98bbb    H25 2564   6.020   5.119   5.421 -1.0606  0.4188  0.4224
   99bbb     N1 2565   6.828   5.337   4.636  0.7767  0.5711 -0.0189
   99bbb     C1 2566   6.977   5.339   4.625  0.4369  0.2063 -0.1754
   99bbb     C2 2567   6.762   5.294   4.502  0.3699 -0.1771  0.2648
   99bbb     C3 2568   7.050   5.199   4.614  0.5619 -0.2460  0.6725
   99bbb     C4 2569   7.092   5.138   4.739  0.0255 -0.0648 -0.3466
   99bbb     C5 2570   6.616   5.227   4.508  0.0818 -0.2342  0.3358
   99bbb     C6 2571   6.616   5.101   4.594  0.4044  0.2908  0.1576
   99bbb     C7 2572   6.781   5.465   4.681  0.0460 -0.5111  0.9089
   99bbb     C8 2573   6.826   5.533   4.807 -0.1039  0.4190 -0.5225
   99bbb     N2 2574   6.762   5.484   4.930 -0.4135 -0.1072 -0.1464
   99bbb     O1 2575   7.058   5.187   4.848  0.5253 -0.2430  0.6262
   99bbb     O2 2576   6.700   5.075   4.675 -0.1807  0.1460  0.2602
   99bbb     H1 2577   7.007   5.404   4.543 -0.7399 -1.1257 -1.7140
   99bbb     H2 2578   7.020   5.383   4.716  2.5926  0.2256 -1.1332
   99bbb     H3 2579   6.825   5.221   4.451 -0.0860  1.8039 -3.4475
   99bbb     H4 2580   6.765   5.380   4.436 -1.7880  0.8123  1.3374
   99bbb     H5 2581   7.007   5.122   4.550 -2.1571  1.7980 -0.1299
   99bbb     H6 2582   7.146   5.221   4.565 -0.1371  1.2659 -0.1109
   99bbb     H7 2583   6.589   5.203   4.405 -0.1931  1.5690 -0.0382
   99bbb     H8 2584   6.544   5.299   4.547 -0.3365  0.3966 -1.5500
   99bbb     H9 2585   6.672   5.461   4.684 -0.0087  0.9344  1.4548
   99bbb    H10 2586   6.799   5.536   4.600 -3.3167 -0.8632 -0.3278
   99bbb    H11 2587   6.798   5.638   4.794  0.2035  0.3103 -2.3335
   99bbb    H12 2588   6.934   5.530   4.825 -0.0851  0.0212 -0.6905
   99bbb    H13 2589   6.820   5.442   5.001 -0.9841  2.7214  2.1771
   99bbb    H25 2590   6.796   5.266   4.702 -0.3058 -1.1240 -2.2347
  100bbb     N1 2591   6.706   7.085   4.417 -0.0886  0.0949 -0.1732
  100bbb     C1 2592   6.855   7.077   4.433 -0.3272  0.1642  0.6013
  100bbb     C2 2593   6.647   7.190   4.325  0.0297 -0.5018  0.0802
  100bbb     C3 2594   6.935   7.209   4.417  0.2159 -0.1551 -0.1997
  100bbb     C4 2595   7.084   7.184   4.436  0.0892 -0.3315  1.0575
  100bbb     C5 2596   6.625   7.145   4.175 -0.2957 -0.2582  0.2395
  100bbb     C6 2597   6.507   7.052   4.155  0.2035  0.9474  0.0522
  100bbb     C7 2598   6.647   7.098   4.560  0.3463 -0.4877  0.0509
  100bbb     C8 2599   6.656   6.977   4.657 -0.2202 -0.0593  0.1531
  100bbb     N2 2600   6.595   7.013   4.781 -0.2779 -0.1152 -0.4369
  100bbb     O1 2601   7.129   7.078   4.411 -0.4637 -0.3376 -0.6437
  100bbb     O2 2602   6.434   7.019   4.244 -0.1930 -0.0825  0.3342
  100bbb     H1 2603   6.869   7.038   4.534  0.0262  1.3168  1.0200
  100bbb     H2 2604   6.891   7.005   4.360  0.7644 -0.3464  1.6004
  100bbb     H3 2605   6.705   7.283   4.327  0.6128 -0.8238 -1.1733
  100bbb     H4 2606   6.548   7.217   4.362 -0.4875 -1.0593 -0.8535
  100bbb     H5 2607   6.914   7.249   4.317 -1.1452  1.2648  0.6276
  100bbb     H6 2608   6.902   7.277   4.496  1.7449 -0.7966  1.0551
  100bbb     H7 2609   6.719   7.104   4.137  0.0593 -0.8417  1.6741
  100bbb     H8 2610   6.606   7.235   4.115 -0.7268  1.2593  2.4965
  100bbb     H9 2611   6.544   7.130   4.545  0.3562  0.5182  1.8600
  100bbb    H10 2612   6.688   7.171   4.630  2.0737  0.6135 -1.9997
  100bbb    H11 2613   6.763   6.960   4.677 -0.3108  0.2665  0.9260
  100bbb    H12 2614   6.600   6.890   4.620 -2.2159  0.2976  2.1552
  100bbb    H13 2615   6.648   7.065   4.851 -2.0505  0.7864  0.3131
  100bbb    H25 2616   6.676   6.994   4.378 -1.6625  0.7275 -0.4910
  101bbb     N1 2617   6.110   7.356   5.776 -0.7714  0.5578  0.4591
  101bbb     C1 2618   5.959   7.338   5.751 -0.3255 -0.2240 -0.3581
  101bbb     C2 2619   6.123   7.414   5.912  0.7267 -0.1305 -0.3359
  101bbb     C3 2620   5.876   7.255   5.853  0.8057  0.7490 -0.1376
  101bbb     C4 2621   5.884   7.102   5.835 -0.2026  0.0699  0.4459
  101bbb     C5 2622   6.259   7.482   5.948  0.1185 -0.5098  0.4693
  101bbb     C6 2623   6.270   7.536   6.091 -0.9732 -0.5911  0.1143
  101bbb     C7 2624   6.169   7.439   5.663  0.6779 -0.2156 -0.4522
  101bbb     C8 2625   6.168   7.382   5.523 -0.6576  0.7131  0.6083
  101bbb     N2 2626   6.250   7.255   5.526  0.5075  0.2327  0.1178
  101bbb     O1 2627   5.912   7.046   5.731  0.0393 -0.2663  0.4431
  101bbb     O2 2628   6.179   7.596   6.144  0.0748  0.2497  0.0149
  101bbb     H1 2629   5.916   7.438   5.738  2.5868  1.3253  0.8819
  101bbb     H2 2630   5.951   7.288   5.654  1.8920 -3.5680  0.9981
  101bbb     H3 2631   6.101   7.329   5.977 -0.3166  0.0254 -0.4572
  101bbb     H4 2632   6.040   7.485   5.923  0.6347 -0.1161 -1.0786
  101bbb     H5 2633   5.908   7.278   5.956  1.6932  3.3686 -0.9096
  101bbb     H6 2634   5.769   7.279   5.840  0.4662 -0.2816  0.6685
  101bbb     H7 2635   6.282   7.563   5.878 -1.3026 -0.3259  0.1709
  101bbb     H8 2636   6.338   7.406   5.941  1.1076  0.3981  1.4823
  101bbb     H9 2637   6.271   7.471   5.686  0.6371  1.0509 -1.8969
  101bbb    H10 2638   6.111   7.531   5.664  0.6083 -0.2525  0.9743
  101bbb    H11 2639   6.208   7.458   5.454 -0.7668  0.4667  0.2736
  101bbb    H12 2640   6.063   7.358   5.502 -0.7829  1.9123 -0.2903
  101bbb    H13 2641   6.311   7.242   5.605  1.3233  1.1780 -0.3345
  101bbb    H25 2642   6.155   7.263   5.770 -1.9677  0.0144 -0.3713
  102bbb     N1 2643   2.784   7.192   4.003 -0.3721 -0.3556 -0.8156
  102bbb     C1 2644   2.771   7.296   3.896 -0.6163 -0.2178  0.7339
  102bbb     C2 2645   2.708   7.243   4.125  0.0753  0.0074 -0.0930
  102bbb     C3 2646   2.632   7.321   3.848  0.2766 -0.2819 -0.0594
  102bbb     C4 2647   2.629   7.424   3.735 -0.2149  0.0171 -0.2004
  102bbb     C5 2648   2.577   7.165   4.135 -0.0419  0.4792 -0.0967
  102bbb     C6 2649   2.515   7.199   4.269 -0.0051  0.3385 -0.0217
  102bbb     C7 2650   2.936   7.158   4.022  0.0651 -0.3867  0.1163
  102bbb     C8 2651   2.976   7.068   4.139 -0.0844  0.0462  0.0068
  102bbb     N2 2652   2.920   6.937   4.121 -0.1066 -0.1108 -0.1392
  102bbb     O1 2653   2.727   7.470   3.673 -0.2472 -0.2177  0.0537
  102bbb     O2 2654   2.493   7.108   4.346  0.1595  0.2525 -0.0173
  102bbb     H1 2655   2.828   7.384   3.926  0.3586 -0.0512 -1.4492
  102bbb     H2 2656   2.826   7.265   3.807  1.6840  1.9937  1.2782
  102bbb     H3 2657   2.701   7.351   4.132 -1.1642 -0.1325  1.1231
  102bbb     H4 2658   2.775   7.205   4.202  0.1907  2.2174  0.9665
  102bbb     H5 2659   2.583   7.225   3.830  0.1268 -0.1133 -0.5674
  102bbb     H6 2660   2.583   7.378   3.929 -0.9338 -0.0412 -0.9280
  102bbb     H7 2661   2.586   7.056   4.130  0.4194  0.4935  0.3897
  102bbb     H8 2662   2.510   7.196   4.053 -0.1141  0.3313 -0.0951
  102bbb     H9 2663   2.973   7.260   4.035 -1.6497  0.2905 -0.1010
  102bbb    H10 2664   2.968   7.109   3.930  2.9678  0.7464  0.4121
  102bbb    H11 2665   2.954   7.108   4.239  1.2270 -1.1989  0.8548
  102bbb    H12 2666   3.084   7.047   4.140 -0.4809 -2.3708 -1.6026
  102bbb    H13 2667   2.944   6.879   4.041  0.5757 -1.2495  0.8610
  102bbb    H25 2668   2.737   7.104   3.976 -2.3190  1.1116 -2.5298
  103bbb     N1 2669   1.969   6.771   4.345  0.6023 -0.0897 -0.1289
  103bbb     C1 2670   2.064   6.816   4.448 -0.5235 -0.3345  0.9876
  103bbb     C2 2671   1.820   6.767   4.399  0.2883  0.2578  0.0260
  103bbb     C3 2672   2.102   6.724   4.562  0.1621  0.1323 -0.2797
  103bbb     C4 2673   2.162   6.801   4.671 -0.1551 -0.0704 -0.1672
  103bbb     C5 2674   1.701   6.735   4.296 -0.4514 -0.2296 -0.2642
  103bbb     C6 2675   1.570   6.707   4.375  0.1861 -0.7927 -1.4210
  103bbb     C7 2676   1.997   6.636   4.289  0.3773 -0.3026 -0.3933
  103bbb     C8 2677   2.111   6.637   4.194  0.4338 -0.2719  0.2266
  103bbb     N2 2678   2.239   6.624   4.270  0.4848 -0.0632  0.7077
  103bbb     O1 2679   2.259   6.869   4.649 -0.6441 -0.0925 -0.0552
  103bbb     O2 2680   1.542   6.760   4.484 -0.5022  0.2645 -0.1584
  103bbb     H1 2681   2.154   6.846   4.395  0.3037 -0.5742  2.2232
  103bbb     H2 2682   2.025   6.908   4.492  0.5761  0.3578  0.5318
  103bbb     H3 2683   1.809   6.871   4.432  2.3540  1.1427 -1.8479
  103bbb     H4 2684   1.820   6.688   4.474  0.4991 -2.1170 -2.3615
  103bbb     H5 2685   2.018   6.660   4.592  0.6284 -1.2955 -1.8344
  103bbb     H6 2686   2.178   6.656   4.521 -0.5422  0.8200 -2.9202
  103bbb     H7 2687   1.719   6.651   4.228  0.7537 -1.2474  1.2299
  103bbb     H8 2688   1.693   6.823   4.231  2.4459 -0.2509 -0.7716
  103bbb     H9 2689   1.908   6.601   4.237 -0.9741  1.4448  0.6197
  103bbb    H10 2690   2.023   6.563   4.366  0.2557  0.4998  0.4242
  103bbb    H11 2691   2.111   6.727   4.131  1.3107 -1.9335 -2.2539
  103bbb    H12 2692   2.092   6.552   4.128  0.6063 -1.3130  1.4789
  103bbb    H13 2693   2.301   6.703   4.284 -1.0192  1.0374  1.4928
  103bbb    H25 2694   1.955   6.840   4.270 -0.9605  0.1480  0.3497
  104bbb     N1 2695   4.112   7.195   3.256  0.4626  0.0929  0.0438
  104bbb     C1 2696   4.244   7.156   3.317  0.0852 -0.7300  0.3403
  104bbb     C2 2697   4.066   7.333   3.301 -0.3913  0.1509  0.0145
  104bbb     C3 2698   4.309   7.038   3.251 -0.0195  0.5863  0.5437
  104bbb     C4 2699   4.435   7.016   3.328 -0.3960 -0.6110 -0.8586
  104bbb     C5 2700   4.077   7.369   3.452 -0.4257  0.6112  0.1020
  104bbb     C6 2701   4.032   7.514   3.474  0.5648  0.4197 -0.8682
  104bbb     C7 2702   4.009   7.086   3.289  0.3919 -0.1780  0.4620
  104bbb     C8 2703   3.867   7.094   3.235 -0.2648  0.4976 -0.4144
  104bbb     N2 2704   3.786   6.981   3.267  0.5395  1.1447  0.2968
  104bbb     O1 2705   4.532   7.092   3.333  0.1371 -0.8758 -0.6730
  104bbb     O2 2706   3.961   7.569   3.389 -0.1678  0.1992  0.4629
  104bbb     H1 2707   4.313   7.240   3.311  0.3342 -0.9557 -0.0100
  104bbb     H2 2708   4.233   7.144   3.425  2.2978 -2.1753  0.4691
  104bbb     H3 2709   3.959   7.333   3.277 -0.0886 -0.7754 -1.4274
  104bbb     H4 2710   4.118   7.403   3.236  0.7959 -1.7580 -1.1845
  104bbb     H5 2711   4.240   6.954   3.271  1.5744 -1.7286 -2.6540
  104bbb     H6 2712   4.334   7.046   3.145 -0.5304 -0.4255  0.3336
  104bbb     H7 2713   4.181   7.353   3.484 -0.4216  1.9587  0.8550
  104bbb     H8 2714   4.030   7.291   3.514  1.7375 -0.0232  1.0550
  104bbb     H9 2715   4.001   7.084   3.397 -3.4285 -0.9630  0.2909
  104bbb    H10 2716   4.058   6.996   3.251  0.1334 -0.3057  0.4260
  104bbb    H11 2717   3.854   7.118   3.129 -2.2397  1.4432  0.0059
  104bbb    H12 2718   3.829   7.172   3.302  0.5671  0.9313 -0.4417
  104bbb    H13 2719   3.835   6.904   3.311  1.2212  0.5239 -1.4690
  104bbb    H25 2720   4.130   7.201   3.155 -1.6027 -2.5058 -0.5791
  105bbb     N1 2721   2.898   6.747   2.633 -0.0766 -0.1122 -0.0926
  105bbb     C1 2722   2.754   6.729   2.682  0.2848 -0.5718  0.6492
  105bbb     C2 2723   2.894   6.767   2.482 -0.3061  0.6307 -0.4974
  105bbb     C3 2724   2.689   6.598   2.634 -0.0786  0.4633 -0.1595
  105bbb     C4 2725   2.539   6.585   2.659  0.3408  0.0582  0.0273
  105bbb     C5 2726   3.025   6.823   2.419 -0.3275  0.1257  0.2661
  105bbb     C6 2727   2.999   6.876   2.276  0.4308  0.4614  0.0479
  105bbb     C7 2728   2.977   6.629   2.670 -0.2769 -0.2673 -0.1748
  105bbb     C8 2729   3.025   6.609   2.813 -0.7560 -0.5299 -0.1911
  105bbb     N2 2730   3.096   6.722   2.873  0.6701  0.1003  0.8726
  105bbb     O1 2731   2.455   6.647   2.592  0.0253  0.4513 -0.5901
  105bbb     O2 2732   2.915   6.826   2.202 -0.0413  0.1029 -0.9333
  105bbb     H1 2733   2.760   6.737   2.791 -1.6055 -0.6862  0.8032
  105bbb     H2 2734   2.700   6.817   2.646  0.7445  0.7107  2.9043
  105bbb     H3 2735   2.808   6.834   2.476 -0.7173  0.3132  1.3845
  105bbb     H4 2736   2.878   6.666   2.444  1.7847  0.2150 -0.4060
  105bbb     H5 2737   2.700   6.585   2.525 -1.6191  1.1725 -0.4370
  105bbb     H6 2738   2.738   6.511   2.680 -1.5081  0.5741  1.6654
  105bbb     H7 2739   3.107   6.750   2.417 -1.0418 -0.7160  0.6506
  105bbb     H8 2740   3.054   6.910   2.478 -1.7114  0.2040  0.8816
  105bbb     H9 2741   3.058   6.626   2.597 -1.3971  0.7447 -1.4999
  105bbb    H10 2742   2.919   6.544   2.632  0.3110 -0.7258 -0.0713
  105bbb    H11 2743   3.091   6.522   2.804 -1.7876 -1.3492 -0.0607
  105bbb    H12 2744   2.938   6.580   2.872 -1.4553  1.4591 -0.1844
  105bbb    H13 2745   3.185   6.736   2.827  0.4974 -1.1953  0.0908
  105bbb    H25 2746   2.944   6.828   2.677  1.1031 -0.8574  0.1001
  106bbb     N1 2747   4.333   5.073   3.891 -0.3076 -0.6591  0.2302
  106bbb     C1 2748   4.425   4.972   3.806 -0.1279 -0.4958 -0.2371
  106bbb     C2 2749   4.349   5.219   3.847 -0.1330 -0.8607 -0.4094
  106bbb     C3 2750   4.432   4.994   3.651  0.1077  0.2823 -0.1768
  106bbb     C4 2751   4.554   4.909   3.597 -0.0355 -0.0736 -0.5415
  106bbb     C5 2752   4.463   5.307   3.896 -0.1664  0.1481  0.3527
  106bbb     C6 2753   4.604   5.247   3.897 -0.3008 -0.3960 -0.6610
  106bbb     C7 2754   4.351   5.061   4.041 -0.0155  0.5954 -0.1656
  106bbb     C8 2755   4.316   4.915   4.093 -0.2942 -0.1855  0.3131
  106bbb     N2 2756   4.177   4.867   4.076  0.1163 -0.4129 -0.0392
  106bbb     O1 2757   4.655   4.908   3.661  0.2143  0.1232  0.0194
  106bbb     O2 2758   4.644   5.148   3.958  0.4888 -0.1606  0.1233
  106bbb     H1 2759   4.525   4.984   3.847 -1.3434  0.6213  2.6682
  106bbb     H2 2760   4.389   4.871   3.831  2.3105 -0.6147  3.6898
  106bbb     H3 2761   4.265   5.278   3.886  1.2161 -0.6749  2.4786
  106bbb     H4 2762   4.339   5.228   3.739 -1.9711  2.3730 -0.1014
  106bbb     H5 2763   4.333   4.966   3.613 -0.4741  0.9466  0.8090
  106bbb     H6 2764   4.438   5.099   3.623  1.5934  0.6365  1.2989
  106bbb     H7 2765   4.441   5.341   3.998 -1.5844  2.7068 -0.7108
  106bbb     H8 2766   4.464   5.395   3.829 -1.6630 -1.4644 -1.9445
  106bbb     H9 2767   4.278   5.130   4.084 -1.4930  0.5615 -2.4318
  106bbb    H10 2768   4.453   5.088   4.069 -0.5641  2.3192  0.3368
  106bbb    H11 2769   4.345   4.910   4.198  0.2921 -0.6364  0.1329
  106bbb    H12 2770   4.382   4.849   4.036  1.5139  2.7258 -1.2437
  106bbb    H13 2771   4.107   4.906   4.139  0.0612 -2.2022  1.0707
  106bbb    H25 2772   4.233   5.059   3.869  0.0882 -1.3204 -1.2644
  107bbb     N1 2773   3.933   4.439   3.187  0.4524 -0.4175 -0.3833
  107bbb     C1 2774   4.069   4.413   3.120  0.1894 -0.5663  0.2518
  107bbb     C2 2775   3.814   4.375   3.118  0.4561  0.2666 -0.4963
  107bbb     C3 2776   4.086   4.453   2.975 -0.2230  0.0845  0.7957
  107bbb     C4 2777   4.226   4.415   2.927  0.3997  0.1553  0.0671
  107bbb     C5 2778   3.817   4.219   3.118 -0.3980 -0.3106  0.5145
  107bbb     C6 2779   3.680   4.155   3.077 -0.3365 -0.2690  1.0222
  107bbb     C7 2780   3.907   4.591   3.192  0.5307  0.2932 -0.0752
  107bbb     C8 2781   3.820   4.655   3.306  0.5216  0.1338 -0.7399
  107bbb     N2 2782   3.843   4.607   3.442  0.0656  0.2006 -0.7071
  107bbb     O1 2783   4.325   4.395   2.995  0.3485  0.1699  0.5467
  107bbb     O2 2784   3.591   4.224   3.032  0.0895 -0.5819 -0.1394
  107bbb     H1 2785   4.152   4.454   3.179  1.9892 -0.0905 -2.4268
  107bbb     H2 2786   4.087   4.305   3.121 -1.3176 -0.8344  0.4066
  107bbb     H3 2787   3.813   4.411   3.015  0.0216  2.0225  0.0800
  107bbb     H4 2788   3.724   4.419   3.163 -0.2376  2.2269 -3.4817
  107bbb     H5 2789   4.014   4.401   2.910 -1.1430  0.9967  1.0711
  107bbb     H6 2790   4.070   4.560   2.962  0.4866 -0.0325 -1.7607
  107bbb     H7 2791   3.836   4.189   3.221 -1.9343  0.8301  1.1831
  107bbb     H8 2792   3.890   4.176   3.049 -1.3366 -1.4564  0.2043
  107bbb     H9 2793   3.855   4.612   3.099  4.3783 -1.4286 -2.8841
  107bbb    H10 2794   4.002   4.645   3.190  1.3242 -1.0863 -0.4913
  107bbb    H11 2795   3.716   4.636   3.279  0.8113 -1.8824 -0.6344
  107bbb    H12 2796   3.834   4.763   3.316  1.7022 -0.1516  1.2433
  107bbb    H13 2797   3.922   4.648   3.491  0.7647 -2.8696  0.9786
  107bbb    H25 2798   3.937   4.413   3.287  0.6740  4.3194  1.0899
  108bbb     N1 2799   2.192   4.872   3.260 -0.0463 -0.6415 -0.9144
  108bbb     C1 2800   2.273   4.743   3.253  0.1195 -0.3590 -0.3813
  108bbb     C2 2801   2.044   4.838   3.252 -0.2142  0.3674  0.4174
  108bbb     C3 2802   2.228   4.634   3.357  0.2069 -0.2263 -0.6681
  108bbb     C4 2803   2.310   4.502   3.352  0.3027 -0.1485 -0.8148
  108bbb     C5 2804   1.948   4.952   3.281 -0.0487 -0.3544 -0.8427
  108bbb     C6 2805   1.805   4.906   3.289 -0.3557 -0.3105  0.0229
  108bbb     C7 2806   2.233   4.964   3.146 -0.3626 -0.6157 -0.0119
  108bbb     C8 2807   2.382   5.009   3.122 -0.3576  0.1895  0.0426
  108bbb     N2 2808   2.434   5.094   3.231  0.2690 -0.2096 -0.4821
  108bbb     O1 2809   2.385   4.472   3.262  0.2506  0.0690  0.4786
  108bbb     O2 2810   1.775   4.786   3.285 -0.2346 -0.5270 -0.5305
  108bbb     H1 2811   2.252   4.691   3.159 -1.7805  1.2025 -0.8918
  108bbb     H2 2812   2.378   4.770   3.262  0.2359 -1.3535  1.6992
  108bbb     H3 2813   2.019   4.760   3.324 -2.0127 -0.1021 -0.6612
  108bbb     H4 2814   2.025   4.801   3.151 -2.0346 -2.1948  1.5771
  108bbb     H5 2815   2.233   4.678   3.457 -0.3252 -0.2824 -0.6135
  108bbb     H6 2816   2.126   4.598   3.335  0.4226  0.6979 -3.6460
  108bbb     H7 2817   1.961   5.036   3.212 -4.1578  3.6810  2.6389
  108bbb     H8 2818   1.966   5.006   3.375  1.3890  0.4165 -1.5329
  108bbb     H9 2819   2.179   5.059   3.147  1.0011  0.1935  0.5563
  108bbb    H10 2820   2.204   4.905   3.059  0.5971 -0.7811 -0.2297
  108bbb    H11 2821   2.387   5.073   3.032  0.5492  1.1259  0.7425
  108bbb    H12 2822   2.448   4.922   3.118  2.1233  1.8722  1.7071
  108bbb    H13 2823   2.403   5.190   3.224 -0.5843 -0.3957  0.4830
  108bbb    H25 2824   2.215   4.917   3.350  0.5710  0.9803 -1.8254
  109bbb     N1 2825   3.059   5.778   3.051 -0.4540 -0.6743  0.3563
  109bbb     C1 2826   3.147   5.895   3.008 -0.0592  0.4922 -0.4186
  109bbb     C2 2827   3.087   5.666   2.951  0.2202 -0.0232 -0.5199
  109bbb     C3 2828   3.135   6.014   3.106  0.2444  0.3581 -0.1720
  109bbb     C4 2829   3.263   6.103   3.123  0.8809  0.6577 -0.2386
  109bbb     C5 2830   3.057   5.701   2.797  0.0469 -0.1313  0.0602
  109bbb     C6 2831   3.054   5.575   2.715  0.2107  0.4186 -0.0338
  109bbb     C7 2832   2.903   5.811   3.049 -0.2781  0.0437  0.4937
  109bbb     C8 2833   2.803   5.694   3.073 -0.1305 -0.8686 -0.0448
  109bbb     N2 2834   2.795   5.650   3.206  0.3418 -0.0820 -0.0406
  109bbb     O1 2835   3.286   6.186   3.041 -0.3201 -0.3064 -0.1931
  109bbb     O2 2836   3.042   5.461   2.757  0.8062 -0.4835 -0.0355
  109bbb     H1 2837   3.251   5.861   3.009  0.3440  1.6931 -0.4871
  109bbb     H2 2838   3.120   5.930   2.908 -0.5656  0.4389 -0.3069
  109bbb     H3 2839   3.019   5.583   2.973  2.4205 -2.3866 -1.9982
  109bbb     H4 2840   3.189   5.631   2.965  0.6900  1.2484 -0.6676
  109bbb     H5 2841   3.041   6.065   3.081 -0.0433 -0.8425 -1.6900
  109bbb     H6 2842   3.113   5.975   3.206  1.4055 -0.0730 -0.0677
  109bbb     H7 2843   3.126   5.770   2.748 -0.5788 -1.1808 -2.5005
  109bbb     H8 2844   2.956   5.742   2.790 -0.0921 -0.5226 -0.2454
  109bbb     H9 2845   2.894   5.855   2.949  0.8569  0.4725  0.5564
  109bbb    H10 2846   2.878   5.886   3.124 -1.2800  0.2948 -0.0759
  109bbb    H11 2847   2.821   5.614   3.000 -0.8921 -0.5104 -0.6474
  109bbb    H12 2848   2.703   5.730   3.043 -0.0529 -0.9697 -0.4292
  109bbb    H13 2849   2.722   5.686   3.267  0.4742  1.9974 -1.0143
  109bbb    H25 2850   3.081   5.743   3.145 -0.5485 -0.3433  0.5051
  110bbb     N1 2851   3.638   8.385   4.879 -0.2504 -0.1654  0.1779
  110bbb     C1 2852   3.541   8.492   4.916  0.4075 -0.2469 -0.1769
  110bbb     C2 2853   3.581   8.316   4.756 -0.1240  0.5054  0.2236
  110bbb     C3 2854   3.574   8.586   5.035 -0.5936 -0.1648 -0.0526
  110bbb     C4 2855   3.696   8.680   5.018  0.0001 -0.9757  0.2566
  110bbb     C5 2856   3.565   8.401   4.631 -0.5394  0.1168  0.4416
  110bbb     C6 2857   3.531   8.322   4.504 -0.0125 -0.9230 -0.2845
  110bbb     C7 2858   3.662   8.271   4.979 -0.1555  0.3055 -0.1257
  110bbb     C8 2859   3.793   8.290   5.073  0.2389  0.0987  0.1453
  110bbb     N2 2860   3.778   8.214   5.198 -0.1124 -0.1461 -0.4623
  110bbb     O1 2861   3.785   8.662   4.940 -0.4392 -0.6593  0.1773
  110bbb     O2 2862   3.577   8.212   4.484 -0.8676  0.4863  0.4249
  110bbb     H1 2863   3.522   8.549   4.825 -1.7627  0.7393  0.8346
  110bbb     H2 2864   3.443   8.449   4.937  0.1682  0.4608  0.1983
  110bbb     H3 2865   3.481   8.289   4.791  0.0379 -0.9377 -0.3597
  110bbb     H4 2866   3.640   8.226   4.737 -0.7252  0.3429 -0.9865
  110bbb     H5 2867   3.487   8.651   5.053 -0.8164 -0.0030 -1.5842
  110bbb     H6 2868   3.584   8.514   5.117 -2.5910 -0.3904  0.0509
  110bbb     H7 2869   3.651   8.459   4.596 -0.1921  0.2270  1.4437
  110bbb     H8 2870   3.483   8.474   4.639 -0.3779  0.3446  0.0345
  110bbb     H9 2871   3.676   8.176   4.926 -1.9134 -0.2093  0.2726
  110bbb    H10 2872   3.574   8.256   5.042  0.1865 -1.7737 -0.0490
  110bbb    H11 2873   3.800   8.399   5.084 -3.4609  0.5658 -0.9559
  110bbb    H12 2874   3.883   8.261   5.018 -0.5949  0.5289 -1.4957
  110bbb    H13 2875   3.737   8.122   5.190 -0.9888  0.1185  0.6759
  110bbb    H25 2876   3.732   8.420   4.857  0.1424 -1.5133 -0.3999
  111bbb     N1 2877   3.847   8.928   5.912  0.3883 -0.0523  0.9628
  111bbb     C1 2878   3.828   9.018   5.790  0.0992  0.7090  0.2879
  111bbb     C2 2879   3.940   8.996   6.015  0.0424  0.2547  0.7071
  111bbb     C3 2880   3.730   9.131   5.801 -0.6752 -0.3980 -0.7987
  111bbb     C4 2881   3.592   9.085   5.843  0.4363 -0.2864 -0.0284
  111bbb     C5 2882   3.920   8.957   6.163 -0.2325 -0.3952  0.0185
  111bbb     C6 2883   3.798   8.999   6.240  0.4552  0.8695  0.1806
  111bbb     C7 2884   3.901   8.802   5.876  0.2053  0.2850 -0.4847
  111bbb     C8 2885   3.817   8.718   5.775  0.8013 -0.6167  0.1697
  111bbb     N2 2886   3.861   8.579   5.777 -0.0825 -0.8037  0.5635
  111bbb     O1 2887   3.558   8.971   5.838 -0.2371  0.7990  0.1563
  111bbb     O2 2888   3.702   9.048   6.191  0.0512 -0.5735  0.2969
  111bbb     H1 2889   3.927   9.055   5.763  0.4137 -0.0354  0.3937
  111bbb     H2 2890   3.791   8.955   5.709  0.1951 -0.4025  1.0894
  111bbb     H3 2891   3.914   9.102   6.008 -0.7114  0.0333 -0.1195
  111bbb     H4 2892   4.041   8.980   5.978 -0.1282  1.7158 -0.4850
  111bbb     H5 2893   3.773   9.199   5.876  0.8500 -1.6412 -0.5027
  111bbb     H6 2894   3.722   9.186   5.706  0.4566 -0.0861 -0.7311
  111bbb     H7 2895   4.004   9.007   6.213  1.4707 -2.7689 -0.3366
  111bbb     H8 2896   3.950   8.852   6.173  0.4428 -0.0105  3.2048
  111bbb     H9 2897   3.918   8.752   5.971  0.6780 -0.2979 -0.8652
  111bbb    H10 2898   4.003   8.812   5.837  0.4746  2.3859  0.6412
  111bbb    H11 2899   3.829   8.748   5.670  2.2733  0.4604  0.6101
  111bbb    H12 2900   3.711   8.722   5.802  0.9375 -0.0894  0.6477
  111bbb    H13 2901   3.802   8.500   5.803  0.0889 -0.5060  1.9302
  111bbb    H25 2902   3.752   8.906   5.945 -0.4504 -1.6502 -2.0823
  112bbb     N1 2903   3.357   7.861   7.062  0.1732  0.2038 -0.6693
  112bbb     C1 2904   3.475   7.905   7.149  0.1690 -0.3626 -0.1225
  112bbb     C2 2905   3.231   7.944   7.099  0.1264 -0.6382 -0.0056
  112bbb     C3 2906   3.468   7.869   7.298 -0.2164  0.0282  0.0041
  112bbb     C4 2907   3.403   7.984   7.378  0.2581  0.3231  0.5417
  112bbb     C5 2908   3.218   8.073   7.015 -0.4534  0.4830 -0.4391
  112bbb     C6 2909   3.099   8.172   7.053  0.2143  0.0226  0.3086
  112bbb     C7 2910   3.327   7.713   7.067  0.2913  0.3644  0.0746
  112bbb     C8 2911   3.206   7.666   6.977 -0.3598  0.1413 -0.4630
  112bbb     N2 2912   3.210   7.738   6.854 -0.0115  0.5999  0.7712
  112bbb     O1 2913   3.422   8.099   7.343 -0.1460  1.0676  0.5839
  112bbb     O2 2914   3.053   8.185   7.164 -0.0547 -0.6505 -0.4106
  112bbb     H1 2915   3.564   7.854   7.110  1.2681  2.5778 -1.7431
  112bbb     H2 2916   3.496   8.010   7.131 -0.7708  0.1532  1.5807
  112bbb     H3 2917   3.231   7.967   7.205 -0.1463 -0.4962 -0.0341
  112bbb     H4 2918   3.142   7.885   7.077 -0.3694  0.0955 -0.0156
  112bbb     H5 2919   3.399   7.785   7.314 -0.7167  0.0812 -1.6622
  112bbb     H6 2920   3.569   7.851   7.335 -0.0637  0.2787 -0.2882
  112bbb     H7 2921   3.200   8.043   6.911 -3.1665  1.1742 -0.2601
  112bbb     H8 2922   3.313   8.127   7.023 -0.4576  0.3599  0.5920
  112bbb     H9 2923   3.296   7.675   7.164  0.8651 -1.3137 -0.3677
  112bbb    H10 2924   3.418   7.660   7.037 -0.1095  0.4715 -1.4343
  112bbb    H11 2925   3.112   7.680   7.030  1.0102  1.5997  1.7013
  112bbb    H12 2926   3.213   7.558   6.956  0.2443  0.2961 -1.1243
  112bbb    H13 2927   3.296   7.781   6.824  0.3049 -0.6281 -0.1600
  112bbb    H25 2928   3.384   7.883   6.966  0.0734  0.6874 -0.5853
  113bbb     N1 2929   2.721   8.368   6.027 -0.3538 -0.1947 -0.0983
  113bbb     C1 2930   2.730   8.515   6.047 -0.5485 -0.1001  0.4102
  113bbb     C2 2931   2.574   8.339   6.023  0.1674 -0.2326 -0.6787
  113bbb     C3 2932   2.682   8.606   5.933  1.3062 -0.1911 -0.1028
  113bbb     C4 2933   2.761   8.740   5.917 -0.1106  0.5952 -0.4361
  113bbb     C5 2934   2.470   8.375   6.137  0.7745 -0.7945 -0.5733
  113bbb     C6 2935   2.444   8.260   6.235 -0.4732  0.0643 -0.2703
  113bbb     C7 2936   2.807   8.291   6.125  0.0129 -0.5469  0.0495
  113bbb     C8 2937   2.809   8.135   6.113  0.0514 -0.2236  0.3802
  113bbb     N2 2938   2.914   8.067   6.190 -0.1340 -0.5109 -0.2614
  113bbb     O1 2939   2.877   8.751   5.952  0.3052 -0.1480 -0.1576
  113bbb     O2 2940   2.538   8.195   6.283 -0.1844  0.3262  0.3513
  113bbb     H1 2941   2.685   8.555   6.138  2.4105  1.4325  1.3186
  113bbb     H2 2942   2.836   8.536   6.061 -0.1602 -1.9741  0.5473
  113bbb     H3 2943   2.568   8.234   5.994 -1.0865 -0.3620 -0.0443
  113bbb     H4 2944   2.548   8.398   5.936  1.5760  0.4242 -0.6799
  113bbb     H5 2945   2.693   8.556   5.836  2.1974  1.9398 -1.1701
  113bbb     H6 2946   2.577   8.635   5.947  1.7081  0.3799  2.0659
  113bbb     H7 2947   2.375   8.401   6.090 -0.3689 -2.3973  0.7452
  113bbb     H8 2948   2.500   8.462   6.195 -0.5890 -0.4050 -0.4227
  113bbb     H9 2949   2.781   8.332   6.222  0.1930 -1.7475  0.6256
  113bbb    H10 2950   2.911   8.319   6.111 -0.0287  0.0858  0.9432
  113bbb    H11 2951   2.821   8.090   6.013  2.8875 -1.3016  1.1037
  113bbb    H12 2952   2.711   8.096   6.144 -1.2021  3.1665  1.0486
  113bbb    H13 2953   2.981   8.105   6.255  0.6293 -2.4319  0.1450
  113bbb    H25 2954   2.749   8.355   5.928 -1.6036 -0.6967 -0.4087
  114bbb     N1 2955   5.235   7.869   6.270  0.1436  0.0494 -1.0570
  114bbb     C1 2956   5.271   8.016   6.272  0.0599 -0.5219 -0.2529
  114bbb     C2 2957   5.187   7.819   6.403  0.1162 -0.3799  0.8560
  114bbb     C3 2958   5.165   8.113   6.314 -0.4101  0.6510  0.5783
  114bbb     C4 2959   5.073   8.156   6.205 -0.1854  0.2979 -0.1485
  114bbb     C5 2960   5.277   7.831   6.528  0.0326 -0.6384 -0.1729
  114bbb     C6 2961   5.284   7.711   6.615  0.1878 -0.0573  0.1933
  114bbb     C7 2962   5.351   7.786   6.232 -0.2865 -0.1419  0.1202
  114bbb     C8 2963   5.335   7.633   6.222 -0.0596  0.3488  0.1869
  114bbb     N2 2964   5.293   7.577   6.096  0.3169 -0.6034 -0.8167
  114bbb     O1 2965   5.016   8.065   6.145  0.0209 -0.6089 -0.6070
  114bbb     O2 2966   5.244   7.607   6.574  0.1041  0.1165 -0.3659
  114bbb     H1 2967   5.356   8.030   6.339 -1.0924 -0.4455  1.2327
  114bbb     H2 2968   5.313   8.040   6.174  0.3593 -0.8414 -0.2096
  114bbb     H3 2969   5.157   7.715   6.390 -1.7742  0.2561 -0.2319
  114bbb     H4 2970   5.095   7.870   6.431  0.0647 -0.2925  0.5368
  114bbb     H5 2971   5.114   8.070   6.402 -1.1399  0.3555  0.0187
  114bbb     H6 2972   5.213   8.203   6.356 -2.2627  1.7815  0.3713
  114bbb     H7 2973   5.224   7.905   6.590  1.8061  0.5362  0.0293
  114bbb     H8 2974   5.374   7.879   6.509 -0.4387  0.2747 -0.3421
  114bbb     H9 2975   5.440   7.813   6.289 -0.2684 -0.0823  0.0630
  114bbb    H10 2976   5.389   7.819   6.135 -1.8629  1.7077  0.0573
  114bbb    H11 2977   5.276   7.594   6.306 -0.7781 -5.9147 -2.6616
  114bbb    H12 2978   5.430   7.590   6.257 -1.7515 -1.9444  2.2905
  114bbb    H13 2979   5.359   7.540   6.029 -0.0392 -0.4541 -1.2476
  114bbb    H25 2980   5.166   7.851   6.196  0.1030 -0.1013 -0.9847
  115bbb     N1 2981   5.584   7.981   5.273  0.0156 -0.0460 -0.3558
  115bbb     C1 2982   5.499   8.050   5.162 -0.0138 -0.0927 -0.1226
  115bbb     C2 2983   5.674   7.888   5.197 -0.3558  0.6452  0.1356
  115bbb     C3 2984   5.441   8.194   5.199 -0.1988  0.0886  0.1128
  115bbb     C4 2985   5.363   8.263   5.086  0.1943 -0.1732  0.4858
  115bbb     C5 2986   5.788   7.830   5.274 -0.4171  0.1121 -0.1816
  115bbb     C6 2987   5.912   7.810   5.192 -0.4693  0.9619  0.0667
  115bbb     C7 2988   5.502   7.914   5.392 -0.4971 -0.2922  0.2569
  115bbb     C8 2989   5.398   7.804   5.361 -0.5109 -0.7846 -0.0387
  115bbb     N2 2990   5.307   7.780   5.473  0.1266  0.3353  0.3917
  115bbb     O1 2991   5.396   8.230   4.975  0.3667  0.5466  0.0712
  115bbb     O2 2992   5.912   7.846   5.073  1.1322 -0.2083  0.0518
  115bbb     H1 2993   5.570   8.052   5.079 -1.1680  0.4148 -1.1273
  115bbb     H2 2994   5.419   7.979   5.139 -0.7939  1.0368 -1.0078
  115bbb     H3 2995   5.715   7.950   5.117 -0.0155  0.7319  0.3755
  115bbb     H4 2996   5.618   7.809   5.147  0.9347  0.7853 -1.6207
  115bbb     H5 2997   5.374   8.191   5.286 -1.3315  0.2340 -0.7310
  115bbb     H6 2998   5.529   8.252   5.228  0.5792 -1.0783  0.1369
  115bbb     H7 2999   5.753   7.738   5.323  1.7401 -0.7063 -0.0575
  115bbb     H8 3000   5.822   7.882   5.364  0.9409 -1.7465  0.4353
  115bbb     H9 3001   5.453   7.999   5.440 -0.4351  0.6076 -1.2239
  115bbb    H10 3002   5.578   7.876   5.460  1.7463  1.8783 -0.8535
  115bbb    H11 3003   5.445   7.709   5.332 -1.4784 -1.1292 -0.5398
  115bbb    H12 3004   5.336   7.836   5.277 -1.3475 -0.4306  0.6953
  115bbb    H13 3005   5.327   7.820   5.563  1.0948  1.0763 -0.1322
  115bbb    H25 3006   5.647   8.050   5.317 -0.1061 -0.3275  0.2766
  116bbb     N1 3007   4.528   7.911   7.205 -0.1296  0.2630  0.2609
  116bbb     C1 3008   4.635   8.026   7.172  0.5288  0.0220  0.3557
  116bbb     C2 3009   4.553   7.836   7.335  1.0110  0.0546  1.1768
  116bbb     C3 3010   4.610   8.169   7.228 -0.7005  0.0170 -0.1437
  116bbb     C4 3011   4.610   8.203   7.380  0.4803 -0.3891  0.1497
  116bbb     C5 3012   4.441   7.744   7.379 -0.0115  0.3608  0.2899
  116bbb     C6 3013   4.485   7.658   7.499  0.3223  0.1733  0.3976
  116bbb     C7 3014   4.539   7.815   7.092 -0.4645  0.7200  0.4984
  116bbb     C8 3015   4.671   7.740   7.089 -0.1620  1.1512  0.0955
  116bbb     N2 3016   4.672   7.641   6.976  0.0267  0.0363 -0.4167
  116bbb     O1 3017   4.599   8.122   7.465  0.4765  0.5303  0.1356
  116bbb     O2 3018   4.603   7.637   7.514  0.3598  0.0330 -0.2159
  116bbb     H1 3019   4.734   7.988   7.198  0.2817 -0.7236  0.2005
  116bbb     H2 3020   4.645   8.032   7.064  0.4508 -0.1614  0.3386
  116bbb     H3 3021   4.548   7.917   7.409 -0.9764 -0.1198  1.2831
  116bbb     H4 3022   4.649   7.784   7.329 -0.0969 -2.0720  1.0859
  116bbb     H5 3023   4.693   8.231   7.192  0.9333 -2.1292 -0.2624
  116bbb     H6 3024   4.521   8.208   7.177 -0.1191  1.9084  0.1974
  116bbb     H7 3025   4.408   7.675   7.301  1.9058 -0.8477  0.4778
  116bbb     H8 3026   4.355   7.797   7.422 -0.0754 -1.1344  2.1866
  116bbb     H9 3027   4.532   7.877   7.002 -0.0457  0.2574  0.1409
  116bbb    H10 3028   4.453   7.748   7.102 -0.6606  1.1569  1.8522
  116bbb    H11 3029   4.683   7.673   7.175  0.9515 -1.4766 -1.9646
  116bbb    H12 3030   4.753   7.812   7.088 -0.8335  1.9333  0.3096
  116bbb    H13 3031   4.667   7.675   6.881 -1.0581 -2.2729 -1.2713
  116bbb    H25 3032   4.435   7.956   7.205  0.1635  0.9699  1.8682
  117bbb     N1 3033   4.153   6.770   7.319 -0.3977 -0.0833  0.2079
  117bbb     C1 3034   4.220   6.637   7.296 -0.6999  0.1506  0.3743
  117bbb     C2 3035   3.997   6.784   7.327 -0.5082  0.5383  0.1370
  117bbb     C3 3036   4.174   6.528   7.393  0.2926 -0.2568 -0.2541
  117bbb     C4 3037   4.257   6.399   7.366 -0.7869 -0.7297  0.4421
  117bbb     C5 3038   3.934   6.915   7.393 -0.0782 -0.0766  0.3881
  117bbb     C6 3039   3.881   7.014   7.296 -0.5902  0.4032  0.5713
  117bbb     C7 3040   4.204   6.862   7.217 -0.9061 -0.0113 -0.0986
  117bbb     C8 3041   4.186   6.840   7.065  0.4575  0.1069  0.5155
  117bbb     N2 3042   4.268   6.931   6.979  0.9171 -0.7651  0.2101
  117bbb     O1 3043   4.308   6.381   7.257  0.3952  0.6160  0.1356
  117bbb     O2 3044   3.927   7.014   7.185 -0.2339 -0.3894  0.2121
  117bbb     H1 3045   4.232   6.612   7.191  0.6499 -1.5238  0.8827
  117bbb     H2 3046   4.323   6.649   7.328  0.2614  1.2783 -2.7718
  117bbb     H3 3047   3.955   6.701   7.383  1.3172 -0.9845 -0.6412
  117bbb     H4 3048   3.961   6.757   7.227  1.6276  2.0205 -1.1165
  117bbb     H5 3049   4.179   6.565   7.496  1.8658  1.5120 -0.9023
  117bbb     H6 3050   4.075   6.488   7.366  0.4580 -1.6595  1.0984
  117bbb     H7 3051   3.997   6.954   7.474 -0.4407  1.4510 -0.0238
  117bbb     H8 3052   3.847   6.871   7.443 -1.8990  0.9769 -1.6953
  117bbb     H9 3053   4.310   6.873   7.241 -0.8879 -1.7802  0.7866
  117bbb    H10 3054   4.155   6.955   7.244 -1.6166 -0.0922 -1.0363
  117bbb    H11 3055   4.080   6.852   7.040  0.5046  0.0940  0.3072
  117bbb    H12 3056   4.212   6.736   7.041 -0.1461 -0.2405  1.3046
  117bbb    H13 3057   4.227   7.020   6.953  0.0399 -1.5490 -1.2157
  117bbb    H25 3058   4.189   6.815   7.404 -1.0828 -1.5827  1.3282
  118bbb     N1 3059   2.307   4.669   7.599 -0.4284  0.0362 -0.0007
  118bbb     C1 3060   2.324   4.661   7.450  0.0216  0.4021 -0.2926
  118bbb     C2 3061   2.247   4.530   7.645 -0.5230 -0.8033  0.3918
  118bbb     C3 3062   2.449   4.574   7.411  0.3992  0.2609 -0.3242
  118bbb     C4 3063   2.505   4.619   7.274 -0.7835  0.3745 -0.1010
  118bbb     C5 3064   2.206   4.519   7.795 -0.3013 -0.2533  0.4859
  118bbb     C6 3065   2.183   4.374   7.844  0.9821  0.2224  0.5067
  118bbb     C7 3066   2.202   4.771   7.625 -0.2463  0.3738  0.3339
  118bbb     C8 3067   2.252   4.915   7.595 -0.5131  0.7999 -1.1871
  118bbb     N2 3068   2.363   4.958   7.680  0.1115  0.4618 -0.1301
  118bbb     O1 3069   2.606   4.686   7.269  0.1498 -0.1899  0.5813
  118bbb     O2 3070   2.243   4.278   7.799 -0.8545 -0.2515 -0.3101
  118bbb     H1 3071   2.229   4.627   7.408 -0.1944  1.6027 -0.7947
  118bbb     H2 3072   2.344   4.761   7.411  1.8384  0.7472  1.3722
  118bbb     H3 3073   2.324   4.457   7.621 -1.8979 -1.8435 -1.0482
  118bbb     H4 3074   2.157   4.502   7.589 -0.1572 -2.6448  0.6565
  118bbb     H5 3075   2.528   4.584   7.487 -0.5307 -1.1363  0.9164
  118bbb     H6 3076   2.436   4.465   7.399  1.8852  0.0021  0.1916
  118bbb     H7 3077   2.117   4.578   7.819  1.2624  1.6857  1.8834
  118bbb     H8 3078   2.287   4.561   7.856 -0.6059  1.5544 -0.2780
  118bbb     H9 3079   2.166   4.756   7.727 -1.1115 -0.4355 -0.0694
  118bbb    H10 3080   2.121   4.759   7.553 -0.1109 -1.2791  0.4134
  118bbb    H11 3081   2.168   4.982   7.617 -0.9047 -0.1213  0.2623
  118bbb    H12 3082   2.288   4.916   7.491  2.4619  0.2831 -0.2712
  118bbb    H13 3083   2.340   5.003   7.768 -1.9660  1.6024 -1.1747
  118bbb    H25 3084   2.396   4.685   7.649 -0.9647 -3.2061  2.3258
  119bbb     N1 3085   3.020   4.504   7.384 -0.2195  0.4412  0.1343
  119bbb     C1 3086   2.954   4.532   7.252 -0.3328 -0.2597 -0.1599
  119bbb     C2 3087   3.145   4.415   7.377  0.4581  0.2993 -0.2911
  119bbb     C3 3088   3.033   4.640   7.173  0.4634  0.2087  0.6016
  119bbb     C4 3089   2.950   4.667   7.038  0.3644  0.3015  0.4209
  119bbb     C5 3090   3.131   4.274   7.307 -0.1993 -0.2502 -0.2108
  119bbb     C6 3091   3.263   4.227   7.248 -0.1931  0.5033 -0.3513
  119bbb     C7 3092   2.905   4.446   7.473 -0.5912 -0.2033 -0.0942
  119bbb     C8 3093   2.946   4.434   7.623  0.6453  0.0368 -0.7297
  119bbb     N2 3094   2.998   4.559   7.681 -0.1425 -0.4506 -1.0072
  119bbb     O1 3095   2.853   4.746   7.029 -0.4147  0.7878 -0.2742
  119bbb     O2 3096   3.333   4.297   7.178 -0.3260  0.1956 -0.3260
  119bbb     H1 3097   2.953   4.440   7.193  1.3580  0.3088 -1.1636
  119bbb     H2 3098   2.850   4.563   7.264 -0.9722 -1.1562 -2.6259
  119bbb     H3 3099   3.193   4.398   7.473  0.7990  1.3438 -0.2694
  119bbb     H4 3100   3.222   4.468   7.321  1.9626  0.5362  1.8926
  119bbb     H5 3101   3.052   4.738   7.219 -1.0181  0.5014  0.6353
  119bbb     H6 3102   3.131   4.600   7.144  0.1431  1.0587 -1.9541
  119bbb     H7 3103   3.071   4.275   7.215 -1.3396 -2.7485  0.4265
  119bbb     H8 3104   3.092   4.203   7.381  0.3366 -0.6966 -0.3508
  119bbb     H9 3105   2.864   4.355   7.430 -1.2388  0.8530 -1.8246
  119bbb    H10 3106   2.823   4.518   7.467 -0.8557 -0.6046 -2.4395
  119bbb    H11 3107   3.020   4.353   7.629 -1.3454 -1.8543 -0.1423
  119bbb    H12 3108   2.858   4.402   7.681  0.9746  1.5503  0.6676
  119bbb    H13 3109   3.070   4.546   7.751 -1.1363  0.4226  0.2345
  119bbb    H25 3110   3.039   4.598   7.422  0.1019  0.8090 -0.9017
  120bbb     N1 3111   1.932   6.121   8.419  0.6696 -0.1282 -0.4457
  120bbb     C1 3112   1.847   6.221   8.484  0.1102 -0.0970  0.6604
  120bbb     C2 3113   1.898   5.983   8.472 -0.0306  0.6001 -0.4058
  120bbb     C3 3114   1.689   6.206   8.458 -0.2096  0.1485 -0.7195
  120bbb     C4 3115   1.623   6.303   8.560 -0.1459 -0.1077 -0.0012
  120bbb     C5 3116   1.829   5.891   8.367 -0.2366  0.1321 -0.2659
  120bbb     C6 3117   1.916   5.850   8.249 -0.4657 -0.6713 -0.3668
  120bbb     C7 3118   2.071   6.157   8.455  0.0640  0.2818  0.0448
  120bbb     C8 3119   2.123   6.276   8.374 -0.1982 -0.1157  0.5341
  120bbb     N2 3120   2.143   6.248   8.231 -0.7697 -0.5827 -0.6738
  120bbb     O1 3121   1.676   6.346   8.664 -0.2889  0.2135  0.4332
  120bbb     O2 3122   2.030   5.905   8.232  0.5197  0.2392  0.5653
  120bbb     H1 3123   1.875   6.214   8.589 -1.1292  1.1881  1.1088
  120bbb     H2 3124   1.876   6.317   8.441  0.8981 -2.1640 -4.0090
  120bbb     H3 3125   1.853   5.982   8.571  1.1543  0.5041  0.1503
  120bbb     H4 3126   1.999   5.944   8.489 -0.5847 -1.0136 -0.6964
  120bbb     H5 3127   1.673   6.235   8.354  0.9330  1.9957 -0.4297
  120bbb     H6 3128   1.657   6.106   8.489 -0.7468  1.0883  2.0775
  120bbb     H7 3129   1.734   5.936   8.334 -0.1918  0.0866 -0.4605
  120bbb     H8 3130   1.788   5.802   8.417 -1.9957  0.3705 -1.1846
  120bbb     H9 3131   2.133   6.073   8.426  0.8305  0.9876 -0.4245
  120bbb    H10 3132   2.069   6.171   8.563  1.3048 -0.1714  0.1362
  120bbb    H11 3133   2.219   6.299   8.420  0.0881 -0.7940  0.2846
  120bbb    H12 3134   2.056   6.363   8.385 -0.8786 -0.7877  1.8732
  120bbb    H13 3135   2.065   6.228   8.169 -2.3014  0.7052  0.7326
  120bbb    H25 3136   1.922   6.125   8.317 -1.9933 -0.7766 -0.2838
  121bbb     N1 3137   2.399   6.947   8.193  0.0427  0.4963  0.2765
  121bbb     C1 3138   2.521   7.008   8.258  0.2387 -0.1960  0.0331
  121bbb     C2 3139   2.284   6.903   8.292 -0.9841  0.0992 -0.1284
  121bbb     C3 3140   2.595   6.922   8.371  0.9518  0.8593  0.0317
  121bbb     C4 3141   2.731   6.990   8.398  0.0392 -0.0665  0.3504
  121bbb     C5 3142   2.213   7.019   8.357  0.2104  0.0456  0.2323
  121bbb     C6 3143   2.113   6.973   8.461 -0.5506 -0.7270  0.1815
  121bbb     C7 3144   2.443   6.829   8.103 -0.5006  0.4269 -0.7561
  121bbb     C8 3145   2.338   6.784   8.008  0.1423  0.5678  1.1223
  121bbb     N2 3146   2.385   6.676   7.915  0.4211 -0.1834  0.6854
  121bbb     O1 3147   2.784   7.064   8.315 -0.4049 -0.7520  0.0378
  121bbb     O2 3148   2.061   6.859   8.461  0.5155 -0.3289 -0.0905
  121bbb     H1 3149   2.588   7.036   8.177 -0.2875  0.6431 -0.1196
  121bbb     H2 3150   2.490   7.105   8.298  0.2443 -0.1411 -0.0956
  121bbb     H3 3151   2.325   6.836   8.367 -3.0464 -1.4316 -0.2750
  121bbb     H4 3152   2.209   6.855   8.229  0.1136 -0.2682 -1.1797
  121bbb     H5 3153   2.529   6.936   8.458 -0.9727  1.0527 -1.3912
  121bbb     H6 3154   2.603   6.815   8.348 -1.2664  1.0204 -1.8436
  121bbb     H7 3155   2.149   7.073   8.285 -0.0993 -1.0951 -0.3693
  121bbb     H8 3156   2.283   7.089   8.405  0.2401 -1.0154  1.7957
  121bbb     H9 3157   2.463   6.749   8.175 -0.4442  1.7779  0.7902
  121bbb    H10 3158   2.524   6.870   8.043 -0.0408  1.8367  0.7502
  121bbb    H11 3159   2.308   6.870   7.947 -0.9583 -0.9368 -0.5587
  121bbb    H12 3160   2.240   6.756   8.050 -0.1706 -0.4945 -0.2457
  121bbb    H13 3161   2.425   6.695   7.824  0.6529 -0.9442  0.6167
  121bbb    H25 3162   2.356   7.019   8.132 -1.8954 -0.8784 -0.0794
  122bbb     N1 3163   1.503   4.866   6.972 -0.0643 -1.1410 -0.3870
  122bbb     C1 3164   1.464   4.731   7.038  0.3448 -0.0390 -0.1523
  122bbb     C2 3165   1.620   4.851   6.876  0.1595 -0.3866 -0.3054
  122bbb     C3 3166   1.320   4.728   7.095  0.1842 -0.1830  0.0921
  122bbb     C4 3167   1.211   4.745   6.986 -0.0806 -0.1717 -0.5057
  122bbb     C5 3168   1.591   4.808   6.730 -0.0937  0.5750 -0.4339
  122bbb     C6 3169   1.477   4.886   6.661 -0.5440  0.1677 -0.1774
  122bbb     C7 3170   1.554   4.956   7.086 -0.2772 -0.0189  0.0375
  122bbb     C8 3171   1.539   5.108   7.069  0.3182 -0.1710  0.6402
  122bbb     N2 3172   1.645   5.164   6.990  0.8858  0.6411 -0.3029
  122bbb     O1 3173   1.227   4.700   6.874 -0.1005 -0.0657 -0.1795
  122bbb     O2 3174   1.376   4.932   6.721 -0.0832 -0.2052  0.2264
  122bbb     H1 3175   1.471   4.661   6.955  0.3571  1.1369 -1.1608
  122bbb     H2 3176   1.540   4.706   7.112  0.2343 -2.4534 -0.7644
  122bbb     H3 3177   1.677   4.770   6.922  0.5395 -0.1264 -0.3089
  122bbb     H4 3178   1.676   4.945   6.873 -0.5101  0.0554  0.6334
  122bbb     H5 3179   1.300   4.626   7.131 -1.1888 -0.7104 -1.9558
  122bbb     H6 3180   1.314   4.806   7.171 -1.4830  0.0988 -0.2868
  122bbb     H7 3181   1.556   4.704   6.730  0.0110  0.5270  0.5041
  122bbb     H8 3182   1.679   4.798   6.666 -0.5247 -0.0123 -0.9423
  122bbb     H9 3183   1.656   4.923   7.106  0.2345  1.2533 -0.3601
  122bbb    H10 3184   1.487   4.929   7.168 -0.8875  1.0383 -0.0968
  122bbb    H11 3185   1.545   5.152   7.169  0.3196  0.9184  0.1780
  122bbb    H12 3186   1.442   5.119   7.019  0.5978 -2.6254 -0.5787
  122bbb    H13 3187   1.723   5.103   6.971  1.0153 -0.3528  2.8841
  122bbb    H25 3188   1.428   4.909   6.916 -0.0339 -3.1983 -2.1545
  123bbb     N1 3189   1.249   5.845   6.421 -0.1771 -0.1354  0.0817
  123bbb     C1 3190   1.118   5.894   6.365  0.0900 -0.2323 -0.1837
  123bbb     C2 3191   1.280   5.916   6.557  0.0158 -0.7353  0.0007
  123bbb     C3 3192   0.990   5.875   6.456 -0.1198  0.1780 -0.1427
  123bbb     C4 3193   0.865   5.922   6.383 -0.6538  0.0640  0.1007
  123bbb     C5 3194   1.278   6.073   6.561 -0.2386 -0.7214  0.0970
  123bbb     C6 3195   1.293   6.129   6.704  0.4866 -0.5173 -0.4072
  123bbb     C7 3196   1.374   5.867   6.323  0.4739  0.2817 -0.3069
  123bbb     C8 3197   1.481   5.754   6.320 -0.5432 -0.0779 -0.8136
  123bbb     N2 3198   1.544   5.732   6.449 -0.4356  0.0809  0.7116
  123bbb     O1 3199   0.877   5.998   6.288 -0.0003  0.4416 -0.4101
  123bbb     O2 3200   1.201   6.171   6.766 -0.1122  0.0032  0.4577
  123bbb     H1 3201   1.124   5.996   6.325 -0.4172 -0.4128 -0.7279
  123bbb     H2 3202   1.102   5.839   6.272 -2.5851 -1.1373  0.7381
  123bbb     H3 3203   1.378   5.880   6.589  1.1768  1.1082 -1.2910
  123bbb     H4 3204   1.211   5.864   6.624  1.6973 -2.1644  0.7172
  123bbb     H5 3205   0.989   5.767   6.471  1.0409  0.3495  1.5245
  123bbb     H6 3206   1.000   5.924   6.555 -1.3549  0.4076 -0.1170
  123bbb     H7 3207   1.179   6.100   6.521 -2.8078 -3.0205  4.1343
  123bbb     H8 3208   1.357   6.112   6.496  2.4658 -3.3574  1.5685
  123bbb     H9 3209   1.422   5.962   6.349 -0.3417  0.4573  0.5994
  123bbb    H10 3210   1.338   5.870   6.220 -1.2715  0.1073  0.2667
  123bbb    H11 3211   1.552   5.768   6.238  0.6263  1.1483  0.3576
  123bbb    H12 3212   1.426   5.660   6.303  1.7071 -1.9024  1.2120
  123bbb    H13 3213   1.561   5.816   6.504  1.7327  0.4190 -0.3421
  123bbb    H25 3214   1.241   5.743   6.430 -1.3952 -0.1833 -1.1935
  124bbb     N1 3215   1.496   7.084   6.324  0.3284 -0.1177 -0.3565
  124bbb     C1 3216   1.435   7.077   6.465  0.2562 -0.5929  0.0814
  124bbb     C2 3217   1.421   7.175   6.227 -0.1337  0.2473  0.1030
  124bbb     C3 3218   1.278   7.072   6.456  0.2743 -0.2169 -0.5607
  124bbb     C4 3219   1.223   7.030   6.593  0.0907  0.0575  0.3793
  124bbb     C5 3220   1.432   7.320   6.271  0.1688  0.0313 -0.8298
  124bbb     C6 3221   1.363   7.409   6.168  0.0004  0.1894  0.3060
  124bbb     C7 3222   1.490   6.944   6.276  0.0410  0.4331  0.5260
  124bbb     C8 3223   1.618   6.929   6.191 -0.6205 -0.1651  0.0999
  124bbb     N2 3224   1.746   6.952   6.264  0.3697  0.1067  0.1210
  124bbb     O1 3225   1.220   6.911   6.626 -0.4211  0.2170  0.2318
  124bbb     O2 3226   1.257   7.381   6.106 -0.0685  0.1422 -0.0056
  124bbb     H1 3227   1.471   6.979   6.498  0.6048 -1.3308 -2.2975
  124bbb     H2 3228   1.484   7.153   6.526  0.4291 -0.8432  0.2572
  124bbb     H3 3229   1.319   7.137   6.224  0.0854 -1.2365  4.4881
  124bbb     H4 3230   1.479   7.170   6.135 -0.4556  0.1841 -0.0950
  124bbb     H5 3231   1.234   7.167   6.424  0.4228  1.2279  3.0670
  124bbb     H6 3232   1.254   6.987   6.392 -0.4054 -0.1677 -0.3780
  124bbb     H7 3233   1.538   7.348   6.278  0.3666 -1.0614  1.9205
  124bbb     H8 3234   1.382   7.342   6.366 -1.7481 -0.9164 -1.5823
  124bbb     H9 3235   1.402   6.935   6.212  0.6058 -1.0260 -0.1011
  124bbb    H10 3236   1.482   6.867   6.352  0.9376  0.0234  0.2271
  124bbb    H11 3237   1.618   6.995   6.103  1.9727  0.2819  0.3529
  124bbb    H12 3238   1.611   6.828   6.149 -1.4298  1.0249 -2.9633
  124bbb    H13 3239   1.788   7.044   6.273  2.6684 -0.6516 -1.5906
  124bbb    H25 3240   1.592   7.120   6.333  0.2994 -0.1065 -0.0705
  125bbb     N1 3241   2.811   6.650   6.105 -0.6706 -0.1732 -0.1271
  125bbb     C1 3242   2.928   6.740   6.126  0.4301 -0.0647 -0.4566
  125bbb     C2 3243   2.829   6.500   6.118 -0.1591 -0.0473  0.3581
  125bbb     C3 3244   2.987   6.746   6.269 -0.1791  0.0048 -0.0934
  125bbb     C4 3245   2.883   6.751   6.384  0.3314  0.2986 -0.5410
  125bbb     C5 3246   2.929   6.447   6.009 -0.6453  0.0784  0.0412
  125bbb     C6 3247   2.920   6.297   5.984  0.8880 -0.0739  0.3211
  125bbb     C7 3248   2.747   6.684   5.974  0.2506  0.2096  0.3983
  125bbb     C8 3249   2.645   6.800   5.990  0.0673  0.4673  0.0278
  125bbb     N2 3250   2.546   6.781   6.096  0.6772  0.1511  0.2730
  125bbb     O1 3251   2.777   6.812   6.369 -0.6458 -0.3968  0.1380
  125bbb     O2 3252   2.839   6.224   6.044 -0.5775 -0.5340  0.0183
  125bbb     H1 3253   3.007   6.725   6.052  1.6487  2.0400  0.3369
  125bbb     H2 3254   2.894   6.842   6.112  0.5754 -0.1602 -1.6125
  125bbb     H3 3255   2.730   6.454   6.106 -0.1970  0.3527 -1.0445
  125bbb     H4 3256   2.871   6.479   6.216  2.3664  0.8522 -0.4548
  125bbb     H5 3257   3.049   6.656   6.285 -0.3432 -0.3496 -1.2861
  125bbb     H6 3258   3.065   6.823   6.275  0.4370 -0.4770 -1.4124
  125bbb     H7 3259   3.028   6.477   6.044 -0.3448 -1.2802  0.4268
  125bbb     H8 3260   2.897   6.485   5.912 -2.6669 -2.1187 -0.2609
  125bbb     H9 3261   2.692   6.594   5.947 -1.6313  1.5245 -0.3739
  125bbb    H10 3262   2.818   6.696   5.892  0.7642 -1.2563  0.5958
  125bbb    H11 3263   2.583   6.809   5.900 -0.3791  1.9349  0.4507
  125bbb    H12 3264   2.691   6.896   6.018 -2.2928  1.5472  0.4125
  125bbb    H13 3265   2.530   6.689   6.135 -4.1442  1.1954  1.4396
  125bbb    H25 3266   2.748   6.682   6.181 -0.2349 -0.5119  0.3770
  126ccc     N1 3267   2.481   2.680   7.167  0.4956 -0.0483 -0.9842
  126ccc     H4 3268   2.433   2.768   7.164  1.5772  0.7393  1.7316
  126ccc     C3 3269   2.436   2.557   7.095  0.1074  0.1791 -0.1662
  126ccc     C4 3270   2.279   2.535   7.107 -0.3190  0.0656  0.4697
  126ccc     H5 3271   2.492   2.467   7.125 -1.4167 -0.8000 -0.1643
  126ccc     H6 3272   2.463   2.563   6.989 -0.6315  1.8091 -0.2881
  126ccc     H7 3273   2.248   2.447   7.050 -0.7684  0.4133  0.1742
  126ccc     H8 3274   2.250   2.520   7.210 -0.2912 -2.1934  0.1956
  126ccc     N2 3275   2.192   2.656   7.061 -0.4677  0.4869 -0.2061
  126ccc     H9 3276   2.199   2.731   7.132  0.2419 -0.1510  0.4167
  126ccc    H10 3277   2.221   2.671   6.963 -1.0866 -1.4659 -0.7224
  126ccc    H11 3278   2.094   2.630   7.049 -0.5420 -0.5598  2.1616
  127ccc     N1 3279   3.296   2.709   7.428  0.5181  0.2442 -0.3473
  127ccc     H4 3280   3.219   2.702   7.493  0.0913  2.6576 -0.5262
  127ccc     C3 3281   3.428   2.661   7.475  0.5134  0.1470  0.0160
  127ccc     C4 3282   3.513   2.782   7.521  0.0866 -0.0628  0.5132
  127ccc     H5 3283   3.481   2.615   7.391 -0.7259  2.3404 -2.0878
  127ccc     H6 3284   3.400   2.594   7.558  0.5530  0.8983  0.6489
  127ccc     H7 3285   3.454   2.851   7.582 -1.6578 -0.5534 -0.5548
  127ccc     H8 3286   3.597   2.738   7.575  0.7313  0.1368 -0.3168
  127ccc     N2 3287   3.554   2.868   7.405  0.0437 -0.2535  0.2956
  127ccc     H9 3288   3.466   2.889   7.355  0.5193 -1.9930 -1.4265
  127ccc    H10 3289   3.589   2.960   7.433 -0.7088 -0.0181  0.4607
  127ccc    H11 3290   3.614   2.811   7.343 -1.9336 -2.1416  0.0075
  128ccc     N1 3291   2.974   1.622   6.430  0.7465  0.0299  0.2732
  128ccc     H4 3292   2.914   1.584   6.357  2.0042  0.0012 -0.7805
  128ccc     C3 3293   3.116   1.584   6.425 -0.5842 -0.2558 -0.1455
  128ccc     C4 3294   3.132   1.443   6.485  0.2940  0.4762 -0.3142
  128ccc     H5 3295   3.167   1.661   6.483 -1.5547  0.8963 -0.7823
  128ccc     H6 3296   3.149   1.597   6.321  0.1884  3.3216  0.4286
  128ccc     H7 3297   3.088   1.445   6.585  0.7443  0.6351 -0.1155
  128ccc     H8 3298   3.073   1.368   6.433  0.2169  0.3367 -0.0255
  128ccc     N2 3299   3.269   1.390   6.496 -0.1693 -0.0696  0.3687
  128ccc     H9 3300   3.318   1.445   6.568  0.6710 -0.1650 -0.1154
  128ccc    H10 3301   3.259   1.292   6.526 -1.1500 -0.5673 -1.4668
  128ccc    H11 3302   3.319   1.392   6.406  0.3522  0.1050  0.6596
  129ccc     N1 3303   2.478   1.528   6.936 -0.8959  0.0648  0.7415
  129ccc     H4 3304   2.490   1.469   6.854  1.4968  1.5172 -0.0529
  129ccc     C3 3305   2.401   1.471   7.049 -0.1266 -0.1885 -0.0132
  129ccc     C4 3306   2.472   1.389   7.153 -1.1973 -0.6209  0.1849
  129ccc     H5 3307   2.321   1.402   7.017 -1.4764  0.7017  1.3172
  129ccc     H6 3308   2.336   1.548   7.092  0.1720  1.0223 -1.6212
  129ccc     H7 3309   2.395   1.348   7.219 -1.8489 -1.2498 -0.9501
  129ccc     H8 3310   2.525   1.308   7.103 -0.9476 -0.4557  0.1786
  129ccc     N2 3311   2.567   1.459   7.253 -0.1943  0.3955 -0.2341
  129ccc     H9 3312   2.620   1.389   7.307 -2.3788 -0.5342  0.8326
  129ccc    H10 3313   2.633   1.522   7.207  0.2571 -0.9947 -1.5740
  129ccc    H11 3314   2.500   1.513   7.309 -3.9074 -0.2422 -3.5635
  130ccc     N1 3315   4.172   1.742   6.885  0.0693 -0.0446 -0.0599
  130ccc     H4 3316   4.164   1.681   6.965  1.1793 -1.5497 -1.0560
  130ccc     C3 3317   4.061   1.745   6.797 -0.2045 -0.1617  0.9813
  130ccc     C4 3318   4.053   1.620   6.706 -0.5102 -0.2540  0.3004
  130ccc     H5 3319   4.059   1.838   6.738  0.9865  0.5992  2.0938
  130ccc     H6 3320   3.972   1.740   6.861 -0.8512 -0.7408  0.0563
  130ccc     H7 3321   4.137   1.623   6.637 -0.6316 -1.7003  0.0399
  130ccc     H8 3322   4.058   1.529   6.767  2.0118 -0.4034 -0.0055
  130ccc     N2 3323   3.936   1.608   6.620 -0.2186  0.1100  0.3737
  130ccc     H9 3324   3.939   1.525   6.560 -3.3262 -1.4198  2.1038
  130ccc    H10 3325   3.848   1.610   6.673 -0.4573  0.8984 -0.0415
  130ccc    H11 3326   3.936   1.692   6.560  2.6500 -0.0004  0.0700
  131ccc     N1 3327   4.580   1.723   7.523  0.4677 -0.0653 -0.7891
  131ccc     H4 3328   4.522   1.710   7.605  2.6668 -1.4272  0.6627
  131ccc     C3 3329   4.715   1.661   7.529 -0.2885  0.2179 -1.0458
  131ccc     C4 3330   4.715   1.520   7.475 -0.3569 -0.2984 -0.2679
  131ccc     H5 3331   4.762   1.664   7.627  2.0742 -0.6844 -2.0803
  131ccc     H6 3332   4.788   1.715   7.468  1.0085  2.1737  2.0244
  131ccc     H7 3333   4.662   1.512   7.380 -1.1391 -0.6227  0.1846
  131ccc     H8 3334   4.816   1.482   7.463 -0.2312 -0.6894  1.6279
  131ccc     N2 3335   4.635   1.425   7.560 -0.6302  0.0008  0.1530
  131ccc     H9 3336   4.607   1.341   7.507 -0.7763  1.4166 -2.1886
  131ccc    H10 3337   4.680   1.403   7.649 -1.1529 -0.3529  0.3330
  131ccc    H11 3338   4.547   1.470   7.589 -0.2145  0.0587  1.3688
  132ccc     N1 3339   3.713   2.400   7.802  0.0570  0.9492  0.3030
  132ccc     H4 3340   3.777   2.340   7.853 -0.4684  1.3540  1.4709
  132ccc     C3 3341   3.571   2.419   7.845  0.1267 -0.3854 -0.0334
  132ccc     C4 3342   3.548   2.391   7.994 -0.4990  0.1428  0.6520
  132ccc     H5 3343   3.506   2.367   7.774 -0.5375 -0.7951  0.8692
  132ccc     H6 3344   3.539   2.524   7.832  2.9115  0.9471  2.4998
  132ccc     H7 3345   3.625   2.452   8.041 -0.2023  0.2163  0.0835
  132ccc     H8 3346   3.455   2.439   8.026 -1.1230  0.5120 -1.5518
  132ccc     N2 3347   3.547   2.250   8.048 -0.2799 -0.6957 -0.4661
  132ccc     H9 3348   3.505   2.185   7.980 -1.8625  0.7296 -0.9334
  132ccc    H10 3349   3.645   2.223   8.060  0.1532  0.1716 -1.9476
  132ccc    H11 3350   3.508   2.240   8.143 -0.6492  0.9900 -0.4051
  133ccc     N1 3351   4.338   2.730   7.937 -0.3098 -0.2657  0.6151
  133ccc     H4 3352   4.271   2.671   7.983  0.6783 -2.0621 -0.1591
  133ccc     C3 3353   4.424   2.823   8.011  0.6939 -0.0187  0.0582
  133ccc     C4 3354   4.493   2.769   8.135  0.2437 -0.0099 -0.2569
  133ccc     H5 3355   4.359   2.906   8.042  1.7460  0.2075  1.7652
  133ccc     H6 3356   4.488   2.888   7.949  0.4677  0.3828  0.2428
  133ccc     H7 3357   4.519   2.842   8.211  0.2327 -2.3524  2.1579
  133ccc     H8 3358   4.433   2.689   8.180  0.3775 -0.7081 -1.2731
  133ccc     N2 3359   4.618   2.690   8.103 -0.0646  0.0987 -0.1367
  133ccc     H9 3360   4.599   2.600   8.056 -1.4656  1.3327 -2.0944
  133ccc    H10 3361   4.685   2.737   8.041  2.4105 -2.4313  0.3899
  133ccc    H11 3362   4.671   2.660   8.186  1.0819  0.9078 -0.5518
  134ccc     N1 3363   1.180   2.315   6.266 -0.3257  0.0898  0.6332
  134ccc     H4 3364   1.200   2.382   6.340 -1.9065  3.3663 -1.6477
  134ccc     C3 3365   1.103   2.194   6.275 -0.8570 -0.1165  0.7621
  134ccc     C4 3366   1.188   2.075   6.320 -0.0410  0.2077  0.1365
  134ccc     H5 3367   1.046   2.171   6.184  1.5097  1.1846 -1.1633
  134ccc     H6 3368   1.024   2.212   6.350 -2.5458 -1.5719 -0.5817
  134ccc     H7 3369   1.255   2.036   6.243 -1.6797 -1.9122 -0.3309
  134ccc     H8 3370   1.242   2.113   6.407  0.1636  2.7186 -1.0122
  134ccc     N2 3371   1.108   1.948   6.358  0.5495 -0.0372  0.2724
  134ccc     H9 3372   1.059   1.909   6.276  1.0063  2.2971 -1.1700
  134ccc    H10 3373   1.164   1.874   6.402  0.8269 -0.5910 -0.9732
  134ccc    H11 3374   1.050   1.963   6.442  1.8945 -0.8790  1.3930
  135ccc     N1 3375   1.255   2.746   5.509 -0.0113  0.0364  0.6430
  135ccc     H4 3376   1.222   2.650   5.513  1.1027 -0.4665 -1.2343
  135ccc     C3 3377   1.226   2.827   5.388 -0.2418  0.1569 -0.1112
  135ccc     C4 3378   1.093   2.788   5.320  0.5108  0.1530  0.3645
  135ccc     H5 3379   1.318   2.829   5.328  1.9786  0.0721  3.0026
  135ccc     H6 3380   1.198   2.930   5.415 -2.4718 -0.4739  0.1748
  135ccc     H7 3381   1.104   2.684   5.288  1.8820 -0.3454  2.2703
  135ccc     H8 3382   1.008   2.799   5.387  0.9963  0.7009  0.9054
  135ccc     N2 3383   1.077   2.864   5.191  0.5875 -0.3905  0.1147
  135ccc     H9 3384   1.029   2.953   5.213  2.6702  1.0971 -0.9788
  135ccc    H10 3385   1.159   2.876   5.129 -0.2024 -0.6607 -1.0198
  135ccc    H11 3386   1.019   2.811   5.124  0.5424  0.0057 -0.1644
  136ccc     N1 3387   1.282   3.463   7.139 -0.0200 -0.3212 -0.8580
  136ccc     H4 3388   1.186   3.493   7.124 -1.0557 -1.8382  2.0020
  136ccc     C3 3389   1.323   3.457   7.283 -0.3487 -0.2556  0.1358
  136ccc     C4 3390   1.201   3.442   7.368 -0.2266  0.4953 -0.7065
  136ccc     H5 3391   1.382   3.547   7.302 -0.9640  0.0489  0.6376
  136ccc     H6 3392   1.390   3.370   7.292  1.2448  0.7533 -1.4471
  136ccc     H7 3393   1.136   3.527   7.345 -2.0537 -0.7295 -0.2707
  136ccc     H8 3394   1.153   3.348   7.342 -0.6086  0.6722 -0.6458
  136ccc     N2 3395   1.220   3.432   7.521  0.2516  0.0899  0.2681
  136ccc     H9 3396   1.131   3.424   7.572 -0.1229 -0.2670 -0.4227
  136ccc    H10 3397   1.278   3.349   7.540  0.0819  0.2670  1.7117
  136ccc    H11 3398   1.273   3.514   7.554 -2.0481  2.1273 -0.7600
  137ccc     N1 3399   1.935   3.424   7.001 -0.7008  0.4084  0.9175
  137ccc     H4 3400   1.973   3.517   6.990  1.4945 -0.6564 -1.2638
  137ccc     C3 3401   1.974   3.350   7.125 -0.0865  0.0609 -0.5849
  137ccc     C4 3402   2.086   3.421   7.201  0.3014 -0.3087  0.3207
  137ccc     H5 3403   2.009   3.250   7.095 -0.3131 -0.2008 -0.0154
  137ccc     H6 3404   1.893   3.327   7.196  0.0149 -0.1688 -0.5417
  137ccc     H7 3405   2.118   3.355   7.282 -0.7799 -0.8164  0.3569
  137ccc     H8 3406   2.168   3.426   7.130 -1.1986  0.3974 -1.4625
  137ccc     N2 3407   2.050   3.548   7.264  0.1686  0.6568 -0.2523
  137ccc     H9 3408   2.127   3.600   7.308 -1.8037  0.9637  3.1723
  137ccc    H10 3409   2.010   3.609   7.191 -0.7747  1.2296  0.7052
  137ccc    H11 3410   1.971   3.538   7.330  1.4171  1.1211  1.3726
  138ccc     N1 3411   1.531   3.237   5.330 -0.0008  0.4447  0.6826
  138ccc     H4 3412   1.533   3.297   5.412 -1.2679 -0.4828  1.4541
  138ccc     C3 3413   1.473   3.098   5.344  0.1722 -0.4216 -0.0512
  138ccc     C4 3414   1.587   3.000   5.381 -0.6445 -0.1100 -0.5189
  138ccc     H5 3415   1.422   3.071   5.250  1.2978  1.4177 -1.2552
  138ccc     H6 3416   1.389   3.105   5.414 -1.8070 -0.1361 -2.3389
  138ccc     H7 3417   1.631   3.030   5.476 -1.3514 -1.1372  0.1655
  138ccc     H8 3418   1.538   2.902   5.385 -2.2503  0.6469 -0.7389
  138ccc     N2 3419   1.703   2.986   5.286  0.4960 -0.4510 -0.0517
  138ccc     H9 3420   1.767   2.915   5.325  0.3427 -0.2321  0.6044
  138ccc    H10 3421   1.682   2.956   5.190  1.3991 -0.3124 -0.3045
  138ccc    H11 3422   1.754   3.076   5.279  1.2246 -0.7261  1.3938
  139ccc     N1 3423   1.644   4.004   4.902 -0.8573 -0.6191 -0.6853
  139ccc     H4 3424   1.657   4.016   5.002 -0.1065 -0.5310 -0.7877
  139ccc     C3 3425   1.662   4.125   4.815 -0.4427 -0.1973  0.3876
  139ccc     C4 3426   1.692   4.254   4.899  0.1376 -0.3144 -0.3896
  139ccc     H5 3427   1.573   4.151   4.756 -0.6010  2.1741  1.5772
  139ccc     H6 3428   1.740   4.101   4.741 -0.3971 -2.1342  1.0056
  139ccc     H7 3429   1.619   4.264   4.979  1.2510  1.3691  0.4712
  139ccc     H8 3430   1.787   4.249   4.954 -0.2953  0.4827  0.4482
  139ccc     N2 3431   1.695   4.379   4.820  0.5013  0.2397 -0.0656
  139ccc     H9 3432   1.779   4.366   4.762 -1.7519 -1.0004 -3.2926
  139ccc    H10 3433   1.610   4.402   4.767 -0.8078  0.3933  1.9854
  139ccc    H11 3434   1.709   4.459   4.884  0.3806  0.6687 -0.5751
  140ccc     N1 3435   2.511   5.238   5.424 -0.3213  0.2169  0.1944
  140ccc     H4 3436   2.445   5.281   5.360 -1.6839 -2.6322 -0.4660
  140ccc     C3 3437   2.630   5.303   5.476 -0.2825  0.5681  0.4065
  140ccc     C4 3438   2.628   5.453   5.454 -0.6667  0.2569 -0.6988
  140ccc     H5 3439   2.711   5.269   5.409 -1.4875 -0.1579 -0.7327
  140ccc     H6 3440   2.660   5.270   5.577  0.8447  0.6019  0.1051
  140ccc     H7 3441   2.538   5.499   5.496  1.4033  1.1975  3.2407
  140ccc     H8 3442   2.708   5.497   5.513 -1.2539  0.0557  0.2714
  140ccc     N2 3443   2.639   5.503   5.312 -0.3400 -0.2168  0.2455
  140ccc     H9 3444   2.650   5.605   5.316  2.8378 -0.3986 -1.0659
  140ccc    H10 3445   2.713   5.468   5.249 -0.8371  0.4728 -0.7627
  140ccc    H11 3446   2.551   5.481   5.262  1.5153 -1.4777 -2.7061
  141ccc     N1 3447   1.681   5.201   5.409 -0.1836 -0.0470  0.9582
  141ccc     H4 3448   1.684   5.148   5.323  0.7211 -1.5210  1.8549
  141ccc     C3 3449   1.553   5.271   5.447  0.1021 -0.1931  0.0837
  141ccc     C4 3450   1.562   5.424   5.468  0.5475  0.0616 -0.0586
  141ccc     H5 3451   1.512   5.225   5.538 -0.8023  0.0782 -0.1741
  141ccc     H6 3452   1.485   5.255   5.363 -0.4598  1.5449  0.1550
  141ccc     H7 3453   1.630   5.447   5.550  1.7226  1.4433 -1.3582
  141ccc     H8 3454   1.598   5.471   5.376 -0.0297 -3.0828 -2.0693
  141ccc     N2 3455   1.436   5.500   5.501  0.2276  0.3672  0.1397
  141ccc     H9 3456   1.395   5.492   5.596  2.0123 -0.6248  0.8772
  141ccc    H10 3457   1.456   5.601   5.493 -2.6402  0.9767 -0.4795
  141ccc    H11 3458   1.361   5.486   5.432 -1.2333  2.1529  1.2485
  142ccc     N1 3459   3.756   2.615   3.876  0.1821  0.1194  0.6865
  142ccc     H4 3460   3.750   2.595   3.975 -0.8538  1.6241  0.9537
  142ccc     C3 3461   3.694   2.518   3.784  1.3464 -0.5006 -0.6094
  142ccc     C4 3462   3.712   2.375   3.818 -0.0469  0.7247 -0.2408
  142ccc     H5 3463   3.741   2.529   3.685 -1.3453 -1.1751 -2.0673
  142ccc     H6 3464   3.585   2.531   3.781  0.9517 -3.3355 -0.5039
  142ccc     H7 3465   3.656   2.346   3.907 -1.2827 -1.6555 -1.6746
  142ccc     H8 3466   3.671   2.324   3.731 -0.6527  1.3616 -0.3360
  142ccc     N2 3467   3.859   2.337   3.832 -0.2770  0.3655 -0.3655
  142ccc     H9 3468   3.918   2.393   3.896 -0.4039  0.4160 -0.2924
  142ccc    H10 3469   3.877   2.245   3.874 -0.9419  1.0226  1.4464
  142ccc    H11 3470   3.903   2.332   3.739 -0.6587  2.0349 -0.6844
  143ccc     N1 3471   4.422   2.754   4.159  0.2764 -0.8665  0.1909
  143ccc     H4 3472   4.479   2.762   4.076 -0.2156  1.1487  0.0167
  143ccc     C3 3473   4.482   2.692   4.275  0.1664  0.2479 -0.1352
  143ccc     C4 3474   4.441   2.543   4.303 -0.2555  0.1011  0.3725
  143ccc     H5 3475   4.458   2.746   4.367 -3.0610  1.9230 -1.8160
  143ccc     H6 3476   4.592   2.699   4.271  0.1048  1.4966 -0.0145
  143ccc     H7 3477   4.506   2.488   4.370 -0.7297 -3.6730 -1.9749
  143ccc     H8 3478   4.340   2.541   4.343 -0.4503  1.0256 -0.0251
  143ccc     N2 3479   4.432   2.454   4.176 -0.0034 -0.1322 -0.4902
  143ccc     H9 3480   4.407   2.357   4.198  0.7599  0.1547  1.9888
  143ccc    H10 3481   4.354   2.487   4.118 -2.2315 -0.6444  2.0139
  143ccc    H11 3482   4.518   2.467   4.120  2.1645  0.3380  2.7052
  144ccc     N1 3483   4.375   3.615   4.181  0.6808 -0.2432 -0.2562
  144ccc     H4 3484   4.406   3.519   4.190  2.7757  0.4746  0.7811
  144ccc     C3 3485   4.457   3.704   4.104 -0.4340  0.3298  0.8020
  144ccc     C4 3486   4.432   3.674   3.959 -0.5626 -0.6527 -0.4010
  144ccc     H5 3487   4.563   3.682   4.123 -0.6101  0.4089  1.8922
  144ccc     H6 3488   4.441   3.809   4.130  1.3479  0.0463  3.5069
  144ccc     H7 3489   4.516   3.728   3.915 -1.2920 -0.5434 -1.6755
  144ccc     H8 3490   4.428   3.567   3.936 -0.8644 -1.0921  1.4498
  144ccc     N2 3491   4.301   3.736   3.910 -0.7043  0.2791 -0.6644
  144ccc     H9 3492   4.314   3.744   3.808 -0.5621 -2.4020 -0.9240
  144ccc    H10 3493   4.228   3.665   3.924 -1.0059 -0.1588 -3.7248
  144ccc    H11 3494   4.280   3.828   3.950 -0.6873 -0.3331  0.8194
  145ccc     N1 3495   4.364   3.298   4.869  0.3625 -0.8352  0.0828
  145ccc     H4 3496   4.281   3.244   4.849 -1.4058  2.0803 -1.1359
  145ccc     C3 3497   4.477   3.235   4.946 -1.0052 -0.5548 -0.3227
  145ccc     C4 3498   4.424   3.154   5.066 -0.2299  0.4127 -0.2751
  145ccc     H5 3499   4.553   3.308   4.977 -1.1159 -0.6878  0.2709
  145ccc     H6 3500   4.529   3.170   4.875  0.2047 -1.5679  1.4088
  145ccc     H7 3501   4.354   3.218   5.120  0.1020  2.3489 -1.9992
  145ccc     H8 3502   4.376   3.066   5.023 -1.2344  1.4466 -1.3732
  145ccc     N2 3503   4.537   3.113   5.155 -0.7465  0.0897  0.0078
  145ccc     H9 3504   4.504   3.051   5.230  0.1819 -0.9047 -0.3782
  145ccc    H10 3505   4.605   3.049   5.112  2.5439  3.1397  0.1701
  145ccc    H11 3506   4.588   3.188   5.205  1.4043 -0.4762 -1.1932
  146ccc     N1 3507   2.425   2.560   3.947 -0.6211 -0.5264 -0.4150
  146ccc     H4 3508   2.420   2.600   3.854  2.4339 -0.4062 -0.6376
  146ccc     C3 3509   2.317   2.493   4.015  0.2987  0.2812  0.5414
  146ccc     C4 3510   2.191   2.534   3.948  0.1992 -0.2574 -0.0788
  146ccc     H5 3511   2.323   2.523   4.120  0.3776  2.1501  0.0268
  146ccc     H6 3512   2.337   2.385   4.006  3.0648  0.8251 -1.1535
  146ccc     H7 3513   2.186   2.643   3.947  1.6165 -0.1547  0.8412
  146ccc     H8 3514   2.205   2.503   3.844  2.7217  2.3429 -0.6635
  146ccc     N2 3515   2.062   2.473   3.999  0.1164 -0.0418  0.2008
  146ccc     H9 3516   2.033   2.484   4.097 -1.9759 -0.2798 -0.3339
  146ccc    H10 3517   1.980   2.512   3.950  0.2081 -2.1249 -1.7774
  146ccc    H11 3518   2.058   2.375   3.969 -2.6866 -0.5002  1.6890
  147ccc     N1 3519   3.157   2.682   3.561 -0.3200  0.0441  0.1701
  147ccc     H4 3520   3.212   2.603   3.594  0.7189 -0.2915 -2.1764
  147ccc     C3 3521   3.136   2.703   3.412  0.0865  0.6929  0.0013
  147ccc     C4 3522   3.201   2.593   3.327 -1.2256  0.1934 -0.2866
  147ccc     H5 3523   3.184   2.800   3.394  0.1344  0.7072  0.2011
  147ccc     H6 3524   3.027   2.698   3.404  0.2101 -2.8922 -1.2432
  147ccc     H7 3525   3.180   2.493   3.367  0.7296 -0.4955 -0.8524
  147ccc     H8 3526   3.155   2.602   3.229  0.2618  2.3652 -0.8375
  147ccc     N2 3527   3.350   2.607   3.314  0.1102 -0.2731  0.5710
  147ccc     H9 3528   3.382   2.527   3.257 -0.2608 -0.9275  1.2592
  147ccc    H10 3529   3.386   2.683   3.255  0.1280 -1.4033 -0.9514
  147ccc    H11 3530   3.406   2.591   3.399 -0.5863 -0.7123  0.9632
  148ccc     N1 3531   1.913   3.992   3.769 -0.4394  0.2118  0.9086
  148ccc     H4 3532   1.859   3.950   3.845 -1.1875 -0.7623 -0.1186
  148ccc     C3 3533   1.844   4.038   3.644 -0.0183 -0.3193 -0.0043
  148ccc     C4 3534   1.757   4.155   3.671 -0.3472 -0.3197 -0.1936
  148ccc     H5 3535   1.778   3.956   3.614 -1.3279  0.2490  1.1969
  148ccc     H6 3536   1.916   4.072   3.569 -0.5367  1.2391  0.1684
  148ccc     H7 3537   1.823   4.238   3.699  1.1013 -1.7544  0.8286
  148ccc     H8 3538   1.709   4.182   3.577 -1.7065 -0.3840  0.4593
  148ccc     N2 3539   1.647   4.155   3.778 -0.1630  0.2363  0.8212
  148ccc     H9 3540   1.581   4.235   3.774 -2.3853 -1.4677 -3.6361
  148ccc    H10 3541   1.582   4.078   3.755 -2.0437  1.8624  0.3975
  148ccc    H11 3542   1.697   4.137   3.866  3.4742  0.9992 -0.9244
  149ccc     N1 3543   2.291   4.360   4.367 -0.8413  0.4840  0.5250
  149ccc     H4 3544   2.222   4.295   4.404 -0.0060 -1.8834 -1.7507
  149ccc     C3 3545   2.287   4.501   4.414  0.0664 -0.0819  0.0240
  149ccc     C4 3546   2.166   4.520   4.507  0.3360 -0.3144 -0.3960
  149ccc     H5 3547   2.275   4.567   4.327 -0.1426  1.9621  1.5534
  149ccc     H6 3548   2.381   4.529   4.464 -0.2798 -0.0489  0.6519
  149ccc     H7 3549   2.140   4.625   4.526 -1.0388 -0.5027 -1.0748
  149ccc     H8 3550   2.078   4.478   4.458 -0.7307  0.3429  0.8579
  149ccc     N2 3551   2.172   4.453   4.646 -0.1652  0.1628  0.1699
  149ccc     H9 3552   2.246   4.485   4.710  1.5626 -0.1000 -1.6042
  149ccc    H10 3553   2.081   4.440   4.693  0.9908  0.5162  2.6712
  149ccc    H11 3554   2.195   4.352   4.641 -1.4786 -0.0807 -2.0006
  150ccc     N1 3555   5.878   1.873   5.439 -0.0506 -0.0640  0.3667
  150ccc     H4 3556   5.824   1.811   5.381  1.6272 -3.2187  1.9379
  150ccc     C3 3557   5.997   1.818   5.497 -0.2345  0.9262 -0.3458
  150ccc     C4 3558   5.985   1.837   5.644  0.4651  0.3476  0.8252
  150ccc     H5 3559   6.083   1.872   5.455 -1.0608  2.1054 -0.5593
  150ccc     H6 3560   6.018   1.715   5.465  1.5501  0.8739  0.8493
  150ccc     H7 3561   6.087   1.830   5.682  0.4424  2.3545  1.3458
  150ccc     H8 3562   5.952   1.938   5.668  0.0580  0.5526 -0.5225
  150ccc     N2 3563   5.913   1.723   5.712  0.2680  0.2052 -0.2779
  150ccc     H9 3564   5.928   1.725   5.814 -1.2708  1.4369 -0.0361
  150ccc    H10 3565   5.810   1.723   5.702 -0.1206  0.3890  2.8466
  150ccc    H11 3566   5.952   1.632   5.683 -0.3946 -0.0263 -0.4695
  151ccc     N1 3567   5.502   1.609   5.153 -0.1015 -0.0908  0.0683
  151ccc     H4 3568   5.462   1.593   5.061  1.4840  1.4168 -0.9720
  151ccc     C3 3569   5.554   1.492   5.223  0.4669  0.2741  0.1011
  151ccc     C4 3570   5.488   1.359   5.183 -0.5805  0.4848  0.2099
  151ccc     H5 3571   5.551   1.502   5.332  0.6558 -2.9582  0.4907
  151ccc     H6 3572   5.660   1.492   5.192  0.3543  2.1606 -0.4429
  151ccc     H7 3573   5.534   1.271   5.229 -0.1774  0.5460 -0.0689
  151ccc     H8 3574   5.382   1.358   5.209 -0.4673  2.0838  0.8510
  151ccc     N2 3575   5.487   1.325   5.041  0.0917 -0.0240  0.1804
  151ccc     H9 3576   5.582   1.332   5.004 -0.1514 -1.5784 -0.8377
  151ccc    H10 3577   5.456   1.229   5.019  1.0983 -0.2318 -0.3699
  151ccc    H11 3578   5.427   1.394   4.992 -0.1089  1.1811  2.0107
  152ccc     N1 3579   5.714   3.735   5.113  0.0525  0.2358  1.0164
  152ccc     H4 3580   5.627   3.684   5.101 -2.8175  4.8409 -0.4388
  152ccc     C3 3581   5.729   3.798   5.240  0.2942 -0.7420 -0.1134
  152ccc     C4 3582   5.663   3.937   5.248  0.1423  0.6258 -0.0873
  152ccc     H5 3583   5.833   3.822   5.269  0.2685  0.0668 -0.6753
  152ccc     H6 3584   5.679   3.730   5.310  1.1905 -0.5956  0.6955
  152ccc     H7 3585   5.672   3.977   5.349 -2.2996 -0.8018  0.7912
  152ccc     H8 3586   5.707   4.004   5.175 -0.6833  0.6679 -0.5602
  152ccc     N2 3587   5.513   3.937   5.230  0.2485  0.2264 -0.0149
  152ccc     H9 3588   5.467   3.865   5.288 -0.0538  0.0006 -0.5207
  152ccc    H10 3589   5.472   4.029   5.250 -0.5737  0.3258 -1.9118
  152ccc    H11 3590   5.486   3.917   5.132 -1.3646  0.1099  0.4256
  153ccc     N1 3591   6.343   3.310   5.044 -0.4738  0.0003  0.3050
  153ccc     H4 3592   6.281   3.296   5.123 -0.3396  0.3321  0.4714
  153ccc     C3 3593   6.443   3.202   5.019 -0.0002  0.4489  0.4853
  153ccc     C4 3594   6.574   3.230   5.085 -0.0285 -0.0258 -0.7469
  153ccc     H5 3595   6.459   3.194   4.911  1.7245 -1.5789  0.8337
  153ccc     H6 3596   6.410   3.102   5.052  0.5725 -0.4128 -1.4380
  153ccc     H7 3597   6.551   3.222   5.192  1.2824  2.1999 -0.2468
  153ccc     H8 3598   6.648   3.159   5.048 -1.6102 -1.9667 -0.3648
  153ccc     N2 3599   6.625   3.374   5.067 -0.1967  0.2758  0.3053
  153ccc     H9 3600   6.571   3.443   5.121 -0.3845 -0.3415  0.9375
  153ccc    H10 3601   6.723   3.380   5.099  0.5152 -1.8473 -1.2220
  153ccc    H11 3602   6.620   3.398   4.967  5.7346  1.5631 -0.0121
  154ccc     N1 3603   6.320   3.147   4.313  0.3484  0.7005 -0.6961
  154ccc     H4 3604   6.413   3.186   4.322 -0.0199  1.2706  1.0632
  154ccc     C3 3605   6.302   3.013   4.375  0.0922  0.4468  1.0026
  154ccc     C4 3606   6.244   2.915   4.270  0.3901 -0.6259  0.4097
  154ccc     H5 3607   6.231   3.020   4.459  0.5071  1.4367  1.2901
  154ccc     H6 3608   6.401   2.973   4.401  1.3179  1.7891 -1.2878
  154ccc     H7 3609   6.196   2.825   4.309 -0.1540 -0.6307 -0.2529
  154ccc     H8 3610   6.164   2.958   4.210  0.4100  0.0399  0.8605
  154ccc     N2 3611   6.346   2.870   4.167 -0.3436  0.6116  0.2442
  154ccc     H9 3612   6.324   2.793   4.101 -0.9698 -1.1095  2.3382
  154ccc    H10 3613   6.374   2.950   4.109  0.6969  1.3512  1.7106
  154ccc    H11 3614   6.435   2.835   4.205 -0.6680 -1.3055 -0.6317
  155ccc     N1 3615   6.132   3.950   4.070  0.9348  0.0954 -0.3630
  155ccc     H4 3616   6.127   3.971   4.169  0.7808  2.0923 -0.7462
  155ccc     C3 3617   6.181   4.046   3.968  0.1469 -0.5800 -0.3158
  155ccc     C4 3618   6.264   4.159   4.023  0.1995  0.0832 -0.1102
  155ccc     H5 3619   6.095   4.104   3.933  1.2829  1.3267 -0.0800
  155ccc     H6 3620   6.230   3.995   3.884 -0.0259 -0.0443 -0.7452
  155ccc     H7 3621   6.290   4.229   3.944 -3.6786  2.6461  0.5938
  155ccc     H8 3622   6.215   4.223   4.096  0.3356  1.0953 -0.8853
  155ccc     N2 3623   6.398   4.118   4.085  0.1108 -0.6398 -0.5214
  155ccc     H9 3624   6.380   4.074   4.177  1.1235  0.7500  0.3746
  155ccc    H10 3625   6.452   4.044   4.038  1.9640  0.0906  0.3357
  155ccc    H11 3626   6.462   4.196   4.103  1.9776 -2.0890 -0.5476
  156ccc     N1 3627   5.329   4.069   2.902 -0.3550  0.7395 -0.1423
  156ccc     H4 3628   5.376   4.147   2.947 -0.8290  1.8048 -1.4230
  156ccc     C3 3629   5.217   4.095   2.812  0.4097  0.1620  0.7336
  156ccc     C4 3630   5.268   4.114   2.667 -0.1466 -0.0565  0.7915
  156ccc     H5 3631   5.172   4.189   2.847 -2.7055 -0.0288 -2.2848
  156ccc     H6 3632   5.145   4.014   2.825 -0.2002  0.6809  0.6549
  156ccc     H7 3633   5.351   4.183   2.652 -0.3117 -0.0760 -0.2581
  156ccc     H8 3634   5.317   4.022   2.634  2.9389  1.9562 -0.6752
  156ccc     N2 3635   5.162   4.165   2.570  0.2072  0.2646 -0.7496
  156ccc     H9 3636   5.126   4.253   2.610 -0.2910  0.1000 -0.8309
  156ccc    H10 3637   5.198   4.189   2.477 -0.6496  0.3136 -1.0764
  156ccc    H11 3638   5.077   4.109   2.556 -0.7537  1.4384  0.1981
  157ccc     N1 3639   5.825   3.448   3.139  0.1195 -0.0069 -1.2718
  157ccc     H4 3640   5.741   3.391   3.142 -1.6871  2.4855 -1.6404
  157ccc     C3 3641   5.952   3.389   3.099 -0.2037  0.5629  0.0712
  157ccc     C4 3642   5.933   3.245   3.077  0.2190  0.3748  0.1172
  157ccc     H5 3643   6.018   3.391   3.187 -0.6401  1.6953  0.3889
  157ccc     H6 3644   6.002   3.441   3.016  0.1502  0.7401  0.3931
  157ccc     H7 3645   6.031   3.198   3.062  0.6163  0.9943  0.7122
  157ccc     H8 3646   5.886   3.200   3.165  0.5172 -2.6087 -1.1113
  157ccc     N2 3647   5.866   3.210   2.950  0.3239 -0.2785  0.0555
  157ccc     H9 3648   5.844   3.110   2.939 -0.4755 -0.2388  1.0907
  157ccc    H10 3649   5.779   3.263   2.932  1.8993  2.6342  0.3030
  157ccc    H11 3650   5.923   3.228   2.866 -2.7921 -1.8523 -2.5645
  158ccc     N1 3651   7.090   3.840   6.048 -0.5872 -0.3058  0.2730
  158ccc     H4 3652   7.157   3.868   6.119  2.6854 -3.1989 -1.3716
  158ccc     C3 3653   7.132   3.858   5.906 -0.0325  0.0999  0.2204
  158ccc     C4 3654   7.227   3.981   5.877  0.9121 -0.1613 -0.3346
  158ccc     H5 3655   7.048   3.853   5.836 -0.1941 -1.7165  0.4955
  158ccc     H6 3656   7.194   3.772   5.880  0.2002  0.7010 -1.3312
  158ccc     H7 3657   7.315   3.972   5.941  1.1869  0.2030 -0.6575
  158ccc     H8 3658   7.269   3.988   5.777  1.3000 -0.7774 -0.2219
  158ccc     N2 3659   7.164   4.108   5.906  0.4153  0.1884  0.0873
  158ccc     H9 3660   7.222   4.174   5.853 -0.0697  1.0860  0.6446
  158ccc    H10 3661   7.069   4.112   5.866  0.5337 -0.3457 -0.2486
  158ccc    H11 3662   7.151   4.130   6.006  0.4594 -1.5756  0.5147
  159ccc     N1 3663   6.414   4.120   6.489  0.0371  0.3497  0.7316
  159ccc     H4 3664   6.376   4.031   6.517 -1.2397  0.3148 -0.9376
  159ccc     C3 3665   6.336   4.244   6.510 -0.6690 -0.4490 -0.0145
  159ccc     C4 3666   6.183   4.212   6.485  0.5096 -0.5664 -0.4460
  159ccc     H5 3667   6.369   4.320   6.438 -0.3120 -0.5493  0.0428
  159ccc     H6 3668   6.355   4.279   6.613 -0.0818 -0.4093 -0.1319
  159ccc     H7 3669   6.147   4.141   6.560 -0.3467  0.7770  0.4604
  159ccc     H8 3670   6.126   4.302   6.508 -0.1185 -1.2892  0.9551
  159ccc     N2 3671   6.148   4.189   6.342 -0.5718  0.7228  0.9160
  159ccc     H9 3672   6.209   4.113   6.308 -0.4006  1.0484  0.4967
  159ccc    H10 3673   6.056   4.145   6.326  0.2181 -1.0471  0.9918
  159ccc    H11 3674   6.168   4.271   6.284 -2.0685 -0.4020 -1.3360
  160ccc     N1 3675   5.265   2.559   6.228 -0.4916  0.2485 -0.0304
  160ccc     H4 3676   5.272   2.660   6.220  2.2831  0.4549  2.9469
  160ccc     C3 3677   5.140   2.499   6.286  0.3365  0.1380  0.3450
  160ccc     C4 3678   5.040   2.448   6.183 -0.2100  0.1808  0.3817
  160ccc     H5 3679   5.090   2.571   6.351 -2.0972 -2.5985  1.7539
  160ccc     H6 3680   5.169   2.416   6.352 -1.6029  0.4492  1.6709
  160ccc     H7 3681   5.026   2.342   6.207 -0.3394  0.1705  0.2559
  160ccc     H8 3682   4.940   2.490   6.193 -0.3470  0.1094 -0.5831
  160ccc     N2 3683   5.070   2.463   6.034 -0.1181 -0.5800 -0.5033
  160ccc     H9 3684   5.076   2.563   6.011  0.6165  0.1999  2.6085
  160ccc    H10 3685   5.150   2.408   6.000 -0.8513 -1.0910 -1.4686
  160ccc    H11 3686   4.991   2.425   5.979  0.8797 -0.1644 -2.2947
  161ccc     N1 3687   5.766   2.714   5.664  0.6104 -0.1463 -0.4489
  161ccc     H4 3688   5.803   2.620   5.670  1.4268  0.1160 -1.1861
  161ccc     C3 3689   5.714   2.739   5.520 -0.2646  0.8567 -0.2332
  161ccc     C4 3690   5.759   2.878   5.481 -0.9316  0.8013  0.1148
  161ccc     H5 3691   5.605   2.730   5.523 -0.0746 -2.6273  0.9134
  161ccc     H6 3692   5.747   2.656   5.457 -0.9105 -0.0977  0.6407
  161ccc     H7 3693   5.709   2.958   5.536 -3.5787 -0.2707 -0.6278
  161ccc     H8 3694   5.864   2.882   5.510 -0.9731  3.1335  0.1667
  161ccc     N2 3695   5.764   2.904   5.328 -0.5311 -0.4855  0.6440
  161ccc     H9 3696   5.776   2.816   5.276 -0.0165 -0.8218  1.3225
  161ccc    H10 3697   5.678   2.950   5.296 -0.9657 -0.5939  1.6087
  161ccc    H11 3698   5.840   2.971   5.313 -2.0338  1.1418 -0.0770
  162ccc     N1 3699   6.593   1.995   7.320  0.5232  0.0662 -0.5118
  162ccc     H4 3700   6.572   1.950   7.408 -2.1223 -2.5559 -2.3034
  162ccc     C3 3701   6.637   1.916   7.203 -0.6963 -0.6992  0.0055
  162ccc     C4 3702   6.572   1.777   7.188  0.3833  0.2137 -0.0122
  162ccc     H5 3703   6.746   1.910   7.214 -0.7083 -0.1398  0.4805
  162ccc     H6 3704   6.621   1.970   7.109  3.4287  0.6352 -0.1547
  162ccc     H7 3705   6.582   1.737   7.289  2.5150 -0.7365 -0.5329
  162ccc     H8 3706   6.468   1.787   7.156  0.4892  0.1673 -0.3710
  162ccc     N2 3707   6.641   1.687   7.090  0.0381  0.1524 -0.0114
  162ccc     H9 3708   6.741   1.675   7.109 -0.2949 -0.5593  1.4613
  162ccc    H10 3709   6.598   1.593   7.094  0.7711 -0.1671  0.5824
  162ccc    H11 3710   6.647   1.728   6.996  1.0497  0.8262  0.3336
  163ccc     N1 3711   6.259   2.449   7.952  0.4823  0.8983  0.2768
  163ccc     H4 3712   6.166   2.469   7.918  0.9109  0.2474 -1.3899
  163ccc     C3 3713   6.282   2.469   8.093 -0.4114  0.0459  0.0296
  163ccc     C4 3714   6.152   2.527   8.158 -0.9631  0.2310  0.0685
  163ccc     H5 3715   6.364   2.541   8.109 -0.6729  0.0955  1.2489
  163ccc     H6 3716   6.305   2.374   8.142 -1.0878  0.1763  0.6034
  163ccc     H7 3717   6.136   2.633   8.135 -0.0920  0.6577  1.3078
  163ccc     H8 3718   6.061   2.475   8.129 -0.3909 -0.5615 -0.3552
  163ccc     N2 3719   6.164   2.528   8.315 -0.1557 -0.1243  0.0676
  163ccc     H9 3720   6.250   2.570   8.352 -0.5283 -0.8948  1.9408
  163ccc    H10 3721   6.084   2.570   8.365 -0.4245 -1.7356  1.0740
  163ccc    H11 3722   6.163   2.433   8.357 -0.1092  0.0845  0.5480
  164ccc     N1 3723   5.219   3.816   7.723  0.5744 -0.2514  0.0814
  164ccc     H4 3724   5.210   3.778   7.629 -0.8411 -1.0741  0.5213
  164ccc     C3 3725   5.109   3.903   7.766  0.4361  0.5019 -0.3747
  164ccc     C4 3726   5.005   3.812   7.836 -0.2121  0.5586 -0.0363
  164ccc     H5 3727   5.060   3.948   7.679  0.6105 -0.5465 -1.0308
  164ccc     H6 3728   5.137   3.987   7.832 -1.6146 -0.3608  1.7469
  164ccc     H7 3729   5.054   3.750   7.911 -0.8575 -1.0913 -0.9413
  164ccc     H8 3730   4.929   3.865   7.894 -0.2244 -1.2080  1.6811
  164ccc     N2 3731   4.943   3.701   7.752 -0.0154 -0.2652 -0.1473
  164ccc     H9 3732   4.873   3.740   7.687  1.0800  0.5063 -0.9080
  164ccc    H10 3733   5.009   3.645   7.695 -1.5073 -0.1755 -2.0619
  164ccc    H11 3734   4.888   3.637   7.810 -2.4415  1.5883 -0.2740
  165ccc     N1 3735   5.882   4.091   7.332 -0.2470  0.0537 -0.5344
  165ccc     H4 3736   5.818   4.048   7.266 -1.4294 -0.9360  1.1613
  165ccc     C3 3737   5.959   4.201   7.278  0.6360 -0.0443  0.2516
  165ccc     C4 3738   5.983   4.185   7.127 -0.0867  0.0899 -0.4348
  165ccc     H5 3739   6.062   4.205   7.317  1.4496 -1.6965 -1.5453
  165ccc     H6 3740   5.915   4.297   7.307  1.5008  0.0432  1.3179
  165ccc     H7 3741   6.007   4.080   7.108 -2.2554 -0.6639  0.6562
  165ccc     H8 3742   5.894   4.216   7.072  0.0019 -1.6696 -1.6564
  165ccc     N2 3743   6.100   4.261   7.079 -0.3135  0.3944 -0.1394
  165ccc     H9 3744   6.081   4.361   7.096  0.0052  0.1346  2.0520
  165ccc    H10 3745   6.180   4.227   7.134 -2.9216 -1.3189  2.9721
  165ccc    H11 3746   6.109   4.232   6.981 -0.8559 -3.3857  0.7473
  166ccc     N1 3747   5.830   4.167   9.043 -0.1871 -0.1331  0.0223
  166ccc     H4 3748   5.833   4.249   8.983  2.6971 -0.2578 -0.1313
  166ccc     C3 3749   5.723   4.135   9.137 -0.3696  0.2148 -0.0078
  166ccc     C4 3750   5.601   4.224   9.143  0.6356  0.2350  0.3683
  166ccc     H5 3751   5.774   4.127   9.234 -0.4175 -1.1686 -0.0768
  166ccc     H6 3752   5.689   4.034   9.112 -1.8559  0.6171  0.3165
  166ccc     H7 3753   5.561   4.245   9.043 -3.3921 -0.3480  1.7078
  166ccc     H8 3754   5.526   4.179   9.206  1.2024 -2.1108 -0.5398
  166ccc     N2 3755   5.632   4.357   9.201 -0.5586  0.6655 -0.7541
  166ccc     H9 3756   5.541   4.405   9.203 -1.5931 -1.2199 -0.2403
  166ccc    H10 3757   5.663   4.357   9.299 -2.8298  0.3483  0.0423
  166ccc    H11 3758   5.698   4.414   9.146  0.3504  0.9675  0.6115
  167ccc     N1 3759   6.307   4.533   9.176 -0.1069 -0.1646  0.8803
  167ccc     H4 3760   6.408   4.533   9.179 -0.0555  1.4952  0.1314
  167ccc     C3 3761   6.225   4.593   9.276  0.0190 -0.6627  0.0049
  167ccc     C4 3762   6.250   4.535   9.416 -0.7260 -0.3521 -0.0222
  167ccc     H5 3763   6.116   4.597   9.261 -0.0442 -1.8805  0.0571
  167ccc     H6 3764   6.251   4.699   9.281  1.2036 -0.9507  0.2587
  167ccc     H7 3765   6.179   4.452   9.424  0.0000 -0.9763  0.1334
  167ccc     H8 3766   6.353   4.502   9.428  0.2380  1.8078 -1.6957
  167ccc     N2 3767   6.230   4.638   9.529  0.5146 -0.6645 -0.4104
  167ccc     H9 3768   6.252   4.587   9.616  1.2176 -0.6798 -0.5951
  167ccc    H10 3769   6.308   4.706   9.532  0.1263 -0.2347  0.8456
  167ccc    H11 3770   6.141   4.689   9.540  0.2365 -1.2242 -0.0459
  168ccc     N1 3771   6.749   3.331   8.704  0.1629  0.2088  0.0435
  168ccc     H4 3772   6.809   3.286   8.772 -2.8725  0.2429  3.0031
  168ccc     C3 3773   6.682   3.446   8.760  0.1992 -1.0562  1.2545
  168ccc     C4 3774   6.750   3.496   8.885  0.5690 -0.4450  0.2741
  168ccc     H5 3775   6.576   3.422   8.775 -0.3255 -1.8730 -2.5433
  168ccc     H6 3776   6.679   3.523   8.681 -4.3696 -3.1302 -0.9693
  168ccc     H7 3777   6.758   3.416   8.958 -0.4496 -0.6730  0.1507
  168ccc     H8 3778   6.856   3.519   8.869 -0.0532  2.9395  0.3781
  168ccc     N2 3779   6.693   3.621   8.956 -0.0881 -0.3146  0.0160
  168ccc     H9 3780   6.590   3.612   8.959 -0.2187  0.7625 -0.6995
  168ccc    H10 3781   6.719   3.622   9.056  0.1829  2.2515 -0.0143
  168ccc    H11 3782   6.728   3.709   8.916  1.7386 -1.6839 -1.5798
  169ccc     N1 3783   6.555   2.697   8.149 -0.5546  0.0611 -0.3169
  169ccc     H4 3784   6.600   2.752   8.076  0.2337  2.1626  1.6095
  169ccc     C3 3785   6.618   2.566   8.201 -0.0766  0.1593  0.4344
  169ccc     C4 3786   6.733   2.527   8.110  0.2206  0.4832  0.5582
  169ccc     H5 3787   6.545   2.484   8.205 -2.1299  1.8876  0.3633
  169ccc     H6 3788   6.657   2.575   8.303 -1.1941 -0.1344  0.9021
  169ccc     H7 3789   6.755   2.420   8.112  2.3749  0.8189 -1.3163
  169ccc     H8 3790   6.699   2.545   8.008 -0.4353 -0.8806  0.5148
  169ccc     N2 3791   6.862   2.596   8.137  0.2095 -0.7136 -0.5014
  169ccc     H9 3792   6.905   2.588   8.230 -2.7935  1.7431  1.2677
  169ccc    H10 3793   6.925   2.567   8.060  2.3950  0.5755  0.6970
  169ccc    H11 3794   6.854   2.697   8.120 -0.9428 -0.5950  0.6263
  170ccc     N1 3795   7.068   5.425   8.003  0.7288  0.0228  0.9881
  170ccc     H4 3796   7.170   5.426   8.006  0.7649  0.3163  0.0635
  170ccc     C3 3797   6.994   5.383   8.118 -0.5182 -0.3711  0.1070
  170ccc     C4 3798   7.046   5.460   8.239  0.5280  0.4482 -0.0181
  170ccc     H5 3799   6.989   5.274   8.127 -0.6782 -0.4750 -1.1284
  170ccc     H6 3800   6.890   5.419   8.110  0.7406  3.5889 -0.6818
  170ccc     H7 3801   7.151   5.438   8.255 -0.3066 -2.3617  2.4790
  170ccc     H8 3802   7.038   5.568   8.226  0.6079  0.2327 -2.2433
  170ccc     N2 3803   6.976   5.423   8.368  0.4482 -0.1702  0.7288
  170ccc     H9 3804   7.010   5.488   8.440 -1.3707  2.2870 -0.4690
  170ccc    H10 3805   6.874   5.440   8.367  0.3532 -0.5509 -1.3116
  170ccc    H11 3806   6.994   5.325   8.396 -0.9201 -0.9495 -0.9331
  171ccc     N1 3807   7.503   5.270   7.359  0.6003  0.3467  0.1136
  171ccc     H4 3808   7.537   5.209   7.432 -0.4241  0.1444  0.4401
  171ccc     C3 3809   7.592   5.265   7.240 -0.4589  0.4476  0.1337
  171ccc     C4 3810   7.739   5.237   7.286 -0.2695  0.5008 -0.3393
  171ccc     H5 3811   7.593   5.363   7.192  0.3094 -0.4095 -1.7226
  171ccc     H6 3812   7.553   5.185   7.176  0.5967 -0.9473  1.1766
  171ccc     H7 3813   7.778   5.304   7.362  0.5367 -1.2514  0.8717
  171ccc     H8 3814   7.751   5.132   7.313 -0.6023  0.5011 -0.1884
  171ccc     N2 3815   7.840   5.251   7.166  0.5292  0.0898 -0.1802
  171ccc     H9 3816   7.806   5.212   7.077  2.6528  0.1875 -1.0936
  171ccc    H10 3817   7.842   5.352   7.146 -4.1788  0.4884  0.1542
  171ccc    H11 3818   7.935   5.219   7.190  0.2262  0.2458  1.3797
  172ccc     N1 3819   6.883   3.939   7.631 -0.5625  0.2328 -0.1825
  172ccc     H4 3820   6.785   3.944   7.655 -1.2919  1.0023 -2.9249
  172ccc     C3 3821   6.965   3.841   7.700  0.6566 -0.2687 -0.8389
  172ccc     C4 3822   6.906   3.702   7.718  0.8198  0.5237 -0.3586
  172ccc     H5 3823   6.989   3.885   7.798 -0.3362  0.2480 -0.8233
  172ccc     H6 3824   7.060   3.832   7.646 -0.9450 -1.3555 -3.6757
  172ccc     H7 3825   6.858   3.659   7.630  2.0891 -0.7634 -0.4567
  172ccc     H8 3826   6.978   3.624   7.741 -0.0151 -0.0136  0.5570
  172ccc     N2 3827   6.798   3.692   7.823  0.0882 -0.2860  0.1493
  172ccc     H9 3828   6.730   3.768   7.811  0.8087  0.4582  0.7289
  172ccc    H10 3829   6.745   3.608   7.796  0.5513 -0.1271 -1.3679
  172ccc    H11 3830   6.828   3.686   7.921  3.3312  0.8823 -0.6227
  173ccc     N1 3831   6.397   3.962   7.332  0.3138 -0.2186  0.5611
  173ccc     H4 3832   6.480   3.919   7.372  1.1335  0.5066 -0.3053
  173ccc     C3 3833   6.276   3.883   7.317 -0.0420  0.3951  0.0480
  173ccc     C4 3834   6.272   3.796   7.194 -0.2443 -0.8167 -0.3422
  173ccc     H5 3835   6.192   3.953   7.327  0.0764  0.5189  0.1774
  173ccc     H6 3836   6.269   3.815   7.403  3.1340 -1.1723 -0.7990
  173ccc     H7 3837   6.248   3.851   7.103 -1.5774 -1.0092 -0.1267
  173ccc     H8 3838   6.370   3.748   7.183  0.7533  1.3203 -1.3866
  173ccc     N2 3839   6.164   3.692   7.198  0.2714  0.1835  0.4046
  173ccc     H9 3840   6.181   3.631   7.279 -1.7011  0.9018  1.4340
  173ccc    H10 3841   6.068   3.727   7.210 -0.3428 -1.8355  2.0009
  173ccc    H11 3842   6.179   3.636   7.113 -0.0564 -0.2236  0.6110
  174ccc     N1 3843   4.855   7.220   8.754 -0.8195  0.4678  0.2322
  174ccc     H4 3844   4.761   7.210   8.718  0.2026 -0.2190 -2.5565
  174ccc     C3 3845   4.934   7.338   8.736  0.2952  0.2375  0.5908
  174ccc     C4 3846   4.856   7.460   8.684  0.4533 -0.1388 -0.0633
  174ccc     H5 3847   5.000   7.317   8.651  0.1911 -0.7793  0.7451
  174ccc     H6 3848   4.993   7.365   8.824  1.6294 -0.7403  0.0321
  174ccc     H7 3849   4.919   7.543   8.651  1.9854 -0.8471  0.9606
  174ccc     H8 3850   4.800   7.430   8.595  0.2324  1.6184 -0.5444
  174ccc     N2 3851   4.763   7.525   8.788  0.4064 -0.1964  0.0606
  174ccc     H9 3852   4.815   7.565   8.867  0.0470  0.8488 -0.2192
  174ccc    H10 3853   4.714   7.601   8.738 -0.3587 -0.2694  0.6700
  174ccc    H11 3854   4.690   7.461   8.823  1.3709 -2.5996 -2.0098
  175ccc     N1 3855   4.674   6.790   9.458  0.2020  0.4365  0.1253
  175ccc     H4 3856   4.712   6.698   9.439  0.3184  0.4925  0.0829
  175ccc     C3 3857   4.639   6.813   9.597  0.1038 -0.6221  0.0961
  175ccc     C4 3858   4.501   6.769   9.632 -0.2449 -0.0622 -0.3846
  175ccc     H5 3859   4.658   6.919   9.619 -1.2753  0.0225 -1.6298
  175ccc     H6 3860   4.705   6.746   9.653  1.5605 -0.3717 -1.2362
  175ccc     H7 3861   4.469   6.675   9.586 -2.9520  1.4057 -1.7936
  175ccc     H8 3862   4.489   6.766   9.740  0.1175  1.7462 -0.2506
  175ccc     N2 3863   4.398   6.860   9.576 -0.0710  0.3906 -0.0597
  175ccc     H9 3864   4.365   6.840   9.481 -2.0764 -0.1345  0.6907
  175ccc    H10 3865   4.310   6.860   9.630  0.3915 -0.5225  0.7533
  175ccc    H11 3866   4.431   6.957   9.577  0.9015  0.0863  1.1343
  176ccc     N1 3867   5.603   5.966   9.495  0.5177  0.8076 -0.1660
  176ccc     H4 3868   5.691   5.917   9.491  0.8367  1.1538  1.5636
  176ccc     C3 3869   5.527   5.960   9.624  0.1471  0.2552 -0.2082
  176ccc     C4 3870   5.488   6.096   9.680 -0.4752 -0.0630  0.1428
  176ccc     H5 3871   5.585   5.909   9.702  0.2964  1.7755  0.7189
  176ccc     H6 3872   5.437   5.902   9.598  1.1884 -0.5867 -2.0832
  176ccc     H7 3873   5.445   6.154   9.598  1.0032 -0.0338 -0.6441
  176ccc     H8 3874   5.413   6.087   9.759  1.8298 -2.6597  2.2176
  176ccc     N2 3875   5.613   6.175   9.726 -0.1508 -0.0712 -0.0905
  176ccc     H9 3876   5.658   6.128   9.806  0.0944  1.0992  0.4801
  176ccc    H10 3877   5.681   6.188   9.650  0.0964 -2.1498 -0.2888
  176ccc    H11 3878   5.586   6.266   9.765  1.5239  0.5538 -0.3248
  177ccc     N1 3879   6.011   5.956   8.784 -0.2451 -0.5198 -0.0209
  177ccc     H4 3880   6.053   6.047   8.769 -0.8294 -0.3237 -0.5078
  177ccc     C3 3881   6.087   5.831   8.754 -0.0851  0.1024 -0.8216
  177ccc     C4 3882   6.068   5.795   8.603  0.2499 -0.1239  0.7474
  177ccc     H5 3883   6.062   5.744   8.816  2.2124 -0.5852 -0.7535
  177ccc     H6 3884   6.192   5.855   8.772 -0.3132 -1.3885  3.6139
  177ccc     H7 3885   6.122   5.701   8.588  0.7053  0.5821 -2.9928
  177ccc     H8 3886   5.962   5.795   8.581  0.0349  0.4280  1.7178
  177ccc     N2 3887   6.120   5.898   8.504 -0.0201 -0.4947  0.3806
  177ccc     H9 3888   6.219   5.922   8.518  0.2713 -1.2033 -0.3928
  177ccc    H10 3889   6.115   5.875   8.404 -1.4800  0.8557  0.0940
  177ccc    H11 3890   6.060   5.980   8.521  0.1729 -0.5876  1.5994
  178ccc     N1 3891   5.591   6.645   7.879  0.3015  0.6878  0.0232
  178ccc     H4 3892   5.631   6.728   7.921 -0.2830  0.2964  1.4103
  178ccc     C3 3893   5.594   6.525   7.965 -0.2243 -0.3497 -0.1534
  178ccc     C4 3894   5.667   6.539   8.096 -0.5029  0.5046  0.0106
  178ccc     H5 3895   5.633   6.446   7.900 -0.6938  0.4923 -1.5074
  178ccc     H6 3896   5.491   6.492   7.979 -1.2171  1.1637 -3.0399
  178ccc     H7 3897   5.679   6.438   8.136 -1.2018  0.0432 -0.9152
  178ccc     H8 3898   5.767   6.583   8.091  0.6978 -1.9674  0.5634
  178ccc     N2 3899   5.590   6.614   8.204  0.4977 -0.3229 -0.0742
  178ccc     H9 3900   5.636   6.608   8.296  1.0730 -0.2317 -0.3538
  178ccc    H10 3901   5.594   6.715   8.185  1.8581  0.5840  3.9644
  178ccc    H11 3902   5.496   6.581   8.230  0.2144  1.2327  1.0619
  179ccc     N1 3903   6.109   6.897   7.389  0.3590 -0.5860  0.3427
  179ccc     H4 3904   6.133   6.799   7.373  2.4972 -0.3246  1.5950
  179ccc     C3 3905   6.220   7.001   7.368 -0.3826  0.1136  0.3389
  179ccc     C4 3906   6.207   7.088   7.239 -0.6489  0.2148 -0.0132
  179ccc     H5 3907   6.303   6.929   7.361 -2.2778 -2.6016  3.2369
  179ccc     H6 3908   6.236   7.062   7.457 -0.8346 -0.1202  0.5817
  179ccc     H7 3909   6.154   7.181   7.261 -1.2213 -0.2532  0.6565
  179ccc     H8 3910   6.307   7.110   7.201 -1.1673 -0.4360 -1.8158
  179ccc     N2 3911   6.140   7.019   7.114 -0.0619 -0.5173 -0.4307
  179ccc     H9 3912   6.170   7.064   7.027 -0.7706 -2.6237 -1.8359
  179ccc    H10 3913   6.168   6.922   7.097 -1.3039 -0.5895 -2.3278
  179ccc    H11 3914   6.037   7.027   7.113 -0.0130  0.0938 -1.2007
  180ccc     N1 3915   6.352   5.510   6.956  0.4953 -0.4871  0.2766
  180ccc     H4 3916   6.276   5.470   7.010 -0.9268  1.8366  0.1410
  180ccc     C3 3917   6.397   5.447   6.833  0.4397  0.0447 -0.1931
  180ccc     C4 3918   6.500   5.329   6.863  0.0578  0.1560  1.0031
  180ccc     H5 3919   6.448   5.525   6.775 -0.3878 -0.6337 -1.9143
  180ccc     H6 3920   6.306   5.413   6.781  2.1664 -1.6888 -2.2514
  180ccc     H7 3921   6.501   5.266   6.774 -1.5632 -0.4419  1.3886
  180ccc     H8 3922   6.601   5.365   6.885  0.6029 -1.1312  0.6936
  180ccc     N2 3923   6.468   5.249   6.981  0.1167  0.6533  0.2978
  180ccc     H9 3924   6.538   5.173   6.986  0.1849  0.7001  0.0585
  180ccc    H10 3925   6.479   5.292   7.074 -1.0859 -1.4082  1.4703
  180ccc    H11 3926   6.383   5.190   6.976  1.2450 -1.0496  0.3617
  181ccc     N1 3927   6.717   6.091   7.094  0.3065  0.3160 -0.6126
  181ccc     H4 3928   6.687   6.175   7.047 -0.1995  0.3245 -0.2816
  181ccc     C3 3929   6.842   6.016   7.058  0.1325 -0.4239 -0.3134
  181ccc     C4 3930   6.959   6.043   7.154 -0.2042  0.0468  0.1768
  181ccc     H5 3931   6.869   6.046   6.956  0.7128  2.9381  0.6922
  181ccc     H6 3932   6.831   5.907   7.056  1.5327 -0.6434  1.4840
  181ccc     H7 3933   6.934   6.023   7.258 -0.2338 -1.3317 -0.0739
  181ccc     H8 3934   7.036   5.968   7.132 -1.5067 -0.9010 -1.4350
  181ccc     N2 3935   7.028   6.180   7.146 -1.0129  0.0910 -0.1624
  181ccc     H9 3936   6.969   6.264   7.154 -1.6995 -0.4194  0.3178
  181ccc    H10 3937   7.114   6.189   7.204 -1.9184  1.9883  0.9698
  181ccc    H11 3938   7.068   6.193   7.052  0.6521  0.2451  0.5285
  182ccc     N1 3939   5.031   4.700   7.826  0.4237 -0.2378 -0.2902
  182ccc     H4 3940   5.101   4.663   7.889 -0.2301 -1.9525 -0.5326
  182ccc     C3 3941   5.060   4.820   7.751  0.2395 -1.0605 -0.2015
  182ccc     C4 3942   5.113   4.941   7.833 -0.1315  0.5605 -0.8985
  182ccc     H5 3943   4.972   4.865   7.702 -0.0716  0.5869  1.7541
  182ccc     H6 3944   5.136   4.791   7.677  1.1422 -0.7121  0.5745
  182ccc     H7 3945   5.032   4.955   7.905 -0.4615 -0.5108 -1.0412
  182ccc     H8 3946   5.203   4.909   7.886 -2.5814 -2.1337  2.0814
  182ccc     N2 3947   5.138   5.073   7.772  0.1738  0.0068  0.4971
  182ccc     H9 3948   5.155   5.146   7.842  0.3806 -0.3343  0.8054
  182ccc    H10 3949   5.228   5.080   7.720  0.7919  1.6110  1.6931
  182ccc    H11 3950   5.060   5.107   7.714  0.2561  0.7586  0.8194
  183ccc     N1 3951   4.438   4.003   8.195 -0.1184  0.3099  0.2502
  183ccc     H4 3952   4.520   3.945   8.182 -0.7172 -0.8720  1.4936
  183ccc     C3 3953   4.314   3.941   8.247  0.5053 -0.0611 -0.6424
  183ccc     C4 3954   4.321   3.793   8.293 -1.0685 -0.2779  0.3347
  183ccc     H5 3955   4.238   3.951   8.169 -0.2543  2.2926  0.3251
  183ccc     H6 3956   4.269   4.000   8.328  2.3246 -1.3763  1.4485
  183ccc     H7 3957   4.367   3.728   8.218  0.6491  1.8216 -0.5633
  183ccc     H8 3958   4.375   3.788   8.388 -0.9756  0.4704  0.3285
  183ccc     N2 3959   4.191   3.739   8.330 -0.2241  0.4878  0.4304
  183ccc     H9 3960   4.197   3.654   8.389  2.4774 -0.1521 -0.6066
  183ccc    H10 3961   4.138   3.800   8.394  0.4085  0.5852  0.8699
  183ccc    H11 3962   4.139   3.715   8.244 -1.1233 -0.6563  1.2554
  184ccc     N1 3963   4.347   3.523   9.450 -0.0732  0.3421 -0.6110
  184ccc     H4 3964   4.364   3.515   9.549 -0.8505  0.8254 -0.4253
  184ccc     C3 3965   4.215   3.476   9.404 -0.1118 -0.3443  0.1332
  184ccc     C4 3966   4.125   3.595   9.441  0.0977 -0.2869 -0.0068
  184ccc     H5 3967   4.191   3.381   9.453 -1.1040 -0.1827 -0.0026
  184ccc     H6 3968   4.221   3.449   9.298 -0.7454 -2.8603  0.6761
  184ccc     H7 3969   4.162   3.637   9.535 -2.1399 -2.4290  1.9787
  184ccc     H8 3970   4.129   3.663   9.356  3.9218  2.4050  2.0153
  184ccc     N2 3971   3.981   3.560   9.470  0.2680  0.2609  0.1131
  184ccc     H9 3972   3.938   3.646   9.509 -1.4439 -0.3887 -0.2690
  184ccc    H10 3973   3.926   3.528   9.389  0.9609 -0.1141 -0.2147
  184ccc    H11 3974   3.975   3.487   9.542  0.6315 -1.7702 -1.8121
  185ccc     N1 3975   4.878   3.391   9.067  0.5904  0.2273 -0.0339
  185ccc     H4 3976   4.978   3.403   9.057  0.6876 -0.2014  0.3721
  185ccc     C3 3977   4.814   3.272   9.007  0.3884  0.6237 -0.4456
  185ccc     C4 3978   4.905   3.153   8.976  0.3732  0.1021 -0.2781
  185ccc     H5 3979   4.745   3.296   8.926 -1.4067  3.1905  1.6540
  185ccc     H6 3980   4.743   3.241   9.085 -0.1357  1.7042 -0.4693
  185ccc     H7 3981   4.965   3.132   9.064  0.6124 -0.6950 -0.6193
  185ccc     H8 3982   4.832   3.075   8.956 -1.0133  1.4183 -0.5043
  185ccc     N2 3983   4.996   3.169   8.853  0.0211  0.2109  0.3945
  185ccc     H9 3984   5.061   3.089   8.850 -2.5121 -1.9685 -0.3124
  185ccc    H10 3985   4.932   3.173   8.772  1.5805  0.8638 -0.8620
  185ccc    H11 3986   5.057   3.252   8.852 -0.4830  0.5845  0.3096
  186ccc     N1 3987   2.997   5.207   9.065  0.0269  0.0419 -0.8315
  186ccc     H4 3988   2.927   5.265   9.110  2.1156  2.2345 -0.1983
  186ccc     C3 3989   3.018   5.200   8.921 -0.3332  0.2439 -0.9853
  186ccc     C4 3990   2.929   5.305   8.853  0.1268  0.6845  0.5215
  186ccc     H5 3991   2.998   5.096   8.891  1.3399 -0.2730 -0.4441
  186ccc     H6 3992   3.121   5.228   8.894  0.3943 -1.9158 -0.6605
  186ccc     H7 3993   2.905   5.278   8.750 -0.3655  0.6832  0.6329
  186ccc     H8 3994   2.833   5.312   8.904 -0.1696 -0.2591  0.1252
  186ccc     N2 3995   2.979   5.446   8.857  0.2810  0.1376 -0.1780
  186ccc     H9 3996   2.917   5.508   8.804  2.4045  1.6844 -0.9641
  186ccc    H10 3997   2.997   5.475   8.954  3.3367 -1.1082 -0.2470
  186ccc    H11 3998   3.068   5.454   8.807  0.2608 -1.7355 -0.5961
  187ccc     N1 3999   3.062   4.827   9.757  0.1721  0.0042  0.3690
  187ccc     H4 4000   2.998   4.796   9.685  0.9296 -0.0052 -0.3164
  187ccc     C3 4001   3.051   4.777   9.892 -1.0287 -0.4737  0.4811
  187ccc     C4 4002   2.934   4.673   9.898 -0.3556 -0.8296  0.2697
  187ccc     H5 4003   3.040   4.862   9.961 -1.7894 -0.5097  0.4092
  187ccc     H6 4004   3.147   4.729   9.917 -0.5205  1.6633  3.0346
  187ccc     H7 4005   2.935   4.618   9.804 -1.9921 -0.4307 -0.0082
  187ccc     H8 4006   2.950   4.608   9.984  0.4267 -1.0253 -0.0166
  187ccc     N2 4007   2.799   4.739   9.924 -0.1007  0.2214  0.1687
  187ccc     H9 4008   2.813   4.792  10.011 -0.1162 -1.1278  1.0198
  187ccc    H10 4009   2.771   4.801   9.847 -1.4011 -2.1160 -1.3978
  187ccc    H11 4010   2.727   4.671   9.952 -0.5848  0.2132 -1.0530
  188ccc     N1 4011   3.198   4.506   8.218 -0.7235 -0.8362 -0.1661
  188ccc     H4 4012   3.144   4.474   8.139 -1.9562  3.4284 -1.3223
  188ccc     C3 4013   3.302   4.608   8.202 -0.3480  0.1810  0.0531
  188ccc     C4 4014   3.361   4.602   8.063 -0.2464 -0.3801 -0.4405
  188ccc     H5 4015   3.371   4.608   8.287 -1.8444 -1.6994  1.3513
  188ccc     H6 4016   3.249   4.702   8.221  0.4952  0.7647 -0.3719
  188ccc     H7 4017   3.391   4.499   8.045  0.4555 -0.4172  0.8196
  188ccc     H8 4018   3.285   4.645   7.997  0.1328  0.8641 -0.1008
  188ccc     N2 4019   3.488   4.683   8.058  0.0996  0.5665  0.5558
  188ccc     H9 4020   3.556   4.651   8.128  1.2163 -0.9738 -1.1499
  188ccc    H10 4021   3.534   4.660   7.969  2.7935  2.8084  1.2241
  188ccc    H11 4022   3.477   4.786   8.052  0.5348  0.5659 -0.3913
  189ccc     N1 4023   2.819   3.875   8.770  0.5045 -0.0014 -0.4440
  189ccc     H4 4024   2.760   3.890   8.689 -2.4801 -0.2927  1.4855
  189ccc     C3 4025   2.778   3.783   8.887  0.4773 -0.6837  0.4842
  189ccc     C4 4026   2.853   3.650   8.900  0.3680  0.1736 -0.2272
  189ccc     H5 4027   2.668   3.775   8.890  0.0250  3.3293  0.0754
  189ccc     H6 4028   2.808   3.837   8.977  0.7381  0.6853 -0.3898
  189ccc     H7 4029   2.955   3.669   8.932  1.0642  0.9542 -2.6964
  189ccc     H8 4030   2.806   3.577   8.967  1.5864  0.6202  1.1695
  189ccc     N2 4031   2.856   3.574   8.769 -0.2628  0.4519  0.2607
  189ccc     H9 4032   2.769   3.546   8.721  0.4880 -3.5186  0.9260
  189ccc    H10 4033   2.908   3.642   8.712  1.5222  1.0722  2.4950
  189ccc    H11 4034   2.912   3.488   8.772  0.0071  0.4702 -2.2877
  190ccc     N1 4035   5.735   5.235   3.908  0.9514  0.3006  0.7693
  190ccc     H4 4036   5.777   5.150   3.943 -1.9669 -2.3130 -1.4861
  190ccc     C3 4037   5.599   5.268   3.951  0.1567 -0.2204 -0.3474
  190ccc     C4 4038   5.596   5.254   4.102  0.1830  0.3378  0.3174
  190ccc     H5 4039   5.525   5.200   3.908 -1.3034 -0.3023  2.0881
  190ccc     H6 4040   5.572   5.373   3.930  0.3977 -0.3210 -1.1689
  190ccc     H7 4041   5.681   5.299   4.153  0.2303 -0.6987  1.1813
  190ccc     H8 4042   5.508   5.309   4.137 -0.5905  0.5120 -1.7658
  190ccc     N2 4043   5.593   5.102   4.142  0.2732 -0.1249  0.3886
  190ccc     H9 4044   5.662   5.042   4.095  0.0739  0.0203 -0.0998
  190ccc    H10 4045   5.615   5.092   4.242 -1.6912  0.1653  0.8999
  190ccc    H11 4046   5.496   5.065   4.138  0.5664 -1.4181  2.9017
  191ccc     N1 4047   5.968   5.583   3.346 -0.0648 -0.5254  0.5291
  191ccc     H4 4048   5.951   5.534   3.259 -2.3904  2.1709 -0.7004
  191ccc     C3 4049   5.947   5.726   3.339  0.5794  0.2253 -0.5340
  191ccc     C4 4050   6.078   5.798   3.309 -0.5323 -0.7919  0.1368
  191ccc     H5 4051   5.904   5.766   3.432  1.2119  2.4779 -1.1489
  191ccc     H6 4052   5.868   5.742   3.265 -0.0167 -2.0115 -0.4566
  191ccc     H7 4053   6.133   5.746   3.231 -0.7748 -0.7917 -0.0361
  191ccc     H8 4054   6.070   5.905   3.287 -0.8475 -0.7369  0.5094
  191ccc     N2 4055   6.175   5.791   3.431  0.2686 -0.8414  0.1166
  191ccc     H9 4056   6.267   5.827   3.404 -0.3796 -0.3294 -1.4962
  191ccc    H10 4057   6.155   5.848   3.515  2.0895  0.5500 -0.3434
  191ccc    H11 4058   6.177   5.690   3.453 -0.6680 -0.9903 -0.4186
  192ccc     N1 4059   4.807   6.001   2.883  0.4664  0.4712 -0.2687
  192ccc     H4 4060   4.845   6.020   2.791  0.3481 -1.9029 -0.8756
  192ccc     C3 4061   4.685   5.916   2.883  0.0736 -0.6365  0.3202
  192ccc     C4 4062   4.578   5.995   2.799  0.0892  0.3782 -0.3536
  192ccc     H5 4063   4.652   5.919   2.987 -2.2955  1.5651 -0.3775
  192ccc     H6 4064   4.712   5.818   2.841 -0.1329 -0.3537 -0.5078
  192ccc     H7 4065   4.562   6.095   2.838 -0.9716 -0.1823  0.7007
  192ccc     H8 4066   4.605   5.999   2.693  2.4953  2.9106  0.2413
  192ccc     N2 4067   4.443   5.937   2.805  0.0377  0.3095  0.2085
  192ccc     H9 4068   4.453   5.836   2.787  0.1456  0.0357  1.6804
  192ccc    H10 4069   4.394   5.945   2.895  0.6203  1.9107  0.4224
  192ccc    H11 4070   4.376   5.980   2.740 -1.9383  0.6535  2.3378
  193ccc     N1 4071   5.515   6.194   2.682 -0.6123  0.2308 -0.4218
  193ccc     H4 4072   5.497   6.294   2.686 -1.5162  0.1414 -1.8748
  193ccc     C3 4073   5.610   6.145   2.584 -0.5964  0.9605  0.6442
  193ccc     C4 4074   5.636   6.246   2.471 -0.2774 -0.4049 -0.2855
  193ccc     H5 4075   5.562   6.057   2.539  0.2728  0.7720  0.0595
  193ccc     H6 4076   5.700   6.102   2.629  0.2246  1.4110 -0.5437
  193ccc     H7 4077   5.705   6.326   2.498 -0.8044 -0.0563  0.0514
  193ccc     H8 4078   5.687   6.199   2.387 -0.6407 -1.6924  0.1920
  193ccc     N2 4079   5.513   6.323   2.415 -0.0635  0.3716 -0.0626
  193ccc     H9 4080   5.425   6.273   2.437 -1.0696  1.8208 -0.6459
  193ccc    H10 4081   5.514   6.416   2.458 -1.6659  0.2773  0.2684
  193ccc    H11 4082   5.510   6.335   2.312 -0.1475  0.6105 -0.0323
  194ccc     N1 4083   4.557   7.770   4.252 -0.8395  0.3166  0.2903
  194ccc     H4 4084   4.530   7.704   4.323 -0.1224 -0.7563 -0.4139
  194ccc     C3 4085   4.466   7.885   4.214  0.4920  0.0189  0.2124
  194ccc     C4 4086   4.361   7.901   4.321  0.2971  0.8344  0.6375
  194ccc     H5 4087   4.432   7.871   4.111  0.8549 -1.1452  0.2295
  194ccc     H6 4088   4.530   7.974   4.218 -0.1484  0.4581  1.1786
  194ccc     H7 4089   4.270   7.852   4.287  0.9519  0.6688 -0.9599
  194ccc     H8 4090   4.377   7.829   4.401  1.7018  1.6823  1.1642
  194ccc     N2 4091   4.337   8.033   4.364 -0.4186  0.3724 -0.3090
  194ccc     H9 4092   4.299   8.080   4.281 -3.0786 -1.6753 -0.3951
  194ccc    H10 4093   4.258   8.030   4.430 -0.0278 -0.1661  0.1521
  194ccc    H11 4094   4.420   8.076   4.408 -1.0248 -0.0844  1.3850
  195ccc     N1 4095   5.282   7.476   4.342  0.3381  0.5798 -0.2766
  195ccc     H4 4096   5.251   7.572   4.342  2.7863  1.4485  0.1286
  195ccc     C3 4097   5.408   7.443   4.416  0.3214  0.5455  0.0501
  195ccc     C4 4098   5.440   7.516   4.539 -0.7723 -0.0212  0.2132
  195ccc     H5 4099   5.491   7.455   4.345 -0.5223  0.6079 -0.9483
  195ccc     H6 4100   5.406   7.338   4.444 -0.6209  0.8460  1.1659
  195ccc     H7 4101   5.518   7.459   4.590 -0.2326  0.9838  0.5243
  195ccc     H8 4102   5.475   7.618   4.524  0.0704 -0.3621 -0.2028
  195ccc     N2 4103   5.324   7.521   4.632 -0.5762  0.4423 -0.3285
  195ccc     H9 4104   5.336   7.585   4.713  3.9635 -0.0348 -0.3710
  195ccc    H10 4105   5.233   7.546   4.591 -0.2188  1.3583 -0.5922
  195ccc    H11 4106   5.311   7.431   4.679 -1.0823  1.1464  0.9518
  196ccc     N1 4107   5.503   8.333   4.026 -0.0459  0.4479  0.4035
  196ccc     H4 4108   5.488   8.337   4.126  0.3641 -1.1959  0.5499
  196ccc     C3 4109   5.494   8.466   3.956 -0.2470 -0.0219  0.4202
  196ccc     C4 4110   5.631   8.523   3.901  0.5151 -0.5029 -0.2713
  196ccc     H5 4111   5.461   8.534   4.035 -0.5321  1.4954 -0.9525
  196ccc     H6 4112   5.420   8.442   3.879  0.8975  1.5939 -1.2794
  196ccc     H7 4113   5.619   8.629   3.879 -0.0087 -0.5930 -0.4222
  196ccc     H8 4114   5.708   8.504   3.976  0.8794 -1.7686 -0.9542
  196ccc     N2 4115   5.676   8.460   3.770  0.5396 -0.0503  0.4142
  196ccc     H9 4116   5.600   8.477   3.701 -0.8496  1.0892  2.1449
  196ccc    H10 4117   5.764   8.496   3.730  0.6927  0.6820  1.3899
  196ccc    H11 4118   5.676   8.357   3.773 -0.4022 -0.0729 -0.0025
  197ccc     N1 4119   6.187   7.906   4.002 -0.4520 -0.6274 -0.2718
  197ccc     H4 4120   6.154   7.810   4.007 -1.0533 -0.4252 -0.2898
  197ccc     C3 4121   6.329   7.925   3.990 -0.2232  0.0031  0.4950
  197ccc     C4 4122   6.369   7.980   3.852 -0.3052 -0.0378 -0.2809
  197ccc     H5 4123   6.376   7.828   4.006  2.6944  1.1783 -0.3435
  197ccc     H6 4124   6.363   7.991   4.071 -0.3810  1.9482 -0.9695
  197ccc     H7 4125   6.476   7.983   3.836 -0.2543  2.9780  0.0689
  197ccc     H8 4126   6.320   7.915   3.779  0.0218 -0.2379 -0.3230
  197ccc     N2 4127   6.313   8.120   3.825 -0.2776 -0.0959  0.4647
  197ccc     H9 4128   6.211   8.131   3.828 -0.2188  0.8276 -0.3926
  197ccc    H10 4129   6.337   8.176   3.908  1.0115 -0.5458  0.4145
  197ccc    H11 4130   6.354   8.170   3.745 -1.5060  1.1607  0.5886
  198ccc     N1 4131   5.651   4.743   5.678 -0.4555  0.0953 -0.2239
  198ccc     H4 4132   5.739   4.696   5.695  1.1174  2.1154 -2.2145
  198ccc     C3 4133   5.521   4.676   5.666 -0.6492 -0.9660  0.4724
  198ccc     C4 4134   5.515   4.554   5.757 -0.2294 -0.5053  1.0961
  198ccc     H5 4135   5.504   4.631   5.568 -0.3975 -0.7123  0.3098
  198ccc     H6 4136   5.437   4.741   5.695 -1.2499 -0.4536 -2.1856
  198ccc     H7 4137   5.596   4.487   5.724 -0.1485 -0.6751  1.6282
  198ccc     H8 4138   5.530   4.590   5.859 -0.8162  4.5171 -0.3280
  198ccc     N2 4139   5.385   4.485   5.758  0.2722 -0.0862 -0.2851
  198ccc     H9 4140   5.398   4.391   5.799 -1.7543 -0.4287 -0.3690
  198ccc    H10 4141   5.322   4.546   5.811 -0.4522 -1.2420  0.2135
  198ccc    H11 4142   5.357   4.474   5.660  1.5987 -1.2923 -0.5735
  199ccc     N1 4143   6.167   4.805   5.068 -0.3462 -0.1745  0.0399
  199ccc     H4 4144   6.216   4.892   5.056 -0.9135 -0.0088 -1.1527
  199ccc     C3 4145   6.205   4.686   4.992 -0.5926  0.2467  0.4086
  199ccc     C4 4146   6.346   4.690   4.931 -0.1521 -0.3660 -0.1015
  199ccc     H5 4147   6.128   4.666   4.916  1.2163  1.0940 -1.7627
  199ccc     H6 4148   6.209   4.597   5.056 -0.8231  1.3521  2.0175
  199ccc     H7 4149   6.357   4.637   4.837  2.0046 -0.4929  0.1750
  199ccc     H8 4150   6.355   4.794   4.900 -1.9384 -1.0396 -3.2102
  199ccc     N2 4151   6.465   4.657   5.018 -0.3244  0.0386 -0.3479
  199ccc     H9 4152   6.554   4.684   4.973  0.2261  0.0782  0.7455
  199ccc    H10 4153   6.477   4.708   5.106 -1.3125 -1.1541  0.5188
  199ccc    H11 4154   6.476   4.555   5.033  1.7248  0.2034 -0.4451
  200ccc     N1 4155   7.174   5.028   4.732 -0.0278  0.2096 -0.1296
  200ccc     H4 4156   7.190   4.987   4.641 -1.0548 -0.6369  0.0488
  200ccc     C3 4157   7.222   4.956   4.858 -0.0556  0.0256  0.2003
  200ccc     C4 4158   7.149   4.820   4.883  0.2014 -0.3706  0.5436
  200ccc     H5 4159   7.211   5.017   4.949 -0.7865 -0.8167  0.6872
  200ccc     H6 4160   7.328   4.938   4.837 -0.2094 -0.8705  0.1599
  200ccc     H7 4161   7.197   4.779   4.972  1.2917  1.4200  0.8451
  200ccc     H8 4162   7.048   4.848   4.913 -0.8656 -2.7906 -0.5813
  200ccc     N2 4163   7.156   4.727   4.770 -0.4925 -0.0646  0.0653
  200ccc     H9 4164   7.090   4.760   4.698 -0.6075 -0.8108 -0.1800
  200ccc    H10 4165   7.251   4.726   4.730 -1.5564 -1.4577 -2.6592
  200ccc    H11 4166   7.127   4.634   4.804 -0.2753 -0.3275 -0.4601
  201ccc     N1 4167   6.505   5.025   4.571 -0.8359 -0.3977 -0.3932
  201ccc     H4 4168   6.439   5.049   4.498 -0.7120 -1.6583 -0.9532
  201ccc     C3 4169   6.505   4.878   4.601 -0.0328 -0.2913 -0.2217
  201ccc     C4 4170   6.578   4.798   4.490  0.5404 -0.3877  0.3807
  201ccc     H5 4171   6.397   4.855   4.605  0.0189 -0.4318  0.4373
  201ccc     H6 4172   6.548   4.856   4.699 -0.3588 -0.4566 -0.1127
  201ccc     H7 4173   6.671   4.846   4.459 -0.2961 -0.9998 -3.5686
  201ccc     H8 4174   6.595   4.699   4.534  1.4830 -0.7982 -0.8605
  201ccc     N2 4175   6.501   4.778   4.366  0.4979 -0.2009 -0.3289
  201ccc     H9 4176   6.549   4.721   4.295 -1.1382 -0.6530 -1.1226
  201ccc    H10 4177   6.420   4.722   4.397 -0.8790  2.5586  1.4261
  201ccc    H11 4178   6.477   4.866   4.318  1.0233  0.3066  0.3154
  202ccc     N1 4179   7.158   7.284   4.495 -0.4936  0.3594  0.5249
  202ccc     H4 4180   7.110   7.374   4.501 -1.7468 -0.2625  0.1968
  202ccc     C3 4181   7.306   7.291   4.530  0.5967 -0.3740 -0.0564
  202ccc     C4 4182   7.402   7.347   4.416  0.1839  0.0908  0.1595
  202ccc     H5 4183   7.333   7.188   4.554  1.4619 -0.0797  0.2877
  202ccc     H6 4184   7.313   7.346   4.624 -0.8989 -0.1498 -0.0565
  202ccc     H7 4185   7.392   7.272   4.338 -0.0936 -1.4041  1.5870
  202ccc     H8 4186   7.369   7.444   4.377 -1.0808 -0.8061 -1.0729
  202ccc     N2 4187   7.542   7.364   4.471  0.3991  0.1757 -0.6646
  202ccc     H9 4188   7.566   7.288   4.537 -2.0384 -1.0337 -1.0515
  202ccc    H10 4189   7.616   7.371   4.400  1.5523 -2.7473  0.1083
  202ccc    H11 4190   7.550   7.444   4.536  1.8203  0.8916 -1.6953
  203ccc     N1 4191   6.487   7.012   4.027 -0.7600 -0.1530  0.5906
  203ccc     H4 4192   6.557   7.039   3.959 -0.2485 -0.5518  0.9506
  203ccc     C3 4193   6.380   6.930   3.976 -0.1053  0.4883  0.4504
  203ccc     C4 4194   6.269   7.009   3.889 -0.5703 -0.2410 -0.2822
  203ccc     H5 4195   6.334   6.879   4.063  2.4665 -3.1355 -0.0883
  203ccc     H6 4196   6.412   6.851   3.908 -1.8933  0.3883 -0.3280
  203ccc     H7 4197   6.299   7.043   3.790 -0.5540 -0.1888 -0.2595
  203ccc     H8 4198   6.180   6.947   3.883 -0.5939 -0.3935  1.2179
  203ccc     N2 4199   6.219   7.133   3.964 -0.1196 -0.8179 -0.1138
  203ccc     H9 4200   6.296   7.201   3.975 -1.1041  0.5342 -1.1495
  203ccc    H10 4201   6.151   7.194   3.915  0.5651  2.1529  2.3235
  203ccc    H11 4202   6.194   7.122   4.063 -0.1083  0.0182 -0.0105
  204ccc     N1 4203   5.869   7.026   5.952 -0.4446 -0.0349  0.3211
  204ccc     H4 4204   5.844   7.079   6.035 -0.6151  0.2925  0.0644
  204ccc     C3 4205   5.903   6.881   5.955 -0.3694  0.4085 -0.7416
  204ccc     C4 4206   5.843   6.823   6.092  0.2942 -0.1638 -0.2567
  204ccc     H5 4207   6.011   6.867   5.965 -0.3508 -0.2055 -1.6482
  204ccc     H6 4208   5.861   6.823   5.871 -1.8159  0.7722 -0.2939
  204ccc     H7 4209   5.870   6.720   6.115 -0.7746 -0.5612 -0.7154
  204ccc     H8 4210   5.889   6.878   6.174  0.6732  1.3834 -1.4684
  204ccc     N2 4211   5.695   6.826   6.102  0.0266  0.6148  0.3178
  204ccc     H9 4212   5.653   6.917   6.081 -0.5615  0.7935  2.1003
  204ccc    H10 4213   5.656   6.758   6.035  0.3939  0.9721 -0.2612
  204ccc    H11 4214   5.664   6.802   6.197  0.4404  0.2251  0.3592
  205ccc     N1 4215   6.391   7.506   6.163 -0.1858 -0.4773  0.5585
  205ccc     H4 4216   6.463   7.459   6.108 -0.9707  1.5614 -2.4645
  205ccc     C3 4217   6.421   7.550   6.295 -0.1305  0.2401 -0.0294
  205ccc     C4 4218   6.418   7.443   6.411 -0.6711  0.3204  0.1598
  205ccc     H5 4219   6.357   7.634   6.323 -1.6051 -0.5019 -1.0603
  205ccc     H6 4220   6.525   7.585   6.302 -0.0832 -0.1278  1.2156
  205ccc     H7 4221   6.459   7.483   6.504  1.4717 -2.3275  0.4804
  205ccc     H8 4222   6.318   7.407   6.435 -0.0670 -1.1100  0.6319
  205ccc     N2 4223   6.508   7.331   6.396  0.0582  0.3816  0.1106
  205ccc     H9 4224   6.509   7.276   6.483 -1.4018  0.3301  0.1126
  205ccc    H10 4225   6.483   7.270   6.317  2.6685  0.2659 -0.7536
  205ccc    H11 4226   6.608   7.349   6.374  0.4111 -1.0025  0.4718
  206ccc     N1 4227   2.501   7.478   3.712 -0.3438  0.5848  0.0742
  206ccc     H4 4228   2.424   7.428   3.756  1.0390  1.6644  4.1880
  206ccc     C3 4229   2.487   7.604   3.636  0.2316 -0.3573 -0.2111
  206ccc     C4 4230   2.473   7.574   3.485 -0.3630 -0.1499  0.5664
  206ccc     H5 4231   2.578   7.664   3.648  0.3872 -0.5395 -0.4693
  206ccc     H6 4232   2.406   7.673   3.665  0.5480  0.3048 -0.8686
  206ccc     H7 4233   2.409   7.487   3.468 -1.1158  0.4734  0.1296
  206ccc     H8 4234   2.412   7.650   3.436 -0.3946  0.4821  1.5695
  206ccc     N2 4235   2.600   7.563   3.391  0.0847 -0.2042 -0.1464
  206ccc     H9 4236   2.668   7.499   3.433  0.4638 -0.9600 -1.8120
  206ccc    H10 4237   2.576   7.529   3.296 -1.9692  0.3219  0.1306
  206ccc    H11 4238   2.648   7.654   3.378  0.2817 -0.3566 -0.5191
  207ccc     N1 4239   2.503   7.335   4.298 -0.1404  0.9950  0.5422
  207ccc     H4 4240   2.523   7.394   4.218 -2.3775 -0.2935 -1.0792
  207ccc     C3 4241   2.418   7.377   4.414  0.2452  1.2203 -0.1527
  207ccc     C4 4242   2.411   7.529   4.434 -0.1915  0.3249 -0.4713
  207ccc     H5 4243   2.467   7.327   4.499  0.2529  1.6894  0.1287
  207ccc     H6 4244   2.316   7.338   4.406 -0.0794  1.0904  3.0390
  207ccc     H7 4245   2.508   7.562   4.469 -1.0941 -0.1238  2.8030
  207ccc     H8 4246   2.388   7.579   4.340 -0.2019 -1.7623 -1.6462
  207ccc     N2 4247   2.315   7.581   4.547  0.2224 -0.1061 -0.0900
  207ccc     H9 4248   2.314   7.684   4.543 -1.5451 -0.1029 -0.3562
  207ccc    H10 4249   2.221   7.540   4.540 -0.0845  0.4101  0.8170
  207ccc    H11 4250   2.342   7.561   4.645  0.2652  1.8271  0.3294
  208ccc     N1 4251   2.097   6.798   4.791  0.3091 -0.1685  0.2179
  208ccc     H4 4252   2.021   6.731   4.801 -0.7986  0.9411 -0.5222
  208ccc     C3 4253   2.149   6.883   4.909 -0.1626 -0.3461 -0.1670
  208ccc     C4 4254   2.057   7.004   4.918  0.0128 -1.0204 -0.5172
  208ccc     H5 4255   2.255   6.908   4.896 -0.6845  1.3391 -1.6464
  208ccc     H6 4256   2.138   6.824   5.001  2.1708  0.3969  0.6417
  208ccc     H7 4257   2.104   7.071   4.991 -1.4761  0.0931 -0.5440
  208ccc     H8 4258   2.052   7.057   4.823  2.0375  2.1136  0.9542
  208ccc     N2 4259   1.917   6.972   4.976 -0.0645  0.1035 -0.1476
  208ccc     H9 4260   1.858   7.057   4.976  0.8385  0.7858  1.5342
  208ccc    H10 4261   1.879   6.894   4.919 -0.9213  0.0741  0.4442
  208ccc    H11 4262   1.924   6.951   5.077  2.9141  0.5279 -0.1958
  209ccc     N1 4263   1.482   6.607   4.325 -0.4143 -0.1677  0.0143
  209ccc     H4 4264   1.497   6.571   4.232 -1.8439  1.5796 -0.9568
  209ccc     C3 4265   1.386   6.524   4.395 -0.6794  0.4427  0.4143
  209ccc     C4 4266   1.296   6.441   4.301  0.6912  0.0452 -0.2760
  209ccc     H5 4267   1.329   6.590   4.461 -0.6799  0.8811 -0.0179
  209ccc     H6 4268   1.450   6.460   4.458  0.5156  0.4743 -0.7038
  209ccc     H7 4269   1.258   6.501   4.219 -1.2779 -0.8483 -0.0595
  209ccc     H8 4270   1.350   6.358   4.254 -1.1002 -1.3422  0.0262
  209ccc     N2 4271   1.181   6.372   4.357  0.4774 -0.0096  0.8514
  209ccc     H9 4272   1.132   6.332   4.275 -0.1654  3.3197 -0.5289
  209ccc    H10 4273   1.201   6.305   4.433  0.6457  0.8887  1.6080
  209ccc    H11 4274   1.105   6.435   4.386 -0.0765 -1.2108  2.1047
  210ccc     N1 4275   4.444   6.897   3.400  0.4641  0.2043  0.3148
  210ccc     H4 4276   4.366   6.833   3.390  1.3489 -0.6186 -1.8644
  210ccc     C3 4277   4.549   6.861   3.495  0.3592 -0.8208 -0.8574
  210ccc     C4 4278   4.680   6.791   3.437  0.3878  0.1121 -0.4377
  210ccc     H5 4279   4.511   6.800   3.577  1.8027  0.7310  1.0510
  210ccc     H6 4280   4.580   6.955   3.541 -0.6436 -0.7756 -0.2514
  210ccc     H7 4281   4.751   6.756   3.512  1.1929  4.1623  0.9762
  210ccc     H8 4282   4.648   6.698   3.390  2.7058 -0.1271 -1.6598
  210ccc     N2 4283   4.744   6.872   3.325  0.2285 -0.6476  0.1241
  210ccc     H9 4284   4.678   6.895   3.249 -1.7680  0.2467  2.0346
  210ccc    H10 4285   4.791   6.961   3.345  2.3946 -1.7989  0.4314
  210ccc    H11 4286   4.813   6.805   3.288 -0.9824 -2.6023  1.2279
  211ccc     N1 4287   4.078   7.576   3.589  0.1691 -0.0410 -0.6840
  211ccc     H4 4288   4.135   7.518   3.650 -1.2712 -1.6927 -0.8235
  211ccc     C3 4289   4.074   7.721   3.612 -0.1110 -0.4158 -0.4617
  211ccc     C4 4290   3.970   7.768   3.714 -0.4487 -0.3064 -0.4041
  211ccc     H5 4291   4.058   7.765   3.512  0.0357 -1.3143 -0.8930
  211ccc     H6 4292   4.169   7.761   3.649 -0.5982  0.3896 -0.0453
  211ccc     H7 4293   3.955   7.874   3.693 -2.5361 -0.2916  0.8292
  211ccc     H8 4294   3.876   7.717   3.694 -0.2606 -0.9496  0.2872
  211ccc     N2 4295   4.019   7.749   3.856  0.1513 -0.3370 -0.5098
  211ccc     H9 4296   4.105   7.801   3.875  0.5585 -0.7271 -1.2072
  211ccc    H10 4297   3.946   7.793   3.914 -0.4038 -2.3487  0.4265
  211ccc    H11 4298   4.016   7.652   3.891 -2.2474  0.1131  0.7492
  212ccc     N1 4299   2.499   6.497   2.757 -0.1313  0.2570  0.1670
  212ccc     H4 4300   2.569   6.450   2.813  0.1766  1.4151  0.7867
  212ccc     C3 4301   2.359   6.457   2.789  0.6283  0.4397  0.1757
  212ccc     C4 4302   2.348   6.420   2.941  0.0011 -0.3292  0.5429
  212ccc     H5 4303   2.325   6.369   2.733 -0.7898  0.4660  0.9410
  212ccc     H6 4304   2.298   6.546   2.771  0.0848  0.0894  0.2417
  212ccc     H7 4305   2.408   6.331   2.957  0.7303  0.0050 -0.2665
  212ccc     H8 4306   2.382   6.509   2.994 -0.0266  0.1240 -0.1804
  212ccc     N2 4307   2.210   6.383   2.982  0.5344 -0.1178  0.2424
  212ccc     H9 4308   2.158   6.472   2.993  1.6382  0.5202  0.4611
  212ccc    H10 4309   2.160   6.314   2.924 -0.5778 -1.0609  2.2456
  212ccc    H11 4310   2.209   6.333   3.071 -2.5322 -0.7975 -0.0558
  213ccc     N1 4311   3.083   6.977   2.236  0.1025 -0.5793  0.7291
  213ccc     H4 4312   3.149   7.006   2.308  0.4917 -1.1524  0.6059
  213ccc     C3 4313   3.086   7.047   2.100  0.7833  0.1828 -0.2230
  213ccc     C4 4314   3.228   7.103   2.068 -0.0821  0.1642  0.0891
  213ccc     H5 4315   3.017   7.133   2.099  0.1201 -0.2903  1.5844
  213ccc     H6 4316   3.047   6.989   2.016 -2.8532  1.0024  0.7152
  213ccc     H7 4317   3.305   7.026   2.075 -1.6328 -1.3977  0.4841
  213ccc     H8 4318   3.227   7.144   1.967  0.9895 -1.0680 -0.4577
  213ccc     N2 4319   3.264   7.212   2.174 -0.7128 -0.1650  0.1178
  213ccc     H9 4320   3.274   7.177   2.271  2.1314  0.9557  0.3224
  213ccc    H10 4321   3.359   7.249   2.163  0.6110 -1.6991  4.3221
  213ccc    H11 4322   3.195   7.288   2.180  1.9454  2.3973  0.2054
  214ccc     N1 4323   4.551   4.859   3.471  0.1976  0.5126 -0.8605
  214ccc     H4 4324   4.461   4.888   3.434 -0.9841 -0.6483  0.9739
  214ccc     C3 4325   4.652   4.779   3.407 -0.0917  0.7323  0.3739
  214ccc     C4 4326   4.647   4.624   3.415  0.7608 -0.3938 -0.3998
  214ccc     H5 4327   4.755   4.809   3.429  0.3887 -1.3028  1.1734
  214ccc     H6 4328   4.637   4.800   3.301 -0.5858 -0.0243  0.2819
  214ccc     H7 4329   4.549   4.595   3.378  0.7122 -1.6933  0.6624
  214ccc     H8 4330   4.721   4.573   3.353  1.1977  0.2607 -0.4196
  214ccc     N2 4331   4.670   4.554   3.551  0.2037  0.1317 -0.6309
  214ccc     H9 4332   4.592   4.577   3.615  0.4036  0.7106 -0.5970
  214ccc    H10 4333   4.668   4.453   3.530 -2.8882  0.2884 -1.6151
  214ccc    H11 4334   4.755   4.577   3.605  0.4496 -0.4094 -0.7785
  215ccc     N1 4335   4.678   5.311   3.806 -0.4979 -0.0873  0.5157
  215ccc     H4 4336   4.631   5.362   3.732  2.8926 -0.3005 -2.0236
  215ccc     C3 4337   4.822   5.330   3.818  0.3058  0.0791  0.8277
  215ccc     C4 4338   4.889   5.411   3.712  0.3172 -0.4796  0.1959
  215ccc     H5 4339   4.859   5.227   3.817 -1.8692 -0.7922 -1.9160
  215ccc     H6 4340   4.839   5.380   3.914  0.0918  0.2021  0.8021
  215ccc     H7 4341   4.849   5.513   3.705  1.4278  0.0776  1.4020
  215ccc     H8 4342   4.994   5.424   3.737  0.9692 -0.3256 -2.3577
  215ccc     N2 4343   4.877   5.354   3.578 -0.6108  0.7291 -0.0172
  215ccc     H9 4344   4.903   5.255   3.578  0.3858  0.9749 -0.7984
  215ccc    H10 4345   4.778   5.365   3.550 -0.8224 -0.1767  0.3596
  215ccc    H11 4346   4.939   5.407   3.514 -2.0724  1.1438 -1.1604
  216ccc     N1 4347   4.233   4.434   2.794 -0.0057  0.0634  0.1898
  216ccc     H4 4348   4.150   4.442   2.737 -0.2778  2.8767  0.8228
  216ccc     C3 4349   4.356   4.479   2.723 -0.4423 -0.2229  0.9172
  216ccc     C4 4350   4.395   4.631   2.728 -0.0650 -0.2982 -0.2564
  216ccc     H5 4351   4.352   4.443   2.619  1.8440  0.2874  0.6012
  216ccc     H6 4352   4.445   4.432   2.767  1.0183  1.0303 -0.5647
  216ccc     H7 4353   4.423   4.654   2.831 -0.2967  1.9402 -0.6469
  216ccc     H8 4354   4.484   4.645   2.666 -0.2743 -1.5703 -0.8797
  216ccc     N2 4355   4.283   4.726   2.683 -0.1635  0.1562  0.2119
  216ccc     H9 4356   4.193   4.700   2.725 -0.3971  0.4465 -0.1048
  216ccc    H10 4357   4.305   4.826   2.696 -3.9624  1.3137 -1.0074
  216ccc    H11 4358   4.276   4.714   2.581  3.1198 -4.6715  0.2061
  217ccc     N1 4359   3.682   4.014   3.080  0.4204  0.2530 -0.0140
  217ccc     H4 4360   3.767   3.968   3.109 -1.1267 -1.2476  2.5296
  217ccc     C3 4361   3.573   3.925   3.040 -0.1005 -0.7173 -0.1237
  217ccc     C4 4362   3.486   3.890   3.158  0.3116 -0.1817 -0.4427
  217ccc     H5 4363   3.607   3.834   2.989  1.1424  1.4186 -3.4287
  217ccc     H6 4364   3.510   3.986   2.974  1.7485  2.8602  1.1633
  217ccc     H7 4365   3.458   3.986   3.201  2.7295  0.6739 -0.6342
  217ccc     H8 4366   3.399   3.834   3.124  0.5130 -1.1316  0.5140
  217ccc     N2 4367   3.542   3.793   3.255 -0.9033  0.1977  0.3887
  217ccc     H9 4368   3.499   3.810   3.347 -0.2585  0.3128  0.6768
  217ccc    H10 4369   3.519   3.696   3.229  2.0863 -0.0257 -2.0908
  217ccc    H11 4370   3.640   3.800   3.287 -0.9625 -0.1217  0.6372
  218ccc     N1 4371   2.284   4.411   3.452 -0.1762 -0.5433 -0.2774
  218ccc     H4 4372   2.199   4.425   3.505  0.1539  0.3037  0.0591
  218ccc     C3 4373   2.371   4.299   3.486 -0.4773 -0.3898 -0.3506
  218ccc     C4 4374   2.344   4.166   3.412  0.4096  0.3707  0.1963
  218ccc     H5 4375   2.367   4.288   3.595 -0.2597 -0.1112 -0.3142
  218ccc     H6 4376   2.471   4.337   3.461 -0.0951 -0.8839  0.3923
  218ccc     H7 4377   2.351   4.168   3.303 -1.0515 -2.1314 -0.0173
  218ccc     H8 4378   2.420   4.095   3.443  1.7089  2.2185  1.5129
  218ccc     N2 4379   2.210   4.103   3.434  0.1825 -0.1287 -0.0014
  218ccc     H9 4380   2.195   4.070   3.531  0.5769  1.3275  0.5812
  218ccc    H10 4381   2.134   4.167   3.408 -0.1427 -0.3654  0.3491
  218ccc    H11 4382   2.200   4.011   3.388 -0.1239 -0.2184  0.2371
  219ccc     N1 4383   1.702   4.999   3.285 -1.0517  0.1667 -0.3436
  219ccc     H4 4384   1.732   5.095   3.300  0.8553 -0.5274  0.6630
  219ccc     C3 4385   1.560   4.969   3.285  0.6811  0.2726  0.2551
  219ccc     C4 4386   1.467   5.104   3.270  0.2330  0.1124  0.0723
  219ccc     H5 4387   1.530   4.927   3.382 -1.4417  0.9734 -0.0474
  219ccc     H6 4388   1.537   4.900   3.203  0.9160  0.0814  0.3524
  219ccc     H7 4389   1.372   5.097   3.323  0.0150  1.1732 -0.1571
  219ccc     H8 4390   1.525   5.187   3.309 -0.0747  0.4349 -0.1576
  219ccc     N2 4391   1.437   5.148   3.128 -0.0047 -0.5231  0.4708
  219ccc     H9 4392   1.526   5.135   3.078  0.2784  0.0254  0.8268
  219ccc    H10 4393   1.365   5.087   3.087 -0.5389  1.3856 -1.5722
  219ccc    H11 4394   1.408   5.246   3.118  0.6774 -0.5513 -2.7116
  220ccc     N1 4395   3.344   6.077   3.239 -0.2508  0.4286 -0.7173
  220ccc     H4 4396   3.322   5.998   3.299 -1.6353 -0.0777 -1.8305
  220ccc     C3 4397   3.473   6.139   3.268  0.3426 -0.6811 -0.3622
  220ccc     C4 4398   3.459   6.214   3.405  0.4215  0.5013 -0.3806
  220ccc     H5 4399   3.511   6.208   3.191  1.1837 -0.1081  0.5295
  220ccc     H6 4400   3.552   6.063   3.276  3.0170  1.9163 -0.0352
  220ccc     H7 4401   3.378   6.284   3.426  0.2210 -0.3059  1.7841
  220ccc     H8 4402   3.454   6.145   3.489 -0.3853  3.9052  2.6609
  220ccc     N2 4403   3.582   6.295   3.439 -0.4085  0.1468 -0.7121
  220ccc     H9 4404   3.597   6.383   3.387  3.6539  1.1848  1.7661
  220ccc    H10 4405   3.579   6.326   3.537 -2.4881  2.6041 -1.4421
  220ccc    H11 4406   3.670   6.247   3.415 -0.8319  0.0626 -2.2210
  221ccc     N1 4407   3.082   5.603   2.580  0.7697  0.4690  0.4001
  221ccc     H4 4408   3.101   5.700   2.560 -1.3170  0.7913 -0.2611
  221ccc     C3 4409   3.058   5.502   2.473 -0.2375  0.0330 -0.1858
  221ccc     C4 4410   3.085   5.545   2.328  0.1041 -0.2892 -0.2110
  221ccc     H5 4411   2.954   5.466   2.479  0.4637 -1.9630  0.5935
  221ccc     H6 4412   3.110   5.407   2.484 -1.4115 -0.6616 -0.4129
  221ccc     H7 4413   3.191   5.568   2.313  0.0431  0.1067 -0.0572
  221ccc     H8 4414   3.042   5.470   2.263  0.0750 -1.4145  1.0643
  221ccc     N2 4415   3.004   5.663   2.291  0.3369 -0.0753  0.4051
  221ccc     H9 4416   2.905   5.639   2.307  0.6831 -2.7423 -0.9742
  221ccc    H10 4417   3.036   5.748   2.341  0.3484 -0.3492  0.8714
  221ccc    H11 4418   3.021   5.681   2.191  1.4178  2.7059  0.9836
  222ccc     N1 4419   3.693   8.790   5.100 -0.0713 -0.0656 -0.2027
  222ccc     H4 4420   3.605   8.808   5.147  0.9928  0.8276  1.5728
  222ccc     C3 4421   3.797   8.892   5.088 -0.4981 -0.2629  0.4439
  222ccc     C4 4422   3.761   9.017   5.166  0.5326  0.1704  0.0791
  222ccc     H5 4423   3.816   8.918   4.983 -0.1337 -1.0636  0.3018
  222ccc     H6 4424   3.895   8.850   5.114  0.0582  0.5341 -0.3127
  222ccc     H7 4425   3.670   9.068   5.133  1.0817  0.2602 -1.3764
  222ccc     H8 4426   3.758   8.988   5.271 -0.1574  0.7269  0.2211
  222ccc     N2 4427   3.875   9.118   5.164  0.4544  0.1548  0.4698
  222ccc     H9 4428   3.883   9.173   5.077 -0.5981  0.8749  0.7968
  222ccc    H10 4429   3.849   9.191   5.233 -0.2041 -0.1127  0.5155
  222ccc    H11 4430   3.966   9.081   5.193  0.1094 -0.7226  0.4522
  223ccc     N1 4431   3.444   8.385   4.412  0.3327  0.5088 -0.0219
  223ccc     H4 4432   3.420   8.483   4.418  1.3825  0.7156  1.0265
  223ccc     C3 4433   3.401   8.319   4.287  0.1444  0.5844 -0.4078
  223ccc     C4 4434   3.468   8.389   4.163  0.3985  0.5206  0.0738
  223ccc     H5 4435   3.293   8.308   4.268  0.1554  2.0322 -1.5205
  223ccc     H6 4436   3.433   8.215   4.293 -2.1801 -0.3942 -2.6866
  223ccc     H7 4437   3.572   8.414   4.188  0.7371  0.3925 -1.1644
  223ccc     H8 4438   3.465   8.335   4.069  0.5356 -0.1962  0.4690
  223ccc     N2 4439   3.396   8.516   4.144  0.1496  0.2162 -0.4662
  223ccc     H9 4440   3.393   8.586   4.219 -1.7727 -1.3982  1.1094
  223ccc    H10 4441   3.412   8.549   4.048  1.0729 -1.5052 -0.9582
  223ccc    H11 4442   3.300   8.479   4.154  0.2044  0.3698  0.7904
  224ccc     N1 4443   3.516   9.193   5.887 -0.1337 -0.2324  0.1536
  224ccc     H4 4444   3.573   9.276   5.889  2.7527 -2.0885  0.0201
  224ccc     C3 4445   3.375   9.184   5.934 -0.4001 -0.3231 -0.9946
  224ccc     C4 4446   3.312   9.319   5.976  0.2357 -0.0291 -0.1842
  224ccc     H5 4447   3.377   9.136   6.032 -3.1105  2.5172  0.6382
  224ccc     H6 4448   3.321   9.132   5.854  0.6693 -1.1572 -1.1935
  224ccc     H7 4449   3.303   9.387   5.891 -1.6559 -3.2268 -2.7502
  224ccc     H8 4450   3.216   9.302   6.024  1.5767 -2.2967  1.9389
  224ccc     N2 4451   3.384   9.393   6.083  0.0706 -0.7234  0.5878
  224ccc     H9 4452   3.380   9.368   6.183 -0.0393 -0.3102  0.6903
  224ccc    H10 4453   3.477   9.421   6.048 -0.3683 -0.6042 -0.5401
  224ccc    H11 4454   3.354   9.492   6.089  0.1730 -0.7277  1.2171
  225ccc     N1 4455   3.808   8.975   6.373  0.0256  0.2525  0.5064
  225ccc     H4 4456   3.892   8.925   6.402  0.1437 -0.0019 -0.2710
  225ccc     C3 4457   3.704   9.009   6.474 -0.8315 -0.1824 -0.0250
  225ccc     C4 4458   3.762   9.068   6.603 -0.0038  0.1887  0.1455
  225ccc     H5 4459   3.659   8.912   6.501  0.6945 -0.3020  2.3217
  225ccc     H6 4460   3.627   9.076   6.433 -0.7618 -1.2868 -2.1251
  225ccc     H7 4461   3.672   9.089   6.660 -1.9492 -0.1655 -2.6091
  225ccc     H8 4462   3.831   8.999   6.651 -0.9759 -0.9432 -0.0328
  225ccc     N2 4463   3.824   9.208   6.594  0.4008  0.8658 -0.1926
  225ccc     H9 4464   3.881   9.226   6.677  1.3560  0.1661 -0.6787
  225ccc    H10 4465   3.902   9.206   6.527  0.7637 -4.1946 -0.0169
  225ccc    H11 4466   3.764   9.290   6.578  0.5230  0.7564 -1.3160
  226ccc     N1 4467   3.323   7.954   7.485 -0.0547  0.2626  0.2348
  226ccc     H4 4468   3.318   7.856   7.509  0.5013  0.3421  0.6910
  226ccc     C3 4469   3.242   8.052   7.556 -0.2557  0.0153 -0.0646
  226ccc     C4 4470   3.168   7.999   7.687 -0.5472 -0.1921 -0.5917
  226ccc     H5 4471   3.174   8.092   7.480  0.6364  0.3870 -0.6788
  226ccc     H6 4472   3.307   8.135   7.586 -0.9949  0.6364 -0.1390
  226ccc     H7 4473   3.082   7.932   7.677 -0.8496  0.1390 -0.2504
  226ccc     H8 4474   3.243   7.946   7.747  0.3967 -0.9368 -2.3540
  226ccc     N2 4475   3.112   8.119   7.760 -0.4000  0.6541 -0.4271
  226ccc     H9 4476   3.024   8.157   7.723 -1.9415  0.5376  2.7694
  226ccc    H10 4477   3.095   8.094   7.858 -1.9451  1.2274 -0.5265
  226ccc    H11 4478   3.172   8.202   7.765  0.2880  0.1004  1.0371
  227ccc     N1 4479   3.043   8.238   6.946  0.0970 -0.3398  0.2753
  227ccc     H4 4480   3.100   8.238   6.862  1.5224  0.2099  1.1869
  227ccc     C3 4481   2.911   8.308   6.957  0.1930  0.0738  0.4915
  227ccc     C4 4482   2.857   8.352   6.814 -0.5086 -0.0461 -0.2612
  227ccc     H5 4483   2.927   8.402   7.011  2.3100 -0.1986  0.4278
  227ccc     H6 4484   2.837   8.247   7.010  0.9840 -0.4559  1.0033
  227ccc     H7 4485   2.938   8.401   6.758 -0.1518 -0.3590 -0.0193
  227ccc     H8 4486   2.831   8.260   6.761 -1.1810 -1.1790  1.9461
  227ccc     N2 4487   2.733   8.435   6.811  0.0796  0.5656  0.0657
  227ccc     H9 4488   2.654   8.398   6.866 -2.2960 -0.6158 -3.7247
  227ccc    H10 4489   2.754   8.533   6.834 -1.8424  1.3705 -1.3665
  227ccc    H11 4490   2.690   8.441   6.718 -1.0119  2.7056  0.6479
  228ccc     N1 4491   2.696   8.851   5.861  0.4856  0.3096 -0.0248
  228ccc     H4 4492   2.596   8.844   5.850  0.5582  0.8106 -1.1825
  228ccc     C3 4493   2.758   8.974   5.802  0.2504  0.6980  0.2907
  228ccc     C4 4494   2.664   9.090   5.780  0.7186  0.3877 -0.2836
  228ccc     H5 4495   2.802   8.950   5.704  0.7517  2.9637 -0.0803
  228ccc     H6 4496   2.850   8.997   5.856  1.5284 -0.9347 -1.0741
  228ccc     H7 4497   2.606   9.084   5.872  0.2241 -0.1394 -0.6235
  228ccc     H8 4498   2.714   9.186   5.766  0.1340  0.4660 -2.0403
  228ccc     N2 4499   2.566   9.071   5.668 -0.2502  0.1322 -0.8892
  228ccc     H9 4500   2.498   9.148   5.653  0.1163  0.0915 -3.2255
  228ccc    H10 4501   2.618   9.081   5.579  0.4636 -1.4411 -0.6644
  228ccc    H11 4502   2.525   8.977   5.667  2.3738 -1.1569 -3.3483
  229ccc     N1 4503   2.314   8.223   6.257  0.0411  0.1240 -0.0507
  229ccc     H4 4504   2.248   8.275   6.200 -1.4480  1.1290  2.4114
  229ccc     C3 4505   2.274   8.110   6.340 -0.2538  0.2954  0.6068
  229ccc     C4 4506   2.117   8.120   6.375 -0.6328 -0.2052 -0.6841
  229ccc     H5 4507   2.334   8.097   6.431  0.1429 -0.2800  0.2658
  229ccc     H6 4508   2.296   8.020   6.283  0.3391  1.0311 -0.3632
  229ccc     H7 4509   2.057   8.093   6.288 -1.0982 -1.3401 -0.0355
  229ccc     H8 4510   2.094   8.049   6.455  0.3117  1.8342  1.5416
  229ccc     N2 4511   2.056   8.254   6.409  0.2986 -0.0714 -0.0254
  229ccc     H9 4512   1.958   8.231   6.430  0.0416  0.7537 -0.2835
  229ccc    H10 4513   2.087   8.297   6.497 -0.0655  1.3841 -0.5815
  229ccc    H11 4514   2.046   8.315   6.327 -2.3665 -1.6870 -1.0293
  230ccc     N1 4515   5.060   8.288   6.183  0.0934 -0.4803 -0.0376
  230ccc     H4 4516   5.125   8.344   6.238 -0.0789 -0.1591 -0.1589
  230ccc     C3 4517   5.009   8.350   6.061  0.0748 -0.4819 -0.4657
  230ccc     C4 4518   4.867   8.399   6.089 -0.5011 -1.1022  0.8094
  230ccc     H5 4519   5.009   8.277   5.979 -0.9083 -0.1995 -0.7318
  230ccc     H6 4520   5.068   8.439   6.036 -2.8620  2.1943  1.4451
  230ccc     H7 4521   4.862   8.481   6.160 -3.0606 -2.1382  1.9215
  230ccc     H8 4522   4.832   8.447   5.997 -0.0356 -0.5874  0.8909
  230ccc     N2 4523   4.765   8.301   6.139 -0.0915 -0.1142 -0.2056
  230ccc     H9 4524   4.793   8.256   6.227 -0.5653 -3.2447 -1.5172
  230ccc    H10 4525   4.671   8.343   6.137  1.1291  2.8844 -1.9746
  230ccc    H11 4526   4.752   8.215   6.084 -2.0139 -1.7155  2.4999
  231ccc     N1 4527   5.333   7.735   6.744 -0.3261 -0.3447  0.0975
  231ccc     H4 4528   5.365   7.830   6.758  0.6237 -0.2131 -2.4096
  231ccc     C3 4529   5.326   7.636   6.857 -0.0461 -0.7173 -0.8092
  231ccc     C4 4530   5.408   7.512   6.806 -0.3868  0.2574 -0.6561
  231ccc     H5 4531   5.222   7.612   6.881 -0.1297 -0.7771 -1.2269
  231ccc     H6 4532   5.363   7.687   6.947  2.1458 -0.1460 -1.9540
  231ccc     H7 4533   5.366   7.475   6.713 -3.7367 -0.9782  1.1723
  231ccc     H8 4534   5.514   7.531   6.789 -0.1929 -1.6464 -1.8350
  231ccc     N2 4535   5.400   7.399   6.903  0.4165 -0.1272  0.0831
  231ccc     H9 4536   5.320   7.405   6.967  1.4170 -0.1986  1.3681
  231ccc    H10 4537   5.407   7.308   6.855  2.3125 -0.4856  0.9207
  231ccc    H11 4538   5.484   7.408   6.963 -0.1637 -1.0227  1.0601
  232ccc     N1 4539   5.263   8.354   5.120 -0.6163 -0.1370  0.4342
  232ccc     H4 4540   5.236   8.349   5.217  0.2065 -3.3449  0.6217
  232ccc     C3 4541   5.176   8.414   5.006 -0.0709  0.1875 -0.0811
  232ccc     C4 4542   5.248   8.528   4.941  0.2887 -1.0116  0.5219
  232ccc     H5 4543   5.078   8.443   5.046 -0.1772 -0.3564  0.0517
  232ccc     H6 4544   5.152   8.340   4.929  2.0966 -0.3058 -0.3590
  232ccc     H7 4545   5.330   8.503   4.875  0.4766  3.1660 -1.1454
  232ccc     H8 4546   5.173   8.580   4.881 -0.4553 -1.5585  0.9582
  232ccc     N2 4547   5.301   8.634   5.038  0.4043 -0.0102  0.0888
  232ccc     H9 4548   5.225   8.672   5.097 -0.5817 -1.5166 -0.1517
  232ccc    H10 4549   5.360   8.588   5.108 -1.8668 -0.8257  1.5984
  232ccc    H11 4550   5.355   8.709   4.993  0.8905 -0.3001  0.1866
  233ccc     N1 4551   6.025   7.765   5.259  0.5787 -0.0436  0.4869
  233ccc     H4 4552   6.008   7.753   5.358 -0.8357  0.4591  0.3266
  233ccc     C3 4553   6.151   7.725   5.182  0.3217 -0.9932  0.0061
  233ccc     C4 4554   6.286   7.762   5.261  0.1437  0.8919  0.8911
  233ccc     H5 4555   6.149   7.763   5.080 -0.9480  0.8065  0.6487
  233ccc     H6 4556   6.142   7.616   5.172 -0.5734 -0.8484 -0.9414
  233ccc     H7 4557   6.297   7.704   5.353  2.3575  0.3725  0.3674
  233ccc     H8 4558   6.373   7.729   5.204 -0.0250  0.9605  0.5970
  233ccc     N2 4559   6.326   7.907   5.271  0.4194  0.0547 -0.2111
  233ccc     H9 4560   6.248   7.971   5.292  0.6303 -0.0576  1.0470
  233ccc    H10 4561   6.401   7.916   5.342 -1.6714  2.0381  1.9274
  233ccc    H11 4562   6.375   7.940   5.187 -0.5475  1.7762 -0.1370
  234ccc     N1 4563   4.615   8.337   7.415 -0.2266 -0.0382  0.0912
  234ccc     H4 4564   4.648   8.399   7.342 -0.2489 -1.1046 -0.8449
  234ccc     C3 4565   4.612   8.384   7.554  0.8830  0.3028  0.0945
  234ccc     C4 4566   4.740   8.357   7.631 -0.3391  0.2216  0.3071
  234ccc     H5 4567   4.528   8.330   7.600 -1.5197  1.1976 -2.9505
  234ccc     H6 4568   4.577   8.488   7.552  2.1840  0.7784  0.7089
  234ccc     H7 4569   4.728   8.383   7.736 -2.8140  0.9740 -0.1104
  234ccc     H8 4570   4.781   8.256   7.617  1.5720  1.1190 -1.0134
  234ccc     N2 4571   4.844   8.453   7.574  0.9789 -0.0909 -0.0740
  234ccc     H9 4572   4.851   8.444   7.471  2.1084 -1.9116  0.1190
  234ccc    H10 4573   4.824   8.551   7.598  0.6975  0.3298 -1.8780
  234ccc    H11 4574   4.941   8.438   7.605  1.3425 -1.1039 -1.5693
  235ccc     N1 4575   4.390   7.614   7.582 -0.1647 -0.2362 -0.1709
  235ccc     H4 4576   4.297   7.652   7.568  0.5624  1.3386 -1.0213
  235ccc     C3 4577   4.425   7.553   7.710 -0.3878  0.4949  0.1248
  235ccc     C4 4578   4.418   7.650   7.821 -0.3562  0.7347  0.2013
  235ccc     H5 4579   4.524   7.506   7.709 -0.0468  1.2093  0.0078
  235ccc     H6 4580   4.345   7.481   7.731 -0.5844  0.7160  0.1357
  235ccc     H7 4581   4.513   7.701   7.807  0.0955 -0.3183 -0.7539
  235ccc     H8 4582   4.337   7.720   7.803 -0.5064  0.5875  0.3024
  235ccc     N2 4583   4.398   7.590   7.959  0.2833 -0.2270  0.1009
  235ccc     H9 4584   4.304   7.548   7.958  0.2609 -0.2072 -1.7135
  235ccc    H10 4585   4.467   7.515   7.973 -0.0923 -0.4976  0.5483
  235ccc    H11 4586   4.413   7.656   8.036 -0.6087 -0.2341  0.3013
  236ccc     N1 4587   4.274   6.304   7.461  0.4150  0.2270 -0.2704
  236ccc     H4 4588   4.216   6.313   7.544 -0.0837  0.6238 -0.6507
  236ccc     C3 4589   4.358   6.177   7.444  0.8627  0.2088  0.0120
  236ccc     C4 4590   4.494   6.177   7.520  1.0208  0.2234 -0.8645
  236ccc     H5 4591   4.374   6.154   7.338  0.1472  0.7940 -0.2256
  236ccc     H6 4592   4.302   6.093   7.487  0.0834  0.5859 -0.2559
  236ccc     H7 4593   4.574   6.220   7.460  1.0255 -0.5081 -1.3997
  236ccc     H8 4594   4.482   6.229   7.615 -0.4431  0.9526 -1.4141
  236ccc     N2 4595   4.538   6.031   7.556 -0.2778  0.3817  0.0065
  236ccc     H9 4596   4.639   6.023   7.573 -0.4329 -2.1946  0.1452
  236ccc    H10 4597   4.478   6.006   7.637  0.1424  0.0946  0.2328
  236ccc    H11 4598   4.519   5.966   7.479 -0.0192  1.4597 -0.9789
  237ccc     N1 4599   3.785   7.091   7.339 -0.8519  0.5015  0.6550
  237ccc     H4 4600   3.779   7.096   7.440  0.4820 -0.5873  0.8087
  237ccc     C3 4601   3.694   7.175   7.256  0.7409  0.2118  0.5523
  237ccc     C4 4602   3.770   7.304   7.228  0.0292 -0.1414 -0.0309
  237ccc     H5 4603   3.598   7.195   7.305  0.6196  2.7730 -0.5699
  237ccc     H6 4604   3.677   7.122   7.161  0.9527  1.5950 -0.2913
  237ccc     H7 4605   3.793   7.359   7.319 -2.2536  1.8264 -0.5429
  237ccc     H8 4606   3.857   7.276   7.169 -0.8740 -0.1319 -1.4191
  237ccc     N2 4607   3.697   7.403   7.135 -0.2360 -0.5951 -0.0766
  237ccc     H9 4608   3.674   7.358   7.045  2.5487  0.9181 -1.6766
  237ccc    H10 4609   3.609   7.442   7.173 -0.4026  0.8739 -1.8014
  237ccc    H11 4610   3.754   7.485   7.110 -0.9875 -0.3478 -1.0491
  238ccc     N1 4611   2.456   4.557   7.160  0.2487  0.3957 -0.2538
  238ccc     H4 4612   2.372   4.501   7.170  0.0450  0.6179 -0.7120
  238ccc     C3 4613   2.516   4.572   7.030 -0.4987  0.0703  0.5541
  238ccc     C4 4614   2.467   4.697   6.956 -0.1131  0.1197  0.4720
  238ccc     H5 4615   2.489   4.487   6.966 -1.8572  1.1613 -0.4006
  238ccc     H6 4616   2.624   4.577   7.044 -0.8789  0.9439  4.0921
  238ccc     H7 4617   2.472   4.782   7.025  1.0691 -0.5771  1.2698
  238ccc     H8 4618   2.523   4.713   6.863  1.0412 -2.1243  0.7154
  238ccc     N2 4619   2.316   4.685   6.907 -0.4638  0.0078 -0.0360
  238ccc     H9 4620   2.317   4.652   6.810 -1.2249 -0.2986  0.0500
  238ccc    H10 4621   2.270   4.618   6.971 -0.6546 -0.8078 -1.0180
  238ccc    H11 4622   2.263   4.774   6.915  0.5383  0.5209  1.3089
  239ccc     N1 4623   2.094   4.362   7.948 -0.0793  0.5735 -0.6573
  239ccc     H4 4624   2.048   4.446   7.982 -0.9023  0.0112 -0.3438
  239ccc     C3 4625   2.080   4.244   8.035  0.4686  0.6251  0.9783
  239ccc     C4 4626   2.178   4.254   8.157 -0.2851  0.5375  0.9864
  239ccc     H5 4627   2.103   4.157   7.972 -1.9034  1.0968 -0.6855
  239ccc     H6 4628   1.979   4.227   8.074 -0.3227  2.6574  0.0153
  239ccc     H7 4629   2.176   4.155   8.202 -0.5666  0.4595  0.8080
  239ccc     H8 4630   2.278   4.279   8.120  0.2176 -1.9437  0.4928
  239ccc     N2 4631   2.132   4.361   8.247  0.2589  0.2153 -0.2346
  239ccc     H9 4632   2.204   4.384   8.317  2.4456 -1.8148 -1.6442
  239ccc    H10 4633   2.098   4.444   8.196 -1.7029 -0.8816 -0.8383
  239ccc    H11 4634   2.049   4.324   8.296  0.0598  1.3969  0.3367
  240ccc     N1 4635   2.979   4.580   6.935 -0.2385  0.5302 -0.3829
  240ccc     H4 4636   3.062   4.522   6.936  0.7233  1.7690 -2.1610
  240ccc     C3 4637   2.887   4.566   6.820  0.2986  0.4412 -0.0771
  240ccc     C4 4638   2.935   4.463   6.717  0.2404  0.0869  0.2752
  240ccc     H5 4639   2.856   4.662   6.779 -0.4448 -0.5545 -1.9686
  240ccc     H6 4640   2.797   4.530   6.871  1.0108 -2.1857 -0.5023
  240ccc     H7 4641   2.865   4.468   6.634 -0.2295  1.8107  0.7190
  240ccc     H8 4642   3.032   4.488   6.673 -0.2610  0.0612 -0.8864
  240ccc     N2 4643   2.940   4.320   6.755  0.3096  0.5437  0.1808
  240ccc     H9 4644   2.971   4.258   6.679 -0.5816 -1.4589  1.3700
  240ccc    H10 4645   3.013   4.312   6.826  0.3515  1.8700  0.3148
  240ccc    H11 4646   2.846   4.289   6.784  0.5500 -1.1804 -0.7514
  241ccc     N1 4647   3.303   4.100   7.282  0.2648  0.2396  0.2709
  241ccc     H4 4648   3.239   4.054   7.345  0.1689  0.8579  0.6417
  241ccc     C3 4649   3.418   4.027   7.224 -1.0049  0.5688  0.3221
  241ccc     C4 4650   3.508   3.954   7.331  0.0867 -0.3709 -0.2957
  241ccc     H5 4651   3.487   4.090   7.166 -1.0912 -0.1712 -0.6052
  241ccc     H6 4652   3.389   3.953   7.148  1.4658  0.4343 -0.5941
  241ccc     H7 4653   3.541   4.031   7.400 -2.2999  3.0267 -2.6336
  241ccc     H8 4654   3.437   3.892   7.385  1.6575 -0.4546  1.7577
  241ccc     N2 4655   3.636   3.880   7.283 -0.4471  0.0044 -0.2363
  241ccc     H9 4656   3.717   3.944   7.275 -0.8610  0.7348  1.1002
  241ccc    H10 4657   3.666   3.801   7.341 -3.2260 -0.9590  0.0319
  241ccc    H11 4658   3.628   3.840   7.189 -0.2964  2.7583 -1.5282
  242ccc     N1 4659   1.497   6.340   8.515  0.5774 -0.3290 -0.0422
  242ccc     H4 4660   1.467   6.306   8.425  1.9791 -2.4527  0.2231
  242ccc     C3 4661   1.392   6.396   8.611  0.3210  0.1689  0.5469
  242ccc     C4 4662   1.325   6.516   8.539 -0.5737  0.1848 -0.8401
  242ccc     H5 4663   1.448   6.423   8.702 -0.1953 -1.2796  1.3160
  242ccc     H6 4664   1.315   6.324   8.641  0.6960 -0.2581  0.4874
  242ccc     H7 4665   1.408   6.577   8.504 -0.8257  2.4506  2.0574
  242ccc     H8 4666   1.257   6.487   8.459 -0.0020  0.5986 -1.4810
  242ccc     N2 4667   1.246   6.599   8.643  0.4918 -0.5408  0.7806
  242ccc     H9 4668   1.174   6.549   8.697  0.5326 -1.5309 -0.0515
  242ccc    H10 4669   1.304   6.644   8.715 -0.1335  1.2578  0.2159
  242ccc    H11 4670   1.202   6.678   8.593 -0.0952  0.8577  3.3564
  243ccc     N1 4671   1.870   5.750   8.167 -0.0242  0.2342  0.3943
  243ccc     H4 4672   1.787   5.697   8.191  0.1360  0.1045  0.6613
  243ccc     C3 4673   1.944   5.716   8.039  0.5841  0.1658  0.0638
  243ccc     C4 4674   1.885   5.585   7.975  0.1087 -0.4255  0.1536
  243ccc     H5 4675   2.047   5.697   8.073 -0.0493  2.1070  3.6185
  243ccc     H6 4676   1.939   5.803   7.972 -1.9867  0.6106  0.7216
  243ccc     H7 4677   1.888   5.502   8.046 -0.0979  0.0581  0.7371
  243ccc     H8 4678   1.780   5.602   7.951 -0.0809  1.2771  1.9385
  243ccc     N2 4679   1.955   5.539   7.853 -0.4094  0.7617 -0.4387
  243ccc     H9 4680   1.916   5.450   7.817  0.1957  0.8302 -1.3160
  243ccc    H10 4681   1.935   5.611   7.782  1.6029 -0.5771 -2.5414
  243ccc    H11 4682   2.058   5.534   7.858 -0.4796  0.3948  1.3362
  244ccc     N1 4683   2.787   6.954   8.518 -0.2810 -0.0220 -0.1917
  244ccc     H4 4684   2.751   6.877   8.573 -1.0694 -0.2775 -1.0418
  244ccc     C3 4685   2.917   7.003   8.563  0.3235 -0.3697 -0.0833
  244ccc     C4 4686   3.030   6.911   8.521  0.3603  0.2957 -0.0990
  244ccc     H5 4687   2.926   7.020   8.671  0.2347  0.2921 -0.1749
  244ccc     H6 4688   2.930   7.100   8.513 -2.4703 -1.4878 -3.3591
  244ccc     H7 4689   3.036   6.888   8.415 -0.1385  1.4606 -0.3875
  244ccc     H8 4690   3.130   6.950   8.537  0.8204 -0.8402 -0.0964
  244ccc     N2 4691   3.018   6.789   8.610  0.2827  0.1806 -0.0187
  244ccc     H9 4692   2.993   6.810   8.707 -2.4890 -2.0837 -0.1164
  244ccc    H10 4693   2.939   6.733   8.574  0.7225 -0.3139 -0.2299
  244ccc    H11 4694   3.102   6.730   8.603 -1.3616 -2.2769 -0.6841
  245ccc     N1 4695   2.092   7.060   8.566 -0.2487  0.2183 -0.0696
  245ccc     H4 4696   2.155   7.136   8.588 -3.8373  2.8330  2.6373
  245ccc     C3 4697   2.019   7.024   8.691 -0.0696  0.1532  0.4724
  245ccc     C4 4698   1.868   7.028   8.672 -0.1353  0.4025  0.1081
  245ccc     H5 4699   2.052   7.095   8.767 -0.0607  0.5051  0.1436
  245ccc     H6 4700   2.046   6.923   8.725 -0.7158 -0.8518 -1.7957
  245ccc     H7 4701   1.819   7.013   8.769 -2.1590 -0.7518 -1.0169
  245ccc     H8 4702   1.841   7.129   8.640 -0.2645 -0.2110 -1.8619
  245ccc     N2 4703   1.807   6.937   8.572  0.9321 -0.1032 -0.5243
  245ccc     H9 4704   1.719   6.975   8.534  1.9452 -0.1368 -3.0936
  245ccc    H10 4705   1.881   6.932   8.501  1.1981 -2.9263 -0.1632
  245ccc    H11 4706   1.799   6.842   8.610  0.6798 -0.2392 -0.9165
  246ccc     N1 4707   1.094   4.812   7.021  0.1384 -0.4095 -0.8608
  246ccc     H4 4708   1.095   4.858   7.111 -3.1129 -0.7625 -0.5095
  246ccc     C3 4709   0.988   4.847   6.927  0.1774 -0.1088  0.4532
  246ccc     C4 4710   0.849   4.871   6.990 -0.0306 -0.9977 -0.2731
  246ccc     H5 4711   0.979   4.764   6.857  0.2305 -1.5148  2.0550
  246ccc     H6 4712   1.015   4.939   6.872 -2.1074  0.6557  0.4926
  246ccc     H7 4713   0.846   4.971   7.035 -1.5424 -1.1726  0.0622
  246ccc     H8 4714   0.769   4.865   6.916 -1.1785  0.7261  0.7542
  246ccc     N2 4715   0.809   4.773   7.098 -0.3699  0.3507  0.3998
  246ccc     H9 4716   0.858   4.769   7.189  0.5132  0.8879 -0.0370
  246ccc    H10 4717   0.707   4.773   7.113 -0.5209 -2.6434  0.0542
  246ccc    H11 4718   0.836   4.684   7.054  3.5775  2.1830 -1.3748
  247ccc     N1 4719   1.493   4.894   6.528  0.3102  0.4221 -0.1909
  247ccc     H4 4720   1.573   4.857   6.479 -0.5810 -0.4430 -1.0406
  247ccc     C3 4721   1.404   4.970   6.435  0.2104 -0.3429  0.2962
  247ccc     C4 4722   1.398   4.907   6.288  0.5196  0.1102 -0.3873
  247ccc     H5 4723   1.434   5.076   6.430  0.1585 -0.3669 -0.8332
  247ccc     H6 4724   1.304   4.962   6.480  0.5235 -1.6281  0.8083
  247ccc     H7 4725   1.308   4.945   6.238  0.0394  0.1810  0.5145
  247ccc     H8 4726   1.476   4.946   6.221 -0.3183  0.9268 -0.9170
  247ccc     N2 4727   1.402   4.753   6.272 -0.3075  0.5468  0.1509
  247ccc     H9 4728   1.485   4.711   6.316  0.6139  0.1123 -1.8903
  247ccc    H10 4729   1.316   4.710   6.307 -0.6521  0.2987 -0.9742
  247ccc    H11 4730   1.415   4.737   6.171 -0.9520  2.2831 -0.2491
  248ccc     N1 4731   0.745   5.895   6.438 -0.6782 -0.3250 -0.0891
  248ccc     H4 4732   0.752   5.828   6.514 -0.1234 -1.4003 -1.0490
  248ccc     C3 4733   0.623   5.949   6.386  0.7288 -0.3453  0.1612
  248ccc     C4 4734   0.540   5.842   6.317  0.6739 -0.0561 -0.3218
  248ccc     H5 4735   0.642   6.036   6.322  1.6600 -0.7188 -0.0807
  248ccc     H6 4736   0.565   5.984   6.473 -1.4730 -1.3501 -0.8075
  248ccc     H7 4737   0.586   5.810   6.224  0.7299  1.6296 -0.9063
  248ccc     H8 4738   0.519   5.764   6.391 -0.3167  1.7752  1.4188
  248ccc     N2 4739   0.408   5.899   6.272  0.7163  0.4198 -0.3589
  248ccc     H9 4740   0.366   5.832   6.206 -0.6869 -0.4895  1.3593
  248ccc    H10 4741   0.340   5.901   6.350  1.2051  0.2366  0.0790
  248ccc    H11 4742   0.409   5.993   6.231  1.1827  1.7282  2.4276
  249ccc     N1 4743   1.418   6.120   6.764 -0.2658  0.2367  0.2893
  249ccc     H4 4744   1.490   6.072   6.711 -1.6878  1.6027 -3.1270
  249ccc     C3 4745   1.456   6.175   6.892 -0.3640  0.7144  0.4958
  249ccc     C4 4746   1.554   6.297   6.881  0.5279  0.6295  0.0802
  249ccc     H5 4747   1.511   6.104   6.955  0.0762  2.4661  2.2005
  249ccc     H6 4748   1.367   6.199   6.953 -2.1892 -0.2125 -1.6693
  249ccc     H7 4749   1.623   6.271   6.801  0.8569  2.4219 -0.2582
  249ccc     H8 4750   1.508   6.392   6.853  0.1671  0.8582  1.3776
  249ccc     N2 4751   1.645   6.315   6.995  0.0696  0.0182 -0.3434
  249ccc     H9 4752   1.733   6.353   6.958  2.2119 -2.2554  2.0316
  249ccc    H10 4753   1.599   6.374   7.067  1.3452  1.5472 -0.7259
  249ccc    H11 4754   1.677   6.232   7.048 -0.2548 -0.0860 -0.3052
  250ccc     N1 4755   1.187   7.130   6.682 -1.4313  0.0440  0.2548
  250ccc     H4 4756   1.204   7.223   6.646  0.8114 -0.3799  0.0807
  250ccc     C3 4757   1.186   7.108   6.825 -0.1306 -0.3554 -0.4508
  250ccc     C4 4758   1.133   7.239   6.899  0.0802 -0.0599 -0.3053
  250ccc     H5 4759   1.285   7.089   6.867 -0.2747 -0.1455 -0.0007
  250ccc     H6 4760   1.128   7.017   6.848  0.2324 -0.4148  0.2547
  250ccc     H7 4761   1.207   7.318   6.887 -1.1987  1.2357  0.0703
  250ccc     H8 4762   1.042   7.271   6.847  1.6420  1.3564 -2.3527
  250ccc     N2 4763   1.116   7.226   7.043  0.2157 -0.4555 -0.1642
  250ccc     H9 4764   1.048   7.150   7.061 -0.9648  0.4997 -0.4310
  250ccc    H10 4765   1.201   7.196   7.093  0.1605 -0.2886  0.0347
  250ccc    H11 4766   1.076   7.313   7.082 -0.7572 -1.1586  0.4545
  251ccc     N1 4767   1.424   7.531   6.147  0.2545 -0.3648  0.2846
  251ccc     H4 4768   1.507   7.549   6.202 -1.8730  2.2575  3.0145
  251ccc     C3 4769   1.361   7.647   6.079  0.1025  0.5085  0.0725
  251ccc     C4 4770   1.369   7.781   6.148  0.3249 -0.7447  0.1424
  251ccc     H5 4771   1.257   7.620   6.061  0.0819  0.4736  0.2381
  251ccc     H6 4772   1.392   7.649   5.974 -2.1436  0.0375 -0.6561
  251ccc     H7 4773   1.301   7.856   6.108  0.8472  0.6628  1.7959
  251ccc     H8 4774   1.342   7.770   6.253  0.7023  0.0169  0.3242
  251ccc     N2 4775   1.510   7.848   6.145 -0.1976 -0.6656 -0.6192
  251ccc     H9 4776   1.513   7.940   6.190 -1.2963 -1.8397  2.0744
  251ccc    H10 4777   1.566   7.779   6.197 -1.6374 -1.9236 -0.6690
  251ccc    H11 4778   1.557   7.851   6.054 -1.2709 -0.4635 -1.1871
  252ccc     N1 4779   2.919   6.690   6.508 -0.2273  0.1432 -0.2824
  252ccc     H4 4780   3.015   6.657   6.508 -0.5093 -0.7674 -1.5190
  252ccc     C3 4781   2.841   6.688   6.628 -0.6245 -0.7708 -0.3463
  252ccc     C4 4782   2.899   6.632   6.758 -0.2483 -0.2423  0.1446
  252ccc     H5 4783   2.753   6.624   6.625 -0.5228 -0.9364  0.1208
  252ccc     H6 4784   2.803   6.790   6.641 -2.1020 -1.3946  0.4046
  252ccc     H7 4785   2.832   6.630   6.844  0.9081 -2.7497  1.1067
  252ccc     H8 4786   2.933   6.529   6.745 -0.7533 -0.2614 -1.1245
  252ccc     N2 4787   3.031   6.689   6.800  0.4187 -0.4075  0.0603
  252ccc     H9 4788   3.059   6.651   6.892 -2.1439  2.3544  2.2031
  252ccc    H10 4789   3.102   6.666   6.730 -0.6422 -1.3361 -0.7528
  252ccc    H11 4790   3.016   6.791   6.808  0.2394 -0.0668 -3.3164
  253ccc     N1 4791   3.009   6.244   5.891  0.5829  0.3697  0.3431
  253ccc     H4 4792   3.084   6.306   5.864  0.0998  1.1005  0.6357
  253ccc     C3 4793   2.984   6.120   5.821 -0.0143 -0.1156 -0.0812
  253ccc     C4 4794   3.110   6.059   5.753 -0.2829  0.3515 -0.3782
  253ccc     H5 4795   2.915   6.122   5.736 -0.3992  1.0437  0.2415
  253ccc     H6 4796   2.970   6.037   5.892  0.7122 -0.7822 -0.6994
  253ccc     H7 4797   3.091   5.960   5.711 -1.0938  1.4030 -2.6694
  253ccc     H8 4798   3.137   6.120   5.666 -0.8559  1.9877  0.5380
  253ccc     N2 4799   3.236   6.052   5.839  0.0702 -0.6163 -0.1133
  253ccc     H9 4800   3.207   6.027   5.935 -2.0878 -0.4319 -0.6693
  253ccc    H10 4801   3.298   5.982   5.795  0.6798 -0.2933  0.2180
  253ccc    H11 4802   3.278   6.146   5.836 -2.4521  0.6079  0.4116
  254SOL     OW 4803   3.115  10.163   7.684 -0.1081 -0.2313 -0.1205
  254SOL    HW1 4804   3.121  10.259   7.678  0.4778 -0.1319  1.5859
  254SOL    HW2 4805   3.075  10.146   7.769 -0.3254 -1.5192 -0.4548
  255SOL     OW 4806   3.914   0.777   0.657 -0.1968 -0.0150 -0.1771
  255SOL    HW1 4807   3.884   0.809   0.572  0.1633 -0.9178 -0.6592
  255SOL    HW2 4808   3.961   0.697   0.637 -0.6741 -0.6002  0.9459
  256SOL     OW 4809   1.721   1.343  10.167 -0.2553  0.3659  0.0175
  256SOL    HW1 4810   1.715   1.247  10.167  1.1365  0.2645  0.3912
  256SOL    HW2 4811   1.779   1.364  10.094 -0.9083  0.9655 -0.3436
  257SOL     OW 4812   9.085   8.896   6.234  0.1316 -0.2906 -0.7489
  257SOL    HW1 4813   9.018   8.891   6.166  1.4960 -1.7707 -2.0568
  257SOL    HW2 4814   9.150   8.957   6.199  0.8562 -1.0866 -0.8284
  258SOL     OW 4815   2.283   9.174   1.327 -0.7116 -0.4659 -0.2645
  258SOL    HW1 4816   2.356   9.215   1.373 -1.4550  0.6760 -0.0532
  258SOL    HW2 4817   2.214   9.240   1.329 -1.5850 -1.3372 -0.8861
  259SOL     OW 4818   4.592   7.375   7.950 -0.0653  0.4049 -0.6329
  259SOL    HW1 4819   4.688   7.380   7.944  0.0491 -1.5041 -0.8541
  259SOL    HW2 4820   4.571   7.284   7.930 -1.7864  0.2759  1.4377
  260SOL     OW 4821   4.203   2.920   8.268  0.8938  0.1399  0.3897
  260SOL    HW1 4822   4.121   2.963   8.242  1.0540 -0.7428 -1.8185
  260SOL    HW2 4823   4.176   2.841   8.314  0.5680  1.0736  1.8491
  261SOL     OW 4824   3.827   3.829   5.846 -0.2301  0.2368 -0.1447
  261SOL    HW1 4825   3.859   3.881   5.772  0.5012 -0.0262 -0.0192
  261SOL    HW2 4826   3.906   3.796   5.889 -0.6490  0.2250  0.6444
  262SOL     OW 4827   4.032   5.430   1.119  0.0380  0.1885 -0.7905
  262SOL    HW1 4828   3.994   5.468   1.198 -1.9778 -1.7185 -0.7481
  262SOL    HW2 4829   4.027   5.499   1.053  0.6054  1.3987  0.4087
  263SOL     OW 4830   6.885   9.528   6.386  0.0561 -0.2296  0.2507
  263SOL    HW1 4831   6.836   9.571   6.457  2.5177 -0.5747  2.3150
  263SOL    HW2 4832   6.956   9.589   6.367 -1.1796  0.4398 -2.9445
  264SOL     OW 4833   9.699   3.016   3.781  0.1484 -0.1294  0.2724
  264SOL    HW1 4834   9.716   3.092   3.725 -4.2200  0.6685 -0.3026
  264SOL    HW2 4835   9.654   3.052   3.858  0.3294 -1.9235  1.2874
  265SOL     OW 4836   0.736   1.251   0.346  0.0966 -0.0755  0.5413
  265SOL    HW1 4837   0.745   1.189   0.419 -0.4447  0.3421  0.9704
  265SOL    HW2 4838   0.673   1.208   0.287  0.9716 -0.6764  0.0247
  266SOL     OW 4839   7.233   0.344   6.506  0.3877 -0.1882  0.7053
  266SOL    HW1 4840   7.170   0.416   6.511 -1.1113 -1.2338 -1.5585
  266SOL    HW2 4841   7.223   0.298   6.590 -0.0404  1.1078  1.3913
  267SOL     OW 4842   3.270   5.976   3.508  0.4462  0.4241 -0.0337
  267SOL    HW1 4843   3.325   5.974   3.586  1.2670  2.3319 -0.5146
  267SOL    HW2 4844   3.253   5.883   3.488  1.5949 -0.1360  1.4202
  268SOL     OW 4845   9.238   5.682   1.554 -0.2847 -0.5386 -0.0771
  268SOL    HW1 4846   9.275   5.671   1.466  0.9765 -0.9072  0.4809
  268SOL    HW2 4847   9.284   5.758   1.590 -0.7854 -0.3983  0.2758
  269SOL     OW 4848   8.204   8.991   5.517 -0.2664 -0.1470  0.8731
  269SOL    HW1 4849   8.146   9.067   5.525 -1.1667 -0.2710 -2.6101
  269SOL    HW2 4850   8.145   8.916   5.518  0.0390 -0.4296 -0.4091
  270SOL     OW 4851   8.685   0.866   0.619  0.0719  0.1502 -0.5646
  270SOL    HW1 4852   8.763   0.827   0.581 -0.5539  0.1203 -1.8944
  270SOL    HW2 4853   8.701   0.867   0.713  1.3652 -0.4988 -0.7630
  271SOL     OW 4854   4.246   3.126   0.350 -0.3681 -0.2395 -0.4266
  271SOL    HW1 4855   4.254   3.165   0.437  0.6638  1.7000 -1.3288
  271SOL    HW2 4856   4.206   3.041   0.366 -1.4097  0.5822  1.8084
  272SOL     OW 4857   7.840   2.205   2.442  0.6128  0.0930 -0.3673
  272SOL    HW1 4858   7.819   2.250   2.524 -1.7409 -1.6206  0.0570
  272SOL    HW2 4859   7.792   2.253   2.375 -0.3834 -0.6444 -0.1913
  273SOL     OW 4860   4.656   7.465   8.397  0.8759  0.0860  0.2662
  273SOL    HW1 4861   4.708   7.512   8.331  0.5738 -1.4500 -1.1279
  273SOL    HW2 4862   4.572   7.511   8.399  0.7281 -0.1203 -0.7806
  274SOL     OW 4863   3.436   9.914   2.761 -0.1201 -0.0816 -0.4447
  274SOL    HW1 4864   3.435   9.856   2.837 -0.6103 -1.2798 -1.3317
  274SOL    HW2 4865   3.375   9.984   2.784  0.5540  0.1671  0.6843
  275SOL     OW 4866   9.274   6.684   1.727  0.2863 -0.1121  0.1569
  275SOL    HW1 4867   9.180   6.698   1.735  0.3925  0.1819  0.9464
  275SOL    HW2 4868   9.292   6.694   1.633 -0.2001  1.5524  0.2051
  276SOL     OW 4869   4.627   9.211   3.689  0.1342 -0.1894 -0.0622
  276SOL    HW1 4870   4.540   9.250   3.700 -0.0426 -0.7211  0.4974
  276SOL    HW2 4871   4.682   9.283   3.657 -0.4256  0.2415 -0.0714
  277SOL     OW 4872   5.674   1.186   6.287  0.2898  0.5781 -0.3604
  277SOL    HW1 4873   5.707   1.265   6.330 -1.6007  1.6268 -0.7019
  277SOL    HW2 4874   5.653   1.126   6.358  1.2577  0.5767 -0.0677
  278SOL     OW 4875   7.432   2.705   8.079  0.4154  0.1668 -0.5387
  278SOL    HW1 4876   7.504   2.763   8.053  0.7119 -0.5667 -1.4121
  278SOL    HW2 4877   7.402   2.666   7.997  0.1108 -0.7874  0.0158
  279SOL     OW 4878   8.359   1.809   7.681 -0.3959 -0.8443  0.2106
  279SOL    HW1 4879   8.265   1.819   7.701 -0.4373 -0.6476 -0.0788
  279SOL    HW2 4880   8.376   1.716   7.696 -0.2036 -0.5394  2.0726
  280SOL     OW 4881   9.557   3.525   9.389 -0.0108  0.2597 -0.3004
  280SOL    HW1 4882   9.530   3.546   9.300  2.1313 -2.2445 -1.6872
  280SOL    HW2 4883   9.528   3.434   9.402  2.0774 -0.3487  0.4608
  281SOL     OW 4884   2.731   9.368   2.289 -0.3595 -0.9136 -0.0897
  281SOL    HW1 4885   2.735   9.274   2.306 -0.5281 -1.4099 -2.4541
  281SOL    HW2 4886   2.707   9.375   2.197  1.3892  1.4292 -0.4653
  282SOL     OW 4887   9.880   9.001   2.947 -0.0633  0.7237  0.5323
  282SOL    HW1 4888   9.807   8.942   2.934  0.6379 -0.4998  1.8992
  282SOL    HW2 4889   9.957   8.949   2.924  0.4801  1.5676  0.3925
  283SOL     OW 4890   9.122   6.096   0.785 -0.0524  0.0047 -0.1896
  283SOL    HW1 4891   9.033   6.101   0.751 -0.0564 -3.0543 -0.9617
  283SOL    HW2 4892   9.176   6.135   0.716 -0.4925 -1.8794 -1.6883
  284SOL     OW 4893   7.925   6.523   8.370  0.2826 -0.0612  0.3433
  284SOL    HW1 4894   7.848   6.549   8.421  1.9273  2.3851  1.7936
  284SOL    HW2 4895   7.953   6.604   8.328  2.2097 -0.8362  0.0433
  285SOL     OW 4896   1.702   2.612   0.811 -0.7791 -0.3331 -0.5334
  285SOL    HW1 4897   1.771   2.554   0.780 -0.7108  0.1596 -1.3443
  285SOL    HW2 4898   1.645   2.557   0.863 -1.6162 -1.5233 -2.5830
  286SOL     OW 4899   4.074   2.193   0.403  0.5603  0.0576 -0.2149
  286SOL    HW1 4900   4.112   2.123   0.455  1.0743  0.4728 -0.0168
  286SOL    HW2 4901   4.005   2.151   0.352  1.2516 -0.7028 -0.5376
  287SOL     OW 4902   0.575   6.405   4.649 -0.1200  0.0743 -0.0423
  287SOL    HW1 4903   0.496   6.455   4.626 -0.3057  0.0141  0.4579
  287SOL    HW2 4904   0.576   6.404   4.745  0.1897 -0.4045 -0.0487
  288SOL     OW 4905   4.694   3.019   0.543 -0.4468 -0.4721 -0.2395
  288SOL    HW1 4906   4.775   2.973   0.521 -1.0671 -1.8276  0.1835
  288SOL    HW2 4907   4.624   2.962   0.510 -1.2866 -0.6582  1.7159
  289SOL     OW 4908   9.169   1.829   4.452 -0.1414 -0.0415  0.1161
  289SOL    HW1 4909   9.106   1.893   4.417  1.0303  1.2716  0.3239
  289SOL    HW2 4910   9.222   1.805   4.376 -0.3125 -0.4541  0.1271
  290SOL     OW 4911   1.020   3.238   4.825 -0.0656 -0.2294 -0.2044
  290SOL    HW1 4912   1.000   3.284   4.743  0.6726  0.1489 -0.1897
  290SOL    HW2 4913   1.050   3.151   4.797  0.4642 -0.0022 -0.3662
  291SOL     OW 4914   4.894   9.171   0.644 -0.2093  0.4044  0.0202
  291SOL    HW1 4915   4.960   9.224   0.688 -1.4795  0.6270  1.8080
  291SOL    HW2 4916   4.814   9.223   0.650 -1.6263 -1.8092  2.2840
  292SOL     OW 4917   0.715   7.161   9.106  0.3496 -0.6236  0.4314
  292SOL    HW1 4918   0.626   7.152   9.140  1.0423 -0.1427  2.5388
  292SOL    HW2 4919   0.770   7.123   9.174  1.8917  1.0650  0.1998
  293SOL     OW 4920   7.925   6.171   1.083 -0.1145 -0.0952 -0.1597
  293SOL    HW1 4921   7.887   6.244   1.034  0.7767  0.9673  0.6825
  293SOL    HW2 4922   7.899   6.187   1.174  0.3979 -0.6281  0.0858
  294SOL     OW 4923   3.736   8.004   2.831  0.5184 -0.2609  0.2366
  294SOL    HW1 4924   3.664   8.054   2.868  0.2872 -0.5662  0.2019
  294SOL    HW2 4925   3.709   7.913   2.840  0.3889 -0.3410 -0.8140
  295SOL     OW 4926   0.555   1.377   8.735  0.3185  0.4236  0.6794
  295SOL    HW1 4927   0.516   1.465   8.737 -0.3849  0.1820  4.1857
  295SOL    HW2 4928   0.495   1.326   8.681 -1.3387  1.3198  1.5864
  296SOL     OW 4929   1.935   8.555   9.864 -0.1704 -0.0145  0.1252
  296SOL    HW1 4930   1.844   8.535   9.846 -0.3271 -0.5738  1.4387
  296SOL    HW2 4931   1.967   8.481   9.915  0.6430  0.7827  0.8261
  297SOL     OW 4932   1.218   8.642   9.767  0.1767  0.0971 -0.3410
  297SOL    HW1 4933   1.248   8.697   9.840 -0.3016  0.2108 -0.2264
  297SOL    HW2 4934   1.273   8.668   9.693  1.8699 -1.2442  0.3865
  298SOL     OW 4935   9.596   6.481   2.040 -0.0657  0.0569  0.6806
  298SOL    HW1 4936   9.635   6.517   2.120  1.6486  0.1063 -0.1293
  298SOL    HW2 4937   9.657   6.412   2.012 -2.1539 -2.0359  0.9912
  299SOL     OW 4938   9.123   1.778   6.762  0.3631 -0.0688 -0.0127
  299SOL    HW1 4939   9.115   1.733   6.846  0.5522  1.4143  0.8318
  299SOL    HW2 4940   9.034   1.802   6.739  0.4479  0.6567  0.4100
  300SOL     OW 4941   6.383   5.336   9.663 -0.8567 -0.1417 -0.6377
  300SOL    HW1 4942   6.341   5.409   9.617  1.8714  1.4327 -0.8607
  300SOL    HW2 4943   6.337   5.331   9.747 -0.5217  2.5511 -0.2039
  301SOL     OW 4944   4.021   3.674   2.211 -0.2294 -0.0821  0.1010
  301SOL    HW1 4945   3.952   3.609   2.196 -0.2749 -0.2397  0.9447
  301SOL    HW2 4946   4.061   3.647   2.293 -0.9729  1.5812  1.0679
  302SOL     OW 4947   4.159   4.271   8.768  0.2351  0.1883 -0.5729
  302SOL    HW1 4948   4.157   4.366   8.758 -0.9748  0.5336  2.0636
  302SOL    HW2 4949   4.116   4.237   8.689  0.8128  1.7895 -1.6223
  303SOL     OW 4950   8.687   9.331   4.458 -0.0801  0.3052 -0.0094
  303SOL    HW1 4951   8.724   9.364   4.540  0.7220  1.4153 -0.7845
  303SOL    HW2 4952   8.592   9.332   4.472  0.0200  1.0610  0.7119
  304SOL     OW 4953   8.092   2.993   4.354  0.3558 -0.1108  0.1930
  304SOL    HW1 4954   8.163   3.053   4.332 -0.0747  0.4189  0.2427
  304SOL    HW2 4955   8.127   2.906   4.333  1.7023 -0.0465  1.9286
  305SOL     OW 4956   3.427   7.155   4.516 -0.2912 -0.0385  0.3509
  305SOL    HW1 4957   3.467   7.089   4.573 -3.3057 -1.6098  0.8437
  305SOL    HW2 4958   3.373   7.105   4.455 -2.2471  1.8948  0.3656
  306SOL     OW 4959   9.457   2.814   9.181 -0.1571 -0.4740 -0.4026
  306SOL    HW1 4960   9.539   2.862   9.195 -0.3068 -0.6572  1.1919
  306SOL    HW2 4961   9.422   2.798   9.268 -2.4061  0.4336 -1.0497
  307SOL     OW 4962   2.410   2.976  10.271 -0.6011  0.2886 -0.0559
  307SOL    HW1 4963   2.494   3.021  10.276  1.7401 -3.7748  1.8882
  307SOL    HW2 4964   2.392   2.968  10.177  0.9165  1.5618 -0.4963
  308SOL     OW 4965   9.164   4.607   6.264 -0.0884  0.0317 -0.0274
  308SOL    HW1 4966   9.096   4.564   6.315  0.5692 -2.1805 -0.8968
  308SOL    HW2 4967   9.172   4.554   6.185  3.7447 -0.8591  0.7403
  309SOL     OW 4968   7.050   4.265   7.133  0.2638  0.0076  0.4203
  309SOL    HW1 4969   7.084   4.307   7.054 -1.1880  2.2190  0.8729
  309SOL    HW2 4970   7.124   4.264   7.194  1.0474 -0.5612 -0.5159
  310SOL     OW 4971   8.101   8.774   5.307  0.2450 -0.3433  0.2683
  310SOL    HW1 4972   8.036   8.736   5.365  0.2496  0.1240  0.5820
  310SOL    HW2 4973   8.151   8.699   5.274 -0.3451 -0.6895  0.1481
  311SOL     OW 4974   9.462   1.389   6.533  0.2248  0.1280 -0.4485
  311SOL    HW1 4975   9.467   1.470   6.584 -0.2202  0.7461 -1.3582
  311SOL    HW2 4976   9.520   1.328   6.580  0.9393  1.1070 -0.0103
  312SOL     OW 4977   4.655   2.312   0.017  0.3086  0.1481 -0.1486
  312SOL    HW1 4978   4.620   2.235   0.062 -1.8823  0.2730 -1.4628
  312SOL    HW2 4979   4.635   2.386   0.074 -2.8427  0.3625 -1.3604
  313SOL     OW 4980   4.190   6.903   8.510 -0.2762  0.4393 -0.1253
  313SOL    HW1 4981   4.265   6.955   8.538 -1.0015  1.5614 -0.2337
  313SOL    HW2 4982   4.204   6.890   8.416  1.5651 -2.3622  0.4111
  314SOL     OW 4983   3.975   4.561   0.277  0.0409 -0.0566 -0.0518
  314SOL    HW1 4984   4.041   4.495   0.295  0.0649 -0.0058  0.0488
  314SOL    HW2 4985   4.006   4.640   0.322 -0.1087 -0.0456  0.0372
  315SOL     OW 4986   3.632   1.886   8.940 -0.1773 -0.4342  0.2600
  315SOL    HW1 4987   3.584   1.865   8.860  1.1581 -0.2857 -0.6065
  315SOL    HW2 4988   3.573   1.944   8.989  0.0991  1.9456 -1.9927
  316SOL     OW 4989   1.368   8.389  10.230  0.2251 -0.0007  0.1692
  316SOL    HW1 4990   1.300   8.342  10.183  0.0500  0.9664 -0.5800
  316SOL    HW2 4991   1.376   8.343  10.313 -1.6446  0.1175  0.4595
  317SOL     OW 4992   5.765   2.307   2.987 -0.1341  0.5167 -0.9062
  317SOL    HW1 4993   5.825   2.313   3.061 -1.4401  0.8350  0.1482
  317SOL    HW2 4994   5.807   2.243   2.928  0.1007 -1.0815  0.8930
  318SOL     OW 4995   2.024   7.431   0.076  0.2163 -0.2019 -0.2936
  318SOL    HW1 4996   2.078   7.374   0.021 -0.3023  0.8365 -1.9630
  318SOL    HW2 4997   1.941   7.384   0.085  0.3619 -0.4563 -0.2730
  319SOL     OW 4998   2.894   6.659   0.480  0.1337 -0.2251 -0.4279
  319SOL    HW1 4999   2.811   6.642   0.523  0.2463  1.5134  0.5309
  319SOL    HW2 5000   2.904   6.586   0.418 -1.1714 -1.4732  0.7747
  320SOL     OW 5001   9.740   3.537   5.883  0.4833  0.4384 -0.4723
  320SOL    HW1 5002   9.678   3.499   5.945 -1.3829  1.1716 -1.8224
  320SOL    HW2 5003   9.803   3.584   5.939 -1.4987  1.6288  0.8793
  321SOL     OW 5004   1.357   3.548   7.766 -0.6110 -0.2298  0.6407
  321SOL    HW1 5005   1.405   3.522   7.845  0.0178 -1.2005 -0.0423
  321SOL    HW2 5006   1.368   3.643   7.762 -0.5925 -0.1719  1.6775
  322SOL     OW 5007   4.007   8.437   4.466  0.2494 -0.1315 -0.1105
  322SOL    HW1 5008   4.001   8.516   4.412  0.4761  0.3427  0.5292
  322SOL    HW2 5009   3.999   8.470   4.556 -0.7828 -0.9694  0.1186
  323SOL     OW 5010   3.074   1.921   7.823 -0.2131  0.1766 -0.1572
  323SOL    HW1 5011   3.142   1.988   7.821 -0.8629  0.8456 -0.0435
  323SOL    HW2 5012   3.122   1.840   7.840  0.4821  0.7328  0.6044
  324SOL     OW 5013   5.763   8.914   3.741  0.0561 -0.0463  0.0285
  324SOL    HW1 5014   5.815   8.994   3.753 -1.5197  1.0301 -0.0111
  324SOL    HW2 5015   5.815   8.860   3.682  0.7329  1.3605 -0.7118
  325SOL     OW 5016   1.672   8.853   9.798  0.0113  0.0751  0.2710
  325SOL    HW1 5017   1.654   8.919   9.864  0.5510 -0.0303  0.5294
  325SOL    HW2 5018   1.660   8.769   9.844 -0.1206 -0.0049  0.0940
  326SOL     OW 5019   0.780   3.105   6.202  0.6533  0.1556  0.0764
  326SOL    HW1 5020   0.800   3.178   6.260 -2.1184  1.4053 -0.3774
  326SOL    HW2 5021   0.808   3.134   6.115  0.7852  0.0959  0.0980
  327SOL     OW 5022   6.117  10.258   5.425 -0.2570 -0.3841 -0.0483
  327SOL    HW1 5023   6.184  10.209   5.473 -0.0493 -0.1821 -0.1280
  327SOL    HW2 5024   6.079  10.316   5.490  0.0674 -0.0673 -0.1404
  328SOL     OW 5025   5.470   4.864   9.187  0.3829  0.7621  0.5985
  328SOL    HW1 5026   5.447   4.852   9.279 -0.5818 -2.2964  0.0963
  328SOL    HW2 5027   5.552   4.815   9.176 -0.1979 -0.0251 -0.3962
  329SOL     OW 5028   6.075   3.197   6.976  0.0432 -0.2403  0.2125
  329SOL    HW1 5029   5.991   3.154   6.962  0.2661 -0.6372  0.0987
  329SOL    HW2 5030   6.081   3.209   7.070 -0.7790  1.0705  0.1309
  330SOL     OW 5031   7.392   0.691   2.418 -0.1680  0.0088 -0.5102
  330SOL    HW1 5032   7.457   0.656   2.478 -1.0002  0.3386  0.6140
  330SOL    HW2 5033   7.364   0.616   2.366 -0.3565 -0.5598  0.3915
  331SOL     OW 5034   3.688   0.377   0.509 -0.3400 -0.1901 -0.5244
  331SOL    HW1 5035   3.671   0.471   0.522  0.9268  0.0124 -0.2487
  331SOL    HW2 5036   3.723   0.371   0.420  2.8970  0.1177  0.5973
  332SOL     OW 5037   0.114   2.436   1.974 -0.0334 -0.0944 -0.6161
  332SOL    HW1 5038   0.142   2.479   1.892  1.0776 -2.9081 -1.8675
  332SOL    HW2 5039   0.062   2.361   1.945 -1.0539 -0.2182  1.3830
  333SOL     OW 5040   3.057   6.483   8.896 -0.0029 -0.2397  0.7377
  333SOL    HW1 5041   3.042   6.430   8.974  0.5330 -1.8937 -0.2392
  333SOL    HW2 5042   2.990   6.454   8.834  0.9832 -0.5913 -0.1927
  334SOL     OW 5043   5.141   9.324   2.533 -0.1466  0.3741  0.6516
  334SOL    HW1 5044   5.113   9.350   2.620 -0.4033  1.2826  0.3130
  334SOL    HW2 5045   5.156   9.406   2.487  0.3502 -0.0950 -0.0455
  335SOL     OW 5046   3.705   6.079   0.520  0.3150  0.3225  0.1840
  335SOL    HW1 5047   3.671   6.058   0.607  2.0362 -2.4353  0.3252
  335SOL    HW2 5048   3.773   6.144   0.535 -1.2306  1.9427  0.4972
  336SOL     OW 5049   7.103   2.534   2.813 -0.0498  0.4606  0.5560
  336SOL    HW1 5050   7.100   2.620   2.770 -2.3963 -0.3467 -1.1020
  336SOL    HW2 5051   7.059   2.548   2.897 -2.9176  0.4520 -0.8145
  337SOL     OW 5052  10.016   0.523   5.429 -0.2900 -0.4886 -0.3576
  337SOL    HW1 5053  10.004   0.451   5.492  2.7425 -1.7235 -1.0077
  337SOL    HW2 5054   9.983   0.489   5.346  0.8052 -1.0493 -0.5833
  338SOL     OW 5055   6.640   6.059  10.110 -0.0482 -0.8203 -0.3638
  338SOL    HW1 5056   6.628   6.067  10.015 -1.1620  0.6369 -0.1347
  338SOL    HW2 5057   6.630   6.149  10.143  1.2413 -1.1527  1.0495
  339SOL     OW 5058   0.302   0.658   5.431 -0.1962 -0.5584  0.9070
  339SOL    HW1 5059   0.322   0.599   5.503  0.0136 -1.6711 -0.0392
  339SOL    HW2 5060   0.385   0.673   5.387 -0.6543 -1.6810 -0.4160
  340SOL     OW 5061   3.650  10.008   8.431  0.4436 -0.6688  0.5342
  340SOL    HW1 5062   3.615  10.088   8.472 -0.3980 -0.5891 -0.3200
  340SOL    HW2 5063   3.585   9.941   8.450  0.6915 -0.9408  0.4302
  341SOL     OW 5064   3.083   4.765   0.669  0.1706  0.1360  0.6852
  341SOL    HW1 5065   3.114   4.843   0.716 -1.5166  1.8477 -0.8515
  341SOL    HW2 5066   3.092   4.788   0.576  0.0745 -1.7182  0.1863
  342SOL     OW 5067   3.918   0.451   9.650 -0.3060  0.0642 -0.0413
  342SOL    HW1 5068   3.912   0.544   9.628  0.1861 -0.2575 -1.7304
  342SOL    HW2 5069   3.952   0.410   9.570 -0.2102 -1.5250  0.7742
  343SOL     OW 5070   8.584   5.733   8.267 -0.1750  0.1752 -0.0389
  343SOL    HW1 5071   8.591   5.797   8.197  0.6199  0.8871  0.6700
  343SOL    HW2 5072   8.490   5.727   8.285 -0.2637  1.0919 -0.1669
  344SOL     OW 5073   1.734   2.252   7.971  0.0687 -0.0360  0.0293
  344SOL    HW1 5074   1.760   2.277   8.059 -0.0958 -0.8913  0.3290
  344SOL    HW2 5075   1.685   2.328   7.938 -1.8899 -0.5450  1.5467
  345SOL     OW 5076   0.774   8.047   3.181 -0.2729 -0.0008  0.0634
  345SOL    HW1 5077   0.786   7.954   3.202 -0.1456 -0.0689 -0.3015
  345SOL    HW2 5078   0.831   8.093   3.242 -1.2958 -0.0826  1.1115
  346SOL     OW 5079   1.256   3.980   3.006  0.4266  0.2222  0.5532
  346SOL    HW1 5080   1.218   4.017   3.086  1.2328  0.5902  0.7863
  346SOL    HW2 5081   1.188   3.924   2.970 -0.1361  0.4579  1.2268
  347SOL     OW 5082   4.052   5.800   5.790 -0.2581  0.2633 -0.2715
  347SOL    HW1 5083   4.023   5.863   5.856 -0.8797  0.3634 -0.6331
  347SOL    HW2 5084   4.147   5.797   5.800 -0.3151  0.5029  0.4248
  348SOL     OW 5085   1.119   3.564   9.628 -0.2479  0.4489 -0.1264
  348SOL    HW1 5086   1.169   3.644   9.644  1.3102 -0.6668  0.9317
  348SOL    HW2 5087   1.166   3.521   9.556 -0.6632  0.1655 -0.2287
  349SOL     OW 5088   9.929   9.702   5.873  0.2798  0.5776  0.5778
  349SOL    HW1 5089  10.014   9.712   5.916  0.1358  1.6990  0.6244
  349SOL    HW2 5090   9.950   9.665   5.788  0.5038 -2.5819  1.8526
  350SOL     OW 5091   0.828   9.424   7.475  0.1813 -0.3259 -0.1239
  350SOL    HW1 5092   0.751   9.439   7.529  1.6749 -1.4923  2.5077
  350SOL    HW2 5093   0.873   9.509   7.472  0.9176 -0.5998  1.9434
  351SOL     OW 5094   0.876   5.849   8.923 -0.0294 -0.2376  0.1656
  351SOL    HW1 5095   0.786   5.859   8.952  0.0528 -0.8605  0.6419
  351SOL    HW2 5096   0.878   5.763   8.881  0.4687 -0.4590  0.6370
  352SOL     OW 5097   8.981   2.011   0.491 -0.1017  0.9996  0.2806
  352SOL    HW1 5098   8.965   2.101   0.464 -0.7053  0.6415 -0.6176
  352SOL    HW2 5099   8.993   2.015   0.586 -0.7605  1.9440  0.3331
  353SOL     OW 5100   2.635   3.567   1.584 -0.5527 -0.4116 -0.0124
  353SOL    HW1 5101   2.669   3.645   1.626 -1.1102  0.9799 -1.9862
  353SOL    HW2 5102   2.573   3.530   1.647  0.9077 -0.2442  1.6093
  354SOL     OW 5103   2.798   6.366   1.307 -0.1715  0.7987 -0.2151
  354SOL    HW1 5104   2.722   6.389   1.253 -1.1752  0.1292  0.8704
  354SOL    HW2 5105   2.764   6.304   1.371  1.6736 -0.8616 -0.7455
  355SOL     OW 5106   1.536  10.122   9.740  0.0813  0.4946  0.6979
  355SOL    HW1 5107   1.492  10.189   9.686  0.0592  0.3024  0.4773
  355SOL    HW2 5108   1.519  10.150   9.830  0.4849  1.0568  0.6065
  356SOL     OW 5109   7.619   6.819   5.315 -0.0600 -0.5245 -0.0868
  356SOL    HW1 5110   7.690   6.769   5.356 -0.8543 -1.0390  0.7095
  356SOL    HW2 5111   7.580   6.868   5.387 -0.5535 -0.3032 -0.4994
  357SOL     OW 5112   2.801   5.461   6.239 -0.0821  0.5251 -0.2630
  357SOL    HW1 5113   2.802   5.556   6.233  0.3981  0.5655  0.4275
  357SOL    HW2 5114   2.712   5.437   6.212 -0.4593  1.2213  0.3243
  358SOL     OW 5115   3.995   8.485  10.065  0.1834 -0.2890  0.4259
  358SOL    HW1 5116   3.962   8.409  10.111 -0.4918 -0.2413  0.0263
  358SOL    HW2 5117   4.019   8.547  10.135  1.8488 -1.2906  0.7996
  359SOL     OW 5118   3.464   9.917   5.102  0.1166 -0.4970  0.4711
  359SOL    HW1 5119   3.475   9.844   5.041 -1.7938  0.5883 -1.2957
  359SOL    HW2 5120   3.553   9.943   5.124  0.8788 -1.5126 -1.1786
  360SOL     OW 5121   1.215   4.546   5.641  0.1316  0.4196 -0.2220
  360SOL    HW1 5122   1.138   4.559   5.586  0.1766  1.2930 -0.1036
  360SOL    HW2 5123   1.192   4.589   5.724 -0.7094 -2.5404  1.2011
  361SOL     OW 5124   0.284   3.083   8.475  0.0345  0.0107 -0.2449
  361SOL    HW1 5125   0.282   2.997   8.434 -1.5660  0.3106 -0.8680
  361SOL    HW2 5126   0.340   3.136   8.418 -1.4556  0.1782 -1.6251
  362SOL     OW 5127   7.958   0.716   0.655  0.0434 -0.0198  0.0285
  362SOL    HW1 5128   8.037   0.682   0.696  0.9649 -0.6717 -2.1374
  362SOL    HW2 5129   7.972   0.811   0.652 -0.2664  0.1049  1.5609
  363SOL     OW 5130   0.724   3.104   9.946  0.2678  0.2848 -0.2334
  363SOL    HW1 5131   0.694   3.014   9.932 -1.1179  0.6567  0.1456
  363SOL    HW2 5132   0.692   3.127  10.033  0.5795  1.1546 -0.3326
  364SOL     OW 5133   5.040   2.718   7.077 -0.7335  0.2735 -0.3024
  364SOL    HW1 5134   5.131   2.696   7.096 -0.8532  1.4603  2.1431
  364SOL    HW2 5135   5.046   2.796   7.021 -0.2129  0.4991  0.0507
  365SOL     OW 5136   7.199   4.958   3.270 -0.1215 -0.0336 -0.2176
  365SOL    HW1 5137   7.235   4.926   3.188  0.2689  0.2181 -0.1432
  365SOL    HW2 5138   7.129   5.019   3.244  0.1725  0.2401 -0.3628
  366SOL     OW 5139   6.329   6.331   0.815 -0.2775  0.1534 -0.0898
  366SOL    HW1 5140   6.405   6.373   0.775 -0.6539 -0.0055 -0.9924
  366SOL    HW2 5141   6.261   6.335   0.748 -1.0992  0.3708  0.7304
  367SOL     OW 5142   4.469   2.896   3.372 -0.4033 -0.2353  0.0997
  367SOL    HW1 5143   4.546   2.871   3.320 -0.4218 -1.0775  0.4595
  367SOL    HW2 5144   4.504   2.951   3.442 -0.5200  1.9493 -1.4500
  368SOL     OW 5145   4.073   2.618   3.667 -0.4607  0.3379 -0.6853
  368SOL    HW1 5146   4.120   2.550   3.618 -2.9839 -2.2114  0.1834
  368SOL    HW2 5147   4.114   2.618   3.753 -0.6261 -0.2588 -0.6080
  369SOL     OW 5148   1.820   5.896   1.576 -0.3486 -0.1342 -0.0111
  369SOL    HW1 5149   1.765   5.875   1.500  0.2083  0.5208 -0.6101
  369SOL    HW2 5150   1.865   5.977   1.551  1.4422 -1.0276  0.1736
  370SOL     OW 5151   1.941   5.079   9.889 -0.0073 -0.2791  0.3129
  370SOL    HW1 5152   2.025   5.123   9.879 -0.1528 -0.2728 -1.1765
  370SOL    HW2 5153   1.907   5.073   9.799 -1.4248 -0.5959  0.8516
  371SOL     OW 5154   8.426   6.157   8.462 -0.4365  0.4788 -0.1474
  371SOL    HW1 5155   8.419   6.234   8.518 -0.7749 -0.1941  0.7735
  371SOL    HW2 5156   8.500   6.108   8.498 -0.0145  0.5262 -0.9296
  372SOL     OW 5157   4.281   3.990   0.564 -0.2194 -0.4721 -0.2540
  372SOL    HW1 5158   4.226   4.045   0.620  0.0198  2.8083 -2.9784
  372SOL    HW2 5159   4.221   3.954   0.499  0.1539 -0.7402 -0.4568
  373SOL     OW 5160   9.926   1.016   4.025  0.6383  0.5948 -0.3673
  373SOL    HW1 5161   9.965   1.057   3.948  1.0006  1.1455  0.0966
  373SOL    HW2 5162   9.951   1.073   4.098 -1.1700  1.0497 -0.0617
  374SOL     OW 5163   5.141   7.318   6.683  0.1187  0.1312  0.0876
  374SOL    HW1 5164   5.086   7.380   6.637  0.0104 -0.6827 -0.9118
  374SOL    HW2 5165   5.202   7.285   6.617 -0.6486 -1.7692  0.2558
  375SOL     OW 5166   1.169   8.001   0.456 -0.1121 -0.5501  0.1426
  375SOL    HW1 5167   1.208   7.960   0.379  1.9404  0.4699  0.5840
  375SOL    HW2 5168   1.235   8.062   0.487 -1.9674  1.0664  1.1415
  376SOL     OW 5169   0.487   9.980   0.395  0.0500 -0.3980  0.2202
  376SOL    HW1 5170   0.559   9.924   0.367 -1.1925 -1.1464 -1.7527
  376SOL    HW2 5171   0.502  10.064   0.351  0.2788 -0.2080  0.6624
  377SOL     OW 5172   3.684   1.679   1.815  0.1125 -0.0260 -0.4126
  377SOL    HW1 5173   3.737   1.616   1.767  1.8719  0.8469  0.3126
  377SOL    HW2 5174   3.742   1.715   1.881 -1.3951  0.9887  0.4271
  378SOL     OW 5175   3.674   0.904   6.832 -0.0609 -0.1829 -0.1717
  378SOL    HW1 5176   3.621   0.830   6.861 -0.6571  0.1106 -0.4930
  378SOL    HW2 5177   3.699   0.949   6.913  1.3321 -1.4040  0.1174
  379SOL     OW 5178   8.896   1.445   8.624 -0.1877  0.3588  0.0169
  379SOL    HW1 5179   8.922   1.502   8.697 -0.3005 -1.0956  1.2398
  379SOL    HW2 5180   8.975   1.394   8.605  0.2045  1.5226 -1.7141
  380SOL     OW 5181   1.511   1.240   0.462  0.2015  0.1744  0.3334
  380SOL    HW1 5182   1.555   1.190   0.531 -1.3015 -0.7279  0.6934
  380SOL    HW2 5183   1.498   1.327   0.501  0.3094 -0.0087  0.7927
  381SOL     OW 5184   5.563   3.661   6.426  0.2565  0.2653  0.2716
  381SOL    HW1 5185   5.489   3.715   6.396 -0.1127 -0.0966  0.5115
  381SOL    HW2 5186   5.639   3.719   6.421  0.0102  0.5470 -0.2848
  382SOL     OW 5187   4.660   6.500   9.923  1.0898 -0.0837 -0.3222
  382SOL    HW1 5188   4.698   6.583   9.952  1.8003 -0.0431 -1.3171
  382SOL    HW2 5189   4.716   6.473   9.850  0.3551 -1.0117 -0.5500
  383SOL     OW 5190   8.508   2.521   3.647 -0.0210 -0.3897 -0.2131
  383SOL    HW1 5191   8.482   2.432   3.671 -0.0527 -0.4002 -0.2865
  383SOL    HW2 5192   8.426   2.565   3.626  0.0120 -0.4006 -0.3692
  384SOL     OW 5193  10.150   6.542   8.633 -0.2343  0.0773  0.4541
  384SOL    HW1 5194  10.147   6.516   8.541  0.4735 -0.5343  0.5942
  384SOL    HW2 5195  10.171   6.635   8.631  1.7855 -0.3500  0.0161
  385SOL     OW 5196   2.239   8.505   7.294 -0.1667  0.0214 -0.3381
  385SOL    HW1 5197   2.212   8.559   7.219 -0.9969  0.7406  0.4519
  385SOL    HW2 5198   2.327   8.537   7.316 -0.1753  0.2376 -0.6130
  386SOL     OW 5199   3.714   2.137   8.690  0.3561 -0.9402  0.1610
  386SOL    HW1 5200   3.738   2.130   8.783 -0.6410 -1.7380  0.3820
  386SOL    HW2 5201   3.639   2.078   8.681 -2.0236  1.9120 -0.3200
  387SOL     OW 5202   0.446   8.057   3.721 -0.7837  0.1753  0.8187
  387SOL    HW1 5203   0.506   7.990   3.752 -0.7882 -0.6380 -0.8499
  387SOL    HW2 5204   0.486   8.091   3.641 -1.5534  1.0531  0.7844
  388SOL     OW 5205  10.241   4.420   9.071  0.0128 -0.1531 -0.7036
  388SOL    HW1 5206  10.219   4.327   9.071  0.6976 -0.3772  1.4304
  388SOL    HW2 5207  10.206   4.454   8.988 -2.0828 -1.8744 -0.6023
  389SOL     OW 5208   5.801   1.881   4.725 -0.3087 -0.5431  0.1700
  389SOL    HW1 5209   5.892   1.896   4.699 -0.6601  1.1099 -0.2131
  389SOL    HW2 5210   5.783   1.791   4.699  0.6916 -0.3382 -1.3323
  390SOL     OW 5211   3.477   4.816   0.804  0.1886  0.1781 -0.3873
  390SOL    HW1 5212   3.456   4.894   0.753  0.1292  0.6357  0.3104
  390SOL    HW2 5213   3.543   4.845   0.867  1.4949 -0.7756 -1.2562
  391SOL     OW 5214   2.496   9.929   8.623  0.9043 -0.5060 -0.4071
  391SOL    HW1 5215   2.558   9.955   8.692  1.2745 -0.1663 -0.8625
  391SOL    HW2 5216   2.551   9.897   8.552  0.5650 -0.0192 -0.8931
  392SOL     OW 5217   3.850   3.933   7.761 -0.4801  0.1753 -0.2701
  392SOL    HW1 5218   3.918   3.978   7.711  0.2717 -1.0262 -0.3430
  392SOL    HW2 5219   3.814   4.001   7.819  1.2415  0.6549  0.2731
  393SOL     OW 5220   7.694   4.583   0.149  0.6586  0.0971  0.4088
  393SOL    HW1 5221   7.730   4.500   0.116  0.3219 -0.3745  1.1865
  393SOL    HW2 5222   7.751   4.605   0.223  1.3074  1.0551 -0.3527
  394SOL     OW 5223   1.146   7.870   2.115 -0.0851 -0.4914  0.4370
  394SOL    HW1 5224   1.136   7.878   2.020  0.2438  0.1444  0.4537
  394SOL    HW2 5225   1.238   7.889   2.131 -0.6039  1.6361  1.1102
  395SOL     OW 5226   1.903   9.940   8.883  0.7120 -0.3745  0.3118
  395SOL    HW1 5227   1.868   9.958   8.796  1.5654  1.3087  0.2707
  395SOL    HW2 5228   1.987   9.987   8.885  0.5583 -0.1100  2.1270
  396SOL     OW 5229   8.902   6.036   2.655 -0.0682  0.2354  0.4170
  396SOL    HW1 5230   8.889   6.095   2.580 -0.5733 -0.6174 -0.1770
  396SOL    HW2 5231   8.997   6.039   2.672  0.0272  0.5445 -0.1569
  397SOL     OW 5232  10.246   6.446   4.893 -0.0710  0.2424  0.1881
  397SOL    HW1 5233  10.224   6.369   4.947  0.2690 -0.1722 -0.2601
  397SOL    HW2 5234  10.263   6.410   4.806  1.6241  0.6362  0.3300
  398SOL     OW 5235   8.484   3.215   2.271 -0.2937  0.4961 -0.0791
  398SOL    HW1 5236   8.499   3.208   2.177  0.9945  0.9754  0.0725
  398SOL    HW2 5237   8.470   3.125   2.300  0.6004  0.1982 -0.5400
  399SOL     OW 5238   3.359   2.755   7.860 -0.1431 -0.2451 -0.0909
  399SOL    HW1 5239   3.319   2.669   7.874 -1.6998  0.1783 -1.6397
  399SOL    HW2 5240   3.292   2.817   7.886  0.7283  0.5251  0.3805
  400SOL     OW 5241   3.209   6.528   8.517  0.2553 -0.4400 -0.4076
  400SOL    HW1 5242   3.292   6.517   8.564  0.9988  0.3606 -1.5100
  400SOL    HW2 5243   3.233   6.570   8.435 -1.3713  0.7362 -0.3139
  401SOL     OW 5244   1.939   1.160   0.465  0.3545  0.1336 -0.3843
  401SOL    HW1 5245   2.018   1.182   0.515 -0.8416  0.8978  1.2420
  401SOL    HW2 5246   1.970   1.150   0.375  2.4536 -0.5155  0.3488
  402SOL     OW 5247   8.499   6.958   0.935 -0.7748  0.0523 -0.6851
  402SOL    HW1 5248   8.562   6.901   0.980 -0.6181  0.3301 -0.5491
  402SOL    HW2 5249   8.432   6.898   0.902 -2.9460  0.0425  3.0887
  403SOL     OW 5250   3.472   2.986   8.883  0.1004  0.1171 -0.3642
  403SOL    HW1 5251   3.553   2.938   8.901 -0.4427 -0.0898  1.7592
  403SOL    HW2 5252   3.404   2.935   8.927 -0.9237  1.2798 -0.5493
  404SOL     OW 5253   1.139   5.597   7.770 -0.1128  0.6304  0.1955
  404SOL    HW1 5254   1.081   5.629   7.701  0.9335  0.4185 -0.8203
  404SOL    HW2 5255   1.192   5.673   7.794  0.5800  0.3453 -0.3633
  405SOL     OW 5256   9.233   5.681   9.357 -0.3138  0.4320 -0.0316
  405SOL    HW1 5257   9.174   5.753   9.338 -1.2103 -0.1349  0.5410
  405SOL    HW2 5258   9.277   5.707   9.438 -0.3084  0.5311 -0.0658
  406SOL     OW 5259   4.331   6.807   7.544 -0.3687  0.2584 -0.0453
  406SOL    HW1 5260   4.299   6.849   7.624 -0.9830  0.8228 -0.5699
  406SOL    HW2 5261   4.379   6.730   7.574 -2.6542 -0.9450  0.7797
  407SOL     OW 5262   6.429   6.293   1.075 -0.5136  0.1815  0.4167
  407SOL    HW1 5263   6.442   6.200   1.092 -0.3753 -0.3243 -2.1100
  407SOL    HW2 5264   6.374   6.297   0.997 -0.3447  2.2151  0.3314
  408SOL     OW 5265   6.445   0.231   9.566  0.1314 -0.2133 -0.4017
  408SOL    HW1 5266   6.354   0.241   9.593  0.1991 -2.1203  0.7365
  408SOL    HW2 5267   6.488   0.190   9.641  2.1478  1.3587 -0.6005
  409SOL     OW 5268   9.195   3.959   0.188 -0.6072 -0.8789  0.7378
  409SOL    HW1 5269   9.170   4.036   0.237 -0.8895 -0.2660 -0.3353
  409SOL    HW2 5270   9.225   3.897   0.254  1.6791  0.8863  1.4923
  410SOL     OW 5271   4.947   3.948   2.556 -0.6221 -0.4042  0.1043
  410SOL    HW1 5272   4.860   3.939   2.518 -1.0383  1.4346  0.5490
  410SOL    HW2 5273   4.982   3.859   2.556 -1.9449 -0.9723 -1.3509
  411SOL     OW 5274   4.082   6.098   9.354  0.0647 -0.2428  0.2743
  411SOL    HW1 5275   3.995   6.115   9.319  0.6458  2.2224 -0.1322
  411SOL    HW2 5276   4.072   6.109   9.449  0.0220  0.4561  0.1887
  412SOL     OW 5277   7.390   2.467   3.103  0.5076 -0.6668 -0.6212
  412SOL    HW1 5278   7.447   2.482   3.178  0.2251 -1.1722 -0.2995
  412SOL    HW2 5279   7.406   2.375   3.079 -0.4846 -0.9465 -0.2499
  413SOL     OW 5280   6.668   0.912   1.666 -0.2182  0.6592 -0.0980
  413SOL    HW1 5281   6.706   0.879   1.585  2.4539  0.4520  1.1306
  413SOL    HW2 5282   6.728   0.982   1.694 -1.0990  0.7804  1.6600
  414SOL     OW 5283   9.862   2.796   6.530  0.2879  0.0603 -0.5095
  414SOL    HW1 5284   9.925   2.783   6.459  1.6656 -1.4518  0.8740
  414SOL    HW2 5285   9.804   2.720   6.524 -0.5188  0.6954 -0.8888
  415SOL     OW 5286   5.985   5.944   5.898 -0.0360 -0.0766 -0.4140
  415SOL    HW1 5287   5.895   5.959   5.929  0.2213  0.4532  0.1028
  415SOL    HW2 5288   6.035   6.016   5.936  0.8910 -1.1895  0.5314
  416SOL     OW 5289   7.153   3.057   7.604 -0.2790  0.1041 -0.1269
  416SOL    HW1 5290   7.164   2.997   7.678 -0.7878  1.4100  1.0457
  416SOL    HW2 5291   7.190   3.010   7.529  1.2864 -0.8030  1.1605
  417SOL     OW 5292   0.116   8.410   1.891 -0.4219 -0.3420 -0.8518
  417SOL    HW1 5293   0.033   8.432   1.934  0.0894  1.5293 -0.7430
  417SOL    HW2 5294   0.098   8.420   1.797  0.1122  1.9311 -0.7688
  418SOL     OW 5295   9.106   6.058   4.389  0.3135  0.8504  0.0285
  418SOL    HW1 5296   9.020   6.044   4.427  0.5570 -2.5537 -0.3712
  418SOL    HW2 5297   9.167   6.031   4.457  0.8610 -1.2597 -1.2065
  419SOL     OW 5298   1.558   8.463   6.693 -0.2866 -0.3560  0.6028
  419SOL    HW1 5299   1.595   8.536   6.743 -1.9847  0.7663  0.2967
  419SOL    HW2 5300   1.489   8.428   6.750 -0.5718 -0.6652  0.0729
  420SOL     OW 5301   1.707   4.075   2.598 -0.6235  0.6860  0.2743
  420SOL    HW1 5302   1.792   4.075   2.555 -0.6294 -0.9309  0.1865
  420SOL    HW2 5303   1.728   4.076   2.692 -0.5136  0.7946  0.2486
  421SOL     OW 5304   5.171   8.684   3.336 -0.3815  0.1929 -0.2412
  421SOL    HW1 5305   5.141   8.740   3.408 -1.3462  0.7863 -1.0717
  421SOL    HW2 5306   5.091   8.660   3.289  0.2006 -0.4063 -0.9643
  422SOL     OW 5307   2.735   7.408   9.077 -0.5102 -0.0673  0.1537
  422SOL    HW1 5308   2.702   7.337   9.132 -1.9263  3.4447  4.4521
  422SOL    HW2 5309   2.822   7.427   9.111 -0.5510  0.8588 -0.2106
  423SOL     OW 5310   9.484   6.889   2.194  1.0263  0.1785  0.4466
  423SOL    HW1 5311   9.518   6.973   2.164  1.4445 -0.3040 -0.4778
  423SOL    HW2 5312   9.464   6.841   2.114  0.6324 -0.5437  0.9629
  424SOL     OW 5313   8.736   1.840   7.240 -0.2319  0.3695 -0.2582
  424SOL    HW1 5314   8.748   1.785   7.162  2.0895  0.1518  0.1866
  424SOL    HW2 5315   8.702   1.780   7.306  0.7365 -0.1764 -0.2421
  425SOL     OW 5316   9.214   4.613   3.751  0.2141  0.2845  0.5944
  425SOL    HW1 5317   9.265   4.609   3.832  0.3580  0.8661  0.5430
  425SOL    HW2 5318   9.214   4.523   3.718  0.7755  0.1762  0.8659
  426SOL     OW 5319   9.797   5.683   6.095  0.0086 -0.4003  0.0987
  426SOL    HW1 5320   9.716   5.671   6.046  0.5023  0.8986 -1.0900
  426SOL    HW2 5321   9.774   5.746   6.163  0.4402  1.5668 -1.4820
  427SOL     OW 5322   2.226   3.129   4.492 -0.3879  0.4455  0.1694
  427SOL    HW1 5323   2.305   3.082   4.519  0.3077  0.6881 -1.3397
  427SOL    HW2 5324   2.160   3.060   4.481  0.5860 -0.2210 -1.9005
  428SOL     OW 5325   4.374   8.693   7.496  0.3196  0.0712 -0.2749
  428SOL    HW1 5326   4.421   8.652   7.569 -0.3864 -1.1442 -0.4720
  428SOL    HW2 5327   4.282   8.682   7.518  0.1092  0.4546 -0.9488
  429SOL     OW 5328   7.514   7.309   6.953  0.0281  0.0291 -0.4350
  429SOL    HW1 5329   7.440   7.345   7.003 -0.8882 -0.1343 -1.6230
  429SOL    HW2 5330   7.475   7.241   6.898  1.3646 -1.2188  0.1213
  430SOL     OW 5331   9.578   9.048   8.224 -0.4777  0.3406  0.3611
  430SOL    HW1 5332   9.537   9.060   8.309  1.4924 -2.2310  1.8008
  430SOL    HW2 5333   9.572   8.954   8.207 -0.5404  0.7306 -2.2359
  431SOL     OW 5334   4.665   3.023   3.537 -0.3817 -0.3338  0.2154
  431SOL    HW1 5335   4.733   3.074   3.581 -0.8241  0.8573 -0.4343
  431SOL    HW2 5336   4.675   2.935   3.572 -1.2679  0.6943  3.4046
  432SOL     OW 5337   6.244   8.604   1.892  0.5480 -0.2704  0.6978
  432SOL    HW1 5338   6.289   8.688   1.903 -1.2371  0.8190  0.0936
  432SOL    HW2 5339   6.175   8.622   1.829 -0.8106 -1.8386  1.6610
  433SOL     OW 5340   4.270   8.719   2.294  0.4638 -0.1327 -0.3514
  433SOL    HW1 5341   4.278   8.811   2.270  1.6109 -0.0835  0.2001
  433SOL    HW2 5342   4.216   8.719   2.373  1.1518  0.1433  0.1265
  434SOL     OW 5343   4.748   7.713   3.728 -0.5647  0.0599 -0.7128
  434SOL    HW1 5344   4.725   7.621   3.737 -3.1887  0.6730 -0.2569
  434SOL    HW2 5345   4.817   7.727   3.793 -0.6255 -1.4096 -0.2941
  435SOL     OW 5346   0.640   0.704   1.232  0.2087 -0.0276 -0.4929
  435SOL    HW1 5347   0.604   0.791   1.213  0.5812  0.0104 -1.0348
  435SOL    HW2 5348   0.731   0.721   1.258  0.1278 -0.2085 -0.0906
  436SOL     OW 5349   7.823   4.690   6.387  0.0386  0.0560  0.8186
  436SOL    HW1 5350   7.872   4.767   6.359 -0.6742 -0.2401 -1.4180
  436SOL    HW2 5351   7.801   4.644   6.306 -0.1304 -2.1742  2.0352
  437SOL     OW 5352   6.827   8.205   6.971  0.5467 -0.0883  0.0540
  437SOL    HW1 5353   6.841   8.167   7.058  0.3998 -1.0441 -0.3308
  437SOL    HW2 5354   6.854   8.296   6.981  1.0552 -0.3190  0.9603
  438SOL     OW 5355   0.241   6.178   2.252 -0.2946 -0.7201 -0.2587
  438SOL    HW1 5356   0.256   6.086   2.229  1.4485 -0.7589  0.8560
  438SOL    HW2 5357   0.185   6.211   2.182  0.8355 -2.0701 -1.8929
  439SOL     OW 5358   1.732   0.644   8.054 -0.5391  0.2293  0.3637
  439SOL    HW1 5359   1.709   0.737   8.060  0.5912  0.4770  1.2872
  439SOL    HW2 5360   1.823   0.643   8.027  0.1401 -0.5159  2.4716
  440SOL     OW 5361   0.522   4.707   7.741 -0.4181 -0.0174 -0.0363
  440SOL    HW1 5362   0.479   4.774   7.687  0.7301  1.6511  0.9901
  440SOL    HW2 5363   0.517   4.627   7.689 -0.9224  1.1085 -1.8120
  441SOL     OW 5364   3.544   5.947   5.176  0.1093 -0.0491  0.1669
  441SOL    HW1 5365   3.637   5.964   5.162 -0.0415  1.7582  1.1705
  441SOL    HW2 5366   3.532   5.857   5.144  1.7978  0.3048 -1.7085
  442SOL     OW 5367   4.531   2.438   7.985  0.2370 -0.6809  0.7055
  442SOL    HW1 5368   4.478   2.375   7.936 -0.3809  0.6456 -0.4148
  442SOL    HW2 5369   4.580   2.385   8.047  1.2472 -2.5028 -1.4921
  443SOL     OW 5370   8.129   4.326   5.083  0.7266 -0.3184  0.6325
  443SOL    HW1 5371   8.183   4.387   5.133 -0.7091 -1.4673  3.8462
  443SOL    HW2 5372   8.168   4.240   5.099 -0.1625 -0.7948  0.3479
  444SOL     OW 5373   4.244   2.090   5.731  0.1402 -0.1614 -0.9917
  444SOL    HW1 5374   4.154   2.094   5.697 -0.0932  0.3668 -0.3391
  444SOL    HW2 5375   4.265   1.996   5.731 -0.4287 -0.2936 -1.1129
  445SOL     OW 5376   8.703   5.103   8.198  0.4153  0.0928  0.3662
  445SOL    HW1 5377   8.786   5.148   8.213  0.6323 -0.2048  0.0575
  445SOL    HW2 5378   8.702   5.032   8.263  0.2019  0.3651  0.6633
  446SOL     OW 5379   0.475   8.857   2.666  0.0000 -0.0267 -0.4825
  446SOL    HW1 5380   0.457   8.944   2.629 -0.2269  0.4879  0.7920
  446SOL    HW2 5381   0.557   8.868   2.714  0.6161 -0.8453 -1.3151
  447SOL     OW 5382   5.149   5.356   7.616  0.5326 -0.3652  0.3651
  447SOL    HW1 5383   5.144   5.306   7.534  0.2423  0.6444 -0.2648
  447SOL    HW2 5384   5.124   5.445   7.590 -2.0021 -0.5152  2.0167
  448SOL     OW 5385   9.015   3.595   5.191 -0.4493  0.7748  0.3029
  448SOL    HW1 5386   9.048   3.538   5.261 -1.5875  2.2094  2.0888
  448SOL    HW2 5387   9.093   3.626   5.146  0.2444 -1.2487  0.0192
  449SOL     OW 5388   3.530   2.268   7.514 -0.8791 -0.1550 -0.1085
  449SOL    HW1 5389   3.448   2.299   7.554 -0.8975  0.3229 -0.5097
  449SOL    HW2 5390   3.503   2.235   7.428 -0.5839  0.4775 -0.4525
  450SOL     OW 5391   2.486   9.472   9.398 -0.5181  0.0991  0.0608
  450SOL    HW1 5392   2.542   9.397   9.380 -0.7995 -0.2963  0.7997
  450SOL    HW2 5393   2.400   9.446   9.366 -0.5410  0.2502 -0.0033
  451SOL     OW 5394   0.995   4.779   7.316  0.9177  0.2752 -0.1957
  451SOL    HW1 5395   1.033   4.846   7.372  1.6992 -1.2758  1.2118
  451SOL    HW2 5396   0.985   4.702   7.373  0.9256 -1.0991 -1.9493
  452SOL     OW 5397   8.031   6.361   6.786 -0.3043 -0.0790 -0.2776
  452SOL    HW1 5398   8.073   6.434   6.831  0.4047 -0.8922  0.4042
  452SOL    HW2 5399   7.991   6.401   6.708 -0.8097  1.1979  0.6075
  453SOL     OW 5400   7.394   1.278   7.582 -0.0855 -0.3873  0.2769
  453SOL    HW1 5401   7.408   1.369   7.557  1.8745 -0.7072  0.0309
  453SOL    HW2 5402   7.299   1.268   7.588 -0.6891  0.3996 -4.3854
  454SOL     OW 5403   6.468   4.997   5.103 -0.6125 -0.0857 -0.2347
  454SOL    HW1 5404   6.384   5.026   5.068 -1.7494 -2.0335  0.6739
  454SOL    HW2 5405   6.463   5.018   5.197 -0.5926 -1.2169  0.0345
  455SOL     OW 5406   6.122   1.686   9.471  0.1035  0.1245 -0.7039
  455SOL    HW1 5407   6.144   1.695   9.564  0.9050  0.2414 -0.8900
  455SOL    HW2 5408   6.205   1.660   9.430 -0.3193 -0.2455 -1.3401
  456SOL     OW 5409   9.587   1.501   0.719  0.1555 -0.5459  0.0613
  456SOL    HW1 5410   9.633   1.559   0.780  0.3822  0.8428 -1.3435
  456SOL    HW2 5411   9.649   1.489   0.647 -0.3921 -1.5188 -0.2624
  457SOL     OW 5412   4.960   8.546   7.144 -0.3248 -0.1963 -0.3256
  457SOL    HW1 5413   4.991   8.462   7.110 -0.9075 -1.3658  1.8734
  457SOL    HW2 5414   4.872   8.527   7.178 -0.4767  1.3164  0.1989
  458SOL     OW 5415   2.988   3.682   7.574 -0.0181 -0.5539 -0.2342
  458SOL    HW1 5416   2.947   3.742   7.511  0.7344 -0.6249 -0.8126
  458SOL    HW2 5417   3.077   3.671   7.541  0.6940  0.1135  1.3323
  459SOL     OW 5418   5.216   2.864   6.181  0.4101  0.1155 -0.3370
  459SOL    HW1 5419   5.122   2.846   6.184  0.4236  0.1326  1.5551
  459SOL    HW2 5420   5.223   2.950   6.141 -0.4677  0.4827  0.2674
  460SOL     OW 5421   4.607   3.843   7.353  0.1504 -0.1154 -0.4517
  460SOL    HW1 5422   4.651   3.928   7.354 -1.5427  0.8038 -0.7408
  460SOL    HW2 5423   4.579   3.832   7.262 -0.3397 -0.5950 -0.2471
  461SOL     OW 5424   3.316   4.154   3.217 -0.2242  0.0086 -0.2890
  461SOL    HW1 5425   3.379   4.219   3.248  0.3019 -0.2461 -0.8242
  461SOL    HW2 5426   3.297   4.100   3.295  0.4869 -0.1351 -0.2124
  462SOL     OW 5427   0.442   5.118   2.892 -0.7571 -0.3504 -0.6933
  462SOL    HW1 5428   0.446   5.083   2.802  1.7150  1.7775 -1.5424
  462SOL    HW2 5429   0.527   5.095   2.930  0.0079  2.4845 -0.4908
  463SOL     OW 5430   9.402   4.915   2.019 -0.0369 -0.1970 -0.9926
  463SOL    HW1 5431   9.434   4.831   2.052  0.1700  0.5315  0.7234
  463SOL    HW2 5432   9.481   4.967   2.003 -0.2259  0.4844  0.2049
  464SOL     OW 5433   8.019   4.780   7.233  0.0049  0.4316 -0.1470
  464SOL    HW1 5434   7.943   4.723   7.235  1.0188 -0.9828 -0.5011
  464SOL    HW2 5435   8.047   4.781   7.142  0.1676  1.2982 -0.1009
  465SOL     OW 5436   9.202   2.236   9.492  0.2409 -0.0127 -0.5859
  465SOL    HW1 5437   9.159   2.228   9.407 -1.2134 -3.4416  0.3069
  465SOL    HW2 5438   9.131   2.234   9.556  1.4280 -2.1039  0.8124
  466SOL     OW 5439   6.189   0.092   6.358 -0.1356  0.3963 -0.2566
  466SOL    HW1 5440   6.190   0.153   6.431  2.2591  1.5315 -1.1139
  466SOL    HW2 5441   6.201   0.147   6.280 -1.3529 -0.8871 -1.4227
  467SOL     OW 5442   2.664   7.494   5.383 -0.0318 -0.6216 -0.0763
  467SOL    HW1 5443   2.654   7.473   5.290 -0.9229 -0.9007  0.0762
  467SOL    HW2 5444   2.688   7.587   5.383  2.2001 -1.1306 -0.6693
  468SOL     OW 5445   0.445   1.582   2.703 -0.1440 -0.1312 -0.5594
  468SOL    HW1 5446   0.432   1.586   2.608 -0.7074 -1.4532 -0.5568
  468SOL    HW2 5447   0.465   1.489   2.720  1.0708  0.2919  0.4790
  469SOL     OW 5448   4.764   0.717   7.305  0.0502  0.0243  0.1207
  469SOL    HW1 5449   4.837   0.659   7.327  0.5295  0.5167 -0.1501
  469SOL    HW2 5450   4.758   0.777   7.379  0.1719  0.2251 -0.0309
  470SOL     OW 5451   7.626   9.620   6.650  0.3848 -0.3980  0.0988
  470SOL    HW1 5452   7.652   9.530   6.665  0.7468 -0.3156 -0.0262
  470SOL    HW2 5453   7.579   9.618   6.566  0.4573 -0.4579  0.0599
  471SOL     OW 5454   4.926   6.382   5.623 -0.8765 -0.0606  0.8585
  471SOL    HW1 5455   4.858   6.449   5.619  0.8005  1.6774 -0.7742
  471SOL    HW2 5456   4.934   6.350   5.533  1.4642  0.9417  0.6342
  472SOL     OW 5457   8.580   1.360   5.372  0.4208  0.4302  0.4370
  472SOL    HW1 5458   8.654   1.304   5.347  0.3387  1.0826 -1.4037
  472SOL    HW2 5459   8.550   1.398   5.289 -2.1728 -0.0342  1.0861
  473SOL     OW 5460   2.142   1.792   7.426  0.6252 -0.4542 -0.5367
  473SOL    HW1 5461   2.169   1.825   7.511 -0.2972  0.4926 -0.5866
  473SOL    HW2 5462   2.078   1.724   7.446 -0.2165  0.3417 -0.4676
  474SOL     OW 5463  10.131   4.514   7.849  0.5416 -0.2174  0.0096
  474SOL    HW1 5464  10.223   4.527   7.874  0.1838 -1.1020  2.0536
  474SOL    HW2 5465  10.083   4.580   7.899  0.1114  0.9912 -1.9035
  475SOL     OW 5466   2.184   7.943   1.359 -0.5695  0.2274  0.8957
  475SOL    HW1 5467   2.204   7.867   1.304 -1.4987  0.0292  0.8120
  475SOL    HW2 5468   2.222   8.017   1.312  0.0120 -0.1395  0.7829
  476SOL     OW 5469   0.238   9.562   4.530 -0.1244  0.2335  0.4342
  476SOL    HW1 5470   0.268   9.588   4.443 -1.0148 -0.9107 -0.2426
  476SOL    HW2 5471   0.250   9.640   4.584  2.1817  0.4215 -0.2500
  477SOL     OW 5472   7.298   5.086   8.081 -0.3125 -0.5177 -0.0374
  477SOL    HW1 5473   7.304   5.001   8.123  2.5655  0.0558  0.9021
  477SOL    HW2 5474   7.242   5.138   8.140 -2.4351 -1.7716 -0.8319
  478SOL     OW 5475   0.788   0.601   9.665  0.5551 -0.1787  0.0128
  478SOL    HW1 5476   0.739   0.569   9.741 -0.6381 -0.0217 -0.6579
  478SOL    HW2 5477   0.748   0.556   9.590 -0.4611  2.0053 -0.8513
  479SOL     OW 5478   1.894   7.035  10.222 -0.0078 -0.2284 -0.1105
  479SOL    HW1 5479   1.813   7.041  10.271 -0.0500  0.0586 -0.2116
  479SOL    HW2 5480   1.868   7.001  10.136  0.2725 -2.2660  0.5617
  480SOL     OW 5481   3.625   0.402   5.900 -0.1402 -0.0478 -0.0383
  480SOL    HW1 5482   3.673   0.404   5.818 -0.3547 -0.4711 -0.1799
  480SOL    HW2 5483   3.686   0.436   5.965 -0.1785  0.8851 -0.4726
  481SOL     OW 5484  10.036   2.497   3.760 -0.4886 -0.0939  0.7181
  481SOL    HW1 5485   9.960   2.446   3.734  0.7543 -1.6887  0.0073
  481SOL    HW2 5486  10.000   2.575   3.803 -2.4847 -0.7660  0.3534
  482SOL     OW 5487   9.726   7.066   8.871  0.0237 -0.2062  0.0466
  482SOL    HW1 5488   9.738   7.072   8.776 -1.4995  1.1238 -0.1130
  482SOL    HW2 5489   9.815   7.058   8.906  0.5930 -0.9796 -1.4863
  483SOL     OW 5490   7.503   3.444   7.703 -0.1965 -0.0925 -0.2429
  483SOL    HW1 5491   7.503   3.412   7.612  2.4085 -0.6732 -0.1148
  483SOL    HW2 5492   7.519   3.538   7.695  0.4163 -0.2036 -0.3958
  484SOL     OW 5493   0.722   1.161   7.117  0.0567  0.3530  0.1974
  484SOL    HW1 5494   0.655   1.227   7.100  0.0423  0.4620  0.6623
  484SOL    HW2 5495   0.701   1.090   7.056 -0.2653  0.5357  0.0906
  485SOL     OW 5496   1.250   2.880   1.325  0.8477 -0.1654  0.6778
  485SOL    HW1 5497   1.234   2.957   1.380  0.9668 -1.0147  1.9301
  485SOL    HW2 5498   1.337   2.850   1.350  1.4057  0.0894 -0.8233
  486SOL     OW 5499   2.039   2.394   9.278  0.1659 -0.4531 -0.7586
  486SOL    HW1 5500   2.028   2.346   9.360 -0.6003  0.4001 -0.3532
  486SOL    HW2 5501   2.126   2.435   9.286 -0.6831  1.2244  0.5008
  487SOL     OW 5502   4.776   8.995   6.772 -0.1572 -0.3169  0.2885
  487SOL    HW1 5503   4.868   9.014   6.788  0.1837 -0.6328 -1.1244
  487SOL    HW2 5504   4.767   8.902   6.791 -0.0991 -0.3598  0.1115
  488SOL     OW 5505   7.146   2.302   0.540  0.1450 -0.4675 -0.0555
  488SOL    HW1 5506   7.184   2.356   0.609 -2.6356  1.1353  0.3680
  488SOL    HW2 5507   7.097   2.234   0.586 -2.6929  1.2957 -0.2754
  489SOL     OW 5508   8.366   5.657   0.288  0.3502  0.3682 -0.6543
  489SOL    HW1 5509   8.358   5.751   0.305  0.7687  0.2478  0.2432
  489SOL    HW2 5510   8.455   5.635   0.315 -0.3813 -0.6575  1.0499
  490SOL     OW 5511   5.694   0.864   5.692  0.0156  0.6427  0.0501
  490SOL    HW1 5512   5.712   0.775   5.721 -0.3221  0.5822  0.0834
  490SOL    HW2 5513   5.729   0.919   5.762 -0.0327  0.5246  0.1686
  491SOL     OW 5514   9.928   7.201   5.358 -0.1965  0.4237  0.0685
  491SOL    HW1 5515   9.894   7.137   5.295 -0.5147 -0.9066  1.5404
  491SOL    HW2 5516   9.986   7.256   5.306 -0.0262 -0.9589 -1.2995
  492SOL     OW 5517   8.674   9.131   2.468  0.5794  0.3702 -0.0053
  492SOL    HW1 5518   8.690   9.076   2.545 -0.0354  0.9739  0.5733
  492SOL    HW2 5519   8.685   9.221   2.500 -0.9824  0.6824 -0.2936
  493SOL     OW 5520   1.457   7.335   2.107  0.5883 -0.0397  0.1365
  493SOL    HW1 5521   1.519   7.404   2.083  1.5782 -0.6800  0.7789
  493SOL    HW2 5522   1.379   7.383   2.136  0.7467  0.7793 -0.7469
  494SOL     OW 5523   4.199   4.600   3.359  0.3540 -0.6527  0.5507
  494SOL    HW1 5524   4.216   4.570   3.449  0.3170 -1.2461  0.3693
  494SOL    HW2 5525   4.267   4.558   3.307  1.3663  0.9792  0.5140
  495SOL     OW 5526   3.065   2.477   5.937 -0.2946 -0.7284 -0.7925
  495SOL    HW1 5527   3.160   2.469   5.927 -0.1764 -1.1647  0.4971
  495SOL    HW2 5528   3.037   2.392   5.973 -1.1941 -0.6494 -1.2669
  496SOL     OW 5529   9.753   8.853   3.772 -0.4909  0.2459 -0.1999
  496SOL    HW1 5530   9.812   8.895   3.836 -0.5836 -0.4765  0.3763
  496SOL    HW2 5531   9.684   8.814   3.826 -0.0354 -1.2462 -0.6499
  497SOL     OW 5532   0.371   1.491   6.848  0.4562  0.1287 -0.0001
  497SOL    HW1 5533   0.289   1.444   6.840  1.6129 -1.7688 -1.4801
  497SOL    HW2 5534   0.408   1.492   6.760  2.1505  0.7124  0.6664
  498SOL     OW 5535   5.571   7.329  10.205  0.2682  0.8594  0.3640
  498SOL    HW1 5536   5.593   7.399  10.266 -1.6105  2.1279 -0.3353
  498SOL    HW2 5537   5.476   7.333  10.197  0.1019 -1.7224  0.1975
  499SOL     OW 5538   5.187   6.478   1.409  0.2204 -0.0548 -0.6148
  499SOL    HW1 5539   5.117   6.420   1.379  0.4867  0.0168 -1.4013
  499SOL    HW2 5540   5.208   6.447   1.497  0.3914 -1.1752 -1.0381
  500SOL     OW 5541   3.284   8.324   7.816  0.2884  0.2760 -0.1830
  500SOL    HW1 5542   3.352   8.257   7.810 -1.2899 -1.3610 -0.6631
  500SOL    HW2 5543   3.299   8.365   7.901  1.1255 -0.8853  0.2577
  501SOL     OW 5544   0.478   9.994   8.926  0.1410  0.0715  0.0202
  501SOL    HW1 5545   0.502   9.901   8.917 -1.2799 -0.3647  0.4463
  501SOL    HW2 5546   0.390   9.992   8.964 -0.1750  1.5871 -0.5764
  502SOL     OW 5547   7.478   1.672   5.344  0.6372 -0.1621 -0.0373
  502SOL    HW1 5548   7.417   1.716   5.402  0.2986 -1.8184  0.9049
  502SOL    HW2 5549   7.536   1.742   5.314  0.9909  0.7318  2.4819
  503SOL     OW 5550   1.219   7.797   9.594 -0.1426  0.2270  0.0782
  503SOL    HW1 5551   1.182   7.712   9.569 -0.1733 -0.2672  1.6931
  503SOL    HW2 5552   1.142   7.852   9.611 -0.1398  0.1317  0.4182
  504SOL     OW 5553   7.285   1.381   1.615 -0.3992  0.4473  0.4235
  504SOL    HW1 5554   7.308   1.473   1.601 -1.2173  0.5939 -0.0285
  504SOL    HW2 5555   7.363   1.343   1.655  0.7002  0.8499 -1.2529
  505SOL     OW 5556   4.798   8.759   6.326 -0.4004 -0.6059  0.0723
  505SOL    HW1 5557   4.772   8.667   6.327 -0.6746 -0.5396  1.7890
  505SOL    HW2 5558   4.716   8.807   6.325 -0.2572 -0.3525 -1.1167
  506SOL     OW 5559   6.002   7.296   1.588 -0.0086  0.0555  0.4594
  506SOL    HW1 5560   6.073   7.273   1.648 -0.7462  1.3502  1.9017
  506SOL    HW2 5561   5.945   7.219   1.588 -0.4269  0.3136  2.1234
  507SOL     OW 5562   8.927   7.684   6.478  0.3743 -0.5273  0.7765
  507SOL    HW1 5563   8.896   7.597   6.452  0.3644 -0.6937  1.3342
  507SOL    HW2 5564   8.996   7.705   6.414 -0.3196 -0.5032  0.0227
  508SOL     OW 5565   5.018   5.038   2.750  0.2963  0.2709  0.1319
  508SOL    HW1 5566   5.105   4.998   2.739 -0.1590 -0.7463  0.1659
  508SOL    HW2 5567   4.957   4.970   2.724 -0.5951  0.0989  2.4984
  509SOL     OW 5568   1.022   7.276   7.464 -0.1547 -0.4135 -0.2072
  509SOL    HW1 5569   0.953   7.314   7.410 -0.8500 -0.8403  0.3664
  509SOL    HW2 5570   1.092   7.254   7.402 -0.2213  0.6869 -0.6965
  510SOL     OW 5571   0.402   0.241   8.919 -0.5559 -0.4513  0.0667
  510SOL    HW1 5572   0.432   0.151   8.922 -1.4568 -0.7387  0.6680
  510SOL    HW2 5573   0.347   0.252   8.996 -0.9358  0.4375 -0.3067
  511SOL     OW 5574   4.229   5.513   8.575 -0.2386  0.1727  0.2886
  511SOL    HW1 5575   4.246   5.526   8.482  0.6743  0.5199  0.4930
  511SOL    HW2 5576   4.301   5.457   8.605 -0.4906  0.1148  0.8045
  512SOL     OW 5577   3.912   3.858   3.565  0.0252  0.6354 -0.1604
  512SOL    HW1 5578   3.817   3.850   3.560  0.0328 -0.9147  1.2878
  512SOL    HW2 5579   3.927   3.922   3.634  0.0448  1.1657 -0.6503
  513SOL     OW 5580   0.897   2.016   1.577  0.4439 -0.3063 -0.8496
  513SOL    HW1 5581   0.835   1.949   1.604 -1.2061  1.2959 -0.4440
  513SOL    HW2 5582   0.844   2.079   1.529  1.8407  0.9379 -0.8259
  514SOL     OW 5583   9.617   4.617  10.184  0.0941 -0.2139 -0.0220
  514SOL    HW1 5584   9.627   4.685  10.117 -0.7689  0.5721  0.6235
  514SOL    HW2 5585   9.601   4.537  10.134  0.1734  0.2290 -0.7746
  515SOL     OW 5586   4.392   0.681   6.600  0.3339 -0.0583 -0.0283
  515SOL    HW1 5587   4.325   0.704   6.535 -1.1571 -0.7599  1.2103
  515SOL    HW2 5588   4.468   0.735   6.576 -0.1489 -0.3110 -2.3477
  516SOL     OW 5589   1.956   1.797   4.482 -0.3600  0.2164  0.0882
  516SOL    HW1 5590   1.903   1.719   4.495 -1.0986  0.8209  0.8289
  516SOL    HW2 5591   1.994   1.815   4.568  1.5951 -0.5776 -0.5706
  517SOL     OW 5592  10.146   3.731   7.465 -0.0385 -0.5658 -0.0220
  517SOL    HW1 5593  10.115   3.656   7.414  0.4325 -0.0172 -1.1260
  517SOL    HW2 5594  10.122   3.808   7.414  1.1815 -0.0372  0.1648
  518SOL     OW 5595   6.679   4.104   5.145  0.0243 -0.1599 -0.1483
  518SOL    HW1 5596   6.679   4.064   5.232 -0.3040 -1.5064 -0.7270
  518SOL    HW2 5597   6.729   4.043   5.091  0.3774  0.7488 -0.8756
  519SOL     OW 5598   8.712   4.931   8.378 -0.4944  0.1565 -0.1549
  519SOL    HW1 5599   8.725   5.004   8.438 -1.6349 -0.4780  0.9143
  519SOL    HW2 5600   8.738   4.854   8.428 -0.8602 -0.3268 -0.6921
  520SOL     OW 5601   5.130   0.952   7.430 -0.3058 -0.2551  0.2199
  520SOL    HW1 5602   5.093   1.022   7.484 -0.6932 -0.1764 -0.1435
  520SOL    HW2 5603   5.117   0.873   7.482 -1.4609 -0.3049 -0.1193
  521SOL     OW 5604   1.397   8.273   1.213 -0.8201  0.6534 -0.3759
  521SOL    HW1 5605   1.391   8.209   1.142 -1.8783  0.2398  0.0615
  521SOL    HW2 5606   1.418   8.220   1.290  0.8316  1.1609 -0.4480
  522SOL     OW 5607   6.564   2.423   5.686 -0.0739  0.9017 -0.2307
  522SOL    HW1 5608   6.625   2.350   5.674  1.9047  2.2927  0.8412
  522SOL    HW2 5609   6.496   2.387   5.744 -0.4724 -0.7489 -1.6352
  523SOL     OW 5610   1.068   4.419   1.237  0.2594 -0.0035  0.2360
  523SOL    HW1 5611   1.091   4.460   1.154 -0.6934 -0.9283 -0.5092
  523SOL    HW2 5612   0.991   4.365   1.217  2.0122 -2.9654  0.8987
  524SOL     OW 5613   4.380   7.748   2.602  0.3173 -0.5094  0.1871
  524SOL    HW1 5614   4.454   7.808   2.613 -0.1082  0.4479 -1.7219
  524SOL    HW2 5615   4.354   7.759   2.511 -1.4899 -1.6371  0.5212
  525SOL     OW 5616   8.167   4.589   7.342 -0.6590  0.0643 -0.0262
  525SOL    HW1 5617   8.152   4.676   7.305 -1.5375 -0.7651 -1.7148
  525SOL    HW2 5618   8.096   4.535   7.309  1.1787 -1.8966 -1.0582
  526SOL     OW 5619   6.458   0.700   2.471  0.6058 -0.0457  0.5016
  526SOL    HW1 5620   6.526   0.763   2.492  0.2617  0.4926  0.0236
  526SOL    HW2 5621   6.395   0.707   2.543 -0.5441  1.7537 -0.5935
  527SOL     OW 5622   0.271   2.921   9.679  0.1090 -0.1104 -0.2355
  527SOL    HW1 5623   0.247   3.014   9.682  0.0813 -0.1389  1.4970
  527SOL    HW2 5624   0.227   2.883   9.756  1.0466 -1.3252 -0.2744
  528SOL     OW 5625   5.937   3.890   0.386  0.3282 -0.7010  0.1705
  528SOL    HW1 5626   5.964   3.803   0.416  0.5333 -0.7337 -0.1056
  528SOL    HW2 5627   5.958   3.891   0.293  1.0488 -0.0901  0.3240
  529SOL     OW 5628   8.440   1.442   2.447 -0.0318 -0.0876 -0.6644
  529SOL    HW1 5629   8.484   1.479   2.523 -0.2450 -0.1770 -0.4959
  529SOL    HW2 5630   8.471   1.495   2.373 -1.0990  1.0672 -0.3051
  530SOL     OW 5631   7.062   5.734   7.073  0.0060  0.2253  0.4639
  530SOL    HW1 5632   7.058   5.641   7.097  0.9887  0.4706  1.6912
  530SOL    HW2 5633   7.153   5.759   7.090  0.2628  0.9639 -1.6897
  531SOL     OW 5634   8.002   7.648   7.924  0.3784 -0.0687 -0.3969
  531SOL    HW1 5635   8.096   7.644   7.940  0.2673  1.8860  1.3339
  531SOL    HW2 5636   7.962   7.639   8.011 -0.8590  1.7039 -0.7063
  532SOL     OW 5637   7.400   9.917   0.505 -0.4996 -0.1233  0.2909
  532SOL    HW1 5638   7.474   9.978   0.506 -2.1495  2.0208 -0.0818
  532SOL    HW2 5639   7.349   9.939   0.583 -0.8460 -1.4686  0.4750
  533SOL     OW 5640   2.978   1.990   9.693 -0.0199 -0.0548 -0.4109
  533SOL    HW1 5641   2.931   1.961   9.615 -0.2812 -1.0861  0.1050
  533SOL    HW2 5642   3.069   1.965   9.678 -0.1799 -0.8414 -0.1283
  534SOL     OW 5643   5.310   8.836   9.398 -0.5622  0.2654  0.2604
  534SOL    HW1 5644   5.316   8.770   9.467 -2.4059 -0.2605 -0.0367
  534SOL    HW2 5645   5.287   8.917   9.444 -1.0363  0.0818  0.3524
  535SOL     OW 5646   4.988   7.098   4.520 -0.3684 -0.0671  0.3336
  535SOL    HW1 5647   4.968   7.009   4.493  1.0176 -1.5216  3.5583
  535SOL    HW2 5648   4.919   7.121   4.582  0.3200  0.3045  0.9889
  536SOL     OW 5649   7.378   8.408   2.046  0.1681  0.2782  0.0411
  536SOL    HW1 5650   7.335   8.494   2.044 -0.3172  0.0527 -2.7111
  536SOL    HW2 5651   7.450   8.416   1.984  0.0281 -1.3258 -0.3741
  537SOL     OW 5652   6.636   2.907   9.996  0.1076  0.4999  0.8118
  537SOL    HW1 5653   6.558   2.964   9.997 -0.4599 -0.2622  0.7734
  537SOL    HW2 5654   6.601   2.819   9.987  1.0585  0.3149 -2.1975
  538SOL     OW 5655   8.736   0.410   2.976  0.4940 -0.0156  0.0342
  538SOL    HW1 5656   8.804   0.403   3.043  0.7023 -2.1945 -0.3255
  538SOL    HW2 5657   8.658   0.372   3.017  0.3757 -0.4929 -0.6132
  539SOL     OW 5658   4.274   5.765   7.068  0.4735 -0.4574 -0.2836
  539SOL    HW1 5659   4.302   5.801   7.153 -1.6179  1.9009 -0.4575
  539SOL    HW2 5660   4.354   5.731   7.029  1.4805 -2.0037  2.7452
  540SOL     OW 5661   2.508   4.347   8.678 -0.0486  0.2796 -0.5081
  540SOL    HW1 5662   2.501   4.358   8.773  0.8864 -0.1026 -0.3827
  540SOL    HW2 5663   2.444   4.279   8.657 -0.6704  0.7652 -0.2476
  541SOL     OW 5664   6.999   2.498   1.968 -0.0994  0.4097  0.2634
  541SOL    HW1 5665   6.907   2.504   1.995  0.2090  1.9391  1.0965
  541SOL    HW2 5666   7.000   2.429   1.902 -1.4539 -1.2475  1.8561
  542SOL     OW 5667   0.798   3.768   6.570 -0.6116  0.2340  0.0414
  542SOL    HW1 5668   0.785   3.790   6.662  0.5498  0.2359  0.2122
  542SOL    HW2 5669   0.810   3.673   6.570  1.8196  0.4784  0.2203
  543SOL     OW 5670   0.713   2.497   2.021  0.4092  0.3770  0.3616
  543SOL    HW1 5671   0.797   2.499   1.974  0.0038  0.5002 -0.3658
  543SOL    HW2 5672   0.703   2.585   2.058  0.9989  0.1172  1.1868
  544SOL     OW 5673   0.846   9.330   9.214  0.1032 -0.9420  0.2418
  544SOL    HW1 5674   0.913   9.311   9.280 -0.1901 -1.9629  0.2564
  544SOL    HW2 5675   0.763   9.325   9.262 -0.0040  0.4012  0.2451
  545SOL     OW 5676   6.048   8.584   4.201 -0.1709  0.0678  0.7314
  545SOL    HW1 5677   6.003   8.588   4.286 -2.2079  2.6718 -0.3326
  545SOL    HW2 5678   6.055   8.675   4.174  0.5965 -0.6905 -1.8319
  546SOL     OW 5679   6.436   7.592   4.544 -0.3416 -0.1788 -0.1072
  546SOL    HW1 5680   6.399   7.680   4.535 -1.5331 -0.7088 -0.7009
  546SOL    HW2 5681   6.410   7.565   4.632  0.4269  0.2290  0.2521
  547SOL     OW 5682   7.177   6.475   1.817  0.0811 -0.0933 -0.3919
  547SOL    HW1 5683   7.211   6.416   1.749  2.8665  1.3313 -0.3823
  547SOL    HW2 5684   7.140   6.416   1.883 -1.6395 -1.5689 -2.5320
  548SOL     OW 5685   9.962   7.562   5.035  0.5787 -0.3556 -0.2404
  548SOL    HW1 5686   9.939   7.624   4.966  1.2070 -1.6034 -1.6086
  548SOL    HW2 5687  10.043   7.597   5.072 -0.5536  1.1564  0.9935
  549SOL     OW 5688   4.875   8.456   4.769  0.6581 -0.0937 -0.7257
  549SOL    HW1 5689   4.859   8.381   4.826 -0.7429  2.1990  2.1672
  549SOL    HW2 5690   4.792   8.471   4.725  0.8375 -0.0398 -1.0506
  550SOL     OW 5691   4.405   2.003   9.394  0.1894 -0.0189 -0.0372
  550SOL    HW1 5692   4.327   2.004   9.339  0.7087 -1.3170 -0.8551
  550SOL    HW2 5693   4.441   2.091   9.387 -0.9401  0.4663 -0.0024
  551SOL     OW 5694   6.265   4.828   5.736 -0.3613  0.0031 -0.4759
  551SOL    HW1 5695   6.355   4.812   5.767 -0.1064 -2.2398 -2.1311
  551SOL    HW2 5696   6.222   4.871   5.810  1.1401 -1.9411  1.6693
  552SOL     OW 5697   9.077   5.406   5.827 -0.0996  0.0264 -0.1965
  552SOL    HW1 5698   9.021   5.328   5.825  1.6596 -1.3547 -3.2596
  552SOL    HW2 5699   9.138   5.389   5.899  0.4030 -1.6284 -0.9512
  553SOL     OW 5700   7.069   7.282   1.873 -0.7205 -0.4073 -0.1601
  553SOL    HW1 5701   6.996   7.223   1.851  0.5524 -3.0688  2.0798
  553SOL    HW2 5702   7.139   7.255   1.814 -1.0705  1.2283 -1.3836
  554SOL     OW 5703   1.848   8.443   7.623  0.6484  0.7964  0.3982
  554SOL    HW1 5704   1.896   8.409   7.698 -0.8461 -1.9447  0.2242
  554SOL    HW2 5705   1.908   8.431   7.549  0.6338 -0.2816  0.5523
  555SOL     OW 5706   9.356   9.527   4.049  0.4722 -0.5001 -0.3676
  555SOL    HW1 5707   9.439   9.507   4.093 -0.2998  0.3972  1.5839
  555SOL    HW2 5708   9.289   9.488   4.105 -0.5587  0.7658 -0.6989
  556SOL     OW 5709   7.931   4.627   7.865  0.4962 -0.2957  0.5548
  556SOL    HW1 5710   7.865   4.562   7.888 -0.0525  0.0850  0.0736
  556SOL    HW2 5711   8.012   4.593   7.903 -0.3088  0.1691  2.7952
  557SOL     OW 5712   0.137   8.916   2.561 -0.7320 -0.2731  0.1752
  557SOL    HW1 5713   0.052   8.898   2.521  0.0613 -2.5341 -0.6115
  557SOL    HW2 5714   0.181   8.831   2.566  1.9431  0.9527 -0.4754
  558SOL     OW 5715   8.375   9.049   0.755  0.2743  0.9205  0.2320
  558SOL    HW1 5716   8.358   9.136   0.791  0.7731  0.6903  1.0665
  558SOL    HW2 5717   8.453   9.019   0.802 -1.3151 -1.0000  1.8643
  559SOL     OW 5718   9.510   3.258   7.665 -0.6074 -0.4182  0.1702
  559SOL    HW1 5719   9.532   3.324   7.598 -2.5729  1.6363  1.4271
  559SOL    HW2 5720   9.517   3.305   7.748 -0.2107 -2.3692  1.3049
  560SOL     OW 5721  10.149   6.539   9.012  0.5221 -0.5982 -0.0824
  560SOL    HW1 5722  10.148   6.468   9.075  1.7437  0.5782  1.3407
  560SOL    HW2 5723  10.241   6.548   8.986  0.3326  0.2051 -0.5373
  561SOL     OW 5724   0.575   4.268   1.315  0.1532 -0.1591  0.6702
  561SOL    HW1 5725   0.516   4.239   1.246  1.6458 -0.8522 -0.3874
  561SOL    HW2 5726   0.527   4.336   1.361 -1.2112 -0.2668 -0.5215
  562SOL     OW 5727   0.509   3.106   2.502  0.0993 -0.5055  0.2500
  562SOL    HW1 5728   0.440   3.039   2.507 -1.6577  1.3073  2.3504
  562SOL    HW2 5729   0.494   3.148   2.417  1.3914 -2.8283 -1.2153
  563SOL     OW 5730   0.960   9.796   4.657 -0.0663 -0.1017  0.1794
  563SOL    HW1 5731   0.937   9.887   4.676  0.4347 -0.2605  1.7262
  563SOL    HW2 5732   0.877   9.749   4.667 -0.3871  0.2000 -0.9115
  564SOL     OW 5733   6.632   4.990   6.566  0.4997 -0.1494  0.6722
  564SOL    HW1 5734   6.618   4.904   6.527 -1.0397  0.2765  0.1961
  564SOL    HW2 5735   6.714   4.982   6.615  1.2859 -1.3779 -0.7593
  565SOL     OW 5736   2.946   9.704   0.171 -0.0887 -0.2355  0.5990
  565SOL    HW1 5737   3.013   9.639   0.151 -0.8178 -0.7284 -0.2921
  565SOL    HW2 5738   2.878   9.655   0.218 -1.4660 -0.5680 -1.5953
  566SOL     OW 5739   3.401   0.569   6.019 -0.0717  0.7694  0.0180
  566SOL    HW1 5740   3.471   0.549   5.956  0.3187 -0.8179  0.8805
  566SOL    HW2 5741   3.435   0.539   6.103 -1.5390  0.5291  0.5675
  567SOL     OW 5742   5.752   7.814   8.899  0.1558 -0.1595  0.1754
  567SOL    HW1 5743   5.677   7.771   8.941  1.1450  0.4230  2.7459
  567SOL    HW2 5744   5.826   7.756   8.918  0.6657  0.1844 -0.7218
  568SOL     OW 5745   0.828   2.895   1.000  0.1900  0.3526 -0.6011
  568SOL    HW1 5746   0.812   2.828   1.066 -2.9663  0.0373 -1.5017
  568SOL    HW2 5747   0.831   2.846   0.917 -1.0893  1.1341 -1.1541
  569SOL     OW 5748   0.944   2.125   7.866 -0.9699  0.2765  0.1195
  569SOL    HW1 5749   0.916   2.081   7.947  1.8856 -0.4426  0.8506
  569SOL    HW2 5750   0.925   2.061   7.797  0.2061 -0.8353  0.7717
  570SOL     OW 5751   0.201   7.679   8.138  0.8428 -0.1630 -0.1710
  570SOL    HW1 5752   0.131   7.728   8.094 -0.2270  0.3519  1.9851
  570SOL    HW2 5753   0.189   7.589   8.109 -1.1148 -0.1914  0.5835
  571SOL     OW 5754   9.850   1.589   5.687 -0.3819 -0.3086  0.3327
  571SOL    HW1 5755   9.849   1.648   5.611 -0.1575 -2.0294 -1.0843
  571SOL    HW2 5756   9.767   1.541   5.680 -1.6861  1.3662  2.8146
  572SOL     OW 5757   2.296   1.898   3.528 -0.7632 -0.1630 -0.5915
  572SOL    HW1 5758   2.332   1.964   3.468 -0.0404  1.0160  1.0565
  572SOL    HW2 5759   2.370   1.842   3.549 -0.6912  0.1803  0.1206
  573SOL     OW 5760   2.765  10.173  10.230 -0.4398  0.2083  0.3483
  573SOL    HW1 5761   2.842  10.218  10.194 -1.5134  1.1236 -0.9226
  573SOL    HW2 5762   2.723  10.238  10.286 -0.2381 -0.3300  1.1414
  574SOL     OW 5763   7.901   1.367   3.714  0.2096 -0.0804  0.1715
  574SOL    HW1 5764   7.987   1.393   3.745  0.2681 -0.5650  0.4247
  574SOL    HW2 5765   7.912   1.276   3.685  0.0928  0.2750 -1.0255
  575SOL     OW 5766   2.348   4.076   5.218 -0.0240  0.7804  0.5068
  575SOL    HW1 5767   2.352   3.981   5.220 -0.6578  0.7330 -0.2660
  575SOL    HW2 5768   2.439   4.104   5.214  0.1314  0.1602 -0.7549
  576SOL     OW 5769   5.317   6.893   9.761  0.5508  0.1285  0.3763
  576SOL    HW1 5770   5.272   6.965   9.716  0.3674 -1.6060 -2.4089
  576SOL    HW2 5771   5.398   6.933   9.793  0.7218  1.5053 -1.5808
  577SOL     OW 5772   2.573   6.329   7.398  0.0968  0.4123 -0.8121
  577SOL    HW1 5773   2.529   6.404   7.358 -1.3605  0.4810  0.7922
  577SOL    HW2 5774   2.503   6.264   7.410  0.9121 -0.4003 -0.3242
  578SOL     OW 5775   0.765   5.630   6.563 -0.3324  0.2817  0.3569
  578SOL    HW1 5776   0.777   5.560   6.499  1.7902 -0.0435  1.0430
  578SOL    HW2 5777   0.677   5.614   6.599 -1.5850  0.4311 -2.3356
  579SOL     OW 5778   4.783   1.772   4.155  0.2185  0.0092 -0.3248
  579SOL    HW1 5779   4.747   1.847   4.202 -1.0495 -0.4707 -0.4739
  579SOL    HW2 5780   4.727   1.763   4.077  1.7611  0.2815 -1.5002
  580SOL     OW 5781   6.206  10.198   7.558  0.0220 -0.1782  0.2695
  580SOL    HW1 5782   6.257  10.269   7.517  2.5263 -1.7749  0.3834
  580SOL    HW2 5783   6.253  10.179   7.639 -0.7365 -1.7826  0.3709
  581SOL     OW 5784   5.401   1.174   2.130 -0.2346 -0.3446  0.5426
  581SOL    HW1 5785   5.493   1.161   2.153 -0.3619 -2.4489  0.0525
  581SOL    HW2 5786   5.370   1.087   2.104 -1.9416  0.6145 -0.8663
  582SOL     OW 5787   1.915  10.261   5.636 -0.0896 -0.3833 -0.0916
  582SOL    HW1 5788   1.873  10.325   5.579  0.2724  0.6336  0.7314
  582SOL    HW2 5789   1.844  10.205   5.666 -0.6927  0.6004  0.3782
  583SOL     OW 5790   6.237   2.010   5.642  0.2633 -0.3513  0.0329
  583SOL    HW1 5791   6.259   1.971   5.727  0.3194 -0.8678 -0.2134
  583SOL    HW2 5792   6.308   1.983   5.584  1.7644  2.3413  0.4651
  584SOL     OW 5793   7.574  10.065   1.400  0.0790  0.5198  0.4536
  584SOL    HW1 5794   7.655  10.032   1.439  1.8100  1.6938 -1.8904
  584SOL    HW2 5795   7.560  10.149   1.442  0.5927  0.7108  0.2512
  585SOL     OW 5796   4.664   0.474   6.470 -0.1977 -0.4905  0.0629
  585SOL    HW1 5797   4.759   0.476   6.460 -0.1401 -0.9142  0.4827
  585SOL    HW2 5798   4.632   0.539   6.408  0.4710  0.9031  1.1086
  586SOL     OW 5799   7.087   6.191   1.414  0.0383 -0.7021  0.1113
  586SOL    HW1 5800   7.097   6.111   1.363 -1.7575 -0.2927 -0.9753
  586SOL    HW2 5801   7.047   6.253   1.353  0.5959  0.7539  1.1795
  587SOL     OW 5802   3.391   6.740   4.134  0.0240  0.1409  0.2426
  587SOL    HW1 5803   3.450   6.805   4.096 -0.7063  0.9053  0.4175
  587SOL    HW2 5804   3.450   6.677   4.176  0.8214 -0.3227 -1.4757
  588SOL     OW 5805   4.234   8.680   1.650 -0.2121 -0.1417 -0.0384
  588SOL    HW1 5806   4.248   8.757   1.595  2.1472 -0.0734  0.5379
  588SOL    HW2 5807   4.268   8.607   1.598  0.0469 -0.3894  0.4716
  589SOL     OW 5808   3.287   6.664   7.129  0.2015 -0.3528  0.4077
  589SOL    HW1 5809   3.260   6.616   7.051  0.8401  0.0959 -0.0888
  589SOL    HW2 5810   3.284   6.599   7.199  0.9098 -1.0812 -0.2315
  590SOL     OW 5811   8.656   9.810   7.817  0.3464  0.3610 -0.3187
  590SOL    HW1 5812   8.747   9.829   7.840  0.2135  1.1045 -0.3637
  590SOL    HW2 5813   8.620   9.766   7.893  0.8901 -0.4177 -0.5055
  591SOL     OW 5814   6.139   8.272   2.146  0.6181 -0.1258  0.0731
  591SOL    HW1 5815   6.120   8.243   2.057 -0.0125 -0.8281  0.4305
  591SOL    HW2 5816   6.234   8.266   2.154  0.6125 -0.7351 -0.3225
  592SOL     OW 5817   4.149   2.446   0.242 -0.1546  0.3014 -0.4513
  592SOL    HW1 5818   4.241   2.426   0.226 -0.2142 -0.7486  0.3952
  592SOL    HW2 5819   4.119   2.377   0.301 -1.2774  1.0912 -0.0589
  593SOL     OW 5820   0.821   5.659   6.132 -0.7505 -0.2602  0.4475
  593SOL    HW1 5821   0.764   5.625   6.063 -2.6784  1.7793  0.9131
  593SOL    HW2 5822   0.808   5.599   6.206  0.1480 -1.5649 -0.4011
  594SOL     OW 5823   1.471   6.347   7.224  0.0925  0.0352  0.6707
  594SOL    HW1 5824   1.381   6.331   7.252  0.5852  0.5343  2.6970
  594SOL    HW2 5825   1.524   6.329   7.302  1.8286 -0.8230 -0.6309
  595SOL     OW 5826   0.151   5.365   8.607 -0.4915 -0.3999 -0.3418
  595SOL    HW1 5827   0.177   5.451   8.574  1.9439 -1.5099 -1.5402
  595SOL    HW2 5828   0.114   5.382   8.693  2.1966  1.6463  0.5111
  596SOL     OW 5829   7.617   4.400   8.697 -0.4946  0.3121  0.3917
  596SOL    HW1 5830   7.532   4.369   8.730 -0.9682  0.7826 -0.3761
  596SOL    HW2 5831   7.620   4.370   8.606  0.3338 -0.0276  0.5228
  597SOL     OW 5832   1.388   1.973   8.469  0.5306  0.2801  0.9719
  597SOL    HW1 5833   1.310   2.026   8.452  1.3745  1.2755  0.0171
  597SOL    HW2 5834   1.355   1.884   8.477 -0.8475  0.8308  1.8986
  598SOL     OW 5835   1.363   9.017   8.988  0.1373  0.5249 -0.5851
  598SOL    HW1 5836   1.277   9.038   9.024  0.9043  1.1388  0.9779
  598SOL    HW2 5837   1.423   9.023   9.062  1.4242 -0.7200 -1.4663
  599SOL     OW 5838   2.003   3.575   0.776 -0.0900 -0.2803 -0.0121
  599SOL    HW1 5839   1.951   3.515   0.722 -0.6704 -2.3355  2.5861
  599SOL    HW2 5840   2.031   3.644   0.716 -0.8934 -2.2160 -2.8033
  600SOL     OW 5841   6.870   9.551   3.018 -0.3677 -0.2732 -0.3395
  600SOL    HW1 5842   6.827   9.560   2.933 -2.1351 -0.6102  0.4755
  600SOL    HW2 5843   6.803   9.577   3.082  0.8789 -0.1565  0.9586
  601SOL     OW 5844   5.719   2.396   6.496 -0.5170 -0.2784 -0.7177
  601SOL    HW1 5845   5.772   2.342   6.555  1.0074  0.5353 -1.2909
  601SOL    HW2 5846   5.705   2.341   6.419  0.3222 -0.1770 -0.9547
  602SOL     OW 5847   3.020   7.178   2.599 -0.1036 -0.0424 -0.5313
  602SOL    HW1 5848   2.993   7.259   2.642  0.1436  0.3001 -1.0068
  602SOL    HW2 5849   2.960   7.169   2.525  0.8551  0.5581 -1.4126
  603SOL     OW 5850   8.183   8.956   8.490 -0.3482 -0.0427  0.4819
  603SOL    HW1 5851   8.124   8.964   8.415  0.7437  1.9408 -0.2462
  603SOL    HW2 5852   8.175   8.865   8.518 -1.5262 -0.5727 -1.4321
  604SOL     OW 5853   9.257   4.076   9.489 -0.4078 -0.0595  0.2393
  604SOL    HW1 5854   9.288   4.042   9.573  1.7819  0.6006 -0.2494
  604SOL    HW2 5855   9.327   4.132   9.458 -1.6043  0.5292 -1.5810
  605SOL     OW 5856   8.366   0.097   2.380  0.4643 -0.2312  1.0426
  605SOL    HW1 5857   8.349   0.187   2.350 -1.2613 -0.9016 -0.1840
  605SOL    HW2 5858   8.457   0.098   2.408  0.7706  1.6781  0.1886
  606SOL     OW 5859   7.796   1.913   0.235  0.1612 -0.4209 -0.0594
  606SOL    HW1 5860   7.828   2.000   0.258 -0.0813 -0.7254  1.4802
  606SOL    HW2 5861   7.748   1.927   0.153  1.2605  0.6357 -0.5668
  607SOL     OW 5862   3.079  10.120   5.883  0.6831 -0.7083 -0.1157
  607SOL    HW1 5863   3.100  10.159   5.798 -0.9219  0.4693 -0.0211
  607SOL    HW2 5864   3.066  10.027   5.863 -1.9587 -0.1181 -1.7198
  608SOL     OW 5865   4.410   3.062   1.605  0.4893 -0.0579  0.4886
  608SOL    HW1 5866   4.443   2.981   1.567  0.1812 -0.6862  1.5302
  608SOL    HW2 5867   4.476   3.128   1.583  0.8075 -0.6064 -0.2485
  609SOL     OW 5868   6.784   4.231   6.163  0.1049 -0.2568  0.2168
  609SOL    HW1 5869   6.839   4.309   6.166 -0.0359 -0.1388 -0.0925
  609SOL    HW2 5870   6.722   4.242   6.235  0.1234 -0.1066  0.2099
  610SOL     OW 5871   1.210   9.740   4.773 -0.4551 -0.2354  0.1109
  610SOL    HW1 5872   1.210   9.819   4.828 -1.3258  1.1390 -1.7352
  610SOL    HW2 5873   1.124   9.741   4.731 -0.0786 -1.6188 -0.7582
  611SOL     OW 5874   2.814   9.977   2.935 -0.2699  0.2763  0.3158
  611SOL    HW1 5875   2.852   9.914   2.875 -0.4626 -1.1736  1.6342
  611SOL    HW2 5876   2.822   9.936   3.021 -1.8842  1.3262  1.0292
  612SOL     OW 5877   3.781   8.142   5.891 -0.3025 -0.0436 -0.1866
  612SOL    HW1 5878   3.709   8.174   5.837 -0.5266 -1.8066 -0.9834
  612SOL    HW2 5879   3.796   8.212   5.955 -2.1028  0.7433 -0.5794
  613SOL     OW 5880   0.457   5.396   2.846 -0.3235  0.2361 -0.1960
  613SOL    HW1 5881   0.423   5.434   2.927 -2.1156 -1.6290  0.0035
  613SOL    HW2 5882   0.443   5.302   2.856  0.9494 -0.1976 -2.0053
  614SOL     OW 5883   0.016   9.819   0.376  0.1407  0.2814  0.0687
  614SOL    HW1 5884   0.097   9.817   0.427  0.5341  0.9792 -0.5145
  614SOL    HW2 5885   0.013   9.908   0.340 -0.8741  0.2547  0.0732
  615SOL     OW 5886   0.060   5.321   9.406  0.0325  0.5542 -0.8290
  615SOL    HW1 5887   0.032   5.373   9.481  0.3280  0.1725 -0.4504
  615SOL    HW2 5888   0.100   5.384   9.347  1.4613  0.6111  0.1446
  616SOL     OW 5889   2.377   0.340   9.390 -0.0380 -0.3546  0.2534
  616SOL    HW1 5890   2.446   0.290   9.432 -0.4295 -0.2299  1.0730
  616SOL    HW2 5891   2.351   0.405   9.456 -1.0996 -0.5595  0.0636
  617SOL     OW 5892   6.728   0.304   3.934  0.5563  0.1024  0.2505
  617SOL    HW1 5893   6.769   0.291   3.849  0.1260  0.5640 -0.0345
  617SOL    HW2 5894   6.708   0.216   3.965  0.2662 -0.0527 -0.3537
  618SOL     OW 5895   6.921   0.468   7.542  0.5590  0.0110 -0.5093
  618SOL    HW1 5896   6.996   0.514   7.579 -0.4926 -0.0516  1.8965
  618SOL    HW2 5897   6.905   0.395   7.602 -2.0787  0.6815 -0.2517
  619SOL     OW 5898   5.623   0.069   4.578  0.6684  0.2938 -0.2408
  619SOL    HW1 5899   5.550   0.108   4.627 -0.7788 -2.2441 -0.1668
  619SOL    HW2 5900   5.695   0.131   4.588  0.4604  0.1834  4.9796
  620SOL     OW 5901   9.617   0.428   6.113 -0.2949  0.0498  0.3674
  620SOL    HW1 5902   9.648   0.418   6.203 -1.8001  0.1914  0.9360
  620SOL    HW2 5903   9.635   0.520   6.092  0.8166 -0.1975  0.2150
  621SOL     OW 5904   9.961   9.086   6.841  0.2963 -0.0454 -0.3709
  621SOL    HW1 5905  10.050   9.053   6.848  0.0772 -0.8084 -1.0418
  621SOL    HW2 5906   9.970   9.181   6.850  1.0425 -0.1951  0.6134
  622SOL     OW 5907   9.718   0.001   0.857  0.6927 -0.3074  0.1187
  622SOL    HW1 5908   9.748  -0.037   0.940  0.8372 -2.6513 -0.9439
  622SOL    HW2 5909   9.790  -0.015   0.796  0.3030  0.7970 -0.6665
  623SOL     OW 5910   2.830   0.556   3.687 -0.2979 -0.3372 -0.0635
  623SOL    HW1 5911   2.787   0.584   3.606 -0.0095 -1.3121 -0.5638
  623SOL    HW2 5912   2.923   0.570   3.669 -0.3147  0.8379  0.6564
  624SOL     OW 5913  10.102   5.584   8.425  0.1805  0.7708  0.4082
  624SOL    HW1 5914  10.059   5.603   8.509 -0.5072 -0.7408  0.4370
  624SOL    HW2 5915  10.153   5.505   8.442  2.4697  2.1393  0.1676
  625SOL     OW 5916   7.202   2.792   6.882 -0.4755 -0.4387  0.2411
  625SOL    HW1 5917   7.213   2.755   6.969  1.1617 -0.2787  0.1232
  625SOL    HW2 5918   7.248   2.731   6.824 -3.0621 -1.5607 -0.8284
  626SOL     OW 5919   0.618   8.103   7.420 -0.2297 -0.2596 -1.1008
  626SOL    HW1 5920   0.532   8.086   7.381 -0.4322 -1.6356 -0.1237
  626SOL    HW2 5921   0.607   8.186   7.466 -0.3687  0.7101 -2.7965
  627SOL     OW 5922   6.384   5.675   7.934 -0.3874  0.9752 -0.2447
  627SOL    HW1 5923   6.391   5.710   8.023  0.0128 -0.3113  0.2573
  627SOL    HW2 5924   6.291   5.662   7.920 -0.4151  0.6524  0.2140
  628SOL     OW 5925   9.105   3.617   0.896  0.0777 -0.0400 -0.0076
  628SOL    HW1 5926   9.129   3.667   0.974  0.3448  0.4416 -0.3906
  628SOL    HW2 5927   9.141   3.668   0.823  0.5512 -0.9059 -0.3975
  629SOL     OW 5928   0.806   1.861   0.014  0.0744  0.9126  0.4191
  629SOL    HW1 5929   0.824   1.825   0.101 -2.2189 -0.4549  0.3943
  629SOL    HW2 5930   0.711   1.868   0.010  0.0660  0.2359 -2.2546
  630SOL     OW 5931   6.008   6.020   3.526 -0.0328  0.0465  0.1232
  630SOL    HW1 5932   5.994   6.077   3.602 -0.8697 -0.6072  0.4691
  630SOL    HW2 5933   6.009   6.079   3.451 -0.2225  0.5890  0.5436
  631SOL     OW 5934   6.725   6.403   4.937  0.0476 -0.2583 -0.0310
  631SOL    HW1 5935   6.674   6.322   4.944  0.8977 -0.6720  2.1697
  631SOL    HW2 5936   6.704   6.437   4.850  0.4371 -3.3870 -1.4983
  632SOL     OW 5937  10.088   5.491   5.752 -0.1877 -0.0110  0.1879
  632SOL    HW1 5938  10.109   5.531   5.836 -0.8165  0.9252 -0.0966
  632SOL    HW2 5939   9.996   5.466   5.760 -0.4914  0.8544 -0.5177
  633SOL     OW 5940   0.871   1.472   0.924  0.1519  0.3355  0.4593
  633SOL    HW1 5941   0.913   1.454   0.839 -1.1426  0.6790 -0.2819
  633SOL    HW2 5942   0.936   1.524   0.972  1.5023 -1.1279  0.2869
  634SOL     OW 5943   1.443   6.129   4.527  0.4803 -0.3365 -0.3293
  634SOL    HW1 5944   1.395   6.122   4.610 -0.3423 -0.8361 -0.8297
  634SOL    HW2 5945   1.416   6.052   4.477  1.0201 -0.0766 -1.0393
  635SOL     OW 5946   4.941   2.062   5.359 -0.0771 -0.0187 -0.0183
  635SOL    HW1 5947   4.991   2.000   5.413 -0.6244 -1.2392 -0.8555
  635SOL    HW2 5948   4.884   2.006   5.306  0.9126  1.0745 -2.3614
  636SOL     OW 5949   9.605   7.242   6.137 -0.0869 -0.3852 -0.0785
  636SOL    HW1 5950   9.612   7.213   6.228 -1.8642 -0.4244  0.0737
  636SOL    HW2 5951   9.613   7.161   6.085  0.2061 -0.4531  0.0697
  637SOL     OW 5952   6.215   1.724   2.952 -0.0658 -0.5905  0.0796
  637SOL    HW1 5953   6.293   1.670   2.960  0.8413  0.8795  1.7942
  637SOL    HW2 5954   6.148   1.678   3.004 -0.4424 -1.9416 -1.5405
  638SOL     OW 5955   8.187   7.199   1.881  0.0580  0.2523 -0.3546
  638SOL    HW1 5956   8.179   7.213   1.975 -1.0858  3.3201 -0.7832
  638SOL    HW2 5957   8.121   7.132   1.861 -0.6528  0.5577  0.8513
  639SOL     OW 5958   9.195   5.858   7.241 -0.3390 -0.2517  0.0400
  639SOL    HW1 5959   9.158   5.826   7.159 -1.8984 -0.0417  0.6259
  639SOL    HW2 5960   9.147   5.811   7.309  0.7813 -0.2642  0.8535
  640SOL     OW 5961   0.778   8.686   5.026  0.3707 -0.0855 -0.2213
  640SOL    HW1 5962   0.697   8.712   5.068  0.4434  0.2093 -0.2578
  640SOL    HW2 5963   0.841   8.677   5.097  0.0049 -1.5297 -0.0539
  641SOL     OW 5964   9.465   7.511   6.887  0.0475 -0.3772  0.0316
  641SOL    HW1 5965   9.516   7.551   6.958 -1.4626 -0.5411  1.2733
  641SOL    HW2 5966   9.421   7.585   6.845 -0.2602 -0.4094  0.2853
  642SOL     OW 5967   3.324   7.090   1.719 -0.0150 -0.1259 -0.1089
  642SOL    HW1 5968   3.328   7.036   1.640 -2.3412  0.5562 -0.7741
  642SOL    HW2 5969   3.411   7.083   1.757  0.8408 -1.3848 -2.1261
  643SOL     OW 5970   1.654   5.940   8.864 -0.1693  0.4808 -0.7321
  643SOL    HW1 5971   1.717   5.947   8.936  0.1480  1.4806 -1.0981
  643SOL    HW2 5972   1.603   6.021   8.868  0.8659  1.2738 -2.5520
  644SOL     OW 5973   5.683   6.310   6.441  0.0627 -0.1547  0.5506
  644SOL    HW1 5974   5.711   6.287   6.529 -0.5835 -0.7356  0.6229
  644SOL    HW2 5975   5.764   6.323   6.392  0.4317 -0.2450  1.1279
  645SOL     OW 5976   0.540   6.405   2.873  0.1310 -0.1147  0.3280
  645SOL    HW1 5977   0.635   6.395   2.866  0.4294  2.0516  0.6983
  645SOL    HW2 5978   0.506   6.357   2.798  1.4063 -2.0091  0.8969
  646SOL     OW 5979   0.130   4.739   5.646 -0.0404  0.2757 -0.2201
  646SOL    HW1 5980   0.166   4.657   5.611  1.3321  1.3856 -1.5836
  646SOL    HW2 5981   0.123   4.724   5.740  1.4793 -0.9621 -0.2581
  647SOL     OW 5982   6.132   8.009   3.174 -0.9718 -0.2561 -0.2912
  647SOL    HW1 5983   6.120   8.069   3.101  0.2256  1.3083  0.7344
  647SOL    HW2 5984   6.094   8.054   3.249 -1.1480 -1.3362  0.2907
  648SOL     OW 5985   5.476   4.297  10.118 -0.1451 -0.0869  0.2435
  648SOL    HW1 5986   5.425   4.216  10.117  1.3361 -1.0617  0.0353
  648SOL    HW2 5987   5.514   4.302  10.030  2.5627 -1.0738  1.2455
  649SOL     OW 5988   7.991   2.147   5.248 -0.2691 -0.7370  0.2807
  649SOL    HW1 5989   7.924   2.123   5.311  0.1454  0.0093  1.0277
  649SOL    HW2 5990   7.991   2.243   5.249  0.4269 -0.7293 -0.1097
  650SOL     OW 5991   7.534   7.153   9.392  0.2009  0.0995 -0.4877
  650SOL    HW1 5992   7.444   7.157   9.425  0.0163  0.1145 -0.9871
  650SOL    HW2 5993   7.547   7.236   9.347 -0.2719 -0.7470 -2.2685
  651SOL     OW 5994   0.148   4.744   0.013  0.3173  0.3374 -0.2296
  651SOL    HW1 5995   0.226   4.729  -0.041  0.7993  2.6249 -0.2609
  651SOL    HW2 5996   0.171   4.710   0.099  1.3090  0.8079 -0.2909
  652SOL     OW 5997   5.569   3.508   9.469 -0.1191 -0.3424  0.4234
  652SOL    HW1 5998   5.540   3.593   9.437  2.1390 -0.7674 -3.2262
  652SOL    HW2 5999   5.622   3.528   9.546 -0.0039  1.5130 -0.0976
  653SOL     OW 6000   7.796   2.840   4.132  0.4536 -0.0341  0.0025
  653SOL    HW1 6001   7.833   2.792   4.206  0.6518  0.3559  0.1626
  653SOL    HW2 6002   7.701   2.828   4.141  0.4106  0.8217  0.9061
  654SOL     OW 6003   0.468   4.286   3.183 -0.3773  0.1022  0.0101
  654SOL    HW1 6004   0.469   4.244   3.097  2.0104  0.9664 -0.4643
  654SOL    HW2 6005   0.485   4.216   3.245  0.8888 -0.0922 -0.5270
  655SOL     OW 6006   3.752  10.065   3.738 -0.2420  0.7196  0.3036
  655SOL    HW1 6007   3.735  10.041   3.646  0.0302  0.6139  0.2799
  655SOL    HW2 6008   3.665  10.066   3.779 -0.5112  1.9683 -0.2419
  656SOL     OW 6009   4.632   8.976   8.299 -0.0971 -0.9545  0.0270
  656SOL    HW1 6010   4.696   8.987   8.229  0.0057  0.4505  0.3137
  656SOL    HW2 6011   4.684   8.961   8.378  0.0382  1.7053  0.5495
  657SOL     OW 6012   0.329   7.590   8.364  0.6746  0.2688 -0.0188
  657SOL    HW1 6013   0.421   7.604   8.342  0.8049 -0.8869 -0.2911
  657SOL    HW2 6014   0.283   7.598   8.281  0.6493 -0.0570 -0.0372
  658SOL     OW 6015   0.257   9.159   0.785  0.4225  0.4616  0.0059
  658SOL    HW1 6016   0.162   9.168   0.781  0.1267 -1.3260  1.5623
  658SOL    HW2 6017   0.273   9.065   0.790  2.1925  0.7465  0.9355
  659SOL     OW 6018   3.565   5.541   6.957  0.0643 -0.2109  0.4719
  659SOL    HW1 6019   3.603   5.610   6.904  0.0829 -1.3007 -1.0031
  659SOL    HW2 6020   3.629   5.470   6.953 -1.2153 -1.3822 -0.5077
  660SOL     OW 6021   0.034   4.961   3.229  0.2579  0.2853 -0.4964
  660SOL    HW1 6022   0.120   5.000   3.214 -0.3503  1.5429 -0.8685
  660SOL    HW2 6023  -0.021   4.998   3.160 -0.5052 -0.7660 -0.4678
  661SOL     OW 6024   0.753   8.631   8.021 -0.1825  0.2115 -0.6851
  661SOL    HW1 6025   0.815   8.631   8.094  0.8720 -0.9113 -1.5153
  661SOL    HW2 6026   0.667   8.641   8.062  0.5337  2.1419  0.4857
  662SOL     OW 6027   7.838   5.482   9.549 -0.9808  0.3280 -0.7850
  662SOL    HW1 6028   7.887   5.503   9.629 -0.7963  2.0944 -1.3184
  662SOL    HW2 6029   7.791   5.402   9.570  0.5121 -0.2775  0.4569
  663SOL     OW 6030   3.228   0.357   8.081 -0.4677 -0.1852 -0.3838
  663SOL    HW1 6031   3.245   0.276   8.129  0.6574 -0.6761 -1.5647
  663SOL    HW2 6032   3.287   0.353   8.006 -1.3729  1.1016 -1.1905
  664SOL     OW 6033   7.203   8.248   4.185 -0.0144 -0.2516  0.6280
  664SOL    HW1 6034   7.156   8.200   4.253  0.7871 -1.2357  0.5064
  664SOL    HW2 6035   7.275   8.190   4.160 -0.4895 -0.0659 -1.3101
  665SOL     OW 6036   2.012   7.058   7.043  0.0219  0.7131  0.7546
  665SOL    HW1 6037   1.943   6.999   7.072  0.2423  0.7458  1.3603
  665SOL    HW2 6038   2.070   7.004   6.989 -1.4126  1.0846 -1.2493
  666SOL     OW 6039   0.143   9.232   7.313 -0.4541  0.3394  0.2467
  666SOL    HW1 6040   0.122   9.142   7.338  0.4041  0.1509  0.2960
  666SOL    HW2 6041   0.237   9.240   7.326 -0.3960  1.0126 -0.4916
  667SOL     OW 6042   7.681   7.997   3.833  0.2027 -0.2180  0.3644
  667SOL    HW1 6043   7.729   8.079   3.827 -0.4051  0.0952 -0.4017
  667SOL    HW2 6044   7.721   7.941   3.766  0.0554 -0.2390  0.2922
  668SOL     OW 6045   9.938   4.220   8.124  0.4817 -0.4579  0.2666
  668SOL    HW1 6046   9.884   4.141   8.135 -1.4721  0.7544 -0.1739
  668SOL    HW2 6047  10.008   4.210   8.189 -0.9600 -1.5239  1.7397
  669SOL     OW 6048   9.013   1.708   1.051 -0.8839 -0.0602 -0.2655
  669SOL    HW1 6049   9.101   1.721   1.018 -0.4917  1.4099  1.2464
  669SOL    HW2 6050   8.971   1.652   0.985  0.7561  0.2504 -1.6439
  670SOL     OW 6051   5.793   9.214   2.364 -0.0377  1.1691  0.0648
  670SOL    HW1 6052   5.875   9.264   2.361  0.6479  0.0813 -0.2238
  670SOL    HW2 6053   5.757   9.222   2.275 -1.4892  3.5603  0.7839
  671SOL     OW 6054   4.945   0.972   0.089  0.0720 -0.1722 -0.1285
  671SOL    HW1 6055   4.893   0.899   0.123  1.2894 -0.7490  0.5556
  671SOL    HW2 6056   4.883   1.023   0.035 -0.9564 -1.3277 -0.0758
  672SOL     OW 6057   1.806   5.267   0.840 -0.6238  0.5325 -0.5401
  672SOL    HW1 6058   1.751   5.306   0.772 -0.7714 -1.7026 -1.7961
  672SOL    HW2 6059   1.892   5.260   0.799 -0.2600  0.8285  0.1694
  673SOL     OW 6060   4.690   1.694   1.062 -0.0279 -0.1800 -0.1065
  673SOL    HW1 6061   4.774   1.730   1.032 -0.4087  1.5125  0.7167
  673SOL    HW2 6062   4.648   1.663   0.982  0.2757  1.4181 -0.9314
  674SOL     OW 6063   4.564  10.156   7.616  0.0667 -0.2627  0.1898
  674SOL    HW1 6064   4.595  10.121   7.699 -0.6108  0.2780  0.6900
  674SOL    HW2 6065   4.497  10.094   7.587 -0.2820 -0.0177  0.4678
  675SOL     OW 6066   6.860   7.642   8.283 -0.3901 -0.2167  0.0755
  675SOL    HW1 6067   6.801   7.636   8.357  2.1712  0.7062  2.3838
  675SOL    HW2 6068   6.896   7.554   8.273 -0.2224 -0.1883  0.4157
  676SOL     OW 6069   8.225   7.898   9.783 -0.4313 -0.0606  0.2795
  676SOL    HW1 6070   8.153   7.949   9.745  0.1555 -0.0077 -0.8122
  676SOL    HW2 6071   8.301   7.921   9.729  0.1897 -0.8664  0.7903
  677SOL     OW 6072   1.084   6.463   1.722 -0.5121  0.2774  0.4845
  677SOL    HW1 6073   1.037   6.391   1.765 -1.1668  1.1607  1.3030
  677SOL    HW2 6074   1.091   6.531   1.789  2.6877 -0.0782  0.6494
  678SOL     OW 6075   8.189   8.706  10.288 -0.7731 -0.3115 -0.5335
  678SOL    HW1 6076   8.184   8.749  10.374  0.9435 -0.1282 -0.5046
  678SOL    HW2 6077   8.170   8.776  10.225  2.7556  0.8057 -0.5301
  679SOL     OW 6078   8.587   5.822   0.161  0.0194  0.1386 -0.1631
  679SOL    HW1 6079   8.514   5.869   0.202 -0.6976 -1.4691  0.4847
  679SOL    HW2 6080   8.568   5.827   0.067 -1.2730 -0.7628  0.0299
  680SOL     OW 6081  10.129   3.726   4.307 -0.4932  0.3631 -0.0916
  680SOL    HW1 6082  10.099   3.762   4.224  0.8456 -0.9892 -1.1994
  680SOL    HW2 6083  10.202   3.783   4.333 -0.2211  0.1521 -0.3915
  681SOL     OW 6084   5.004   8.434   1.047 -0.7763  0.5004  0.0371
  681SOL    HW1 6085   4.989   8.520   1.086 -0.1246 -0.3321  2.2333
  681SOL    HW2 6086   5.052   8.385   1.113 -1.6693 -1.7804 -0.8997
  682SOL     OW 6087   0.560   9.384   2.194 -0.0023 -0.3594  0.2926
  682SOL    HW1 6088   0.614   9.425   2.262  2.5829 -1.4774 -0.9343
  682SOL    HW2 6089   0.594   9.420   2.112 -2.0188 -0.1835 -0.5125
  683SOL     OW 6090   5.471   8.808   7.688  0.3515 -0.1594  0.1612
  683SOL    HW1 6091   5.478   8.887   7.635 -1.3956 -0.3828 -0.4895
  683SOL    HW2 6092   5.394   8.822   7.744  0.8872 -0.8048  1.0972
  684SOL     OW 6093   4.255   6.014   3.485  0.9006  0.2741 -0.0032
  684SOL    HW1 6094   4.345   6.005   3.517  0.7634 -1.8360 -0.0972
  684SOL    HW2 6095   4.201   6.002   3.563  0.6686 -0.0401 -0.2124
  685SOL     OW 6096   4.961   4.640   0.578  0.0227  0.1633 -0.0097
  685SOL    HW1 6097   4.934   4.726   0.547  0.2213 -0.0294 -0.7432
  685SOL    HW2 6098   4.971   4.650   0.672  0.2194  0.9952 -0.1120
  686SOL     OW 6099   8.992   5.682   9.605  0.1496  0.1874 -0.5693
  686SOL    HW1 6100   9.069   5.627   9.618  0.8447  0.9765 -1.2058
  686SOL    HW2 6101   9.010   5.730   9.524 -1.0852  0.2694 -0.8181
  687SOL     OW 6102   9.959   5.054   2.942  0.5474 -0.0325  0.1676
  687SOL    HW1 6103  10.046   5.093   2.953  0.6474 -0.3941  0.6980
  687SOL    HW2 6104   9.975   4.976   2.888  0.7030 -0.5931  0.9893
  688SOL     OW 6105   9.105   2.470   9.924 -0.1209  0.6653 -0.0363
  688SOL    HW1 6106   9.149   2.516   9.853  0.2244  2.5914  1.3440
  688SOL    HW2 6107   9.175   2.421   9.967  0.0078  0.8802  0.0017
  689SOL     OW 6108   9.796   2.086   7.361 -1.0692 -0.1876  0.5885
  689SOL    HW1 6109   9.789   2.080   7.456  0.6194 -0.6087  0.7302
  689SOL    HW2 6110   9.859   2.157   7.346 -0.9770 -0.4201 -0.1875
  690SOL     OW 6111   0.960   3.155   3.485  0.5747  0.6646  0.2204
  690SOL    HW1 6112   0.949   3.244   3.451 -0.5471  0.5581  0.2709
  690SOL    HW2 6113   0.908   3.154   3.565  0.5374 -0.0520  0.1897
  691SOL     OW 6114   3.587   5.263   2.556  0.5275 -0.0550 -0.3409
  691SOL    HW1 6115   3.589   5.328   2.627  0.1319  0.5187 -0.8546
  691SOL    HW2 6116   3.661   5.205   2.576  0.9760  0.6303  0.0500
  692SOL     OW 6117   9.695   1.136   0.607 -0.6371  0.1024  0.2016
  692SOL    HW1 6118   9.603   1.134   0.632 -0.7917  2.9115  0.0673
  692SOL    HW2 6119   9.695   1.165   0.516  0.3857 -0.6524 -0.0598
  693SOL     OW 6120   3.192   1.460   4.096  0.0627  0.3473  0.2456
  693SOL    HW1 6121   3.177   1.366   4.095  1.3195  0.1206 -0.9907
  693SOL    HW2 6122   3.212   1.481   4.187  0.9452 -0.7856  0.3272
  694SOL     OW 6123   6.626   6.129   0.730 -0.0493 -0.5591 -0.6957
  694SOL    HW1 6124   6.678   6.134   0.810 -0.9193  0.4135 -0.1641
  694SOL    HW2 6125   6.613   6.220   0.704 -1.1681 -0.7925 -1.0129
  695SOL     OW 6126   2.819   1.056   8.132  0.4695 -0.2577 -0.1227
  695SOL    HW1 6127   2.759   1.016   8.195  1.0657 -0.5534  0.2733
  695SOL    HW2 6128   2.800   1.150   8.137 -1.0542 -0.4707 -1.1794
  696SOL     OW 6129   2.291   1.509   5.491 -0.0407 -0.1545 -0.1414
  696SOL    HW1 6130   2.347   1.583   5.513  1.3770 -1.0384 -0.5826
  696SOL    HW2 6131   2.253   1.532   5.406  1.0281 -0.2502 -0.6600
  697SOL     OW 6132   5.241   8.592   8.595 -0.7054  0.1735  0.2941
  697SOL    HW1 6133   5.295   8.621   8.669 -0.2002  1.2685 -0.4857
  697SOL    HW2 6134   5.301   8.589   8.521 -1.3274 -0.3833 -0.1952
  698SOL     OW 6135   5.045   1.721   6.169  0.0719 -0.0887 -0.0474
  698SOL    HW1 6136   5.069   1.642   6.217 -0.2819  1.3614  2.7336
  698SOL    HW2 6137   5.032   1.788   6.237  0.9089  2.5435 -2.2719
  699SOL     OW 6138   3.192   5.598   4.449  0.1246  0.2003  0.1630
  699SOL    HW1 6139   3.197   5.536   4.523  2.0036 -0.4279 -0.4205
  699SOL    HW2 6140   3.099   5.602   4.428 -0.5124  0.5589  2.6781
  700SOL     OW 6141   7.438   8.449   0.908  0.3449  0.2723  0.0468
  700SOL    HW1 6142   7.446   8.359   0.877  1.7128  0.1036  0.8361
  700SOL    HW2 6143   7.455   8.503   0.830 -0.7015 -0.1216 -0.4784
  701SOL     OW 6144   8.557   9.542   9.834 -0.1149 -0.1284  0.4255
  701SOL    HW1 6145   8.590   9.454   9.855  0.6216  0.2002  0.6870
  701SOL    HW2 6146   8.630   9.584   9.789 -0.6527  0.1746 -0.1738
  702SOL     OW 6147   0.603   7.626   8.340  0.6907  0.1727  0.4791
  702SOL    HW1 6148   0.671   7.561   8.324  0.3027 -0.0239 -0.4315
  702SOL    HW2 6149   0.648   7.710   8.337  0.8846  0.0478 -0.1940
  703SOL     OW 6150   6.571   5.129   9.721  0.2906 -0.0331  0.1053
  703SOL    HW1 6151   6.602   5.172   9.801 -1.0076  1.0426  0.0516
  703SOL    HW2 6152   6.503   5.187   9.687  0.1371 -0.9729 -1.2552
  704SOL     OW 6153   1.135   7.109   9.301  0.0764 -0.3010  0.2304
  704SOL    HW1 6154   1.210   7.162   9.328 -1.5688  1.3686  1.8379
  704SOL    HW2 6155   1.135   7.035   9.362 -0.1874  0.2782  0.9496
  705SOL     OW 6156   1.123   0.539   3.377 -0.0378 -0.0663 -0.4180
  705SOL    HW1 6157   1.191   0.494   3.427  0.7434  1.0124 -0.4700
  705SOL    HW2 6158   1.169   0.573   3.301 -1.1254 -1.3035 -1.6838
  706SOL     OW 6159   3.115   4.688   9.165 -0.3827  0.3978 -0.4123
  706SOL    HW1 6160   3.023   4.699   9.188 -0.6477  1.0660 -1.6944
  706SOL    HW2 6161   3.158   4.769   9.195 -0.0514 -0.2032  0.8155
  707SOL     OW 6162   8.049   7.071   7.741  0.4769  0.1110 -0.3095
  707SOL    HW1 6163   8.087   7.058   7.654  0.7360  0.2399 -0.2191
  707SOL    HW2 6164   8.010   7.158   7.737 -2.2020 -1.0310 -1.2555
  708SOL     OW 6165   9.634   3.869   0.405 -0.5244 -0.4007  0.3953
  708SOL    HW1 6166   9.690   3.946   0.397 -0.9199 -0.1324  0.1402
  708SOL    HW2 6167   9.568   3.880   0.336 -1.3329 -0.3306  1.1676
  709SOL     OW 6168   6.822   7.881   4.767  0.3208  0.1771 -0.3667
  709SOL    HW1 6169   6.885   7.953   4.766  1.7994 -1.0312 -2.3802
  709SOL    HW2 6170   6.832   7.839   4.682 -1.3295 -1.7178  0.2852
  710SOL     OW 6171   1.085   6.418   2.782  0.0432  0.0661  0.3788
  710SOL    HW1 6172   1.070   6.438   2.874 -2.4026  0.4145 -0.0406
  710SOL    HW2 6173   1.125   6.498   2.747  1.5327 -0.2753  1.2132
  711SOL     OW 6174   7.044  10.281   0.116  0.7345 -0.0590 -0.0712
  711SOL    HW1 6175   7.086  10.353   0.163 -0.4196  0.2180  0.5749
  711SOL    HW2 6176   7.109  10.210   0.119  2.1612  1.1255 -1.3033
  712SOL     OW 6177   7.802   9.741   6.227 -0.1147  0.0283  0.2500
  712SOL    HW1 6178   7.882   9.787   6.199 -0.4795 -0.3671 -1.5935
  712SOL    HW2 6179   7.829   9.649   6.235  0.1070  0.2060  1.8174
  713SOL     OW 6180   5.355   7.420   5.433  0.6560  0.0277  0.5472
  713SOL    HW1 6181   5.373   7.466   5.515 -0.8707 -0.7007  1.3374
  713SOL    HW2 6182   5.434   7.370   5.415  0.9586  0.0807  1.6790
  714SOL     OW 6183   3.801   2.712  10.008  0.6706  0.2427 -0.1140
  714SOL    HW1 6184   3.774   2.781  10.068  0.9206 -0.4339  0.8081
  714SOL    HW2 6185   3.781   2.631  10.056 -1.3477 -0.3918 -1.8891
  715SOL     OW 6186   2.889   8.655   9.595 -0.2371 -0.1175 -0.8762
  715SOL    HW1 6187   2.942   8.619   9.667  1.8284  2.1768 -1.1296
  715SOL    HW2 6188   2.852   8.577   9.552  1.6143 -1.7731  0.3186
  716SOL     OW 6189   2.327   5.055   8.284  0.1931  0.0379  0.1457
  716SOL    HW1 6190   2.285   5.026   8.202 -1.0199 -1.0034  1.0929
  716SOL    HW2 6191   2.294   5.144   8.297 -1.9471 -0.7886  0.9314
  717SOL     OW 6192   8.858   2.152   2.515  0.4329 -0.0109 -0.1553
  717SOL    HW1 6193   8.841   2.244   2.537 -0.1429 -0.5755  2.0646
  717SOL    HW2 6194   8.811   2.138   2.433 -2.0417  0.9570  0.9952
  718SOL     OW 6195   3.819   1.417   3.554  0.0476  0.4438  0.1302
  718SOL    HW1 6196   3.799   1.344   3.613  1.6244  0.8674  1.2467
  718SOL    HW2 6197   3.841   1.374   3.471 -1.1103 -0.2182  0.1465
  719SOL     OW 6198   6.354   4.202   1.431 -0.0538  0.2632 -0.1469
  719SOL    HW1 6199   6.336   4.296   1.438  0.8815  0.3962  0.7596
  719SOL    HW2 6200   6.450   4.196   1.434 -0.1170 -0.8953  2.7122
  720SOL     OW 6201   6.533   4.369   8.290  0.1439  0.6168  0.5584
  720SOL    HW1 6202   6.587   4.404   8.361  0.4117 -0.0805  0.7071
  720SOL    HW2 6203   6.564   4.279   8.279 -0.8518  0.2750  0.5024
  721SOL     OW 6204   7.226   3.509   5.486  0.4007  0.4309 -0.5198
  721SOL    HW1 6205   7.158   3.496   5.552 -0.8314  2.7840 -1.1870
  721SOL    HW2 6206   7.183   3.486   5.403  1.4489 -1.0530 -0.6722
  722SOL     OW 6207   3.258   3.069   3.401 -0.0916  0.3203  0.5227
  722SOL    HW1 6208   3.169   3.052   3.370 -0.2642  1.7992  0.1247
  722SOL    HW2 6209   3.249   3.077   3.496 -0.2969 -0.0149  0.5328
  723SOL     OW 6210   6.312   8.247   9.083 -0.3378 -0.0141 -0.3680
  723SOL    HW1 6211   6.298   8.154   9.069 -0.5942 -0.0881  0.3263
  723SOL    HW2 6212   6.241   8.273   9.142  0.0715  0.4941 -0.0883
  724SOL     OW 6213   4.868   0.790   5.738 -0.4665 -0.1393 -0.0482
  724SOL    HW1 6214   4.857   0.709   5.687 -3.0695 -0.0682  0.2559
  724SOL    HW2 6215   4.934   0.839   5.690  1.1972 -2.4056 -0.2441
  725SOL     OW 6216   7.384   7.489   3.379  0.1743 -0.2817  0.1076
  725SOL    HW1 6217   7.358   7.580   3.390 -0.9175 -0.3271 -1.5688
  725SOL    HW2 6218   7.424   7.486   3.291 -0.5373 -1.5382 -0.2032
  726SOL     OW 6219   2.875   3.475   0.575 -0.1584  0.0234  0.2619
  726SOL    HW1 6220   2.806   3.537   0.598  0.0570  0.5339 -0.4283
  726SOL    HW2 6221   2.944   3.529   0.535 -0.6145 -0.8221 -1.7690
  727SOL     OW 6222   9.696   6.989   3.313  0.0258  0.1518  0.0029
  727SOL    HW1 6223   9.767   6.970   3.374  0.1963  2.9290  0.8441
  727SOL    HW2 6224   9.683   7.084   3.320 -3.4077 -0.1328 -0.5225
  728SOL     OW 6225  10.123   1.964   1.166 -0.1901  0.3510 -0.1979
  728SOL    HW1 6226  10.060   2.021   1.122 -0.3754  0.4379  0.1824
  728SOL    HW2 6227  10.112   1.982   1.259 -1.4319 -1.5013  0.0678
  729SOL     OW 6228   0.106   2.695   5.757  0.2583  0.6260  0.2316
  729SOL    HW1 6229   0.088   2.689   5.663  1.8430  2.2157 -0.2204
  729SOL    HW2 6230   0.132   2.606   5.782 -0.2151  0.1703 -0.8078
  730SOL     OW 6231   8.377   2.796   5.692 -0.6280 -0.3566 -0.3904
  730SOL    HW1 6232   8.399   2.882   5.658  0.1980 -0.2709  0.3441
  730SOL    HW2 6233   8.456   2.766   5.736 -1.2892 -0.9807  0.3987
  731SOL     OW 6234   9.216   5.200   5.179 -0.2426 -0.8184  0.1584
  731SOL    HW1 6235   9.271   5.143   5.125  1.3871 -0.1103  0.9921
  731SOL    HW2 6236   9.252   5.288   5.165 -2.3222 -0.0481 -0.6428
  732SOL     OW 6237   7.641   2.769   4.550 -0.4565  0.1260 -0.0256
  732SOL    HW1 6238   7.718   2.780   4.494  1.2663 -2.2090  1.6819
  732SOL    HW2 6239   7.568   2.757   4.489  0.6294  1.5514 -1.6995
  733SOL     OW 6240   2.152   2.360   6.847  0.1249 -0.3428  0.0417
  733SOL    HW1 6241   2.232   2.369   6.796  0.1884 -0.2464  0.1582
  733SOL    HW2 6242   2.088   2.413   6.800  0.7289  1.5136  1.2211
  734SOL     OW 6243   0.227   8.645   9.552  0.4218 -0.1705  0.0249
  734SOL    HW1 6244   0.202   8.630   9.461  0.0974  0.4228  0.0135
  734SOL    HW2 6245   0.194   8.732   9.572  1.0420 -0.0448  0.5234
  735SOL     OW 6246   8.689   7.086   5.075 -0.3477  0.4317 -0.2123
  735SOL    HW1 6247   8.707   7.024   5.145  1.2147  1.2178  0.1184
  735SOL    HW2 6248   8.620   7.142   5.110 -2.4853 -1.6082 -0.8664
  736SOL     OW 6249   1.417   1.154   7.120 -0.3679  0.4398 -0.0110
  736SOL    HW1 6250   1.388   1.178   7.208  0.4545  0.4492  0.2641
  736SOL    HW2 6251   1.382   1.066   7.106  0.7746 -0.1976  0.9372
  737SOL     OW 6252   8.236   6.514   8.004 -0.7167  0.0152  0.5115
  737SOL    HW1 6253   8.278   6.576   7.945 -0.2718 -0.0433  0.7591
  737SOL    HW2 6254   8.287   6.519   8.084 -0.1483 -1.2721  0.2538
  738SOL     OW 6255   1.981   2.499   6.693 -0.5489 -0.0842  0.1279
  738SOL    HW1 6256   1.929   2.419   6.685 -1.2402  0.4546 -1.1231
  738SOL    HW2 6257   1.969   2.543   6.609  0.6297  0.8560  0.4315
  739SOL     OW 6258   8.241   7.701   7.578 -0.4148  0.2726 -0.4869
  739SOL    HW1 6259   8.299   7.703   7.501 -0.3964 -2.1870 -0.6143
  739SOL    HW2 6260   8.300   7.701   7.653 -0.3800  0.9118 -0.5068
  740SOL     OW 6261   9.027   1.347   3.236  0.1806 -0.0445 -0.2396
  740SOL    HW1 6262   8.989   1.434   3.223 -0.2671 -0.3036 -0.7036
  740SOL    HW2 6263   9.020   1.331   3.330 -1.3259 -0.2915 -0.3711
  741SOL     OW 6264   1.635   4.618   0.337  0.3836  0.2721  0.3845
  741SOL    HW1 6265   1.639   4.575   0.252  1.7618 -1.7769  1.4236
  741SOL    HW2 6266   1.542   4.627   0.355  0.0771 -0.2042 -0.8610
  742SOL     OW 6267   0.729   3.779   9.989  0.1713 -0.5214  0.1814
  742SOL    HW1 6268   0.634   3.788   9.995  0.1439 -0.6732 -0.0082
  742SOL    HW2 6269   0.748   3.790   9.896  0.4308  0.3321  0.3244
  743SOL     OW 6270   4.834   3.742   1.200 -0.2968  0.2189 -0.2232
  743SOL    HW1 6271   4.922   3.726   1.234  0.4799  1.1175 -1.6773
  743SOL    HW2 6272   4.831   3.694   1.118 -0.6624  1.2632 -0.8389
  744SOL     OW 6273   3.359   8.097   8.159  0.1685  0.1489  0.3191
  744SOL    HW1 6274   3.350   8.142   8.076 -2.7101  1.8316  1.4052
  744SOL    HW2 6275   3.432   8.141   8.203 -0.0056  1.0259 -0.2583
  745SOL     OW 6276   9.430   4.591   7.241  0.4492  0.2951 -0.4378
  745SOL    HW1 6277   9.353   4.548   7.204  1.2262 -0.2602 -1.4623
  745SOL    HW2 6278   9.394   4.665   7.290 -0.7411  0.0188 -0.8398
  746SOL     OW 6279   1.408   1.979   9.492  0.2589  0.5747  1.0819
  746SOL    HW1 6280   1.395   1.965   9.398 -1.3033  0.1091  1.3399
  746SOL    HW2 6281   1.321   1.964   9.531  0.7770  1.2006  2.5491
  747SOL     OW 6282   0.453   2.924   8.072 -0.4196  0.2698  0.5755
  747SOL    HW1 6283   0.478   2.834   8.053  0.3399  0.8082 -1.1524
  747SOL    HW2 6284   0.528   2.961   8.119 -0.3097  0.2888  0.3850
  748SOL     OW 6285   4.868   2.657   7.282  0.2567  0.1593 -0.1168
  748SOL    HW1 6286   4.932   2.660   7.210  0.3356  0.4811 -0.0359
  748SOL    HW2 6287   4.870   2.745   7.320 -0.1484  0.1360 -0.0344
  749SOL     OW 6288   8.872   1.170   9.581 -0.6188  0.5331 -0.1467
  749SOL    HW1 6289   8.915   1.105   9.637  0.0174  0.2796 -0.9139
  749SOL    HW2 6290   8.818   1.221   9.642 -1.1259 -0.6931  0.4781
  750SOL     OW 6291   7.013   5.645   5.799  0.0549  0.2904  0.6288
  750SOL    HW1 6292   7.046   5.561   5.769  0.6074  0.1660  1.5639
  750SOL    HW2 6293   6.943   5.623   5.860 -0.8743  0.5417 -0.3018
  751SOL     OW 6294   5.883   8.229   6.641  0.5767 -0.1400  0.5142
  751SOL    HW1 6295   5.880   8.323   6.659 -0.2890 -0.2006  0.7688
  751SOL    HW2 6296   5.801   8.195   6.677  0.5449 -0.8786 -0.2110
  752SOL     OW 6297   8.077   1.531   8.884 -0.1005  0.5835 -0.0765
  752SOL    HW1 6298   8.047   1.466   8.947  0.3043  0.7944  0.3471
  752SOL    HW2 6299   8.059   1.493   8.799 -0.3386  0.1399  0.1687
  753SOL     OW 6300   5.971   6.158   3.289  0.3364  0.5778  0.8308
  753SOL    HW1 6301   5.910   6.228   3.266 -0.4919 -0.3270  0.1427
  753SOL    HW2 6302   5.981   6.107   3.208  2.7630  1.2178  0.6427
  754SOL     OW 6303   7.558   5.665   8.998 -0.0610 -0.4124 -1.0701
  754SOL    HW1 6304   7.529   5.574   9.005  1.8181 -1.1208 -1.7270
  754SOL    HW2 6305   7.579   5.676   8.905  0.8612  0.2993 -0.7941
  755SOL     OW 6306   9.231   7.292   1.895  0.0266 -0.4282  0.0365
  755SOL    HW1 6307   9.275   7.208   1.905  0.9887  0.0569 -0.0145
  755SOL    HW2 6308   9.237   7.312   1.802 -1.7098 -1.0921 -0.2424
  756SOL     OW 6309   0.389   4.573   3.978  0.2650  0.0044  0.0067
  756SOL    HW1 6310   0.356   4.487   4.003  0.2269 -0.1476 -0.5578
  756SOL    HW2 6311   0.469   4.556   3.929 -0.0499  0.2607 -0.6009
  757SOL     OW 6312   8.275   8.679   3.022  0.7275  0.9402  0.2475
  757SOL    HW1 6313   8.264   8.595   3.065 -0.6543  1.2702  0.6087
  757SOL    HW2 6314   8.341   8.663   2.954  2.2715  0.1936  1.8578
  758SOL     OW 6315   1.452   0.823   7.502  0.0473  0.0616 -0.5587
  758SOL    HW1 6316   1.366   0.854   7.530 -1.2830 -2.8748 -0.9894
  758SOL    HW2 6317   1.493   0.790   7.582 -0.3363 -0.8400 -0.7148
  759SOL     OW 6318   5.017   3.874  10.087 -0.3880 -0.4791 -0.4941
  759SOL    HW1 6319   5.058   3.886  10.173 -2.8086  0.2667  0.6339
  759SOL    HW2 6320   5.065   3.801  10.048 -0.3460 -2.0508  2.2478
  760SOL     OW 6321   1.019   4.028   8.971 -0.1547 -0.0789  0.3601
  760SOL    HW1 6322   1.094   3.972   8.951  0.0342  0.5552 -0.8274
  760SOL    HW2 6323   1.040   4.111   8.927 -0.7223  0.7107  1.5299
  761SOL     OW 6324   2.315   6.781   5.225  0.4154  0.2145  0.4186
  761SOL    HW1 6325   2.382   6.715   5.208 -0.5741 -0.7871  0.2773
  761SOL    HW2 6326   2.269   6.748   5.303 -0.9947 -0.0200 -0.4815
  762SOL     OW 6327   4.080   4.537   5.260 -0.7340  0.1597 -0.5800
  762SOL    HW1 6328   4.108   4.625   5.233  0.3191 -0.3104 -1.0435
  762SOL    HW2 6329   4.064   4.491   5.178 -0.6046 -0.3036 -0.3451
  763SOL     OW 6330   1.045   8.888   8.118  0.3703 -0.2994 -0.0390
  763SOL    HW1 6331   1.003   8.838   8.188  0.3455  0.1101  0.2404
  763SOL    HW2 6332   1.070   8.822   8.053  0.7062 -0.7205  0.5114
  764SOL     OW 6333   5.555   9.601   4.355 -0.3286  0.1874 -0.7350
  764SOL    HW1 6334   5.507   9.614   4.437 -0.1335 -0.1688 -0.5616
  764SOL    HW2 6335   5.506   9.651   4.290 -0.7474  0.0937 -0.4920
  765SOL     OW 6336   6.768   8.611   5.716  0.0922 -0.6308 -0.1290
  765SOL    HW1 6337   6.741   8.702   5.713 -0.7147 -0.8536  0.1116
  765SOL    HW2 6338   6.864   8.614   5.725  0.0722  0.1827 -0.1687
  766SOL     OW 6339   0.373   8.490   1.974 -0.4486  0.2789  0.1859
  766SOL    HW1 6340   0.368   8.485   2.069  0.7718 -0.7862  0.2306
  766SOL    HW2 6341   0.295   8.443   1.943 -0.2444 -0.4138  0.6817
  767SOL     OW 6342   7.570   9.162   7.078  0.0621 -0.6040  0.2525
  767SOL    HW1 6343   7.482   9.169   7.041 -0.1772 -1.0416  0.7268
  767SOL    HW2 6344   7.625   9.135   7.005 -0.1195  0.0929 -0.1480
  768SOL     OW 6345   6.017   3.097   5.487  0.1330  0.2740  0.5863
  768SOL    HW1 6346   5.995   3.190   5.495 -0.6181  0.1529  0.0412
  768SOL    HW2 6347   6.111   3.097   5.468  0.2365  0.8963  1.0585
  769SOL     OW 6348   9.737   9.178   6.577  0.4383  0.1980 -0.6486
  769SOL    HW1 6349   9.768   9.183   6.668  0.5313 -2.5467 -0.4710
  769SOL    HW2 6350   9.679   9.103   6.576  1.0205 -0.2784 -3.0473
  770SOL     OW 6351   2.148   8.281   0.688  0.1476 -0.4468  0.0155
  770SOL    HW1 6352   2.174   8.307   0.600 -0.6308  2.7113  0.5922
  770SOL    HW2 6353   2.178   8.352   0.744 -1.4433 -1.2090  1.9836
  771SOL     OW 6354   1.983   0.231   3.514  0.6703 -0.2508  0.0297
  771SOL    HW1 6355   1.889   0.213   3.503 -0.2038  3.0522  1.0362
  771SOL    HW2 6356   2.011   0.170   3.582 -0.4644 -1.9617 -0.9614
  772SOL     OW 6357   2.440   4.141   6.530 -0.0375  0.0184  0.2469
  772SOL    HW1 6358   2.470   4.226   6.497 -0.6527 -0.1199 -0.6888
  772SOL    HW2 6359   2.420   4.157   6.622 -0.5481  0.9944 -0.0222
  773SOL     OW 6360   5.739  10.224   8.401 -0.3904 -0.2035  0.0643
  773SOL    HW1 6361   5.755  10.172   8.480 -1.1088 -2.3373 -1.0915
  773SOL    HW2 6362   5.697  10.162   8.341 -0.3593  1.4963 -1.7947
  774SOL     OW 6363   2.212   3.216   7.444  0.5759  0.2644 -0.0023
  774SOL    HW1 6364   2.159   3.171   7.378  1.3060  1.2326 -1.3253
  774SOL    HW2 6365   2.292   3.241   7.397  2.4101 -1.4456  2.0096
  775SOL     OW 6366   9.662   4.142   5.338  0.0666  0.2340  0.3685
  775SOL    HW1 6367   9.683   4.198   5.263 -0.2330 -0.1662 -0.0190
  775SOL    HW2 6368   9.706   4.059   5.320  1.9933  0.8765  1.7863
  776SOL     OW 6369   0.154   6.637   3.898  0.3268 -0.6105 -0.1340
  776SOL    HW1 6370   0.078   6.595   3.859 -1.6365  0.4277  2.3173
  776SOL    HW2 6371   0.222   6.570   3.896 -0.7735 -1.7487 -1.9347
  777SOL     OW 6372   3.558   0.615   0.325 -0.0010 -0.1260  0.0637
  777SOL    HW1 6373   3.619   0.674   0.369 -1.3172  0.7841  0.7356
  777SOL    HW2 6374   3.522   0.668   0.254 -0.9822 -0.2017  0.4968
  778SOL     OW 6375   8.673   6.998   2.712 -0.6503  0.4667  0.2985
  778SOL    HW1 6376   8.662   6.954   2.628  0.7374 -0.4262  0.5493
  778SOL    HW2 6377   8.713   6.932   2.769  1.2636  1.9441  0.7740
  779SOL     OW 6378   3.889   3.914   0.525  0.1385  0.0319  0.0743
  779SOL    HW1 6379   3.846   3.829   0.533  1.6141 -0.7046  0.7814
  779SOL    HW2 6380   3.953   3.902   0.455 -2.0184  1.7088 -2.3676
  780SOL     OW 6381   4.573   9.158   2.815  0.5978  0.5171 -0.3165
  780SOL    HW1 6382   4.633   9.150   2.741  0.7977 -1.6811  0.0330
  780SOL    HW2 6383   4.615   9.222   2.873  1.2963  0.9478 -1.2699
  781SOL     OW 6384   9.867   8.587   3.614  0.5175  0.1451  0.1264
  781SOL    HW1 6385   9.780   8.624   3.600  1.3112  1.3851 -2.1390
  781SOL    HW2 6386   9.892   8.617   3.701 -0.7519  0.9984  0.2265
  782SOL     OW 6387   5.374   1.870   6.463  0.1871  0.9305 -0.4127
  782SOL    HW1 6388   5.388   1.790   6.514  0.6980  0.9890 -0.4533
  782SOL    HW2 6389   5.333   1.931   6.525 -1.0478  0.3528 -0.6254
  783SOL     OW 6390   9.369   4.136   6.687 -0.2677  0.4314 -0.4453
  783SOL    HW1 6391   9.443   4.191   6.661  0.7461 -0.5053  0.3196
  783SOL    HW2 6392   9.336   4.177   6.767  1.1580 -0.5798  0.7265
  784SOL     OW 6393   6.704   6.778   2.461  0.7228  0.3147 -0.1796
  784SOL    HW1 6394   6.633   6.823   2.414  2.0159 -0.3950 -3.0710
  784SOL    HW2 6395   6.691   6.685   2.440  2.0233  0.0920 -0.0727
  785SOL     OW 6396   5.394   2.225   9.382  0.8189 -0.1038 -0.4228
  785SOL    HW1 6397   5.307   2.194   9.359  0.7550  0.7736 -1.4208
  785SOL    HW2 6398   5.379   2.298   9.441  0.7553  1.3755 -2.1642
  786SOL     OW 6399   3.583   9.774   8.156 -0.1124  0.0773  0.2065
  786SOL    HW1 6400   3.522   9.847   8.145  2.2384  2.1382  0.0611
  786SOL    HW2 6401   3.670   9.814   8.152  1.2995 -2.7480  0.1842
  787SOL     OW 6402   9.883   2.698   0.155 -0.4299  0.7699  0.4927
  787SOL    HW1 6403   9.924   2.781   0.182 -0.9346  0.4836  2.2941
  787SOL    HW2 6404   9.929   2.631   0.207  0.4825 -0.2137 -1.4824
  788SOL     OW 6405   6.851   7.490   5.417 -0.3879  0.6593 -0.1833
  788SOL    HW1 6406   6.840   7.396   5.425 -2.0277  0.8575  0.1818
  788SOL    HW2 6407   6.941   7.506   5.446 -0.0008 -0.7990 -0.5080
  789SOL     OW 6408   7.583   5.634   8.730 -0.6989  0.0422 -0.2220
  789SOL    HW1 6409   7.580   5.557   8.673  1.2753  0.4818 -1.0333
  789SOL    HW2 6410   7.543   5.704   8.678 -1.4558 -0.1835  0.0577
  790SOL     OW 6411   9.081   1.165   6.092 -0.4601 -0.6931  0.0867
  790SOL    HW1 6412   9.064   1.119   6.174 -2.5091  3.7384  2.4686
  790SOL    HW2 6413   9.176   1.175   6.089 -0.0883 -3.5218  0.2191
  791SOL     OW 6414   1.753   0.075   9.143  0.4618  0.0148 -0.2138
  791SOL    HW1 6415   1.746  -0.019   9.130 -2.2499 -0.0979  1.3364
  791SOL    HW2 6416   1.663   0.107   9.137  1.2454  2.4619 -0.2220
  792SOL     OW 6417   9.469   2.719   7.802 -0.9782 -0.4329 -0.3431
  792SOL    HW1 6418   9.423   2.797   7.833 -1.7673 -1.8315  2.2542
  792SOL    HW2 6419   9.493   2.741   7.712 -1.2168  2.7529  0.2406
  793SOL     OW 6420   9.598   9.587   2.517  0.1738 -0.3153 -0.1447
  793SOL    HW1 6421   9.554   9.519   2.466  2.0497 -1.9752  0.3505
  793SOL    HW2 6422   9.632   9.542   2.594 -0.5890  1.6940  1.4574
  794SOL     OW 6423   2.225   5.222   5.718 -0.0313  0.1857  0.2997
  794SOL    HW1 6424   2.295   5.287   5.712  0.3682 -0.2533  0.0309
  794SOL    HW2 6425   2.147   5.272   5.741 -0.7377  1.4753 -3.9990
  795SOL     OW 6426   3.533   4.851   5.145 -0.5971  0.2923 -1.0364
  795SOL    HW1 6427   3.595   4.792   5.188  0.5568  1.2115 -1.4150
  795SOL    HW2 6428   3.461   4.793   5.117 -1.2764 -0.3857  1.8177
  796SOL     OW 6429   6.651   4.660   1.891 -0.2920  0.1370  0.7211
  796SOL    HW1 6430   6.661   4.755   1.889 -1.4104  0.3355  2.3680
  796SOL    HW2 6431   6.560   4.646   1.865 -0.0375 -0.5056  0.1805
  797SOL     OW 6432  10.061   0.137   1.808 -0.1521  0.1938  0.4658
  797SOL    HW1 6433  10.096   0.142   1.897  1.6212 -0.8790 -0.1177
  797SOL    HW2 6434   9.970   0.164   1.817  0.0809  0.4956  2.5333
  798SOL     OW 6435   9.055   5.819   5.786 -0.1707 -0.1380 -0.5457
  798SOL    HW1 6436   9.017   5.906   5.780  2.0450  1.0494  1.3495
  798SOL    HW2 6437   8.985   5.765   5.823 -0.9973  1.2687  0.0070
  799SOL     OW 6438   6.050   8.124   5.596 -0.6078 -0.1697  0.0720
  799SOL    HW1 6439   6.069   8.114   5.503 -0.7333 -2.2569  0.2169
  799SOL    HW2 6440   5.981   8.190   5.600 -1.2577 -0.7137 -1.4226
  800SOL     OW 6441   6.705   2.938   0.469  0.5863  0.0723 -0.9256
  800SOL    HW1 6442   6.781   2.881   0.482  1.6607  1.4783 -0.7605
  800SOL    HW2 6443   6.724   3.015   0.524 -1.5624 -0.0716  0.1212
  801SOL     OW 6444   5.167   4.683   9.259 -0.5150 -0.0223  0.1296
  801SOL    HW1 6445   5.176   4.733   9.340  1.2850  0.8630 -0.5617
  801SOL    HW2 6446   5.132   4.598   9.287 -2.7370  1.2401  1.4344
  802SOL     OW 6447   4.773   4.283   6.585 -0.3751 -0.0075 -0.3676
  802SOL    HW1 6448   4.823   4.291   6.504 -0.0133 -1.8613 -0.3597
  802SOL    HW2 6449   4.761   4.189   6.597 -2.8978  0.3387  0.2415
  803SOL     OW 6450   9.059   8.955   9.455  0.8193  0.1238  0.0713
  803SOL    HW1 6451   8.965   8.972   9.461  0.8653  0.6914 -0.7239
  803SOL    HW2 6452   9.094   8.985   9.538  0.6888  2.6415 -0.7020
  804SOL     OW 6453   6.416   9.822   0.092 -0.0983  0.0175  0.2390
  804SOL    HW1 6454   6.463   9.751   0.049  0.0542  0.4356 -0.3018
  804SOL    HW2 6455   6.460   9.902   0.063 -1.3059  0.4440 -0.5437
  805SOL     OW 6456   3.519   0.570   2.660 -0.3060  0.7513  0.6005
  805SOL    HW1 6457   3.435   0.524   2.660 -0.1887  0.4468 -1.3464
  805SOL    HW2 6458   3.579   0.510   2.705 -0.7835  0.2853  0.6301
  806SOL     OW 6459  10.148   1.882   5.216 -0.3689  0.1491 -0.4066
  806SOL    HW1 6460  10.237   1.883   5.182  0.9227 -1.0639  2.5972
  806SOL    HW2 6461  10.113   1.797   5.189 -1.2700  1.2006 -2.8461
  807SOL     OW 6462   2.594   7.896   8.634 -0.3437 -0.2416  0.2178
  807SOL    HW1 6463   2.647   7.976   8.628  0.9504 -1.1664 -3.0613
  807SOL    HW2 6464   2.654   7.830   8.670 -0.3282 -0.4723 -0.2169
  808SOL     OW 6465   8.244   0.070   7.271  0.7124 -0.3897  0.1994
  808SOL    HW1 6466   8.282   0.035   7.190 -0.0637 -0.5216 -0.1198
  808SOL    HW2 6467   8.230  -0.008   7.326 -1.5284 -0.7347 -0.7249
  809SOL     OW 6468   4.232   7.530   1.814 -0.3510  0.6031 -0.3911
  809SOL    HW1 6469   4.203   7.440   1.804 -0.8643  0.7167  0.0578
  809SOL    HW2 6470   4.221   7.549   1.907 -0.9051  1.3534 -0.6052
  810SOL     OW 6471   1.843   7.688   8.662 -0.8089  0.3134  0.1064
  810SOL    HW1 6472   1.789   7.707   8.740 -0.1854 -0.5324  0.7675
  810SOL    HW2 6473   1.874   7.598   8.676 -0.9698  0.0220 -1.3022
  811SOL     OW 6474   1.008   7.428   3.474  0.1092 -0.1212  0.1925
  811SOL    HW1 6475   0.951   7.481   3.417  1.4463  1.5779  0.3635
  811SOL    HW2 6476   1.096   7.460   3.456  0.6552 -0.0724  2.6504
  812SOL     OW 6477   7.411   7.280   6.517 -0.1298 -0.6034 -0.0679
  812SOL    HW1 6478   7.356   7.281   6.439 -0.7900  0.7665  0.3772
  812SOL    HW2 6479   7.495   7.315   6.488 -0.7528  1.1051  0.0447
  813SOL     OW 6480   9.436   8.773   7.142  0.3936  0.2274 -0.2174
  813SOL    HW1 6481   9.398   8.855   7.174  0.4597  0.4502 -0.7101
  813SOL    HW2 6482   9.463   8.792   7.052  2.3507  0.3031  0.3385
  814SOL     OW 6483   5.326   7.404   0.530 -0.0053 -0.4173  0.2383
  814SOL    HW1 6484   5.266   7.478   0.518  1.3480  0.8052  0.6606
  814SOL    HW2 6485   5.410   7.436   0.497  0.9062 -1.3289  1.5700
  815SOL     OW 6486   9.940   9.409   0.455  0.0316  0.0413  0.0532
  815SOL    HW1 6487  10.017   9.406   0.511 -0.1297  0.1557  0.2833
  815SOL    HW2 6488   9.967   9.364   0.374  0.9949  1.8865 -0.7108
  816SOL     OW 6489   4.842   2.973   3.281 -0.0465 -0.0136  0.0327
  816SOL    HW1 6490   4.808   2.898   3.232 -1.4927  1.0695 -0.6866
  816SOL    HW2 6491   4.897   2.934   3.349 -0.5471 -1.7120 -0.4895
  817SOL     OW 6492   5.448   4.653   8.761 -0.0806  0.4458  0.8067
  817SOL    HW1 6493   5.354   4.643   8.775 -0.3977  0.3210 -1.1230
  817SOL    HW2 6494   5.457   4.671   8.668  1.8233  0.4801  0.9481
  818SOL     OW 6495   8.631  10.249   6.159  0.3310  0.0002  0.3253
  818SOL    HW1 6496   8.682  10.322   6.124  1.6414 -1.3144 -0.6654
  818SOL    HW2 6497   8.621  10.269   6.252  3.5933 -0.0898  0.8311
  819SOL     OW 6498   7.455   0.589   1.640  0.2087 -0.4540  0.2677
  819SOL    HW1 6499   7.439   0.496   1.659  0.7029 -0.1248  2.7019
  819SOL    HW2 6500   7.466   0.629   1.727  0.2145  1.8520 -0.7318
  820SOL     OW 6501   2.295   3.648   8.881  0.1695 -0.3520 -0.0347
  820SOL    HW1 6502   2.200   3.656   8.870 -0.1180 -0.6409  1.8657
  820SOL    HW2 6503   2.316   3.713   8.948  1.0996 -1.1745  0.4914
  821SOL     OW 6504   7.692   2.345   3.776 -0.5517 -0.0620  0.6568
  821SOL    HW1 6505   7.782   2.315   3.769 -0.4625  0.0513  1.2634
  821SOL    HW2 6506   7.666   2.324   3.865 -0.8738  0.5942  0.7268
  822SOL     OW 6507  10.145   8.774   8.855 -0.0358 -0.5257 -0.1133
  822SOL    HW1 6508  10.082   8.822   8.801  1.8516  0.1363 -1.8550
  822SOL    HW2 6509  10.147   8.686   8.818 -2.4878 -1.6850  2.2222
  823SOL     OW 6510   3.632   4.008   9.710  0.2360 -0.2981 -0.4870
  823SOL    HW1 6511   3.558   3.961   9.747 -0.3388 -0.5141 -1.8847
  823SOL    HW2 6512   3.709   3.962   9.743 -0.2882 -1.2591 -0.5974
  824SOL     OW 6513   7.229   1.651   3.942  0.4347 -0.0266  0.9874
  824SOL    HW1 6514   7.184   1.686   4.019  0.7588  1.3914  0.5465
  824SOL    HW2 6515   7.208   1.712   3.871  0.3666 -1.1600 -0.0090
  825SOL     OW 6516   9.368   9.662   4.670  0.5331 -0.4786 -0.0880
  825SOL    HW1 6517   9.325   9.748   4.673  1.2752 -0.1103  0.1671
  825SOL    HW2 6518   9.378   9.637   4.761  3.3262  0.7124  0.0278
  826SOL     OW 6519   5.289   2.063   5.342 -0.6276 -0.0634  0.4132
  826SOL    HW1 6520   5.261   2.026   5.425 -0.9448 -1.9615 -0.4799
  826SOL    HW2 6521   5.305   2.155   5.361 -2.0367 -0.1318  2.2389
  827SOL     OW 6522   6.630   7.636   4.982 -0.4490 -0.5208  0.7547
  827SOL    HW1 6523   6.711   7.687   4.989  0.2272 -1.3391 -0.6533
  827SOL    HW2 6524   6.633   7.575   5.055  1.4099 -2.1221 -0.5370
  828SOL     OW 6525   5.246   1.082   3.907  0.1208 -0.3017  0.0326
  828SOL    HW1 6526   5.151   1.078   3.900 -0.0767 -2.7554  2.5604
  828SOL    HW2 6527   5.263   1.108   3.997  1.8943  0.2323 -0.4063
  829SOL     OW 6528   5.233   4.174   4.779  0.1955  0.1573 -0.2782
  829SOL    HW1 6529   5.210   4.207   4.692  1.0624  0.4769 -0.3987
  829SOL    HW2 6530   5.308   4.227   4.805  0.2515 -0.2760  0.4566
  830SOL     OW 6531   1.844   1.519   4.000  0.3016 -0.4378 -0.3263
  830SOL    HW1 6532   1.781   1.553   4.063  0.9798 -2.0157  1.2867
  830SOL    HW2 6533   1.926   1.509   4.050  1.6568  0.8100 -2.1583
  831SOL     OW 6534   2.361   3.938   0.251  0.3460 -0.3231 -0.6157
  831SOL    HW1 6535   2.451   3.908   0.253  0.2001 -1.0321 -2.5037
  831SOL    HW2 6536   2.328   3.922   0.340  1.7251 -1.1027 -0.2178
  832SOL     OW 6537   2.194   1.592   5.243  0.6125 -0.2369  0.0482
  832SOL    HW1 6538   2.129   1.523   5.231 -0.0952  0.0607  1.9160
  832SOL    HW2 6539   2.215   1.620   5.154  0.4209 -2.3659 -0.7301
  833SOL     OW 6540   0.582   5.217   6.380  0.1342  0.4928  0.8486
  833SOL    HW1 6541   0.654   5.280   6.385 -0.4157  1.0864  1.4807
  833SOL    HW2 6542   0.621   5.140   6.339  0.6670  1.4454 -0.5162
  834SOL     OW 6543   9.108   4.540   9.388  0.6678 -0.1608 -0.2967
  834SOL    HW1 6544   9.077   4.452   9.368 -1.4018  0.4004  0.2577
  834SOL    HW2 6545   9.163   4.529   9.466  0.3204 -0.9542 -0.1570
  835SOL     OW 6546   2.914   7.360   0.214 -0.0840  0.1759  0.2023
  835SOL    HW1 6547   2.996   7.409   0.221 -0.1121  0.6844 -2.3516
  835SOL    HW2 6548   2.845   7.427   0.214 -0.5404 -0.2250  1.8406
  836SOL     OW 6549   7.550   4.854   1.683 -0.0005  0.5465  0.6949
  836SOL    HW1 6550   7.515   4.785   1.626  0.7922  0.7692 -0.0866
  836SOL    HW2 6551   7.492   4.854   1.759 -0.7024 -0.1938  0.1787
  837SOL     OW 6552   6.902   6.770   8.974  0.2237  0.3110  0.1966
  837SOL    HW1 6553   6.807   6.755   8.975  0.4761 -1.5134  0.9033
  837SOL    HW2 6554   6.930   6.737   8.888  0.2596  0.6376  0.0803
  838SOL     OW 6555   1.461   7.831   5.406  0.2171 -0.2852 -0.6041
  838SOL    HW1 6556   1.494   7.781   5.481  0.5179  0.8036  0.0142
  838SOL    HW2 6557   1.525   7.816   5.336  0.9438  0.1548 -0.0552
  839SOL     OW 6558  10.180   1.712   4.219 -0.2323 -0.4756  0.3906
  839SOL    HW1 6559  10.208   1.726   4.309 -1.1624 -1.4149  0.8413
  839SOL    HW2 6560  10.259   1.727   4.167  0.1547  0.7757  1.2823
  840SOL     OW 6561   1.586   0.539   5.399  0.1479 -0.5039 -0.8961
  840SOL    HW1 6562   1.652   0.547   5.331  1.3748 -0.6665  0.2289
  840SOL    HW2 6563   1.587   0.625   5.443 -0.3549 -0.5220 -0.8478
  841SOL     OW 6564   1.072   8.755   5.957 -0.3440 -0.3511  0.2819
  841SOL    HW1 6565   0.998   8.816   5.953 -2.1035 -2.1116  3.0264
  841SOL    HW2 6566   1.053   8.689   5.891 -1.1467 -0.6716  0.8195
  842SOL     OW 6567   7.975   4.201   9.760  0.1733  0.0323  0.5986
  842SOL    HW1 6568   7.992   4.279   9.812  0.8149  0.5562 -0.3762
  842SOL    HW2 6569   8.003   4.224   9.672 -0.2200 -1.0866  0.1620
  843SOL     OW 6570   7.072   3.001   8.652  0.1059  0.0415  0.8198
  843SOL    HW1 6571   7.023   2.976   8.731 -0.1422 -2.4479 -0.0245
  843SOL    HW2 6572   7.163   3.004   8.680  0.0513 -1.1000  1.1751
  844SOL     OW 6573   2.913   1.313   8.847  0.3791 -0.1999  0.4636
  844SOL    HW1 6574   2.839   1.307   8.787  0.6312  0.4144  0.0915
  844SOL    HW2 6575   2.889   1.256   8.920 -0.5234  0.0967  0.4066
  845SOL     OW 6576   5.551   1.841   3.330 -0.1563  0.4803 -0.0647
  845SOL    HW1 6577   5.589   1.927   3.347 -0.4773  1.1841 -2.5581
  845SOL    HW2 6578   5.626   1.784   3.315  0.0717  1.1521 -1.7866
  846SOL     OW 6579   3.735   8.858   1.855  0.0941 -0.0341 -0.2773
  846SOL    HW1 6580   3.792   8.786   1.829 -0.2751 -0.1763 -0.7178
  846SOL    HW2 6581   3.703   8.894   1.772 -0.2451  0.2076 -0.0438
  847SOL     OW 6582   7.031   2.904   6.686 -0.0831 -0.5993  0.2669
  847SOL    HW1 6583   7.088   2.871   6.755 -0.2766  1.4226  1.4676
  847SOL    HW2 6584   7.080   2.976   6.646 -0.4219 -1.0434 -1.0147
  848SOL     OW 6585   6.545   5.690   7.368 -0.1157  0.2695 -0.2475
  848SOL    HW1 6586   6.533   5.600   7.398 -0.6038  0.4255  0.0205
  848SOL    HW2 6587   6.521   5.745   7.443 -0.4808  0.6402 -0.6323
  849SOL     OW 6588   7.009   3.401   7.311  0.3437  0.1483  0.1242
  849SOL    HW1 6589   7.102   3.417   7.326  0.1652  0.0140  1.4554
  849SOL    HW2 6590   7.005   3.371   7.220  1.5785  0.2696  0.0062
  850SOL     OW 6591   2.773   0.749   1.174 -0.0206 -0.1632 -0.3923
  850SOL    HW1 6592   2.698   0.692   1.158 -0.3373 -0.2959  1.4363
  850SOL    HW2 6593   2.839   0.692   1.211  1.0088 -0.0327 -1.9359
  851SOL     OW 6594   0.264   8.545   3.150  0.5892  0.2734  0.3165
  851SOL    HW1 6595   0.267   8.628   3.197  0.5334 -0.4314  1.6114
  851SOL    HW2 6596   0.170   8.530   3.134  0.6736  1.0350 -1.0209
  852SOL     OW 6597   8.068   4.397   9.984 -0.0148 -0.0604  0.2767
  852SOL    HW1 6598   8.096   4.438   9.902  0.4213  1.3805  1.1195
  852SOL    HW2 6599   8.004   4.457  10.021 -0.9934 -1.2120  0.5099
  853SOL     OW 6600   6.460   4.084   2.082 -0.2881 -0.8681  0.0348
  853SOL    HW1 6601   6.483   4.177   2.070  0.0875 -0.8868  0.5620
  853SOL    HW2 6602   6.378   4.086   2.132 -0.7700 -0.8152 -0.7423
  854SOL     OW 6603   4.648   9.373   5.888 -0.1546 -0.4725 -0.1248
  854SOL    HW1 6604   4.647   9.367   5.793 -0.1458 -0.1440 -0.1464
  854SOL    HW2 6605   4.738   9.351   5.912 -0.2109 -0.7578 -0.1794
  855SOL     OW 6606   7.770   3.875   1.563 -0.5483  0.1359 -0.3765
  855SOL    HW1 6607   7.823   3.807   1.604  1.0026  2.4971  1.8403
  855SOL    HW2 6608   7.698   3.828   1.521  0.2632 -2.8075  1.3094
  856SOL     OW 6609   4.808   3.337   9.528  0.1500  0.5032 -0.6284
  856SOL    HW1 6610   4.890   3.383   9.544  0.0572  0.0297  1.4710
  856SOL    HW2 6611   4.823   3.288   9.447  1.4269  1.5222 -1.0251
  857SOL     OW 6612   3.893   1.437   8.910 -0.1146 -0.4055 -0.0858
  857SOL    HW1 6613   3.821   1.491   8.877 -0.4862 -1.3262 -0.7996
  857SOL    HW2 6614   3.967   1.458   8.854  0.3678  0.9656  0.9984
  858SOL     OW 6615   4.990   5.117   6.785  0.1938 -0.5353  0.1340
  858SOL    HW1 6616   4.952   5.194   6.744  2.5917  0.2153 -0.7849
  858SOL    HW2 6617   4.947   5.112   6.871 -0.2910  1.5787  0.0543
  859SOL     OW 6618   2.323   7.810   8.516  0.5837 -0.0340  0.1327
  859SOL    HW1 6619   2.400   7.829   8.569  0.9070 -0.5073 -0.1550
  859SOL    HW2 6620   2.285   7.732   8.557 -0.0862  0.5427  0.6313
  860SOL     OW 6621   9.309   7.409   2.783 -0.0553  0.6777  0.2257
  860SOL    HW1 6622   9.294   7.503   2.775 -0.4646  0.4543 -2.7783
  860SOL    HW2 6623   9.359   7.386   2.705 -2.6361 -2.0594 -0.8342
  861SOL     OW 6624   4.154   6.005   7.284  0.0482  0.3539 -0.6388
  861SOL    HW1 6625   4.191   6.039   7.203  0.9842 -1.3954 -0.9804
  861SOL    HW2 6626   4.225   5.956   7.325 -0.4296  1.1086  1.2102
  862SOL     OW 6627   9.747   4.639   0.324  0.1577 -0.3708  0.2668
  862SOL    HW1 6628   9.683   4.710   0.330  0.7802  0.3385 -0.9671
  862SOL    HW2 6629   9.821   4.668   0.378 -0.1818 -0.7794  0.9656
  863SOL     OW 6630   6.754   3.041   7.006 -0.6388 -0.3378 -0.2025
  863SOL    HW1 6631   6.677   3.010   7.053  0.7439 -1.4756  1.4539
  863SOL    HW2 6632   6.823   3.044   7.072  0.9269 -0.0805 -1.7676
  864SOL     OW 6633   9.514   8.149   3.028 -0.4863  0.1330  0.1684
  864SOL    HW1 6634   9.554   8.119   2.946 -0.7175  0.4177 -0.0495
  864SOL    HW2 6635   9.524   8.075   3.088  3.2939  1.2349  1.1807
  865SOL     OW 6636   9.286   8.293   3.464  0.0837  0.1557  0.1989
  865SOL    HW1 6637   9.344   8.299   3.388  1.5456  1.8741  1.3475
  865SOL    HW2 6638   9.285   8.382   3.500 -1.9423 -0.2193  1.2336
  866SOL     OW 6639   7.786   9.687   5.156 -0.8754 -0.4506 -0.6118
  866SOL    HW1 6640   7.741   9.770   5.170  0.1893  0.0045  0.3435
  866SOL    HW2 6641   7.812   9.689   5.064 -0.9728  0.2363 -0.6325
  867SOL     OW 6642   3.567   1.791   5.513 -0.2238  0.1861  0.3267
  867SOL    HW1 6643   3.587   1.808   5.605 -0.4795  2.1923  0.0537
  867SOL    HW2 6644   3.636   1.837   5.464  0.6362 -1.8719 -0.5142
  868SOL     OW 6645   3.619   5.898   1.787  0.0252 -0.1794  0.8373
  868SOL    HW1 6646   3.526   5.917   1.795 -0.4376 -1.4298 -1.0648
  868SOL    HW2 6647   3.635   5.893   1.693  2.0084 -0.1251  1.1144
  869SOL     OW 6648   9.854   6.961   5.194  0.7990  0.9044  0.2538
  869SOL    HW1 6649   9.945   6.951   5.167  0.4026  0.7820 -1.0761
  869SOL    HW2 6650   9.819   6.872   5.196  0.3874  1.0445 -0.4160
  870SOL     OW 6651   0.555   1.484   4.507  0.2311 -0.8160  0.3553
  870SOL    HW1 6652   0.540   1.538   4.585 -0.5887  2.2627 -1.7209
  870SOL    HW2 6653   0.645   1.505   4.480 -0.4310  0.4595 -1.0355
  871SOL     OW 6654   7.445   3.354   9.340 -0.6004  0.0988  0.4503
  871SOL    HW1 6655   7.470   3.309   9.259 -1.5688  0.4762 -0.0770
  871SOL    HW2 6656   7.526   3.360   9.390  0.0203 -0.1261 -0.5008
  872SOL     OW 6657   2.774   3.480   0.982  0.2575 -0.3890  0.4836
  872SOL    HW1 6658   2.832   3.458   1.055  2.6717 -0.1821 -1.2495
  872SOL    HW2 6659   2.797   3.570   0.960 -2.5298  0.6246  1.2372
  873SOL     OW 6660   9.699   8.018   4.215 -0.4017  0.0996  0.4579
  873SOL    HW1 6661   9.687   8.113   4.227  0.5690  0.4085 -0.7680
  873SOL    HW2 6662   9.626   7.978   4.262 -1.4758  1.4977  0.0481
  874SOL     OW 6663   5.357   1.012   5.158  0.0648 -0.6059  0.2681
  874SOL    HW1 6664   5.362   0.923   5.122  2.5132 -0.9803  1.3304
  874SOL    HW2 6665   5.429   1.016   5.221  0.5110  2.4097 -0.3150
  875SOL     OW 6666   9.863   7.488   5.791 -0.2203  0.3515 -0.2544
  875SOL    HW1 6667   9.871   7.419   5.858 -0.9234  0.0819 -0.4414
  875SOL    HW2 6668   9.945   7.481   5.741  1.0719  1.6246  1.5439
  876SOL     OW 6669   9.581   2.859   3.197  0.8285  0.0856  0.2566
  876SOL    HW1 6670   9.603   2.787   3.256 -1.1076 -0.4515  0.3818
  876SOL    HW2 6671   9.555   2.931   3.254  2.4871  0.8428  0.1200
  877SOL     OW 6672   4.834   2.972   2.712 -0.8299 -0.0592 -0.5376
  877SOL    HW1 6673   4.756   3.012   2.751  0.4197  1.9225  0.0936
  877SOL    HW2 6674   4.839   3.008   2.624  0.4940  1.5815  0.1511
  878SOL     OW 6675   9.822  10.151   2.338  0.1916  0.0530 -0.0894
  878SOL    HW1 6676   9.776  10.096   2.400  0.3772  0.4697  0.4284
  878SOL    HW2 6677   9.914  10.125   2.345  0.2829  0.4414  0.1741
  879SOL     OW 6678   9.792   2.846   2.408  0.3381  0.1829 -0.0257
  879SOL    HW1 6679   9.720   2.794   2.443 -0.8786  1.4921 -0.5155
  879SOL    HW2 6680   9.813   2.908   2.478  0.7486  0.0628 -0.0355
  880SOL     OW 6681   1.041   0.372   3.836  0.4110 -0.0030 -0.0610
  880SOL    HW1 6682   0.990   0.320   3.773  0.7741 -0.9672  0.4349
  880SOL    HW2 6683   1.009   0.344   3.922  3.3533 -2.4090  0.4079
  881SOL     OW 6684   2.342   6.512   2.266  0.2343  0.3497  0.2847
  881SOL    HW1 6685   2.270   6.472   2.313 -0.8803  0.4191 -1.2856
  881SOL    HW2 6686   2.325   6.606   2.270  0.0921  0.3549 -0.2662
  882SOL     OW 6687   2.246   0.995   6.608 -0.6429 -0.2973  0.3178
  882SOL    HW1 6688   2.241   1.069   6.669  1.5522  1.2374 -1.1965
  882SOL    HW2 6689   2.248   1.036   6.521  2.4481 -1.9289 -0.5239
  883SOL     OW 6690   7.199   1.021   2.747  0.3009  0.1764  0.5161
  883SOL    HW1 6691   7.249   0.949   2.709 -1.6172 -0.8014 -0.2763
  883SOL    HW2 6692   7.122   0.980   2.785 -2.2640  1.9367 -2.3316
  884SOL     OW 6693   3.561   2.148   6.761  0.2542  0.2530 -0.0313
  884SOL    HW1 6694   3.536   2.066   6.719  1.6076 -0.4509  0.4704
  884SOL    HW2 6695   3.496   2.160   6.831 -0.0515 -0.2992 -0.2119
  885SOL     OW 6696   9.435   5.338   7.963 -0.1780 -0.0543  0.0043
  885SOL    HW1 6697   9.475   5.416   8.002  1.0425 -0.2087 -0.8638
  885SOL    HW2 6698   9.352   5.369   7.926  1.1471  1.3170 -2.0292
  886SOL     OW 6699  10.252   3.376   4.962  0.5804 -0.0657  0.2614
  886SOL    HW1 6700  10.160   3.401   4.961  0.1964 -1.3935  0.8693
  886SOL    HW2 6701  10.252   3.281   4.963  2.0038 -0.1509 -1.6927
  887SOL     OW 6702   8.359  10.158   1.125 -0.0070 -0.6174  0.3733
  887SOL    HW1 6703   8.352  10.086   1.188 -0.4217 -1.0981 -0.2111
  887SOL    HW2 6704   8.448  10.150   1.090 -0.0900 -0.9160  0.2261
  888SOL     OW 6705   5.328   2.493   7.608  0.0307 -0.3442 -0.1571
  888SOL    HW1 6706   5.282   2.568   7.572  1.8954  0.0512 -1.8732
  888SOL    HW2 6707   5.339   2.514   7.701 -1.2227  0.5441 -0.1904
  889SOL     OW 6708   0.014   7.048   8.858 -0.1573 -0.0569 -0.0425
  889SOL    HW1 6709   0.062   6.984   8.806 -0.5851 -0.0581 -0.4446
  889SOL    HW2 6710  -0.057   7.077   8.801 -0.8770 -0.3553  0.6707
  890SOL     OW 6711   8.711   6.400   2.081 -0.4247 -0.1208  0.2450
  890SOL    HW1 6712   8.674   6.374   1.996 -1.2803  1.7281 -0.0156
  890SOL    HW2 6713   8.709   6.320   2.133  0.1335 -1.3228 -1.4613
  891SOL     OW 6714   4.635   4.783   0.467  0.4992  0.0060 -0.2672
  891SOL    HW1 6715   4.579   4.713   0.499  2.1361 -1.1664  0.1477
  891SOL    HW2 6716   4.699   4.739   0.411  2.1514  0.9837  0.7558
  892SOL     OW 6717   4.836   7.861   8.351  0.1792  0.2908  0.3884
  892SOL    HW1 6718   4.914   7.904   8.316 -0.6711  1.5213 -0.0561
  892SOL    HW2 6719   4.813   7.912   8.428 -1.6320  1.5667 -0.9087
  893SOL     OW 6720   7.097   0.336   8.643  0.5274 -0.3023 -0.1941
  893SOL    HW1 6721   7.089   0.408   8.581  1.1726 -0.7603 -0.8242
  893SOL    HW2 6722   7.076   0.375   8.728 -0.4149  0.3210 -0.6993
  894SOL     OW 6723  10.266   8.524   0.134  0.1260  0.1764 -0.0966
  894SOL    HW1 6724  10.280   8.563   0.220 -1.0559  1.4020 -0.4249
  894SOL    HW2 6725  10.236   8.597   0.079  1.7245 -0.3717 -1.7989
  895SOL     OW 6726   4.656   1.927   6.494  0.4583 -0.1810  0.5682
  895SOL    HW1 6727   4.674   1.880   6.576  0.8611  0.8541  1.0900
  895SOL    HW2 6728   4.577   1.978   6.513 -0.9235 -1.8207 -0.5070
  896SOL     OW 6729   8.902   5.449   9.212  0.7440  0.2971 -0.4021
  896SOL    HW1 6730   8.884   5.536   9.249  0.4792 -0.2655  0.8249
  896SOL    HW2 6731   8.983   5.461   9.162 -0.4396  1.7622 -2.1256
  897SOL     OW 6732   0.485   5.183   0.801  0.6218  0.1627  0.4518
  897SOL    HW1 6733   0.559   5.212   0.749  1.5871  0.9265  2.1604
  897SOL    HW2 6734   0.408   5.209   0.751  1.4901  2.2948  0.1405
  898SOL     OW 6735   9.119   4.485   8.418  0.0254  0.3481 -0.0780
  898SOL    HW1 6736   9.192   4.539   8.447  0.6101  0.3968 -1.5269
  898SOL    HW2 6737   9.119   4.494   8.322  0.4559 -2.5477 -0.4642
  899SOL     OW 6738   2.162   3.259   8.704 -0.0044  0.2463  0.4940
  899SOL    HW1 6739   2.198   3.303   8.781  0.3307  2.7029 -0.9737
  899SOL    HW2 6740   2.069   3.246   8.726 -0.2277  2.1181  0.8949
  900SOL     OW 6741   6.213   4.061   5.180 -0.4552 -0.5715  0.6829
  900SOL    HW1 6742   6.184   4.103   5.261 -0.6514 -0.5597  0.6068
  900SOL    HW2 6743   6.307   4.080   5.176 -0.3976 -0.7696  1.0264
  901SOL     OW 6744   4.219   1.346   7.235  0.4466 -0.4764  0.1135
  901SOL    HW1 6745   4.215   1.260   7.195 -1.8172 -0.7172  0.7483
  901SOL    HW2 6746   4.165   1.339   7.313 -0.5753  1.7741 -0.3227
  902SOL     OW 6747   4.192   7.731   8.665  0.0256  0.0459 -0.0961
  902SOL    HW1 6748   4.142   7.738   8.746 -0.5138  0.2327 -0.4414
  902SOL    HW2 6749   4.239   7.648   8.673  0.0503  0.1079  0.4461
  903SOL     OW 6750   6.967   1.786   1.803 -0.0541 -0.5785 -0.5204
  903SOL    HW1 6751   6.945   1.712   1.747 -1.6080 -0.7281  0.2386
  903SOL    HW2 6752   6.901   1.853   1.784  1.6411  0.8804 -1.5937
  904SOL     OW 6753   8.381   7.255   0.542  0.5732 -0.4117  0.6639
  904SOL    HW1 6754   8.412   7.186   0.601  0.7636 -1.2548 -0.3866
  904SOL    HW2 6755   8.288   7.236   0.530 -0.0906  1.2469  2.6407
  905SOL     OW 6756   9.566   8.789   2.608 -0.3584  0.2118  0.0559
  905SOL    HW1 6757   9.539   8.730   2.679  1.2843  0.3866  0.8655
  905SOL    HW2 6758   9.520   8.756   2.531  1.6833 -3.2220  0.0911
  906SOL     OW 6759   9.155   7.012   8.925 -0.1232 -0.5931 -0.3532
  906SOL    HW1 6760   9.144   7.072   8.999 -0.6149  1.3302 -1.8696
  906SOL    HW2 6761   9.225   6.953   8.951 -0.9757 -0.6401  2.0119
  907SOL     OW 6762   1.797   5.042   6.697 -0.2655  0.2002  0.8303
  907SOL    HW1 6763   1.777   5.045   6.604  0.2138  0.0568  0.7205
  907SOL    HW2 6764   1.889   5.070   6.703 -0.3087  0.2613  1.2633
  908SOL     OW 6765   2.714   9.189   5.402  0.0456  0.0925 -0.1430
  908SOL    HW1 6766   2.644   9.247   5.373  1.0583  1.4950  0.1125
  908SOL    HW2 6767   2.728   9.130   5.328 -1.3488 -0.1986 -0.2137
  909SOL     OW 6768   9.410   8.982   3.205 -0.1287  0.3042 -0.1549
  909SOL    HW1 6769   9.445   9.012   3.121 -0.2452  1.5036  0.2048
  909SOL    HW2 6770   9.463   8.906   3.228 -0.3290 -0.2589 -1.4798
  910SOL     OW 6771   9.274   0.091   5.004 -0.0337  0.4126  0.2840
  910SOL    HW1 6772   9.216   0.015   4.991  0.6697  0.0337 -0.8174
  910SOL    HW2 6773   9.237   0.159   4.948 -0.1975  0.6085  0.6349
  911SOL     OW 6774   1.230   6.180   3.844  0.4114 -0.2139  0.3902
  911SOL    HW1 6775   1.300   6.126   3.881  0.9303  0.5218  0.5051
  911SOL    HW2 6776   1.261   6.270   3.855 -0.2175  0.0907 -0.2380
  912SOL     OW 6777   0.012   5.319   3.901  0.1406  0.2846  0.2298
  912SOL    HW1 6778  -0.038   5.278   3.831  0.9327 -0.0130 -0.1757
  912SOL    HW2 6779   0.098   5.277   3.897  0.0280 -0.1621  1.7592
  913SOL     OW 6780   4.902   2.774   3.785 -0.1140  0.2042  0.2501
  913SOL    HW1 6781   4.917   2.848   3.727  1.0508 -0.1905  0.0216
  913SOL    HW2 6782   4.809   2.752   3.772 -1.1981  3.1214  2.1843
  914SOL     OW 6783   1.943   3.866   9.471  0.0097  0.2424  0.2635
  914SOL    HW1 6784   1.997   3.801   9.426 -0.6247 -0.1992  0.1290
  914SOL    HW2 6785   1.880   3.894   9.406 -1.4760 -1.0319  1.0759
  915SOL     OW 6786   5.207   1.467   5.854 -0.8852 -0.2133 -0.4513
  915SOL    HW1 6787   5.200   1.384   5.807 -0.2666 -0.2107 -0.5510
  915SOL    HW2 6788   5.194   1.534   5.787  1.3054 -0.1764 -0.9026
  916SOL     OW 6789   8.707   6.894   7.098 -0.3506  0.2364 -0.5782
  916SOL    HW1 6790   8.620   6.903   7.059  0.7750  0.0176 -3.4300
  916SOL    HW2 6791   8.767   6.921   7.028  1.8960  0.4122  1.2921
  917SOL     OW 6792   9.982   1.408   7.568  0.1077  0.6000  0.2014
  917SOL    HW1 6793  10.051   1.374   7.625 -2.0528 -0.4918  2.3656
  917SOL    HW2 6794  10.022   1.482   7.522  3.2285 -1.1669 -0.1536
  918SOL     OW 6795   1.670   1.043  10.170 -0.6905  0.3927 -0.1330
  918SOL    HW1 6796   1.622   0.971  10.130  0.3809 -0.6027  0.2902
  918SOL    HW2 6797   1.641   1.045  10.261  0.2393 -0.4039  0.1999
  919SOL     OW 6798   2.490   7.637   7.310 -0.0788 -0.1742  0.0899
  919SOL    HW1 6799   2.430   7.562   7.321  1.1043 -0.9230  1.8665
  919SOL    HW2 6800   2.463   7.698   7.378  0.3981  0.0327  0.0897
  920SOL     OW 6801   3.197   6.862   5.857  0.1725 -0.1893 -0.1512
  920SOL    HW1 6802   3.233   6.810   5.929  0.1610  1.2309  0.9135
  920SOL    HW2 6803   3.216   6.953   5.881 -1.6608  0.4314 -0.9373
  921SOL     OW 6804   2.953   1.505   3.628 -0.1810  0.3483  0.6869
  921SOL    HW1 6805   2.983   1.435   3.687 -0.4892  1.2755  1.9881
  921SOL    HW2 6806   3.019   1.573   3.637  0.6036 -0.0857 -1.2681
  922SOL     OW 6807   9.706   1.409   3.558  0.2503  0.2508  0.0260
  922SOL    HW1 6808   9.638   1.453   3.507 -0.3355  1.0994  1.4981
  922SOL    HW2 6809   9.783   1.411   3.501 -0.0705  2.1757 -0.3943
  923SOL     OW 6810   2.087   5.529   6.007  0.8647  0.2463  0.2181
  923SOL    HW1 6811   2.097   5.624   6.007 -1.9239  0.7409 -3.5179
  923SOL    HW2 6812   2.018   5.512   6.071  0.6369  0.8723  0.1472
  924SOL     OW 6813   1.673   5.117   4.680  0.0478 -0.1702  0.4585
  924SOL    HW1 6814   1.709   5.173   4.748 -1.6279  1.0946  0.3823
  924SOL    HW2 6815   1.621   5.052   4.728  1.4579 -1.3060  0.5108
  925SOL     OW 6816   4.117   9.236   2.167  0.0801  0.7022 -0.3258
  925SOL    HW1 6817   4.200   9.220   2.122  0.0434  1.0224 -0.5126
  925SOL    HW2 6818   4.055   9.176   2.125 -0.1038  1.4485 -1.1626
  926SOL     OW 6819   4.700   1.881   8.993  0.3921  0.3682 -0.6114
  926SOL    HW1 6820   4.709   1.859   9.086  2.8881 -1.5421 -1.1812
  926SOL    HW2 6821   4.613   1.847   8.969  0.1537 -0.0822  0.7693
  927SOL     OW 6822   2.543   7.522   8.524 -0.2060 -0.6823 -0.1496
  927SOL    HW1 6823   2.584   7.458   8.465  1.5750  0.2112  0.0549
  927SOL    HW2 6824   2.617   7.563   8.570 -1.2208  1.8015 -0.5628
  928SOL     OW 6825   3.541   5.820   3.276  0.2316 -0.2940 -0.1774
  928SOL    HW1 6826   3.612   5.856   3.223  0.7682  0.6235  1.0990
  928SOL    HW2 6827   3.582   5.749   3.326 -0.0115 -0.4809 -0.2424
  929SOL     OW 6828   6.946   7.630   3.113  0.1677 -0.7189  0.0956
  929SOL    HW1 6829   6.885   7.623   3.040  1.9803 -2.2866 -1.3777
  929SOL    HW2 6830   6.954   7.541   3.147  0.9158 -0.3847  0.8547
  930SOL     OW 6831   1.224   6.870   2.058 -0.7231 -0.6403  0.1144
  930SOL    HW1 6832   1.174   6.816   2.119 -0.9149 -1.1492 -0.4826
  930SOL    HW2 6833   1.238   6.814   1.983 -0.5218 -0.0058 -0.3289
  931SOL     OW 6834   0.238   4.732   9.750  0.2345 -0.2555 -0.1247
  931SOL    HW1 6835   0.146   4.741   9.725 -0.1918  0.9271  1.6791
  931SOL    HW2 6836   0.241   4.649   9.798 -0.1498  0.2518  0.7963
  932SOL     OW 6837   7.841   5.379   8.600 -0.3220 -0.8297  0.2883
  932SOL    HW1 6838   7.747   5.360   8.608 -0.4124 -0.5215  0.0060
  932SOL    HW2 6839   7.846   5.441   8.526  0.3720 -2.8130 -1.4108
  933SOL     OW 6840   1.753   9.868   3.191 -0.2749 -0.1298 -0.2361
  933SOL    HW1 6841   1.778   9.832   3.107  0.8823  0.3874 -0.1248
  933SOL    HW2 6842   1.694   9.940   3.169  2.0734  1.7374 -0.8045
  934SOL     OW 6843   5.685   5.464   5.532 -0.0990  0.3264  0.4967
  934SOL    HW1 6844   5.671   5.503   5.446 -0.6620 -1.0942 -0.0967
  934SOL    HW2 6845   5.599   5.428   5.556  0.7115 -2.0413  0.1765
  935SOL     OW 6846   4.463   4.129   2.269 -0.3834 -0.5424  0.9002
  935SOL    HW1 6847   4.396   4.149   2.203  0.8191  1.8158  0.2929
  935SOL    HW2 6848   4.509   4.053   2.234 -2.0940 -1.6396  0.8838
  936SOL     OW 6849   9.162   8.329   8.036  0.2126  0.5897 -0.2801
  936SOL    HW1 6850   9.083   8.275   8.035 -0.2920  1.3146 -1.0064
  936SOL    HW2 6851   9.198   8.320   7.948  0.1702  1.3507 -0.3812
  937SOL     OW 6852   9.108   4.717   1.043  0.0938 -0.5806 -0.3554
  937SOL    HW1 6853   9.179   4.775   1.016 -1.1160  1.2570  0.2375
  937SOL    HW2 6854   9.105   4.649   0.976  0.7566  0.7484 -1.7712
  938SOL     OW 6855   2.503   7.719   2.337  0.2928 -0.4749  0.6588
  938SOL    HW1 6856   2.599   7.715   2.338  0.3145  0.1036  1.0461
  938SOL    HW2 6857   2.476   7.651   2.398  0.5333  1.0993  2.6523
  939SOL     OW 6858   8.733   8.602   1.010  0.2571 -0.1317  0.4406
  939SOL    HW1 6859   8.676   8.536   0.970  0.6954 -0.0976 -0.2617
  939SOL    HW2 6860   8.812   8.553   1.033 -0.0740 -0.1922  1.4692
  940SOL     OW 6861   2.504   1.240   2.791  0.5771 -0.3352  0.0266
  940SOL    HW1 6862   2.509   1.272   2.881 -0.4496  0.0329 -0.0344
  940SOL    HW2 6863   2.475   1.316   2.740 -0.4112 -0.9477 -0.3558
  941SOL     OW 6864   7.479   4.703   8.844 -0.0626  0.2155 -0.1606
  941SOL    HW1 6865   7.450   4.634   8.904  1.8160 -1.3904 -0.9920
  941SOL    HW2 6866   7.451   4.673   8.758  1.1157  0.2644 -0.5762
  942SOL     OW 6867   8.076   6.027   1.593  0.0366 -0.7972  0.7691
  942SOL    HW1 6868   8.051   5.944   1.634  0.7592 -1.4290 -0.0487
  942SOL    HW2 6869   8.166   6.014   1.566  0.1985  0.3141  0.7504
  943SOL     OW 6870   5.929   3.578   8.351  0.2273  0.5686  0.1397
  943SOL    HW1 6871   5.840   3.580   8.387 -0.0735 -2.1202 -0.2206
  943SOL    HW2 6872   5.918   3.599   8.259 -0.2295 -0.7098 -0.1213
  944SOL     OW 6873   7.634   6.445   1.957  0.3295  0.0708  0.0010
  944SOL    HW1 6874   7.551   6.403   1.979  0.5226 -0.6187 -0.5397
  944SOL    HW2 6875   7.611   6.515   1.896  0.1922 -0.4719 -0.5816
  945SOL     OW 6876   2.290   1.842   8.680  0.2676  0.6472  0.1339
  945SOL    HW1 6877   2.248   1.762   8.647  1.4814 -0.6742  1.6372
  945SOL    HW2 6878   2.382   1.833   8.656  0.1347  2.5382 -1.3086
  946SOL     OW 6879   8.504   6.185   5.626 -0.5189  0.2321  0.5313
  946SOL    HW1 6880   8.539   6.119   5.685 -2.3277 -0.5796  0.7480
  946SOL    HW2 6881   8.490   6.262   5.681 -2.2546 -0.5395  1.2405
  947SOL     OW 6882   8.703   6.118   2.852 -0.0254 -0.5137  0.1068
  947SOL    HW1 6883   8.703   6.031   2.892  1.6129 -0.4846  0.2667
  947SOL    HW2 6884   8.757   6.108   2.774 -0.4069  0.2049 -0.2551
  948SOL     OW 6885   4.613   8.653   8.594  0.3107 -0.7240  0.4929
  948SOL    HW1 6886   4.684   8.597   8.625 -0.2996 -0.7568  1.9017
  948SOL    HW2 6887   4.533   8.604   8.616 -0.1755 -0.2887 -0.2678
  949SOL     OW 6888   6.534   6.309   0.067  0.4067  0.2340 -0.1065
  949SOL    HW1 6889   6.573   6.388   0.105 -0.7363 -0.3798  2.5698
  949SOL    HW2 6890   6.469   6.341   0.006 -0.0421  1.4009  0.9485
  950SOL     OW 6891   7.823   3.131   1.130 -0.2528 -0.5039  0.0923
  950SOL    HW1 6892   7.864   3.091   1.054  0.3811 -1.0146  0.6800
  950SOL    HW2 6893   7.748   3.075   1.149 -0.0888 -0.7016  0.1671
  951SOL     OW 6894   8.442   9.098   5.240  0.0867 -0.0217  0.8627
  951SOL    HW1 6895   8.389   9.041   5.184  1.1546 -0.8701  0.6961
  951SOL    HW2 6896   8.379   9.162   5.274 -0.8460 -0.3596 -0.1630
  952SOL     OW 6897   2.759   8.912   3.833 -0.2600 -0.5128  0.2724
  952SOL    HW1 6898   2.850   8.891   3.853 -0.3847 -1.2306  0.1205
  952SOL    HW2 6899   2.757   9.008   3.824  0.6460 -0.5564 -0.5563
  953SOL     OW 6900   8.313   3.951   4.524 -0.0792  0.2466  0.0612
  953SOL    HW1 6901   8.358   3.875   4.487 -0.0590  0.0453  0.4820
  953SOL    HW2 6902   8.252   3.979   4.456  0.7323  0.5692 -0.5347
  954SOL     OW 6903   7.686   5.748   7.770 -0.3359  0.4766 -0.9047
  954SOL    HW1 6904   7.773   5.779   7.795 -0.0782 -0.3163 -0.7892
  954SOL    HW2 6905   7.695   5.653   7.766 -1.1861  0.3911 -0.9391
  955SOL     OW 6906   5.737   0.748   4.249  0.0897  0.4412  0.0210
  955SOL    HW1 6907   5.729   0.729   4.342  1.3475  1.9189  0.4882
  955SOL    HW2 6908   5.780   0.672   4.212  0.6063  0.3047  0.8750
  956SOL     OW 6909   2.776   2.464   8.890  0.6794 -0.2521  0.3115
  956SOL    HW1 6910   2.686   2.486   8.916  0.3604 -1.7892  0.5663
  956SOL    HW2 6911   2.827   2.539   8.919 -0.4039  0.2924  0.9002
  957SOL     OW 6912   8.809   9.122   0.454 -0.0701  0.0414  0.0329
  957SOL    HW1 6913   8.873   9.184   0.488  0.1094  0.5839 -1.2384
  957SOL    HW2 6914   8.781   9.159   0.370 -2.1739 -0.0990  0.6195
  958SOL     OW 6915   4.167   6.283   8.364 -0.3485  0.9469 -0.2420
  958SOL    HW1 6916   4.229   6.319   8.427 -0.9463  1.4282  0.0755
  958SOL    HW2 6917   4.201   6.195   8.346  1.1683  1.6700 -1.0895
  959SOL     OW 6918   5.455   4.787   1.242  0.0948 -0.5005 -0.1706
  959SOL    HW1 6919   5.454   4.823   1.153 -1.0442 -0.6120 -0.2151
  959SOL    HW2 6920   5.364   4.795   1.272  0.0091 -2.3991  0.1859
  960SOL     OW 6921   7.626   0.297   7.542  0.6479  0.2844  0.0256
  960SOL    HW1 6922   7.655   0.296   7.451 -0.2671  0.9178 -0.2826
  960SOL    HW2 6923   7.651   0.383   7.574  1.0198  0.0418  0.4023
  961SOL     OW 6924   6.803   3.941   9.674  0.5368 -0.0316 -0.0918
  961SOL    HW1 6925   6.840   3.919   9.760 -0.2661  2.3303  0.9346
  961SOL    HW2 6926   6.827   4.032   9.660  0.6411 -0.3631 -2.4242
  962SOL     OW 6927   3.866   9.979   4.248 -0.0658 -0.7559 -0.1121
  962SOL    HW1 6928   3.957   9.998   4.225  0.5536 -0.1895  2.4800
  962SOL    HW2 6929   3.867   9.889   4.279  0.1798 -0.0123  2.2208
  963SOL     OW 6930   2.478  10.292   2.512  0.2623  0.0294  0.1014
  963SOL    HW1 6931   2.394  10.248   2.512  0.9674 -1.4212  1.4269
  963SOL    HW2 6932   2.541  10.225   2.538  2.1197  0.5890 -2.4724
  964SOL     OW 6933   0.100   0.168   5.713 -0.5639  0.3307 -0.4082
  964SOL    HW1 6934   0.136   0.090   5.672 -2.1058 -0.6119 -0.0181
  964SOL    HW2 6935   0.152   0.180   5.792 -0.9317 -0.8637  0.0220
  965SOL     OW 6936   9.142   5.029   2.944 -0.0064 -0.0849 -0.2923
  965SOL    HW1 6937   9.066   4.977   2.969 -1.0898  1.4844 -0.2357
  965SOL    HW2 6938   9.167   5.076   3.024 -0.8612  1.6988 -1.0307
  966SOL     OW 6939  10.243   8.266   5.534 -0.4744 -0.1319  0.5567
  966SOL    HW1 6940  10.181   8.311   5.477  0.6999 -0.7617 -1.3042
  966SOL    HW2 6941  10.308   8.332   5.557 -1.5171  0.4035  2.1183
  967SOL     OW 6942   6.987   8.960   6.014 -0.1254 -0.1472  0.5125
  967SOL    HW1 6943   6.891   8.960   6.004 -0.0393  0.5119 -0.4800
  967SOL    HW2 6944   7.009   9.050   6.036  0.3603  0.0188 -0.5525
  968SOL     OW 6945   2.287   9.547   8.421  0.0633 -0.4658  0.1608
  968SOL    HW1 6946   2.211   9.491   8.404  0.0901 -0.3037 -0.5231
  968SOL    HW2 6947   2.289   9.607   8.346  0.4688 -0.0333  0.5186
  969SOL     OW 6948   8.047   2.146   1.576 -0.2289 -0.1617  0.1841
  969SOL    HW1 6949   8.127   2.195   1.559 -0.3217 -0.1185 -0.1462
  969SOL    HW2 6950   8.011   2.128   1.489 -1.2429  0.8999  0.3551
  970SOL     OW 6951   3.520   0.477   4.821  0.6405  0.1314  0.1514
  970SOL    HW1 6952   3.444   0.520   4.783  0.3864  0.6767  1.2315
  970SOL    HW2 6953   3.505   0.383   4.806 -0.4924  0.1992  0.7626
  971SOL     OW 6954   8.657   6.775   1.304  0.4346 -0.2260 -0.6405
  971SOL    HW1 6955   8.578   6.786   1.357  2.8067 -2.0481  3.8538
  971SOL    HW2 6956   8.643   6.693   1.256 -1.8088  1.5100 -3.2490
  972SOL     OW 6957   0.243   5.842   6.671  0.3601  0.2034  0.2968
  972SOL    HW1 6958   0.229   5.895   6.593  1.0050  0.7841  0.5687
  972SOL    HW2 6959   0.276   5.903   6.737  0.1301 -0.3365  0.9339
  973SOL     OW 6960   7.057   8.606   6.019 -0.5132  0.2639  0.5000
  973SOL    HW1 6961   7.059   8.511   6.004 -1.8246  0.0290  1.5682
  973SOL    HW2 6962   6.971   8.621   6.058 -0.4327  1.9484  0.0788
  974SOL     OW 6963   5.640   4.687   7.273 -0.5136  0.2146  0.0269
  974SOL    HW1 6964   5.712   4.729   7.320 -1.3102  0.9476  0.6206
  974SOL    HW2 6965   5.563   4.701   7.329 -0.9382 -1.4702 -0.0697
  975SOL     OW 6966   4.420   9.367   8.564 -0.3126 -0.0202  0.6033
  975SOL    HW1 6967   4.463   9.344   8.482 -0.4373 -1.1786  0.8426
  975SOL    HW2 6968   4.328   9.381   8.540 -0.2640  0.0643  0.4707
  976SOL     OW 6969   9.483   7.644   1.095  0.0846  0.6208  0.1937
  976SOL    HW1 6970   9.516   7.628   1.184 -0.4118  0.0512  0.2825
  976SOL    HW2 6971   9.464   7.557   1.061  1.9164  0.6775 -1.1346
  977SOL     OW 6972  10.042   6.456   5.474 -0.5017 -0.1033 -0.0139
  977SOL    HW1 6973  10.075   6.403   5.401  0.4538  0.9408 -0.3670
  977SOL    HW2 6974  10.121   6.492   5.514 -0.9846 -0.9628  1.7939
  978SOL     OW 6975   2.188   1.450   9.318 -0.6792 -0.2973 -0.2817
  978SOL    HW1 6976   2.152   1.491   9.397  1.6589  1.0100  0.1905
  978SOL    HW2 6977   2.270   1.409   9.347 -0.8441 -1.6772 -1.6274
  979SOL     OW 6978   1.104   4.618   9.893  0.0676 -0.4897 -0.1917
  979SOL    HW1 6979   1.011   4.607   9.871 -0.0701  1.1059 -0.5040
  979SOL    HW2 6980   1.105   4.624   9.989 -0.4933  1.9515 -0.2834
  980SOL     OW 6981   9.188   4.550   7.800  0.0574  0.3822 -0.2553
  980SOL    HW1 6982   9.188   4.582   7.710 -0.9537  1.9745  0.2553
  980SOL    HW2 6983   9.242   4.613   7.848  0.8720 -0.6366  0.2219
  981SOL     OW 6984   6.447   4.426   3.971  0.0747 -0.4322  0.2736
  981SOL    HW1 6985   6.408   4.472   4.045  0.3089 -1.5619  1.1239
  981SOL    HW2 6986   6.389   4.446   3.897 -0.7914 -0.1796  0.9998
  982SOL     OW 6987   6.304   5.695   2.359 -0.0559 -0.3771  0.3431
  982SOL    HW1 6988   6.361   5.638   2.308  2.1979 -0.7290  2.9826
  982SOL    HW2 6989   6.332   5.783   2.338 -1.0005 -0.3557 -0.9558
  983SOL     OW 6990   3.499   4.221   3.414 -0.3845  0.5083  0.0875
  983SOL    HW1 6991   3.522   4.159   3.484  2.5526  0.2960 -0.9389
  983SOL    HW2 6992   3.555   4.297   3.430 -0.0323  0.6698 -1.6932
  984SOL     OW 6993   5.945   3.920   3.755 -0.1570 -0.2550  0.0275
  984SOL    HW1 6994   6.003   3.864   3.807 -2.5391 -1.8298  1.2029
  984SOL    HW2 6995   5.916   3.865   3.683  1.9718  1.4602 -2.3275
  985SOL     OW 6996   4.851   4.085   7.855  0.1433 -0.0513  0.5460
  985SOL    HW1 6997   4.759   4.063   7.869 -0.0576  1.3158  1.5969
  985SOL    HW2 6998   4.894   4.059   7.937  0.9820 -1.9197 -0.4131
  986SOL     OW 6999   7.513   5.806   1.673 -0.6928  0.2642 -0.2148
  986SOL    HW1 7000   7.486   5.715   1.679 -1.9322  0.5779 -0.7237
  986SOL    HW2 7001   7.467   5.840   1.597  1.3327  0.8087 -1.2526
  987SOL     OW 7002   2.481   6.510   7.204 -0.4389  0.1762  0.0127
  987SOL    HW1 7003   2.526   6.591   7.181  0.3182 -0.0123  0.7984
  987SOL    HW2 7004   2.391   6.525   7.176 -0.4708  1.5503  0.7615
  988SOL     OW 7005   0.843   7.851   2.314 -0.1619  0.0064 -0.3118
  988SOL    HW1 7006   0.897   7.915   2.266  0.7566 -0.8136 -0.3963
  988SOL    HW2 7007   0.803   7.798   2.245 -1.9477  1.2391 -0.3046
  989SOL     OW 7008   5.794  10.123   1.998  0.3282 -0.5361 -0.4259
  989SOL    HW1 7009   5.708  10.100   1.962  0.3855  0.7759 -1.4912
  989SOL    HW2 7010   5.839  10.168   1.927  1.1566  0.5275  0.7059
  990SOL     OW 7011   4.994   0.043   0.768  0.0613  0.0481 -0.0698
  990SOL    HW1 7012   5.024   0.130   0.742  0.0561  0.2897  0.6928
  990SOL    HW2 7013   5.057   0.015   0.834 -0.5536 -0.0538  0.4870
  991SOL     OW 7014   4.856   0.698   4.774 -0.0640 -0.4628 -0.3920
  991SOL    HW1 7015   4.883   0.617   4.729  2.6202  1.1894 -2.0414
  991SOL    HW2 7016   4.907   0.699   4.854  1.6663  0.5758 -1.4423
  992SOL     OW 7017   7.791   3.331  10.055 -0.0761  0.0274 -0.0088
  992SOL    HW1 7018   7.757   3.291  10.135  0.3805 -0.9655 -0.2923
  992SOL    HW2 7019   7.863   3.386  10.085 -0.4545  0.3354  0.3482
  993SOL     OW 7020   9.160   9.453   5.653  0.3235  0.8339 -0.2185
  993SOL    HW1 7021   9.229   9.432   5.590 -0.1780  0.6974 -0.7245
  993SOL    HW2 7022   9.202   9.443   5.739  0.6287 -0.3349 -0.4934
  994SOL     OW 7023   1.078   7.741   5.507  0.6441  0.7504 -0.6291
  994SOL    HW1 7024   0.999   7.687   5.505  2.6961 -2.5188 -0.2925
  994SOL    HW2 7025   1.087   7.773   5.417 -1.0193  1.2140 -0.6716
  995SOL     OW 7026   0.860   2.906   4.521  0.4868 -0.5021  0.3191
  995SOL    HW1 7027   0.903   2.885   4.439  0.0753  2.9138 -0.9027
  995SOL    HW2 7028   0.772   2.935   4.496  0.5086  1.0646  1.8687
  996SOL     OW 7029   6.398   0.577   6.661 -0.1861  0.0375 -0.2769
  996SOL    HW1 7030   6.445   0.501   6.696  0.1473 -0.1155 -1.0313
  996SOL    HW2 7031   6.306   0.561   6.684 -0.0901 -0.4922 -0.2458
  997SOL     OW 7032   3.134   5.148   4.450  0.4652  0.3840  0.1214
  997SOL    HW1 7033   3.164   5.081   4.511 -0.2388 -0.3118 -0.2836
  997SOL    HW2 7034   3.113   5.223   4.506 -0.6580 -0.4124  0.8107
  998SOL     OW 7035   6.160   2.905   3.904 -0.1598 -0.0553 -0.7610
  998SOL    HW1 7036   6.074   2.938   3.930 -0.0034 -1.1855  1.4321
  998SOL    HW2 7037   6.142   2.841   3.836 -1.0089  0.0383 -0.6299
  999SOL     OW 7038   1.266   6.703   5.192 -0.1905  0.2801 -0.1205
  999SOL    HW1 7039   1.227   6.620   5.220  1.4133 -0.1043  1.0551
  999SOL    HW2 7040   1.223   6.722   5.108  0.4943 -2.5283 -1.2159
 1000SOL     OW 7041   1.458   6.942   7.438 -0.1002 -0.1652 -0.2514
 1000SOL    HW1 7042   1.424   7.009   7.497  0.7753 -0.5613  0.7561
 1000SOL    HW2 7043   1.512   6.990   7.375  0.3597  0.1172  0.3427
 1001SOL     OW 7044   2.737   3.508   6.565  0.4877  0.1503  0.0051
 1001SOL    HW1 7045   2.732   3.415   6.544  0.3489  0.5374 -1.8387
 1001SOL    HW2 7046   2.799   3.543   6.501 -1.3235  1.7376 -0.9774
 1002SOL     OW 7047  10.209   9.707   8.479 -0.6168 -0.9949 -0.5734
 1002SOL    HW1 7048  10.293   9.722   8.523 -1.0640 -1.2869  0.4283
 1002SOL    HW2 7049  10.223   9.735   8.389 -0.4258  2.2116  0.3441
 1003SOL     OW 7050   0.829   8.081   7.253 -0.1980 -0.2632  0.1204
 1003SOL    HW1 7051   0.904   8.135   7.281  0.5055 -0.4208 -1.3540
 1003SOL    HW2 7052   0.771   8.079   7.329  0.6478  1.0177  0.8333
 1004SOL     OW 7053   7.475   6.702   2.225  0.5453 -0.0393  0.5212
 1004SOL    HW1 7054   7.430   6.624   2.193  1.9299 -0.5476 -0.2607
 1004SOL    HW2 7055   7.436   6.774   2.176  2.1354 -0.7198 -1.8906
 1005SOL     OW 7056   1.541   8.192   0.615  0.2715  0.3420 -0.2484
 1005SOL    HW1 7057   1.448   8.201   0.597  0.1049  0.6803  0.7208
 1005SOL    HW2 7058   1.554   8.099   0.633 -0.1933  0.5132  1.1402
 1006SOL     OW 7059   6.211   4.753   8.949  0.2934 -0.7678  0.0856
 1006SOL    HW1 7060   6.253   4.828   8.906 -2.4151  1.1542  0.5700
 1006SOL    HW2 7061   6.186   4.786   9.035 -0.6670 -2.3413  0.4434
 1007SOL     OW 7062   7.551   2.686   9.677  0.4008 -0.3222 -0.9139
 1007SOL    HW1 7063   7.636   2.683   9.634  1.0421 -3.4076  0.2947
 1007SOL    HW2 7064   7.518   2.596   9.672 -0.4749 -0.3931  2.9429
 1008SOL     OW 7065   9.721   2.417   1.002  0.7028  0.2102 -0.4083
 1008SOL    HW1 7066   9.706   2.360   1.077  1.0640  0.1445 -0.3850
 1008SOL    HW2 7067   9.814   2.406   0.981  0.7771  0.7772 -0.4102
 1009SOL     OW 7068   1.642   8.126   4.459  0.3209  0.2104  0.1826
 1009SOL    HW1 7069   1.680   8.039   4.471 -0.4447 -0.1892 -0.2618
 1009SOL    HW2 7070   1.715   8.179   4.426  1.0050 -0.0413  1.2105
 1010SOL     OW 7071   8.603   2.045   7.134  0.5397  0.3269 -0.9568
 1010SOL    HW1 7072   8.673   2.084   7.082  1.9711  1.2258  1.4659
 1010SOL    HW2 7073   8.645   1.970   7.177  0.2239  1.1748  0.9184
 1011SOL     OW 7074   7.577   6.769   3.935  0.0244 -0.7437  0.7186
 1011SOL    HW1 7075   7.534   6.697   3.889 -0.6918  0.5712 -0.7594
 1011SOL    HW2 7076   7.664   6.773   3.897 -0.6184  0.4417 -0.7178
 1012SOL     OW 7077   1.020   7.861   6.961  0.0259  0.2688  0.4727
 1012SOL    HW1 7078   0.978   7.873   7.046  4.0385  2.2107  2.5045
 1012SOL    HW2 7079   1.077   7.784   6.973  3.2812  2.5519  1.0247
 1013SOL     OW 7080   3.711   7.183   8.957 -0.2815 -0.0158  0.3119
 1013SOL    HW1 7081   3.769   7.252   8.988 -0.0350  0.1997 -0.6060
 1013SOL    HW2 7082   3.703   7.198   8.863 -1.1943 -0.5163  0.2959
 1014SOL     OW 7083   9.692   0.572   7.759 -0.2045  0.3508 -0.0846
 1014SOL    HW1 7084   9.694   0.663   7.791  0.5777  0.0794  0.6810
 1014SOL    HW2 7085   9.778   0.537   7.782 -1.3178 -1.3184  1.8490
 1015SOL     OW 7086   1.946   3.602   4.762 -0.1625 -0.7197 -1.1496
 1015SOL    HW1 7087   1.939   3.697   4.759 -0.7838 -0.5107  2.3989
 1015SOL    HW2 7088   1.964   3.576   4.672  1.5985  2.8500 -2.0010
 1016SOL     OW 7089   6.552   3.232   7.210  0.2880 -0.8218 -0.7670
 1016SOL    HW1 7090   6.630   3.220   7.264 -2.5486 -1.4920  3.7008
 1016SOL    HW2 7091   6.514   3.145   7.202 -1.1261 -0.2120 -0.9292
 1017SOL     OW 7092   7.368   7.455   0.333 -0.6627  0.2642  0.6127
 1017SOL    HW1 7093   7.391   7.438   0.425  1.5468  0.2108  0.1189
 1017SOL    HW2 7094   7.384   7.548   0.321  1.0859 -0.1000 -0.1839
 1018SOL     OW 7095   3.086   1.748   4.128  0.1111 -0.1481  0.0447
 1018SOL    HW1 7096   2.993   1.761   4.110  0.0418 -1.6733 -0.8982
 1018SOL    HW2 7097   3.098   1.653   4.124  1.4177 -0.1073  1.7532
 1019SOL     OW 7098   9.387   5.192   5.783  0.3230  0.3116 -0.2769
 1019SOL    HW1 7099   9.330   5.204   5.859  0.4975 -0.9890  0.0833
 1019SOL    HW2 7100   9.334   5.143   5.721  0.3460  0.9547 -0.8239
 1020SOL     OW 7101  10.039   8.421   3.483 -0.4772  0.1763 -0.9918
 1020SOL    HW1 7102  10.040   8.349   3.545  1.1848  1.0246  0.0485
 1020SOL    HW2 7103   9.957   8.467   3.501 -0.0128  0.4315  0.6520
 1021SOL     OW 7104   7.102   3.773   4.959  0.1964  0.1777 -0.1812
 1021SOL    HW1 7105   7.058   3.688   4.955  1.5077 -0.6614  1.5600
 1021SOL    HW2 7106   7.159   3.766   5.036  0.7153  2.4665 -0.2958
 1022SOL     OW 7107   2.097   2.745   2.390  0.5450 -0.2030  0.0689
 1022SOL    HW1 7108   2.143   2.707   2.314 -0.1132 -0.1983 -0.3409
 1022SOL    HW2 7109   2.167   2.767   2.451  1.0326 -1.0341 -0.1597
 1023SOL     OW 7110   9.744   1.717   3.593 -0.0573  0.3285 -0.2912
 1023SOL    HW1 7111   9.758   1.636   3.545  1.6127  0.3557  0.0927
 1023SOL    HW2 7112   9.683   1.767   3.539 -0.8630 -1.0259 -0.6872
 1024SOL     OW 7113   0.895   8.656   6.429  0.2428  0.6211  0.2920
 1024SOL    HW1 7114   0.943   8.589   6.380 -0.4905  0.6642 -0.5051
 1024SOL    HW2 7115   0.807   8.654   6.392  0.0473  1.6041  0.6847
 1025SOL     OW 7116   9.862   2.174   4.070  0.0723  0.2200 -0.2572
 1025SOL    HW1 7117   9.950   2.155   4.037  0.8097  0.2095  1.6402
 1025SOL    HW2 7118   9.875   2.206   4.159 -1.9309 -1.2557  0.6543
 1026SOL     OW 7119   2.426   6.597   9.895 -0.5750 -0.0820  0.1283
 1026SOL    HW1 7120   2.429   6.602   9.991  1.6809  0.1280  0.0788
 1026SOL    HW2 7121   2.397   6.684   9.868  1.1247  0.6641  0.5830
 1027SOL     OW 7122   7.994   8.510   2.480 -0.0223  0.3466  0.2589
 1027SOL    HW1 7123   8.063   8.454   2.514  0.1012  1.2856  1.6512
 1027SOL    HW2 7124   8.021   8.599   2.504 -1.3489  0.8017  0.1690
 1028SOL     OW 7125   3.928   9.070   8.462  0.2668  0.1638  0.3391
 1028SOL    HW1 7126   3.920   9.037   8.551  1.7095 -3.4502 -0.6882
 1028SOL    HW2 7127   4.003   9.023   8.425 -0.5853  1.0980 -2.9573
 1029SOL     OW 7128   2.628   8.220   6.615 -0.2593  0.1237 -0.3667
 1029SOL    HW1 7129   2.578   8.194   6.693  1.0432  1.0547  0.8187
 1029SOL    HW2 7130   2.591   8.305   6.590  0.9456  1.0179  0.7667
 1030SOL     OW 7131   8.327   7.664   3.975 -0.3571 -0.2730  0.1920
 1030SOL    HW1 7132   8.271   7.640   3.902  0.1969  2.4449 -1.2607
 1030SOL    HW2 7133   8.415   7.641   3.946 -0.1493  0.6728  0.0562
 1031SOL     OW 7134   1.584   2.422   0.965 -0.4604 -0.0912 -0.6675
 1031SOL    HW1 7135   1.584   2.336   1.008 -0.3977 -0.4657 -1.4067
 1031SOL    HW2 7136   1.576   2.485   1.037  2.2898 -0.5637  0.1571
 1032SOL     OW 7137   3.167   6.734   0.886  0.4019  0.7001  0.4488
 1032SOL    HW1 7138   3.226   6.804   0.914  1.8555 -0.2194 -0.1898
 1032SOL    HW2 7139   3.117   6.772   0.813  0.6398  1.3017  0.5969
 1033SOL     OW 7140   7.862   8.611   8.810 -0.1198 -0.3089 -0.0512
 1033SOL    HW1 7141   7.853   8.678   8.743 -0.4119 -0.9803 -0.6966
 1033SOL    HW2 7142   7.943   8.564   8.787  0.8196  0.6350  1.1539
 1034SOL     OW 7143   0.790   0.508   5.348 -0.3184  0.1153  0.3993
 1034SOL    HW1 7144   0.820   0.418   5.339  0.3626  0.2083  1.5435
 1034SOL    HW2 7145   0.695   0.502   5.341 -0.2236 -0.5528 -0.5138
 1035SOL     OW 7146   8.745   0.639   1.462 -0.0881  0.2134  0.1404
 1035SOL    HW1 7147   8.766   0.558   1.417 -0.4455  0.9824 -1.4875
 1035SOL    HW2 7148   8.830   0.683   1.474 -0.0683  0.3995 -0.6118
 1036SOL     OW 7149   0.450   7.199   7.448 -0.4071  0.1444  0.3445
 1036SOL    HW1 7150   0.541   7.174   7.431 -0.8961 -1.0841 -0.6001
 1036SOL    HW2 7151   0.443   7.201   7.543  0.6434  0.4130  0.4263
 1037SOL     OW 7152   6.817   0.057   6.009  0.3265 -0.3479  0.2944
 1037SOL    HW1 7153   6.795   0.145   5.977  0.4507 -0.1141  0.8375
 1037SOL    HW2 7154   6.896   0.033   5.960  1.8921  0.9633  2.0070
 1038SOL     OW 7155   0.494   8.023   3.283  0.0082  0.1452 -0.1852
 1038SOL    HW1 7156   0.521   8.080   3.355 -0.3022  0.1556 -0.0753
 1038SOL    HW2 7157   0.567   8.025   3.222 -0.1038  0.8555 -0.3017
 1039SOL     OW 7158   5.734   2.395   7.730 -0.0651  0.8666 -0.0537
 1039SOL    HW1 7159   5.813   2.364   7.687  0.4835 -0.3923  1.7410
 1039SOL    HW2 7160   5.675   2.319   7.731 -0.2362  0.9931  0.9721
 1040SOL     OW 7161   9.567   9.841   2.386  0.1023 -0.0995 -0.0181
 1040SOL    HW1 7162   9.569   9.756   2.430 -1.0034  0.4636  1.1595
 1040SOL    HW2 7163   9.597   9.904   2.451 -0.0032  0.5456 -0.5761
 1041SOL     OW 7164   7.699  10.122   3.801 -0.1861 -0.1890 -0.3017
 1041SOL    HW1 7165   7.722  10.210   3.770  1.6352  0.1264  1.6964
 1041SOL    HW2 7166   7.746  10.063   3.741  0.9085  0.3104  0.0304
 1042SOL     OW 7167   7.296   6.453   1.103 -0.5342 -0.1021  0.1147
 1042SOL    HW1 7168   7.207   6.431   1.131 -0.4742 -0.2159  0.2211
 1042SOL    HW2 7169   7.325   6.375   1.054 -1.2126  0.7114 -1.6475
 1043SOL     OW 7170   7.740  10.233   3.014 -0.6382  0.0731 -0.2592
 1043SOL    HW1 7171   7.827  10.236   3.054  1.1246 -2.2946 -3.3854
 1043SOL    HW2 7172   7.680  10.215   3.086  1.3984  1.6847  2.0162
 1044SOL     OW 7173   4.722   7.761   8.658  0.6737 -0.1547  0.5940
 1044SOL    HW1 7174   4.818   7.767   8.652  0.7305 -1.8447 -1.0732
 1044SOL    HW2 7175   4.695   7.848   8.689  2.6138  1.0723 -0.8967
 1045SOL     OW 7176   4.617   3.242   1.590  0.0920  0.0135 -0.1104
 1045SOL    HW1 7177   4.613   3.299   1.514  1.0813 -2.0696 -1.8627
 1045SOL    HW2 7178   4.708   3.212   1.592 -0.4188 -1.6317  0.5445
 1046SOL     OW 7179   6.512   0.998   8.116 -0.1229 -0.0194 -0.5144
 1046SOL    HW1 7180   6.473   0.970   8.033  1.5339  1.0358 -1.7020
 1046SOL    HW2 7181   6.492   1.091   8.122  2.8773  0.8123 -1.6659
 1047SOL     OW 7182   2.723   8.208   9.595 -0.4865  0.3261  0.2006
 1047SOL    HW1 7183   2.763   8.125   9.570  0.3517  1.0842 -1.0386
 1047SOL    HW2 7184   2.772   8.236   9.672 -0.2315  0.0706  0.1326
 1048SOL     OW 7185   1.660   7.454   1.360  0.5875 -0.0837 -0.5192
 1048SOL    HW1 7186   1.748   7.493   1.363  0.2757  1.0872 -3.2541
 1048SOL    HW2 7187   1.652   7.405   1.442  2.3394  2.8505  1.5969
 1049SOL     OW 7188   9.086   1.088   1.095  0.6487 -0.1003 -0.3037
 1049SOL    HW1 7189   9.027   1.163   1.100 -0.5744 -1.0844  0.6642
 1049SOL    HW2 7190   9.135   1.091   1.178  1.0226 -0.0425 -0.5245
 1050SOL     OW 7191   5.222   9.774   9.097  0.3022 -0.0411 -0.2294
 1050SOL    HW1 7192   5.158   9.768   9.026  1.0322 -1.0216 -0.8298
 1050SOL    HW2 7193   5.239   9.868   9.107  0.1554  0.1091 -1.3216
 1051SOL     OW 7194   6.438   8.480   8.883  0.2340  0.7025  0.2593
 1051SOL    HW1 7195   6.383   8.530   8.822  0.7066  1.1754  0.2082
 1051SOL    HW2 7196   6.392   8.486   8.967 -0.1157  0.5566  0.0773
 1052SOL     OW 7197   0.719   2.108   9.954 -0.1765 -0.1387  0.1777
 1052SOL    HW1 7198   0.805   2.065   9.955 -0.6683 -1.1545  0.4547
 1052SOL    HW2 7199   0.738   2.201   9.959  0.8675 -0.4173  1.7645
 1053SOL     OW 7200   5.107   5.516   8.905  0.3009 -0.7474 -0.3167
 1053SOL    HW1 7201   5.121   5.609   8.923 -0.1981 -0.8322  0.5568
 1053SOL    HW2 7202   5.172   5.494   8.839  0.2190  0.2968 -0.7559
 1054SOL     OW 7203   1.702   0.354   9.422  0.3415  0.1741 -0.3648
 1054SOL    HW1 7204   1.783   0.368   9.373  2.5626  3.2030  3.5873
 1054SOL    HW2 7205   1.727   0.295   9.493 -0.5728  1.8185  1.4091
 1055SOL     OW 7206   7.518   6.293   3.889 -0.0691  0.0300 -0.1128
 1055SOL    HW1 7207   7.571   6.222   3.924  0.9319 -1.0468 -3.4594
 1055SOL    HW2 7208   7.544   6.370   3.939  2.8930 -0.9496  0.0249
 1056SOL     OW 7209   8.674   0.814   2.217  0.0399  0.3432 -0.2129
 1056SOL    HW1 7210   8.585   0.849   2.207 -0.5361 -0.9284  0.1586
 1056SOL    HW2 7211   8.723   0.853   2.145 -1.0775  0.3276 -1.0197
 1057SOL     OW 7212  10.296   1.597   0.053 -0.9795 -0.7323  0.0139
 1057SOL    HW1 7213  10.215   1.609   0.102 -0.0884 -0.1899  1.3978
 1057SOL    HW2 7214  10.343   1.679   0.063  0.5315 -1.6323  0.7509
 1058SOL     OW 7215   0.602   1.970   9.070 -0.2526 -0.4296 -0.2688
 1058SOL    HW1 7216   0.619   1.880   9.043 -1.8641 -1.4263  1.7207
 1058SOL    HW2 7217   0.511   1.986   9.046 -0.3473  0.2284  0.4849
 1059SOL     OW 7218   0.659   4.576   3.860  0.7593  0.6674  0.1843
 1059SOL    HW1 7219   0.649   4.605   3.769  1.7199 -0.0416 -0.1625
 1059SOL    HW2 7220   0.699   4.489   3.853  1.1766  0.7583  1.2938
 1060SOL     OW 7221   2.137   9.827   3.645  0.2163  0.8203  0.3963
 1060SOL    HW1 7222   2.201   9.783   3.588  0.4197 -0.1532  1.3580
 1060SOL    HW2 7223   2.103   9.899   3.591  1.8052  1.1075 -0.2899
 1061SOL     OW 7224   5.377   5.000   3.270 -0.1037 -0.0481  0.1223
 1061SOL    HW1 7225   5.421   5.039   3.195  2.4710 -2.8775 -0.0630
 1061SOL    HW2 7226   5.339   4.919   3.236 -1.1939 -0.0815  1.3614
 1062SOL     OW 7227   6.072   2.754   6.653  0.3325  0.4532 -0.0602
 1062SOL    HW1 7228   6.019   2.699   6.711  1.7124  0.5727  1.4013
 1062SOL    HW2 7229   6.016   2.828   6.632 -0.9468 -0.6399 -0.6588
 1063SOL     OW 7230   9.195   4.910   0.692 -0.1243  0.1165 -0.2485
 1063SOL    HW1 7231   9.167   4.981   0.751 -1.5123 -0.4806 -0.1793
 1063SOL    HW2 7232   9.289   4.900   0.712 -0.2433  0.8923  0.8404
 1064SOL     OW 7233   7.078   0.529   7.280 -0.4265 -0.2531  0.0133
 1064SOL    HW1 7234   7.012   0.595   7.257 -0.0541  0.0484 -0.1923
 1064SOL    HW2 7235   7.034   0.472   7.343 -1.8020 -1.6372 -2.0633
 1065SOL     OW 7236   8.481   9.703   2.618  0.8062 -0.6424 -0.0259
 1065SOL    HW1 7237   8.465   9.639   2.687 -1.9880 -0.4195 -0.3351
 1065SOL    HW2 7238   8.444   9.662   2.539  0.9355  0.4639 -0.6738
 1066SOL     OW 7239   7.252   1.414   9.514 -0.4264  0.3139  0.6454
 1066SOL    HW1 7240   7.262   1.451   9.427 -0.8342 -0.0525  0.4388
 1066SOL    HW2 7241   7.331   1.361   9.527 -0.7256 -0.2402  0.1959
 1067SOL     OW 7242   0.663   8.691   8.467  0.2433 -0.1791 -0.1033
 1067SOL    HW1 7243   0.759   8.693   8.464  0.2512  1.0609 -3.0213
 1067SOL    HW2 7244   0.638   8.627   8.401 -0.8960  0.9496 -0.8280
 1068SOL     OW 7245   9.497   0.424   9.731  0.2888  0.1198 -0.0818
 1068SOL    HW1 7246   9.472   0.404   9.821  2.2947  1.8101  0.9149
 1068SOL    HW2 7247   9.413   0.435   9.685 -0.7745 -0.7595  1.5420
 1069SOL     OW 7248   3.530   0.265   7.195 -0.5251  0.1780  0.1593
 1069SOL    HW1 7249   3.464   0.317   7.241  0.4821  0.7672  1.0057
 1069SOL    HW2 7250   3.515   0.175   7.225 -0.8074  0.3444  0.5225
 1070SOL     OW 7251   8.399   3.583   3.772 -0.0952  0.2907  0.6604
 1070SOL    HW1 7252   8.352   3.523   3.830 -1.3552  1.0593  0.4595
 1070SOL    HW2 7253   8.474   3.532   3.741 -0.6397 -0.8726  1.1989
 1071SOL     OW 7254   9.991   6.399   1.121 -0.1724  0.0128 -0.0184
 1071SOL    HW1 7255   9.922   6.366   1.065 -0.7822 -2.1396  1.8236
 1071SOL    HW2 7256   9.947   6.424   1.202  0.9172  1.0711  0.2925
 1072SOL     OW 7257   9.898   4.708   7.817 -0.1012 -0.0399 -0.1564
 1072SOL    HW1 7258   9.805   4.724   7.802 -0.1176  1.0914  0.9548
 1072SOL    HW2 7259   9.942   4.743   7.740 -0.6156 -0.8636 -0.8259
 1073SOL     OW 7260   9.456   4.129   9.159 -0.2542  0.8184 -0.4145
 1073SOL    HW1 7261   9.412   4.105   9.078  1.2623  0.3808 -1.1279
 1073SOL    HW2 7262   9.534   4.176   9.132  0.7799 -0.1545  0.7462
 1074SOL     OW 7263   6.143   8.473   2.656 -0.3513 -0.0047  0.1608
 1074SOL    HW1 7264   6.171   8.559   2.624 -0.8250 -0.0943 -0.5337
 1074SOL    HW2 7265   6.094   8.492   2.736  0.1483  0.3067  0.3944
 1075SOL     OW 7266   6.097   7.560   9.929  0.2986  0.1150 -0.5386
 1075SOL    HW1 7267   6.022   7.611   9.900 -1.6741 -0.0560  3.4929
 1075SOL    HW2 7268   6.063   7.471   9.941  1.6201 -0.3892 -0.3279
 1076SOL     OW 7269   9.735   6.011   4.588 -0.2040  0.2353  0.4008
 1076SOL    HW1 7270   9.672   6.010   4.660 -1.2600  0.9586 -0.4773
 1076SOL    HW2 7271   9.792   5.936   4.605  0.5989  1.2862  2.8538
 1077SOL     OW 7272   1.810   1.407   9.921 -0.3308  0.5350  0.1454
 1077SOL    HW1 7273   1.892   1.424   9.874  0.3568 -0.1261  1.0779
 1077SOL    HW2 7274   1.743   1.408   9.853  0.6612 -0.5833 -0.8814
 1078SOL     OW 7275   2.939   0.764   4.483 -0.0611  0.1380 -0.0921
 1078SOL    HW1 7276   2.990   0.844   4.493 -1.0152  0.5729  2.0937
 1078SOL    HW2 7277   3.001   0.693   4.500 -0.0377  0.6493  2.3607
 1079SOL     OW 7278   2.275   7.062   8.923  0.3993  0.4974  0.5641
 1079SOL    HW1 7279   2.206   7.054   8.989 -1.0385 -0.5989 -0.9728
 1079SOL    HW2 7280   2.280   7.155   8.904 -2.3520  0.4522 -0.8824
 1080SOL     OW 7281   7.272   8.132   6.575 -0.2410 -0.0984  0.0524
 1080SOL    HW1 7282   7.179   8.147   6.560 -0.7769 -2.1263  1.0010
 1080SOL    HW2 7283   7.275   8.067   6.645  1.8626 -0.9269 -0.7146
 1081SOL     OW 7284   4.113   6.701   7.857  0.3943 -0.1133  0.1152
 1081SOL    HW1 7285   4.029   6.728   7.894  1.0898  0.8991  1.0074
 1081SOL    HW2 7286   4.103   6.607   7.840 -2.1059  0.5485 -3.0801
 1082SOL     OW 7287   9.661   2.125   4.462  0.1069 -0.4915 -0.3845
 1082SOL    HW1 7288   9.670   2.030   4.476  0.5028 -0.4875 -0.6325
 1082SOL    HW2 7289   9.580   2.133   4.411 -2.2749 -0.4235  2.9984
 1083SOL     OW 7290   8.541   9.488   2.422  0.8356  0.5541  0.4530
 1083SOL    HW1 7291   8.480   9.446   2.482  0.4747  0.8422  0.2951
 1083SOL    HW2 7292   8.627   9.477   2.462  0.5444  1.1737  1.2672
 1084SOL     OW 7293   1.646   9.571   4.293 -0.4408 -0.1823  0.0953
 1084SOL    HW1 7294   1.572   9.541   4.240  0.1333  0.7188 -1.2876
 1084SOL    HW2 7295   1.664   9.659   4.261 -0.0360  0.3779  1.8134
 1085SOL     OW 7296   0.333   8.296   4.506  0.2791 -0.1121  0.4355
 1085SOL    HW1 7297   0.241   8.273   4.497  0.8794 -1.9934 -1.7568
 1085SOL    HW2 7298   0.375   8.218   4.542  1.6286 -0.9854 -2.7026
 1086SOL     OW 7299   8.412   2.188   4.552 -0.3871 -0.5254 -0.1115
 1086SOL    HW1 7300   8.425   2.268   4.501  0.8975 -1.2017 -0.8873
 1086SOL    HW2 7301   8.332   2.150   4.516  0.9918 -1.4904 -2.3764
 1087SOL     OW 7302   3.776   2.270   9.368  0.0958 -0.0163  0.1372
 1087SOL    HW1 7303   3.698   2.222   9.339  0.1932 -0.0906 -0.0054
 1087SOL    HW2 7304   3.742   2.351   9.406 -0.1414 -0.6575  1.3350
 1088SOL     OW 7305   9.445   0.716   4.481 -0.5050 -0.1945 -0.0457
 1088SOL    HW1 7306   9.364   0.674   4.512 -0.6899  0.8979  1.0124
 1088SOL    HW2 7307   9.435   0.718   4.386 -1.5505 -0.4401  0.0390
 1089SOL     OW 7308  10.004   6.360   2.850 -0.0190  0.2235  0.0795
 1089SOL    HW1 7309  10.077   6.413   2.883  1.7593 -1.6435 -0.6464
 1089SOL    HW2 7310   9.981   6.399   2.766  1.8570 -0.5916 -0.8647
 1090SOL     OW 7311   1.196   1.888   6.828  0.0614  0.0567  0.1046
 1090SOL    HW1 7312   1.223   1.978   6.847  1.1714  0.0636 -1.3567
 1090SOL    HW2 7313   1.206   1.842   6.912 -0.1488  1.1942  0.7758
 1091SOL     OW 7314   3.598   4.872   9.679  0.0552  0.0509  0.4962
 1091SOL    HW1 7315   3.528   4.814   9.652  0.2167 -1.1271  2.4194
 1091SOL    HW2 7316   3.674   4.844   9.629 -0.5814  0.7418 -0.9241
 1092SOL     OW 7317   8.615   9.953   8.392  0.1182  0.3018 -0.5291
 1092SOL    HW1 7318   8.666   9.893   8.446 -1.7058 -0.7348  0.1366
 1092SOL    HW2 7319   8.586  10.022   8.451 -0.6323 -0.0279 -0.4960
 1093SOL     OW 7320   0.666   0.028   1.138 -0.0690  0.0550 -0.1356
 1093SOL    HW1 7321   0.612   0.101   1.109  0.8315  0.7482 -0.0844
 1093SOL    HW2 7322   0.736   0.068   1.189  0.2795 -0.8641  0.1266
 1094SOL     OW 7323   6.264   4.479   7.151  0.1174 -0.5661  0.3564
 1094SOL    HW1 7324   6.250   4.525   7.234  1.3933 -1.0889  0.8794
 1094SOL    HW2 7325   6.309   4.543   7.096 -0.2579 -0.3949  0.2463
 1095SOL     OW 7326   4.333   3.682   0.341  0.4039 -0.0838  0.0268
 1095SOL    HW1 7327   4.253   3.733   0.324  0.3923 -0.5431 -1.3658
 1095SOL    HW2 7328   4.326   3.606   0.284 -0.0124 -2.1972  2.7129
 1096SOL     OW 7329   7.628   1.707   6.259 -0.0054 -0.2273 -0.3067
 1096SOL    HW1 7330   7.657   1.764   6.330  0.0208  0.4426 -0.8471
 1096SOL    HW2 7331   7.694   1.719   6.191  1.2839 -2.6287  0.4079
 1097SOL     OW 7332   9.827   8.211   5.466  0.5749 -0.1220 -0.0752
 1097SOL    HW1 7333   9.850   8.264   5.543  1.8610 -0.3487 -0.2699
 1097SOL    HW2 7334   9.733   8.195   5.475  0.4216  1.0584  0.6871
 1098SOL     OW 7335   0.005   6.232   5.051 -0.1848  0.0522  0.4588
 1098SOL    HW1 7336  -0.055   6.158   5.053  0.7385 -0.7123  1.9352
 1098SOL    HW2 7337   0.092   6.192   5.042  0.4883  0.7882  2.9373
 1099SOL     OW 7338   8.687   7.000   5.770 -0.3165  0.0467 -0.2075
 1099SOL    HW1 7339   8.726   7.086   5.787  1.2397 -0.1697 -2.2945
 1099SOL    HW2 7340   8.708   6.949   5.848 -0.9259  1.3973  0.8989
 1100SOL     OW 7341   9.885   9.254   2.900 -0.4158 -0.6695 -0.0504
 1100SOL    HW1 7342   9.855   9.163   2.902 -0.1033 -0.7661  0.3384
 1100SOL    HW2 7343   9.978   9.247   2.879 -0.2952 -0.4614  0.4267
 1101SOL     OW 7344   8.415   4.568   7.091  0.0985 -0.2991  0.6855
 1101SOL    HW1 7345   8.369   4.501   7.143 -0.7911  0.1462  0.4922
 1101SOL    HW2 7346   8.434   4.525   7.008  0.1037 -0.5127  0.7958
 1102SOL     OW 7347   7.725   1.956   7.136 -0.0636 -0.2784 -0.5659
 1102SOL    HW1 7348   7.656   1.891   7.133 -1.8322  1.4900 -0.1330
 1102SOL    HW2 7349   7.711   2.011   7.059 -0.7375  1.5595  0.7790
 1103SOL     OW 7350   0.411   1.637   3.268  0.5496  0.4061  0.6736
 1103SOL    HW1 7351   0.380   1.546   3.269  0.0394  0.5806  1.8683
 1103SOL    HW2 7352   0.459   1.645   3.185 -0.3361 -0.6336  0.0369
 1104SOL     OW 7353   1.388   7.883   3.451 -0.2702 -0.1042  0.1299
 1104SOL    HW1 7354   1.303   7.883   3.408 -0.7468  0.3307  1.0399
 1104SOL    HW2 7355   1.399   7.973   3.482  0.7175 -0.0465 -0.3392
 1105SOL     OW 7356   9.710   0.894   8.551  0.5055 -0.8332 -0.0631
 1105SOL    HW1 7357   9.804   0.906   8.541  0.4622  0.8732  0.9974
 1105SOL    HW2 7358   9.689   0.817   8.499  2.0707  0.2192 -2.4256
 1106SOL     OW 7359   8.021   9.859   7.364  0.4107 -0.0043  0.2001
 1106SOL    HW1 7360   7.974   9.938   7.338 -0.7642 -0.7358  0.0373
 1106SOL    HW2 7361   8.040   9.872   7.457  1.6181  1.1245 -0.1590
 1107SOL     OW 7362   2.187   7.799   8.101 -0.0839  0.2795 -0.2163
 1107SOL    HW1 7363   2.174   7.713   8.060  0.2310  0.3938 -0.5580
 1107SOL    HW2 7364   2.245   7.780   8.175 -0.8277  0.0389  0.3205
 1108SOL     OW 7365   8.178   9.534   0.276  0.3878  0.0119 -0.8237
 1108SOL    HW1 7366   8.263   9.550   0.236  1.7848  0.3495  1.9693
 1108SOL    HW2 7367   8.163   9.610   0.332  0.4234 -1.9031  2.0284
 1109SOL     OW 7368   8.297   2.060   7.286 -0.1987 -0.4813  0.4995
 1109SOL    HW1 7369   8.243   2.128   7.246  1.5222  1.0072  0.5745
 1109SOL    HW2 7370   8.368   2.046   7.224 -0.0036 -1.5047  0.9406
 1110SOL     OW 7371   2.955   8.166   8.963  0.6187  0.0072 -0.7795
 1110SOL    HW1 7372   2.901   8.228   8.914  0.7648  0.1142 -0.8053
 1110SOL    HW2 7373   3.045   8.188   8.939  0.9293  2.1371  1.8938
 1111SOL     OW 7374   8.361   5.928   0.318 -0.5285  0.1919  0.6959
 1111SOL    HW1 7375   8.334   5.962   0.403 -2.2249 -0.0040  0.2755
 1111SOL    HW2 7376   8.311   5.979   0.254 -1.3821 -1.4917 -0.0457
 1112SOL     OW 7377   1.356  10.041   7.695 -0.8735 -0.2397 -0.4412
 1112SOL    HW1 7378   1.407   9.973   7.738 -0.8348  0.7947  1.2741
 1112SOL    HW2 7379   1.415  10.078   7.629  0.0771 -0.0685  0.4804
 1113SOL     OW 7380   8.415   5.697   4.725  0.8354 -0.4635  0.2424
 1113SOL    HW1 7381   8.343   5.635   4.721  0.1130  0.3329  0.4167
 1113SOL    HW2 7382   8.374   5.782   4.708  1.8842 -0.0954 -0.5626
 1114SOL     OW 7383   3.667  10.297   7.125 -0.5446  0.0116 -0.0479
 1114SOL    HW1 7384   3.741  10.341   7.082 -0.0504 -0.8574 -0.1004
 1114SOL    HW2 7385   3.684  10.204   7.113 -1.9697 -0.2034 -0.5836
 1115SOL     OW 7386   0.709   0.625   0.448 -0.2359  0.4294 -0.6187
 1115SOL    HW1 7387   0.642   0.682   0.486 -0.6840 -0.4202 -0.0956
 1115SOL    HW2 7388   0.773   0.613   0.518  0.2299  0.8669 -0.9661
 1116SOL     OW 7389  10.065   5.739   5.617  0.0191 -0.1990  0.0214
 1116SOL    HW1 7390  10.053   5.646   5.632 -2.9608 -0.1753 -1.4837
 1116SOL    HW2 7391   9.993   5.764   5.559  1.0175  2.9465 -0.0806
 1117SOL     OW 7392   4.275   8.408   7.427 -0.1644 -0.4001  0.0503
 1117SOL    HW1 7393   4.187   8.413   7.465 -0.9476 -0.0878 -1.7159
 1117SOL    HW2 7394   4.268   8.453   7.343  2.0727  0.9872  0.4954
 1118SOL     OW 7395   7.940   7.323   2.320 -0.5138  0.4116 -0.2402
 1118SOL    HW1 7396   7.977   7.354   2.403  0.3375  1.5261 -1.0053
 1118SOL    HW2 7397   7.876   7.257   2.346  0.2513  0.2047  1.2718
 1119SOL     OW 7398   6.716   2.712   3.792 -0.2351  0.0065 -0.3050
 1119SOL    HW1 7399   6.788   2.726   3.730  0.8311 -1.0618  0.6233
 1119SOL    HW2 7400   6.756   2.662   3.863 -1.7475  0.0160  0.5917
 1120SOL     OW 7401   6.097   3.567   8.085 -0.2428  0.5433 -0.1063
 1120SOL    HW1 7402   6.003   3.582   8.082 -0.2395  0.9907  1.3683
 1120SOL    HW2 7403   6.107   3.476   8.056 -1.1216  0.4976 -0.3013
 1121SOL     OW 7404   9.594   0.457   1.306  0.1707  0.4739 -0.0026
 1121SOL    HW1 7405   9.571   0.503   1.387  0.2970  2.2764 -0.9477
 1121SOL    HW2 7406   9.596   0.365   1.331 -1.0826  0.8647  1.7474
 1122SOL     OW 7407   2.977   0.293   3.121  0.3773  0.0352 -0.7028
 1122SOL    HW1 7408   2.936   0.301   3.035 -0.1602  1.1204 -0.3574
 1122SOL    HW2 7409   3.036   0.368   3.128 -0.5595  0.7087  0.3728
 1123SOL     OW 7410  10.168   3.060   5.839  0.1594 -0.0533  0.4588
 1123SOL    HW1 7411  10.118   2.998   5.786 -0.6017  0.4524  0.5810
 1123SOL    HW2 7412  10.258   3.052   5.806 -0.1287 -0.4377 -0.2547
 1124SOL     OW 7413   3.825   5.012   2.346 -0.4734 -0.1259  0.2260
 1124SOL    HW1 7414   3.761   5.018   2.275 -0.5956 -0.6644  0.2859
 1124SOL    HW2 7415   3.862   5.100   2.353 -0.9572  0.1002 -0.0419
 1125SOL     OW 7416   8.312   7.224   1.367 -0.7298  0.0450  0.2824
 1125SOL    HW1 7417   8.370   7.258   1.435  0.4717 -1.2786 -0.0226
 1125SOL    HW2 7418   8.276   7.143   1.404 -0.1218 -0.6485 -0.5949
 1126SOL     OW 7419   0.032   9.001   1.350  0.1507 -0.3209 -0.2974
 1126SOL    HW1 7420   0.098   8.948   1.304  1.1039  0.0898  0.5713
 1126SOL    HW2 7421   0.009   8.948   1.426  0.3413  0.0597  0.0228
 1127SOL     OW 7422   9.482   3.706   5.291 -0.1441  0.0301  0.1530
 1127SOL    HW1 7423   9.438   3.685   5.374 -1.2632  0.3786 -0.3417
 1127SOL    HW2 7424   9.567   3.662   5.298 -0.8538 -1.3003  0.8118
 1128SOL     OW 7425   5.291   9.237   0.609  0.7602  0.4681 -0.2907
 1128SOL    HW1 7426   5.344   9.182   0.551  0.3192 -0.2311 -0.0510
 1128SOL    HW2 7427   5.257   9.176   0.675  0.4799  1.0836  0.1402
 1129SOL     OW 7428   2.286   5.809   8.176  0.7040 -0.0485 -0.6168
 1129SOL    HW1 7429   2.193   5.834   8.177  0.5851 -0.4675  0.7079
 1129SOL    HW2 7430   2.317   5.829   8.264  1.8972  0.1122 -1.0523
 1130SOL     OW 7431   1.629   5.881   1.376  0.4674  0.7595  0.3328
 1130SOL    HW1 7432   1.689   5.862   1.304  0.5920 -0.5839  0.7701
 1130SOL    HW2 7433   1.584   5.961   1.349 -0.6231 -0.5276 -1.9603
 1131SOL     OW 7434   1.827   4.984   2.723  0.2240  0.2960 -0.0106
 1131SOL    HW1 7435   1.808   5.076   2.708  0.4095  0.4746  0.8163
 1131SOL    HW2 7436   1.838   4.947   2.635  0.8726  1.2094 -0.3300
 1132SOL     OW 7437   8.422   7.287   3.897  0.1069 -0.3160 -0.0519
 1132SOL    HW1 7438   8.466   7.208   3.868  4.2140  2.0556 -1.0270
 1132SOL    HW2 7439   8.379   7.321   3.818 -0.1424 -0.6211 -0.0522
 1133SOL     OW 7440   2.304   9.450   6.870 -0.5594  0.0931 -0.1161
 1133SOL    HW1 7441   2.262   9.486   6.948 -0.2687 -1.4906  0.8165
 1133SOL    HW2 7442   2.309   9.356   6.887  0.0271 -0.2123 -1.8133
 1134SOL     OW 7443   1.865   7.788   9.561  0.1711  0.0777 -0.1050
 1134SOL    HW1 7444   1.884   7.747   9.477 -2.3108 -0.8420 -0.3048
 1134SOL    HW2 7445   1.921   7.740   9.623  2.2444  0.9550 -1.1696
 1135SOL     OW 7446   2.537   0.324   3.407 -0.1107 -0.3534  0.0995
 1135SOL    HW1 7447   2.619   0.367   3.379  0.7576 -2.6835 -1.2501
 1135SOL    HW2 7448   2.558   0.285   3.491 -0.7931  1.4648  1.1588
 1136SOL     OW 7449   9.505   6.763   3.803  0.5536  0.3242  0.3173
 1136SOL    HW1 7450   9.534   6.769   3.712  3.5138 -1.3347  1.0162
 1136SOL    HW2 7451   9.419   6.722   3.798 -0.2026  1.9829 -1.7561
 1137SOL     OW 7452   8.546   1.651   9.327  0.1670 -0.2598  0.5051
 1137SOL    HW1 7453   8.453   1.627   9.334  0.4832 -2.3138 -1.1905
 1137SOL    HW2 7454   8.592   1.577   9.367  1.1047  0.9632  1.7558
 1138SOL     OW 7455   0.720   2.654   3.480  0.5436 -0.5833 -0.3372
 1138SOL    HW1 7456   0.770   2.707   3.542 -1.5712  2.1972 -0.7878
 1138SOL    HW2 7457   0.689   2.580   3.531  0.6149  0.5075  1.3769
 1139SOL     OW 7458   8.668   4.972   2.515 -0.2245  0.3084  0.6228
 1139SOL    HW1 7459   8.608   4.906   2.550 -2.3145  2.0881  0.6360
 1139SOL    HW2 7460   8.624   5.006   2.437  2.5178 -0.8136 -1.6092
 1140SOL     OW 7461   4.598   7.309   8.908 -0.2742 -0.3822 -0.7242
 1140SOL    HW1 7462   4.554   7.228   8.933  0.1787 -0.9498 -1.7143
 1140SOL    HW2 7463   4.550   7.378   8.955  0.0208 -1.3092  0.9812
 1141SOL     OW 7464   3.693   8.135   6.790  0.2333 -0.3505 -0.4141
 1141SOL    HW1 7465   3.682   8.040   6.790  0.6462 -0.4079  0.5968
 1141SOL    HW2 7466   3.642   8.165   6.866 -0.4569  0.3092 -1.1192
 1142SOL     OW 7467   5.272   5.965   5.936 -0.1602  0.7620 -0.6118
 1142SOL    HW1 7468   5.190   5.969   5.888  0.1604  0.7198 -1.1675
 1142SOL    HW2 7469   5.318   5.889   5.900 -0.6762 -0.3615  0.9956
 1143SOL     OW 7470   3.321   0.169   9.396  0.4572  0.1707  0.7159
 1143SOL    HW1 7471   3.289   0.211   9.476  0.1619 -0.1811  0.7838
 1143SOL    HW2 7472   3.416   0.166   9.407  0.3078 -1.5673  1.9010
 1144SOL     OW 7473   0.560   3.167   5.581  0.4085  0.4480  0.0502
 1144SOL    HW1 7474   0.486   3.107   5.595  1.3097 -0.4935  1.0624
 1144SOL    HW2 7475   0.536   3.246   5.630  1.0677 -0.7506  2.4745
 1145SOL     OW 7476   9.714   1.842   5.777  0.2885 -0.6356  0.2371
 1145SOL    HW1 7477   9.789   1.830   5.718  0.2573 -0.8409  0.2402
 1145SOL    HW2 7478   9.749   1.821   5.864  0.0548 -1.3715  0.1539
 1146SOL     OW 7479   8.803   5.049   7.022  0.0686  0.1428 -0.1328
 1146SOL    HW1 7480   8.766   4.961   7.022  0.5273 -0.0561 -0.3085
 1146SOL    HW2 7481   8.732   5.106   6.992 -0.4185 -0.0810  0.5805
 1147SOL     OW 7482   3.373   9.621   7.463 -0.3245  0.3254  0.1038
 1147SOL    HW1 7483   3.320   9.697   7.488  0.3589  0.9689 -0.3467
 1147SOL    HW2 7484   3.394   9.635   7.371  1.1339  0.4291  0.4133
 1148SOL     OW 7485   3.529   9.309   6.638  0.0483  0.1177 -0.0963
 1148SOL    HW1 7486   3.483   9.237   6.679 -1.0903  1.1061  0.4132
 1148SOL    HW2 7487   3.536   9.376   6.706 -1.8436  1.7808 -1.4214
 1149SOL     OW 7488   4.684   2.927   6.258 -0.1145 -0.1202  0.1384
 1149SOL    HW1 7489   4.760   2.946   6.314 -0.6008  0.4431  0.6225
 1149SOL    HW2 7490   4.659   3.012   6.222  0.1363 -0.4645 -0.8890
 1150SOL     OW 7491   2.773   6.735   8.736 -0.2896 -0.3803 -0.0780
 1150SOL    HW1 7492   2.788   6.752   8.829 -1.7848 -0.8579  0.2744
 1150SOL    HW2 7493   2.803   6.644   8.723  0.5836 -0.0810 -0.2443
 1151SOL     OW 7494   0.612   9.990   8.415  0.0443  0.3827 -0.0464
 1151SOL    HW1 7495   0.638   9.999   8.506  0.1646  0.3250 -0.0748
 1151SOL    HW2 7496   0.567  10.072   8.394  0.4473  0.5949 -0.0779
 1152SOL     OW 7497   3.214   3.636   7.928 -0.1348 -0.0759  0.0419
 1152SOL    HW1 7498   3.148   3.701   7.953 -0.3646  0.3132 -1.4544
 1152SOL    HW2 7499   3.266   3.623   8.007 -0.3843  1.5599  0.5157
 1153SOL     OW 7500   4.681   3.099   6.699 -0.0269  0.2858 -0.1740
 1153SOL    HW1 7501   4.609   3.162   6.686 -0.0824 -0.0695 -1.7514
 1153SOL    HW2 7502   4.760   3.149   6.677  0.2551  0.6812  1.5749
 1154SOL     OW 7503   7.656   8.482   4.506 -0.3145  0.5098  0.2610
 1154SOL    HW1 7504   7.692   8.452   4.589  0.6135  0.9506  0.0288
 1154SOL    HW2 7505   7.719   8.547   4.474 -0.7164  0.4334 -0.7257
 1155SOL     OW 7506   5.070   1.263   9.442  0.2842  0.5044  0.7350
 1155SOL    HW1 7507   5.113   1.284   9.359  1.3706  1.9490  1.6102
 1155SOL    HW2 7508   4.976   1.268   9.423  0.4372 -2.0376 -1.0585
 1156SOL     OW 7509   4.156   2.996   1.701 -0.2340  0.0914 -0.1188
 1156SOL    HW1 7510   4.158   3.014   1.795  2.4168 -2.5542  0.4658
 1156SOL    HW2 7511   4.236   3.036   1.667 -1.1940  1.0793 -1.3355
 1157SOL     OW 7512   3.424   4.393   8.639 -0.1063  0.4104 -0.2789
 1157SOL    HW1 7513   3.411   4.428   8.728  1.2352  0.2002  0.0125
 1157SOL    HW2 7514   3.390   4.304   8.643 -1.4524  0.8972 -0.4079
 1158SOL     OW 7515   3.401   6.300   7.067  0.3308  0.4181  0.1880
 1158SOL    HW1 7516   3.437   6.385   7.093  0.1405  0.8092 -0.7790
 1158SOL    HW2 7517   3.365   6.263   7.148 -0.2407  1.5817  0.4805
 1159SOL     OW 7518   0.641   3.257  10.164 -0.0006 -0.9674  0.3461
 1159SOL    HW1 7519   0.720   3.307  10.186  0.4471 -0.7941 -1.4583
 1159SOL    HW2 7520   0.649   3.176  10.214 -0.1294  0.2020  2.3794
 1160SOL     OW 7521   1.036   0.881   9.917  0.6296  0.3307  0.5874
 1160SOL    HW1 7522   0.967   0.943   9.939 -0.2429 -0.2874 -0.3040
 1160SOL    HW2 7523   1.116   0.921   9.951  0.0634  1.8102  0.2623
 1161SOL     OW 7524   2.549   2.818   3.060  0.7103  0.5817 -0.0927
 1161SOL    HW1 7525   2.619   2.778   3.110  1.1067  0.1004 -1.0034
 1161SOL    HW2 7526   2.548   2.769   2.977 -0.5445  0.7261 -0.1832
 1162SOL     OW 7527   1.722   5.410   9.241  0.0758 -0.2681  0.2715
 1162SOL    HW1 7528   1.743   5.468   9.168 -0.3632  0.1294  0.4511
 1162SOL    HW2 7529   1.773   5.444   9.314 -1.7000  1.1659  0.9059
 1163SOL     OW 7530   5.250   0.372   8.004 -0.3175  0.0524  0.1529
 1163SOL    HW1 7531   5.234   0.278   7.994 -0.1517  0.1089 -0.7594
 1163SOL    HW2 7532   5.282   0.400   7.918  1.9414  0.4763  1.0634
 1164SOL     OW 7533   4.400   0.622   9.802 -0.3874  0.7162 -0.0919
 1164SOL    HW1 7534   4.411   0.619   9.897  0.8436 -1.1687 -0.2347
 1164SOL    HW2 7535   4.385   0.531   9.777 -0.8555  1.2086 -1.6976
 1165SOL     OW 7536   6.483   6.001   9.416 -0.2954 -0.5764  0.6926
 1165SOL    HW1 7537   6.565   5.995   9.367  0.2199 -0.2599  1.4959
 1165SOL    HW2 7538   6.464   5.910   9.443  0.2960 -0.5281  1.2982
 1166SOL     OW 7539   7.521   9.277   1.237  0.1418 -0.1993  0.2568
 1166SOL    HW1 7540   7.536   9.358   1.284 -0.5901  1.2207 -1.8046
 1166SOL    HW2 7541   7.604   9.229   1.244  0.3914  0.4207  1.9893
 1167SOL     OW 7542   7.774   2.653   8.511 -0.0149 -0.0473 -0.3092
 1167SOL    HW1 7543   7.774   2.601   8.592  1.6404 -0.4132 -0.4948
 1167SOL    HW2 7544   7.845   2.717   8.525 -1.1017  1.2721 -0.6434
 1168SOL     OW 7545   3.094   2.767   9.469 -0.2075  0.5150  0.4608
 1168SOL    HW1 7546   3.022   2.750   9.530 -0.3742 -0.6417 -0.0319
 1168SOL    HW2 7547   3.173   2.740   9.516 -0.4762 -1.9461 -0.3500
 1169SOL     OW 7548   2.745   1.115   0.783 -0.4492 -0.1827 -0.1319
 1169SOL    HW1 7549   2.838   1.138   0.784 -1.1012  2.8453  0.4540
 1169SOL    HW2 7550   2.731   1.072   0.868  0.6625 -2.2420 -0.9091
 1170SOL     OW 7551   6.134   1.650  10.186  0.3109 -0.5524 -0.1544
 1170SOL    HW1 7552   6.173   1.570  10.221  0.6107 -0.5206 -0.4118
 1170SOL    HW2 7553   6.204   1.691  10.135 -0.0097 -0.4184 -0.4962
 1171SOL     OW 7554   2.653   1.959   7.122  0.2039 -0.3116  0.0954
 1171SOL    HW1 7555   2.616   1.887   7.071 -2.3107  0.1031  1.2095
 1171SOL    HW2 7556   2.746   1.957   7.101 -0.5253 -0.6264 -3.8984
 1172SOL     OW 7557   3.271   7.142   7.991 -0.1448 -0.3920  0.0592
 1172SOL    HW1 7558   3.191   7.159   7.942 -0.4633 -1.1875  0.2830
 1172SOL    HW2 7559   3.341   7.152   7.927 -0.5056 -0.7642 -0.4038
 1173SOL     OW 7560   4.601   6.761   2.487 -0.2135  0.2453  1.1088
 1173SOL    HW1 7561   4.539   6.775   2.559 -0.8521  0.5928  0.5019
 1173SOL    HW2 7562   4.545   6.749   2.410  0.2551 -3.6850  1.1564
 1174SOL     OW 7563   0.761   0.958  10.190  0.0515  0.2601 -0.0160
 1174SOL    HW1 7564   0.686   0.911  10.154 -1.2263  1.7618  0.6195
 1174SOL    HW2 7565   0.813   0.890  10.234 -0.6191 -0.8819 -0.9181
 1175SOL     OW 7566   0.677   4.434   5.257 -0.4705  0.1878  0.1152
 1175SOL    HW1 7567   0.732   4.413   5.333  0.4062  0.6156 -0.3896
 1175SOL    HW2 7568   0.590   4.402   5.281  0.2404 -1.6559  0.4450
 1176SOL     OW 7569   7.197   5.926   8.378  0.5628 -0.2616 -0.5031
 1176SOL    HW1 7570   7.175   6.018   8.391  0.4327 -0.2575 -0.7444
 1176SOL    HW2 7571   7.272   5.911   8.434  0.0777 -0.2175  0.1671
 1177SOL     OW 7572   9.502   6.718   5.778 -0.1874  0.3176 -0.2628
 1177SOL    HW1 7573   9.418   6.693   5.738  0.4046  0.5020 -1.6902
 1177SOL    HW2 7574   9.496   6.813   5.788 -1.6018  0.0096  3.2026
 1178SOL     OW 7575   4.108   7.142   8.209 -0.2336 -0.9508  0.0916
 1178SOL    HW1 7576   4.134   7.175   8.123 -0.6496 -0.6811  0.0642
 1178SOL    HW2 7577   4.155   7.060   8.219 -0.7581 -1.3636 -0.7210
 1179SOL     OW 7578   7.090   3.506   6.166  0.0032 -0.0878 -0.5192
 1179SOL    HW1 7579   7.169   3.545   6.204  0.9100 -2.0133 -0.3055
 1179SOL    HW2 7580   7.120   3.422   6.130 -1.7770 -0.4410 -1.2710
 1180SOL     OW 7581  10.134   7.608   0.133  0.6775  0.6924  0.3738
 1180SOL    HW1 7582  10.134   7.531   0.190 -0.5220  0.6070  0.2830
 1180SOL    HW2 7583  10.171   7.677   0.188 -0.8889  0.7275  1.4704
 1181SOL     OW 7584   3.345   7.063   3.503 -0.3215  0.9670 -0.7352
 1181SOL    HW1 7585   3.340   7.062   3.598  0.3406 -1.9910 -0.6102
 1181SOL    HW2 7586   3.255   7.051   3.473 -0.1991 -1.8759 -0.2564
 1182SOL     OW 7587   5.502   3.140   8.660  0.5676 -1.0449  0.5985
 1182SOL    HW1 7588   5.569   3.208   8.670 -0.8792  0.6400 -0.4674
 1182SOL    HW2 7589   5.501   3.121   8.567  1.3351 -3.0109  0.9526
 1183SOL     OW 7590   8.818   6.545   5.050  0.4532 -0.4066  0.2481
 1183SOL    HW1 7591   8.900   6.595   5.048 -0.6040  1.3968 -0.3935
 1183SOL    HW2 7592   8.800   6.526   4.958 -1.0793  1.3687  0.1481
 1184SOL     OW 7593   8.993   2.763   0.206  0.7937 -0.1432 -0.0386
 1184SOL    HW1 7594   8.994   2.794   0.116  0.2827  1.1077  0.3543
 1184SOL    HW2 7595   9.065   2.701   0.212  0.4173 -0.7450 -1.4625
 1185SOL     OW 7596   4.004   4.548   9.149  0.5881 -0.2662 -0.2925
 1185SOL    HW1 7597   4.053   4.511   9.076  2.5817 -0.1075  0.8614
 1185SOL    HW2 7598   4.016   4.642   9.141  0.5066 -0.2279  0.0075
 1186SOL     OW 7599   7.843   4.425   8.857 -0.2765 -0.0506  0.3865
 1186SOL    HW1 7600   7.777   4.417   8.788  1.5062 -0.7648 -1.3375
 1186SOL    HW2 7601   7.869   4.517   8.855  0.2414 -0.2040 -0.3924
 1187SOL     OW 7602   7.325   8.164   9.818  0.0873 -0.5916  0.4782
 1187SOL    HW1 7603   7.309   8.258   9.814  1.2036 -0.3727  0.9334
 1187SOL    HW2 7604   7.328   8.137   9.726 -0.0192 -0.1526  0.3441
 1188SOL     OW 7605  10.076   8.048   4.775  0.1317 -0.1688  0.0726
 1188SOL    HW1 7606  10.160   8.094   4.773 -0.0688  0.2072  0.1679
 1188SOL    HW2 7607  10.032   8.076   4.694 -1.4266  2.5570  1.7077
 1189SOL     OW 7608  10.119   1.904   0.404 -0.8730  0.1869  0.0435
 1189SOL    HW1 7609  10.079   1.876   0.321 -1.0312  0.8580 -0.1155
 1189SOL    HW2 7610  10.046   1.908   0.466 -0.7969 -0.0756  0.1500
 1190SOL     OW 7611   5.959   4.893   9.144 -0.0596 -0.5774 -0.0055
 1190SOL    HW1 7612   5.941   4.948   9.067  0.2724 -1.3123 -0.6148
 1190SOL    HW2 7613   6.053   4.905   9.159 -0.2367  0.0404  0.6701
 1191SOL     OW 7614   9.131   8.414   4.584  0.1684  0.4072 -0.6821
 1191SOL    HW1 7615   9.165   8.459   4.661 -0.9333  0.4759 -0.2106
 1191SOL    HW2 7616   9.148   8.321   4.601 -1.6488  0.2384  0.5274
 1192SOL     OW 7617   1.059   6.277   4.109 -0.3283  0.2323 -0.5107
 1192SOL    HW1 7618   1.098   6.287   4.022 -1.1923 -0.3354 -0.9716
 1192SOL    HW2 7619   0.970   6.248   4.093 -0.0704 -1.3281  0.5988
 1193SOL     OW 7620   9.953   1.808   9.932 -0.4005 -0.4478 -0.2765
 1193SOL    HW1 7621  10.008   1.750   9.984 -0.1831 -0.3242 -0.3651
 1193SOL    HW2 7622   9.927   1.756   9.856 -1.2130 -0.8288  0.2451
 1194SOL     OW 7623   8.569   4.468   8.443 -0.4463 -0.0657  0.2557
 1194SOL    HW1 7624   8.547   4.396   8.502 -0.4313 -2.0811 -2.0044
 1194SOL    HW2 7625   8.663   4.480   8.453 -0.4074 -0.5369  0.4824
 1195SOL     OW 7626   9.347   0.185   4.677 -0.3109  0.4421  0.4179
 1195SOL    HW1 7627   9.307   0.207   4.592 -2.2669  1.2876  1.4992
 1195SOL    HW2 7628   9.385   0.098   4.663 -1.7984 -0.0490 -0.9645
 1196SOL     OW 7629   3.409   7.451   6.843  0.5978  0.3914  0.4221
 1196SOL    HW1 7630   3.500   7.442   6.814  0.3982 -0.8239  0.1536
 1196SOL    HW2 7631   3.403   7.397   6.922  0.2341  0.8809  0.7391
 1197SOL     OW 7632   3.034   3.697   1.539  0.3233  0.7282 -0.1093
 1197SOL    HW1 7633   3.098   3.654   1.597 -0.8039 -0.5670  0.2183
 1197SOL    HW2 7634   2.965   3.632   1.527 -0.5161  1.7807 -1.1719
 1198SOL     OW 7635   3.471   0.589   8.715 -0.6349 -0.4919  0.4783
 1198SOL    HW1 7636   3.457   0.608   8.808  1.8361  1.9590  0.4791
 1198SOL    HW2 7637   3.420   0.656   8.669 -0.5559 -0.6948  0.0903
 1199SOL     OW 7638   9.814   9.870   6.099  0.2760 -0.1639 -0.3629
 1199SOL    HW1 7639   9.862   9.827   6.028  0.0431 -0.8341 -0.1231
 1199SOL    HW2 7640   9.864   9.849   6.178  0.1648  0.0212 -0.2425
 1200SOL     OW 7641   3.194   7.924   9.598 -0.7380 -0.4263  0.4442
 1200SOL    HW1 7642   3.167   7.869   9.672 -1.3479 -0.5847  0.1087
 1200SOL    HW2 7643   3.261   7.873   9.554  0.3424  0.0839  1.4378
 1201SOL     OW 7644   5.922   9.622   4.043  0.0367 -0.0594 -0.0458
 1201SOL    HW1 7645   5.927   9.529   4.023  3.1625 -0.5091  2.1167
 1201SOL    HW2 7646   5.910   9.626   4.138 -0.1061  1.7292 -0.0990
 1202SOL     OW 7647   7.180   7.971   5.456  0.1946 -0.4460 -0.0994
 1202SOL    HW1 7648   7.249   7.904   5.457  2.6125  1.8127 -1.4365
 1202SOL    HW2 7649   7.223   8.051   5.487 -2.1151  0.8955 -0.0976
 1203SOL     OW 7650   9.680   3.707   0.761 -0.9186 -0.4631  0.4432
 1203SOL    HW1 7651   9.727   3.675   0.837  2.7771 -0.5305 -1.6237
 1203SOL    HW2 7652   9.657   3.797   0.783  0.3743 -0.3747  1.5536
 1204SOL     OW 7653   7.611   8.416   1.160 -0.4273 -0.3605  0.0161
 1204SOL    HW1 7654   7.560   8.337   1.177 -1.4649  0.3750  0.4554
 1204SOL    HW2 7655   7.608   8.427   1.065 -1.0049 -0.3845  0.0296
 1205SOL     OW 7656   1.165   2.583   1.594  0.4763 -0.0613  0.3373
 1205SOL    HW1 7657   1.188   2.493   1.619  2.2077 -0.2100 -1.4352
 1205SOL    HW2 7658   1.195   2.637   1.667  0.9046 -0.8036  0.7263
 1206SOL     OW 7659   1.082   4.677   0.378  0.2929 -0.5197  0.7500
 1206SOL    HW1 7660   1.065   4.622   0.302 -0.2263  1.0924 -0.3538
 1206SOL    HW2 7661   1.075   4.618   0.453 -2.1703 -1.5706 -0.2210
 1207SOL     OW 7662   5.985   5.959   4.586 -0.5467 -0.1984  0.4912
 1207SOL    HW1 7663   6.000   5.876   4.541  0.0197 -0.2957  0.8555
 1207SOL    HW2 7664   5.938   5.935   4.666  0.0392 -0.2293  0.8339
 1208SOL     OW 7665   8.806   7.345   8.072  0.2241  0.4267 -0.2694
 1208SOL    HW1 7666   8.782   7.293   8.148 -2.3502  2.2095  0.2294
 1208SOL    HW2 7667   8.898   7.320   8.055  1.0116  0.1541  3.5092
 1209SOL     OW 7668  10.235   4.534   7.463 -0.0428 -0.0078  0.6149
 1209SOL    HW1 7669  10.177   4.552   7.389  1.4139  0.1444 -0.5397
 1209SOL    HW2 7670  10.216   4.443   7.487 -1.1296  0.2096  0.6241
 1210SOL     OW 7671   5.914   5.786   5.291 -0.7783 -0.0424 -0.2545
 1210SOL    HW1 7672   5.844   5.777   5.355 -1.1965  3.8810  0.0889
 1210SOL    HW2 7673   5.990   5.815   5.342 -0.5781  1.2609 -1.2290
 1211SOL     OW 7674   4.407   1.410   5.067 -0.3459 -0.0914 -0.3206
 1211SOL    HW1 7675   4.497   1.379   5.076 -0.9532 -1.8383  0.1685
 1211SOL    HW2 7676   4.400   1.441   4.977 -0.0026 -2.6508 -1.2956
 1212SOL     OW 7677   5.613   8.715   8.839  0.6035 -0.0970  0.0451
 1212SOL    HW1 7678   5.620   8.811   8.844 -3.6094  0.4110 -0.4287
 1212SOL    HW2 7679   5.648   8.694   8.752  0.2768  1.2161 -0.4391
 1213SOL     OW 7680   4.209   5.956   8.952  0.3601  0.3177 -0.3404
 1213SOL    HW1 7681   4.165   5.903   9.018 -2.3010 -0.4986 -2.5945
 1213SOL    HW2 7682   4.264   5.894   8.904  1.2059  0.6402  0.1904
 1214SOL     OW 7683   6.696   3.049   0.202 -0.1988 -0.2192  0.5810
 1214SOL    HW1 7684   6.703   2.999   0.121  1.3149 -0.1815  0.6661
 1214SOL    HW2 7685   6.732   2.991   0.269 -4.5894 -1.7376  1.9957
 1215SOL     OW 7686   8.844   4.166   8.326 -0.7855 -0.1539 -0.0332
 1215SOL    HW1 7687   8.791   4.086   8.328 -0.7427 -0.1955 -0.4597
 1215SOL    HW2 7688   8.866   4.177   8.234 -0.9467  0.4555 -0.0016
 1216SOL     OW 7689   8.805   7.140   6.561  0.4477 -0.5766 -0.3171
 1216SOL    HW1 7690   8.883   7.144   6.617  0.2215  0.5477 -0.0531
 1216SOL    HW2 7691   8.750   7.073   6.602  0.3226  0.1677  0.7878
 1217SOL     OW 7692   2.149   1.865   5.294  0.2728 -0.2737  0.2654
 1217SOL    HW1 7693   2.171   1.774   5.310 -0.2581 -0.2116  1.3932
 1217SOL    HW2 7694   2.227   1.901   5.250  1.7412 -0.5059  2.5163
 1218SOL     OW 7695   4.967   6.811   8.105 -0.1461 -0.0243  0.3345
 1218SOL    HW1 7696   4.884   6.852   8.080 -1.0843 -2.9482 -1.9189
 1218SOL    HW2 7697   5.034   6.872   8.073 -1.3808  1.6119  0.7015
 1219SOL     OW 7698   9.303   2.293   8.106 -0.2105 -0.1200  0.3131
 1219SOL    HW1 7699   9.316   2.360   8.039 -2.1136 -1.1106 -1.1668
 1219SOL    HW2 7700   9.296   2.211   8.056 -0.4464 -1.0892  1.8548
 1220SOL     OW 7701   1.789   6.431   8.874  0.8577  0.1721 -0.3239
 1220SOL    HW1 7702   1.747   6.422   8.789  1.5168  0.6974 -0.7104
 1220SOL    HW2 7703   1.717   6.422   8.937  0.2201  0.7264 -0.9582
 1221SOL     OW 7704   1.319   8.290   1.930 -0.4949 -0.2819 -0.6219
 1221SOL    HW1 7705   1.260   8.338   1.873 -1.5231 -0.9578 -0.1500
 1221SOL    HW2 7706   1.383   8.250   1.870 -0.4608  0.5119 -1.1266
 1222SOL     OW 7707   7.245   5.418   2.787 -0.3946  0.2808  0.1693
 1222SOL    HW1 7708   7.277   5.366   2.714  0.5807 -0.2398  0.9456
 1222SOL    HW2 7709   7.151   5.400   2.790 -0.4212  0.2252 -0.8746
 1223SOL     OW 7710   9.993   5.472   2.521  0.1374  0.4377 -0.4914
 1223SOL    HW1 7711   9.912   5.436   2.555  0.0909  1.6634  0.7975
 1223SOL    HW2 7712   9.974   5.565   2.506  1.1233  0.6092 -0.7766
 1224SOL     OW 7713   7.119   1.038   4.295  0.8128  0.0121  0.7920
 1224SOL    HW1 7714   7.169   0.976   4.348 -0.4007 -2.1494 -0.4465
 1224SOL    HW2 7715   7.030   1.035   4.331  0.1846 -0.8160 -0.7174
 1225SOL     OW 7716   1.631   6.246   4.713 -0.1139  0.0922 -0.4041
 1225SOL    HW1 7717   1.560   6.231   4.651 -1.1127 -0.4738  0.8223
 1225SOL    HW2 7718   1.665   6.159   4.733 -1.6189 -0.0618  1.8347
 1226SOL     OW 7719   2.118   6.854   0.776 -0.2286  0.4624 -0.4488
 1226SOL    HW1 7720   2.131   6.816   0.863 -2.6324  1.7470  0.5762
 1226SOL    HW2 7721   2.201   6.899   0.757  0.4607 -0.1041  1.0207
 1227SOL     OW 7722  10.064   1.140   6.223  0.1435  0.4542  0.4769
 1227SOL    HW1 7723  10.102   1.197   6.157 -0.0503 -0.6486 -0.6342
 1227SOL    HW2 7724  10.139   1.102   6.268  0.2721  1.7063  1.3749
 1228SOL     OW 7725   5.464   2.730   1.735 -0.2251 -0.1736  0.6629
 1228SOL    HW1 7726   5.502   2.649   1.769 -0.1570 -0.2702  0.3600
 1228SOL    HW2 7727   5.394   2.752   1.797 -0.6241 -0.7697  0.4304
 1229SOL     OW 7728   2.658   4.347   5.673 -0.3926  0.1727 -0.1656
 1229SOL    HW1 7729   2.690   4.257   5.667 -0.2863  0.2949 -2.0685
 1229SOL    HW2 7730   2.570   4.343   5.636 -0.1485  0.9442 -0.8444
 1230SOL     OW 7731   1.831   1.102   7.046  0.3104 -0.2306  0.3412
 1230SOL    HW1 7732   1.834   1.181   6.992  0.1249 -0.5111 -0.0857
 1230SOL    HW2 7733   1.814   1.031   6.983 -1.1878 -0.4103  0.9094
 1231SOL     OW 7734   6.357   5.467   6.367 -0.4303  0.4581  0.2590
 1231SOL    HW1 7735   6.431   5.501   6.416 -0.9888  1.3873  0.4685
 1231SOL    HW2 7736   6.358   5.517   6.285 -0.0966 -0.3909 -0.2733
 1232SOL     OW 7737   9.026   9.267   7.038 -0.4999  0.0398 -0.0414
 1232SOL    HW1 7738   9.005   9.231   6.952 -0.5884 -0.1697  0.0673
 1232SOL    HW2 7739   8.943   9.302   7.070 -0.3319  0.7014 -0.3151
 1233SOL     OW 7740   6.515   0.038   9.749  0.0426 -0.4132  0.2905
 1233SOL    HW1 7741   6.535   0.043   9.842 -0.3537  1.8504  0.3053
 1233SOL    HW2 7742   6.594   0.002   9.709  0.6810 -0.2620  1.3693
 1234SOL     OW 7743   4.089   9.862   4.747 -0.0240  0.0862 -0.4483
 1234SOL    HW1 7744   4.072   9.956   4.737 -0.2237 -0.0179 -1.1011
 1234SOL    HW2 7745   4.043   9.838   4.828 -0.1805  0.4974 -0.4131
 1235SOL     OW 7746   4.621   6.154   0.598  0.6924  0.4813  0.0596
 1235SOL    HW1 7747   4.584   6.146   0.686 -0.1631 -1.9048 -0.4616
 1235SOL    HW2 7748   4.546   6.155   0.539  1.3041 -0.3045 -0.7775
 1236SOL     OW 7749   6.216   6.859   4.301  0.2831  0.5314  0.4616
 1236SOL    HW1 7750   6.301   6.816   4.316 -0.2089 -0.8180 -0.4308
 1236SOL    HW2 7751   6.237   6.952   4.300  1.8045  0.2260  0.0586
 1237SOL     OW 7752   0.061   4.601   3.774 -0.5581  0.0602 -0.4022
 1237SOL    HW1 7753   0.039   4.694   3.770 -1.5522 -0.1867 -1.1477
 1237SOL    HW2 7754   0.033   4.566   3.689  2.1229 -0.4523 -1.1884
 1238SOL     OW 7755  10.035   4.297   7.171  0.1138  0.3701 -0.9555
 1238SOL    HW1 7756   9.942   4.292   7.150 -0.4665  0.8270  1.2837
 1238SOL    HW2 7757  10.048   4.386   7.204  1.2734  0.2208 -0.9597
 1239SOL     OW 7758   7.654   7.906   7.826 -0.1834 -0.2349  0.4180
 1239SOL    HW1 7759   7.707   7.980   7.854  1.8058 -2.4013  3.0493
 1239SOL    HW2 7760   7.617   7.871   7.907  0.1444 -2.8847 -0.4682
 1240SOL     OW 7761   1.823   1.447   0.704 -0.1976  0.0548  0.4173
 1240SOL    HW1 7762   1.914   1.464   0.679 -0.7571  1.4153 -0.8741
 1240SOL    HW2 7763   1.822   1.457   0.799  1.1315 -0.7274  0.5390
 1241SOL     OW 7764   8.983   0.745   7.282 -0.0920 -0.2702  0.2790
 1241SOL    HW1 7765   9.025   0.659   7.285  0.7375  0.1341  0.2630
 1241SOL    HW2 7766   9.040   0.802   7.332 -0.4177  0.3769 -0.0757
 1242SOL     OW 7767   6.915   3.778   2.667  0.3259 -0.0870  0.4505
 1242SOL    HW1 7768   6.981   3.847   2.662 -0.4955  0.7405  0.7953
 1242SOL    HW2 7769   6.950   3.707   2.612  0.9963  0.7569 -0.2327
 1243SOL     OW 7770   3.682   9.702   7.757  0.1038  0.1951  0.2713
 1243SOL    HW1 7771   3.677   9.783   7.807  1.3765 -0.6987  1.9384
 1243SOL    HW2 7772   3.604   9.704   7.701  0.0385  2.4840  0.3388
 1244SOL     OW 7773   5.499   7.462   1.379  0.0733  0.2308  0.2245
 1244SOL    HW1 7774   5.423   7.410   1.408 -0.2427  0.6191  0.0976
 1244SOL    HW2 7775   5.557   7.398   1.338 -0.5729  0.0629 -0.4437
 1245SOL     OW 7776   0.062   1.514   1.722  0.2277 -0.3424 -0.0419
 1245SOL    HW1 7777   0.015   1.594   1.701  1.3726  0.4355  0.2666
 1245SOL    HW2 7778   0.018   1.446   1.671 -0.2099  0.6332 -1.0039
 1246SOL     OW 7779   1.547   5.713   9.125  0.7555 -0.1472 -0.2679
 1246SOL    HW1 7780   1.497   5.671   9.196  0.7423 -1.0083 -0.7797
 1246SOL    HW2 7781   1.557   5.804   9.154  0.7561 -0.4860  0.8449
 1247SOL     OW 7782   8.088   8.340   1.114  0.5472  0.2420  0.2204
 1247SOL    HW1 7783   8.092   8.415   1.174  2.1333 -0.6426  1.3193
 1247SOL    HW2 7784   8.166   8.350   1.059 -0.3213  0.4617 -0.9935
 1248SOL     OW 7785   1.089   2.437   8.890  0.1253  0.0230  0.0924
 1248SOL    HW1 7786   1.173   2.401   8.864  0.8645 -0.4953  2.8525
 1248SOL    HW2 7787   1.061   2.382   8.963 -3.2276 -0.5454 -1.4456
 1249SOL     OW 7788   4.798   7.532   9.257  0.1522 -0.5353  0.1054
 1249SOL    HW1 7789   4.855   7.505   9.185  0.5204  2.2726 -0.7531
 1249SOL    HW2 7790   4.716   7.558   9.215 -0.5544 -1.2629  0.9869
 1250SOL     OW 7791   7.180   3.969   4.791 -0.5699  0.6650 -0.1671
 1250SOL    HW1 7792   7.136   3.924   4.863  0.5487 -0.8076 -0.3502
 1250SOL    HW2 7793   7.272   3.972   4.817  0.0189 -0.6909 -1.8491
 1251SOL     OW 7794   8.911   8.326   4.110  0.5374 -0.4900  0.3752
 1251SOL    HW1 7795   8.930   8.364   4.195 -0.4688 -0.5034  0.6186
 1251SOL    HW2 7796   8.849   8.255   4.128 -0.2439 -0.0346 -0.4236
 1252SOL     OW 7797   8.224   5.606   5.117 -0.6068 -0.0767 -0.0295
 1252SOL    HW1 7798   8.243   5.653   5.198  0.1409  1.7199 -1.1977
 1252SOL    HW2 7799   8.288   5.534   5.116 -0.2468  0.2254  0.6947
 1253SOL     OW 7800   5.299   1.291   9.735 -0.2136  0.4602  0.1658
 1253SOL    HW1 7801   5.382   1.244   9.726 -0.9568 -0.6651 -1.1504
 1253SOL    HW2 7802   5.234   1.222   9.744 -0.9996  1.3408  1.3639
 1254SOL     OW 7803   2.217   3.986   5.903 -0.8012  0.1360 -0.0135
 1254SOL    HW1 7804   2.130   3.951   5.883 -0.0168 -2.7810  1.1299
 1254SOL    HW2 7805   2.215   4.000   5.998 -0.4669  1.4735 -0.1908
 1255SOL     OW 7806   9.349   6.035   5.708 -0.1237  0.2525 -0.8285
 1255SOL    HW1 7807   9.375   6.125   5.728 -1.5996  0.6897 -0.7417
 1255SOL    HW2 7808   9.311   6.002   5.789  0.0373 -0.3034 -0.9790
 1256SOL     OW 7809   4.531   6.442   4.654  0.3372  0.0392  0.0425
 1256SOL    HW1 7810   4.493   6.523   4.619  1.3057  1.8774  2.8783
 1256SOL    HW2 7811   4.626   6.456   4.650  0.5996 -1.7350 -0.9706
 1257SOL     OW 7812   4.591   8.641   3.508  0.2335  0.7469  0.1716
 1257SOL    HW1 7813   4.594   8.580   3.435  0.5849 -0.2339  0.9867
 1257SOL    HW2 7814   4.511   8.618   3.555 -0.2875  1.7356 -0.1838
 1258SOL     OW 7815   8.822   8.767   7.072  0.1518 -0.7315  0.4899
 1258SOL    HW1 7816   8.859   8.793   6.988 -0.0478 -1.4936  0.1590
 1258SOL    HW2 7817   8.892   8.782   7.135 -0.3028  1.6740  0.5176
 1259SOL     OW 7818   4.781   4.314   7.673  0.1439 -0.1894  0.2870
 1259SOL    HW1 7819   4.724   4.237   7.683  0.8244 -0.8652 -0.7998
 1259SOL    HW2 7820   4.721   4.385   7.651 -0.2912 -0.9304 -1.0127
 1260SOL     OW 7821   9.907   9.355   9.434  0.5444 -1.2655 -0.0877
 1260SOL    HW1 7822   9.937   9.445   9.422  1.0085 -1.3448  0.4116
 1260SOL    HW2 7823   9.815   9.357   9.409  0.6744 -0.7595 -0.5490
 1261SOL     OW 7824   8.417   9.703   6.839 -0.3037 -0.3028 -0.2199
 1261SOL    HW1 7825   8.501   9.748   6.845 -0.2914 -0.2198 -0.8874
 1261SOL    HW2 7826   8.401   9.668   6.927  1.1306 -1.5754 -0.4346
 1262SOL     OW 7827   1.227   8.728   6.824 -0.1080 -0.3480  0.0967
 1262SOL    HW1 7828   1.296   8.732   6.891 -0.0881  0.4702  0.0353
 1262SOL    HW2 7829   1.235   8.640   6.787 -1.5526 -1.6914  2.6989
 1263SOL     OW 7830   8.433   6.386   6.111 -0.4357 -0.1675  0.0203
 1263SOL    HW1 7831   8.438   6.399   6.016 -0.0502  1.9818  0.2726
 1263SOL    HW2 7832   8.430   6.291   6.122  0.8456 -0.5201 -2.0668
 1264SOL     OW 7833   4.542   2.743   7.026 -0.2470  0.2211 -0.0557
 1264SOL    HW1 7834   4.503   2.823   7.062 -1.4484  0.6910 -2.2259
 1264SOL    HW2 7835   4.581   2.770   6.943  2.1998 -0.8595  0.6562
 1265SOL     OW 7836   2.370   5.368   4.758  0.1879  0.0084 -0.3984
 1265SOL    HW1 7837   2.415   5.287   4.736  1.9910  0.6252  0.7679
 1265SOL    HW2 7838   2.332   5.352   4.844 -1.2427 -0.2557 -1.0555
 1266SOL     OW 7839  10.168   4.337   2.698 -0.0902  0.1519  0.0031
 1266SOL    HW1 7840  10.230   4.389   2.648  0.5228 -0.8070 -0.2556
 1266SOL    HW2 7841  10.191   4.353   2.790  0.0918  0.3269 -0.0737
 1267SOL     OW 7842  10.152   2.652   7.409  0.1073 -0.2092 -0.2279
 1267SOL    HW1 7843  10.205   2.723   7.371 -0.3707  0.6627  0.6948
 1267SOL    HW2 7844  10.125   2.686   7.494 -1.5545 -0.8336 -0.4802
 1268SOL     OW 7845   8.894   0.122  10.262 -0.4600  0.4823 -0.1459
 1268SOL    HW1 7846   8.844   0.044  10.238 -1.5383  1.1969 -0.2903
 1268SOL    HW2 7847   8.875   0.185  10.193 -0.1479  1.1106  0.3265
 1269SOL     OW 7848   4.427   5.894   0.345  0.7845  0.1863 -0.0463
 1269SOL    HW1 7849   4.405   5.820   0.402  4.5182 -1.9776 -1.0572
 1269SOL    HW2 7850   4.417   5.971   0.401  0.0223 -1.4174  2.1581
 1270SOL     OW 7851   5.177   1.496   5.130  0.5791  0.6104  0.3733
 1270SOL    HW1 7852   5.105   1.474   5.189 -0.9241 -0.2748 -1.6579
 1270SOL    HW2 7853   5.170   1.591   5.119  0.1683  0.6254  0.7320
 1271SOL     OW 7854   1.816   9.253   0.338  0.3489 -0.2041 -0.3533
 1271SOL    HW1 7855   1.884   9.293   0.284 -0.3020 -1.8221 -2.4933
 1271SOL    HW2 7856   1.862   9.191   0.393  1.0686  1.7112  1.3426
 1272SOL     OW 7857   4.172   0.340   9.214  0.3231 -0.0449  0.1126
 1272SOL    HW1 7858   4.130   0.276   9.156 -0.0610 -0.0130  0.3518
 1272SOL    HW2 7859   4.246   0.373   9.163  0.1223 -0.1793 -0.2761
 1273SOL     OW 7860   8.935   7.460   1.814 -0.0125  0.0467 -0.0868
 1273SOL    HW1 7861   8.871   7.482   1.746  0.7157 -1.3526 -1.2887
 1273SOL    HW2 7862   9.020   7.480   1.774  0.3846  0.0741  0.7602
 1274SOL     OW 7863   8.969   4.660   3.274 -0.4836 -0.5795  0.3487
 1274SOL    HW1 7864   8.941   4.660   3.183 -1.5030  0.1238  0.6413
 1274SOL    HW2 7865   8.994   4.751   3.291  1.2289 -1.0071  0.3494
 1275SOL     OW 7866   9.726   9.495   6.143  0.5669 -0.5754  0.1859
 1275SOL    HW1 7867   9.799   9.515   6.201  1.1721 -0.0449 -0.7387
 1275SOL    HW2 7868   9.767   9.469   6.061 -0.2571 -2.1494  0.2238
 1276SOL     OW 7869   9.930   1.457   4.361  0.6278 -0.4913  0.5098
 1276SOL    HW1 7870   9.851   1.405   4.347  1.3940 -1.3167 -1.0722
 1276SOL    HW2 7871   9.990   1.397   4.405  0.6317 -0.1056  1.0325
 1277SOL     OW 7872   3.152   4.660   1.943 -0.3030  0.7159  0.6442
 1277SOL    HW1 7873   3.096   4.624   1.875  1.2975  1.3782 -1.0871
 1277SOL    HW2 7874   3.181   4.745   1.910  1.0647  0.7702  1.8302
 1278SOL     OW 7875   9.454   2.452   9.455  0.4230  0.2568  0.4835
 1278SOL    HW1 7876   9.367   2.414   9.444  0.2221  1.0101 -0.7940
 1278SOL    HW2 7877   9.470   2.449   9.549 -1.5354  1.2708  0.9071
 1279SOL     OW 7878   5.939   7.522   1.761 -0.0626  0.1592  0.3981
 1279SOL    HW1 7879   5.964   7.462   1.691  1.5603  1.2696 -0.0109
 1279SOL    HW2 7880   5.929   7.465   1.838  1.5149 -0.6400  0.0489
 1280SOL     OW 7881   9.927   1.236   3.266 -0.6347  0.7351 -0.1237
 1280SOL    HW1 7882   9.982   1.309   3.240 -0.4046  0.9928  1.0309
 1280SOL    HW2 7883   9.935   1.173   3.194  0.9707  0.8665 -0.0940
 1281SOL     OW 7884   1.449   2.940   7.208  0.2673  0.4190  0.0332
 1281SOL    HW1 7885   1.485   2.870   7.263  0.7165  1.7645  1.5294
 1281SOL    HW2 7886   1.522   2.967   7.153  0.7242  1.1074  0.9468
 1282SOL     OW 7887   6.332   4.897   9.478 -0.0799  0.5832 -0.2578
 1282SOL    HW1 7888   6.276   4.968   9.510 -0.8990 -0.8106  1.5866
 1282SOL    HW2 7889   6.421   4.928   9.495 -0.4478  0.5715  2.1222
 1283SOL     OW 7890   1.014   9.618   1.258  0.1796 -0.5534 -0.2468
 1283SOL    HW1 7891   0.958   9.696   1.249 -0.2820 -0.8944 -0.3884
 1283SOL    HW2 7892   0.991   9.581   1.343  1.1118  0.0056  0.2632
 1284SOL     OW 7893   3.759   8.950   3.408 -0.3694  0.3545 -0.5188
 1284SOL    HW1 7894   3.771   9.028   3.461  0.2092  0.3473 -0.6359
 1284SOL    HW2 7895   3.780   8.877   3.467  0.2292  0.3445 -0.7375
 1285SOL     OW 7896   8.581   8.037   0.610 -0.0227  0.1272 -0.1388
 1285SOL    HW1 7897   8.631   8.081   0.542  0.0860 -0.1862 -0.2603
 1285SOL    HW2 7898   8.629   7.956   0.627 -0.8044 -0.4633 -0.6820
 1286SOL     OW 7899   6.785   4.459   0.506  0.0634  0.8602 -0.4257
 1286SOL    HW1 7900   6.703   4.432   0.464  0.2773 -1.3985  0.4910
 1286SOL    HW2 7901   6.795   4.551   0.481 -1.7393  0.6590 -2.1590
 1287SOL     OW 7902   6.007   7.204   0.670 -0.3153  0.5151 -0.1510
 1287SOL    HW1 7903   5.936   7.256   0.632 -0.2278  0.5557 -0.2600
 1287SOL    HW2 7904   5.964   7.124   0.701 -0.7468  1.3340  1.5107
 1288SOL     OW 7905   5.242   2.464   8.225  0.0965  0.0792 -0.0523
 1288SOL    HW1 7906   5.252   2.375   8.259  2.5508  0.7281  1.1625
 1288SOL    HW2 7907   5.223   2.516   8.303  0.1840  0.8351 -0.5333
 1289SOL     OW 7908   0.433   4.844   2.409  0.2142  0.2301  0.2125
 1289SOL    HW1 7909   0.411   4.896   2.332 -1.1567  0.6774  0.8747
 1289SOL    HW2 7910   0.411   4.754   2.385 -1.7567  0.5700  0.5991
 1290SOL     OW 7911   4.492   6.460   8.418 -0.3089 -0.3267 -0.3466
 1290SOL    HW1 7912   4.488   6.494   8.329 -0.8730 -2.3339 -1.1372
 1290SOL    HW2 7913   4.555   6.388   8.413 -0.1669 -0.3144  0.9418
 1291SOL     OW 7914   4.656   4.099   9.916 -0.3124  0.5156 -0.6276
 1291SOL    HW1 7915   4.705   4.170   9.874  1.1290 -0.7179 -1.1222
 1291SOL    HW2 7916   4.655   4.029   9.851  0.8376 -0.9702  0.8556
 1292SOL     OW 7917   4.995  10.263   4.007 -0.0386 -0.1279 -0.4529
 1292SOL    HW1 7918   4.924  10.258   4.070 -0.2510 -0.4565 -0.7160
 1292SOL    HW2 7919   5.064  10.312   4.052  0.1412 -1.0833  0.3336
 1293SOL     OW 7920   3.646   7.838   1.846  0.2963 -0.6994  0.5206
 1293SOL    HW1 7921   3.721   7.844   1.905  0.0017 -0.0851  0.8440
 1293SOL    HW2 7922   3.602   7.923   1.854 -0.4617 -1.0653  0.3818
 1294SOL     OW 7923   9.712   5.291   5.017  0.6200  0.2303  0.0146
 1294SOL    HW1 7924   9.698   5.348   4.942 -0.9201 -0.0435  0.0480
 1294SOL    HW2 7925   9.693   5.345   5.093 -0.6047 -0.2105  0.0560
 1295SOL     OW 7926   6.315   6.240   9.091 -0.0028 -0.1730  0.0307
 1295SOL    HW1 7927   6.264   6.191   9.156 -0.3632  0.6316  0.3671
 1295SOL    HW2 7928   6.257   6.310   9.062  0.7370  0.4662  0.0535
 1296SOL     OW 7929   4.084   1.513   0.125 -0.0861 -0.0872 -0.1174
 1296SOL    HW1 7930   4.088   1.426   0.087 -1.9338  0.5702 -2.0126
 1296SOL    HW2 7931   4.153   1.562   0.080  0.7429 -0.4506  0.7220
 1297SOL     OW 7932   7.726   3.034   3.731  0.3635  0.3327  0.0605
 1297SOL    HW1 7933   7.783   3.102   3.697  1.4557 -0.5770  0.0073
 1297SOL    HW2 7934   7.653   3.081   3.772 -0.0445  1.4835 -1.8775
 1298SOL     OW 7935   3.096   2.084   3.924 -0.1851 -0.1119 -0.4436
 1298SOL    HW1 7936   3.090   2.070   4.018  0.9547 -0.2809 -0.3731
 1298SOL    HW2 7937   3.135   2.003   3.891 -2.7250 -1.0213 -1.3976
 1299SOL     OW 7938   0.633   2.112   0.883  1.0962  0.2419  0.2485
 1299SOL    HW1 7939   0.705   2.176   0.886  1.0956  0.2216  1.0636
 1299SOL    HW2 7940   0.657   2.047   0.949  0.6910 -0.1627 -0.0010
 1300SOL     OW 7941   0.456   9.592   0.903  0.1646  0.0845 -0.0361
 1300SOL    HW1 7942   0.530   9.606   0.963  1.0071  1.2769 -1.3019
 1300SOL    HW2 7943   0.497   9.558   0.823 -1.0600 -2.7155  0.4046
 1301SOL     OW 7944   8.496   3.869   0.942 -0.3001  0.2159 -0.1193
 1301SOL    HW1 7945   8.474   3.944   0.887 -0.3972  0.5193  0.3282
 1301SOL    HW2 7946   8.427   3.866   1.008 -1.2028 -1.2467 -1.0752
 1302SOL     OW 7947   4.010   5.156   0.552  0.3748  0.4303  0.0383
 1302SOL    HW1 7948   3.938   5.161   0.490 -0.0998 -3.4034  0.0005
 1302SOL    HW2 7949   3.967   5.143   0.637  0.9743 -0.1605  0.2650
 1303SOL     OW 7950   3.708  10.259   1.820 -0.0446 -0.7036 -0.8831
 1303SOL    HW1 7951   3.674  10.265   1.730  0.3261 -0.5560 -1.0145
 1303SOL    HW2 7952   3.635  10.289   1.875 -1.0639 -2.8653 -0.9610
 1304SOL     OW 7953   1.661   3.240   7.200  0.2709 -0.5164 -0.1976
 1304SOL    HW1 7954   1.656   3.201   7.112  0.6056  1.8373 -1.3500
 1304SOL    HW2 7955   1.578   3.287   7.210  0.8291  0.4195  0.1330
 1305SOL     OW 7956   7.505   5.982   4.158  0.5510 -0.4545 -0.6728
 1305SOL    HW1 7957   7.456   6.062   4.177  0.9312 -0.2750 -0.4328
 1305SOL    HW2 7958   7.480   5.960   4.068  0.2519 -0.2092 -0.6533
 1306SOL     OW 7959   0.519   6.979   7.634  0.4141  0.3211  0.2707
 1306SOL    HW1 7960   0.592   6.920   7.619  1.8660  1.4793  2.2634
 1306SOL    HW2 7961   0.520   6.995   7.728 -1.3332  1.7371  0.1082
 1307SOL     OW 7962   3.854   9.486   6.702  0.7834  0.1932 -0.5818
 1307SOL    HW1 7963   3.793   9.540   6.652  0.4599 -0.1935 -0.6065
 1307SOL    HW2 7964   3.864   9.532   6.785  1.9788  1.2860 -1.3043
 1308SOL     OW 7965   2.019   6.317   7.764  0.2944  0.1214  0.9124
 1308SOL    HW1 7966   1.985   6.379   7.828 -0.7638 -1.1171  1.6106
 1308SOL    HW2 7967   2.053   6.371   7.693 -1.2293  1.4901  1.1658
 1309SOL     OW 7968   1.838   8.850   0.631  0.3805 -0.4250  0.5592
 1309SOL    HW1 7969   1.822   8.877   0.722  2.8445 -0.5301  1.0891
 1309SOL    HW2 7970   1.870   8.760   0.639  1.8799  0.0019 -0.2563
 1310SOL     OW 7971   2.891   3.604   7.830 -0.0125  0.1011 -1.0076
 1310SOL    HW1 7972   2.817   3.552   7.799  0.5651 -0.7234 -1.0509
 1310SOL    HW2 7973   2.943   3.621   7.751  0.5615 -0.5235 -0.7722
 1311SOL     OW 7974   1.275   0.581   8.920 -0.2081  0.5780 -0.0362
 1311SOL    HW1 7975   1.293   0.487   8.927 -1.4079  0.3656  0.5077
 1311SOL    HW2 7976   1.180   0.586   8.915 -0.1587  1.7752  0.1026
 1312SOL     OW 7977   4.268   3.160   6.595  0.3363 -0.2980  0.4288
 1312SOL    HW1 7978   4.196   3.131   6.539 -0.9717  1.6055  1.0231
 1312SOL    HW2 7979   4.318   3.221   6.541 -0.6096  1.1189  1.0877
 1313SOL     OW 7980  10.133   7.899  10.140  0.0596  0.0726  0.7276
 1313SOL    HW1 7981  10.199   7.869  10.203  0.5645 -0.7123 -0.1539
 1313SOL    HW2 7982  10.170   7.979  10.102 -0.2623  0.5698  1.4284
 1314SOL     OW 7983   4.385   8.318   7.878  0.0829  0.1810 -0.1252
 1314SOL    HW1 7984   4.303   8.327   7.926 -0.1655  0.6624 -0.6350
 1314SOL    HW2 7985   4.359   8.287   7.791  0.5300 -0.6788  0.0350
 1315SOL     OW 7986   4.302   8.944   4.741  0.5231 -0.0358  0.2596
 1315SOL    HW1 7987   4.255   8.958   4.658  2.7462 -1.0954 -1.2987
 1315SOL    HW2 7988   4.386   8.990   4.728  1.0704 -0.5521  1.7957
 1316SOL     OW 7989   9.150   2.425   8.552  0.1272  0.2247  0.1360
 1316SOL    HW1 7990   9.089   2.359   8.584  1.7085 -1.3846 -0.0248
 1316SOL    HW2 7991   9.168   2.400   8.461  0.4074  1.1618 -0.0841
 1317SOL     OW 7992   9.728   7.624   6.698 -0.0033  0.2359 -0.3392
 1317SOL    HW1 7993   9.812   7.669   6.713 -0.3998  0.4498  1.3693
 1317SOL    HW2 7994   9.678   7.638   6.778 -1.0309 -1.3392 -0.6591
 1318SOL     OW 7995   6.834   7.912   6.707 -0.2616 -0.3627 -0.0018
 1318SOL    HW1 7996   6.898   7.979   6.732  0.8973 -0.9106 -1.4083
 1318SOL    HW2 7997   6.787   7.951   6.634 -0.3071 -0.6710 -0.1354
 1319SOL     OW 7998   3.566   7.997   5.233  0.0107  0.2430  0.3193
 1319SOL    HW1 7999   3.551   7.906   5.208 -0.2456  0.6806 -1.2218
 1319SOL    HW2 8000   3.488   8.044   5.201  0.4823  1.1158  0.4141
 1320SOL     OW 8001   5.298   2.015   4.774  0.1268  0.2654  0.1426
 1320SOL    HW1 8002   5.282   2.022   4.868 -0.9140  0.1360 -0.0149
 1320SOL    HW2 8003   5.211   2.025   4.734  0.4759 -0.2850 -0.7758
 1321SOL     OW 8004   0.843   6.800   4.236 -0.4537 -0.3398  0.1592
 1321SOL    HW1 8005   0.817   6.775   4.147  0.0082  0.6424 -0.2733
 1321SOL    HW2 8006   0.777   6.761   4.292  0.3143 -2.6201 -0.4342
 1322SOL     OW 8007   0.854   9.970   7.210 -0.7693  0.1339  0.1126
 1322SOL    HW1 8008   0.844   9.993   7.118  2.8244  1.0956 -0.2205
 1322SOL    HW2 8009   0.925  10.027   7.241  0.9741 -2.8951  2.3023
 1323SOL     OW 8010   6.557   1.963  10.167 -0.3577  0.2885  0.6066
 1323SOL    HW1 8011   6.625   1.997  10.225 -0.8811  1.4909  0.5414
 1323SOL    HW2 8012   6.501   2.039  10.148  0.1228  0.0771 -1.9374
 1324SOL     OW 8013   9.870   1.275   6.362 -0.0039 -0.1002  0.0890
 1324SOL    HW1 8014   9.945   1.248   6.309 -0.5775 -0.5935 -0.4962
 1324SOL    HW2 8015   9.897   1.357   6.403  0.3216  0.4967 -1.2806
 1325SOL     OW 8016   1.898   1.090   1.165  0.2734 -0.2103  0.0645
 1325SOL    HW1 8017   1.942   1.015   1.124  1.4208  0.5830 -0.2088
 1325SOL    HW2 8018   1.914   1.080   1.259  0.5972 -0.2087  0.0104
 1326SOL     OW 8019   8.443   4.419   2.135  0.3958 -0.1803  0.3314
 1326SOL    HW1 8020   8.408   4.375   2.212 -0.5339 -3.1035 -1.6194
 1326SOL    HW2 8021   8.368   4.463   2.096  0.4803 -0.2225  0.1202
 1327SOL     OW 8022   4.719   0.543   9.929  0.4021 -0.1677 -0.1228
 1327SOL    HW1 8023   4.759   0.586  10.004 -0.0193 -0.9531  0.5774
 1327SOL    HW2 8024   4.627   0.530   9.955  0.2974 -0.6226 -0.6913
 1328SOL     OW 8025   5.163   5.680   6.595 -0.1102 -0.1404 -0.1394
 1328SOL    HW1 8026   5.165   5.746   6.525 -0.8457 -0.6358 -0.6509
 1328SOL    HW2 8027   5.074   5.684   6.629  0.7125  1.3330  2.0297
 1329SOL     OW 8028   7.297   2.354   5.322  0.1814  0.5582 -0.1983
 1329SOL    HW1 8029   7.245   2.274   5.322 -1.3417  1.4413  1.6694
 1329SOL    HW2 8030   7.376   2.332   5.371 -1.4078  0.7558  2.6857
 1330SOL     OW 8031   3.227   8.032   6.054 -0.6262  0.3366  0.2435
 1330SOL    HW1 8032   3.321   8.018   6.043 -0.7792  0.1437 -1.1021
 1330SOL    HW2 8033   3.187   7.956   6.011 -1.4119  2.0835 -2.3324
 1331SOL     OW 8034   2.251   4.904   8.697  0.3310 -0.0144  0.7520
 1331SOL    HW1 8035   2.182   4.970   8.697  1.3323  1.0896  2.0326
 1331SOL    HW2 8036   2.262   4.880   8.605 -0.2492  1.4097  0.2830
 1332SOL     OW 8037   6.535   4.267   9.431 -0.5395  0.1960 -0.4743
 1332SOL    HW1 8038   6.542   4.282   9.525 -1.4420  0.0827 -0.3794
 1332SOL    HW2 8039   6.561   4.176   9.419  2.4723  0.9713 -0.7364
 1333SOL     OW 8040   6.395   9.709   5.616 -0.2225 -0.1667  0.4686
 1333SOL    HW1 8041   6.321   9.725   5.675 -1.2051 -0.5977 -0.6211
 1333SOL    HW2 8042   6.363   9.733   5.530 -0.0909 -3.1210 -0.5016
 1334SOL     OW 8043   1.027   0.158   7.745 -0.2601  0.1871 -0.2761
 1334SOL    HW1 8044   1.123   0.163   7.743 -0.2424 -0.3625 -1.0822
 1334SOL    HW2 8045   1.007   0.065   7.740 -0.8568  0.3731 -1.6258
 1335SOL     OW 8046   2.800   7.719   2.350 -0.3147 -0.2673  0.7261
 1335SOL    HW1 8047   2.861   7.772   2.298 -0.2944  0.4954  1.5179
 1335SOL    HW2 8048   2.791   7.766   2.432 -1.2619 -0.8643  0.9754
 1336SOL     OW 8049   3.101   6.548   1.124 -0.2075  0.3254  0.1479
 1336SOL    HW1 8050   3.165   6.545   1.194  0.3703 -1.6820 -0.3933
 1336SOL    HW2 8051   3.121   6.628   1.076  2.1735 -0.4226 -0.2311
 1337SOL     OW 8052   6.754   3.832   8.195 -0.4288  0.1885 -0.4378
 1337SOL    HW1 8053   6.768   3.910   8.249 -0.5308 -0.2644  0.2516
 1337SOL    HW2 8054   6.719   3.866   8.113  2.4870  1.1718 -1.4055
 1338SOL     OW 8055   4.809   0.788   0.906 -0.6581 -0.4576  0.2868
 1338SOL    HW1 8056   4.781   0.732   0.834 -0.1266  0.9543 -1.0658
 1338SOL    HW2 8057   4.730   0.802   0.958 -0.8341 -2.2871  0.5816
 1339SOL     OW 8058   5.235   9.385   4.602  0.3377 -0.3321 -0.3463
 1339SOL    HW1 8059   5.316   9.437   4.610 -0.8882  1.6829 -0.3538
 1339SOL    HW2 8060   5.194   9.416   4.522 -1.1231 -0.2741  0.3842
 1340SOL     OW 8061  10.119   5.171   0.912 -0.2594 -0.0329 -0.1930
 1340SOL    HW1 8062  10.025   5.191   0.918 -0.1836  0.3456 -0.2491
 1340SOL    HW2 8063  10.159   5.253   0.886  0.2029  0.0354  0.7052
 1341SOL     OW 8064   7.012   5.568   1.715  0.0968  0.2014 -0.0380
 1341SOL    HW1 8065   7.065   5.646   1.731 -0.4668  0.6073 -0.1073
 1341SOL    HW2 8066   6.973   5.548   1.800 -0.7364  0.7374 -0.2812
 1342SOL     OW 8067   1.301  10.155   1.121 -0.1663  0.1770  0.0664
 1342SOL    HW1 8068   1.255  10.111   1.050  0.4220 -0.1308 -0.1284
 1342SOL    HW2 8069   1.231  10.193   1.175 -0.6268  0.1153 -0.4797
 1343SOL     OW 8070  10.174   8.260   8.001  0.5498 -0.1241  0.0803
 1343SOL    HW1 8071  10.228   8.269   8.080  1.9669  0.4514 -0.9177
 1343SOL    HW2 8072  10.212   8.322   7.939 -1.8708  1.0250 -0.3812
 1344SOL     OW 8073   0.345   6.537   4.576  0.5270 -0.1366 -0.1956
 1344SOL    HW1 8074   0.281   6.467   4.594 -0.7644  1.0418  0.0094
 1344SOL    HW2 8075   0.299   6.594   4.514  0.4503  1.9732  1.7055
 1345SOL     OW 8076   3.997   5.927   7.685 -0.0036  0.6981  0.0175
 1345SOL    HW1 8077   3.902   5.916   7.696 -0.1661 -0.3858 -1.9638
 1345SOL    HW2 8078   4.018   5.872   7.610  2.2786  0.6410  0.6437
 1346SOL     OW 8079   4.255   9.324   6.693  0.3237 -0.2658 -0.3338
 1346SOL    HW1 8080   4.321   9.373   6.742  1.0158 -1.0371 -0.4617
 1346SOL    HW2 8081   4.227   9.383   6.623 -1.2059  1.1297  1.3536
 1347SOL     OW 8082   0.595   3.194   5.983 -0.1891  0.2979 -0.1292
 1347SOL    HW1 8083   0.531   3.238   6.038  1.5965  2.5111  0.3283
 1347SOL    HW2 8084   0.669   3.255   5.978  0.8309 -0.9754 -2.7825
 1348SOL     OW 8085   8.297   4.332   8.868 -0.4675 -0.5830  0.7030
 1348SOL    HW1 8086   8.320   4.348   8.960 -1.9277  1.8948  0.7179
 1348SOL    HW2 8087   8.207   4.299   8.871 -1.2597  1.4289  0.1171
 1349SOL     OW 8088   1.473   8.440   2.080 -0.1880  0.4794 -0.2378
 1349SOL    HW1 8089   1.400   8.391   2.042 -2.0357 -0.8330  4.2427
 1349SOL    HW2 8090   1.432   8.510   2.130  1.7159  0.7618  1.0670
 1350SOL     OW 8091   6.768   2.727   9.341 -0.2428 -0.2154  0.2656
 1350SOL    HW1 8092   6.840   2.667   9.320  0.7527  1.9010 -3.1797
 1350SOL    HW2 8093   6.806   2.793   9.398  0.4524  0.5490 -1.0418
 1351SOL     OW 8094   8.969   7.216   1.953  0.1697 -0.0101 -0.0644
 1351SOL    HW1 8095   8.922   7.297   1.935  0.6438  1.4103  3.9781
 1351SOL    HW2 8096   9.062   7.240   1.948  0.3163  0.0402  1.9006
 1352SOL     OW 8097   6.471   6.588   4.983 -0.5054  0.5983 -0.1443
 1352SOL    HW1 8098   6.387   6.541   4.988 -0.3198 -0.1058 -2.7444
 1352SOL    HW2 8099   6.526   6.534   4.928  2.5709 -0.0966  3.2339
 1353SOL     OW 8100   9.891   5.739   0.803  0.3278 -0.2069  0.3069
 1353SOL    HW1 8101   9.874   5.723   0.896  1.6084 -3.2191  0.1454
 1353SOL    HW2 8102   9.986   5.731   0.794  0.3847  1.4570 -1.0791
 1354SOL     OW 8103   2.033   3.443   3.210 -0.0932  0.2086  0.4451
 1354SOL    HW1 8104   2.073   3.371   3.160  1.0432  0.6835  0.6353
 1354SOL    HW2 8105   1.946   3.453   3.173  0.4765  0.0867 -0.9801
 1355SOL     OW 8106   5.864   0.683   8.773 -0.4790 -0.5876 -0.3914
 1355SOL    HW1 8107   5.839   0.615   8.709 -1.5577  0.7076 -1.3991
 1355SOL    HW2 8108   5.780   0.720   8.801  0.1317  1.8158 -1.5373
 1356SOL     OW 8109   4.141   8.618   8.071  0.3467  0.3996  0.1805
 1356SOL    HW1 8110   4.165   8.530   8.100 -0.4350  0.4764  1.1161
 1356SOL    HW2 8111   4.047   8.614   8.055  0.5192  0.7449 -1.0221
 1357SOL     OW 8112   2.462   4.687   2.993 -0.0637  0.1149  0.0584
 1357SOL    HW1 8113   2.518   4.749   2.946  1.2124 -1.0934 -0.0958
 1357SOL    HW2 8114   2.378   4.691   2.947  0.8245 -0.2498 -1.7328
 1358SOL     OW 8115   4.947  10.014   9.146  0.1197  0.0703 -0.1834
 1358SOL    HW1 8116   5.022   9.955   9.146  0.2171  0.1258 -2.1292
 1358SOL    HW2 8117   4.976  10.090   9.095 -0.3778  1.3289  1.3154
 1359SOL     OW 8118   7.705   1.026   5.572  0.0752  0.0660 -0.1686
 1359SOL    HW1 8119   7.755   0.965   5.627 -0.7154 -0.1813  0.2808
 1359SOL    HW2 8120   7.718   0.993   5.483  0.4457 -0.1836 -0.0273
 1360SOL     OW 8121   6.891   8.906   1.534 -0.5587  0.0258  0.2656
 1360SOL    HW1 8122   6.810   8.930   1.577 -0.7288 -1.5743  0.8960
 1360SOL    HW2 8123   6.870   8.905   1.440 -0.8092  1.2144  0.3005
 1361SOL     OW 8124   9.136   6.975   4.946  0.6390 -0.0650  0.2397
 1361SOL    HW1 8125   9.158   6.926   4.866  0.4003  2.1337 -1.2716
 1361SOL    HW2 8126   9.213   6.967   5.001  3.0150  2.5231 -2.3944
 1362SOL     OW 8127   9.830   6.048   5.356  0.2142 -0.7582 -0.1821
 1362SOL    HW1 8128   9.925   6.050   5.340  0.2083 -0.7391 -0.2119
 1362SOL    HW2 8129   9.816   5.970   5.409  0.2510 -0.7407 -0.1462
 1363SOL     OW 8130   1.001   5.172  10.131 -0.4221 -0.3760  0.2747
 1363SOL    HW1 8131   1.077   5.183  10.074  0.6652  1.0621  1.8951
 1363SOL    HW2 8132   1.002   5.250  10.186 -3.4354 -0.0407 -0.0167
 1364SOL     OW 8133   1.309   6.727   3.102  0.8941 -0.0016 -0.5407
 1364SOL    HW1 8134   1.352   6.707   3.019  1.7461 -0.9530  0.0981
 1364SOL    HW2 8135   1.382   6.738   3.164  0.2557 -1.6512  0.5725
 1365SOL     OW 8136   1.098   0.029   4.506  0.1629  0.4325 -0.3389
 1365SOL    HW1 8137   1.122   0.108   4.554 -1.5590  1.3649 -0.9122
 1365SOL    HW2 8138   1.108  -0.042   4.569 -0.4603  1.4027  0.8853
 1366SOL     OW 8139   6.310   0.756   7.508 -0.5061  0.7697  0.1687
 1366SOL    HW1 8140   6.271   0.829   7.460 -1.1235  0.3364 -0.0064
 1366SOL    HW2 8141   6.379   0.796   7.561 -0.6287  1.4317 -0.1590
 1367SOL     OW 8142  10.129   8.871   9.346  0.2502  0.2888  0.0886
 1367SOL    HW1 8143  10.051   8.923   9.363 -0.5491 -0.4205 -1.2422
 1367SOL    HW2 8144  10.103   8.781   9.368  0.0236 -0.2530 -2.1718
 1368SOL     OW 8145   6.253   5.417   8.549  0.0877  0.0395 -0.1792
 1368SOL    HW1 8146   6.195   5.456   8.483  0.2223  0.2914 -0.1524
 1368SOL    HW2 8147   6.266   5.327   8.520 -0.7948 -0.1914  0.1351
 1369SOL     OW 8148   3.342   0.234   5.066  0.5789  0.3457  0.3552
 1369SOL    HW1 8149   3.327   0.237   5.160  0.4534  1.1916  0.3136
 1369SOL    HW2 8150   3.255   0.225   5.027  0.3970  2.2337  0.2411
 1370SOL     OW 8151   1.145   5.064   2.764 -0.0500 -0.2287  0.2459
 1370SOL    HW1 8152   1.133   5.070   2.670  0.1665 -0.3176  0.2097
 1370SOL    HW2 8153   1.178   5.150   2.790 -0.1486 -0.1911  0.2464
 1371SOL     OW 8154   7.063   3.859   1.351 -0.1953  0.6888  0.3720
 1371SOL    HW1 8155   7.134   3.920   1.371 -0.8308  1.9441 -1.0552
 1371SOL    HW2 8156   6.985   3.901   1.386 -0.2856 -0.7248  2.0101
 1372SOL     OW 8157   4.824   3.385   7.753 -0.1126 -0.1384  0.2082
 1372SOL    HW1 8158   4.757   3.364   7.819 -0.9740  2.4161  0.2391
 1372SOL    HW2 8159   4.780   3.370   7.669 -0.9410  1.9446  0.2237
 1373SOL     OW 8160   4.961   1.323   0.402 -0.0481  0.1921  0.5145
 1373SOL    HW1 8161   4.925   1.235   0.414 -0.6152  0.3794  0.2190
 1373SOL    HW2 8162   4.929   1.350   0.316 -1.9830  1.6582  1.6138
 1374SOL     OW 8163   7.724   1.020   2.185 -0.5954  0.4497  0.5156
 1374SOL    HW1 8164   7.730   1.013   2.090 -0.7202 -0.8150  0.5746
 1374SOL    HW2 8165   7.732   0.929   2.216  0.1581  0.9074  1.7537
 1375SOL     OW 8166   7.891   4.931   9.704  0.4494 -0.3902 -0.7114
 1375SOL    HW1 8167   7.948   5.008   9.712 -3.8508  3.0407  0.8573
 1375SOL    HW2 8168   7.869   4.908   9.795 -0.8311 -1.4162 -1.2535
 1376SOL     OW 8169   3.642   9.061   0.074 -0.0295  0.1968  0.4612
 1376SOL    HW1 8170   3.572   9.036   0.013 -0.4328 -1.2820  1.4704
 1376SOL    HW2 8171   3.710   9.099   0.018 -0.5836 -0.6758 -0.8591
 1377SOL     OW 8172   2.713   2.748   5.116 -0.1118 -0.8277  0.0607
 1377SOL    HW1 8173   2.658   2.720   5.189 -0.5899 -0.3510 -0.1096
 1377SOL    HW2 8174   2.736   2.667   5.071  0.2899 -1.1381  0.8052
 1378SOL     OW 8175   3.255   1.318   7.890  0.5921 -0.0920 -0.5717
 1378SOL    HW1 8176   3.331   1.365   7.856  1.3151 -1.6133 -1.1572
 1378SOL    HW2 8177   3.292   1.248   7.943 -0.4373 -0.3340 -0.1474
 1379SOL     OW 8178   2.386   9.286   3.233 -0.0975 -0.7241  0.0961
 1379SOL    HW1 8179   2.409   9.195   3.219  1.3333 -0.2733 -0.6186
 1379SOL    HW2 8180   2.388   9.326   3.146  2.0261  0.5707  0.6665
 1380SOL     OW 8181   3.504   3.651   5.404  0.0962 -0.5144  0.2792
 1380SOL    HW1 8182   3.435   3.601   5.446 -1.5747  0.1337 -1.5356
 1380SOL    HW2 8183   3.463   3.735   5.381  1.0933 -0.5408 -1.8875
 1381SOL     OW 8184   5.636   6.600   1.852  0.9159 -0.4541 -0.1908
 1381SOL    HW1 8185   5.616   6.535   1.784  1.0290 -1.3003  0.5630
 1381SOL    HW2 8186   5.587   6.677   1.826 -1.7096 -1.7890  0.4739
 1382SOL     OW 8187   9.474   0.525   5.664  0.4083 -0.2952  0.0821
 1382SOL    HW1 8188   9.562   0.554   5.684  0.3183 -0.4578  0.7161
 1382SOL    HW2 8189   9.446   0.475   5.741 -0.0730 -0.6130 -0.2877
 1383SOL     OW 8190   3.022   7.243   5.089  0.3005  0.2926 -0.2522
 1383SOL    HW1 8191   2.944   7.192   5.070  1.1694 -1.0113 -0.4457
 1383SOL    HW2 8192   3.043   7.222   5.180 -0.1123  1.3994  0.1132
 1384SOL     OW 8193   1.109   1.662   8.933  0.2001  0.3113 -0.5061
 1384SOL    HW1 8194   1.162   1.698   9.004 -0.3781  1.4292 -0.6122
 1384SOL    HW2 8195   1.030   1.629   8.977 -0.0550  0.7951 -0.5894
 1385SOL     OW 8196   1.013   5.297   0.435 -0.6281  0.3958  0.0751
 1385SOL    HW1 8197   1.059   5.373   0.470 -0.1270  0.4901 -0.7673
 1385SOL    HW2 8198   1.080   5.229   0.426 -0.8403  0.2293 -0.2673
 1386SOL     OW 8199   3.817   9.106   7.518 -0.5222  0.2201 -0.5432
 1386SOL    HW1 8200   3.829   9.095   7.613 -2.5712  4.0553  0.3548
 1386SOL    HW2 8201   3.898   9.145   7.487 -0.3333  0.1706 -0.1166
 1387SOL     OW 8202   1.985   5.064   7.343 -0.3197  0.3019 -0.2080
 1387SOL    HW1 8203   1.916   5.117   7.384  1.1568  1.4217  0.9275
 1387SOL    HW2 8204   2.057   5.125   7.329  1.8644 -1.5114  2.0836
 1388SOL     OW 8205   1.278   0.433   7.893  0.3079  0.2704 -0.3508
 1388SOL    HW1 8206   1.310   0.352   7.852  0.0659 -0.1180  0.2209
 1388SOL    HW2 8207   1.358   0.476   7.926  0.4896  0.5123 -1.0693
 1389SOL     OW 8208   0.379   3.011   5.679  0.1285 -0.4354 -0.1817
 1389SOL    HW1 8209   0.286   3.031   5.690  0.3530  0.9358 -0.6038
 1389SOL    HW2 8210   0.411   2.996   5.768 -0.4496 -0.6630 -0.0109
 1390SOL     OW 8211   5.694   1.992   2.077  0.1156  0.5557  0.1861
 1390SOL    HW1 8212   5.750   2.043   2.018  0.0492 -0.3524 -0.6895
 1390SOL    HW2 8213   5.735   1.906   2.081 -0.7069  0.1600  0.2872
 1391SOL     OW 8214   5.548   8.753   6.984  0.9233  0.6880 -0.4251
 1391SOL    HW1 8215   5.469   8.805   6.969  0.8397  1.5210  2.4058
 1391SOL    HW2 8216   5.607   8.779   6.913 -0.9843  0.6455 -2.1382
 1392SOL     OW 8217   1.279   3.550   0.918  0.2131 -0.2675  0.4569
 1392SOL    HW1 8218   1.243   3.579   1.002 -0.0283 -0.3927  0.3979
 1392SOL    HW2 8219   1.206   3.559   0.856  0.4768  0.1197  0.1939
 1393SOL     OW 8220   2.261   6.875   2.794  0.0828 -0.8355  0.4236
 1393SOL    HW1 8221   2.240   6.918   2.877  2.6007  1.7477 -0.1006
 1393SOL    HW2 8222   2.315   6.800   2.820  0.2506 -0.4700  1.1668
 1394SOL     OW 8223   5.842   2.831   5.037  0.5060 -0.1279  0.5882
 1394SOL    HW1 8224   5.868   2.755   4.984 -2.7078 -0.1974 -1.1297
 1394SOL    HW2 8225   5.914   2.893   5.026  0.5722 -0.6312 -2.9410
 1395SOL     OW 8226   3.613   6.170   2.882 -0.2863 -0.5596 -0.0858
 1395SOL    HW1 8227   3.517   6.178   2.888 -0.3522  0.3785 -1.8444
 1395SOL    HW2 8228   3.638   6.233   2.815  1.9139  1.3395  2.3327
 1396SOL     OW 8229   9.708   8.242   4.455  0.1672  0.1144  0.4324
 1396SOL    HW1 8230   9.750   8.327   4.440  0.0483  0.1844  0.4905
 1396SOL    HW2 8231   9.631   8.243   4.397  0.3600 -0.0974  0.1723
 1397SOL     OW 8232   2.500   8.312   6.944 -0.0620 -0.4737  0.4387
 1397SOL    HW1 8233   2.487   8.223   6.911 -1.6447 -0.2332  0.3083
 1397SOL    HW2 8234   2.462   8.310   7.032  1.4309 -0.3420  1.1039
 1398SOL     OW 8235   3.644   9.228   9.326 -0.1026 -0.4598  0.2190
 1398SOL    HW1 8236   3.678   9.317   9.314 -2.4097  0.5324  0.4997
 1398SOL    HW2 8237   3.608   9.229   9.415 -0.5940 -1.5392  0.0398
 1399SOL     OW 8238   7.847  10.001   3.590  0.3560  0.4476  0.8775
 1399SOL    HW1 8239   7.900  10.081   3.582  3.1926 -1.2023  1.8361
 1399SOL    HW2 8240   7.847   9.964   3.501  1.4813  0.1273  0.9882
 1400SOL     OW 8241   4.829   5.290   4.191 -0.1679  0.2402  0.6302
 1400SOL    HW1 8242   4.857   5.371   4.149  0.9935 -0.3059  0.3188
 1400SOL    HW2 8243   4.875   5.289   4.275 -1.2435  0.5466  1.2533
 1401SOL     OW 8244   2.097   4.442   9.257  0.5639 -0.1200  0.3459
 1401SOL    HW1 8245   2.120   4.478   9.343 -1.6279  1.5032  0.3259
 1401SOL    HW2 8246   2.012   4.480   9.237  1.1189 -0.2230 -2.6956
 1402SOL     OW 8247   0.098   2.346   2.762 -0.4480 -0.0821  0.4620
 1402SOL    HW1 8248   0.035   2.286   2.722 -1.3775  1.6857 -0.8742
 1402SOL    HW2 8249   0.053   2.430   2.763  1.4828  1.0013  0.5437
 1403SOL     OW 8250   4.028   8.371   7.583  0.2004  0.1405 -0.1109
 1403SOL    HW1 8251   3.983   8.394   7.665 -0.1727 -1.9364  0.3187
 1403SOL    HW2 8252   3.959   8.334   7.528  0.8907 -0.6331 -0.4675
 1404SOL     OW 8253   7.535   8.779   7.145  0.0991 -0.2407 -0.3537
 1404SOL    HW1 8254   7.497   8.803   7.229 -0.4983 -1.2937 -0.3065
 1404SOL    HW2 8255   7.629   8.773   7.161  0.0591  0.1900  0.0704
 1405SOL     OW 8256   6.992   9.385   9.442  0.6656 -0.4087  0.1712
 1405SOL    HW1 8257   6.899   9.401   9.427  1.1247  2.0859 -0.4221
 1405SOL    HW2 8258   7.001   9.381   9.538  0.0231 -0.2259  0.2378
 1406SOL     OW 8259   3.795   2.695   0.587  0.2344  0.7008 -0.3239
 1406SOL    HW1 8260   3.857   2.763   0.611 -0.1316  0.7418  0.5451
 1406SOL    HW2 8261   3.849   2.617   0.575  0.7394  1.2586 -1.9777
 1407SOL     OW 8262   8.184   8.001   5.794  0.0017  0.1327 -0.0310
 1407SOL    HW1 8263   8.176   7.958   5.709  1.4153  0.9618 -0.6318
 1407SOL    HW2 8264   8.167   8.093   5.776 -2.7731 -0.0625  1.1962
 1408SOL     OW 8265   0.512   3.477  10.073  0.7430  0.2900 -0.4416
 1408SOL    HW1 8266   0.555   3.393  10.088  0.4669 -0.0570 -1.5152
 1408SOL    HW2 8267   0.545   3.533  10.143  2.5984 -0.0883 -0.9673
 1409SOL     OW 8268   7.060   1.121   6.103 -0.0569 -0.1482 -0.5444
 1409SOL    HW1 8269   6.978   1.079   6.130 -0.4902  0.8930 -0.1782
 1409SOL    HW2 8270   7.061   1.205   6.150  2.5331 -1.2257  1.5745
 1410SOL     OW 8271   7.829   4.072   1.978 -0.4654 -0.2126  0.2756
 1410SOL    HW1 8272   7.897   4.114   1.924 -0.7045  1.0835  0.9405
 1410SOL    HW2 8273   7.779   4.019   1.916  0.0808  0.1852 -0.5354
 1411SOL     OW 8274   1.697   3.902   5.993  0.2730 -0.0855  0.0584
 1411SOL    HW1 8275   1.758   3.898   5.919 -0.6798 -1.3294 -0.6871
 1411SOL    HW2 8276   1.746   3.949   6.061  1.7307 -0.2530 -0.8215
 1412SOL     OW 8277   2.829   7.796  10.226  0.0998 -0.1909  0.0164
 1412SOL    HW1 8278   2.776   7.717  10.213  0.4138 -0.5602  0.8734
 1412SOL    HW2 8279   2.816   7.819  10.318 -0.1123  0.8586 -0.2640
 1413SOL     OW 8280   0.244   2.764   7.123  0.0426 -0.8823  0.2714
 1413SOL    HW1 8281   0.236   2.669   7.132  1.8814 -1.3611 -2.0924
 1413SOL    HW2 8282   0.331   2.784   7.157  0.6490 -0.4582 -1.4360
 1414SOL     OW 8283  10.119   7.148   1.677  0.0684 -0.0505 -0.7443
 1414SOL    HW1 8284  10.126   7.054   1.661 -2.6827 -0.4215 -0.2703
 1414SOL    HW2 8285  10.098   7.186   1.592  0.7328  0.0951 -0.8493
 1415SOL     OW 8286   0.389   3.798   2.965 -0.0179  0.0095  0.6166
 1415SOL    HW1 8287   0.371   3.799   3.059  0.0239 -0.5434  0.6338
 1415SOL    HW2 8288   0.373   3.708   2.938  1.2412 -0.1598  0.3516
 1416SOL     OW 8289   8.309   2.681   3.564 -0.1925 -0.1464 -0.1816
 1416SOL    HW1 8290   8.274   2.697   3.476 -0.2033 -1.0160 -0.3444
 1416SOL    HW2 8291   8.263   2.743   3.620 -0.7245 -0.0925 -0.6705
 1417SOL     OW 8292   4.237   0.136   0.733 -0.4808 -0.0962  0.0775
 1417SOL    HW1 8293   4.280   0.148   0.818 -0.3784 -0.0117  0.0134
 1417SOL    HW2 8294   4.153   0.094   0.755 -1.4403  1.9053  0.4531
 1418SOL     OW 8295   2.376   9.321   9.739 -0.3146  0.5265  0.2838
 1418SOL    HW1 8296   2.425   9.394   9.777 -0.1800  0.2144  0.7196
 1418SOL    HW2 8297   2.384   9.251   9.803  0.6976 -0.3231 -0.7307
 1419SOL     OW 8298   2.238   5.228   9.556  0.0873 -0.2671  0.4082
 1419SOL    HW1 8299   2.244   5.240   9.651  0.3274 -0.0682  0.3680
 1419SOL    HW2 8300   2.325   5.249   9.523  0.2563 -1.2068  0.2325
 1420SOL     OW 8301   9.620   5.815   2.949 -0.6012 -0.2295  0.3166
 1420SOL    HW1 8302   9.584   5.783   2.866 -0.2706  2.1287 -0.7985
 1420SOL    HW2 8303   9.714   5.818   2.935 -0.6067  0.9815  0.4455
 1421SOL     OW 8304   0.173   1.869   8.923 -0.2719  0.5064 -0.1978
 1421SOL    HW1 8305   0.215   1.952   8.944  0.4312  0.4947 -1.4703
 1421SOL    HW2 8306   0.236   1.823   8.867 -0.5319 -1.0119  0.6969
 1422SOL     OW 8307   3.934   2.834   5.300  0.5860  0.5812  0.4506
 1422SOL    HW1 8308   3.886   2.786   5.368  0.6083 -0.0692  0.0244
 1422SOL    HW2 8309   3.882   2.912   5.284  0.0064  0.2088  0.4641
 1423SOL     OW 8310   4.714   8.834   2.902 -0.2883  0.0055  0.3737
 1423SOL    HW1 8311   4.695   8.927   2.892 -1.6188 -0.3311 -0.5226
 1423SOL    HW2 8312   4.674   8.810   2.985  1.9891  0.6596  1.7491
 1424SOL     OW 8313   7.368   1.070   5.410 -0.4290  0.1003 -0.0636
 1424SOL    HW1 8314   7.291   1.030   5.450 -0.0210 -0.6957 -0.0578
 1424SOL    HW2 8315   7.332   1.140   5.354 -1.0983  0.2079  0.4870
 1425SOL     OW 8316  10.061   1.049   9.668  0.1362 -0.2634 -0.9821
 1425SOL    HW1 8317  10.064   0.958   9.641 -0.2421 -0.2403 -1.0941
 1425SOL    HW2 8318  10.129   1.056   9.736 -1.0625 -1.0506  0.3407
 1426SOL     OW 8319   0.226   4.465   5.312  0.6130 -0.2287  0.1595
 1426SOL    HW1 8320   0.240   4.551   5.273  3.8550 -1.1934 -1.1284
 1426SOL    HW2 8321   0.166   4.421   5.251 -0.5248  0.8305  0.4729
 1427SOL     OW 8322   5.203   0.885   6.787 -0.3065 -0.0010  0.4129
 1427SOL    HW1 8323   5.111   0.870   6.810 -0.2516 -0.4515  0.3457
 1427SOL    HW2 8324   5.213   0.846   6.700  0.7458 -2.9969  1.7439
 1428SOL     OW 8325   9.855   8.774   8.855 -0.2567 -0.0437 -0.7923
 1428SOL    HW1 8326   9.884   8.819   8.934 -2.4077 -2.3396  1.5151
 1428SOL    HW2 8327   9.784   8.828   8.821 -0.4255  0.1531 -0.1404
 1429SOL     OW 8328   6.991   9.364   9.704 -0.2245 -0.4142  0.0303
 1429SOL    HW1 8329   7.047   9.367   9.782  0.1857 -3.3125 -0.0505
 1429SOL    HW2 8330   6.918   9.306   9.729 -1.1338  0.1905 -1.1276
 1430SOL     OW 8331   8.624   1.142   1.642  0.1133 -0.6554  0.2739
 1430SOL    HW1 8332   8.633   1.047   1.631  1.0302 -0.6273  0.7234
 1430SOL    HW2 8333   8.679   1.163   1.717  1.7899  0.5640 -1.2144
 1431SOL     OW 8334   1.694   8.423   1.039 -0.2780 -0.3283  0.1504
 1431SOL    HW1 8335   1.743   8.386   0.966  1.1517  0.4633  0.6678
 1431SOL    HW2 8336   1.729   8.378   1.116 -0.6848 -0.0770  0.4827
 1432SOL     OW 8337   2.728   7.056   9.668  0.2258 -0.2097 -0.3495
 1432SOL    HW1 8338   2.693   6.989   9.726 -1.0252  0.9615  0.3174
 1432SOL    HW2 8339   2.743   7.132   9.725  1.5038  0.1269 -1.0907
 1433SOL     OW 8340   2.327   7.183   7.981 -0.0933  0.3005  0.3622
 1433SOL    HW1 8341   2.331   7.271   7.944 -1.1458 -0.4106 -1.5771
 1433SOL    HW2 8342   2.403   7.138   7.945 -0.8817 -0.2701 -0.6257
 1434SOL     OW 8343   0.518   2.816   4.910 -0.2531 -0.1586  0.2185
 1434SOL    HW1 8344   0.457   2.889   4.895 -0.7510 -0.3894  1.0607
 1434SOL    HW2 8345   0.601   2.847   4.875 -0.0923  1.3925  1.8432
 1435SOL     OW 8346   5.840   1.702   3.877  0.3091  0.2279  0.1963
 1435SOL    HW1 8347   5.867   1.614   3.852  1.6525  0.2973  1.2931
 1435SOL    HW2 8348   5.818   1.695   3.970 -0.8851  0.7803 -0.0238
 1436SOL     OW 8349   7.144   1.014   0.805 -0.0296 -0.4091  0.2465
 1436SOL    HW1 8350   7.225   0.971   0.777  0.8338 -0.0670  2.0904
 1436SOL    HW2 8351   7.170   1.072   0.876 -1.4540  1.8930 -0.9802
 1437SOL     OW 8352   0.638   5.434   6.991 -0.4372 -0.0008 -0.6389
 1437SOL    HW1 8353   0.548   5.451   7.019 -0.2283 -0.1149  0.1360
 1437SOL    HW2 8354   0.669   5.367   7.051  0.2457  0.2166 -0.7431
 1438SOL     OW 8355   2.683   9.184   0.972  0.4284  0.0842 -0.5649
 1438SOL    HW1 8356   2.611   9.166   1.033  0.6997 -2.0375 -0.7705
 1438SOL    HW2 8357   2.717   9.270   0.998 -0.2587 -0.2147  1.4816
 1439SOL     OW 8358   7.168   2.660   9.929  0.5530 -0.6542 -0.1166
 1439SOL    HW1 8359   7.078   2.683   9.953  0.4792  1.1814 -1.8897
 1439SOL    HW2 8360   7.170   2.666   9.834  2.6290 -0.3468 -0.1096
 1440SOL     OW 8361   0.529   8.683   2.477  0.5605  0.3168 -0.0935
 1440SOL    HW1 8362   0.624   8.698   2.484  0.6350  0.4555 -1.3318
 1440SOL    HW2 8363   0.493   8.727   2.555  1.7223 -2.0440  1.9175
 1441SOL     OW 8364   1.108   6.511   3.093 -0.0768 -0.5626 -0.2353
 1441SOL    HW1 8365   1.130   6.459   3.171  0.6069  0.1442  0.0460
 1441SOL    HW2 8366   1.164   6.588   3.098 -1.7406  0.6886 -0.1497
 1442SOL     OW 8367   0.356   3.883  10.229 -0.0113  0.2836  0.0316
 1442SOL    HW1 8368   0.272   3.921  10.203 -0.5862 -2.6538 -3.1575
 1442SOL    HW2 8369   0.333   3.810  10.287  0.3529 -0.1395 -0.3456
 1443SOL     OW 8370   9.709   8.645   0.388  0.4940 -1.5863 -0.3528
 1443SOL    HW1 8371   9.751   8.654   0.473  2.0047 -0.7830 -1.1449
 1443SOL    HW2 8372   9.758   8.575   0.345 -0.0181 -1.7319 -0.7028
 1444SOL     OW 8373   9.138   9.404   2.947 -0.5570 -0.8177 -0.1177
 1444SOL    HW1 8374   9.056   9.423   2.991 -0.4426 -0.8000  0.0902
 1444SOL    HW2 8375   9.148   9.309   2.954 -0.7361 -0.8617 -0.4574
 1445SOL     OW 8376   2.110   0.787   6.713 -0.2065 -0.3478  0.2548
 1445SOL    HW1 8377   2.187   0.832   6.679  0.4737 -1.2040  0.6442
 1445SOL    HW2 8378   2.097   0.714   6.653 -2.7313  1.5942 -1.8313
 1446SOL     OW 8379   2.924   9.944   3.321 -0.2517 -0.1221 -0.3430
 1446SOL    HW1 8380   2.863   9.895   3.376 -1.5432  1.1196 -0.6155
 1446SOL    HW2 8381   2.962  10.010   3.380  0.1453 -0.3080 -0.3885
 1447SOL     OW 8382   5.192   4.584   8.881  0.3450  0.2739 -0.2999
 1447SOL    HW1 8383   5.152   4.602   8.796 -1.8879 -0.5866  0.4744
 1447SOL    HW2 8384   5.125   4.535   8.929  1.2808  1.2200  2.1690
 1448SOL     OW 8385   4.118   1.046   8.809  0.4084 -0.1633  0.1043
 1448SOL    HW1 8386   4.088   1.058   8.719 -0.5673  0.0790  0.4433
 1448SOL    HW2 8387   4.198   1.098   8.814  0.9191 -0.8347 -0.8396
 1449SOL     OW 8388   1.519  10.189   7.220 -0.2603  0.5058 -0.4622
 1449SOL    HW1 8389   1.547  10.272   7.257  0.1513  0.5206 -0.7959
 1449SOL    HW2 8390   1.440  10.166   7.269 -0.6411  1.3178 -0.6849
 1450SOL     OW 8391   2.046   7.642   0.465 -0.5470 -0.4798  0.4717
 1450SOL    HW1 8392   2.093   7.619   0.385  0.5149  0.6299  0.7436
 1450SOL    HW2 8393   2.115   7.669   0.526 -1.5482  1.6998  0.7170
 1451SOL     OW 8394   4.713   9.299   4.376  0.4222 -0.5345  0.2760
 1451SOL    HW1 8395   4.704   9.296   4.472  0.0801 -1.5695  0.2185
 1451SOL    HW2 8396   4.750   9.214   4.353  0.3445 -0.3554 -0.5331
 1452SOL     OW 8397   1.675   8.423   0.129 -0.0671 -0.0126  0.2814
 1452SOL    HW1 8398   1.599   8.379   0.168  0.0941 -0.2165  0.3667
 1452SOL    HW2 8399   1.692   8.375   0.048 -1.0483  1.0528 -0.5919
 1453SOL     OW 8400   5.320   2.384   5.963 -0.4326  0.0949 -0.6443
 1453SOL    HW1 8401   5.365   2.432   5.894  1.7902  1.0391  1.3390
 1453SOL    HW2 8402   5.332   2.291   5.940  0.4251  0.3847 -1.3956
 1454SOL     OW 8403   7.446   4.083   0.932 -0.0886  0.6059 -0.2327
 1454SOL    HW1 8404   7.455   4.088   0.837  0.3151 -0.3830 -0.2597
 1454SOL    HW2 8405   7.522   4.031   0.960 -1.5792 -1.3563  0.3531
 1455SOL     OW 8406   1.377   7.722   7.702 -0.0336  0.2910 -0.6548
 1455SOL    HW1 8407   1.417   7.766   7.627  0.8855  0.4849 -0.0697
 1455SOL    HW2 8408   1.438   7.652   7.724 -0.4462  0.0447 -0.2699
 1456SOL     OW 8409   7.383   0.385   9.066  0.7016 -0.1450 -0.4918
 1456SOL    HW1 8410   7.436   0.310   9.038 -0.8062 -3.3528  4.1133
 1456SOL    HW2 8411   7.425   0.415   9.146 -1.4981  0.6102  0.4351
 1457SOL     OW 8412   2.089   4.297   0.857  0.1614  0.2422 -0.0130
 1457SOL    HW1 8413   2.151   4.307   0.928  0.5358  1.1426 -0.4559
 1457SOL    HW2 8414   2.143   4.284   0.779 -0.1985  0.7996 -0.3631
 1458SOL     OW 8415   0.978   8.085   7.840 -0.2330 -0.2438 -0.2365
 1458SOL    HW1 8416   1.068   8.109   7.863 -0.3858  1.5431 -1.3045
 1458SOL    HW2 8417   0.963   8.003   7.887  1.6743 -0.1872  0.6010
 1459SOL     OW 8418   3.466   9.705  10.266 -0.3414 -0.0796  0.4413
 1459SOL    HW1 8419   3.500   9.616  10.259  1.0136  0.4738 -0.2458
 1459SOL    HW2 8420   3.393   9.708  10.205  0.8274 -0.1740 -1.0006
 1460SOL     OW 8421   1.234   1.389   9.647 -1.3942  0.2597  0.2897
 1460SOL    HW1 8422   1.318   1.348   9.665 -1.2524  0.5810  0.3656
 1460SOL    HW2 8423   1.225   1.384   9.552 -1.1513  0.4983  0.2551
 1461SOL     OW 8424   6.421   8.971   8.826  0.2134 -0.1258  0.1182
 1461SOL    HW1 8425   6.328   8.989   8.842  0.1445  1.1102 -1.3717
 1461SOL    HW2 8426   6.432   8.879   8.849 -1.6636 -0.6284 -0.7765
 1462SOL     OW 8427   8.918   0.132   6.350  0.2928 -0.3700 -0.3908
 1462SOL    HW1 8428   8.928   0.184   6.271  2.8649 -1.8256 -1.1333
 1462SOL    HW2 8429   8.926   0.041   6.320  1.0701 -0.9641  1.4853
 1463SOL     OW 8430   7.818   2.294   2.930 -0.5912  0.2662 -0.4318
 1463SOL    HW1 8431   7.805   2.286   2.836 -1.5979 -0.3663 -0.2587
 1463SOL    HW2 8432   7.894   2.351   2.939 -1.3531  1.5275 -1.5942
 1464SOL     OW 8433   5.690   1.044   4.415 -0.4297  0.0122  0.2714
 1464SOL    HW1 8434   5.685   0.964   4.467  0.2989 -0.8833 -0.9795
 1464SOL    HW2 8435   5.603   1.055   4.378 -0.1135 -1.2501 -0.9772
 1465SOL     OW 8436   8.576   8.342   0.935 -0.6893  0.0190  0.8182
 1465SOL    HW1 8437   8.500   8.337   0.993 -0.3594 -4.3177  1.2281
 1465SOL    HW2 8438   8.544   8.310   0.850  0.1716  0.5075  0.2871
 1466SOL     OW 8439   8.308   4.538   3.786 -0.0006  0.0388  0.4913
 1466SOL    HW1 8440   8.401   4.525   3.769 -0.1857  0.1745 -0.7061
 1466SOL    HW2 8441   8.303   4.627   3.822  0.3190  0.0803  0.4362
 1467SOL     OW 8442   1.325   1.540   7.299  0.5650 -0.1977 -0.3415
 1467SOL    HW1 8443   1.385   1.513   7.230  1.2268  1.7196 -0.5601
 1467SOL    HW2 8444   1.253   1.477   7.293  1.7308 -1.5295 -1.1707
 1468SOL     OW 8445   3.331   6.864   1.258  0.0143  0.6257 -0.4089
 1468SOL    HW1 8446   3.413   6.853   1.208 -0.0786 -0.5306 -0.3341
 1468SOL    HW2 8447   3.351   6.931   1.323  0.5570  1.1712 -1.1220
 1469SOL     OW 8448   8.756   1.469   1.188 -0.0600 -0.0565 -0.3212
 1469SOL    HW1 8449   8.718   1.433   1.269  0.2292  1.0755  0.3363
 1469SOL    HW2 8450   8.717   1.555   1.179 -0.8678 -0.5612 -1.9764
 1470SOL     OW 8451   6.126   1.856   6.208  0.5217  0.0461  0.0052
 1470SOL    HW1 8452   6.164   1.944   6.204 -1.3112  1.0089  1.7842
 1470SOL    HW2 8453   6.038   1.870   6.242  0.1993 -2.5106  0.4083
 1471SOL     OW 8454   7.393   9.034   5.579 -0.3207  0.1941 -0.1809
 1471SOL    HW1 8455   7.441   9.117   5.587  0.1547 -0.1189  0.2785
 1471SOL    HW2 8456   7.461   8.968   5.567 -0.6481 -0.2293  0.2609
 1472SOL     OW 8457   0.438   7.231   0.935  0.0844  0.5946 -0.2510
 1472SOL    HW1 8458   0.514   7.254   0.881  1.0639 -0.0937  0.7693
 1472SOL    HW2 8459   0.476   7.186   1.011 -1.3903 -0.2388  0.0334
 1473SOL     OW 8460   9.492   6.285   5.667  0.2888 -0.3601 -0.2745
 1473SOL    HW1 8461   9.437   6.322   5.598  0.1889  2.8431  1.3120
 1473SOL    HW2 8462   9.579   6.275   5.627 -0.7016 -2.8916 -2.0232
 1474SOL     OW 8463   4.496   6.045   3.786 -0.0138  0.3513  0.4022
 1474SOL    HW1 8464   4.439   6.121   3.794 -0.5150  0.2273 -1.6235
 1474SOL    HW2 8465   4.535   6.052   3.700  1.0292 -0.9608  0.7257
 1475SOL     OW 8466   6.028   2.182  10.019 -0.1905 -0.3568 -0.1839
 1475SOL    HW1 8467   6.118   2.154  10.001  0.4585  1.0053  0.7387
 1475SOL    HW2 8468   6.003   2.234   9.943 -0.0247 -0.3646 -0.2433
 1476SOL     OW 8469   9.013   6.622   2.853 -0.5465 -0.4636 -0.4045
 1476SOL    HW1 8470   8.940   6.563   2.873 -0.0430 -1.1093 -0.4289
 1476SOL    HW2 8471   9.038   6.659   2.938 -0.7748 -0.3899 -0.3696
 1477SOL     OW 8472   5.460   6.228   7.001  0.4283 -0.4560  0.2786
 1477SOL    HW1 8473   5.410   6.146   6.996 -0.1426 -0.1258  0.4425
 1477SOL    HW2 8474   5.466   6.247   7.094  1.0474 -0.5996  0.2697
 1478SOL     OW 8475   8.687   1.802   2.976  0.4901  0.3119  0.5210
 1478SOL    HW1 8476   8.653   1.793   2.887 -0.5982  0.0350  0.9500
 1478SOL    HW2 8477   8.768   1.752   2.976 -0.3710 -1.1455  0.1359
 1479SOL     OW 8478   0.800   0.321   1.158  0.8187 -0.4215 -0.2339
 1479SOL    HW1 8479   0.843   0.330   1.073  0.3785 -1.2576 -0.5575
 1479SOL    HW2 8480   0.721   0.374   1.151  0.4925 -0.9402 -0.5575
 1480SOL     OW 8481   4.367   5.481   6.350  0.4775 -0.3596  0.1230
 1480SOL    HW1 8482   4.358   5.400   6.300  0.8241  0.6480 -1.6841
 1480SOL    HW2 8483   4.457   5.480   6.382  1.6669  0.7871 -2.8153
 1481SOL     OW 8484   2.159   0.901   6.141  0.0662  0.1441  0.2727
 1481SOL    HW1 8485   2.212   0.878   6.217 -0.3150  0.5621  0.6736
 1481SOL    HW2 8486   2.111   0.821   6.120 -0.0318  0.1068  0.6401
 1482SOL     OW 8487   3.409   7.749   9.511 -0.4931 -0.0711  0.0794
 1482SOL    HW1 8488   3.434   7.683   9.576 -2.0432 -1.8229 -0.9696
 1482SOL    HW2 8489   3.467   7.733   9.437 -1.1221 -0.5707 -0.3238
 1483SOL     OW 8490  10.032   9.289   5.126 -0.6672 -0.1640 -0.2792
 1483SOL    HW1 8491  10.011   9.201   5.096 -0.0885 -0.6343  0.6605
 1483SOL    HW2 8492   9.946   9.329   5.145 -0.8823 -1.0237  0.6458
 1484SOL     OW 8493   5.792   2.229   9.554 -0.2435  0.0319 -0.1744
 1484SOL    HW1 8494   5.805   2.192   9.467 -3.2147  0.6274 -0.9815
 1484SOL    HW2 8495   5.732   2.169   9.598 -0.7689  1.0163  0.5114
 1485SOL     OW 8496   0.391   6.218   3.045  0.4943 -0.3287 -0.2462
 1485SOL    HW1 8497   0.445   6.296   3.033  0.8443 -0.3479  1.0790
 1485SOL    HW2 8498   0.454   6.146   3.051  0.3370 -0.3706  1.1440
 1486SOL     OW 8499   6.115   8.645   3.820  0.0543  0.6404  0.5630
 1486SOL    HW1 8500   6.085   8.597   3.897 -3.0918  1.9527  0.3278
 1486SOL    HW2 8501   6.112   8.737   3.846 -1.6222  1.1600 -1.1854
 1487SOL     OW 8502   7.171   1.896  10.001 -0.5451 -0.0864 -0.0761
 1487SOL    HW1 8503   7.212   1.838  10.065 -0.2597  0.3540  0.1478
 1487SOL    HW2 8504   7.235   1.904   9.931 -0.2548  0.5743  0.2571
 1488SOL     OW 8505   2.048   8.572  10.199 -0.0095  0.2492  0.0651
 1488SOL    HW1 8506   2.046   8.491  10.148 -2.3241 -0.3623  1.0271
 1488SOL    HW2 8507   2.002   8.636  10.146  0.1548  0.4264  0.1322
 1489SOL     OW 8508   5.186   8.511   8.152 -0.4531 -0.7768  0.7444
 1489SOL    HW1 8509   5.166   8.602   8.176 -1.7869 -1.0673  0.7790
 1489SOL    HW2 8510   5.281   8.511   8.136 -0.5773  0.8393 -0.2028
 1490SOL     OW 8511   4.363   6.627   5.108  0.0777 -0.4394 -0.4077
 1490SOL    HW1 8512   4.353   6.545   5.155  0.7849 -0.4375 -0.2593
 1490SOL    HW2 8513   4.435   6.612   5.047  0.7531  0.3258  0.1814
 1491SOL     OW 8514   2.436   0.957   0.139 -0.3291 -0.2512  0.6688
 1491SOL    HW1 8515   2.450   1.017   0.213 -1.8911 -1.0289  1.6404
 1491SOL    HW2 8516   2.384   0.885   0.176  0.5052 -1.6362 -0.7423
 1492SOL     OW 8517   2.340   4.382   5.757  0.0374  0.4128  0.0361
 1492SOL    HW1 8518   2.357   4.295   5.793  0.3430  0.6792  0.5457
 1492SOL    HW2 8519   2.259   4.410   5.800  0.3023  0.6550  0.3801
 1493SOL     OW 8520   3.019   7.883   8.819 -0.2065 -0.0101  0.2855
 1493SOL    HW1 8521   2.990   7.972   8.842  0.3146  0.0200  0.8324
 1493SOL    HW2 8522   2.972   7.826   8.880  0.1341 -0.0387  0.5224
 1494SOL     OW 8523   8.688   0.846   5.494  0.0374  0.3180 -0.2121
 1494SOL    HW1 8524   8.672   0.833   5.588 -3.1714  0.4877 -0.6166
 1494SOL    HW2 8525   8.661   0.763   5.454  0.6317  0.5269 -1.0655
 1495SOL     OW 8526   3.764   8.723   8.287  0.4957  0.3533  0.5764
 1495SOL    HW1 8527   3.769   8.639   8.333 -0.8897 -0.9870 -1.5657
 1495SOL    HW2 8528   3.696   8.772   8.333  2.5185  1.1325  2.9523
 1496SOL     OW 8529   5.982   4.476   6.369 -0.4769 -0.5417  0.2566
 1496SOL    HW1 8530   5.937   4.524   6.439  0.7634 -0.8735  1.3190
 1496SOL    HW2 8531   5.966   4.528   6.291 -0.0189  1.0736  1.1982
 1497SOL     OW 8532   8.278   0.279   0.398  0.0366  0.4948  0.1554
 1497SOL    HW1 8533   8.319   0.326   0.471 -0.3269  0.0626  0.6378
 1497SOL    HW2 8534   8.185   0.275   0.420 -0.1700  0.8553 -0.6036
 1498SOL     OW 8535   8.161   6.989   2.257  0.1443 -0.3251  0.0764
 1498SOL    HW1 8536   8.090   6.966   2.316 -1.6707  1.0316 -1.4435
 1498SOL    HW2 8537   8.223   6.916   2.263 -1.0885 -1.2795  1.8813
 1499SOL     OW 8538   6.143   4.700   1.736  0.4309 -0.2873 -0.6226
 1499SOL    HW1 8539   6.108   4.781   1.699 -0.8302  0.7000  2.4505
 1499SOL    HW2 8540   6.120   4.703   1.828  1.8689 -3.3831 -0.0177
 1500SOL     OW 8541   5.626   6.291   0.192  0.0136 -0.4931  0.3002
 1500SOL    HW1 8542   5.611   6.349   0.267 -2.2561 -1.7269  0.9049
 1500SOL    HW2 8543   5.641   6.205   0.231 -2.5230 -1.4303 -0.5804
 1501SOL     OW 8544   3.276   3.677   6.504 -0.2880  0.7647  0.0578
 1501SOL    HW1 8545   3.328   3.652   6.581  2.9275  0.5531 -2.0014
 1501SOL    HW2 8546   3.266   3.772   6.512 -2.3435  0.4952  1.9503
 1502SOL     OW 8547   9.800   8.355   6.701 -0.0952 -0.5117  0.2731
 1502SOL    HW1 8548   9.808   8.449   6.681  0.0799 -0.3292  1.1463
 1502SOL    HW2 8549   9.756   8.353   6.786  0.6660 -1.1842  0.6642
 1503SOL     OW 8550   3.120   3.460   8.719  0.0765  0.1679  0.4216
 1503SOL    HW1 8551   3.208   3.477   8.751  1.3364  0.1911 -2.7032
 1503SOL    HW2 8552   3.131   3.388   8.657 -2.1459  0.1441 -0.0210
 1504SOL     OW 8553   7.465   5.289   1.594 -0.0730  0.0346  0.0264
 1504SOL    HW1 8554   7.476   5.212   1.539 -0.2652 -0.6592  0.9476
 1504SOL    HW2 8555   7.440   5.255   1.679  1.7339  0.9954  0.9884
 1505SOL     OW 8556   7.222   9.894   3.059 -0.0545  0.1410  0.0413
 1505SOL    HW1 8557   7.303   9.888   3.109 -0.3759 -0.3650  0.5062
 1505SOL    HW2 8558   7.193   9.803   3.048 -0.5189  0.3122 -0.1874
 1506SOL     OW 8559   5.994   5.443   2.584 -0.3552 -0.4393  0.1006
 1506SOL    HW1 8560   6.014   5.507   2.516  0.3965 -1.1133 -0.3173
 1506SOL    HW2 8561   6.079   5.410   2.612 -0.7547 -1.4922  0.0856
 1507SOL     OW 8562   8.791   7.253   9.090 -0.2030  0.1119  0.0852
 1507SOL    HW1 8563   8.830   7.338   9.071 -0.3224  0.1703  0.0983
 1507SOL    HW2 8564   8.861   7.202   9.129  0.0032  0.0460 -0.3653
 1508SOL     OW 8565   3.763   0.010   3.368 -0.4751 -0.2266 -0.2296
 1508SOL    HW1 8566   3.826   0.072   3.328 -2.4920  1.7607 -0.5182
 1508SOL    HW2 8567   3.750   0.043   3.456 -1.1950 -0.5664 -0.2076
 1509SOL     OW 8568   7.565   1.166   7.424 -0.6397 -0.1308  0.2683
 1509SOL    HW1 8569   7.648   1.203   7.453 -0.4156 -1.1307  0.9596
 1509SOL    HW2 8570   7.502   1.192   7.491 -0.8068  0.2604 -0.0321
 1510SOL     OW 8571   7.783   1.805   7.913 -0.0995 -0.1092 -0.4200
 1510SOL    HW1 8572   7.832   1.808   7.831 -0.6841 -1.5426 -0.8438
 1510SOL    HW2 8573   7.743   1.718   7.915  0.5972 -0.4667  1.7996
 1511SOL     OW 8574   6.407   3.839   2.003 -0.1324  0.0425 -0.3866
 1511SOL    HW1 8575   6.416   3.932   2.023  0.3389 -0.3247  1.1994
 1511SOL    HW2 8576   6.367   3.800   2.081 -2.5717 -0.7365 -1.9089
 1512SOL     OW 8577   2.603   2.873   8.714  0.0800 -0.3299 -0.8525
 1512SOL    HW1 8578   2.668   2.813   8.677  0.9060 -0.0189  0.0619
 1512SOL    HW2 8579   2.521   2.848   8.672  0.6190 -1.3397 -1.3397
 1513SOL     OW 8580   9.151   6.250   9.832  0.0185 -0.1544 -0.1609
 1513SOL    HW1 8581   9.235   6.269   9.875  1.0040 -3.1142 -0.5396
 1513SOL    HW2 8582   9.090   6.237   9.904  1.0034 -2.3207  0.3851
 1514SOL     OW 8583   6.722   3.375   5.369  0.0674 -0.1309  0.0040
 1514SOL    HW1 8584   6.814   3.349   5.374 -0.2691 -1.0390  2.3169
 1514SOL    HW2 8585   6.709   3.433   5.443 -0.9315  1.1278 -1.0996
 1515SOL     OW 8586   6.535   5.773   4.245 -0.5506 -0.0856 -0.1968
 1515SOL    HW1 8587   6.566   5.850   4.197 -2.6245  1.4898  0.8505
 1515SOL    HW2 8588   6.501   5.807   4.327  0.0994 -2.3675  1.1204
 1516SOL     OW 8589   1.323   9.940   8.395 -0.0258 -0.1742 -0.5055
 1516SOL    HW1 8590   1.229   9.921   8.388  0.2032 -0.8547 -2.3306
 1516SOL    HW2 8591   1.364   9.876   8.337  1.8372 -1.6142  2.1750
 1517SOL     OW 8592   1.049   3.848   2.647 -0.0417 -0.0503  0.0442
 1517SOL    HW1 8593   1.006   3.930   2.624 -0.8768 -0.8321 -1.3149
 1517SOL    HW2 8594   1.047   3.846   2.743 -2.0903  0.4686  0.0604
 1518SOL     OW 8595   1.242   5.067   9.534  0.3908 -0.1449  0.3889
 1518SOL    HW1 8596   1.235   5.044   9.441  1.3913  1.8459 -0.2442
 1518SOL    HW2 8597   1.329   5.037   9.559  0.3848 -0.0712  0.4968
 1519SOL     OW 8598   2.214   5.586   6.301  0.3619  0.4544 -0.0118
 1519SOL    HW1 8599   2.126   5.562   6.272  0.1948 -0.1000  0.9150
 1519SOL    HW2 8600   2.245   5.648   6.235 -0.3624 -0.0428 -0.8419
 1520SOL     OW 8601   3.507   3.726   2.048  0.9813 -0.0914 -0.5603
 1520SOL    HW1 8602   3.521   3.632   2.038  0.2357  0.0129 -3.6509
 1520SOL    HW2 8603   3.595   3.764   2.043  1.2050 -0.5452 -0.1940
 1521SOL     OW 8604   8.686   6.218   2.583  0.1820 -0.0037  0.1419
 1521SOL    HW1 8605   8.598   6.180   2.572 -0.1691  0.6905  0.5237
 1521SOL    HW2 8606   8.671   6.300   2.629  0.9590  0.5062 -0.4991
 1522SOL     OW 8607   4.023   2.711   2.990  0.1601  0.3464  0.1872
 1522SOL    HW1 8608   4.057   2.795   3.020  2.0296  0.0568 -0.9605
 1522SOL    HW2 8609   4.012   2.659   3.070  0.3174  1.2015  0.7742
 1523SOL     OW 8610   3.397   5.826   7.401 -0.0311  0.3617 -0.1721
 1523SOL    HW1 8611   3.480   5.788   7.375  0.3415 -0.7427  2.3361
 1523SOL    HW2 8612   3.339   5.751   7.417 -0.2565  0.8837  1.8073
 1524SOL     OW 8613   5.000   0.671   4.993  0.0885 -0.0004 -0.7315
 1524SOL    HW1 8614   5.045   0.588   4.978  2.9507  1.5651 -1.6407
 1524SOL    HW2 8615   5.053   0.716   5.059 -0.8489  1.4971 -0.9344
 1525SOL     OW 8616   1.717   8.199   6.258  0.3222  1.0416 -0.1035
 1525SOL    HW1 8617   1.694   8.126   6.316  0.6324  1.0391  0.0206
 1525SOL    HW2 8618   1.666   8.273   6.292 -2.1529  0.2948 -1.8884
 1526SOL     OW 8619   9.463   0.117   0.731  0.3959  0.3922  0.1470
 1526SOL    HW1 8620   9.522   0.060   0.782 -1.0999 -0.2393  1.2285
 1526SOL    HW2 8621   9.376   0.098   0.765 -0.8067 -0.5946 -3.1771
 1527SOL     OW 8622   6.461   6.687   8.733 -0.0724 -0.7942  0.2952
 1527SOL    HW1 8623   6.370   6.673   8.761 -0.2891 -1.5742 -0.7456
 1527SOL    HW2 8624   6.509   6.697   8.815 -1.5104  2.9585  0.8891
 1528SOL     OW 8625   9.513   7.654   5.403  0.9533  0.2828 -0.1632
 1528SOL    HW1 8626   9.515   7.734   5.456  3.6788  1.0720 -1.2706
 1528SOL    HW2 8627   9.421   7.642   5.380  0.3950  2.8282  0.4614
 1529SOL     OW 8628   1.656   8.713   6.502 -0.2759  0.1030  0.4505
 1529SOL    HW1 8629   1.652   8.644   6.569  1.0700 -1.6349 -1.1255
 1529SOL    HW2 8630   1.565   8.737   6.486 -1.0758 -3.0996 -0.6125
 1530SOL     OW 8631   1.509   6.602   8.020  0.5224 -0.4500 -0.1766
 1530SOL    HW1 8632   1.494   6.570   8.108  0.8366 -1.7972 -0.5963
 1530SOL    HW2 8633   1.445   6.672   8.009  1.5349  0.8612  1.6664
 1531SOL     OW 8634   7.706   4.314   3.216  0.3146  0.3859  0.3924
 1531SOL    HW1 8635   7.787   4.331   3.169  0.5700 -0.0478  0.6566
 1531SOL    HW2 8636   7.636   4.336   3.155  0.6310  1.1300  0.2984
 1532SOL     OW 8637   1.540   4.449   6.817 -0.4583  0.8724 -0.1778
 1532SOL    HW1 8638   1.571   4.362   6.790 -1.1342 -0.0876  1.9286
 1532SOL    HW2 8639   1.529   4.497   6.735 -3.4516 -2.1642 -1.7742
 1533SOL     OW 8640   7.959   2.876   1.224  0.5684  0.2063 -0.2044
 1533SOL    HW1 8641   8.003   2.793   1.244  0.9194  0.6305  0.8660
 1533SOL    HW2 8642   7.919   2.902   1.307 -0.1761  0.7418 -0.7153
 1534SOL     OW 8643   2.744   7.683   7.703  0.1034  0.0786 -0.2926
 1534SOL    HW1 8644   2.790   7.688   7.620 -0.3575 -0.7345 -0.6127
 1534SOL    HW2 8645   2.810   7.655   7.766 -0.1936 -2.5612 -1.0252
 1535SOL     OW 8646   6.318   8.554   7.550  0.8826 -0.0978 -0.4923
 1535SOL    HW1 8647   6.329   8.605   7.631 -0.6438 -0.5316  0.0290
 1535SOL    HW2 8648   6.391   8.580   7.495  0.4385  2.3272 -0.0610
 1536SOL     OW 8649   7.992   0.101   7.143  0.4175 -0.1990 -0.3478
 1536SOL    HW1 8650   8.032   0.135   7.063 -0.4203  1.6181 -0.0545
 1536SOL    HW2 8651   8.062   0.102   7.208  0.1552  2.2679 -0.0201
 1537SOL     OW 8652   8.110   2.414   1.748  0.6212  0.2565  0.0714
 1537SOL    HW1 8653   8.121   2.384   1.839  0.7203  3.1132  1.0845
 1537SOL    HW2 8654   8.183   2.374   1.701  0.5777 -1.2808  1.2074
 1538SOL     OW 8655   9.544   8.173   5.458 -0.2598  0.2733  0.2756
 1538SOL    HW1 8656   9.501   8.230   5.521 -0.1298  0.5232  0.1373
 1538SOL    HW2 8657   9.495   8.091   5.462 -1.5001  0.9356 -0.7412
 1539SOL     OW 8658   7.473   2.341   5.074  0.1345  0.1759 -0.5861
 1539SOL    HW1 8659   7.417   2.340   4.996  1.2148  2.7033 -1.5298
 1539SOL    HW2 8660   7.419   2.381   5.142  0.3024  1.2962 -1.0928
 1540SOL     OW 8661   5.569   1.640   9.118 -0.2233  0.0935  0.1836
 1540SOL    HW1 8662   5.537   1.694   9.191  1.1125 -1.1648  1.7913
 1540SOL    HW2 8663   5.661   1.663   9.109 -0.6156  0.9862 -1.8657
 1541SOL     OW 8664   5.423   6.585   2.021 -0.1799 -0.0912  0.5133
 1541SOL    HW1 8665   5.340   6.623   1.991 -0.2394 -1.4489 -1.2404
 1541SOL    HW2 8666   5.479   6.589   1.943  1.0215 -0.2362  1.3576
 1542SOL     OW 8667   6.321   6.221   1.726 -0.5054 -0.4837 -0.3375
 1542SOL    HW1 8668   6.248   6.248   1.670 -0.3795 -1.0166 -0.7647
 1542SOL    HW2 8669   6.371   6.159   1.672  0.2211 -0.1824 -0.0246
 1543SOL     OW 8670   8.359   3.744   1.639  0.2115 -0.8751 -0.4582
 1543SOL    HW1 8671   8.423   3.719   1.572  0.6979 -0.0594 -0.3191
 1543SOL    HW2 8672   8.302   3.807   1.595  0.1066 -0.8653 -0.3079
 1544SOL     OW 8673  10.275   9.085   8.578  0.2986 -0.3845  0.8379
 1544SOL    HW1 8674  10.359   9.039   8.568 -0.0490 -0.7661 -0.5835
 1544SOL    HW2 8675  10.299   9.177   8.591  0.9574 -0.6748  1.7977
 1545SOL     OW 8676   2.965   7.616   7.847  0.5729 -0.1691  0.5992
 1545SOL    HW1 8677   2.981   7.527   7.879  0.9544 -0.3896 -0.1834
 1545SOL    HW2 8678   2.973   7.671   7.925 -2.1816 -1.0544  1.6327
 1546SOL     OW 8679   1.267   5.404   9.981 -0.2094 -0.4641 -0.0565
 1546SOL    HW1 8680   1.198   5.401   9.915 -0.7398 -0.2979  0.4908
 1546SOL    HW2 8681   1.348   5.416   9.930 -0.7097  0.6372 -0.6095
 1547SOL     OW 8682   8.728   9.813   6.665  0.4133  0.0553 -0.0608
 1547SOL    HW1 8683   8.822   9.827   6.673  0.3464  0.1986  0.4938
 1547SOL    HW2 8684   8.717   9.718   6.669  0.7349 -0.1362 -2.4161
 1548SOL     OW 8685   4.914   4.753   9.467 -0.1117 -0.6855  0.3959
 1548SOL    HW1 8686   4.870   4.837   9.459 -1.3974 -1.2933  0.7497
 1548SOL    HW2 8687   5.006   4.774   9.477 -0.1757  0.6042 -1.3720
 1549SOL     OW 8688   4.207   9.344   4.013 -0.0357 -0.1560 -0.2833
 1549SOL    HW1 8689   4.151   9.402   4.064  0.9192  0.5336 -0.0008
 1549SOL    HW2 8690   4.157   9.327   3.933 -0.0947  1.5193 -0.6303
 1550SOL     OW 8691   5.090   4.581   4.082 -0.6006 -0.3167  0.4133
 1550SOL    HW1 8692   5.173   4.619   4.111 -1.5035  2.4265 -0.3216
 1550SOL    HW2 8693   5.099   4.574   3.987 -2.5393  4.1432 -0.3690
 1551SOL     OW 8694   4.793   0.395   5.246 -0.1192  0.4858 -0.5039
 1551SOL    HW1 8695   4.808   0.468   5.187  3.5481  0.1294 -0.2481
 1551SOL    HW2 8696   4.767   0.436   5.329 -1.4424  1.2203 -1.2566
 1552SOL     OW 8697   6.002   0.975   0.187  0.1705 -0.1086  0.3175
 1552SOL    HW1 8698   6.047   0.897   0.154  0.4133  1.1471 -2.5736
 1552SOL    HW2 8699   5.915   0.971   0.146 -0.6081  0.0626  1.8938
 1553SOL     OW 8700   2.430   6.790  10.258 -0.1196  0.6172  0.1317
 1553SOL    HW1 8701   2.457   6.855  10.322  0.1837  1.0858 -0.4670
 1553SOL    HW2 8702   2.347   6.756  10.293 -0.8860  2.1397 -0.1123
 1554SOL     OW 8703   6.939  10.230   2.757 -0.0057 -0.1976  0.0436
 1554SOL    HW1 8704   7.010  10.268   2.704  1.6633 -3.5963 -0.4370
 1554SOL    HW2 8705   6.982  10.161   2.807 -2.8138 -1.6437  0.6315
 1555SOL     OW 8706   7.552   6.420   6.860 -0.2460  0.4134 -0.1042
 1555SOL    HW1 8707   7.475   6.473   6.842 -0.2486  0.4217 -0.0680
 1555SOL    HW2 8708   7.584   6.395   6.774  0.5824  1.6573 -0.1891
 1556SOL     OW 8709   6.418   3.041   7.902 -0.2649  0.6747  0.0198
 1556SOL    HW1 8710   6.471   3.080   7.833 -1.3881  0.3600 -1.0725
 1556SOL    HW2 8711   6.341   3.098   7.909 -1.0865 -0.3441 -0.3638
 1557SOL     OW 8712   1.929   4.833   7.238 -0.0096  0.0303  0.5532
 1557SOL    HW1 8713   1.845   4.810   7.277  0.0971 -0.7389  0.3440
 1557SOL    HW2 8714   1.951   4.919   7.275 -0.8925  0.2429  0.5895
 1558SOL     OW 8715   8.504   3.444   4.600  0.3206  0.1529 -0.7993
 1558SOL    HW1 8716   8.513   3.443   4.695  1.6056  0.8043 -0.8986
 1558SOL    HW2 8717   8.450   3.367   4.581  1.2962 -0.8648  0.3353
 1559SOL     OW 8718   3.768   4.700   9.517 -0.1952 -0.5236  0.5077
 1559SOL    HW1 8719   3.849   4.671   9.475 -0.2185 -1.4499  1.0715
 1559SOL    HW2 8720   3.768   4.655   9.602 -1.8750 -1.5123  0.0285
 1560SOL     OW 8721   3.620   6.991   8.512 -0.5541  0.2191 -0.1688
 1560SOL    HW1 8722   3.561   6.924   8.479  1.2441 -1.6350  0.1912
 1560SOL    HW2 8723   3.632   6.969   8.604  1.0756  0.2489 -0.3503
 1561SOL     OW 8724   7.407   7.405   8.195  0.2830 -0.0502  0.6772
 1561SOL    HW1 8725   7.387   7.421   8.287 -2.8309  2.1562 -0.2221
 1561SOL    HW2 8726   7.393   7.311   8.183  1.7068 -0.5685  2.5788
 1562SOL     OW 8727   1.658   6.480   3.480  0.2894 -0.1125  0.0401
 1562SOL    HW1 8728   1.655   6.565   3.524  0.8304 -0.4208  0.6873
 1562SOL    HW2 8729   1.733   6.486   3.421  2.3057 -1.1665  2.3192
 1563SOL     OW 8730   1.269   9.465   1.592 -0.3962  0.3011 -0.8899
 1563SOL    HW1 8731   1.223   9.543   1.624  0.5680  0.4927  0.1030
 1563SOL    HW2 8732   1.349   9.500   1.552  1.1464 -0.2469  1.5165
 1564SOL     OW 8733   4.976   5.154   5.986  0.1380  0.3479 -0.0415
 1564SOL    HW1 8734   5.062   5.181   5.956  1.8239 -2.2588  2.0034
 1564SOL    HW2 8735   4.977   5.170   6.080 -1.0917 -0.8899  0.2217
 1565SOL     OW 8736   3.800   9.973   2.883  0.0359 -0.1412  0.4089
 1565SOL    HW1 8737   3.789  10.012   2.970 -1.2495  1.2152 -0.3132
 1565SOL    HW2 8738   3.779   9.881   2.896  1.8584 -0.4036  1.9124
 1566SOL     OW 8739   6.475   2.895   5.159  0.2674  0.0836 -1.0445
 1566SOL    HW1 8740   6.447   2.877   5.069  1.2743 -0.6961 -1.2204
 1566SOL    HW2 8741   6.557   2.846   5.169  0.4180  0.5434  0.1472
 1567SOL     OW 8742   7.033   6.714   0.197  0.0805  0.3940 -0.0665
 1567SOL    HW1 8743   6.997   6.634   0.159  1.7184  0.2366 -1.3698
 1567SOL    HW2 8744   7.076   6.686   0.277  0.2163  0.0444 -0.2614
 1568SOL     OW 8745   9.209   3.752   9.210  0.0504 -0.3219 -0.1646
 1568SOL    HW1 8746   9.198   3.660   9.189  0.4543 -0.6833  1.1550
 1568SOL    HW2 8747   9.301   3.771   9.191 -0.3214  0.1544 -1.6346
 1569SOL     OW 8748   8.411   4.460   5.505  0.1229 -0.2185  0.5365
 1569SOL    HW1 8749   8.489   4.461   5.449  0.0274  0.8740  0.3989
 1569SOL    HW2 8750   8.439   4.504   5.585 -0.9314  2.4239 -0.4088
 1570SOL     OW 8751  10.289   3.555   9.946  0.0033  0.1100  0.0724
 1570SOL    HW1 8752  10.296   3.592  10.034  2.0108 -1.5461  0.6991
 1570SOL    HW2 8753  10.365   3.589   9.900  0.3371 -0.9770 -0.2060
 1571SOL     OW 8754   7.171   6.665   6.138 -0.2556 -0.0349  0.0361
 1571SOL    HW1 8755   7.203   6.648   6.227  0.6901 -0.5410 -0.3833
 1571SOL    HW2 8756   7.226   6.736   6.106 -2.8688  2.6436  1.0565
 1572SOL     OW 8757   6.145   5.759   1.683 -0.1137 -0.3740  0.1345
 1572SOL    HW1 8758   6.151   5.837   1.737 -2.5622  0.2949 -0.4019
 1572SOL    HW2 8759   6.233   5.745   1.650  0.2198  2.8452 -0.6344
 1573SOL     OW 8760   0.880   2.050   0.284 -0.7226 -0.1624  0.2931
 1573SOL    HW1 8761   0.823   2.079   0.356  0.1115 -0.1715  0.9686
 1573SOL    HW2 8762   0.913   1.965   0.312  0.4033  0.2806  0.3729
 1574SOL     OW 8763  10.216   1.441   0.695 -0.4432 -0.2278 -0.0348
 1574SOL    HW1 8764  10.265   1.393   0.761 -1.1383  0.9452  1.3823
 1574SOL    HW2 8765  10.156   1.375   0.658 -1.7747 -0.4303  2.2525
 1575SOL     OW 8766   8.115  10.243   0.328  0.2512 -0.4206 -0.0456
 1575SOL    HW1 8767   8.086  10.157   0.298  1.9904 -0.4050 -1.9765
 1575SOL    HW2 8768   8.210  10.236   0.333  0.2901  0.5790  2.5956
 1576SOL     OW 8769   1.496   1.029   4.800  0.3559  0.1261 -0.3219
 1576SOL    HW1 8770   1.591   1.039   4.806  0.8041 -2.9870 -0.5539
 1576SOL    HW2 8771   1.477   1.037   4.706  0.8186 -1.8618 -0.6151
 1577SOL     OW 8772   3.226   7.010   7.619  0.3107 -0.0165 -0.2192
 1577SOL    HW1 8773   3.183   6.949   7.678  1.4430 -0.0008  0.6614
 1577SOL    HW2 8774   3.311   7.028   7.660  2.0251 -1.5606 -2.7914
 1578SOL     OW 8775   8.012   0.673   2.064  0.6065 -0.1132  0.0813
 1578SOL    HW1 8776   7.984   0.659   1.974 -1.4442  0.8175  0.4974
 1578SOL    HW2 8777   8.032   0.586   2.098 -1.0713 -0.7748 -0.5488
 1579SOL     OW 8778   6.855   3.921   5.003 -0.3229  0.0409 -0.3442
 1579SOL    HW1 8779   6.782   3.867   4.972 -2.1533  0.5517  2.6873
 1579SOL    HW2 8780   6.929   3.862   5.005 -1.3902 -1.3588 -0.6676
 1580SOL     OW 8781   9.729   1.461   0.133 -0.4205  0.4216 -0.5641
 1580SOL    HW1 8782   9.739   1.389   0.195 -0.6891  0.6466 -0.2573
 1580SOL    HW2 8783   9.661   1.432   0.072 -1.1951  0.7905  0.1122
 1581SOL     OW 8784   6.796   5.361   0.420 -0.3432 -0.1571  0.9578
 1581SOL    HW1 8785   6.806   5.280   0.469 -0.4003 -2.0365 -1.8956
 1581SOL    HW2 8786   6.702   5.381   0.426 -0.7074 -1.4787  0.0408
 1582SOL     OW 8787   6.211   7.545   9.694 -0.5723  0.1735  0.2676
 1582SOL    HW1 8788   6.181   7.580   9.777 -2.5198  0.5919 -0.5668
 1582SOL    HW2 8789   6.228   7.622   9.640  0.5512 -0.0964  0.2111
 1583SOL     OW 8790   6.335   0.921   6.078  0.0802 -0.2131  0.0874
 1583SOL    HW1 8791   6.316   0.991   6.140 -1.0701 -0.0753 -0.3948
 1583SOL    HW2 8792   6.361   0.967   5.998 -3.0278 -0.1804 -1.0192
 1584SOL     OW 8793   6.157   9.635   1.170  0.0444 -0.1366 -0.1289
 1584SOL    HW1 8794   6.167   9.645   1.264 -0.2464  0.4157 -0.1537
 1584SOL    HW2 8795   6.133   9.543   1.158 -0.6505 -0.0356  0.4026
 1585SOL     OW 8796   6.122   9.393   8.357  0.4441 -0.2259  0.2495
 1585SOL    HW1 8797   6.087   9.441   8.432 -2.0985  0.2438 -1.1209
 1585SOL    HW2 8798   6.056   9.403   8.289  3.4399  1.0050 -2.7911
 1586SOL     OW 8799   2.797   1.391   0.607 -0.1510  0.6474  0.6245
 1586SOL    HW1 8800   2.853   1.322   0.643 -0.3136 -0.3214 -0.9041
 1586SOL    HW2 8801   2.744   1.420   0.682 -0.7219 -1.5221  1.1377
 1587SOL     OW 8802   5.963   8.371   9.791 -0.2666 -0.0014 -0.3512
 1587SOL    HW1 8803   5.905   8.334   9.724 -1.4024  2.0073 -0.5493
 1587SOL    HW2 8804   5.914   8.361   9.873  0.2632 -0.6472 -0.1045
 1588SOL     OW 8805   9.558   9.461   6.921 -0.3234  0.3101  0.4276
 1588SOL    HW1 8806   9.605   9.378   6.913 -0.2300  0.3518  0.5451
 1588SOL    HW2 8807   9.617   9.518   6.970 -0.1625  0.6246 -0.1292
 1589SOL     OW 8808   7.254   9.419   0.554 -0.5113  0.3343 -0.0226
 1589SOL    HW1 8809   7.284   9.469   0.630  1.4355  0.5126 -0.8559
 1589SOL    HW2 8810   7.165   9.393   0.577 -0.6777  2.0027  1.5107
 1590SOL     OW 8811   3.610   0.270   5.139  0.0899  0.3664 -0.2497
 1590SOL    HW1 8812   3.637   0.361   5.120 -1.7992  0.9704 -0.2502
 1590SOL    HW2 8813   3.520   0.266   5.109 -1.1704 -0.3800  3.1694
 1591SOL     OW 8814   6.854   5.275   8.931 -0.0553 -0.0675  0.0230
 1591SOL    HW1 8815   6.901   5.197   8.903 -0.7097 -0.6978  0.6289
 1591SOL    HW2 8816   6.828   5.318   8.850  2.7921  1.0963 -0.3743
 1592SOL     OW 8817   3.280   6.403   7.859 -0.6310 -0.0136 -0.2399
 1592SOL    HW1 8818   3.242   6.467   7.799 -0.3610 -0.1725 -0.5771
 1592SOL    HW2 8819   3.301   6.454   7.937  0.8827  0.6101 -1.0172
 1593SOL     OW 8820   4.642   0.168   0.110  0.1345 -0.3701  0.0559
 1593SOL    HW1 8821   4.621   0.154   0.202 -0.5124  2.7190  0.4928
 1593SOL    HW2 8822   4.560   0.147   0.064 -0.7309  1.5038  0.6341
 1594SOL     OW 8823   2.233   3.507   8.584  0.2757 -0.3356 -0.2866
 1594SOL    HW1 8824   2.219   3.420   8.620 -2.8245  0.4513  0.6422
 1594SOL    HW2 8825   2.166   3.562   8.624  1.5470  2.3161 -1.5114
 1595SOL     OW 8826   5.792   1.702   2.357 -0.3592  0.4181  0.3255
 1595SOL    HW1 8827   5.872   1.686   2.408  1.0452  0.7051 -1.6510
 1595SOL    HW2 8828   5.752   1.778   2.398  0.5284  0.4354  1.2022
 1596SOL     OW 8829   5.580   9.503   8.594  0.1556 -0.1674 -0.0416
 1596SOL    HW1 8830   5.623   9.574   8.642 -0.3449 -0.5893  1.0539
 1596SOL    HW2 8831   5.567   9.539   8.506 -0.7049  1.3742  0.6751
 1597SOL     OW 8832   3.604   3.215   4.949  0.1533 -0.4929  0.2726
 1597SOL    HW1 8833   3.524   3.167   4.969  0.2608 -0.5724  0.5181
 1597SOL    HW2 8834   3.669   3.147   4.934  0.2492 -0.4267  0.3861
 1598SOL     OW 8835   3.308   3.231  10.135 -0.0606  0.0997  0.1028
 1598SOL    HW1 8836   3.278   3.156  10.187  0.5254 -0.7711 -0.7887
 1598SOL    HW2 8837   3.379   3.197  10.081  0.7350  1.4860  0.2201
 1599SOL     OW 8838   2.241   4.248   4.969 -0.1479 -0.2241  0.4087
 1599SOL    HW1 8839   2.247   4.327   5.024 -1.3168 -0.1341  0.4216
 1599SOL    HW2 8840   2.330   4.211   4.971  0.2466  0.7145  0.9578
 1600SOL     OW 8841   2.386   9.819   5.072  0.3857 -0.4452 -0.3751
 1600SOL    HW1 8842   2.422   9.882   5.009  0.4841 -0.2198 -0.0922
 1600SOL    HW2 8843   2.334   9.759   5.018 -2.5783  1.8405 -0.2917
 1601SOL     OW 8844   4.904   4.000   2.834  0.3831 -0.2284  0.1101
 1601SOL    HW1 8845   4.931   3.950   2.757 -0.5738 -1.3389  0.4570
 1601SOL    HW2 8846   4.833   3.947   2.873  0.0853  0.8687  1.1128
 1602SOL     OW 8847   1.824   7.143   0.780  0.2449  0.2738 -0.0214
 1602SOL    HW1 8848   1.818   7.118   0.872 -2.8850  0.1337 -0.1793
 1602SOL    HW2 8849   1.857   7.064   0.737 -3.0693 -1.5501  0.4082
 1603SOL     OW 8850   6.664   2.491   2.219  0.2077 -0.0609  0.3277
 1603SOL    HW1 8851   6.698   2.451   2.139  2.0822 -0.3296  1.2252
 1603SOL    HW2 8852   6.578   2.450   2.230  0.6533 -1.3345 -0.5952
 1604SOL     OW 8853   2.975   0.902  10.211 -0.1532 -0.1805 -0.6304
 1604SOL    HW1 8854   3.050   0.877  10.157  0.6217  0.6182  0.0502
 1604SOL    HW2 8855   2.932   0.971  10.161 -0.0449 -0.1635 -0.6991
 1605SOL     OW 8856   0.309   4.766   0.649 -0.7947  0.2025  0.2208
 1605SOL    HW1 8857   0.370   4.705   0.606 -1.9027 -3.2055  3.0103
 1605SOL    HW2 8858   0.363   4.815   0.710  0.3806  3.4311 -3.0687
 1606SOL     OW 8859   5.575   5.807   5.407 -0.2121 -0.4789 -0.4002
 1606SOL    HW1 8860   5.641   5.793   5.475 -0.2026 -0.8488 -0.4847
 1606SOL    HW2 8861   5.493   5.818   5.455  0.0444  0.9334 -0.2377
 1607SOL     OW 8862   0.634   1.245   6.555  0.0053  0.6804  0.3652
 1607SOL    HW1 8863   0.634   1.149   6.561 -0.8427  0.6675  0.3552
 1607SOL    HW2 8864   0.693   1.265   6.483  1.1028  0.2278  1.1059
 1608SOL     OW 8865   2.382   7.597   8.700 -0.1238  0.0508  0.0855
 1608SOL    HW1 8866   2.428   7.580   8.782 -1.8612 -0.9329  0.9027
 1608SOL    HW2 8867   2.426   7.541   8.636  1.0867  0.6398  0.3668
 1609SOL     OW 8868   2.147   0.691   4.619  0.2917 -0.3466 -0.1878
 1609SOL    HW1 8869   2.173   0.730   4.702  1.2720 -0.9014 -0.2235
 1609SOL    HW2 8870   2.212   0.724   4.556  0.0208 -0.5543 -0.5782
 1610SOL     OW 8871   7.833   7.598   7.726 -0.0552  0.1684 -0.2369
 1610SOL    HW1 8872   7.918   7.617   7.764  0.1832 -2.1287  0.5749
 1610SOL    HW2 8873   7.773   7.660   7.766  1.1067  1.3569 -0.3022
 1611SOL     OW 8874   4.212   8.595   6.747 -0.3231  0.2504 -0.3220
 1611SOL    HW1 8875   4.298   8.596   6.790 -0.4754 -0.6419  0.0217
 1611SOL    HW2 8876   4.161   8.661   6.793  0.0811  0.5635 -0.3198
 1612SOL     OW 8877   7.652   4.390   7.224  0.0253 -0.7755 -0.0814
 1612SOL    HW1 8878   7.614   4.307   7.194  0.1182 -1.0355  0.5155
 1612SOL    HW2 8879   7.594   4.419   7.294 -1.0564  0.5849 -1.4569
 1613SOL     OW 8880   2.738   4.156   3.526 -0.2433  0.3387 -0.6719
 1613SOL    HW1 8881   2.719   4.230   3.583  1.6071 -0.0872  0.5749
 1613SOL    HW2 8882   2.783   4.194   3.451  0.6709  0.5163 -0.0509
 1614SOL     OW 8883   7.696   1.079   6.389 -0.0930  0.1346 -0.3042
 1614SOL    HW1 8884   7.602   1.061   6.386  0.1583 -1.1973 -0.7529
 1614SOL    HW2 8885   7.736   1.011   6.336  1.3057 -0.6463  1.6168
 1615SOL     OW 8886   0.655   2.930   8.538 -0.2637  0.0049  0.0471
 1615SOL    HW1 8887   0.633   2.930   8.631  0.2853  1.7380  0.2264
 1615SOL    HW2 8888   0.746   2.900   8.535 -0.9757 -2.3192 -0.2050
 1616SOL     OW 8889   4.685   6.212   6.672 -0.1428 -0.0710  0.7491
 1616SOL    HW1 8890   4.690   6.304   6.696 -2.6927 -0.2421  2.3244
 1616SOL    HW2 8891   4.642   6.170   6.747 -1.4594 -2.0549 -1.0112
 1617SOL     OW 8892   0.998   0.923   3.940 -0.1326 -0.6628  0.0018
 1617SOL    HW1 8893   1.052   0.926   4.019 -0.1151 -1.3061  0.0248
 1617SOL    HW2 8894   1.017   0.837   3.901  0.5381 -0.0049 -1.1882
 1618SOL     OW 8895   5.279   0.234   2.393  0.0444 -0.6566  0.0324
 1618SOL    HW1 8896   5.340   0.288   2.443 -0.8739 -1.5869  2.2518
 1618SOL    HW2 8897   5.325   0.151   2.382  1.0261  0.1191 -2.4682
 1619SOL     OW 8898   2.580   4.446   6.722 -0.1154  0.6772 -0.5589
 1619SOL    HW1 8899   2.486   4.443   6.703 -0.0229  0.4737 -0.9918
 1619SOL    HW2 8900   2.615   4.508   6.658  0.1195  0.3818 -0.7194
 1620SOL     OW 8901   8.977   0.248   6.944  0.4641  0.1804  0.1683
 1620SOL    HW1 8902   9.038   0.213   6.879  0.4154 -0.1194  0.2857
 1620SOL    HW2 8903   8.942   0.328   6.903 -0.8539 -0.8976 -0.9198
 1621SOL     OW 8904   9.635   3.330   1.149 -0.2352  0.5638  0.5791
 1621SOL    HW1 8905   9.724   3.364   1.143 -0.0045  0.0691  1.0833
 1621SOL    HW2 8906   9.581   3.407   1.168 -0.0106  0.9657 -0.3489
 1622SOL     OW 8907   8.600   8.957   9.118 -0.1437 -0.1764  0.6089
 1622SOL    HW1 8908   8.624   9.000   9.036 -0.2572  1.1151  1.2285
 1622SOL    HW2 8909   8.507   8.938   9.109 -0.0115 -0.6342  0.1843
 1623SOL     OW 8910   6.575   9.751   0.726  0.5805  1.1029 -0.8800
 1623SOL    HW1 8911   6.485   9.759   0.757  0.2335 -0.7878 -1.2496
 1623SOL    HW2 8912   6.568   9.751   0.630  0.6241 -1.3479 -0.9605
 1624SOL     OW 8913   2.186   5.643   4.465 -0.3960  0.5593 -0.2874
 1624SOL    HW1 8914   2.221   5.681   4.384 -1.8425  0.0720 -1.1751
 1624SOL    HW2 8915   2.132   5.570   4.436 -1.4932  0.7986  1.0655
 1625SOL     OW 8916   0.436   0.734   3.395  0.5476 -0.4121 -0.1199
 1625SOL    HW1 8917   0.350   0.770   3.418 -0.0184 -1.8715  0.1596
 1625SOL    HW2 8918   0.456   0.673   3.465  1.9359  0.0794 -0.0757
 1626SOL     OW 8919   2.931   3.093   6.356 -0.4143  0.3434  0.2950
 1626SOL    HW1 8920   2.994   3.156   6.391 -0.5754  0.9469 -0.4630
 1626SOL    HW2 8921   2.846   3.135   6.370 -0.5223  0.3053 -0.2241
 1627SOL     OW 8922   1.028   9.912   7.774 -0.0327  0.1997  0.6506
 1627SOL    HW1 8923   0.998   9.940   7.860  0.8979 -2.2046  1.8567
 1627SOL    HW2 8924   0.954   9.865   7.736  0.5321 -1.4480  1.5171
 1628SOL     OW 8925  10.097   3.003   8.755  0.1496  0.3826 -0.6634
 1628SOL    HW1 8926  10.169   2.961   8.801 -0.5753 -0.3719 -0.2057
 1628SOL    HW2 8927  10.050   2.932   8.712 -3.1284  0.0776  2.8550
 1629SOL     OW 8928   9.358   2.172   7.802  0.2778 -0.3596  0.3317
 1629SOL    HW1 8929   9.282   2.116   7.819 -0.1225  0.2068  0.4236
 1629SOL    HW2 8930   9.337   2.255   7.846  0.9779 -0.2247  0.4110
 1630SOL     OW 8931   9.127   3.578   9.507  0.5031 -0.4280 -0.5813
 1630SOL    HW1 8932   9.217   3.608   9.492 -0.4472  1.6379 -2.6790
 1630SOL    HW2 8933   9.119   3.575   9.603  2.8566 -0.9613 -0.3313
 1631SOL     OW 8934   6.915   5.381   3.658 -0.0383  0.2979 -0.6294
 1631SOL    HW1 8935   6.862   5.461   3.658  0.6361  0.9044 -3.8399
 1631SOL    HW2 8936   6.996   5.406   3.704  0.0083  1.3915 -1.2509
 1632SOL     OW 8937  10.068   3.654   5.046  0.2915  0.1744 -0.0607
 1632SOL    HW1 8938  10.078   3.639   5.140  0.6957  0.7140 -0.0100
 1632SOL    HW2 8939  10.126   3.728   5.028  1.2658 -0.7860 -0.9969
 1633SOL     OW 8940   2.256   6.108   2.336 -0.7202  0.0952  0.0430
 1633SOL    HW1 8941   2.318   6.082   2.268 -1.0603 -1.7037  0.3785
 1633SOL    HW2 8942   2.300   6.179   2.383  0.9531 -0.9362  0.0824
 1634SOL     OW 8943   5.616   5.542   6.708 -0.1885 -0.0630 -0.1842
 1634SOL    HW1 8944   5.533   5.505   6.678 -0.4192  0.9383 -0.8135
 1634SOL    HW2 8945   5.651   5.475   6.767 -0.6760 -1.1959 -1.1329
 1635SOL     OW 8946   5.864   4.987   4.015  0.3936  0.1893 -0.4913
 1635SOL    HW1 8947   5.946   4.962   4.058 -0.2725 -1.3622 -0.0324
 1635SOL    HW2 8948   5.851   4.919   3.949 -1.5125 -0.7457  0.7867
 1636SOL     OW 8949   6.073   7.285   3.733 -0.0652 -0.5032 -0.4549
 1636SOL    HW1 8950   6.025   7.204   3.718 -2.5735  0.6900  0.5352
 1636SOL    HW2 8951   6.038   7.346   3.668  2.2135 -0.2856 -1.5882
 1637SOL     OW 8952   3.746   2.542   3.344  0.1071  0.7310 -0.4045
 1637SOL    HW1 8953   3.808   2.507   3.281 -1.1309  0.2540 -1.3865
 1637SOL    HW2 8954   3.685   2.594   3.292 -0.6609  0.7110  0.4490
 1638SOL     OW 8955   6.017   3.155   2.295 -0.4454  0.3691  0.0629
 1638SOL    HW1 8956   5.924   3.133   2.283 -0.4407  0.1013  0.4944
 1638SOL    HW2 8957   6.016   3.220   2.365 -0.1610 -1.1057  1.4953
 1639SOL     OW 8958   0.597   4.866   5.927 -0.0814 -0.1541  0.3101
 1639SOL    HW1 8959   0.568   4.783   5.889 -0.9343  0.0588  0.4760
 1639SOL    HW2 8960   0.525   4.893   5.984  1.0888 -0.3806  1.9784
 1640SOL     OW 8961   4.908   5.213   0.045  0.2392  0.3488 -0.1769
 1640SOL    HW1 8962   4.816   5.207   0.020 -0.1234  0.5265  1.0616
 1640SOL    HW2 8963   4.917   5.301   0.081  1.3597  1.0555 -1.9960
 1641SOL     OW 8964   0.223   9.579   5.124 -0.2087 -0.1125  0.1089
 1641SOL    HW1 8965   0.272   9.579   5.206  0.4549  0.6991 -0.2703
 1641SOL    HW2 8966   0.145   9.527   5.142  0.4141 -0.7843  0.9573
 1642SOL     OW 8967   7.878   7.428   1.357 -0.1691  0.1575  0.0919
 1642SOL    HW1 8968   7.842   7.417   1.445  1.2730 -0.4846  0.6304
 1642SOL    HW2 8969   7.946   7.495   1.366  1.3860 -1.3271 -0.0680
 1643SOL     OW 8970   6.771   6.041   5.567  1.0984 -0.2025  0.0279
 1643SOL    HW1 8971   6.769   6.006   5.477 -1.2278 -1.9328  0.6556
 1643SOL    HW2 8972   6.780   5.963   5.622  1.4981  0.7509  1.3511
 1644SOL     OW 8973   7.136   9.416   6.938  0.1682 -0.0756 -0.4569
 1644SOL    HW1 8974   7.054   9.428   6.890 -0.9843 -0.3931  1.3432
 1644SOL    HW2 8975   7.138   9.488   7.001  1.2126 -0.1687 -0.3640
 1645SOL     OW 8976   9.293   4.532   0.121  0.0474  0.0261  0.2045
 1645SOL    HW1 8977   9.208   4.575   0.127  0.3924  0.7726 -0.2166
 1645SOL    HW2 8978   9.341   4.581   0.054  0.1662 -1.4847 -0.8778
 1646SOL     OW 8979   0.614   4.798  10.271  0.5671  0.0017  0.0296
 1646SOL    HW1 8980   0.660   4.816  10.353  2.2907 -1.0647 -0.6545
 1646SOL    HW2 8981   0.672   4.832  10.202 -0.6870  0.5684 -0.7908
 1647SOL     OW 8982   2.787   2.154   8.081  0.2470 -0.2596  0.2457
 1647SOL    HW1 8983   2.717   2.161   8.146  1.6215 -0.1043  1.7644
 1647SOL    HW2 8984   2.858   2.111   8.128  1.3013 -0.1034 -1.1653
 1648SOL     OW 8985   6.612   3.368   3.398 -0.1318 -0.4074  0.2537
 1648SOL    HW1 8986   6.553   3.404   3.333  2.5246  1.7033 -1.1965
 1648SOL    HW2 8987   6.622   3.276   3.373 -1.5571 -0.4148 -0.3814
 1649SOL     OW 8988   1.494   4.949   9.509  0.5350  0.1431  0.4104
 1649SOL    HW1 8989   1.545   4.951   9.428 -0.4615  3.1116 -0.2467
 1649SOL    HW2 8990   1.453   4.862   9.508  1.4145 -0.3308 -1.6657
 1650SOL     OW 8991   2.136   6.540   4.892 -0.0193  0.4381 -0.3883
 1650SOL    HW1 8992   2.044   6.524   4.871  0.2357 -1.2051 -0.3798
 1650SOL    HW2 8993   2.143   6.521   4.986  0.4150  0.0570 -0.4923
 1651SOL     OW 8994   8.709   8.398   2.393 -0.5526 -0.4408  0.3519
 1651SOL    HW1 8995   8.772   8.466   2.416 -0.8165 -1.0405  3.2920
 1651SOL    HW2 8996   8.742   8.361   2.311 -0.2721  2.9605 -1.2193
 1652SOL     OW 8997   5.192   1.170   6.557  0.4369  0.1983 -0.0228
 1652SOL    HW1 8998   5.211   1.153   6.464  1.1341  1.2983 -0.1050
 1652SOL    HW2 8999   5.106   1.212   6.556 -0.3021 -1.2650 -0.0082
 1653SOL     OW 9000   7.896   6.728   6.253  0.6545  0.7886  0.0738
 1653SOL    HW1 9001   7.891   6.806   6.308  1.1419  2.2292 -1.8085
 1653SOL    HW2 9002   7.810   6.686   6.262  0.4442  1.4408  1.2450
 1654SOL     OW 9003   0.270   3.036   8.736  0.1348  0.5327 -0.7512
 1654SOL    HW1 9004   0.232   2.949   8.729  3.6484 -1.2199 -0.6454
 1654SOL    HW2 9005   0.285   3.063   8.645 -2.5186  1.9475 -0.8679
 1655SOL     OW 9006   2.012   8.427   1.647 -0.7201  0.2509  0.6808
 1655SOL    HW1 9007   2.048   8.425   1.558 -1.1806 -0.2755  0.4986
 1655SOL    HW2 9008   2.017   8.519   1.673  0.6919  0.2030  0.6450
 1656SOL     OW 9009   4.374   8.092   2.289 -0.1648  0.6639 -0.7659
 1656SOL    HW1 9010   4.327   8.129   2.363  1.1776  0.6958  0.0969
 1656SOL    HW2 9011   4.390   8.166   2.230  0.6545  1.0704 -0.0501
 1657SOL     OW 9012   7.102   3.895   9.661 -0.0760 -0.7482  0.1136
 1657SOL    HW1 9013   7.009   3.883   9.679 -0.5905  0.6954 -1.3435
 1657SOL    HW2 9014   7.117   3.851   9.577  0.2595 -0.0067 -0.2366
 1658SOL     OW 9015   8.920   5.192   2.828  0.0933  0.4818 -0.0300
 1658SOL    HW1 9016   8.982   5.154   2.765 -0.4580  0.9074 -0.8590
 1658SOL    HW2 9017   8.836   5.151   2.806  0.0083  0.1924  0.8295
 1659SOL     OW 9018   8.405   0.727   3.350 -0.6252 -0.1518 -0.2664
 1659SOL    HW1 9019   8.332   0.674   3.319 -1.1989  0.4572  0.0078
 1659SOL    HW2 9020   8.369   0.816   3.355 -0.5329 -0.1816  1.9241
 1660SOL     OW 9021   3.749   2.593   2.686 -0.4111  0.3596 -0.4899
 1660SOL    HW1 9022   3.689   2.665   2.669  0.2351  1.0303  0.0060
 1660SOL    HW2 9023   3.727   2.527   2.620  1.2759  2.3570 -3.2455
 1661SOL     OW 9024   6.885   6.876   7.508  0.8346 -0.2647  0.5124
 1661SOL    HW1 9025   6.850   6.965   7.506  0.9666 -0.2195  0.0357
 1661SOL    HW2 9026   6.900   6.858   7.601 -0.7412 -0.4038  0.7561
 1662SOL     OW 9027   9.705   8.893   4.545  0.3854 -0.4296  0.0540
 1662SOL    HW1 9028   9.801   8.885   4.546  0.4490  0.0175 -1.1379
 1662SOL    HW2 9029   9.686   8.937   4.462 -0.7284  1.3581  1.2201
 1663SOL     OW 9030   9.349   5.693   5.201  0.0761 -0.0766 -0.4470
 1663SOL    HW1 9031   9.352   5.696   5.296  0.2653  0.4086 -0.4629
 1663SOL    HW2 9032   9.315   5.778   5.175  3.1234  1.1384 -0.9063
 1664SOL     OW 9033   5.520   1.151   0.126 -0.2057 -0.5566 -0.7439
 1664SOL    HW1 9034   5.580   1.177   0.195 -1.3625 -0.9951  0.4733
 1664SOL    HW2 9035   5.511   1.230   0.072 -0.6226  0.3829  0.6225
 1665SOL     OW 9036   0.015   8.846   3.140 -0.1017 -0.0872  0.5651
 1665SOL    HW1 9037   0.020   8.758   3.103 -0.1234 -0.2485  0.9384
 1665SOL    HW2 9038  -0.069   8.847   3.185  0.1492 -0.0666  1.0365
 1666SOL     OW 9039   4.833   9.176   5.475 -0.1270 -0.0383  0.4960
 1666SOL    HW1 9040   4.887   9.144   5.403 -0.7358  0.5303 -0.2275
 1666SOL    HW2 9041   4.746   9.139   5.459 -0.6055  1.1508  0.1653
 1667SOL     OW 9042   4.157   3.462   7.223 -0.0871  0.2369  0.2105
 1667SOL    HW1 9043   4.118   3.385   7.181  1.2115 -0.3495  0.0476
 1667SOL    HW2 9044   4.083   3.507   7.264 -1.2398  0.1825 -1.6858
 1668SOL     OW 9045   7.205   0.460   7.073  0.2013 -0.9082  0.4610
 1668SOL    HW1 9046   7.193   0.365   7.077  0.6946 -1.0722 -1.1489
 1668SOL    HW2 9047   7.167   0.492   7.155 -0.5755 -2.4231  0.7438
 1669SOL     OW 9048   0.821   1.602   5.034 -0.7982  0.4895  0.1577
 1669SOL    HW1 9049   0.739   1.610   4.984 -0.9312  0.7528  0.4132
 1669SOL    HW2 9050   0.885   1.570   4.971 -0.9763  0.7741 -0.1721
 1670SOL     OW 9051   1.634   4.799   8.916 -0.3164  0.6087 -0.6617
 1670SOL    HW1 9052   1.559   4.850   8.947  0.1504  0.3336  0.9797
 1670SOL    HW2 9053   1.709   4.858   8.924 -0.1507  0.4725 -1.1313
 1671SOL     OW 9054   5.222   1.887   8.621  0.1292  0.8034 -0.1421
 1671SOL    HW1 9055   5.287   1.836   8.572 -0.2717  2.4389 -2.5469
 1671SOL    HW2 9056   5.267   1.911   8.702 -0.1640 -4.5244  2.0563
 1672SOL     OW 9057   1.163   9.544   7.926 -0.2020 -0.2569  0.7433
 1672SOL    HW1 9058   1.248   9.510   7.953  0.8099  0.4906 -1.2450
 1672SOL    HW2 9059   1.099   9.487   7.968  1.3377 -2.9048 -0.2822
 1673SOL     OW 9060   7.158   3.898   8.130 -0.5270 -0.6677 -0.2107
 1673SOL    HW1 9061   7.168   3.924   8.039  2.2060  0.2441  0.2613
 1673SOL    HW2 9062   7.160   3.980   8.179  0.1600 -1.2485  0.7707
 1674SOL     OW 9063   4.113   3.824   7.135 -0.2487 -0.1357  0.4873
 1674SOL    HW1 9064   4.169   3.751   7.163 -1.7400 -1.4715  0.1299
 1674SOL    HW2 9065   4.127   3.829   7.040 -0.1914  0.0085  0.5036
 1675SOL     OW 9066   4.718   9.303   2.990 -0.2154  0.3131  0.2661
 1675SOL    HW1 9067   4.809   9.275   3.001 -0.9242 -1.6693  1.7276
 1675SOL    HW2 9068   4.693   9.339   3.075 -0.9293  0.3920  0.0316
 1676SOL     OW 9069   0.683   6.737   0.105 -0.0958 -0.8153 -0.6243
 1676SOL    HW1 9070   0.596   6.747   0.145 -0.1837  0.8699 -1.1585
 1676SOL    HW2 9071   0.744   6.757   0.175 -0.1809 -0.6009 -0.6098
 1677SOL     OW 9072   5.769   1.182   2.557  0.7287 -0.3927  0.2923
 1677SOL    HW1 9073   5.755   1.091   2.532  0.3389 -0.5420  1.0225
 1677SOL    HW2 9074   5.750   1.232   2.478 -0.5060 -0.8493  0.2709
 1678SOL     OW 9075   8.630   8.269   6.974  0.1041 -0.3516 -0.0981
 1678SOL    HW1 9076   8.545   8.293   6.937 -0.1278  0.4519  0.9234
 1678SOL    HW2 9077   8.666   8.350   7.008  1.0415 -0.7866 -0.0190
 1679SOL     OW 9078   6.866   7.351  10.224  0.0078 -0.3083  0.0493
 1679SOL    HW1 9079   6.807   7.425  10.222  0.5053  0.1100  0.5243
 1679SOL    HW2 9080   6.852   7.306  10.140  1.6977  1.8947 -1.5406
 1680SOL     OW 9081   5.998   8.941  10.211  0.5010  0.1228 -0.5937
 1680SOL    HW1 9082   5.919   8.996  10.209  1.4286  1.5829  0.7188
 1680SOL    HW2 9083   6.065   8.994  10.169  1.4850  0.1415  0.9353
 1681SOL     OW 9084   7.835   1.054   4.904  0.2952 -0.1389 -0.0305
 1681SOL    HW1 9085   7.766   0.989   4.918 -0.3983  0.3793 -0.9244
 1681SOL    HW2 9086   7.828   1.113   4.979 -0.8690  0.4438 -0.5702
 1682SOL     OW 9087   4.440   9.834   0.318 -0.0201  0.0401 -0.0211
 1682SOL    HW1 9088   4.452   9.791   0.402 -0.1754  1.0973  0.5576
 1682SOL    HW2 9089   4.361   9.886   0.328  0.4114  0.8270 -0.5320
 1683SOL     OW 9090   7.642   9.312   8.890  0.2999 -0.2041 -0.4091
 1683SOL    HW1 9091   7.586   9.348   8.959  1.0945  0.3642 -0.0416
 1683SOL    HW2 9092   7.583   9.299   8.816 -0.3912  0.0402  0.0865
 1684SOL     OW 9093  10.110   3.839   5.326 -0.0782 -0.2411  0.4637
 1684SOL    HW1 9094  10.086   3.747   5.318 -0.7905 -0.1651  1.5286
 1684SOL    HW2 9095  10.206   3.839   5.325 -0.0727 -0.7781 -1.5056
 1685SOL     OW 9096   3.208  10.275   3.626  0.6270  0.5429 -0.0498
 1685SOL    HW1 9097   3.157  10.209   3.579  0.5386  0.3893  0.2655
 1685SOL    HW2 9098   3.281  10.294   3.567 -0.5644  1.8613 -1.2154
 1686SOL     OW 9099   1.961   3.232   3.880  0.1368 -0.1559 -0.2344
 1686SOL    HW1 9100   1.872   3.201   3.867 -0.7386  1.3837  1.5253
 1686SOL    HW2 9101   1.951   3.312   3.931  2.4342  1.2301 -1.7831
 1687SOL     OW 9102   8.259   8.952   3.015  0.2559  0.2980  0.2727
 1687SOL    HW1 9103   8.171   8.983   3.036 -0.6460 -1.2603 -0.9489
 1687SOL    HW2 9104   8.256   8.858   3.035  0.8746 -0.2548 -1.9969
 1688SOL     OW 9105   7.690   8.927   8.789  0.0178  0.3313  0.4674
 1688SOL    HW1 9106   7.606   8.972   8.799  0.8164  2.5281 -1.6941
 1688SOL    HW2 9107   7.674   8.860   8.723 -0.4353 -0.5112  1.4106
 1689SOL     OW 9108   4.682   6.273   5.969  0.1084 -0.1974  0.2054
 1689SOL    HW1 9109   4.772   6.268   6.001  0.2603 -0.0342 -0.1879
 1689SOL    HW2 9110   4.691   6.298   5.877 -0.2864 -1.3662 -0.1694
 1690SOL     OW 9111   1.112   4.977   1.975 -0.5458  0.0600  0.2538
 1690SOL    HW1 9112   1.034   4.992   2.029 -0.4379 -2.5289  1.2744
 1690SOL    HW2 9113   1.082   4.921   1.904 -0.1378  1.2950 -0.9248
 1691SOL     OW 9114   5.538   5.332   8.254  0.1166  0.3124  0.3075
 1691SOL    HW1 9115   5.591   5.252   8.257 -0.5203 -0.1307  0.0233
 1691SOL    HW2 9116   5.479   5.323   8.329  0.6963  0.9909  0.8577
 1692SOL     OW 9117   1.553   8.016   1.601  0.2128  0.2719 -0.2873
 1692SOL    HW1 9118   1.569   7.928   1.633 -1.4483 -0.1160 -0.4662
 1692SOL    HW2 9119   1.458   8.027   1.605  0.1908  1.2610 -2.3257
 1693SOL     OW 9120   0.429   0.574   1.444 -0.5561  0.6532 -0.2384
 1693SOL    HW1 9121   0.498   0.507   1.451  0.0708  1.4372  1.9261
 1693SOL    HW2 9122   0.347   0.524   1.441 -0.0223 -0.2383 -0.5500
 1694SOL     OW 9123   5.686   7.280   0.156 -0.0114  0.1237 -0.2539
 1694SOL    HW1 9124   5.733   7.317   0.231 -0.6001 -0.9257  0.6717
 1694SOL    HW2 9125   5.608   7.241   0.195 -0.0691 -0.9034 -1.3588
 1695SOL     OW 9126   4.953   1.987   6.950  0.0674 -0.7867  1.3307
 1695SOL    HW1 9127   4.968   1.912   6.893 -0.0767 -0.2949  0.6338
 1695SOL    HW2 9128   5.037   2.002   6.994 -0.2381 -2.1084  2.4060
 1696SOL     OW 9129   4.840   2.693   6.624 -0.6189 -0.6629 -0.1079
 1696SOL    HW1 9130   4.805   2.747   6.695 -2.0608 -1.6319 -0.0414
 1696SOL    HW2 9131   4.824   2.603   6.652  0.8116 -1.1314 -0.6866
 1697SOL     OW 9132   2.324   9.415   5.238 -0.1313  0.2050  0.0089
 1697SOL    HW1 9133   2.263   9.344   5.217 -0.1323 -0.1499  1.1379
 1697SOL    HW2 9134   2.369   9.434   5.155 -0.4570 -0.7904 -0.4050
 1698SOL     OW 9135   2.783   8.801   8.142 -0.3139 -0.1367  0.4722
 1698SOL    HW1 9136   2.829   8.777   8.061  0.9538  1.0929  0.7874
 1698SOL    HW2 9137   2.816   8.740   8.207 -0.3310 -0.2772  0.3502
 1699SOL     OW 9138   5.081   4.220   9.850 -0.1550 -0.0895  0.2906
 1699SOL    HW1 9139   5.032   4.139   9.867 -0.0747  0.1867  2.0718
 1699SOL    HW2 9140   5.019   4.290   9.869  0.0515  0.2713 -0.3549
 1700SOL     OW 9141   5.498   9.005   1.839 -0.3972 -0.3507  0.1129
 1700SOL    HW1 9142   5.535   9.090   1.861  1.0152 -0.5456 -1.2426
 1700SOL    HW2 9143   5.407   9.023   1.815 -0.9484  0.3231  2.5022
 1701SOL     OW 9144   3.961   6.725   4.456  0.1635  0.2696 -0.0214
 1701SOL    HW1 9145   4.005   6.810   4.457  1.8233 -0.5273 -0.6160
 1701SOL    HW2 9146   3.896   6.730   4.526  0.6638  1.7923  0.3692
 1702SOL     OW 9147   5.660   9.941   7.839 -0.3154 -0.2728  0.1337
 1702SOL    HW1 9148   5.615   9.910   7.760 -1.4473 -0.2084  0.7246
 1702SOL    HW2 9149   5.706  10.020   7.811 -0.6109 -0.3137 -0.4880
 1703SOL     OW 9150   6.958   3.691   3.947  0.0564  0.0611 -0.3558
 1703SOL    HW1 9151   6.914   3.639   4.015  1.2338  2.3117  2.3563
 1703SOL    HW2 9152   6.892   3.754   3.918  0.6463  1.9464  2.0478
 1704SOL     OW 9153   1.568   3.732  10.054  0.5968 -0.3644 -0.0985
 1704SOL    HW1 9154   1.487   3.780  10.033  1.4975  1.3967  0.2402
 1704SOL    HW2 9155   1.542   3.671  10.123 -0.5086 -0.0339 -0.1948
 1705SOL     OW 9156   4.786   0.245   6.064 -0.2113 -0.5562 -0.1819
 1705SOL    HW1 9157   4.798   0.336   6.093  0.1486 -0.5755 -0.2665
 1705SOL    HW2 9158   4.766   0.252   5.971  1.3733 -0.6353 -0.5647
 1706SOL     OW 9159   7.943   1.117   9.049 -0.2230 -0.0021 -0.0434
 1706SOL    HW1 9160   7.891   1.071   9.114  0.0005 -1.0141 -0.5680
 1706SOL    HW2 9161   8.031   1.080   9.056 -0.2599 -0.3299 -1.1018
 1707SOL     OW 9162   9.601   0.207   5.603  0.0681  0.0524 -0.0981
 1707SOL    HW1 9163   9.648   0.277   5.557  0.0585 -0.7741 -1.4247
 1707SOL    HW2 9164   9.634   0.212   5.693  1.6329  0.4339 -0.6476
 1708SOL     OW 9165   2.844   5.369   1.019 -0.0586  0.2695  0.0912
 1708SOL    HW1 9166   2.779   5.305   0.991 -1.0755  0.3303  2.1124
 1708SOL    HW2 9167   2.859   5.424   0.942  0.2063 -1.8242 -1.4464
 1709SOL     OW 9168   3.893   1.934   2.300  0.2655 -0.3411  0.2404
 1709SOL    HW1 9169   3.945   1.854   2.305  0.0903 -0.4475  0.3583
 1709SOL    HW2 9170   3.809   1.906   2.264  0.1353 -0.2457  0.4647
 1710SOL     OW 9171   4.736   7.857   1.896  0.5786  0.0104  0.2057
 1710SOL    HW1 9172   4.716   7.951   1.887 -2.4900 -0.5809 -0.2086
 1710SOL    HW2 9173   4.765   7.831   1.809  0.8514  0.4443  0.1613
 1711SOL     OW 9174   5.869   2.487   7.400  0.0044  0.1901 -0.1261
 1711SOL    HW1 9175   5.889   2.411   7.454 -0.4335 -0.4929 -0.8976
 1711SOL    HW2 9176   5.774   2.497   7.406 -0.0948 -0.1086 -1.0203
 1712SOL     OW 9177   2.326   9.199   0.864 -0.7770 -0.2134 -0.0734
 1712SOL    HW1 9178   2.354   9.108   0.857  1.7824  0.5597 -0.9793
 1712SOL    HW2 9179   2.231   9.195   0.854 -0.5231 -2.5342 -3.2913
 1713SOL     OW 9180   3.048   2.305   9.007 -0.4563  0.3097 -0.2913
 1713SOL    HW1 9181   3.010   2.390   9.030  0.4924  0.9680 -1.0807
 1713SOL    HW2 9182   2.973   2.246   9.003 -1.2559  1.3123 -0.5947
 1714SOL     OW 9183   5.158   6.602   5.711  0.1400  0.0381 -0.1023
 1714SOL    HW1 9184   5.104   6.576   5.636 -0.4985 -2.4017  1.0922
 1714SOL    HW2 9185   5.111   6.570   5.787  1.1410  1.8025  1.3252
 1715SOL     OW 9186   7.642   8.399   4.155  0.0303  0.2584  0.5981
 1715SOL    HW1 9187   7.701   8.361   4.220 -0.3971 -0.9697  0.2815
 1715SOL    HW2 9188   7.558   8.406   4.200 -0.0305  0.3034  0.4766
 1716SOL     OW 9189   4.121   7.232   6.801  1.0382  0.1172  0.2760
 1716SOL    HW1 9190   4.123   7.203   6.710  0.4543  0.5824  0.1066
 1716SOL    HW2 9191   4.062   7.307   6.801  1.6157  0.5846  0.9128
 1717SOL     OW 9192   9.469   6.263   5.936 -0.4776 -0.2241  0.2328
 1717SOL    HW1 9193   9.496   6.263   5.845 -0.6414 -2.5563  0.1072
 1717SOL    HW2 9194   9.384   6.308   5.937  1.1323  3.0368 -0.1100
 1718SOL     OW 9195   4.098   2.550  10.172  0.5283  0.0072 -0.1447
 1718SOL    HW1 9196   4.063   2.469  10.209 -1.5137  0.6515 -0.5147
 1718SOL    HW2 9197   4.175   2.523  10.123 -1.4960 -2.2061 -2.4199
 1719SOL     OW 9198   0.680   4.764   0.824  0.1980 -0.3369  0.3737
 1719SOL    HW1 9199   0.624   4.728   0.755  1.2456 -0.9098 -0.1893
 1719SOL    HW2 9200   0.633   4.841   0.855 -1.4643 -1.4222  0.6887
 1720SOL     OW 9201   5.899   2.025   1.656  0.2743 -0.3329  0.2432
 1720SOL    HW1 9202   5.838   2.093   1.629  0.4697 -0.3983 -0.3766
 1720SOL    HW2 9203   5.872   1.947   1.607  1.1294 -0.2413 -0.4049
 1721SOL     OW 9204   4.020   1.558   1.218 -0.1493 -0.3771  0.1434
 1721SOL    HW1 9205   3.966   1.599   1.285 -2.0126 -0.7743 -1.0253
 1721SOL    HW2 9206   4.008   1.464   1.232  3.0301 -0.6596  1.9727
 1722SOL     OW 9207   7.973   6.181   7.910 -0.1343 -0.3175 -0.3232
 1722SOL    HW1 9208   7.954   6.224   7.994 -0.4958 -1.3504  0.1509
 1722SOL    HW2 9209   7.941   6.091   7.922  1.6080 -1.0482 -0.8838
 1723SOL     OW 9210   5.172   9.754   7.413  0.3992  0.0779  0.6404
 1723SOL    HW1 9211   5.267   9.762   7.409  0.3399  0.5698  0.1450
 1723SOL    HW2 9212   5.142   9.839   7.445  0.0921  0.1062  0.2774
 1724SOL     OW 9213   0.134   2.500   3.318  0.4892 -0.1779 -0.0728
 1724SOL    HW1 9214   0.120   2.594   3.319  0.3255 -0.1854 -0.8682
 1724SOL    HW2 9215   0.070   2.467   3.254  0.7139 -0.7969  0.0164
 1725SOL     OW 9216   8.627   0.425   8.539  0.0628  0.2117 -0.5601
 1725SOL    HW1 9217   8.685   0.409   8.613 -0.3827 -0.7999 -0.4095
 1725SOL    HW2 9218   8.650   0.357   8.475  0.0869  0.7504 -1.1270
 1726SOL     OW 9219   2.300   1.112   6.374 -0.4566  0.1401  0.3445
 1726SOL    HW1 9220   2.310   1.188   6.317  1.6517  0.4845  1.0844
 1726SOL    HW2 9221   2.377   1.058   6.355 -0.3536 -0.3254  1.9793
 1727SOL     OW 9222   7.272   9.740   8.265  0.6819 -0.1154 -0.0395
 1727SOL    HW1 9223   7.280   9.785   8.349  0.0300 -2.3200  1.3003
 1727SOL    HW2 9224   7.180   9.749   8.241  1.4455  3.3474 -2.3369
 1728SOL     OW 9225   9.278   4.058  10.014  0.1596  0.1121 -0.7634
 1728SOL    HW1 9226   9.313   4.126   9.957  1.1251 -0.5214 -0.9491
 1728SOL    HW2 9227   9.183   4.062  10.001  0.1325  1.7650 -0.3727
 1729SOL     OW 9228   4.095   8.287   8.873 -0.1022  0.5004 -0.3865
 1729SOL    HW1 9229   4.142   8.353   8.924  0.3635 -0.6376  0.6999
 1729SOL    HW2 9230   4.056   8.336   8.800  0.0111  2.0026  0.5304
 1730SOL     OW 9231   4.500   9.742   6.768 -0.0514  0.0349  0.6473
 1730SOL    HW1 9232   4.444   9.813   6.800 -0.2571 -0.0733  0.5314
 1730SOL    HW2 9233   4.562   9.786   6.709 -1.2438 -0.1095 -0.7452
 1731SOL     OW 9234   3.350   8.319   2.671 -0.0183 -0.0587 -0.0631
 1731SOL    HW1 9235   3.416   8.360   2.615 -0.4794  1.5248  0.5194
 1731SOL    HW2 9236   3.270   8.319   2.619 -0.0435 -0.1373 -0.0252
 1732SOL     OW 9237   8.233   9.631   5.810 -0.0435 -0.2182 -0.7930
 1732SOL    HW1 9238   8.323   9.622   5.781 -0.6730 -0.5023 -2.7677
 1732SOL    HW2 9239   8.214   9.724   5.798  0.2628  0.0378  0.5576
 1733SOL     OW 9240   1.951   4.180   8.321  0.0079 -0.1155 -0.1709
 1733SOL    HW1 9241   1.863   4.162   8.287 -0.2881 -0.6624  0.8274
 1733SOL    HW2 9242   1.987   4.093   8.341 -0.2780  0.1960  1.9423
 1734SOL     OW 9243   5.140   8.855   8.125  0.4541 -0.1255  0.3819
 1734SOL    HW1 9244   5.059   8.884   8.082  1.1298  0.7569 -0.3078
 1734SOL    HW2 9245   5.123   8.867   8.219  0.0925  0.8718  0.1955
 1735SOL     OW 9246   4.510   5.878   1.651  0.1965  0.0960  0.4770
 1735SOL    HW1 9247   4.543   5.918   1.731 -0.9459  1.0468  0.5096
 1735SOL    HW2 9248   4.550   5.791   1.649  1.4421  0.6208  1.2727
 1736SOL     OW 9249   6.047   2.087   0.231  0.2837 -0.4508  0.3448
 1736SOL    HW1 9250   6.006   2.016   0.280  2.2079 -1.2515  0.8942
 1736SOL    HW2 9251   5.998   2.092   0.149 -0.8662 -1.3615  0.9531
 1737SOL     OW 9252   2.318  10.145   7.542  0.1499 -0.1158  0.1144
 1737SOL    HW1 9253   2.322  10.228   7.495 -0.2270 -0.5325 -0.6711
 1737SOL    HW2 9254   2.238  10.103   7.511 -0.6929  0.0521  1.9205
 1738SOL     OW 9255   1.800   3.199   9.633 -0.5299 -0.6431 -0.5971
 1738SOL    HW1 9256   1.734   3.158   9.578  0.2581 -1.9126 -0.6362
 1738SOL    HW2 9257   1.834   3.272   9.581  1.0505 -2.5144 -2.3825
 1739SOL     OW 9258   3.286   3.707   0.198 -0.2533 -0.1374  0.2876
 1739SOL    HW1 9259   3.326   3.794   0.209  0.2612 -0.5901  2.2972
 1739SOL    HW2 9260   3.214   3.722   0.137 -0.2988  1.7530  0.7317
 1740SOL     OW 9261   9.537  10.199   3.056 -0.1606 -0.1177  1.0785
 1740SOL    HW1 9262   9.532  10.220   2.963  0.1470  1.1904  1.3357
 1740SOL    HW2 9263   9.631  10.198   3.075 -0.1321 -1.9066  1.0800
 1741SOL     OW 9264   8.707   8.675   1.266 -0.1730 -0.1376 -0.0078
 1741SOL    HW1 9265   8.775   8.608   1.264 -1.0007 -1.0006  0.0623
 1741SOL    HW2 9266   8.695   8.700   1.175 -0.9133 -1.1903 -0.2134
 1742SOL     OW 9267   3.717   8.894   5.453 -0.3794  0.0916 -0.4618
 1742SOL    HW1 9268   3.701   8.800   5.447 -1.2319  0.3278 -2.3569
 1742SOL    HW2 9269   3.631   8.931   5.473 -0.0665  0.4964  0.1636
 1743SOL     OW 9270   7.657   4.685   2.816  0.2091  0.2402 -0.3717
 1743SOL    HW1 9271   7.749   4.658   2.807  0.1881 -0.6675  1.5716
 1743SOL    HW2 9272   7.659   4.780   2.808  1.4554  0.3037  0.4443
 1744SOL     OW 9273  10.073   2.940   2.773 -0.5148  0.4206  0.5120
 1744SOL    HW1 9274   9.982   2.935   2.805 -0.8001  1.0804 -0.1638
 1744SOL    HW2 9275  10.079   2.872   2.707 -0.8757  1.1281 -0.2693
 1745SOL     OW 9276   6.276   2.542   9.843 -0.1194  0.0756  0.3772
 1745SOL    HW1 9277   6.352   2.552   9.900  1.0576 -1.9952 -0.7051
 1745SOL    HW2 9278   6.201   2.560   9.900  1.1134  1.9465  1.5372
 1746SOL     OW 9279   4.488   0.480   6.902  0.3990 -0.1148 -0.2191
 1746SOL    HW1 9280   4.432   0.556   6.884 -2.8386 -1.5579  2.4933
 1746SOL    HW2 9281   4.536   0.505   6.981 -1.0668 -0.9319  0.9915
 1747SOL     OW 9282   4.572   1.587   5.790 -0.0053  0.1016  0.8190
 1747SOL    HW1 9283   4.638   1.523   5.816  0.9644  0.7831  0.0811
 1747SOL    HW2 9284   4.505   1.535   5.745  0.7208 -0.4095  0.3073
 1748SOL     OW 9285   8.054   9.046   4.092 -0.1294  0.2647  0.3847
 1748SOL    HW1 9286   7.959   9.055   4.100  0.0212  0.9500  1.5563
 1748SOL    HW2 9287   8.075   8.967   4.142 -0.0960 -0.0586 -0.1207
 1749SOL     OW 9288   3.819   5.246   9.694  0.1532 -0.2242  0.0113
 1749SOL    HW1 9289   3.767   5.287   9.764  1.7532  0.9986  0.5513
 1749SOL    HW2 9290   3.896   5.211   9.739  1.9217  1.8119 -1.2266
 1750SOL     OW 9291   9.944   3.547   5.708 -0.6957  0.8409 -0.3107
 1750SOL    HW1 9292   9.890   3.488   5.761  0.1457  2.8931  3.1126
 1750SOL    HW2 9293   9.882   3.612   5.674 -1.0565  0.2223 -0.8784
 1751SOL     OW 9294   8.343   2.330   6.875  0.7094  0.2461  0.5189
 1751SOL    HW1 9295   8.355   2.379   6.793  0.1320  1.6305  1.2199
 1751SOL    HW2 9296   8.313   2.244   6.847 -1.5265  1.3225 -0.7080
 1752SOL     OW 9297   4.231   3.375   9.725  0.1856 -0.3480 -0.0097
 1752SOL    HW1 9298   4.282   3.456   9.732 -0.5843  0.3019 -1.4905
 1752SOL    HW2 9299   4.295   3.309   9.697  0.1785  0.6215 -2.6240
 1753SOL     OW 9300   7.789   8.955   9.695  0.1356  0.5226  0.3383
 1753SOL    HW1 9301   7.820   9.039   9.728 -0.2086  0.6381  0.3735
 1753SOL    HW2 9302   7.716   8.933   9.753  0.4542  0.0230  0.5587
 1754SOL     OW 9303   5.146   1.145   5.039 -0.4129 -0.6102 -0.0822
 1754SOL    HW1 9304   5.067   1.142   5.092 -0.2258 -1.6883  0.1539
 1754SOL    HW2 9305   5.210   1.092   5.088  0.0941 -0.7089 -0.8346
 1755SOL     OW 9306   6.286   6.322   3.609  0.1260  0.2788 -0.2527
 1755SOL    HW1 9307   6.380   6.321   3.590  0.3439  0.6410  0.7080
 1755SOL    HW2 9308   6.281   6.343   3.702 -0.8703 -1.1785  0.0492
 1756SOL     OW 9309   9.528   0.180   3.337 -0.0416 -0.3335 -0.1356
 1756SOL    HW1 9310   9.495   0.138   3.416 -0.4172 -0.1103 -0.1714
 1756SOL    HW2 9311   9.585   0.250   3.368  0.3736 -0.6947 -0.0731
 1757SOL     OW 9312   4.634   5.245   3.481  0.1092 -0.0309  0.1417
 1757SOL    HW1 9313   4.554   5.297   3.473  1.2567  1.8771  0.5725
 1757SOL    HW2 9314   4.667   5.239   3.391  1.1954  2.0852  0.3388
 1758SOL     OW 9315   8.881   4.870   1.081 -0.2486  0.8877  0.4805
 1758SOL    HW1 9316   8.908   4.859   1.172 -0.6502  1.7542  0.7128
 1758SOL    HW2 9317   8.941   4.815   1.032  0.5634  1.1235  1.1833
 1759SOL     OW 9318   7.687   0.446   5.210 -0.5725 -0.9875 -0.0550
 1759SOL    HW1 9319   7.648   0.465   5.295 -1.0853 -2.9543  0.1955
 1759SOL    HW2 9320   7.763   0.392   5.230 -0.0053 -0.4990 -0.8053
 1760SOL     OW 9321   3.290  10.204   5.648  0.0100 -0.0159  0.5161
 1760SOL    HW1 9322   3.359  10.141   5.670  0.1581  0.0410  0.2268
 1760SOL    HW2 9323   3.319  10.286   5.689  0.0942 -0.0032  0.4324
 1761SOL     OW 9324   5.766   3.566   0.414  0.1156 -0.0322  0.0806
 1761SOL    HW1 9325   5.712   3.505   0.464 -0.3839 -0.2845 -0.7377
 1761SOL    HW2 9326   5.723   3.571   0.328  0.7656  0.6295 -0.2188
 1762SOL     OW 9327   9.875   0.472   5.164 -0.0293  0.3439 -0.1927
 1762SOL    HW1 9328   9.900   0.383   5.190  0.5596  0.5467 -0.0637
 1762SOL    HW2 9329   9.949   0.504   5.112 -0.0930  0.8799  0.0386
 1763SOL     OW 9330   0.832   0.062   0.687 -0.3898  0.0397 -0.0221
 1763SOL    HW1 9331   0.904   0.069   0.750 -1.4752  1.1051  1.1424
 1763SOL    HW2 9332   0.874   0.082   0.603  0.5588  1.4709  0.7318
 1764SOL     OW 9333   2.366   3.639   6.504 -0.2442 -0.2537  0.1932
 1764SOL    HW1 9334   2.443   3.592   6.471 -0.6303 -1.8168  1.4381
 1764SOL    HW2 9335   2.392   3.731   6.499  2.5029 -0.7654  2.3089
 1765SOL     OW 9336   5.136   7.211   1.588 -0.3839  0.0762  0.2775
 1765SOL    HW1 9337   5.105   7.146   1.525 -0.4470  0.7386 -0.3923
 1765SOL    HW2 9338   5.093   7.292   1.561  2.2082  1.1530 -0.9656
 1766SOL     OW 9339   2.898   5.628   2.010  0.8076  0.1619  0.1559
 1766SOL    HW1 9340   2.919   5.646   1.918 -0.0353  0.0555 -0.0658
 1766SOL    HW2 9341   2.848   5.547   2.008  1.2296 -0.1164  0.7666
 1767SOL     OW 9342   8.567   7.584   1.141 -0.1063 -0.2302  0.0667
 1767SOL    HW1 9343   8.650   7.596   1.095 -1.2016 -0.8800 -2.2370
 1767SOL    HW2 9344   8.546   7.671   1.176  0.1864  0.6473 -1.8160
 1768SOL     OW 9345   4.170   5.092   8.042  0.1360  0.0914  0.7814
 1768SOL    HW1 9346   4.091   5.116   7.994  1.0534 -1.0023 -1.4527
 1768SOL    HW2 9347   4.162   4.997   8.056  2.2836 -0.7512 -2.3287
 1769SOL     OW 9348   1.194   8.750   8.376 -0.0024 -0.2883 -0.0409
 1769SOL    HW1 9349   1.166   8.820   8.435  1.0103  0.2569 -0.1967
 1769SOL    HW2 9350   1.112   8.718   8.337 -0.5468  0.2701  0.6113
 1770SOL     OW 9351   8.551   2.384   2.665  0.1038 -0.0987 -0.4732
 1770SOL    HW1 9352   8.559   2.399   2.571  0.1829 -2.2937 -0.8768
 1770SOL    HW2 9353   8.471   2.429   2.690  0.0103  0.4135 -1.6231
 1771SOL     OW 9354   1.611   2.712   5.528 -0.1507 -0.1907 -0.2754
 1771SOL    HW1 9355   1.658   2.658   5.592  0.6679 -0.1263 -0.8081
 1771SOL    HW2 9356   1.666   2.710   5.450  0.0914  1.7002 -0.1973
 1772SOL     OW 9357   8.267   4.628   4.515  0.2200  0.3783  0.2663
 1772SOL    HW1 9358   8.306   4.716   4.520  0.7865  0.3044 -2.0366
 1772SOL    HW2 9359   8.183   4.642   4.473 -0.3866 -0.0317  1.2993
 1773SOL     OW 9360   1.937   3.827   1.276  0.6207 -0.3975 -0.4034
 1773SOL    HW1 9361   1.932   3.757   1.341  0.2645  0.7831  0.8894
 1773SOL    HW2 9362   1.897   3.789   1.197 -0.6638 -1.2485  0.6168
 1774SOL     OW 9363   5.144   0.153   6.901  0.1960  0.2559 -0.3479
 1774SOL    HW1 9364   5.136   0.113   6.815  1.1351 -1.7902  0.4526
 1774SOL    HW2 9365   5.238   0.155   6.919 -0.0580 -2.1881  1.8085
 1775SOL     OW 9366   7.971   8.897   2.272 -0.4666 -0.1335 -0.1032
 1775SOL    HW1 9367   7.950   8.946   2.193  1.9778 -0.3094 -0.9454
 1775SOL    HW2 9368   8.010   8.815   2.240 -0.9661 -0.9605  1.3009
 1776SOL     OW 9369   9.717   6.811   3.959  0.0539 -0.0703 -0.7365
 1776SOL    HW1 9370   9.633   6.814   3.913  1.1040  0.9366 -2.7234
 1776SOL    HW2 9371   9.781   6.842   3.894  1.7904  0.4251  1.1124
 1777SOL     OW 9372   8.538   5.985   7.767 -0.1704 -0.3364 -0.0009
 1777SOL    HW1 9373   8.467   5.922   7.776 -0.0147 -0.6512 -0.8549
 1777SOL    HW2 9374   8.496   6.062   7.727 -0.3465  0.0945  0.9764
 1778SOL     OW 9375   8.303   7.094   2.598  0.0397 -0.2552  0.0646
 1778SOL    HW1 9376   8.331   7.014   2.554  3.3071  0.7079  0.1491
 1778SOL    HW2 9377   8.281   7.155   2.527  1.7732  0.1165 -0.1945
 1779SOL     OW 9378   1.102   7.446   0.200  0.0945  0.1948 -0.2364
 1779SOL    HW1 9379   1.046   7.397   0.260  0.0969  0.9603  0.4051
 1779SOL    HW2 9380   1.043   7.512   0.162  0.2082  0.0259 -0.7017
 1780SOL     OW 9381   3.224   1.989   2.638  0.3972 -0.2892  0.5165
 1780SOL    HW1 9382   3.252   2.052   2.705  0.4652 -0.4126  0.6031
 1780SOL    HW2 9383   3.160   2.038   2.586  0.0619 -0.3131  0.9026
 1781SOL     OW 9384   3.425   3.115   2.698 -0.3995  0.7084 -0.5075
 1781SOL    HW1 9385   3.346   3.061   2.702  0.3277 -0.3867 -0.6158
 1781SOL    HW2 9386   3.444   3.136   2.789  0.1810 -0.5313 -0.3233
 1782SOL     OW 9387   4.233   5.250   9.580  0.2117  0.4021  0.5039
 1782SOL    HW1 9388   4.251   5.159   9.556  1.1069  0.4409  0.9864
 1782SOL    HW2 9389   4.196   5.245   9.668  0.9376  0.5381  0.8281
 1783SOL     OW 9390   4.662   2.054   3.222 -0.0979 -0.4412 -0.4592
 1783SOL    HW1 9391   4.579   2.068   3.177  0.2893 -0.1459 -1.1007
 1783SOL    HW2 9392   4.672   2.129   3.280 -0.7356 -0.9652  0.3512
 1784SOL     OW 9393   6.684   4.149   0.698  0.0443 -0.1376 -0.0683
 1784SOL    HW1 9394   6.648   4.104   0.623 -0.3376 -0.1977  0.1503
 1784SOL    HW2 9395   6.743   4.215   0.661 -0.7523  0.3731 -0.4553
 1785SOL     OW 9396   4.555   1.256   7.943  0.5824  0.1219 -0.2621
 1785SOL    HW1 9397   4.554   1.322   7.873  1.3064 -2.0902 -2.5331
 1785SOL    HW2 9398   4.478   1.202   7.926  1.3187 -1.0559 -0.0469
 1786SOL     OW 9399   0.678  10.067   2.829 -0.4770  0.5085 -0.4261
 1786SOL    HW1 9400   0.608  10.002   2.820 -0.4628  0.5445 -0.8102
 1786SOL    HW2 9401   0.710  10.056   2.918 -0.3242 -0.1667 -0.5612
 1787SOL     OW 9402   7.194   4.097   6.183 -0.6474  0.7347  0.2146
 1787SOL    HW1 9403   7.277   4.050   6.197  0.0857  1.5829 -1.0886
 1787SOL    HW2 9404   7.191   4.161   6.254 -0.8102 -0.1168  0.9946
 1788SOL     OW 9405   8.900   1.312   7.675 -0.7561  0.0131  0.6102
 1788SOL    HW1 9406   8.889   1.404   7.652 -0.9470 -0.1242  0.1421
 1788SOL    HW2 9407   8.860   1.304   7.761  0.0552  0.5553  1.0503
 1789SOL     OW 9408   6.862   0.937   5.611  0.2596  0.3449  0.7964
 1789SOL    HW1 9409   6.809   0.973   5.682  0.1400  0.5317  0.6137
 1789SOL    HW2 9410   6.837   0.988   5.534  0.6271  0.3676  0.6876
 1790SOL     OW 9411   3.472   6.691   7.412 -0.3953 -0.0355  0.4138
 1790SOL    HW1 9412   3.384   6.718   7.438 -0.8769  1.0184 -2.0017
 1790SOL    HW2 9413   3.504   6.764   7.359  1.6510 -0.7367  0.6226
 1791SOL     OW 9414   9.641   0.417   3.417 -0.2027 -0.4490 -0.3167
 1791SOL    HW1 9415   9.594   0.477   3.359  1.3079  1.9243  0.7818
 1791SOL    HW2 9416   9.729   0.452   3.422  0.6516 -2.5720  0.7340
 1792SOL     OW 9417   1.886   2.607   1.288 -0.0492 -0.0570 -0.6043
 1792SOL    HW1 9418   1.878   2.702   1.280  0.4277 -0.0348 -0.8939
 1792SOL    HW2 9419   1.836   2.585   1.366 -0.0650  0.4494 -0.4677
 1793SOL     OW 9420   3.117   8.037   0.048  0.0246 -0.9156 -0.0851
 1793SOL    HW1 9421   3.123   7.942   0.059 -0.7401 -1.0791 -0.9645
 1793SOL    HW2 9422   3.113   8.071   0.138  1.2897 -1.6266  0.2594
 1794SOL     OW 9423  10.238   9.663   4.406  0.2552  0.0447 -0.5590
 1794SOL    HW1 9424  10.247   9.704   4.321 -1.5766  0.9568 -0.3633
 1794SOL    HW2 9425  10.225   9.736   4.467 -0.4138 -0.6815  0.2013
 1795SOL     OW 9426   1.058   5.254   2.403 -0.3557  0.5368 -0.1051
 1795SOL    HW1 9427   1.104   5.170   2.409 -1.6412 -0.3862 -2.1261
 1795SOL    HW2 9428   1.014   5.264   2.487  2.9218  1.1647  1.6955
 1796SOL     OW 9429   7.487   5.128   3.097  0.1422 -0.1515  0.0437
 1796SOL    HW1 9430   7.560   5.185   3.073  0.5587 -0.0933  1.3668
 1796SOL    HW2 9431   7.519   5.078   3.172 -1.3150  0.1907  0.9417
 1797SOL     OW 9432   0.197   9.061   0.486 -0.0107 -0.6663 -0.0413
 1797SOL    HW1 9433   0.103   9.064   0.467 -0.0944  1.4288  0.4000
 1797SOL    HW2 9434   0.205   8.996   0.555 -1.2290 -0.5059  0.2835
 1798SOL     OW 9435   0.601   7.014   2.437 -0.2303 -0.3854  0.0411
 1798SOL    HW1 9436   0.527   6.954   2.428 -0.2170 -0.6826  1.5854
 1798SOL    HW2 9437   0.569   7.097   2.401 -1.1737 -0.6262  0.2938
 1799SOL     OW 9438   8.327   2.481   2.313  0.4207  0.1894 -0.4216
 1799SOL    HW1 9439   8.378   2.554   2.348 -1.8639  1.2781  0.8387
 1799SOL    HW2 9440   8.299   2.432   2.390 -1.6345  0.4938 -0.9050
 1800SOL     OW 9441   5.760   9.459   4.502  0.1595  0.4785  0.3426
 1800SOL    HW1 9442   5.695   9.498   4.443 -0.4280  0.8960  1.2359
 1800SOL    HW2 9443   5.749   9.507   4.584 -1.1723 -2.0807  1.7691
 1801SOL     OW 9444   7.508   6.329   2.911  0.3224  0.1455 -0.3287
 1801SOL    HW1 9445   7.452   6.390   2.960  0.0464  0.0177 -0.4817
 1801SOL    HW2 9446   7.473   6.242   2.933 -0.3776  0.1242 -1.4396
 1802SOL     OW 9447   3.597   4.944   0.994 -0.4428 -0.5122 -0.0182
 1802SOL    HW1 9448   3.661   5.011   1.020 -2.7297  1.4183  1.0092
 1802SOL    HW2 9449   3.577   4.897   1.076 -1.6835  0.1573  0.0830
 1803SOL     OW 9450   4.605   0.549   7.150  0.3337 -0.2985 -0.6222
 1803SOL    HW1 9451   4.648   0.624   7.192 -2.5492  1.2883 -0.2319
 1803SOL    HW2 9452   4.606   0.481   7.216 -0.4271  0.7607  0.5352
 1804SOL     OW 9453   9.101   8.759   6.721  0.3211 -0.1720 -0.0169
 1804SOL    HW1 9454   9.090   8.780   6.628  0.6037  0.5498  0.1028
 1804SOL    HW2 9455   9.141   8.838   6.758  1.2132 -0.8588  0.5030
 1805SOL     OW 9456   4.845   9.006   8.136 -0.5563  0.1645 -0.0275
 1805SOL    HW1 9457   4.840   9.050   8.051 -0.8088 -0.2642 -0.2341
 1805SOL    HW2 9458   4.916   9.051   8.181 -0.8702  0.8463 -0.2048
 1806SOL     OW 9459   3.016   9.067   2.223 -0.2902  0.0211  0.0422
 1806SOL    HW1 9460   3.073   9.005   2.177  1.9370  1.8840  0.0399
 1806SOL    HW2 9461   3.060   9.082   2.307 -1.5588  0.4904  0.6430
 1807SOL     OW 9462   4.464   7.411   5.913 -0.2385  0.3560  0.3502
 1807SOL    HW1 9463   4.390   7.397   5.973 -0.3111 -0.7795  0.0263
 1807SOL    HW2 9464   4.427   7.396   5.826  0.2853  0.1854  0.1550
 1808SOL     OW 9465   2.436   3.190  10.069  0.4956 -0.2316 -0.2798
 1808SOL    HW1 9466   2.439   3.108  10.019  1.6741  0.6122 -1.6893
 1808SOL    HW2 9467   2.515   3.188  10.123 -0.1532 -0.5921  0.6777
 1809SOL     OW 9468   5.226   3.485   1.493 -0.2332 -0.0567  0.0101
 1809SOL    HW1 9469   5.229   3.553   1.560 -2.0334  0.3449 -0.2689
 1809SOL    HW2 9470   5.256   3.529   1.413 -0.8706  0.2777 -0.0520
 1810SOL     OW 9471   3.969   1.927   3.451  0.0427 -0.0740  0.1983
 1810SOL    HW1 9472   3.931   1.846   3.418 -0.2658  0.5279 -0.9814
 1810SOL    HW2 9473   3.995   1.907   3.541 -1.0443 -1.1443  0.2934
 1811SOL     OW 9474   4.460  10.028   5.350 -0.4335 -0.0819 -0.1232
 1811SOL    HW1 9475   4.408  10.057   5.425  0.7273  2.1303 -0.0651
 1811SOL    HW2 9476   4.526   9.969   5.387 -1.2740 -0.8389  0.1987
 1812SOL     OW 9477   6.591   9.844   5.727  0.4036  0.2593 -0.2705
 1812SOL    HW1 9478   6.534   9.801   5.662 -1.6724  0.8405  1.0525
 1812SOL    HW2 9479   6.618   9.926   5.685 -0.5824  0.4364 -0.5902
 1813SOL     OW 9480   5.351   5.030   2.186 -0.2074  0.2316  0.4502
 1813SOL    HW1 9481   5.300   5.059   2.262  0.9392  0.2664  1.2314
 1813SOL    HW2 9482   5.393   4.949   2.215 -0.3956 -0.2009 -0.4418
 1814SOL     OW 9483   8.766   7.847   3.355 -0.2025  0.3265 -0.1219
 1814SOL    HW1 9484   8.703   7.917   3.371  0.3898  1.2392 -1.5758
 1814SOL    HW2 9485   8.845   7.892   3.324 -0.2560 -1.0166 -2.4608
 1815SOL     OW 9486   1.330   0.172   3.304 -0.0491  0.6761  0.0957
 1815SOL    HW1 9487   1.271   0.106   3.340 -0.6788  0.3905 -1.3879
 1815SOL    HW2 9488   1.292   0.194   3.218  0.2771  2.7919  0.4494
 1816SOL     OW 9489   9.017   2.364   5.759  0.0689 -0.2761  0.4232
 1816SOL    HW1 9490   9.080   2.321   5.817  1.8599  1.8404  0.1838
 1816SOL    HW2 9491   8.943   2.386   5.816  0.9859  0.0896  1.5160
 1817SOL     OW 9492   7.548   5.235   8.887 -0.3316 -0.3118 -0.1815
 1817SOL    HW1 9493   7.513   5.148   8.874 -1.8474 -0.4078  3.4796
 1817SOL    HW2 9494   7.593   5.231   8.972 -2.2041  2.8708  1.1291
 1818SOL     OW 9495   7.546   5.264   1.912 -1.0599  0.1492  0.1113
 1818SOL    HW1 9496   7.637   5.240   1.895 -0.9472  0.0687  0.7836
 1818SOL    HW2 9497   7.532   5.238   2.003 -0.9402  2.5860  0.9054
 1819SOL     OW 9498   0.852   5.893   6.047 -0.1368  0.0648  0.2060
 1819SOL    HW1 9499   0.847   5.941   6.130  0.4950  0.7523 -0.1369
 1819SOL    HW2 9500   0.866   5.802   6.073  2.1317  0.5454  0.8482
 1820SOL     OW 9501   9.618   4.817   4.840 -0.3246 -0.4287 -0.4263
 1820SOL    HW1 9502   9.633   4.857   4.754  0.2723 -0.6323 -0.4181
 1820SOL    HW2 9503   9.652   4.882   4.902 -0.6218 -0.3472 -0.3442
 1821SOL     OW 9504   2.871   0.116   9.596  0.0082  0.3744 -0.6916
 1821SOL    HW1 9505   2.936   0.186   9.589 -0.9771  1.2039 -1.9061
 1821SOL    HW2 9506   2.881   0.083   9.685  0.7273  1.8248 -0.2016
 1822SOL     OW 9507   6.233   3.263   4.659 -0.2346 -0.0090  0.4220
 1822SOL    HW1 9508   6.245   3.357   4.647  0.5651 -0.0056  1.1093
 1822SOL    HW2 9509   6.318   3.232   4.692 -0.0562 -1.2036 -1.0688
 1823SOL     OW 9510   7.616   8.188   3.481 -1.0290  0.5619 -0.5709
 1823SOL    HW1 9511   7.630   8.201   3.387 -2.2166  1.0146 -0.7125
 1823SOL    HW2 9512   7.574   8.270   3.510 -1.5031  0.0715  0.1629
 1824SOL     OW 9513   8.481   7.004   5.505  0.0912 -0.2447  0.2686
 1824SOL    HW1 9514   8.554   6.945   5.485  0.3102 -0.3272  1.2667
 1824SOL    HW2 9515   8.463   6.990   5.598 -0.6534  0.3807  0.2310
 1825SOL     OW 9516   4.924   4.221   7.357 -0.0925 -0.3071 -0.0372
 1825SOL    HW1 9517   4.871   4.226   7.437 -1.5556 -0.2594 -0.9760
 1825SOL    HW2 9518   4.889   4.147   7.309  0.1658  0.2162 -1.0600
 1826SOL     OW 9519   7.306   4.365   9.780  0.1030 -0.1535 -0.1961
 1826SOL    HW1 9520   7.316   4.306   9.855 -0.5260  1.5776  1.3281
 1826SOL    HW2 9521   7.370   4.434   9.795  0.0143  0.1835 -1.3052
 1827SOL     OW 9522   4.126   4.652   2.063 -0.4296  0.2640  0.7929
 1827SOL    HW1 9523   4.114   4.580   2.125 -2.2559 -0.6222 -0.4739
 1827SOL    HW2 9524   4.047   4.705   2.071  0.6818  1.9175  1.3628
 1828SOL     OW 9525   7.988   7.049   5.037 -0.0680 -0.2345 -0.0382
 1828SOL    HW1 9526   7.969   7.005   4.955 -0.3037 -1.5854  0.7164
 1828SOL    HW2 9527   7.963   7.140   5.022  0.7781 -0.2575 -1.7501
 1829SOL     OW 9528   8.783   5.303   0.096 -0.3249  0.2265  0.5086
 1829SOL    HW1 9529   8.862   5.317   0.043 -0.5982  0.9295  0.2649
 1829SOL    HW2 9530   8.805   5.232   0.155  0.6781  0.7561  0.7927
 1830SOL     OW 9531   9.675   0.916   5.902 -0.3448  0.0863 -0.6068
 1830SOL    HW1 9532   9.739   0.974   5.944  0.0536 -0.7074 -0.1009
 1830SOL    HW2 9533   9.721   0.882   5.825  0.5497 -1.8900  0.7122
 1831SOL     OW 9534   8.049   2.595   5.626 -0.1332  0.0972  0.8315
 1831SOL    HW1 9535   8.086   2.508   5.611 -0.7456  0.0331 -0.5240
 1831SOL    HW2 9536   8.102   2.632   5.697 -0.4059 -1.6801  2.0104
 1832SOL     OW 9537   2.886   7.210   1.833  0.1432 -0.1202 -0.1976
 1832SOL    HW1 9538   2.951   7.281   1.835 -1.6139  1.5709 -0.4829
 1832SOL    HW2 9539   2.816   7.243   1.778 -0.5492 -2.3067 -0.7044
 1833SOL     OW 9540   2.040   1.834   3.599  0.0468 -0.3658 -0.0632
 1833SOL    HW1 9541   2.126   1.844   3.559  0.5938  0.9151  1.3577
 1833SOL    HW2 9542   2.058   1.807   3.689 -1.0618 -0.5162  0.1320
 1834SOL     OW 9543   4.363   9.236   3.739  0.2700 -0.7629  0.6433
 1834SOL    HW1 9544   4.270   9.248   3.723  0.7516  1.7122 -0.8832
 1834SOL    HW2 9545   4.368   9.172   3.809 -2.5635 -0.9824  0.7328
 1835SOL     OW 9546   8.212   9.171   2.142 -0.1441  0.4821  0.1423
 1835SOL    HW1 9547   8.204   9.110   2.216 -0.7478 -0.0705 -0.3672
 1835SOL    HW2 9548   8.269   9.241   2.175 -1.0026  0.6318  1.3790
 1836SOL     OW 9549   7.333   0.822   6.823  0.5826  0.4722  0.4667
 1836SOL    HW1 9550   7.281   0.816   6.743 -0.8181  2.1253  1.1921
 1836SOL    HW2 9551   7.268   0.820   6.894  1.8951 -3.4458  1.8032
 1837SOL     OW 9552   2.353   6.732   0.668 -0.5664  0.3900 -0.1103
 1837SOL    HW1 9553   2.350   6.642   0.635 -3.4714 -0.1009  1.1899
 1837SOL    HW2 9554   2.421   6.731   0.735 -0.9274 -1.0445  0.2753
 1838SOL     OW 9555   8.923   6.050   5.705 -0.0367  0.5603  0.0741
 1838SOL    HW1 9556   8.955   6.124   5.655 -0.4959  0.9435  0.3349
 1838SOL    HW2 9557   8.835   6.033   5.669 -0.4398  0.9485  0.8533
 1839SOL     OW 9558   8.041   6.583   0.619 -0.1462 -0.6308  0.0446
 1839SOL    HW1 9559   8.135   6.577   0.604 -0.4701 -1.0057 -2.2658
 1839SOL    HW2 9560   8.014   6.493   0.639 -0.2689 -0.9344 -1.3688
 1840SOL     OW 9561   8.908   2.433   7.338  0.6845 -0.1041  0.2847
 1840SOL    HW1 9562   8.917   2.415   7.244  0.5500  0.3418  0.1839
 1840SOL    HW2 9563   8.958   2.363   7.380  2.0847  0.5935 -0.1609
 1841SOL     OW 9564   5.453   6.171   5.889 -0.4329 -0.0770  0.1361
 1841SOL    HW1 9565   5.530   6.140   5.936 -1.2221  3.0355  4.1073
 1841SOL    HW2 9566   5.381   6.116   5.920 -0.8061  1.4181  2.1175
 1842SOL     OW 9567   4.741   3.339   9.946  0.4123  0.3254  0.7433
 1842SOL    HW1 9568   4.798   3.363  10.019  0.4448  1.6965  0.2971
 1842SOL    HW2 9569   4.669   3.290   9.986  1.0986 -0.0779  1.5096
 1843SOL     OW 9570   5.248   8.444   1.745 -0.2631  0.8330  0.1728
 1843SOL    HW1 9571   5.194   8.481   1.815  0.6693 -0.5322  1.6809
 1843SOL    HW2 9572   5.186   8.404   1.685 -1.0433  1.1410  0.7612
 1844SOL     OW 9573   5.277   3.606   9.479  0.0302 -0.0054 -0.7863
 1844SOL    HW1 9574   5.290   3.619   9.385  1.1804  0.6007 -0.5652
 1844SOL    HW2 9575   5.294   3.513   9.494  0.4105  0.0128 -1.0980
 1845SOL     OW 9576   4.231   4.067   6.407 -0.1965 -0.3028 -0.2089
 1845SOL    HW1 9577   4.177   3.999   6.447 -0.7783 -0.9596 -2.0081
 1845SOL    HW2 9578   4.300   4.019   6.361 -0.0792  0.3675 -0.7453
 1846SOL     OW 9579   5.711   1.893   8.912  0.0361  0.2167  0.0734
 1846SOL    HW1 9580   5.752   1.866   8.995  1.8875 -0.3337 -0.9743
 1846SOL    HW2 9581   5.681   1.811   8.873  0.9877  0.2324 -0.7177
 1847SOL     OW 9582   1.229   6.038   2.083  0.2899 -0.8518  0.3150
 1847SOL    HW1 9583   1.223   6.016   2.176  0.0199 -1.2703  0.1994
 1847SOL    HW2 9584   1.265   6.127   2.082 -0.3010 -0.5999  0.8453
 1848SOL     OW 9585   3.749   9.108   2.870  0.3060  0.1838  0.5262
 1848SOL    HW1 9586   3.736   9.015   2.850 -0.7218  0.7300 -1.8248
 1848SOL    HW2 9587   3.667   9.135   2.912  0.3521  0.1599  0.6316
 1849SOL     OW 9588   4.685   0.827   2.215  0.2115  0.4565 -0.5802
 1849SOL    HW1 9589   4.759   0.825   2.275 -0.3401  0.0031  0.0917
 1849SOL    HW2 9590   4.715   0.882   2.142  1.7031 -0.8304 -0.9845
 1850SOL     OW 9591   0.918   7.053   4.602  0.4313 -0.0921 -0.5169
 1850SOL    HW1 9592   0.824   7.037   4.605  0.0199  2.0282 -0.1914
 1850SOL    HW2 9593   0.927   7.131   4.547  1.7990  0.8231  0.9043
 1851SOL     OW 9594   8.111   9.246   5.649  0.0576  0.5065  0.2050
 1851SOL    HW1 9595   8.091   9.337   5.628  0.1723  0.7173  0.9902
 1851SOL    HW2 9596   8.114   9.243   5.744 -0.6810 -0.4731  0.2191
 1852SOL     OW 9597   9.148   1.510   5.257 -0.4931  0.5812  0.3975
 1852SOL    HW1 9598   9.061   1.548   5.259  0.3261  2.8383 -2.0205
 1852SOL    HW2 9599   9.158   1.475   5.168  0.9964  0.1683  0.6848
 1853SOL     OW 9600   7.005   0.856   6.300 -0.5077 -0.6392  0.7071
 1853SOL    HW1 9601   7.101   0.851   6.310 -0.5433 -1.0334  0.8719
 1853SOL    HW2 9602   6.984   0.784   6.241 -0.4512  0.8726 -1.2729
 1854SOL     OW 9603   1.380   9.724   6.678  0.2949 -0.0100  0.5820
 1854SOL    HW1 9604   1.364   9.679   6.595 -3.3472 -2.5856  2.3995
 1854SOL    HW2 9605   1.375   9.817   6.657  0.4627 -0.5642 -2.1890
 1855SOL     OW 9606   6.319   5.428   4.582  0.5339  0.1434  0.3192
 1855SOL    HW1 9607   6.318   5.362   4.513 -1.1738 -0.5732  0.9870
 1855SOL    HW2 9608   6.227   5.449   4.597  0.9528  1.3439  1.3843
 1856SOL     OW 9609   4.373   3.480   3.652 -0.0463  0.2926  0.0544
 1856SOL    HW1 9610   4.407   3.398   3.616 -0.9406  0.8696 -2.3015
 1856SOL    HW2 9611   4.425   3.549   3.609 -1.1072  1.0233 -0.1032
 1857SOL     OW 9612   2.943   0.376   7.854  0.3296 -0.0718  0.4036
 1857SOL    HW1 9613   2.895   0.293   7.863  0.3193 -0.5719 -2.7907
 1857SOL    HW2 9614   2.876   0.440   7.829  0.6308  0.4100  0.8224
 1858SOL     OW 9615   0.687   5.778   3.089 -0.2470 -0.2774  0.0106
 1858SOL    HW1 9616   0.766   5.792   3.038 -1.0908  2.2799 -0.7735
 1858SOL    HW2 9617   0.654   5.867   3.107 -1.7429 -1.1754  2.2239
 1859SOL     OW 9618   0.867   5.142   0.083  0.5382 -0.0314  0.5994
 1859SOL    HW1 9619   0.847   5.059   0.040 -0.0747  1.4894 -2.3719
 1859SOL    HW2 9620   0.962   5.152   0.073  0.3978  0.3254 -0.5492
 1860SOL     OW 9621   7.324   9.261   9.771  0.7449  0.5415 -1.0022
 1860SOL    HW1 9622   7.342   9.309   9.689  2.9235 -0.6950 -1.3342
 1860SOL    HW2 9623   7.409   9.225   9.796 -0.2623 -0.7333  0.7795
 1861SOL     OW 9624   6.609   9.344   9.108 -0.2915 -0.3791  0.0562
 1861SOL    HW1 9625   6.640   9.350   9.198  0.1372  0.1889 -0.1283
 1861SOL    HW2 9626   6.611   9.434   9.075  2.7344 -0.9234 -1.5764
 1862SOL     OW 9627   9.921   7.501   2.921  0.1481 -1.0420 -0.0906
 1862SOL    HW1 9628   9.935   7.563   2.849  0.1024  0.3406  1.0501
 1862SOL    HW2 9629   9.851   7.444   2.890 -0.3346 -0.0485 -0.9020
 1863SOL     OW 9630   1.963   5.026   8.278  0.5355 -0.4413 -0.5751
 1863SOL    HW1 9631   1.945   4.933   8.263 -1.5290 -0.0409 -0.9210
 1863SOL    HW2 9632   1.946   5.067   8.193 -0.4050  0.4639  0.0297
 1864SOL     OW 9633   8.445   8.431   4.957 -0.1761 -0.7041  0.0264
 1864SOL    HW1 9634   8.416   8.360   4.901  2.1990 -1.9423  0.2417
 1864SOL    HW2 9635   8.471   8.500   4.897  1.3484 -1.6194 -0.4215
 1865SOL     OW 9636   8.749   4.011   4.871 -0.0465  0.1085 -0.2458
 1865SOL    HW1 9637   8.831   3.988   4.914  0.5737  1.5554 -0.5680
 1865SOL    HW2 9638   8.704   3.928   4.858  2.3782 -1.0475 -2.0937
 1866SOL     OW 9639   0.309   9.831   5.552 -0.1151 -0.0261  0.0845
 1866SOL    HW1 9640   0.260   9.912   5.557 -0.8026 -0.4389  0.1648
 1866SOL    HW2 9641   0.243   9.762   5.562  0.3223 -0.6137 -0.9296
 1867SOL     OW 9642   5.905   1.961   6.954 -0.0191  0.4299 -0.2761
 1867SOL    HW1 9643   5.930   1.897   6.888 -0.3513  0.1816 -0.1652
 1867SOL    HW2 9644   5.891   1.909   7.034 -2.7265  0.2656 -0.7829
 1868SOL     OW 9645   3.548   7.096   0.542 -0.4196  0.6157  0.4896
 1868SOL    HW1 9646   3.595   7.035   0.484 -1.8265  0.0608 -0.0964
 1868SOL    HW2 9647   3.473   7.047   0.574 -1.8616  2.1564 -0.3596
 1869SOL     OW 9648   5.147   4.586   6.595  0.3395 -1.1116 -0.1106
 1869SOL    HW1 9649   5.130   4.576   6.689 -1.4517 -1.9809 -0.4866
 1869SOL    HW2 9650   5.126   4.501   6.557 -1.3904 -0.1257 -1.5808
 1870SOL     OW 9651   8.774   7.020   3.470  0.1034  0.2493 -0.0261
 1870SOL    HW1 9652   8.818   7.099   3.501 -0.8822  1.6085 -1.8927
 1870SOL    HW2 9653   8.684   7.048   3.451 -1.0927 -1.9630  1.7362
 1871SOL     OW 9654   8.267   6.861   4.581  0.0462  0.6175  0.0896
 1871SOL    HW1 9655   8.260   6.830   4.671  1.9881 -2.9211 -0.7642
 1871SOL    HW2 9656   8.180   6.897   4.561 -1.5969 -1.7461  2.3166
 1872SOL     OW 9657   1.795   7.303   4.142  0.0607 -0.3753 -0.2452
 1872SOL    HW1 9658   1.872   7.286   4.088  2.2121  0.9666  2.1623
 1872SOL    HW2 9659   1.780   7.397   4.134  0.6841 -0.0563  1.6379
 1873SOL     OW 9660   6.571   8.324   6.744 -0.0086 -0.5449 -0.5002
 1873SOL    HW1 9661   6.507   8.323   6.673  0.5234 -2.5576 -1.0250
 1873SOL    HW2 9662   6.526   8.365   6.817 -0.7003  1.2514 -1.8762
 1874SOL     OW 9663   5.186   3.584   2.498 -0.2024  0.2145 -0.2140
 1874SOL    HW1 9664   5.202   3.526   2.572  0.7093  0.5015 -0.1705
 1874SOL    HW2 9665   5.225   3.539   2.423 -2.1828 -0.6552 -0.7925
 1875SOL     OW 9666   5.653   0.142   0.306  0.5742 -0.4204 -0.1123
 1875SOL    HW1 9667   5.705   0.078   0.354  0.3792  0.4139  1.2449
 1875SOL    HW2 9668   5.594   0.179   0.371 -2.0532 -1.6117 -1.6570
 1876SOL     OW 9669   5.429   1.436   1.372 -0.1147 -0.0317  0.5986
 1876SOL    HW1 9670   5.518   1.464   1.389 -0.0619 -1.0884  2.3890
 1876SOL    HW2 9671   5.388   1.510   1.328  1.7623  0.2808 -0.7378
 1877SOL     OW 9672   1.761   6.838   9.755 -0.5244  0.1669  0.1396
 1877SOL    HW1 9673   1.848   6.802   9.739  0.7221  3.0045 -0.0505
 1877SOL    HW2 9674   1.701   6.775   9.715  1.1159 -3.3833  2.6889
 1878SOL     OW 9675   8.904   4.556   3.030 -0.4419  0.0940  0.2822
 1878SOL    HW1 9676   8.810   4.577   3.027 -0.4474 -0.0621 -1.0961
 1878SOL    HW2 9677   8.942   4.607   2.959  0.2394 -1.1898 -0.2927
 1879SOL     OW 9678   7.916   0.302   1.508  0.1743  0.5525  0.4172
 1879SOL    HW1 9679   7.978   0.365   1.542  1.0136 -1.1915  2.3479
 1879SOL    HW2 9680   7.968   0.224   1.489 -0.5536  0.7728 -3.3587
 1880SOL     OW 9681   0.063   8.691   8.504  0.1917  0.4642  0.4259
 1880SOL    HW1 9682   0.134   8.628   8.513  0.7310  1.3344  2.8099
 1880SOL    HW2 9683  -0.016   8.637   8.493  0.8958 -0.5454  0.1428
 1881SOL     OW 9684   7.997   8.670   0.675 -0.1211  0.2196  0.2814
 1881SOL    HW1 9685   7.902   8.674   0.690 -0.1265 -1.0635  0.7487
 1881SOL    HW2 9686   8.035   8.721   0.746 -0.3728 -1.5737  1.7731
 1882SOL     OW 9687   6.568   7.433   2.293  0.9424  0.0144  0.0032
 1882SOL    HW1 9688   6.547   7.522   2.266  0.1493  0.0806  0.8256
 1882SOL    HW2 9689   6.572   7.384   2.211 -0.6752  0.3698 -0.3204
 1883SOL     OW 9690   0.496   0.292   7.538 -0.2395  0.2643 -0.4199
 1883SOL    HW1 9691   0.575   0.347   7.536  1.0447 -1.3372  1.9034
 1883SOL    HW2 9692   0.519   0.215   7.487 -0.5070  0.0331 -0.1937
 1884SOL     OW 9693   7.071  10.161   2.326 -0.1629  0.4362  0.2848
 1884SOL    HW1 9694   7.126  10.176   2.403  1.4395 -0.4511 -0.6255
 1884SOL    HW2 9695   7.112  10.086   2.282 -2.5713 -0.7658 -0.0421
 1885SOL     OW 9696   6.834   4.863   8.840  0.5615  0.0808 -0.3765
 1885SOL    HW1 9697   6.903   4.929   8.851  0.8635 -0.0093 -1.5239
 1885SOL    HW2 9698   6.864   4.788   8.891  0.2902  0.7704  0.8148
 1886SOL     OW 9699   8.125   8.204   9.923 -0.9983  0.2121 -0.5635
 1886SOL    HW1 9700   8.051   8.244   9.877 -2.2548  0.0043  1.1779
 1886SOL    HW2 9701   8.114   8.230  10.014 -0.5480 -2.1441  0.2285
 1887SOL     OW 9702   9.121   1.626   8.398  0.2739  0.1838 -0.0373
 1887SOL    HW1 9703   9.119   1.531   8.386  0.8047 -0.0557  1.5353
 1887SOL    HW2 9704   9.100   1.662   8.312 -4.5202 -1.3357  0.1591
 1888SOL     OW 9705   0.646   6.743   6.071 -0.7417 -0.2150 -0.1590
 1888SOL    HW1 9706   0.667   6.651   6.090 -1.1763  0.0849  1.9652
 1888SOL    HW2 9707   0.601   6.774   6.149 -0.8562  1.7558 -0.9578
 1889SOL     OW 9708   1.266   5.271   1.741  0.8500 -0.0078  0.1795
 1889SOL    HW1 9709   1.347   5.260   1.791  1.7545  0.3224 -1.1493
 1889SOL    HW2 9710   1.259   5.192   1.688 -0.4455 -0.6528  1.2565
 1890SOL     OW 9711   3.174   4.192   7.981 -0.5179  0.3918 -0.0684
 1890SOL    HW1 9712   3.268   4.208   7.980 -0.1005 -1.2658 -3.2358
 1890SOL    HW2 9713   3.163   4.114   8.036 -0.2480  1.2608  1.2539
 1891SOL     OW 9714   7.950   2.221   0.102 -0.0787 -0.3158  0.3092
 1891SOL    HW1 9715   7.957   2.166   0.024  1.1892 -0.7175  0.6775
 1891SOL    HW2 9716   7.891   2.292   0.077 -1.0252 -1.3453 -0.4654
 1892SOL     OW 9717   8.989   1.989   2.970  0.1491  0.1698  0.4020
 1892SOL    HW1 9718   8.925   2.058   2.955  0.2205  0.0310 -0.6310
 1892SOL    HW2 9719   9.073   2.027   2.942  0.0359 -0.6379 -1.1666
 1893SOL     OW 9720   9.066   4.684   1.519  0.3037  0.0308  0.0648
 1893SOL    HW1 9721   9.128   4.638   1.576  1.4561  0.4145 -0.8390
 1893SOL    HW2 9722   9.082   4.648   1.432 -0.5513  0.3390 -0.2253
 1894SOL     OW 9723   0.619   8.821   9.035  0.4412 -0.1939  0.1326
 1894SOL    HW1 9724   0.704   8.777   9.045  0.7381  0.4620  0.5483
 1894SOL    HW2 9725   0.625   8.864   8.949  1.5738  2.0264  1.2469
 1895SOL     OW 9726   4.451   6.303   0.171  0.3055 -0.2963 -0.0411
 1895SOL    HW1 9727   4.456   6.240   0.099  0.5000 -1.2468  0.7879
 1895SOL    HW2 9728   4.503   6.377   0.141 -0.0968 -0.4276 -1.1191
 1896SOL     OW 9729   8.358   6.340   6.853  0.2262 -0.2585 -0.5073
 1896SOL    HW1 9730   8.294   6.411   6.864  0.4946  0.0723 -1.0138
 1896SOL    HW2 9731   8.440   6.386   6.835  0.6158 -0.6772  0.1833
 1897SOL     OW 9732  10.205   7.614   1.229 -0.1134  0.5554 -0.2873
 1897SOL    HW1 9733  10.257   7.610   1.148 -1.3795 -0.5856 -1.0791
 1897SOL    HW2 9734  10.241   7.544   1.284  0.8344  1.4139  0.2319
 1898SOL     OW 9735   6.977   8.723   6.339  0.4600 -0.4180  0.6471
 1898SOL    HW1 9736   6.948   8.727   6.430  1.6006  0.9296  0.9877
 1898SOL    HW2 9737   7.058   8.773   6.338  0.6208 -0.6699 -1.0630
 1899SOL     OW 9738   2.730   9.165   5.046 -0.3599 -0.0261  0.3591
 1899SOL    HW1 9739   2.824   9.164   5.062 -0.4576 -0.4548  0.9120
 1899SOL    HW2 9740   2.703   9.255   5.063  0.3352  0.7232 -2.1067
 1900SOL     OW 9741   8.886   7.124   6.058  0.4259  0.2532 -0.3633
 1900SOL    HW1 9742   8.947   7.133   6.130 -0.0297  0.8552 -0.0407
 1900SOL    HW2 9743   8.914   7.044   6.012  0.2005 -0.6311  0.9791
 1901SOL     OW 9744   1.890   6.908   3.420  0.2188  0.3361  0.0107
 1901SOL    HW1 9745   1.833   6.980   3.445  1.5041  1.3441  0.1370
 1901SOL    HW2 9746   1.880   6.900   3.325 -1.4554 -0.6933  0.2369
 1902SOL     OW 9747   1.204   3.087   5.839  0.2343 -0.0000  0.2816
 1902SOL    HW1 9748   1.261   3.034   5.784  2.1255  0.5531  1.6112
 1902SOL    HW2 9749   1.133   3.027   5.865  1.0450 -1.1785 -0.1591
 1903SOL     OW 9750   4.371   9.355   5.871 -0.1338 -0.0745  0.2040
 1903SOL    HW1 9751   4.461   9.350   5.901  0.1625  0.3195 -0.5880
 1903SOL    HW2 9752   4.350   9.448   5.870 -0.7532 -0.1964  0.9530
 1904SOL     OW 9753   6.140   7.254   1.978  0.0214 -0.1339  0.3650
 1904SOL    HW1 9754   6.167   7.177   2.028 -2.5288 -1.8165 -0.6879
 1904SOL    HW2 9755   6.177   7.241   1.891 -1.0449 -0.6171 -0.0367
 1905SOL     OW 9756  10.050   1.183   3.814  0.1622  0.0865  0.4100
 1905SOL    HW1 9757  10.047   1.277   3.833 -0.3693  0.2110 -0.2576
 1905SOL    HW2 9758  10.142   1.159   3.828  0.1462  0.5432  1.3126
 1906SOL     OW 9759   1.782   1.347   3.585  1.0021 -0.2467 -0.0729
 1906SOL    HW1 9760   1.692   1.373   3.603  0.6194 -0.9288 -0.9345
 1906SOL    HW2 9761   1.824   1.347   3.670  1.0857  3.2335  0.0437
 1907SOL     OW 9762   0.436   8.939   8.122  0.4891 -0.0486 -0.4679
 1907SOL    HW1 9763   0.490   9.011   8.089  0.3851  0.4367  0.3988
 1907SOL    HW2 9764   0.346   8.973   8.119  0.4789  0.0172  0.3213
 1908SOL     OW 9765   9.652   2.521   6.184 -0.2327  0.1530  0.2465
 1908SOL    HW1 9766   9.653   2.474   6.101  0.0512 -0.5186  0.6241
 1908SOL    HW2 9767   9.723   2.585   6.175  0.8389 -0.9426  0.5313
 1909SOL     OW 9768   8.030   1.545   8.091  0.0128 -0.0617  0.1506
 1909SOL    HW1 9769   7.942   1.580   8.081  0.3560  0.7740 -0.1105
 1909SOL    HW2 9770   8.087   1.614   8.055  0.7473 -0.7109  0.0414
 1910SOL     OW 9771   7.860   6.053   4.377  0.2164  0.1453  0.0949
 1910SOL    HW1 9772   7.918   5.997   4.427  1.2955  2.6794  1.8885
 1910SOL    HW2 9773   7.775   6.044   4.420  0.6931  0.8608  1.2084
 1911SOL     OW 9774   9.842   9.816   5.547  0.5468  0.0030  0.1158
 1911SOL    HW1 9775   9.824   9.910   5.550  1.5178  0.1761  0.8827
 1911SOL    HW2 9776   9.756   9.776   5.533  0.1958  1.0227 -0.8150
 1912SOL     OW 9777   8.165   7.545   2.845  0.3610 -0.4291  0.0676
 1912SOL    HW1 9778   8.097   7.540   2.912 -1.0550 -1.2065 -1.3468
 1912SOL    HW2 9779   8.234   7.486   2.876  0.8498  1.0721  1.9655
 1913SOL     OW 9780   9.970   1.982   3.826 -0.2973 -0.6492 -0.4604
 1913SOL    HW1 9781   9.906   1.947   3.889  0.4414 -1.5654 -0.1953
 1913SOL    HW2 9782  10.045   2.008   3.879 -0.2446 -0.0575 -0.8199
 1914SOL     OW 9783   7.202   1.749   3.671  0.1076  0.0086  0.5567
 1914SOL    HW1 9784   7.291   1.739   3.638  0.0988  1.6660 -0.0661
 1914SOL    HW2 9785   7.171   1.830   3.631 -2.1069 -1.1262 -0.1667
 1915SOL     OW 9786   9.281   8.370   0.433  0.1776 -0.4883  0.0328
 1915SOL    HW1 9787   9.339   8.443   0.455 -1.1269  0.4390  0.4864
 1915SOL    HW2 9788   9.341   8.299   0.408  1.5046  0.3791  0.6327
 1916SOL     OW 9789   0.756   1.902   5.914 -0.3405  0.2620  0.0716
 1916SOL    HW1 9790   0.714   1.817   5.925  1.3797 -1.0178 -2.3718
 1916SOL    HW2 9791   0.785   1.926   6.002 -0.4467 -1.9161  0.7553
 1917SOL     OW 9792   6.412   8.876   7.015 -0.2418 -0.0113 -0.4069
 1917SOL    HW1 9793   6.488   8.845   6.965 -1.2807 -3.7374  0.0463
 1917SOL    HW2 9794   6.367   8.935   6.955  1.9156  0.7156 -1.4284
 1918SOL     OW 9795   4.370   9.427   0.381  0.1713 -0.0453  0.2206
 1918SOL    HW1 9796   4.442   9.447   0.320 -1.8021 -0.0181 -2.3000
 1918SOL    HW2 9797   4.363   9.332   0.380  1.0945 -0.1571  1.6922
 1919SOL     OW 9798   8.714   9.555   3.046  0.1194  0.1650 -0.1421
 1919SOL    HW1 9799   8.690   9.552   3.138  1.6793 -2.1287  0.2830
 1919SOL    HW2 9800   8.724   9.648   3.027 -0.6926  0.7154  1.8597
 1920SOL     OW 9801   8.876   2.297   0.162  0.0429 -0.0592  0.4333
 1920SOL    HW1 9802   8.859   2.255   0.078  0.3362  0.3230  0.1830
 1920SOL    HW2 9803   8.958   2.344   0.150  1.3385 -1.8923  1.6475
 1921SOL     OW 9804   5.837   6.893   9.425 -0.2864  0.1433  1.1535
 1921SOL    HW1 9805   5.911   6.885   9.484  0.8775 -0.9599 -0.4015
 1921SOL    HW2 9806   5.869   6.947   9.352 -0.8645 -0.6887  0.2551
 1922SOL     OW 9807   4.889   9.950   3.699 -0.2114 -0.4564  0.1551
 1922SOL    HW1 9808   4.887  10.035   3.744  0.5459  0.0227 -0.6791
 1922SOL    HW2 9809   4.842   9.965   3.618 -1.1758 -1.1938  0.5645
 1923SOL     OW 9810   8.062   4.126   3.505  0.1394 -0.2547  0.0889
 1923SOL    HW1 9811   8.146   4.109   3.549  0.7306 -2.1479 -1.6033
 1923SOL    HW2 9812   8.011   4.177   3.568  2.2321  0.2028  1.5092
 1924SOL     OW 9813   2.902   3.198   1.059  0.4466  0.0493  0.5319
 1924SOL    HW1 9814   2.992   3.172   1.079  0.7402  0.2163 -0.5171
 1924SOL    HW2 9815   2.901   3.210   0.964 -0.6671  0.1237  0.5395
 1925SOL     OW 9816   1.611   6.376   9.448  0.2938 -0.1160  0.2141
 1925SOL    HW1 9817   1.641   6.301   9.397  1.3885  1.2184 -1.2033
 1925SOL    HW2 9818   1.651   6.452   9.405 -0.1038  1.2228  2.0831
 1926SOL     OW 9819   0.692   1.460   3.178 -0.0711 -0.1327 -0.2251
 1926SOL    HW1 9820   0.601   1.490   3.173  0.2083  0.6753 -0.6419
 1926SOL    HW2 9821   0.705   1.436   3.270  0.0673  2.3086  0.4607
 1927SOL     OW 9822   4.428   9.684   7.976 -0.4081  0.3556 -0.1475
 1927SOL    HW1 9823   4.348   9.723   7.942 -0.5584 -0.1553 -0.3935
 1927SOL    HW2 9824   4.400   9.633   8.053 -0.5500 -0.9294 -1.0159
 1928SOL     OW 9825   2.142   9.912   7.252 -0.0801  0.6140 -0.3075
 1928SOL    HW1 9826   2.152  10.007   7.256  0.8166  0.4773  1.8777
 1928SOL    HW2 9827   2.200   9.885   7.181  0.6429  1.5949 -0.1085
 1929SOL     OW 9828   1.177   6.324   0.590  0.1864 -0.0862  0.0684
 1929SOL    HW1 9829   1.256   6.341   0.640  0.4164  1.2342 -0.6951
 1929SOL    HW2 9830   1.113   6.387   0.623 -1.0911 -2.1403  1.7586
 1930SOL     OW 9831   9.349   5.308   0.338 -0.5721 -0.3981  0.2982
 1930SOL    HW1 9832   9.342   5.227   0.388 -1.1917  0.0159  0.9009
 1930SOL    HW2 9833   9.271   5.358   0.361 -1.1259 -0.3827 -1.4407
 1931SOL     OW 9834   2.446   8.259   0.889  0.1925  0.6568 -0.2614
 1931SOL    HW1 9835   2.533   8.253   0.927 -0.2539 -0.6341  0.6048
 1931SOL    HW2 9836   2.440   8.350   0.857  1.7605  0.8162 -0.1672
 1932SOL     OW 9837   5.114   5.438   9.234 -0.2792  0.3925  0.1393
 1932SOL    HW1 9838   5.022   5.456   9.254 -0.5602  1.4453 -1.8159
 1932SOL    HW2 9839   5.138   5.507   9.172  1.3596 -0.8249 -0.6323
 1933SOL     OW 9840   3.715   2.734   2.931  0.2665 -0.0775  0.0310
 1933SOL    HW1 9841   3.811   2.728   2.926  0.4075  1.1211  0.7151
 1933SOL    HW2 9842   3.687   2.738   2.840  1.1166  2.1011 -0.2036
 1934SOL     OW 9843   0.338   7.200   5.162 -0.0655  0.4060  0.4040
 1934SOL    HW1 9844   0.256   7.151   5.152  0.8324 -1.0694 -0.0801
 1934SOL    HW2 9845   0.315   7.290   5.138 -0.7807 -0.6244 -3.3256
 1935SOL     OW 9846   0.894   2.504   0.430 -0.1277 -0.1554  0.5027
 1935SOL    HW1 9847   0.920   2.592   0.401 -0.4615  0.4498  1.9460
 1935SOL    HW2 9848   0.967   2.448   0.404 -1.0534 -0.0116 -2.8711
 1936SOL     OW 9849   2.685   0.750   2.809 -0.5595 -0.5617  0.5724
 1936SOL    HW1 9850   2.674   0.711   2.895  0.2033  0.7276  1.2794
 1936SOL    HW2 9851   2.772   0.721   2.780 -0.1517  0.2607  0.9354
 1937SOL     OW 9852   3.304   0.984   5.464  0.3044 -0.2321 -0.4847
 1937SOL    HW1 9853   3.269   1.011   5.379  1.9441 -2.6447 -2.0645
 1937SOL    HW2 9854   3.248   0.911   5.491 -0.7724  1.0787  1.0650
 1938SOL     OW 9855   2.191   9.856   9.601  0.0975 -0.3811  0.5718
 1938SOL    HW1 9856   2.227   9.925   9.656 -1.9428  1.1283  0.1538
 1938SOL    HW2 9857   2.105   9.838   9.639  0.0436 -1.7102 -0.1428
 1939SOL     OW 9858   5.616   5.876   8.550 -0.6582  0.3075  0.6865
 1939SOL    HW1 9859   5.693   5.931   8.535 -1.5015  1.4242  0.3560
 1939SOL    HW2 9860   5.542   5.932   8.530 -1.5518 -1.0284  0.1194
 1940SOL     OW 9861   8.600   0.904   4.385 -0.1338  0.1664 -0.4685
 1940SOL    HW1 9862   8.642   0.984   4.352 -1.0821  1.1481  0.6414
 1940SOL    HW2 9863   8.646   0.885   4.467 -0.7155  0.2792 -0.1118
 1941SOL     OW 9864   4.176   4.644   9.741 -0.0552  0.0586 -0.4568
 1941SOL    HW1 9865   4.125   4.724   9.750  0.5242  0.5213 -1.1357
 1941SOL    HW2 9866   4.144   4.587   9.811 -0.9406  0.6248 -0.3842
 1942SOL     OW 9867   8.045   4.664   2.913  0.2522  0.4677  0.0760
 1942SOL    HW1 9868   7.992   4.650   2.835  1.2464  0.0163 -0.5389
 1942SOL    HW2 9869   8.103   4.587   2.917  0.5902  0.7510  0.9482
 1943SOL     OW 9870   5.345   6.729   9.394 -0.1207 -0.5761  0.6855
 1943SOL    HW1 9871   5.386   6.661   9.447  2.4222  0.1109 -0.2512
 1943SOL    HW2 9872   5.385   6.810   9.425 -0.5329  0.1068 -0.5175
 1944SOL     OW 9873   3.828   1.646   4.501  0.0308  0.0313  0.1723
 1944SOL    HW1 9874   3.849   1.565   4.548  1.3919 -0.8060 -1.7116
 1944SOL    HW2 9875   3.890   1.710   4.534 -0.5128  0.0997  1.0931
 1945SOL     OW 9876   6.891   2.934   9.861  0.2844  0.0625 -0.2186
 1945SOL    HW1 9877   6.915   2.994   9.791 -1.0450 -0.0497 -0.7902
 1945SOL    HW2 9878   6.805   2.962   9.890 -0.4280 -1.6092 -0.5820
 1946SOL     OW 9879  10.127   4.444   5.681  0.2202  0.4600 -0.8406
 1946SOL    HW1 9880  10.099   4.533   5.703  0.0217  0.4280 -0.9637
 1946SOL    HW2 9881  10.147   4.447   5.588 -0.1405  0.2875 -0.9286
 1947SOL     OW 9882   2.146   1.224   0.694 -0.2459  0.6267  0.7458
 1947SOL    HW1 9883   2.121   1.315   0.711  1.1016  1.2528 -0.4506
 1947SOL    HW2 9884   2.241   1.224   0.696 -0.2176 -0.9204  1.3824
 1948SOL     OW 9885   7.714   0.671   8.926  0.1925 -0.5993 -0.1541
 1948SOL    HW1 9886   7.763   0.751   8.903 -0.7352  0.0921  0.2292
 1948SOL    HW2 9887   7.731   0.611   8.853  1.7044 -0.4266  0.0217
 1949SOL     OW 9888   0.571   2.103   2.767 -0.6337 -0.1575 -0.2860
 1949SOL    HW1 9889   0.502   2.147   2.719 -1.3455  0.1620  0.9698
 1949SOL    HW2 9890   0.651   2.151   2.745 -0.6748 -0.9385 -2.2640
 1950SOL     OW 9891   5.093   7.202   2.313  0.0023  0.5816 -0.3720
 1950SOL    HW1 9892   5.064   7.283   2.354 -0.2127 -0.1341  0.9418
 1950SOL    HW2 9893   5.187   7.213   2.302  0.0419  0.8391  0.2067
 1951SOL     OW 9894   9.169   2.150   3.489  0.0879 -1.0164 -0.3450
 1951SOL    HW1 9895   9.079   2.130   3.463  0.1243 -2.2184  0.3748
 1951SOL    HW2 9896   9.190   2.085   3.556  1.2119 -0.2305  0.1019
 1952SOL     OW 9897   7.232   4.460   3.563  0.2961  0.2356  0.9985
 1952SOL    HW1 9898   7.296   4.391   3.548  0.3847  0.0160  2.2659
 1952SOL    HW2 9899   7.262   4.534   3.510  2.4075  0.6291  2.6354
 1953SOL     OW 9900   2.416   7.834   4.721  0.1705 -0.4967 -0.5360
 1953SOL    HW1 9901   2.494   7.782   4.703  0.5813  0.2985 -1.1275
 1953SOL    HW2 9902   2.442   7.896   4.788 -0.6373 -1.7452  1.0048
 1954SOL     OW 9903   0.056   3.524   4.214 -0.4564 -0.1051 -0.1839
 1954SOL    HW1 9904   0.092   3.502   4.300 -0.7110 -0.7764 -0.2393
 1954SOL    HW2 9905  -0.022   3.575   4.233 -0.4810 -0.2062 -0.0142
 1955SOL     OW 9906   0.513   5.092   5.613  0.2968  0.6785  0.0083
 1955SOL    HW1 9907   0.512   5.003   5.578 -0.2870  0.9392 -0.6451
 1955SOL    HW2 9908   0.437   5.134   5.575  0.9374  1.6638 -0.2130
 1956SOL     OW 9909   1.773   1.851   1.169  0.0203  0.1882 -0.1797
 1956SOL    HW1 9910   1.868   1.845   1.177 -0.1093 -0.8463  0.7188
 1956SOL    HW2 9911   1.751   1.933   1.214  0.4378  0.1787  0.0472
 1957SOL     OW 9912   7.042   9.660   9.092  0.3297 -0.0468 -0.2929
 1957SOL    HW1 9913   6.970   9.715   9.063 -0.6611 -0.9937  0.2844
 1957SOL    HW2 9914   7.004   9.572   9.096  1.0614 -0.3201  1.5841
 1958SOL     OW 9915   1.121   7.651   7.810 -0.0276 -0.2911  0.0532
 1958SOL    HW1 9916   1.212   7.675   7.794 -0.3728  0.5006 -0.7695
 1958SOL    HW2 9917   1.100   7.589   7.741 -0.1010 -0.5112  0.2726
 1959SOL     OW 9918   0.050   1.174   2.328  0.5315 -0.0983 -0.5434
 1959SOL    HW1 9919   0.103   1.230   2.385  3.2953 -2.0377 -0.9627
 1959SOL    HW2 9920   0.071   1.085   2.356 -2.4415 -1.0307 -0.9498
 1960SOL     OW 9921   8.952   3.035   4.811  0.1468 -0.1864 -0.0797
 1960SOL    HW1 9922   9.044   3.060   4.803 -0.2629  1.4400 -0.0540
 1960SOL    HW2 9923   8.941   3.014   4.903  0.5258 -0.5874 -0.1196
 1961SOL     OW 9924   0.181   9.155   5.920 -0.4093 -0.0360  0.2792
 1961SOL    HW1 9925   0.232   9.094   5.973 -0.9676 -1.0805 -0.3441
 1961SOL    HW2 9926   0.113   9.188   5.979  1.0095  1.4358  1.1387
 1962SOL     OW 9927   8.484   3.190   7.997  0.2684  0.2770 -0.4635
 1962SOL    HW1 9928   8.478   3.155   8.086  0.4659 -1.0181 -0.9432
 1962SOL    HW2 9929   8.543   3.266   8.005  0.6933 -0.1303  0.4181
 1963SOL     OW 9930   2.064   8.803   2.328  0.0692 -0.4751 -0.0100
 1963SOL    HW1 9931   2.152   8.766   2.329  0.7602  0.8214  3.8613
 1963SOL    HW2 9932   2.015   8.750   2.390 -1.1094  0.4324 -0.1328
 1964SOL     OW 9933   1.567   2.170   1.627 -0.2212 -0.1791  0.1681
 1964SOL    HW1 9934   1.493   2.140   1.681 -0.2710 -0.8645 -0.2639
 1964SOL    HW2 9935   1.540   2.152   1.537 -0.7785  2.3775 -0.2423
 1965SOL     OW 9936  10.203   7.979   6.195  0.4642  0.6805 -0.0754
 1965SOL    HW1 9937  10.162   8.015   6.117  0.6568  1.3482  0.1296
 1965SOL    HW2 9938  10.266   7.914   6.162 -0.8586 -0.4887 -0.3832
 1966SOL     OW 9939   3.412   8.275   6.664 -0.0179  0.6237  0.4341
 1966SOL    HW1 9940   3.337   8.334   6.664  0.2896  1.0159  0.4581
 1966SOL    HW2 9941   3.488   8.332   6.655  0.2630  0.2095  0.1254
 1967SOL     OW 9942   5.331   8.783   5.602  0.7899 -0.1208 -0.3566
 1967SOL    HW1 9943   5.395   8.839   5.646 -1.1517  2.0151 -0.0197
 1967SOL    HW2 9944   5.368   8.695   5.607  3.5043  0.9520  0.0746
 1968SOL     OW 9945   4.138   9.434   5.492 -0.6665 -0.0298  0.1562
 1968SOL    HW1 9946   4.223   9.473   5.513 -0.4236 -1.4797  2.2817
 1968SOL    HW2 9947   4.074   9.489   5.537 -0.5448 -0.5730  1.0321
 1969SOL     OW 9948   3.529   7.831   2.880 -0.3818 -0.2033  0.0346
 1969SOL    HW1 9949   3.457   7.841   2.817  1.4038  0.0670 -2.0669
 1969SOL    HW2 9950   3.547   7.737   2.882 -0.6064 -0.2422  0.3692
 1970SOL     OW 9951   6.161   8.912   3.783 -0.5177  0.5992  0.1561
 1970SOL    HW1 9952   6.241   8.866   3.760 -0.2677 -0.5152  2.9534
 1970SOL    HW2 9953   6.102   8.895   3.710  1.1961  0.0153 -1.1579
 1971SOL     OW 9954   0.972   8.833   6.791  0.1669 -0.4423 -0.3014
 1971SOL    HW1 9955   1.060   8.804   6.817  0.5847  1.0768  0.0521
 1971SOL    HW2 9956   0.986   8.918   6.749 -1.0935 -0.3940 -0.6604
 1972SOL     OW 9957   7.109   6.826   0.567  0.3371  0.2387 -0.0072
 1972SOL    HW1 9958   7.174   6.860   0.505  2.8707 -0.1137  2.2488
 1972SOL    HW2 9959   7.126   6.732   0.569 -1.1111 -0.0446 -0.2369
 1973SOL     OW 9960   4.688   4.623   1.028 -0.0546 -0.6472  0.0370
 1973SOL    HW1 9961   4.677   4.658   1.117  0.2852  0.0372 -0.1811
 1973SOL    HW2 9962   4.610   4.651   0.981 -0.9446 -2.2472  0.4832
 1974SOL     OW 9963   7.136   9.206   4.780 -0.2876  0.2059 -0.2759
 1974SOL    HW1 9964   7.101   9.174   4.697  0.4088  0.4698 -0.6823
 1974SOL    HW2 9965   7.199   9.274   4.754  1.3424 -0.9962  0.3586
 1975SOL     OW 9966   5.540   9.128   6.750  0.0916  0.0660  0.3673
 1975SOL    HW1 9967   5.462   9.106   6.699  0.1540  1.1510 -0.2067
 1975SOL    HW2 9968   5.517   9.104   6.840 -0.3950 -0.8924  0.0029
 1976SOL     OW 9969   3.947   5.550   5.757  0.4007 -0.3642 -0.0379
 1976SOL    HW1 9970   3.874   5.529   5.816 -0.6401  0.3243 -1.0460
 1976SOL    HW2 9971   3.971   5.640   5.779 -1.6422  0.8254 -2.2411
 1977SOL     OW 9972   5.249   6.184   2.487 -0.1004 -0.3475  0.3499
 1977SOL    HW1 9973   5.228   6.094   2.466 -0.8775 -0.1387  0.2087
 1977SOL    HW2 9974   5.207   6.236   2.419  1.5810  0.0552 -0.4286
 1978SOL     OW 9975   4.274   2.886   4.548  0.1087  0.1934 -0.4190
 1978SOL    HW1 9976   4.304   2.806   4.591 -1.1118 -0.5711 -0.9423
 1978SOL    HW2 9977   4.218   2.855   4.476  0.6396  1.4814 -1.4306
 1979SOL     OW 9978   4.981   4.949  10.290  0.1399 -0.1909  0.6640
 1979SOL    HW1 9979   4.929   5.029  10.294  0.1454 -0.2200  1.7041
 1979SOL    HW2 9980   4.920   4.882  10.258 -0.3523 -0.1218  1.4245
 1980SOL     OW 9981   7.124   3.961   3.372  0.6832 -0.4310  0.5737
 1980SOL    HW1 9982   7.182   3.975   3.297  1.3660 -2.5530  0.6553
 1980SOL    HW2 9983   7.182   3.953   3.447  0.2414 -1.5933  0.8087
 1981SOL     OW 9984   8.419   9.353   6.081 -0.0651  0.2123 -0.5979
 1981SOL    HW1 9985   8.472   9.346   6.002  1.0532  0.8130  0.0566
 1981SOL    HW2 9986   8.473   9.314   6.150 -1.0046 -0.2822 -0.1244
 1982SOL     OW 9987   9.349   4.111   4.601 -0.0608  0.0818 -0.0145
 1982SOL    HW1 9988   9.339   4.017   4.593  1.4143  0.0195 -1.6710
 1982SOL    HW2 9989   9.304   4.147   4.525  0.0445  0.6766  0.1942
 1983SOL     OW 9990   4.741   0.367   4.608 -0.4930 -0.4874 -0.4486
 1983SOL    HW1 9991   4.655   0.376   4.649 -0.3534 -0.7823 -0.0789
 1983SOL    HW2 9992   4.733   0.291   4.551 -1.2999  1.1107 -2.6014
 1984SOL     OW 9993   6.485   5.975   5.509  0.4713  0.9021 -0.2788
 1984SOL    HW1 9994   6.569   6.020   5.506  0.2677  1.2542 -1.1445
 1984SOL    HW2 9995   6.507   5.883   5.490  0.7182  0.8985  0.0200
 1985SOL     OW 9996   1.041   8.934   1.210 -0.1882 -0.3111 -0.4509
 1985SOL    HW1 9997   1.015   9.024   1.228 -1.8239 -1.1140  1.7606
 1985SOL    HW2 9998   1.137   8.936   1.211 -0.1803  1.1838  1.1369
 1986SOL     OW 9999   6.924   6.811   2.797  0.3013  0.1486 -0.0030
 1986SOL    HW110000   6.952   6.886   2.850 -1.6647  0.8812  0.0952
 1986SOL    HW210001   7.004   6.763   2.779  1.2661  0.7126  2.3534
 1987SOL     OW10002   8.134   7.065   7.498 -0.2684 -0.3254  0.1563
 1987SOL    HW110003   8.193   7.006   7.452  0.5720 -0.4615  1.3638
 1987SOL    HW210004   8.075   7.098   7.430  0.6644 -0.8289 -0.9236
 1988SOL     OW10005   9.904   7.742   7.008 -0.2616  0.2464 -0.1689
 1988SOL    HW110006   9.965   7.796   7.058 -0.1372  0.8389 -0.9416
 1988SOL    HW210007   9.958   7.677   6.964 -0.1570  0.8414 -0.9432
 1989SOL     OW10008   6.903   8.413   2.153 -0.0637 -0.1992  0.0923
 1989SOL    HW110009   6.980   8.451   2.196 -0.4627  0.0553  0.5809
 1989SOL    HW210010   6.871   8.482   2.096  1.5372 -1.1200 -2.0587
 1990SOL     OW10011   4.583   0.890   1.037  0.1034  0.1539  0.4078
 1990SOL    HW110012   4.509   0.930   0.991  0.9726  2.1674  0.6341
 1990SOL    HW210013   4.547   0.858   1.119 -0.3506  2.2943  1.1116
 1991SOL     OW10014   8.256   0.141   9.540  0.2884  0.0673 -0.0481
 1991SOL    HW110015   8.230   0.214   9.598 -0.1489  0.0748 -0.2439
 1991SOL    HW210016   8.345   0.119   9.567 -0.3394 -0.7552  1.4747
 1992SOL     OW10017   8.233   3.820   2.535  0.6073  0.4909 -0.2819
 1992SOL    HW110018   8.269   3.732   2.522 -1.1815 -0.4728  0.9625
 1992SOL    HW210019   8.214   3.824   2.628  1.1620  2.4456 -0.2080
 1993SOL     OW10020   1.688   3.675   3.078 -0.0673 -0.3706  0.3036
 1993SOL    HW110021   1.675   3.628   3.160 -1.9833  1.7614  1.3404
 1993SOL    HW210022   1.614   3.650   3.024  0.2506 -0.4444 -0.1026
 1994SOL     OW10023   5.385   1.106   7.159 -0.9978 -0.1264  0.4918
 1994SOL    HW110024   5.452   1.040   7.174 -0.7938 -0.3096 -1.1363
 1994SOL    HW210025   5.418   1.158   7.086 -1.1628  1.7835  1.6918
 1995SOL     OW10026   4.533   5.575   7.378  0.2945  0.1585 -0.1112
 1995SOL    HW110027   4.617   5.585   7.332  0.6056  2.1739  0.7790
 1995SOL    HW210028   4.487   5.657   7.362  0.0148  0.5466  2.3057
 1996SOL     OW10029   5.811   5.455   8.675  0.1405 -0.0358 -0.5805
 1996SOL    HW110030   5.799   5.520   8.605  0.7910  0.1547 -0.5164
 1996SOL    HW210031   5.803   5.371   8.630  0.6573  0.0851 -0.9004
 1997SOL     OW10032   0.544   3.827   9.480 -0.0193 -0.0975 -0.3507
 1997SOL    HW110033   0.479   3.892   9.508 -0.3860  0.0309 -1.4573
 1997SOL    HW210034   0.589   3.869   9.406 -0.4484 -1.2139 -1.2636
 1998SOL     OW10035   2.406   7.693   7.823 -0.1153  0.0142 -0.2181
 1998SOL    HW110036   2.479   7.656   7.773 -0.8889 -2.0626  0.1257
 1998SOL    HW210037   2.445   7.767   7.870  2.1856 -1.9234  1.1689
 1999SOL     OW10038   1.887   0.220   7.236  0.3706  0.1451 -0.0851
 1999SOL    HW110039   1.843   0.169   7.168 -0.4528 -0.9031  1.1999
 1999SOL    HW210040   1.912   0.156   7.302 -0.1703  1.3219  1.3111
 2000SOL     OW10041   1.842   0.077   3.871 -0.2105 -0.4063  0.3470
 2000SOL    HW110042   1.852   0.081   3.966  1.1394 -0.9008  0.2482
 2000SOL    HW210043   1.890   0.154   3.839 -0.4449 -0.3841  0.0447
 2001SOL     OW10044   0.544   1.972   0.044  0.0693  0.3458 -0.5349
 2001SOL    HW110045   0.480   1.980   0.114  2.1890  0.9710  1.4773
 2001SOL    HW210046   0.599   2.051   0.052  1.6043 -0.5514 -1.5932
 2002SOL     OW10047   2.079   9.491   3.176 -0.1313 -0.3078 -0.1109
 2002SOL    HW110048   2.134   9.517   3.103 -0.0242 -0.8819 -0.2337
 2002SOL    HW210049   2.037   9.573   3.205  1.0730  0.2029  0.2378
 2003SOL     OW10050   9.811   6.810   3.095  0.2006 -0.6151  0.2558
 2003SOL    HW110051   9.764   6.849   3.169  0.4783 -0.1547  0.1951
 2003SOL    HW210052   9.813   6.879   3.029 -0.3183 -1.1340 -0.3035
 2004SOL     OW10053   8.280   6.564   7.384 -0.4103 -0.3609 -0.8938
 2004SOL    HW110054   8.257   6.656   7.369 -0.9957 -0.6295 -1.6423
 2004SOL    HW210055   8.375   6.561   7.370  0.1886  0.7141  2.0359
 2005SOL     OW10056   0.845   5.844   4.891 -0.1960  0.0567  0.3326
 2005SOL    HW110057   0.752   5.825   4.900 -0.2144  0.2768  0.6055
 2005SOL    HW210058   0.887   5.795   4.961 -0.1704  0.4310  0.5841
 2006SOL     OW10059   3.530   3.361   1.506 -0.0558 -0.0543 -0.6706
 2006SOL    HW110060   3.493   3.363   1.594  0.4853  0.9260 -0.4419
 2006SOL    HW210061   3.480   3.294   1.459 -0.4149 -0.5115  0.3514
 2007SOL     OW10062   8.149   9.147   9.157  0.0130 -0.1115 -0.1636
 2007SOL    HW110063   8.072   9.126   9.210  0.1359 -1.0193 -0.3167
 2007SOL    HW210064   8.114   9.161   9.069 -0.2219  1.6549  0.1708
 2008SOL     OW10065  10.273   7.934   2.179 -0.4936  1.0634 -0.0497
 2008SOL    HW110066  10.364   7.941   2.150 -0.7370 -1.6307 -1.7737
 2008SOL    HW210067  10.230   7.883   2.111 -3.2598  1.9497  0.9109
 2009SOL     OW10068  10.075   4.712   7.011  0.1870  0.3730 -0.0860
 2009SOL    HW110069  10.052   4.805   7.021  1.7502  0.5745  2.7417
 2009SOL    HW210070  10.042   4.688   6.925 -0.4224  3.5130 -0.8429
 2010SOL     OW10071   7.528   6.518   6.393 -0.2742 -0.1868  0.3218
 2010SOL    HW110072   7.622   6.512   6.410  0.3100 -1.4207 -2.6392
 2010SOL    HW210073   7.515   6.608   6.363  0.2192 -0.3250 -0.3373
 2011SOL     OW10074  10.292   3.240   0.908  1.4574  0.1053  0.0974
 2011SOL    HW110075  10.320   3.194   0.988  2.7301  0.1046 -0.3443
 2011SOL    HW210076  10.326   3.329   0.918  0.8589  0.3554 -0.0498
 2012SOL     OW10077   4.708   3.044   9.285  0.3436 -0.6099 -0.0706
 2012SOL    HW110078   4.793   3.087   9.285  0.0127  0.0745  0.9873
 2012SOL    HW210079   4.705   2.997   9.369 -0.7588  0.2743  0.4054
 2013SOL     OW10080   1.859   9.641   0.242  0.0706 -0.3117  0.3753
 2013SOL    HW110081   1.902   9.556   0.251 -0.9467 -0.8104  0.6400
 2013SOL    HW210082   1.922   9.704   0.279 -0.0565 -1.2018  2.2120
 2014SOL     OW10083   0.094   9.957   0.954 -0.7370 -0.1423 -0.2689
 2014SOL    HW110084   0.115  10.018   1.026 -1.3941  1.8470 -1.6598
 2014SOL    HW210085   0.176   9.950   0.905 -0.5381 -0.7701  0.1420
 2015SOL     OW10086   5.419   7.590   4.908 -0.0306  0.3543  0.0438
 2015SOL    HW110087   5.455   7.521   4.963 -1.1547 -0.1519  0.1786
 2015SOL    HW210088   5.486   7.659   4.908  1.3699 -0.9549 -0.5629
 2016SOL     OW10089   3.620   8.338   0.913  0.8607  0.2047 -0.1842
 2016SOL    HW110090   3.692   8.274   0.914 -0.3271 -1.1953  1.2092
 2016SOL    HW210091   3.566   8.311   0.839 -0.2626 -1.2245  1.0868
 2017SOL     OW10092   2.564   1.063   0.564 -0.6833 -0.0345  0.5548
 2017SOL    HW110093   2.603   1.070   0.477 -1.4239 -0.3124  0.1958
 2017SOL    HW210094   2.638   1.071   0.624  0.0935 -1.6757 -0.1356
 2018SOL     OW10095   1.999   5.019   9.141  0.5784 -1.0168  0.6964
 2018SOL    HW110096   2.046   4.956   9.197 -0.7981 -0.4973  2.5453
 2018SOL    HW210097   2.029   5.105   9.172 -1.1811 -0.6897  1.5876
 2019SOL     OW10098   9.450   6.620   8.767  0.1056 -0.2042  0.5097
 2019SOL    HW110099   9.541   6.615   8.736  1.1049  1.9610  2.7029
 2019SOL    HW210100   9.440   6.543   8.824  0.2109 -0.9489 -0.4450
 2020SOL     OW10101   1.153   4.523   1.000  0.5761 -0.0665 -0.2998
 2020SOL    HW110102   1.143   4.490   0.910 -1.2537 -0.3672 -0.0270
 2020SOL    HW210103   1.214   4.596   0.992 -0.3233  0.5615 -1.9798
 2021SOL     OW10104   8.638   8.243   5.184 -0.4131  0.0519  0.5785
 2021SOL    HW110105   8.663   8.335   5.171  0.3718 -0.4701 -2.1489
 2021SOL    HW210106   8.696   8.212   5.253  1.6544  0.7985 -0.7239
 2022SOL     OW10107   2.794   0.684   1.506  0.5167  0.0947  0.1547
 2022SOL    HW110108   2.719   0.669   1.564  1.3285 -1.0482  0.9536
 2022SOL    HW210109   2.839   0.760   1.544  1.0298 -0.6329  1.0337
 2023SOL     OW10110   9.703   8.332   7.319 -0.3139  0.1466 -0.0640
 2023SOL    HW110111   9.639   8.292   7.260  1.0029 -0.8393 -0.8798
 2023SOL    HW210112   9.680   8.297   7.405 -0.8282 -0.2494 -0.3512
 2024SOL     OW10113   2.129   2.388   7.530  0.0908 -0.9719  0.2105
 2024SOL    HW110114   2.102   2.441   7.605 -2.7116 -2.2215  0.1872
 2024SOL    HW210115   2.154   2.451   7.463 -0.4569  0.2361  1.1208
 2025SOL     OW10116   1.198   8.312   3.547  0.0506  0.4471 -0.2227
 2025SOL    HW110117   1.130   8.294   3.612 -0.0515 -1.0401 -0.7165
 2025SOL    HW210118   1.202   8.408   3.543 -2.2579  0.5856 -0.4221
 2026SOL     OW10119   7.918   6.305   0.716  0.0295 -0.1227  0.0485
 2026SOL    HW110120   7.888   6.346   0.797  0.1057  0.1035 -0.0352
 2026SOL    HW210121   7.837   6.278   0.672  0.0287 -1.3612  0.7588
 2027SOL     OW10122   9.231   6.944   7.585 -0.0684  0.3053 -0.2037
 2027SOL    HW110123   9.254   7.005   7.515  2.1439  1.1644  1.1616
 2027SOL    HW210124   9.273   6.980   7.663 -0.6915 -1.7263  1.1583
 2028SOL     OW10125   9.204   4.326   3.913 -0.4773  0.0094  0.5762
 2028SOL    HW110126   9.230   4.235   3.919 -0.3456  0.0656  0.8563
 2028SOL    HW210127   9.146   4.330   3.836 -0.0041 -0.1959  0.2025
 2029SOL     OW10128   8.765   5.320   7.826  0.4396 -0.2483  0.3645
 2029SOL    HW110129   8.710   5.391   7.792  1.6538  0.8004  0.5107
 2029SOL    HW210130   8.715   5.283   7.898 -1.1916 -1.0360 -1.0923
 2030SOL     OW10131   5.048   7.334   0.114 -0.0062  0.1536 -0.7147
 2030SOL    HW110132   5.004   7.354   0.031  0.7247 -0.1096 -1.1792
 2030SOL    HW210133   4.977   7.322   0.177 -0.6094 -0.4530 -1.4930
 2031SOL     OW10134   7.607   0.116   2.846 -0.5492 -0.3904 -0.1565
 2031SOL    HW110135   7.579   0.192   2.897  1.8681  0.9621 -0.6603
 2031SOL    HW210136   7.663   0.066   2.905  1.5668  0.7302 -1.0951
 2032SOL     OW10137   9.919   7.853   9.934  0.4368 -0.0634  0.8586
 2032SOL    HW110138   9.978   7.862  10.008  1.9822 -1.4631 -0.1516
 2032SOL    HW210139   9.897   7.943   9.910  2.6438  0.5324  0.9060
 2033SOL     OW10140   4.824   4.186   1.269  0.0765 -0.3712  0.5113
 2033SOL    HW110141   4.773   4.121   1.317 -1.1543 -1.0394 -1.5707
 2033SOL    HW210142   4.897   4.137   1.232  0.9726  0.1200  1.5838
 2034SOL     OW10143   1.659   4.862   2.262 -0.4545 -0.1452  0.0893
 2034SOL    HW110144   1.748   4.885   2.237 -0.7681 -0.7813 -1.7857
 2034SOL    HW210145   1.616   4.946   2.277  0.1652  0.2025 -0.0587
 2035SOL     OW10146   0.455   0.440   9.711  0.7340 -0.3053 -0.5969
 2035SOL    HW110147   0.530   0.383   9.698  0.3082 -1.2361  0.8601
 2035SOL    HW210148   0.412   0.443   9.625  1.7813 -0.6847 -1.1435
 2036SOL     OW10149   1.476   2.717   3.081 -0.4558 -0.4316  0.0830
 2036SOL    HW110150   1.460   2.781   3.151  2.5183 -1.4899  1.9403
 2036SOL    HW210151   1.535   2.762   3.020  1.3579 -1.1507  1.2114
 2037SOL     OW10152   1.491   8.747   7.745 -0.3165 -0.0382  0.2517
 2037SOL    HW110153   1.540   8.708   7.817  0.5454 -2.3385 -1.4602
 2037SOL    HW210154   1.558   8.786   7.689 -0.8989  0.9492  0.2187
 2038SOL     OW10155   8.914   9.025   8.951 -0.4326 -0.1555  0.4130
 2038SOL    HW110156   8.972   8.951   8.964  0.3207 -0.2897 -2.7664
 2038SOL    HW210157   8.920   9.076   9.031  2.1903 -1.4306  1.1175
 2039SOL     OW10158   0.644   3.037   3.042 -0.2722 -0.4597 -0.4151
 2039SOL    HW110159   0.568   2.988   3.075 -0.1613 -1.2702 -1.3108
 2039SOL    HW210160   0.682   2.980   2.976  0.4343  0.4457 -0.8112
 2040SOL     OW10161   0.871   9.651   3.474  0.1827 -0.5184  0.0014
 2040SOL    HW110162   0.922   9.719   3.430 -0.1049 -1.2115 -1.4613
 2040SOL    HW210163   0.780   9.679   3.463 -0.0366 -1.7624 -1.8132
 2041SOL     OW10164   5.212   2.396   3.702  0.1158 -0.0196 -0.3387
 2041SOL    HW110165   5.192   2.311   3.742  0.6372 -1.0994 -2.2643
 2041SOL    HW210166   5.307   2.396   3.692  0.4361  1.8475  1.7598
 2042SOL     OW10167   4.959   8.638   1.619  0.6803 -0.7250  0.2790
 2042SOL    HW110168   5.016   8.704   1.580  0.7243  0.2226  1.8754
 2042SOL    HW210169   4.947   8.573   1.549 -1.9947  2.4368 -2.6379
 2043SOL     OW10170   9.881   2.226   6.153  0.1948  0.3673  0.2236
 2043SOL    HW110171   9.967   2.225   6.111  0.3863  1.8877  0.5359
 2043SOL    HW210172   9.871   2.316   6.185 -1.0981 -0.0518  1.0527
 2044SOL     OW10173   8.896   4.379   8.922  0.0280  0.2892 -0.2395
 2044SOL    HW110174   8.912   4.310   8.858  1.6697 -0.8773  1.3555
 2044SOL    HW210175   8.804   4.403   8.908 -0.5450 -2.0613 -0.9953
 2045SOL     OW10176   1.476   3.890   9.462 -0.3917  0.1053 -0.0302
 2045SOL    HW110177   1.412   3.839   9.512 -3.6941  3.1378 -0.7480
 2045SOL    HW210178   1.543   3.914   9.525 -1.1042 -1.3326  1.3448
 2046SOL     OW10179   4.783   9.505   1.623  0.4985  0.1081  0.1985
 2046SOL    HW110180   4.803   9.455   1.702  2.3688  0.0849 -0.2530
 2046SOL    HW210181   4.832   9.461   1.553  1.8476  2.2841 -0.3005
 2047SOL     OW10182   2.759   1.086   5.151  0.4107 -0.2739  0.2618
 2047SOL    HW110183   2.722   1.165   5.191 -0.1347 -0.1973 -0.3696
 2047SOL    HW210184   2.838   1.117   5.105  0.8134 -0.2944  0.9301
 2048SOL     OW10185   9.940   4.319   8.463 -0.0075  0.2177  0.8925
 2048SOL    HW110186   9.993   4.261   8.409 -1.2769 -1.5288  1.4475
 2048SOL    HW210187   9.992   4.333   8.542 -0.0785 -0.9541  1.1589
 2049SOL     OW10188   2.704   1.489   5.043  0.2463 -0.7027 -0.5502
 2049SOL    HW110189   2.631   1.428   5.037  0.6592 -1.3778  0.8411
 2049SOL    HW210190   2.775   1.447   4.993  0.1078 -0.6784 -0.7705
 2050SOL     OW10191   3.700   5.518   5.876  0.0310 -0.3512 -0.1221
 2050SOL    HW110192   3.716   5.572   5.953 -1.8798  1.6979 -1.0439
 2050SOL    HW210193   3.680   5.431   5.911  1.8456 -0.2092  1.4807
 2051SOL     OW10194   2.802   9.088   7.784 -0.4840 -0.0039  0.2421
 2051SOL    HW110195   2.786   9.015   7.724 -3.2886 -0.1421  0.9999
 2051SOL    HW210196   2.877   9.060   7.836  0.1472 -1.1768 -1.2084
 2052SOL     OW10197   8.673   0.087   5.894 -0.4410 -0.6292 -0.3000
 2052SOL    HW110198   8.633   0.035   5.824  0.4725 -0.1812 -1.1779
 2052SOL    HW210199   8.604   0.146   5.922 -0.9325 -1.0636 -0.5610
 2053SOL     OW10200   7.933   2.557   1.600 -0.3725 -0.6047 -0.0842
 2053SOL    HW110201   7.882   2.610   1.662  2.1120  1.9391 -0.0219
 2053SOL    HW210202   7.980   2.495   1.655 -1.6150 -1.4390  0.0710
 2054SOL     OW10203   7.244   1.386   2.503  0.5640  0.5735  0.3505
 2054SOL    HW110204   7.336   1.390   2.527  0.2304  0.7427  1.6713
 2054SOL    HW210205   7.198   1.430   2.574 -0.6444 -0.6813  0.3927
 2055SOL     OW10206   4.476   8.504   6.984  0.0251 -0.3396  0.6153
 2055SOL    HW110207   4.493   8.424   6.933 -0.6933  0.2069 -0.5010
 2055SOL    HW210208   4.388   8.492   7.019  0.1706 -0.3097  1.0063
 2056SOL     OW10209   1.096   9.643   8.376 -0.3315  0.1534 -0.1032
 2056SOL    HW110210   1.167   9.697   8.340 -0.3865 -1.0764 -2.1684
 2056SOL    HW210211   1.039   9.625   8.302 -1.2302 -1.3367  0.9080
 2057SOL     OW10212  10.108   6.298   9.154 -0.5020 -0.1253 -0.1317
 2057SOL    HW110213  10.125   6.323   9.245  2.0535  0.9309 -0.7932
 2057SOL    HW210214  10.013   6.298   9.146 -0.7611  1.4734  2.1014
 2058SOL     OW10215   5.957   7.150   3.340 -0.0305  0.0747 -0.5753
 2058SOL    HW110216   5.997   7.220   3.287 -0.8521  1.6251  0.7587
 2058SOL    HW210217   6.027   7.122   3.399 -0.3443  1.5186  0.5322
 2059SOL     OW10218   3.965   9.420   1.051 -0.4843 -0.4685  0.4342
 2059SOL    HW110219   3.984   9.443   0.960 -1.2973 -0.9554  0.1280
 2059SOL    HW210220   3.929   9.331   1.046  0.0999 -0.7671  1.3051
 2060SOL     OW10221   1.240   2.571   0.975  0.1726 -0.5035 -0.0270
 2060SOL    HW110222   1.191   2.653   0.980  1.9492  0.5308  1.3957
 2060SOL    HW210223   1.219   2.526   1.057 -0.5309 -1.3479 -0.6523
 2061SOL     OW10224   1.235   8.016   8.791 -0.1049  0.3174  0.0614
 2061SOL    HW110225   1.321   8.017   8.750  0.4128 -2.1484  0.8786
 2061SOL    HW210226   1.254   8.011   8.885 -1.0353 -1.6620  0.2033
 2062SOL     OW10227   8.371   1.304   3.441  0.0867 -0.4049 -0.0321
 2062SOL    HW110228   8.432   1.284   3.512  1.0874  1.8459 -0.1713
 2062SOL    HW210229   8.416   1.274   3.361 -0.0084 -0.7898  0.0536
 2063SOL     OW10230   7.822   0.865   1.199 -0.3088 -0.0145  0.0258
 2063SOL    HW110231   7.867   0.791   1.158 -0.1033  0.5789 -0.8669
 2063SOL    HW210232   7.730   0.853   1.174 -0.3463 -0.2232  0.2708
 2064SOL     OW10233   9.985   2.351   1.030 -0.6460  0.4324  0.4402
 2064SOL    HW110234   9.983   2.355   0.935  0.3720 -0.7000  0.3476
 2064SOL    HW210235  10.061   2.405   1.055 -0.5087  0.1873  0.5596
 2065SOL     OW10236  10.062   8.579   6.225 -0.4045  0.5344 -0.6515
 2065SOL    HW110237  10.117   8.652   6.197  0.0795  0.2217 -0.5425
 2065SOL    HW210238  10.088   8.564   6.316 -0.3183  0.0697 -0.7488
 2066SOL     OW10239   2.326   1.568   5.832 -0.4383  0.3195 -0.0051
 2066SOL    HW110240   2.386   1.595   5.763 -0.4992  1.1272  0.2458
 2066SOL    HW210241   2.250   1.625   5.821 -0.0989  1.0532  1.2444
 2067SOL     OW10242   2.269   9.754   6.480  0.5799  0.2111 -0.3791
 2067SOL    HW110243   2.265   9.714   6.567 -0.4720 -2.4885 -1.5546
 2067SOL    HW210244   2.185   9.800   6.471  0.4342 -0.0119 -0.1845
 2068SOL     OW10245   9.325   0.024   5.278 -0.7253  0.2254 -0.1453
 2068SOL    HW110246   9.328   0.040   5.183 -1.6136 -0.8933 -0.3894
 2068SOL    HW210247   9.260  -0.046   5.288 -0.1020 -0.1889  1.2204
 2069SOL     OW10248   1.754   3.832   3.949  0.3641 -0.0892 -0.0340
 2069SOL    HW110249   1.684   3.768   3.956  1.6212 -1.6006 -0.6028
 2069SOL    HW210250   1.734   3.898   4.015 -0.7426 -1.3156  0.8850
 2070SOL     OW10251   6.195   5.945   4.198  0.0169  0.6650  0.1991
 2070SOL    HW110252   6.250   5.898   4.260  1.2850  1.8838  0.0320
 2070SOL    HW210253   6.108   5.906   4.210  0.3809  0.3536  2.1878
 2071SOL     OW10254   5.486   9.124   6.373 -0.2512 -0.0280 -0.0538
 2071SOL    HW110255   5.408   9.114   6.319 -0.2015 -0.1481 -0.1041
 2071SOL    HW210256   5.463   9.082   6.456 -0.6346  0.9167  0.3282
 2072SOL     OW10257   6.887   8.780   7.690  0.3606  0.1120  0.1768
 2072SOL    HW110258   6.882   8.808   7.781 -1.5183 -0.1555  0.1893
 2072SOL    HW210259   6.814   8.824   7.647  0.8183 -0.2873 -1.0692
 2073SOL     OW10260   2.702   4.655   6.578  0.5468 -0.0022 -0.1746
 2073SOL    HW110261   2.680   4.669   6.486  1.2700  1.4006 -0.1666
 2073SOL    HW210262   2.739   4.739   6.607  0.3906 -0.4303  1.3781
 2074SOL     OW10263   4.929   3.199   3.154 -0.2410 -0.1680 -0.2904
 2074SOL    HW110264   4.898   3.261   3.219 -0.5428 -0.3319 -0.2760
 2074SOL    HW210265   4.910   3.113   3.191  2.7587 -0.3914  1.0085
 2075SOL     OW10266   1.287   0.671   4.891 -0.2233  0.0248  0.4631
 2075SOL    HW110267   1.368   0.637   4.928 -1.2425 -2.5696  0.5357
 2075SOL    HW210268   1.313   0.715   4.810  1.4921  1.4750  1.7562
 2076SOL     OW10269   3.521   8.080   1.873  0.3032  0.4603 -0.6013
 2076SOL    HW110270   3.603   8.129   1.885  0.5191  0.3319 -1.5220
 2076SOL    HW210271   3.453   8.140   1.903  0.7002  0.6986 -0.1542
 2077SOL     OW10272  10.297   5.903   7.185  0.0847 -0.2950  0.1946
 2077SOL    HW110273  10.222   5.872   7.236  1.3482 -1.0306  1.6988
 2077SOL    HW210274  10.279   5.874   7.095 -1.1049 -1.0467  0.6604
 2078SOL     OW10275   9.675   5.585   3.787  0.6729  0.3149  0.3282
 2078SOL    HW110276   9.599   5.560   3.840  0.2392 -3.0362 -1.5762
 2078SOL    HW210277   9.749   5.585   3.847 -0.3681  0.7468  1.6535
 2079SOL     OW10278   8.669  10.181   7.685  0.1858 -0.7332 -0.0537
 2079SOL    HW110279   8.574  10.183   7.688  0.1794 -0.9133 -0.1212
 2079SOL    HW210280   8.697  10.218   7.769  0.0737  0.6617 -0.6029
 2080SOL     OW10281   8.972   6.970   0.287 -0.2642 -0.3929 -0.3346
 2080SOL    HW110282   8.934   6.988   0.201  0.7334 -0.7633 -0.8712
 2080SOL    HW210283   8.981   7.057   0.328  1.2604  0.0472 -1.4923
 2081SOL     OW10284   8.341   6.298  10.232 -0.4618 -0.4740  0.0291
 2081SOL    HW110285   8.283   6.336  10.166 -1.0020 -1.3707 -0.0236
 2081SOL    HW210286   8.406   6.366  10.248 -0.4382 -0.1629 -1.2791
 2082SOL     OW10287   7.034   6.161   6.705 -0.1498  0.4132  0.1213
 2082SOL    HW110288   7.006   6.072   6.727 -0.1061  0.2065 -0.6358
 2082SOL    HW210289   7.127   6.163   6.724 -0.6085  1.1028  2.6529
 2083SOL     OW10290   9.248   9.345   7.257  0.4434  0.1809 -0.6747
 2083SOL    HW110291   9.224   9.256   7.234  0.3012  0.4811 -1.7463
 2083SOL    HW210292   9.169   9.382   7.297 -0.2791  0.5307 -2.3430
 2084SOL     OW10293   9.022   8.784   9.043 -0.6783  0.3914  0.0056
 2084SOL    HW110294   8.973   8.777   9.125  1.8915  0.6494  1.6587
 2084SOL    HW210295   9.044   8.694   9.021 -0.0552  0.4306  0.4555
 2085SOL     OW10296   6.694   4.923   8.623 -0.2128 -0.5664 -0.0494
 2085SOL    HW110297   6.742   4.903   8.704 -2.1867 -0.3836  1.2569
 2085SOL    HW210298   6.631   4.991   8.650  1.2216  1.9578 -2.5373
 2086SOL     OW10299   3.852   4.418   7.580  0.0639 -0.2315  0.3754
 2086SOL    HW110300   3.930   4.400   7.527  0.0173  0.0786  0.2011
 2086SOL    HW210301   3.888   4.448   7.664  0.1359 -0.5613  0.4639
 2087SOL     OW10302   8.795   3.703   9.096 -0.1459 -0.0508  0.2452
 2087SOL    HW110303   8.796   3.608   9.094  0.4990 -0.1148  1.8911
 2087SOL    HW210304   8.885   3.728   9.074 -0.1066  0.1274  0.5927
 2088SOL     OW10305   5.970   1.101   1.779 -0.0492 -0.6165  0.2199
 2088SOL    HW110306   6.003   1.060   1.699 -1.7837 -0.9403 -0.3768
 2088SOL    HW210307   5.919   1.176   1.748  0.0202 -0.1926  1.0936
 2089SOL     OW10308   3.150   0.766   5.497 -0.0277 -0.2140  0.1148
 2089SOL    HW110309   3.090   0.721   5.436  0.7175 -1.4189  0.2354
 2089SOL    HW210310   3.180   0.697   5.556  0.2842  0.6863  1.0348
 2090SOL     OW10311   5.562   6.896   8.520  0.4474  0.4771 -0.3135
 2090SOL    HW110312   5.621   6.901   8.445  2.3921 -0.0692  1.1255
 2090SOL    HW210313   5.514   6.979   8.518  2.0417  1.4253 -0.9113
 2091SOL     OW10314   9.476   4.878   3.002 -0.2662  0.5411 -0.1847
 2091SOL    HW110315   9.563   4.911   3.028  0.1111 -0.5116 -0.0662
 2091SOL    HW210316   9.433   4.857   3.084 -0.2011 -0.0066 -0.2899
 2092SOL     OW10317   6.894   7.382   3.949  0.1651  0.2636  0.5421
 2092SOL    HW110318   6.965   7.443   3.968 -0.1106  1.3277 -1.5970
 2092SOL    HW210319   6.816   7.436   3.943 -0.6363 -0.7220  1.5101
 2093SOL     OW10320   8.319   1.747   8.297  0.4269  0.8438  0.2223
 2093SOL    HW110321   8.371   1.791   8.364  0.5735  0.6270  0.2522
 2093SOL    HW210322   8.357   1.660   8.290 -1.2960 -0.1098  1.8096
 2094SOL     OW10323   2.540   5.568   9.563 -0.6363 -0.0782 -0.2531
 2094SOL    HW110324   2.561   5.650   9.606 -1.3776  0.0248 -0.0731
 2094SOL    HW210325   2.612   5.509   9.586 -0.7078  0.1618  0.6029
 2095SOL     OW10326  10.019  10.135   5.808 -0.1492  0.1194 -0.5188
 2095SOL    HW110327   9.950  10.068   5.805  0.0289 -0.1961  1.2392
 2095SOL    HW210328  10.078  10.106   5.878  0.4069  1.6625 -0.3021
 2096SOL     OW10329   9.204   1.490   9.646  0.1444 -0.0343 -0.5151
 2096SOL    HW110330   9.135   1.448   9.595  0.3347 -0.4206 -0.4551
 2096SOL    HW210331   9.186   1.583   9.638  1.1125  0.0132 -2.6195
 2097SOL     OW10332   5.363   0.171  10.101  0.0845  0.0746 -0.0526
 2097SOL    HW110333   5.434   0.168  10.165  0.4531  0.1167 -0.4528
 2097SOL    HW210334   5.319   0.254  10.119  0.4352  0.2791 -0.1068
 2098SOL     OW10335   5.578   8.030   6.264 -0.8822 -0.0912 -0.0114
 2098SOL    HW110336   5.623   8.115   6.261 -1.4049  0.3062  2.1375
 2098SOL    HW210337   5.623   7.977   6.198  1.0303  1.0974  0.2607
 2099SOL     OW10338   7.920   3.190   7.905  0.0922  0.3760  0.7814
 2099SOL    HW110339   7.971   3.156   7.978  1.4173  0.6523  0.0060
 2099SOL    HW210340   7.947   3.281   7.896 -1.0995  0.7597  0.8175
 2100SOL     OW10341   3.059   6.028   9.340  0.5824 -0.1017  0.0767
 2100SOL    HW110342   3.034   5.941   9.370  1.2648 -0.8487 -1.4119
 2100SOL    HW210343   2.995   6.050   9.272  1.8129 -0.5332 -1.2816
 2101SOL     OW10344   6.569   2.409   4.976  0.5551  0.5493 -0.3659
 2101SOL    HW110345   6.489   2.357   4.965 -0.0222  1.3720 -0.1045
 2101SOL    HW210346   6.548   2.472   5.045  0.4393  2.6750 -2.2303
 2102SOL     OW10347   2.300   3.865   0.539  0.0283 -0.2520  0.1900
 2102SOL    HW110348   2.298   3.960   0.544  1.5899 -0.2240  1.2924
 2102SOL    HW210349   2.348   3.838   0.618  1.9602 -1.7766 -1.3899
 2103SOL     OW10350   1.770   1.647   1.444 -0.3580 -0.1089  0.2668
 2103SOL    HW110351   1.697   1.670   1.500 -1.1520 -1.4264 -0.1670
 2103SOL    HW210352   1.785   1.724   1.390 -2.3077 -0.2327 -0.5336
 2104SOL     OW10353   5.747   1.769   8.499  0.1079 -0.2356 -0.2180
 2104SOL    HW110354   5.660   1.792   8.531  0.1515 -2.0817  1.4408
 2104SOL    HW210355   5.731   1.735   8.410 -0.9092 -0.6832  0.1131
 2105SOL     OW10356   7.139   8.639   4.720 -0.0939 -0.1016 -0.4633
 2105SOL    HW110357   7.085   8.660   4.644 -1.2868 -2.3832 -0.3299
 2105SOL    HW210358   7.221   8.606   4.683  0.3962  1.3192 -0.6925
 2106SOL     OW10359   9.124   2.379   7.690  0.0429  0.1516  0.0234
 2106SOL    HW110360   9.077   2.311   7.640 -0.8979  0.7018  0.1266
 2106SOL    HW210361   9.058   2.413   7.751  0.7140  0.6552  0.4845
 2107SOL     OW10362   9.989   4.484   0.443 -0.6900 -0.0854 -0.1973
 2107SOL    HW110363   9.907   4.479   0.493 -1.0352 -1.1402 -0.8207
 2107SOL    HW210364   9.977   4.420   0.373  1.6938 -2.2428  1.2007
 2108SOL     OW10365   8.128   8.085  10.282 -0.2807 -0.0469  0.4640
 2108SOL    HW110366   8.082   8.030  10.219 -0.2043  1.0105 -0.5560
 2108SOL    HW210367   8.122   8.037  10.365  0.4327 -1.9456 -0.5121
 2109SOL     OW10368   4.761   5.547   5.664 -0.4556 -0.3093  0.5185
 2109SOL    HW110369   4.675   5.512   5.685  0.0006 -0.1333  2.9427
 2109SOL    HW210370   4.820   5.507   5.728  0.9707  0.9086  0.0279
 2110SOL     OW10371   4.043   5.121   4.683 -0.5573  0.2610  0.4372
 2110SOL    HW110372   4.104   5.077   4.623 -0.7626 -0.8493  1.0166
 2110SOL    HW210373   3.977   5.055   4.703 -1.3750  1.1199  0.6495
 2111SOL     OW10374   2.940   6.434   1.825  0.5053 -0.0191  0.1739
 2111SOL    HW110375   2.927   6.528   1.815  0.0281 -0.2261 -1.5765
 2111SOL    HW210376   2.909   6.414   1.913 -0.6531  1.2646  0.0867
 2112SOL     OW10377   4.634   0.219   7.891  0.0955 -0.2625  0.3080
 2112SOL    HW110378   4.616   0.137   7.937 -1.5464  0.8380  1.7400
 2112SOL    HW210379   4.597   0.206   7.804 -1.3333 -0.6197  0.9391
 2113SOL     OW10380   5.982   8.931   8.122  0.4128 -0.4236  0.7195
 2113SOL    HW110381   5.976   9.000   8.188  0.2586  3.3066 -2.8002
 2113SOL    HW210382   6.063   8.950   8.074 -0.2674 -1.9333 -1.1596
 2114SOL     OW10383   9.330   3.403   4.501 -0.0034  0.4512  0.1225
 2114SOL    HW110384   9.399   3.459   4.466  0.2473 -0.9141 -1.7099
 2114SOL    HW210385   9.256   3.463   4.517  1.0790  1.6808  0.6907
 2115SOL     OW10386   6.200   3.191   7.211  0.2313 -0.0025  0.5636
 2115SOL    HW110387   6.189   3.191   7.306  2.1654 -0.7731  0.8469
 2115SOL    HW210388   6.212   3.099   7.189  2.2179  0.3563 -0.0493
 2116SOL     OW10389   6.843   2.438   1.094 -0.3375 -1.1647 -0.2847
 2116SOL    HW110390   6.784   2.489   1.038  0.7784  1.4849  0.7706
 2116SOL    HW210391   6.827   2.472   1.182  0.6356 -2.5329  0.4477
 2117SOL     OW10392   4.884   5.952   5.498  0.1709  0.2859  0.0376
 2117SOL    HW110393   4.955   5.987   5.553  0.0756  0.9996 -0.2742
 2117SOL    HW210394   4.844   6.030   5.459 -1.6677  0.0180  1.2425
 2118SOL     OW10395   9.016   1.778   3.359 -0.7925 -0.3485  0.6653
 2118SOL    HW110396   9.073   1.813   3.291 -1.0502 -0.7284  0.2485
 2118SOL    HW210397   8.997   1.854   3.415  1.4104 -0.5384  1.7708
 2119SOL     OW10398   4.283   8.751   7.068 -0.0936 -0.6216  0.5054
 2119SOL    HW110399   4.261   8.657   7.072 -0.8936 -0.7949 -3.3675
 2119SOL    HW210400   4.201   8.793   7.043  1.1474  0.4233 -2.1799
 2120SOL     OW10401   4.547   5.744   7.988 -0.0397  0.4874  0.2329
 2120SOL    HW110402   4.583   5.827   7.957 -0.2206  0.0454 -1.2646
 2120SOL    HW210403   4.454   5.749   7.966  0.0153 -0.2419 -0.2036
 2121SOL     OW10404   1.479   3.919   4.111  0.1603 -0.4819  0.1504
 2121SOL    HW110405   1.493   3.837   4.158 -2.3113 -0.6036  0.8293
 2121SOL    HW210406   1.487   3.987   4.178  0.8439 -0.2618 -0.1412
 2122SOL     OW10407   5.700   1.374   0.667 -0.5546  0.0531 -0.6136
 2122SOL    HW110408   5.606   1.364   0.650 -0.6852  1.6240 -1.0011
 2122SOL    HW210409   5.707   1.460   0.709  0.6566 -0.3124 -0.0375
 2123SOL     OW10410   9.965   2.913   5.705 -0.3409 -0.0755  1.0611
 2123SOL    HW110411   9.896   2.965   5.747 -1.0776 -0.7151  0.6510
 2123SOL    HW210412   9.958   2.827   5.746 -1.1959 -0.7703 -0.4996
 2124SOL     OW10413   1.077   6.022   7.095  0.2522  0.0040 -0.2102
 2124SOL    HW110414   0.996   6.073   7.106  1.8100  2.6239 -0.2381
 2124SOL    HW210415   1.061   5.942   7.147 -2.4680  0.2182 -0.5370
 2125SOL     OW10416   4.199   7.186   7.953 -0.0099 -0.4322 -0.0232
 2125SOL    HW110417   4.286   7.179   7.915 -0.2103  1.6910 -1.0132
 2125SOL    HW210418   4.141   7.150   7.885  0.0091 -0.9737  0.2449
 2126SOL     OW10419   2.686   0.440   7.103  0.1290 -0.0502  0.9969
 2126SOL    HW110420   2.682   0.468   7.011  1.4097  0.3260  1.0462
 2126SOL    HW210421   2.638   0.508   7.150 -0.3619 -0.1407  0.6419
 2127SOL     OW10422   8.292   7.930   9.378  0.0966  0.4057 -0.0749
 2127SOL    HW110423   8.348   7.875   9.433  1.3230  1.9025  0.2563
 2127SOL    HW210424   8.347   7.955   9.304 -1.4955 -1.4832 -2.0501
 2128SOL     OW10425   0.661   6.735   5.253  0.3259 -0.1917 -0.3684
 2128SOL    HW110426   0.679   6.713   5.161  1.6602  1.0967 -0.4529
 2128SOL    HW210427   0.716   6.811   5.270  1.7018 -1.6266  2.1092
 2129SOL     OW10428   8.037   5.538   2.468  0.3853 -0.3617  0.1425
 2129SOL    HW110429   8.058   5.454   2.510 -1.5061 -0.7880  0.3206
 2129SOL    HW210430   7.971   5.516   2.402 -0.0469  0.9663  0.1040
 2130SOL     OW10431   7.168   0.574   5.367  0.1827  0.0820 -0.4455
 2130SOL    HW110432   7.104   0.638   5.335  0.1900  0.7037  0.7498
 2130SOL    HW210433   7.237   0.575   5.301  0.3112  1.5172 -0.3177
 2131SOL     OW10434   9.075   3.469   1.895  0.1476 -0.3928  0.4075
 2131SOL    HW110435   9.150   3.412   1.913  0.7373 -0.1186 -1.0584
 2131SOL    HW210436   9.109   3.558   1.909  0.6240 -0.1668 -1.8548
 2132SOL     OW10437   6.360   0.539   5.401 -0.1136 -0.1892  0.2511
 2132SOL    HW110438   6.444   0.523   5.445 -0.2125  0.7933  0.8531
 2132SOL    HW210439   6.360   0.480   5.327  0.5278 -1.1684  1.0001
 2133SOL     OW10440   8.611   3.741   4.503  0.3846  0.1491  0.2704
 2133SOL    HW110441   8.640   3.822   4.462  1.5594 -0.3252  0.1280
 2133SOL    HW210442   8.577   3.689   4.431  1.0459 -0.0789  0.1129
 2134SOL     OW10443   0.633   4.156   9.420 -0.1326  0.0333 -0.3246
 2134SOL    HW110444   0.638   4.251   9.431  0.5339  0.2063 -1.8982
 2134SOL    HW210445   0.691   4.121   9.488 -1.1086  0.6758  0.8842
 2135SOL     OW10446   9.692   8.646   6.837  0.0815  0.1902 -0.0705
 2135SOL    HW110447   9.694   8.572   6.898 -2.4213 -0.6948 -0.9406
 2135SOL    HW210448   9.763   8.628   6.775  1.7776  0.4099  1.7148
 2136SOL     OW10449  10.183   0.393   1.772 -0.4271 -0.7927  0.1965
 2136SOL    HW110450  10.160   0.306   1.803 -0.2586 -0.8130  0.2637
 2136SOL    HW210451  10.264   0.380   1.722 -0.2123 -0.6210  0.5005
 2137SOL     OW10452   1.911   8.545   8.939 -1.0465 -0.0575 -0.3144
 2137SOL    HW110453   1.972   8.618   8.926 -1.3314  0.0310 -1.2316
 2137SOL    HW210454   1.920   8.523   9.032  1.8266 -1.3157 -0.7685
 2138SOL     OW10455   1.184   7.174   5.599 -0.0637  0.7435  0.3430
 2138SOL    HW110456   1.094   7.158   5.569  1.7311 -2.8017 -4.1862
 2138SOL    HW210457   1.204   7.263   5.570 -0.9411  0.1420 -2.3558
 2139SOL     OW10458   4.026   0.839   5.332  1.0533 -0.7648  0.3530
 2139SOL    HW110459   4.024   0.857   5.238  2.7236 -0.1991  0.3898
 2139SOL    HW210460   4.017   0.744   5.339  0.7146 -0.7874 -0.3716
 2140SOL     OW10461   9.476   1.825  10.091  0.1060 -0.4614  0.0450
 2140SOL    HW110462   9.503   1.736  10.114  0.3525 -0.3818  0.0625
 2140SOL    HW210463   9.471   1.870  10.175  1.8882  0.0814 -0.1117
 2141SOL     OW10464   1.848   9.483   7.795  0.2405  0.0728 -0.0518
 2141SOL    HW110465   1.802   9.462   7.875  2.0875 -2.5189  0.4679
 2141SOL    HW210466   1.855   9.579   7.795  0.0532  0.1524  2.7917
 2142SOL     OW10467   7.649   1.769   4.129 -0.2836 -0.2117 -0.1116
 2142SOL    HW110468   7.667   1.817   4.048 -2.5041 -0.3733 -0.7837
 2142SOL    HW210469   7.603   1.690   4.100 -1.6291 -0.0000  1.3243
 2143SOL     OW10470   5.166   0.456   7.115  0.5632  0.5443 -0.0845
 2143SOL    HW110471   5.132   0.374   7.150  0.8107  0.3322 -0.3333
 2143SOL    HW210472   5.114   0.524   7.157 -1.8689  0.1663 -2.2200
 2144SOL     OW10473   8.311   1.508   9.288  0.6068  0.1825  0.1313
 2144SOL    HW110474   8.282   1.421   9.259 -0.0603  0.3617  0.2352
 2144SOL    HW210475   8.274   1.568   9.222  1.9730  0.3028 -0.5510
 2145SOL     OW10476   9.290   0.631   2.089 -0.3484 -0.5711 -0.6050
 2145SOL    HW110477   9.293   0.606   2.181 -1.9426 -1.1178 -0.6702
 2145SOL    HW210478   9.240   0.561   2.047  1.7363 -1.2108 -2.2162
 2146SOL     OW10479   4.866   2.706   0.098  0.9941 -0.6251  0.3761
 2146SOL    HW110480   4.809   2.781   0.116  0.1346 -1.2978  0.5533
 2146SOL    HW210481   4.951   2.731   0.133  1.0262  0.7253 -0.5954
 2147SOL     OW10482   8.411   9.566   9.111  0.2311  0.0657  0.2764
 2147SOL    HW110483   8.413   9.651   9.068 -0.0112 -0.2279 -0.3162
 2147SOL    HW210484   8.338   9.571   9.173  1.4659  0.9974  1.7321
 2148SOL     OW10485   3.761   3.298   7.335 -0.1193 -0.2842  0.3324
 2148SOL    HW110486   3.730   3.228   7.278 -0.4949 -0.0567  0.2538
 2148SOL    HW210487   3.817   3.254   7.399  0.8579 -0.4496 -0.6111
 2149SOL     OW10488   5.529   4.760   3.879 -0.0258 -0.0115 -0.5764
 2149SOL    HW110489   5.552   4.732   3.968  1.2841  3.7520  0.4810
 2149SOL    HW210490   5.611   4.758   3.831 -0.4011 -0.3862 -1.2149
 2150SOL     OW10491   5.408   0.428   8.393 -0.6170  0.0870 -0.1339
 2150SOL    HW110492   5.471   0.399   8.328  0.1972 -0.8804  1.0322
 2150SOL    HW210493   5.421   0.523   8.399 -0.2436  0.0864 -0.9006
 2151SOL     OW10494   7.642   0.717   5.620  0.6851  0.2759  0.2721
 2151SOL    HW110495   7.564   0.772   5.620  0.2470 -0.3268  0.7766
 2151SOL    HW210496   7.683   0.735   5.705  2.4440  2.4189 -0.9340
 2152SOL     OW10497   8.609   6.149   3.394 -0.0214 -0.1151 -0.6681
 2152SOL    HW110498   8.685   6.145   3.336  0.1904 -1.0643 -0.3404
 2152SOL    HW210499   8.548   6.084   3.359  0.7973 -1.9230  1.0852
 2153SOL     OW10500   4.324   0.826   6.359 -0.3859 -0.4207  0.0419
 2153SOL    HW110501   4.362   0.875   6.286  0.3472 -1.3695 -0.2442
 2153SOL    HW210502   4.232   0.817   6.337 -0.2073 -0.5258 -0.6839
 2154SOL     OW10503   1.262   6.390   5.494 -0.5223 -0.7402 -0.2810
 2154SOL    HW110504   1.182   6.397   5.442 -0.6863 -0.2512  0.0342
 2154SOL    HW210505   1.234   6.350   5.576 -0.7210  0.7395  0.4064
 2155SOL     OW10506   0.776   2.054   1.951 -0.2903 -0.2900 -0.9587
 2155SOL    HW110507   0.701   2.107   1.927 -1.0273 -0.7043  0.3022
 2155SOL    HW210508   0.840   2.116   1.984 -0.0780  0.0629 -2.0051
 2156SOL     OW10509   3.724   0.804   8.885 -0.2467 -0.0751  0.4408
 2156SOL    HW110510   3.816   0.822   8.905 -0.4393 -0.3428  1.6529
 2156SOL    HW210511   3.721   0.711   8.863 -0.4965 -0.5772  2.3832
 2157SOL     OW10512   1.701   2.106   6.386 -0.0754 -0.5967 -0.4731
 2157SOL    HW110513   1.631   2.053   6.348 -0.4110 -0.3158 -0.2473
 2157SOL    HW210514   1.781   2.069   6.349 -0.2837 -1.4352 -0.1276
 2158SOL     OW10515   4.866   1.090   2.315 -0.4642 -0.1198 -0.3534
 2158SOL    HW110516   4.927   1.161   2.296  1.5758 -0.4707  3.6875
 2158SOL    HW210517   4.902   1.013   2.271  1.9485 -0.2162  1.5838
 2159SOL     OW10518   8.386   9.457   5.423  0.0924 -0.2688  0.4328
 2159SOL    HW110519   8.460   9.397   5.415 -0.5804 -1.1718  0.8008
 2159SOL    HW210520   8.315   9.403   5.457 -0.5084  0.7659  0.8642
 2160SOL     OW10521   3.823   6.195   3.342  0.1342 -0.3312 -0.3499
 2160SOL    HW110522   3.818   6.224   3.251 -1.9297  2.5063  0.5375
 2160SOL    HW210523   3.883   6.257   3.383 -0.3000 -0.5137  0.5747
 2161SOL     OW10524   9.542   3.850   4.958 -0.5489  0.4968 -0.2296
 2161SOL    HW110525   9.559   3.917   4.892 -1.2011  1.5483  0.6429
 2161SOL    HW210526   9.628   3.832   4.996 -0.3306  0.6591 -0.6379
 2162SOL     OW10527   4.805   9.061   1.787 -0.4012  0.6527  0.6720
 2162SOL    HW110528   4.773   8.981   1.830 -2.1170  1.0262  0.1671
 2162SOL    HW210529   4.825   9.034   1.698 -1.3228  0.8352  0.3981
 2163SOL     OW10530   4.960   1.606   7.027 -0.3871 -0.4417 -0.1696
 2163SOL    HW110531   4.952   1.513   7.008 -2.1026 -0.2207 -0.7222
 2163SOL    HW210532   4.998   1.644   6.948  1.0348 -0.7437  0.3373
 2164SOL     OW10533   1.429   9.336   7.967 -0.2522 -0.6053 -0.1406
 2164SOL    HW110534   1.390   9.302   7.886  0.5907 -0.4422 -0.6287
 2164SOL    HW210535   1.507   9.282   7.980  1.0635  1.0119 -0.8722
 2165SOL     OW10536   8.850   3.741   3.229 -0.4783  0.0919 -0.0361
 2165SOL    HW110537   8.912   3.812   3.213 -1.4905  0.9625 -0.2033
 2165SOL    HW210538   8.775   3.761   3.172 -0.6923 -1.2301 -0.2539
 2166SOL     OW10539   7.911   3.974   9.213 -0.6390 -0.1836 -0.0581
 2166SOL    HW110540   7.972   3.972   9.287 -1.7128  0.4113  0.8740
 2166SOL    HW210541   7.887   4.066   9.204 -0.2913 -0.2046 -1.3571
 2167SOL     OW10542   6.518   7.748   2.200 -0.1489 -0.1513 -0.2563
 2167SOL    HW110543   6.440   7.800   2.219  2.9285  4.0910  2.9361
 2167SOL    HW210544   6.548   7.782   2.115 -0.3772  0.2006 -0.2013
 2168SOL     OW10545   4.148   3.179   2.569  0.3564 -0.1730  0.0836
 2168SOL    HW110546   4.122   3.253   2.624 -0.5974 -1.5500  1.5843
 2168SOL    HW210547   4.242   3.169   2.584  0.3236  0.2006  0.5449
 2169SOL     OW10548   4.276   4.195   0.328  0.2045 -0.0668 -0.5419
 2169SOL    HW110549   4.351   4.160   0.376  0.7305  1.6101 -0.0861
 2169SOL    HW210550   4.220   4.118   0.312  1.0944 -1.0333  0.7664
 2170SOL     OW10551   7.258   8.335   1.130 -0.1903 -0.0120  0.7901
 2170SOL    HW110552   7.336   8.373   1.088 -0.9971  1.5757  0.6703
 2170SOL    HW210553   7.225   8.404   1.186  0.1561 -1.6869  3.1989
 2171SOL     OW10554   9.756   9.697   0.806 -0.3488  0.4239 -0.4131
 2171SOL    HW110555   9.827   9.635   0.790 -0.4303 -0.0938  1.0805
 2171SOL    HW210556   9.797   9.767   0.858 -0.7942  0.4134 -0.0405
 2172SOL     OW10557   0.889   8.141   4.849  0.3992  0.6500  0.2306
 2172SOL    HW110558   0.970   8.163   4.802  0.1202  0.1626 -0.5004
 2172SOL    HW210559   0.819   8.168   4.789  0.0346  0.1808  0.4408
 2173SOL     OW10560   7.352   7.532   9.798 -0.0833 -0.1383 -0.0035
 2173SOL    HW110561   7.407   7.610   9.788 -0.7760  0.4213  0.4453
 2173SOL    HW210562   7.331   7.529   9.891 -0.0314 -0.8893 -0.0137
 2174SOL     OW10563   2.888   8.785   8.793  0.3382  0.1268 -0.3626
 2174SOL    HW110564   2.931   8.833   8.863 -0.6627  0.2351  0.1868
 2174SOL    HW210565   2.960   8.742   8.746  0.9246 -1.4780  1.8254
 2175SOL     OW10566   7.755   9.131   6.881  0.0064  0.4477  0.3163
 2175SOL    HW110567   7.695   9.094   6.816 -0.5829 -1.2145  1.7281
 2175SOL    HW210568   7.832   9.074   6.877 -1.2513 -1.7408  3.1168
 2176SOL     OW10569   7.376  10.107   0.867  0.0570  0.0872 -0.5871
 2176SOL    HW110570   7.344  10.017   0.867 -0.8179  0.3830 -1.1333
 2176SOL    HW210571   7.471  10.099   0.867 -0.0008 -0.8469 -1.6355
 2177SOL     OW10572   1.894   9.866   7.484  0.0423  0.0468 -0.5571
 2177SOL    HW110573   1.841   9.861   7.404 -0.1853  1.5304 -0.5185
 2177SOL    HW210574   1.833   9.893   7.552  0.6504  0.8522 -0.3204
 2178SOL     OW10575   6.092   3.100   3.424 -0.7295  0.4231  0.2279
 2178SOL    HW110576   6.113   3.058   3.341 -0.5290 -0.8790  0.9217
 2178SOL    HW210577   6.079   3.028   3.486 -1.6422  1.3452  1.1538
 2179SOL     OW10578   0.513   0.437   4.317 -0.1482  0.8571 -0.4028
 2179SOL    HW110579   0.445   0.413   4.255  0.0318  0.6051 -0.5073
 2179SOL    HW210580   0.522   0.359   4.373  0.5485  0.6140 -0.8379
 2180SOL     OW10581   6.882   0.251   9.451  0.4810 -0.7010 -0.5404
 2180SOL    HW110582   6.804   0.302   9.430  0.0054 -0.8760  0.7033
 2180SOL    HW210583   6.885   0.250   9.547  2.3155 -0.2412 -0.5453
 2181SOL     OW10584   2.584   5.210   0.622  0.2109  0.2165  0.0638
 2181SOL    HW110585   2.664   5.169   0.656 -0.5886 -1.3907  0.0616
 2181SOL    HW210586   2.615   5.293   0.585  1.5402  0.7302  2.1155
 2182SOL     OW10587   1.082  10.166   0.900  0.1444  0.2854  0.0116
 2182SOL    HW110588   0.993  10.155   0.932  0.6109  0.8718  1.6213
 2182SOL    HW210589   1.095  10.261   0.896  0.0887  0.2545 -2.0993
 2183SOL     OW10590   4.053   7.785   0.198 -0.0757 -0.3162  0.1199
 2183SOL    HW110591   3.983   7.850   0.209 -1.2392 -1.2889 -1.2018
 2183SOL    HW210592   4.092   7.777   0.285 -0.1512  1.8474  0.3988
 2184SOL     OW10593   9.846   2.093   4.911 -0.2529 -0.2545 -1.0306
 2184SOL    HW110594   9.931   2.094   4.956 -0.9016  1.3943  0.2539
 2184SOL    HW210595   9.869   2.086   4.818  1.1703 -2.4134 -0.5936
 2185SOL     OW10596   0.627   0.644   9.034 -0.1145  0.3967 -0.1598
 2185SOL    HW110597   0.710   0.693   9.032  1.8260 -2.4905  1.5211
 2185SOL    HW210598   0.571   0.689   8.972  2.7248  2.5220 -1.4148
 2186SOL     OW10599   8.627   7.064   8.875  0.3808 -0.4444  1.0657
 2186SOL    HW110600   8.614   6.985   8.928 -0.3033 -0.4886  0.8463
 2186SOL    HW210601   8.609   7.037   8.785 -0.2193  0.0308  1.0312
 2187SOL     OW10602   6.757   1.948   0.400  0.0658  0.8596 -0.1569
 2187SOL    HW110603   6.737   1.856   0.420 -1.1378  1.3165  0.8926
 2187SOL    HW210604   6.741   1.956   0.306  2.6109 -0.5645 -0.8003
 2188SOL     OW10605   0.402   8.703   7.239 -0.2525 -0.0076  0.5046
 2188SOL    HW110606   0.342   8.728   7.169  0.2019 -0.5172 -0.0812
 2188SOL    HW210607   0.359   8.629   7.282 -0.6326  0.4413  0.9164
 2189SOL     OW10608   8.322   0.690   6.757 -0.0508  0.4022  0.1507
 2189SOL    HW110609   8.412   0.656   6.755 -0.5368 -0.9042 -1.1695
 2189SOL    HW210610   8.327   0.771   6.705  0.6341  1.1544  1.3323
 2190SOL     OW10611   5.403   6.465   5.590  0.0432 -0.4600  0.4242
 2190SOL    HW110612   5.370   6.503   5.508  0.2927  2.1807  1.4359
 2190SOL    HW210613   5.326   6.428   5.632 -0.1772 -1.3844 -0.7558
 2191SOL     OW10614   1.035   1.377   0.236 -0.1156  0.2873 -0.2390
 2191SOL    HW110615   0.972   1.321   0.282 -0.7682  0.2564 -1.1344
 2191SOL    HW210616   1.117   1.327   0.238  0.0890  0.6183  1.5152
 2192SOL     OW10617   5.383   0.166   4.403 -0.6808 -0.0778 -0.3663
 2192SOL    HW110618   5.382   0.259   4.428 -1.6330  0.1047 -1.0395
 2192SOL    HW210619   5.333   0.123   4.473 -1.5259  0.1394 -0.8171
 2193SOL     OW10620   3.013   2.828   5.114  0.1375 -0.5857  0.0474
 2193SOL    HW110621   2.965   2.745   5.114  0.7076 -0.9252 -0.3729
 2193SOL    HW210622   3.021   2.851   5.021 -0.5291  0.2471  0.1903
 2194SOL     OW10623   8.865   6.178   1.559 -0.1285  0.0830 -0.4321
 2194SOL    HW110624   8.860   6.190   1.654  3.3344  1.2127 -0.2304
 2194SOL    HW210625   8.853   6.266   1.523 -1.1534 -0.2960 -1.0559
 2195SOL     OW10626   2.475   3.387   9.598  0.2041 -0.4235  0.8415
 2195SOL    HW110627   2.470   3.438   9.679  0.0878  1.0245 -0.0401
 2195SOL    HW210628   2.424   3.308   9.615  0.3264 -0.2232  2.2221
 2196SOL     OW10629   5.882   0.437   4.255  0.2611 -0.4781 -0.2836
 2196SOL    HW110630   5.934   0.360   4.231  0.3774 -0.1343 -1.1453
 2196SOL    HW210631   5.900   0.450   4.348 -0.1372 -1.7915  0.0052
 2197SOL     OW10632   8.046   1.932   8.689 -0.7325 -0.1162  0.4978
 2197SOL    HW110633   7.965   1.885   8.706 -2.0043  1.4120 -0.9329
 2197SOL    HW210634   8.076   1.961   8.776 -2.9061  1.1064  0.9036
 2198SOL     OW10635   0.824   7.596   7.539 -0.5232  0.0139 -0.2509
 2198SOL    HW110636   0.767   7.568   7.468 -0.5423  2.9382 -1.5340
 2198SOL    HW210637   0.907   7.551   7.523 -0.6991  0.2148 -1.8607
 2199SOL     OW10638   2.623   3.146   6.204  0.0987  0.1049  0.0050
 2199SOL    HW110639   2.562   3.089   6.156  0.7740  0.1885 -0.9913
 2199SOL    HW210640   2.709   3.117   6.175  0.4759  1.0785  0.1410
 2200SOL     OW10641   1.805   3.433   9.817  0.5509 -0.3211 -0.3354
 2200SOL    HW110642   1.771   3.353   9.776  0.2053 -0.8799  0.9950
 2200SOL    HW210643   1.892   3.409   9.847  0.1619 -0.4303  0.7239
 2201SOL     OW10644   5.399   8.716   1.102 -0.0059 -0.2042 -0.2594
 2201SOL    HW110645   5.397   8.664   1.183 -0.7568  0.7342  0.3462
 2201SOL    HW210646   5.417   8.652   1.033  2.2645 -0.8261  0.7995
 2202SOL     OW10647   3.664   2.849   7.059 -0.1684  0.4230 -0.4112
 2202SOL    HW110648   3.599   2.918   7.076 -0.3246 -0.0161  0.8526
 2202SOL    HW210649   3.719   2.886   6.991 -0.9361  1.3504 -0.5614
 2203SOL     OW10650   5.121  10.265   5.331  0.1279  0.4652  0.3960
 2203SOL    HW110651   5.026  10.270   5.319  0.0710 -0.5697  0.3156
 2203SOL    HW210652   5.151  10.356   5.324 -0.6769  0.6511 -1.0900
 2204SOL     OW10653   2.045   1.380   5.453  0.3574 -0.3223  0.6867
 2204SOL    HW110654   2.121   1.428   5.485  0.3875  0.9163 -1.0697
 2204SOL    HW210655   2.079   1.323   5.384 -0.3877  0.9340 -0.7732
 2205SOL     OW10656   2.135   4.448   0.084  0.6893  0.4456  0.0705
 2205SOL    HW110657   2.199   4.473   0.151 -0.4982  0.3928  1.2558
 2205SOL    HW210658   2.075   4.522   0.079 -1.2786 -0.9320  1.6425
 2206SOL     OW10659  10.120   5.840   5.848  0.0129 -0.0669 -0.0554
 2206SOL    HW110660  10.084   5.824   5.761  1.3044 -2.4477 -0.2188
 2206SOL    HW210661  10.199   5.892   5.832 -0.2589  0.3153 -0.1845
 2207SOL     OW10662   6.520   5.595   4.534 -0.5640  0.4427 -0.0922
 2207SOL    HW110663   6.523   5.580   4.439 -1.8453  0.0089 -0.0804
 2207SOL    HW210664   6.453   5.535   4.566 -1.8437  2.2222  0.7403
 2208SOL     OW10665   6.368   8.132   1.932  0.6123 -0.1460  0.3725
 2208SOL    HW110666   6.344   8.100   1.845  2.6285 -1.0855  0.1020
 2208SOL    HW210667   6.372   8.054   1.987  2.2134  0.0358  0.5655
 2209SOL     OW10668   5.808   4.016   6.165  0.0208  0.0912 -0.1438
 2209SOL    HW110669   5.825   4.068   6.243  0.7861 -1.0409  0.4638
 2209SOL    HW210670   5.895   3.988   6.135 -0.3640 -0.6790 -0.5694
 2210SOL     OW10671   7.075   6.167   8.429  0.2789  0.7346  0.1053
 2210SOL    HW110672   7.116   6.249   8.454  1.1758  0.7778 -1.3819
 2210SOL    HW210673   7.074   6.168   8.333 -0.9916 -0.3633  0.0686
 2211SOL     OW10674   7.559   3.031   6.304 -0.0359 -0.4634  0.2613
 2211SOL    HW110675   7.547   2.977   6.225 -0.4948 -1.4769  1.0076
 2211SOL    HW210676   7.645   3.006   6.337 -0.1100 -0.4941  0.4287
 2212SOL     OW10677   4.924   0.609   8.746 -0.4927  0.1236 -0.4046
 2212SOL    HW110678   4.865   0.609   8.821 -0.2459  1.7188 -0.1702
 2212SOL    HW210679   5.012   0.608   8.785 -0.3427 -0.8721 -0.7267
 2213SOL     OW10680   3.019   2.399   3.236 -0.0748 -0.2556 -0.2175
 2213SOL    HW110681   2.932   2.394   3.274  1.0655  0.4343  2.7977
 2213SOL    HW210682   3.070   2.333   3.283  1.3860  0.3885 -0.8155
 2214SOL     OW10683   9.985   5.331   3.056  0.2489 -0.0412 -0.9895
 2214SOL    HW110684   9.972   5.406   2.999  0.4274  0.5262 -0.2922
 2214SOL    HW210685  10.079   5.333   3.077  0.5912 -1.3513 -2.1779
 2215SOL     OW10686   1.912   5.615   0.326 -0.2494  0.1018  0.0802
 2215SOL    HW110687   1.822   5.618   0.360 -0.0238 -1.4057  0.8454
 2215SOL    HW210688   1.937   5.523   0.331  0.6284  0.1504 -2.0588
 2216SOL     OW10689   1.663   0.744   6.599 -0.3022 -0.8297  0.0043
 2216SOL    HW110690   1.737   0.801   6.575  0.4273 -2.0658 -0.7776
 2216SOL    HW210691   1.702   0.675   6.652 -1.3341 -0.1372  1.7523
 2217SOL     OW10692   8.727   5.033   9.694 -0.2687  0.3258  0.1098
 2217SOL    HW110693   8.688   4.948   9.672  0.1248  0.7009 -2.2979
 2217SOL    HW210694   8.801   5.042   9.634 -1.5615  3.2666 -1.2169
 2218SOL     OW10695   3.114   3.583   0.447  0.1446  0.2630 -0.6718
 2218SOL    HW110696   3.137   3.646   0.378 -0.9514  0.3063 -1.0192
 2218SOL    HW210697   3.127   3.630   0.529  1.4539  0.2184 -0.8298
 2219SOL     OW10698   7.452   6.841   9.827  0.9854 -0.5987 -0.1242
 2219SOL    HW110699   7.380   6.843   9.763 -1.9963 -1.7336  2.8630
 2219SOL    HW210700   7.434   6.915   9.885  3.6714  0.4741 -0.5461
 2220SOL     OW10701   6.343   8.573   3.320 -0.0642  0.6073 -0.2923
 2220SOL    HW110702   6.323   8.656   3.277  1.5560  0.3430 -1.6817
 2220SOL    HW210703   6.287   8.509   3.276 -1.1152  0.8981  0.5919
 2221SOL     OW10704   5.079   0.110  10.211  0.2161  0.2172  0.2812
 2221SOL    HW110705   4.990   0.135  10.236  0.0120 -1.6929  1.7030
 2221SOL    HW210706   5.075   0.094  10.117 -0.7569  0.8752  0.2007
 2222SOL     OW10707   5.725   3.950   3.919 -0.1240  0.7169  0.1200
 2222SOL    HW110708   5.657   4.013   3.897 -0.5111  0.7958  1.4251
 2222SOL    HW210709   5.799   3.974   3.863 -1.9069 -0.9684 -3.2083
 2223SOL     OW10710   6.525   8.964   3.655 -0.1720  0.1469 -0.2739
 2223SOL    HW110711   6.475   8.889   3.621 -0.6474  0.2948  0.0838
 2223SOL    HW210712   6.471   9.040   3.635  0.2548  0.3901 -0.5267
 2224SOL     OW10713   8.253   9.197   6.280  0.4735  0.6807  0.2114
 2224SOL    HW110714   8.217   9.273   6.234  1.3169  1.1401  0.2842
 2224SOL    HW210715   8.348   9.209   6.276  0.6299 -0.4971  0.0235
 2225SOL     OW10716   5.966   2.166   8.134  0.1256  0.2732 -0.1418
 2225SOL    HW110717   6.038   2.152   8.072  1.1838 -0.0080  1.0947
 2225SOL    HW210718   6.004   2.143   8.219 -0.6252  2.6795  0.9124
 2226SOL     OW10719   2.223   8.029   9.280  0.0756  0.5101 -0.2133
 2226SOL    HW110720   2.213   8.124   9.279  0.3137  0.5810  1.3678
 2226SOL    HW210721   2.190   8.002   9.365  1.5551 -0.6167  0.0574
 2227SOL     OW10722   5.953   3.510   5.216 -0.1328  0.0231  0.4916
 2227SOL    HW110723   5.987   3.595   5.245 -0.0047  0.0669  0.2095
 2227SOL    HW210724   5.871   3.499   5.265  0.5508 -0.3325  1.6179
 2228SOL     OW10725   8.036   3.867   6.883 -0.0939  0.8965  0.4969
 2228SOL    HW110726   8.118   3.890   6.838 -2.0272  0.8765 -3.4254
 2228SOL    HW210727   8.051   3.778   6.914  2.0260  1.6235  1.7751
 2229SOL     OW10728   2.324   3.736   1.661  0.6881  1.1344 -0.2117
 2229SOL    HW110729   2.336   3.704   1.571 -0.6761  0.9520 -0.3527
 2229SOL    HW210730   2.378   3.677   1.714  1.7433  1.4239 -0.9192
 2230SOL     OW10731   7.215   2.308   1.303 -0.2134 -0.4068  0.1888
 2230SOL    HW110732   7.169   2.224   1.298 -0.3342 -0.2963 -0.8013
 2230SOL    HW210733   7.254   2.319   1.216 -1.1392  1.0853 -0.0644
 2231SOL     OW10734   8.713   1.235   5.914 -0.1178  0.2564 -0.9806
 2231SOL    HW110735   8.707   1.272   6.002  0.8665 -0.2137 -0.6968
 2231SOL    HW210736   8.715   1.311   5.856  0.4361  0.6108 -0.5081
 2232SOL     OW10737  10.096   3.836   4.045 -0.5231  0.0798  0.1157
 2232SOL    HW110738  10.092   3.759   3.989  1.4017 -1.1001  1.4760
 2232SOL    HW210739  10.144   3.901   3.993 -0.5731 -0.2640 -0.3639
 2233SOL     OW10740   2.379   7.592   0.763  0.5937  0.3249  0.2180
 2233SOL    HW110741   2.464   7.633   0.742  0.6517 -0.9371 -2.4154
 2233SOL    HW210742   2.353   7.549   0.682 -2.5367  0.5264  1.0089
 2234SOL     OW10743   6.425   3.485   0.454 -0.0308  0.6503  0.5382
 2234SOL    HW110744   6.500   3.471   0.397 -0.7298 -1.9108  0.1569
 2234SOL    HW210745   6.464   3.513   0.537  1.5664 -2.3122  0.9240
 2235SOL     OW10746   5.736   1.315   3.535  0.7695  0.6185  0.3719
 2235SOL    HW110747   5.827   1.309   3.503  0.6011  0.6935 -0.1379
 2235SOL    HW210748   5.709   1.404   3.511  0.7158  0.7571  0.9472
 2236SOL     OW10749   6.398   5.062   6.743 -0.5491 -0.4452 -0.1722
 2236SOL    HW110750   6.470   5.001   6.725 -0.5475 -0.4239 -0.2407
 2236SOL    HW210751   6.368   5.089   6.656 -1.3066 -1.2345 -0.1697
 2237SOL     OW10752   1.115   5.227   1.462  0.4698  0.2493 -0.3155
 2237SOL    HW110753   1.056   5.293   1.498  1.8648  1.2885  0.1606
 2237SOL    HW210754   1.089   5.145   1.505  0.8007  1.0906  1.6072
 2238SOL     OW10755   7.634   2.656   2.230 -0.1915 -0.3216  0.2284
 2238SOL    HW110756   7.645   2.750   2.242 -1.5030 -0.3563  2.0862
 2238SOL    HW210757   7.551   2.647   2.184 -0.7609 -0.6006  1.2889
 2239SOL     OW10758   4.542   5.301   9.765  0.2096 -0.0045 -0.5957
 2239SOL    HW110759   4.482   5.227   9.772  0.6952 -0.4286 -0.8040
 2239SOL    HW210760   4.539   5.344   9.850  0.1479 -0.4447 -0.3748
 2240SOL     OW10761   7.630   1.697   8.238 -0.3787 -0.3470 -0.3808
 2240SOL    HW110762   7.671   1.644   8.170 -0.4830  0.0829 -0.7824
 2240SOL    HW210763   7.700   1.712   8.302 -0.1599 -0.3847 -0.6090
 2241SOL     OW10764   7.471   3.624   5.500  0.8586 -0.2733  0.1915
 2241SOL    HW110765   7.543   3.598   5.443  0.9987  0.9687 -0.2370
 2241SOL    HW210766   7.401   3.562   5.480  1.6476 -1.2065  0.2730
 2242SOL     OW10767   3.749   8.881   9.670 -0.3865  0.5654 -0.1503
 2242SOL    HW110768   3.839   8.884   9.637  0.0216 -1.0362  0.6940
 2242SOL    HW210769   3.710   8.963   9.641  1.6913  1.8430  0.4126
 2243SOL     OW10770   7.082   4.639   3.119  0.0596  0.0531  0.3443
 2243SOL    HW110771   7.092   4.674   3.208  1.1068 -1.7353  0.9805
 2243SOL    HW210772   7.169   4.648   3.080 -0.3051  0.4864 -0.4101
 2244SOL     OW10773   4.390   5.201   4.842 -0.7279  0.5524  0.1960
 2244SOL    HW110774   4.427   5.236   4.760 -0.8763  0.3890  0.0583
 2244SOL    HW210775   4.458   5.218   4.907 -0.4588  0.3747 -0.0306
 2245SOL     OW10776   7.898   4.378   1.003 -0.1374 -0.2546  0.5868
 2245SOL    HW110777   7.841   4.394   1.079  0.3880  0.2681  0.8818
 2245SOL    HW210778   7.849   4.317   0.948  0.0383 -1.7435  2.0034
 2246SOL     OW10779   8.523   0.762   4.802 -0.4544 -0.1736  0.0263
 2246SOL    HW110780   8.459   0.799   4.863 -2.1820 -1.0536 -1.1767
 2246SOL    HW210781   8.519   0.668   4.818  0.3070 -0.2649 -0.3108
 2247SOL     OW10782   5.984   3.356   7.775  0.2876  0.0427  0.2834
 2247SOL    HW110783   6.053   3.343   7.839 -0.5274 -2.2007  0.8083
 2247SOL    HW210784   6.018   3.318   7.694 -0.4613 -1.5386  0.6729
 2248SOL     OW10785   0.250   9.974   7.343 -0.0260  0.2654  0.1994
 2248SOL    HW110786   0.252   9.905   7.410 -1.0537  0.3039  0.2790
 2248SOL    HW210787   0.308   9.942   7.274 -0.7004 -0.8144  0.1154
 2249SOL     OW10788   0.171   2.939   7.583  0.5069  0.6872  0.3337
 2249SOL    HW110789   0.157   2.850   7.550  0.1280  1.0344 -0.4503
 2249SOL    HW210790   0.142   2.996   7.512 -0.8659  1.4595  1.4730
 2250SOL     OW10791   5.531   2.597   1.468  0.4313 -0.1146  0.7348
 2250SOL    HW110792   5.490   2.573   1.551 -0.3254  0.2842  0.4823
 2250SOL    HW210793   5.624   2.604   1.489  0.2983 -0.4099  1.4578
 2251SOL     OW10794   3.227   9.242   1.927 -0.0061 -0.0770  0.1395
 2251SOL    HW110795   3.224   9.260   1.833  0.0703 -2.1938 -0.3201
 2251SOL    HW210796   3.320   9.225   1.945  0.0223  0.5953  0.6747
 2252SOL     OW10797  10.212   7.930   0.558 -0.2778 -1.5286 -0.1922
 2252SOL    HW110798  10.162   8.010   0.575 -1.7261 -2.6513  1.1196
 2252SOL    HW210799  10.282   7.931   0.623 -0.7190 -1.6472  0.2953
 2253SOL     OW10800   9.142   2.879   6.206  0.3963  0.3585  1.1712
 2253SOL    HW110801   9.236   2.859   6.201  0.1532 -1.3705  2.6031
 2253SOL    HW210802   9.124   2.882   6.300 -0.8436  1.4995  0.9229
 2254SOL     OW10803   3.239   9.376   3.938 -0.2475 -0.5475 -0.2511
 2254SOL    HW110804   3.149   9.354   3.963 -0.6602  1.3418  0.1405
 2254SOL    HW210805   3.237   9.377   3.842 -0.3882 -1.4210 -0.2662
 2255SOL     OW10806   6.855   3.851   3.337  0.0440  0.2517  0.0485
 2255SOL    HW110807   6.947   3.877   3.335  0.9920 -2.7234 -1.8052
 2255SOL    HW210808   6.823   3.884   3.421  2.9948  0.7734  1.1018
 2256SOL     OW10809   0.258   8.960   4.620 -0.3805  0.0007  0.3376
 2256SOL    HW110810   0.252   8.962   4.715 -0.1992  0.6666  0.3434
 2256SOL    HW210811   0.347   8.929   4.602  0.0149  1.0426  0.4114
 2257SOL     OW10812   1.491   6.625   9.199  0.1782  0.2430 -0.1330
 2257SOL    HW110813   1.457   6.655   9.115  0.3279 -0.0845 -0.3072
 2257SOL    HW210814   1.526   6.704   9.240  1.7233  0.1108 -1.1251
 2258SOL     OW10815   9.839   8.810   8.075 -0.2025  0.1057 -0.1512
 2258SOL    HW110816   9.775   8.851   8.017  0.0909 -0.0615 -0.5919
 2258SOL    HW210817   9.790   8.739   8.118  0.0695 -1.0057 -1.6195
 2259SOL     OW10818   4.242   2.158   1.872  0.0358  0.9320  0.0814
 2259SOL    HW110819   4.174   2.225   1.873 -0.3071  0.6407 -1.3235
 2259SOL    HW210820   4.195   2.075   1.859  0.5739  0.6069  0.1585
 2260SOL     OW10821   5.431   3.687   5.073  0.6503  0.5665  0.3416
 2260SOL    HW110822   5.384   3.619   5.121 -0.6658  1.4219  0.2992
 2260SOL    HW210823   5.411   3.670   4.981  2.3283 -0.4424  0.1162
 2261SOL     OW10824   9.163   6.305   7.850  0.0446  0.5011  0.1751
 2261SOL    HW110825   9.080   6.326   7.808  0.2799  0.6981 -0.2028
 2261SOL    HW210826   9.164   6.356   7.930 -0.9646 -0.8263  1.0805
 2262SOL     OW10827   1.843   7.065   1.048  0.2209 -0.4962 -0.0858
 2262SOL    HW110828   1.818   7.118   1.124  2.0988  0.5293 -0.1179
 2262SOL    HW210829   1.932   7.034   1.069  0.6405 -0.4761 -1.7059
 2263SOL     OW10830   9.185   1.118   1.672 -0.0258  0.5446 -0.0707
 2263SOL    HW110831   9.133   1.049   1.715 -0.4518  0.8203 -0.1385
 2263SOL    HW210832   9.212   1.079   1.589 -0.0041  0.3476  0.0279
 2264SOL     OW10833   7.756   8.388   7.773 -0.3269  0.7099 -0.1100
 2264SOL    HW110834   7.782   8.302   7.806  0.1728  0.3392 -1.3916
 2264SOL    HW210835   7.667   8.400   7.806  0.0615  0.2932  1.1660
 2265SOL     OW10836   2.661   2.210   9.794  0.2171 -0.0012 -0.2608
 2265SOL    HW110837   2.721   2.189   9.865  0.3691 -0.8958 -0.6359
 2265SOL    HW210838   2.718   2.242   9.724  0.0541  1.0192  0.0568
 2266SOL     OW10839   3.108   4.697   4.074 -0.1163 -0.0022  0.3277
 2266SOL    HW110840   3.148   4.619   4.036 -1.5074 -0.4680 -0.2430
 2266SOL    HW210841   3.021   4.702   4.034 -0.8108  0.7217  1.8218
 2267SOL     OW10842   3.529   0.019   7.370  0.1060  0.4909  0.1729
 2267SOL    HW110843   3.599   0.025   7.305 -0.0535  1.2787  0.0700
 2267SOL    HW210844   3.570   0.048   7.451  0.5403 -1.2755  0.6341
 2268SOL     OW10845   2.211   2.789   1.364  0.5613  0.2689  0.4120
 2268SOL    HW110846   2.126   2.832   1.359 -0.0168 -0.9735 -1.3021
 2268SOL    HW210847   2.263   2.831   1.294  1.3299  0.9101  1.3417
 2269SOL     OW10848   2.505   2.576   9.815 -0.4651 -0.2584  0.6995
 2269SOL    HW110849   2.449   2.580   9.893 -2.2964 -0.8535 -0.5212
 2269SOL    HW210850   2.493   2.487   9.782 -1.4066  0.6035 -1.4343
 2270SOL     OW10851   3.569   6.518   1.403  0.3201 -0.5896 -0.2751
 2270SOL    HW110852   3.551   6.432   1.367 -0.1179 -0.8274  0.4877
 2270SOL    HW210853   3.622   6.562   1.336 -0.5122 -0.9889 -1.2122
 2271SOL     OW10854   4.117   1.010   3.166  0.0319 -0.4072 -0.2833
 2271SOL    HW110855   4.106   0.921   3.199  0.2996 -0.7673 -1.1171
 2271SOL    HW210856   4.142   0.998   3.074 -3.0974  0.5670 -1.3781
 2272SOL     OW10857   8.655   9.433   3.818  0.3170 -0.2417  0.2565
 2272SOL    HW110858   8.732   9.446   3.874  0.6215 -0.0280 -0.2058
 2272SOL    HW210859   8.609   9.517   3.822 -1.3330 -1.1484  2.6383
 2273SOL     OW10860   2.028   9.548   8.115  0.5311  0.7048 -0.0478
 2273SOL    HW110861   2.012   9.453   8.111 -0.3575  0.8704 -2.7945
 2273SOL    HW210862   2.092   9.564   8.047  1.9681  1.9297  1.5282
 2274SOL     OW10863   9.097   1.156   7.533  0.2666 -0.3318 -0.1988
 2274SOL    HW110864   9.142   1.227   7.488 -1.8329  0.8241 -0.6068
 2274SOL    HW210865   9.044   1.199   7.599 -2.9992 -1.1298 -2.0510
 2275SOL     OW10866   2.734   0.169   8.965  0.1705  0.1921  0.9500
 2275SOL    HW110867   2.654   0.143   9.010 -0.0278  0.2951  0.6523
 2275SOL    HW210868   2.728   0.265   8.957 -0.5899  0.0245 -0.8098
 2276SOL     OW10869   4.310   2.712   6.140 -0.2951  0.5378  0.4073
 2276SOL    HW110870   4.327   2.652   6.213 -1.5830 -0.2164  0.1151
 2276SOL    HW210871   4.312   2.799   6.180  3.5376  0.5866  0.5132
 2277SOL     OW10872   3.968   7.011   5.519  0.5169  0.4378  0.0653
 2277SOL    HW110873   3.958   6.916   5.509 -1.5701  0.6647 -0.4692
 2277SOL    HW210874   3.908   7.034   5.590 -0.3246  1.5411 -0.9574
 2278SOL     OW10875   4.686   5.145   3.249  0.1017 -0.5661 -0.0892
 2278SOL    HW110876   4.632   5.082   3.202  1.8521 -3.2954  1.2706
 2278SOL    HW210877   4.730   5.196   3.181 -2.0457 -0.1379 -1.2184
 2279SOL     OW10878   0.399   7.270   7.713 -0.0333 -0.1575 -0.3353
 2279SOL    HW110879   0.428   7.259   7.804 -1.4191 -0.7091  0.0733
 2279SOL    HW210880   0.462   7.331   7.675  1.8936 -1.6420  0.3374
 2280SOL     OW10881   7.461   4.030   3.907  0.3944  0.7220 -0.1502
 2280SOL    HW110882   7.398   3.960   3.891  0.1962  0.8279  0.1528
 2280SOL    HW210883   7.509   4.000   3.985  1.3346  0.2133 -0.8982
 2281SOL     OW10884   0.675   3.561   1.090  0.0269 -0.2939  0.3416
 2281SOL    HW110885   0.617   3.603   1.154  0.0702  1.8668 -0.9626
 2281SOL    HW210886   0.762   3.565   1.130 -0.0837  0.1977  0.5387
 2282SOL     OW10887   3.354   8.014   9.260 -0.4254 -0.1355 -0.1607
 2282SOL    HW110888   3.423   7.977   9.205 -2.8438 -1.6831 -2.3806
 2282SOL    HW210889   3.336   8.100   9.222 -2.0822 -1.1962 -1.9322
 2283SOL     OW10890   4.922   5.556   5.170 -0.3961  0.1941  0.2548
 2283SOL    HW110891   4.939   5.463   5.156 -0.9182 -0.0266  0.9928
 2283SOL    HW210892   4.861   5.558   5.244  0.4839  1.1622  0.9822
 2284SOL     OW10893   9.838   3.424   4.244  0.0805  0.9197  0.0546
 2284SOL    HW110894   9.877   3.453   4.326 -0.3593  1.0407  0.2233
 2284SOL    HW210895   9.848   3.499   4.185 -0.2945  1.1067  0.2306
 2285SOL     OW10896   1.021   3.781   8.274 -0.3259 -0.4798  0.0861
 2285SOL    HW110897   1.073   3.745   8.201 -1.8029 -1.7497 -0.3891
 2285SOL    HW210898   1.031   3.876   8.266  1.5182 -0.6564 -0.2625
 2286SOL     OW10899   2.798   6.617   4.896  0.5413 -0.2317  0.1550
 2286SOL    HW110900   2.778   6.529   4.926 -0.2288 -0.1453 -0.0651
 2286SOL    HW210901   2.714   6.651   4.864  0.5284  1.0542  1.4422
 2287SOL     OW10902   7.956   4.102   1.280 -0.3461 -0.2835 -0.4007
 2287SOL    HW110903   7.986   4.093   1.189 -0.7782 -0.9962 -0.4734
 2287SOL    HW210904   8.021   4.054   1.331 -0.1375  0.0666 -0.3289
 2288SOL     OW10905   8.877   5.231   1.211 -0.4499 -0.3120 -0.0789
 2288SOL    HW110906   8.942   5.185   1.158  1.2097  0.1226  1.4894
 2288SOL    HW210907   8.826   5.281   1.147  1.9328  0.7808 -1.2812
 2289SOL     OW10908   8.727   3.529   4.993  0.1830  0.2731 -0.4058
 2289SOL    HW110909   8.774   3.542   5.075  1.5289  0.1834 -1.1246
 2289SOL    HW210910   8.769   3.452   4.954 -0.3479  0.3965 -1.2356
 2290SOL     OW10911   7.517   0.112   6.807 -0.2642  0.0553 -0.0648
 2290SOL    HW110912   7.593   0.143   6.857 -0.9885  0.0878  1.0333
 2290SOL    HW210913   7.444   0.164   6.839 -1.0765 -1.1781  0.1455
 2291SOL     OW10914   3.933   9.878   9.933  0.5981 -0.0677 -0.0191
 2291SOL    HW110915   3.991   9.806   9.955  1.6796  1.3662  2.1750
 2291SOL    HW210916   3.862   9.837   9.884  2.5359 -2.1528 -1.3010
 2292SOL     OW10917   7.142   9.898   9.566  0.1931 -0.0903 -0.0533
 2292SOL    HW110918   7.090   9.856   9.634 -0.3030 -0.8466 -0.8708
 2292SOL    HW210919   7.096   9.877   9.484  0.9357  0.5344 -0.6508
 2293SOL     OW10920   0.475   0.357   8.245 -0.0255 -0.3402  0.1699
 2293SOL    HW110921   0.546   0.313   8.292  0.8567 -1.7393 -2.3131
 2293SOL    HW210922   0.461   0.304   8.167 -1.3742  1.9002 -1.2157
 2294SOL     OW10923   8.358  10.199   0.437 -0.0078  0.5081  0.0053
 2294SOL    HW110924   8.294  10.138   0.472  0.2602  0.3458  0.2118
 2294SOL    HW210925   8.413  10.147   0.380  0.4435  0.4825  0.4611
 2295SOL     OW10926   5.295   0.847   7.039  0.4897  0.4768  0.2557
 2295SOL    HW110927   5.205   0.819   7.050  0.1661  1.3190 -0.1564
 2295SOL    HW210928   5.299   0.880   6.949  1.2373  0.3306  0.2296
 2296SOL     OW10929   6.690   0.273  10.002 -0.1590 -0.7807  0.0929
 2296SOL    HW110930   6.643   0.190  10.013 -0.7487 -0.6306 -1.0701
 2296SOL    HW210931   6.746   0.279  10.079 -0.4062 -2.0637  0.4093
 2297SOL     OW10932   2.553   2.097   6.470 -0.2111  0.8480 -0.0229
 2297SOL    HW110933   2.532   2.167   6.532 -2.1682 -0.2320  0.6438
 2297SOL    HW210934   2.469   2.073   6.432  0.0480 -2.2185  1.0130
 2298SOL     OW10935   3.933   7.468   0.166 -0.1062 -0.2311  0.1573
 2298SOL    HW110936   3.870   7.508   0.226 -1.0622 -0.2580 -0.8031
 2298SOL    HW210937   3.886   7.395   0.126  0.3171  0.1174 -1.0314
 2299SOL     OW10938   7.275   5.932   4.769  0.4079 -0.5987  0.3186
 2299SOL    HW110939   7.365   5.960   4.752  0.1081 -0.1247 -0.5585
 2299SOL    HW210940   7.227   6.013   4.787  0.2832 -0.9067  1.4599
 2300SOL     OW10941   3.168   4.554   3.482  0.0976  0.8960  0.4739
 2300SOL    HW110942   3.199   4.465   3.498  0.7054  1.2047  1.0503
 2300SOL    HW210943   3.141   4.554   3.390  1.3572  0.4811  0.0962
 2301SOL     OW10944   6.694   3.753   3.854  0.4878 -0.4441 -1.0554
 2301SOL    HW110945   6.605   3.742   3.820 -1.4786  2.4426  2.3749
 2301SOL    HW210946   6.715   3.668   3.893 -0.5205 -1.3283 -2.3431
 2302SOL     OW10947   1.779   1.997   5.665  0.6334  0.2408  0.0025
 2302SOL    HW110948   1.825   1.986   5.582  0.2163 -0.0451 -0.1914
 2302SOL    HW210949   1.700   1.944   5.656  0.8108 -0.1580  0.7560
 2303SOL     OW10950   1.288   7.565   4.809  0.3806 -0.3718  0.2777
 2303SOL    HW110951   1.366   7.515   4.834 -0.7949 -2.9028 -0.7480
 2303SOL    HW210952   1.313   7.657   4.821  3.4218 -1.0894  0.1996
 2304SOL     OW10953   6.712   7.096   7.888 -0.0871  0.2596 -0.3769
 2304SOL    HW110954   6.632   7.078   7.937  0.6244  1.6580  1.4147
 2304SOL    HW210955   6.695   7.180   7.845  0.6594  0.9627  0.6570
 2305SOL     OW10956   9.672   7.692   0.734  0.2406  0.3433 -0.0732
 2305SOL    HW110957   9.717   7.613   0.764  0.2013  1.3773  3.0231
 2305SOL    HW210958   9.742   7.755   0.716  0.1960  0.2977 -0.4133
 2306SOL     OW10959   8.290   1.333   5.862 -0.1088  0.3211  0.1506
 2306SOL    HW110960   8.336   1.295   5.937 -0.2887  1.3199  0.7839
 2306SOL    HW210961   8.356   1.337   5.793 -0.3832 -2.2634 -0.3794
 2307SOL     OW10962   9.686   6.625   2.303 -0.2535  0.3618 -0.0195
 2307SOL    HW110963   9.657   6.549   2.353 -0.2491 -0.2099 -0.8670
 2307SOL    HW210964   9.776   6.640   2.332 -0.5875  0.6720  0.8803
 2308SOL     OW10965   3.492   0.445   1.581  0.0541 -0.1528 -0.3288
 2308SOL    HW110966   3.520   0.421   1.492  1.7262  0.5258 -0.0159
 2308SOL    HW210967   3.550   0.516   1.606 -0.1394 -0.5890  1.4777
 2309SOL     OW10968   1.991   8.314   7.852 -0.2046 -0.0228 -0.5280
 2309SOL    HW110969   2.080   8.284   7.833  0.0041  0.8076 -0.9184
 2309SOL    HW210970   1.975   8.287   7.942  0.9494  0.9760  0.0049
 2310SOL     OW10971  10.276   2.802   8.120 -0.1927 -0.2848 -0.0955
 2310SOL    HW110972  10.202   2.853   8.086 -0.5386 -0.2956  0.6406
 2310SOL    HW210973  10.238   2.743   8.184  0.4907 -0.1355  0.4575
 2311SOL     OW10974   2.270   1.733   6.453 -0.2070 -0.1886  0.1106
 2311SOL    HW110975   2.256   1.741   6.547  0.3925 -3.2348  0.5572
 2311SOL    HW210976   2.271   1.823   6.421  0.4714  0.9923  3.1330
 2312SOL     OW10977   8.867   5.097   6.689 -0.5533  0.6587 -0.6674
 2312SOL    HW110978   8.783   5.068   6.653 -0.5608 -0.8847  0.5040
 2312SOL    HW210979   8.845   5.172   6.743 -1.4134 -0.5149  0.6660
 2313SOL     OW10980   9.687   8.704   1.486 -0.0245 -0.0644  0.1122
 2313SOL    HW110981   9.622   8.660   1.431 -0.6046 -1.6959  1.9800
 2313SOL    HW210982   9.723   8.773   1.430 -1.5380 -0.7419 -1.8208
 2314SOL     OW10983   4.812   1.941   5.768  0.2873 -0.0808  0.1581
 2314SOL    HW110984   4.872   1.868   5.784 -0.0089 -0.4636 -0.4610
 2314SOL    HW210985   4.726   1.901   5.759 -0.2177  0.5343  1.7821
 2315SOL     OW10986   5.465   6.510   1.367  0.0577 -0.1082 -0.0519
 2315SOL    HW110987   5.380   6.478   1.396  0.7787  0.0497  2.4023
 2315SOL    HW210988   5.450   6.539   1.276 -2.2010 -1.0984 -0.0543
 2316SOL     OW10989   8.796   3.267   7.017  0.1576  0.0251 -0.2896
 2316SOL    HW110990   8.828   3.211   6.947 -0.8549  0.1377 -0.8689
 2316SOL    HW210991   8.874   3.308   7.053  0.6710  0.3400 -1.6850
 2317SOL     OW10992   4.048   6.082   2.364 -0.4437  0.1334  0.2823
 2317SOL    HW110993   4.117   6.144   2.340 -0.2461  0.6628  2.0366
 2317SOL    HW210994   4.013   6.051   2.281  2.8319 -1.2354 -0.7264
 2318SOL     OW10995   2.270   4.303   1.055 -0.1756 -0.6449  0.2085
 2318SOL    HW110996   2.269   4.393   1.088 -1.9165 -0.5404 -0.0351
 2318SOL    HW210997   2.225   4.252   1.123 -0.7510 -1.0164 -0.4435
 2319SOL     OW10998   4.303   3.763   2.495  0.0044  0.1066 -0.0230
 2319SOL    HW110999   4.293   3.726   2.583  0.0786  1.1451  0.4342
 2319SOL    HW211000   4.356   3.699   2.448  1.0722  0.1540  1.0770
 2320SOL     OW11001   0.111  10.221   8.894  0.3435  0.7961  0.1785
 2320SOL    HW111002   0.050  10.256   8.958  3.6840  3.5804  2.2226
 2320SOL    HW211003   0.143  10.140   8.934 -0.0720  0.7328  0.3859
 2321SOL     OW11004   5.109   5.377   5.480 -0.4116 -0.0577  0.1983
 2321SOL    HW111005   5.071   5.289   5.482  0.0653 -0.2703  0.2626
 2321SOL    HW211006   5.135   5.390   5.389 -0.7275  0.1267  0.1340
 2322SOL     OW11007   9.143   8.167   2.851  0.5142  0.1999  0.1563
 2322SOL    HW111008   9.048   8.176   2.849  0.4492 -0.4825 -0.9300
 2322SOL    HW211009   9.159   8.085   2.897  0.6049  0.5580  0.7699
 2323SOL     OW11010  10.107   6.657   0.674 -0.7709  0.1618 -0.4567
 2323SOL    HW111011  10.015   6.638   0.655 -0.5150 -0.4906 -1.1347
 2323SOL    HW211012  10.105   6.717   0.749 -1.7596  0.5903 -0.8068
 2324SOL     OW11013   2.899   7.877   5.880  0.4741  0.4722  0.4258
 2324SOL    HW111014   2.852   7.805   5.839  2.9277 -0.5938 -0.7661
 2324SOL    HW211015   2.867   7.880   5.970 -2.0919  0.1411 -0.4011
 2325SOL     OW11016   2.758   0.653   3.444 -0.2458  0.4221  0.1779
 2325SOL    HW111017   2.667   0.679   3.462  0.3881  2.9752  0.0382
 2325SOL    HW211018   2.802   0.735   3.420  1.9345 -0.8769 -0.4948
 2326SOL     OW11019   8.660   6.859   2.163 -0.6280  0.1641  0.0162
 2326SOL    HW111020   8.698   6.828   2.245  0.6630  0.5341 -0.4173
 2326SOL    HW211021   8.710   6.815   2.095 -0.8784  0.7701 -0.5782
 2327SOL     OW11022   7.782   4.395   3.473  0.1320 -0.5795  0.4829
 2327SOL    HW111023   7.767   4.355   3.387  1.3378 -1.5666  0.7063
 2327SOL    HW211024   7.809   4.323   3.529 -1.6697 -0.1400  2.0037
 2328SOL     OW11025   1.425   9.482   9.720  0.1309 -0.3018 -0.2130
 2328SOL    HW111026   1.388   9.566   9.746  0.0202 -0.7736  1.2890
 2328SOL    HW211027   1.483   9.502   9.647  0.7469  1.2133  0.6434
 2329SOL     OW11028   8.425   1.944   6.608 -0.2126 -0.6906  0.6477
 2329SOL    HW111029   8.430   1.914   6.518 -1.6535  0.2129  0.2308
 2329SOL    HW211030   8.469   1.876   6.659  1.2371 -0.8805 -0.7836
 2330SOL     OW11031   8.662   4.016   6.854  0.1108  0.1585  0.8541
 2330SOL    HW111032   8.741   3.970   6.883  1.2886  0.2063 -1.9601
 2330SOL    HW211033   8.673   4.106   6.885  0.7120 -0.0606  1.2920
 2331SOL     OW11034   9.045   7.741   2.363 -0.2096  0.3514  0.3646
 2331SOL    HW111035   9.091   7.781   2.436 -0.9411  0.9454  0.5064
 2331SOL    HW211036   8.960   7.785   2.360 -1.6636 -2.1711  1.4699
 2332SOL     OW11037   7.627   3.251   0.771 -0.6623 -0.1974 -0.1445
 2332SOL    HW111038   7.597   3.207   0.851  1.7482 -2.3684 -0.2936
 2332SOL    HW211039   7.548   3.284   0.730 -2.0918  0.0396  2.5821
 2333SOL     OW11040   1.344   4.996   5.178 -0.3279 -0.2489 -0.4313
 2333SOL    HW111041   1.361   5.003   5.084 -2.9528 -1.6211 -1.1182
 2333SOL    HW211042   1.294   5.074   5.200  1.0202  0.5094  0.0864
 2334SOL     OW11043   6.325   9.188   8.279  0.4841  0.4409 -0.0338
 2334SOL    HW111044   6.262   9.254   8.309 -0.3932 -0.5787  0.4049
 2334SOL    HW211045   6.411   9.226   8.300  0.1006  2.1980 -1.3454
 2335SOL     OW11046   9.483   7.284   5.250  0.4391  0.4600  0.1691
 2335SOL    HW111047   9.539   7.221   5.205  0.3160  1.9732 -2.3014
 2335SOL    HW211048   9.545   7.347   5.288  0.5195  1.1655 -1.0652
 2336SOL     OW11049  10.280   4.058   7.374  0.3838  0.1263 -0.2000
 2336SOL    HW111050  10.229   4.134   7.399 -0.2721 -0.4730  0.3162
 2336SOL    HW211051  10.306   4.017   7.457 -1.2674 -1.5135 -0.4259
 2337SOL     OW11052   0.815   5.883   7.080  0.3878 -0.4010  0.2198
 2337SOL    HW111053   0.824   5.788   7.073 -1.4157 -0.8708  2.7772
 2337SOL    HW211054   0.745   5.905   7.018 -1.0270 -1.2089  1.4555
 2338SOL     OW11055   2.494   8.290   2.266 -0.3151 -0.1120 -0.4362
 2338SOL    HW111056   2.577   8.310   2.225 -0.7704  2.4547 -0.3070
 2338SOL    HW211057   2.429   8.304   2.197 -0.7253 -1.0882 -0.2620
 2339SOL     OW11058   5.947   0.364   2.375  0.2799 -0.2462  0.1984
 2339SOL    HW111059   6.041   0.367   2.356  0.6903 -0.2578  2.0908
 2339SOL    HW211060   5.929   0.447   2.419 -1.0738  0.6987 -1.9242
 2340SOL     OW11061   4.070  10.202   3.526 -0.1898 -0.5015  0.2062
 2340SOL    HW111062   4.068  10.163   3.438 -0.1893  0.0826 -0.0580
 2340SOL    HW211063   4.130  10.146   3.575  1.5968  0.4441 -0.7926
 2341SOL     OW11064   9.173   1.314   1.346  0.2146  0.0378  0.4986
 2341SOL    HW111065   9.256   1.282   1.381 -0.3459 -1.1908  0.7748
 2341SOL    HW211066   9.195   1.351   1.261  0.7908 -2.0578 -0.3411
 2342SOL     OW11067   1.599   9.331   5.708  0.1490 -0.3691 -0.6595
 2342SOL    HW111068   1.619   9.245   5.671 -1.2855 -0.3778 -1.4710
 2342SOL    HW211069   1.537   9.313   5.779  1.5327 -0.1800  0.6536
 2343SOL     OW11070   1.511   4.395   3.705  0.8633 -0.3791 -0.1758
 2343SOL    HW111071   1.415   4.390   3.695  0.9122  0.5857 -1.2057
 2343SOL    HW211072   1.531   4.488   3.702  1.8957 -0.6021 -0.4689
 2344SOL     OW11073   2.181   8.332   0.435 -0.2504  0.3312  0.0159
 2344SOL    HW111074   2.125   8.279   0.378 -1.4515 -0.1925  1.6227
 2344SOL    HW211075   2.156   8.422   0.416  0.0660  0.2177 -0.9834
 2345SOL     OW11076   5.407   5.355   3.269 -0.3176 -0.2135 -0.2624
 2345SOL    HW111077   5.403   5.408   3.189 -0.4249  1.9954  1.1307
 2345SOL    HW211078   5.317   5.324   3.282 -0.4128 -0.1261 -0.7036
 2346SOL     OW11079   9.393   0.692   7.490 -0.8430  0.0730 -0.2740
 2346SOL    HW111080   9.451   0.625   7.527 -0.0771 -0.2765 -1.9952
 2346SOL    HW211081   9.306   0.652   7.495 -0.5598 -0.5608 -0.1822
 2347SOL     OW11082   8.899   9.525   1.732  0.2102 -0.2002  0.6732
 2347SOL    HW111083   8.860   9.533   1.819  0.8931 -0.1243  0.9751
 2347SOL    HW211084   8.969   9.460   1.743  0.1017 -0.4214  0.1100
 2348SOL     OW11085   5.535   9.409   2.749  0.1233 -0.2981  0.3241
 2348SOL    HW111086   5.531   9.497   2.712 -2.4473 -0.1603  0.7306
 2348SOL    HW211087   5.626   9.382   2.737  0.1629  0.8871 -3.2800
 2349SOL     OW11088   5.698   5.087   8.008  0.1838  0.0455  0.0250
 2349SOL    HW111089   5.650   5.166   7.985 -1.7859 -0.7122  1.2499
 2349SOL    HW211090   5.735   5.056   7.925 -2.1140  0.2679 -1.1526
 2350SOL     OW11091   2.871   9.075   4.279  0.0107 -0.1945 -0.5105
 2350SOL    HW111092   2.812   9.113   4.214  0.7930  0.2113 -1.0034
 2350SOL    HW211093   2.861   8.981   4.268 -2.1960 -0.1879  0.9488
 2351SOL     OW11094   6.314   8.007   1.355  0.2657  0.4913  0.4420
 2351SOL    HW111095   6.306   7.913   1.369  0.8775  0.1393 -1.3635
 2351SOL    HW211096   6.245   8.045   1.409  0.6273 -0.8958  1.9849
 2352SOL     OW11097   9.936   3.195   1.459 -0.2020  0.3938 -0.1138
 2352SOL    HW111098   9.951   3.101   1.469 -0.2896  0.5012  1.3788
 2352SOL    HW211099   9.847   3.209   1.491 -0.2009  0.9727 -0.3542
 2353SOL     OW11100   3.205   0.155   9.916  0.2965 -0.3670  0.5843
 2353SOL    HW111101   3.274   0.121   9.973  1.0181  0.0845 -0.0089
 2353SOL    HW211102   3.204   0.249   9.933  1.7393  0.0684 -1.3925
 2354SOL     OW11103   9.045   4.593   5.402  0.1053 -0.2129  0.5060
 2354SOL    HW111104   9.100   4.526   5.361 -0.9949 -1.8506  1.5719
 2354SOL    HW211105   8.961   4.586   5.357 -0.0878  0.3083  0.7742
 2355SOL     OW11106   9.827   8.630   0.635 -0.5352  0.3412 -0.2490
 2355SOL    HW111107   9.826   8.717   0.676 -1.3173  0.2832 -0.1214
 2355SOL    HW211108   9.920   8.610   0.623 -0.3166  0.7725  0.6248
 2356SOL     OW11109   8.838   8.129   3.784 -0.4096 -0.6382 -0.1596
 2356SOL    HW111110   8.794   8.193   3.728  1.3795  0.5903 -0.2426
 2356SOL    HW211111   8.908   8.093   3.729  0.6812 -0.2030  0.8831
 2357SOL     OW11112   7.110   9.349   4.038  0.3178 -0.1845 -0.6818
 2357SOL    HW111113   7.109   9.401   4.119  1.0132  0.3316 -0.9987
 2357SOL    HW211114   7.018   9.340   4.014  0.0729 -0.7376  0.4151
 2358SOL     OW11115   4.229   7.625   4.046 -0.3732  0.2610 -0.5717
 2358SOL    HW111116   4.201   7.606   4.136 -0.7780  0.3734 -0.6721
 2358SOL    HW211117   4.324   7.614   4.048 -0.4391 -0.3437 -0.2747
 2359SOL     OW11118   0.949   9.885   4.359  0.1777  0.4636  0.1997
 2359SOL    HW111119   0.942   9.822   4.431 -0.5591  1.2784  0.8521
 2359SOL    HW211120   0.870   9.872   4.307  0.2767  0.4943  0.0406
 2360SOL     OW11121   7.169   0.526   4.009  0.0707 -0.6865 -0.0415
 2360SOL    HW111122   7.179   0.556   4.100 -1.2924  0.3467 -0.1925
 2360SOL    HW211123   7.228   0.583   3.959 -1.9738  1.4349 -0.2315
 2361SOL     OW11124   1.588   7.299   9.487 -0.3350 -0.1015 -0.6330
 2361SOL    HW111125   1.576   7.251   9.570 -1.0912  0.4089 -0.4354
 2361SOL    HW211126   1.682   7.316   9.483 -0.0828 -1.3295 -0.5593
 2362SOL     OW11127   3.621   3.514   0.051 -0.1186 -0.0264  0.2808
 2362SOL    HW111128   3.568   3.501   0.130  0.0323  0.5228  0.4804
 2362SOL    HW211129   3.636   3.426   0.017 -0.0251 -0.2850  0.9736
 2363SOL     OW11130   9.647   8.627   1.107 -0.5900  0.0720  0.4791
 2363SOL    HW111131   9.569   8.683   1.115  0.5957  2.2034 -1.4818
 2363SOL    HW211132   9.633   8.579   1.025  0.2868  0.8107 -0.1295
 2364SOL     OW11133   1.272   6.440   3.850  0.2522 -0.1833 -0.4412
 2364SOL    HW111134   1.323   6.482   3.920  0.2208 -0.2058 -0.4049
 2364SOL    HW211135   1.188   6.485   3.851 -0.0057 -0.6555  0.0075
 2365SOL     OW11136   0.260   5.388   0.392  0.5056 -0.5378 -0.1322
 2365SOL    HW111137   0.191   5.377   0.327 -0.1681 -1.3209  0.7079
 2365SOL    HW211138   0.341   5.369   0.344  0.4964  2.8382 -1.8275
 2366SOL     OW11139   4.440   3.402   2.879 -0.3078 -0.3904 -0.4068
 2366SOL    HW111140   4.385   3.374   2.952  0.0430  0.5667  0.2440
 2366SOL    HW211141   4.519   3.437   2.920  0.6072 -1.3116 -1.3042
 2367SOL     OW11142   4.765   5.003   4.173 -0.1303  0.3395 -0.2813
 2367SOL    HW111143   4.725   5.022   4.089 -1.8368 -0.1946  0.3831
 2367SOL    HW211144   4.824   5.077   4.188 -0.8969  1.1813 -1.2629
 2368SOL     OW11145   9.701   4.470   8.501 -0.0792  0.5466 -0.3858
 2368SOL    HW111146   9.762   4.401   8.475 -0.7133 -0.3078  0.3303
 2368SOL    HW211147   9.712   4.538   8.435  2.8200  1.1552  0.5870
 2369SOL     OW11148   3.521   4.924   6.463  0.6580  0.2703  0.2279
 2369SOL    HW111149   3.522   4.927   6.368  0.3683  0.7643  0.2421
 2369SOL    HW211150   3.541   4.832   6.484 -1.2309 -0.3123 -0.3441
 2370SOL     OW11151   8.163   5.574   8.180  0.0059  0.1185  0.0801
 2370SOL    HW111152   8.182   5.590   8.088  0.0062 -0.9058 -0.1014
 2370SOL    HW211153   8.072   5.546   8.181  0.6414 -2.1045  0.1080
 2371SOL     OW11154   8.388   3.443  10.267  0.8256  0.2682  0.4390
 2371SOL    HW111155   8.474   3.414  10.296  1.3792  0.8796 -0.5337
 2371SOL    HW211156   8.335   3.445  10.347  1.8041  0.2089  1.1054
 2372SOL     OW11157   8.300   3.284   1.295 -0.1227  0.0909 -0.4285
 2372SOL    HW111158   8.231   3.245   1.243 -1.9688 -0.1379  2.0271
 2372SOL    HW211159   8.273   3.376   1.305 -1.4361 -0.5126  2.4537
 2373SOL     OW11160   6.359   4.109   6.159 -0.0594 -0.2771  0.0646
 2373SOL    HW111161   6.303   4.054   6.105  1.0407 -0.8689 -0.4977
 2373SOL    HW211162   6.427   4.139   6.100 -0.3789  1.3391  0.4722
 2374SOL     OW11163   8.047   3.375   7.483 -0.0878 -0.4760 -0.2999
 2374SOL    HW111164   8.084   3.438   7.545  1.6239 -0.6582 -1.0922
 2374SOL    HW211165   8.057   3.290   7.526 -2.4259 -0.2733  0.7830
 2375SOL     OW11166   5.576   4.137   4.227  0.0432  0.1688 -0.0369
 2375SOL    HW111167   5.482   4.146   4.243 -0.9315 -2.6089 -3.1552
 2375SOL    HW211168   5.603   4.063   4.282 -0.0544 -0.2433 -0.5359
 2376SOL     OW11169   5.468   9.950   8.929 -0.3469  0.4101 -0.5740
 2376SOL    HW111170   5.502  10.010   8.863 -1.3659  2.4683  0.6650
 2376SOL    HW211171   5.375   9.942   8.908 -0.2201 -0.8216 -0.7455
 2377SOL     OW11172   1.031   3.816   5.615  0.0519 -0.3124  0.3342
 2377SOL    HW111173   1.043   3.731   5.573  1.4659 -0.8988  1.8166
 2377SOL    HW211174   1.118   3.838   5.650 -0.1271  2.0445 -0.5022
 2378SOL     OW11175   0.195   9.606   2.235  0.0722  0.1209 -0.2537
 2378SOL    HW111176   0.102   9.612   2.258 -0.0649 -1.7582 -0.1737
 2378SOL    HW211177   0.235   9.684   2.275 -1.1503 -0.0022  1.2905
 2379SOL     OW11178   0.490   9.830   6.687 -0.2535  0.0472 -0.2896
 2379SOL    HW111179   0.402   9.798   6.703 -1.0897  1.5020 -1.6579
 2379SOL    HW211180   0.538   9.755   6.653 -1.0089 -0.7013  0.2694
 2380SOL     OW11181   1.501   2.049   2.185 -0.2108 -0.2730  0.0318
 2380SOL    HW111182   1.595   2.070   2.187 -0.4079  0.6109 -0.0189
 2380SOL    HW211183   1.499   1.953   2.195  0.7145 -0.3501 -0.3777
 2381SOL     OW11184  10.274   2.046   0.168  0.1669 -0.1090 -0.5527
 2381SOL    HW111185  10.324   2.128   0.167 -0.4967  0.3114  0.1841
 2381SOL    HW211186  10.284   2.013   0.258 -2.0066  0.6933  0.0261
 2382SOL     OW11187   6.695   2.775   2.631 -0.8182 -0.1792 -0.3187
 2382SOL    HW111188   6.723   2.690   2.664 -1.4380 -0.2600 -0.0001
 2382SOL    HW211189   6.719   2.774   2.538 -0.5647 -0.5866 -0.2506
 2383SOL     OW11190   2.870   8.757   1.831  0.2040  0.0358  0.5298
 2383SOL    HW111191   2.920   8.814   1.773  0.1016  0.2747  0.6750
 2383SOL    HW211192   2.780   8.788   1.824  0.0666 -0.4157  0.2425
 2384SOL     OW11193   4.027   9.541   0.771 -0.1989  0.5858  0.2508
 2384SOL    HW111194   4.073   9.458   0.760 -0.0355  0.3388  2.3685
 2384SOL    HW211195   4.079   9.604   0.721  0.8346 -0.2309  0.2686
 2385SOL     OW11196  10.254   4.155   4.172  0.7290  0.1883 -0.1411
 2385SOL    HW111197  10.305   4.126   4.097 -0.1868 -0.5822 -0.4874
 2385SOL    HW211198  10.261   4.251   4.171 -0.2372  0.2674 -1.9099
 2386SOL     OW11199   7.661   4.269   1.735 -0.2646 -0.4914  0.8896
 2386SOL    HW111200   7.724   4.218   1.685 -0.9709  1.8433 -2.7998
 2386SOL    HW211201   7.600   4.204   1.769  0.4927 -2.3637 -1.0553
 2387SOL     OW11202   1.212   5.571   5.027  0.1134  0.0178  0.0165
 2387SOL    HW111203   1.201   5.482   4.994 -1.6712  0.1433  0.2143
 2387SOL    HW211204   1.253   5.618   4.955  1.8901 -1.1329  0.2092
 2388SOL     OW11205   0.945   3.683   4.834  0.1526  0.3281 -0.2015
 2388SOL    HW111206   0.891   3.623   4.886  0.6932 -0.0214 -0.0255
 2388SOL    HW211207   0.956   3.760   4.890  0.4088  0.1120  0.0511
 2389SOL     OW11208   7.413   4.171   8.419 -0.6168  0.0985 -0.1689
 2389SOL    HW111209   7.355   4.139   8.489 -0.1660 -0.3621  0.0035
 2389SOL    HW211210   7.359   4.168   8.340 -0.6493 -0.9537 -0.1267
 2390SOL     OW11211   5.047   9.213   8.157 -0.4124  0.0753  0.6308
 2390SOL    HW111212   5.111   9.174   8.099 -0.9623 -0.3840  0.3198
 2390SOL    HW211213   5.072   9.183   8.244  0.3037  0.6137  0.6138
 2391SOL     OW11214   7.065   8.191   2.863  0.6632 -0.5955 -0.0654
 2391SOL    HW111215   6.978   8.202   2.824  0.2486 -0.2345  0.9180
 2391SOL    HW211216   7.103   8.279   2.861  0.4688 -0.4889  0.7132
 2392SOL     OW11217   1.788   1.761   4.928 -0.2256  0.3722 -0.0882
 2392SOL    HW111218   1.790   1.763   5.024 -0.3027  0.7857 -0.0925
 2392SOL    HW211219   1.799   1.668   4.905 -1.1082  0.1477  0.3387
 2393SOL     OW11220   2.557   0.188   4.371  0.1846  0.7538 -0.2520
 2393SOL    HW111221   2.522   0.168   4.458 -0.6506  1.1544 -0.4868
 2393SOL    HW211222   2.652   0.181   4.381  0.0311 -0.8215  0.2798
 2394SOL     OW11223   7.002   7.844   1.451 -0.0381 -0.2677 -0.2083
 2394SOL    HW111224   7.055   7.893   1.513 -0.5883 -0.8376  0.7380
 2394SOL    HW211225   7.005   7.896   1.370  1.2933  0.1065  0.0563
 2395SOL     OW11226   3.178   3.110   3.095 -0.3022  0.3516  0.2661
 2395SOL    HW111227   3.095   3.145   3.127 -0.8790  0.8305 -1.6338
 2395SOL    HW211228   3.242   3.178   3.117 -1.1852  2.1030 -2.1342
 2396SOL     OW11229   2.801   5.161   1.434 -0.2881  0.2726 -0.2060
 2396SOL    HW111230   2.767   5.073   1.449 -1.6013  0.3566 -2.3307
 2396SOL    HW211231   2.871   5.171   1.499  0.5154 -2.6591 -0.4593
 2397SOL     OW11232   5.890   6.271   5.679 -0.0486  0.3478  0.8291
 2397SOL    HW111233   5.970   6.262   5.730  0.3473 -1.2019  0.0044
 2397SOL    HW211234   5.859   6.181   5.667 -1.1057  0.8152 -0.1085
 2398SOL     OW11235   6.199  10.149   2.061  0.2944 -0.3253 -0.1085
 2398SOL    HW111236   6.257  10.084   2.021 -0.5586 -1.0737 -0.1592
 2398SOL    HW211237   6.168  10.202   1.987  0.0680 -0.6106 -0.2184
 2399SOL     OW11238   1.261   0.627   0.637 -0.6387 -0.1519  0.0795
 2399SOL    HW111239   1.345   0.582   0.648 -0.6074 -0.1368 -0.1016
 2399SOL    HW211240   1.278   0.717   0.666 -0.1853  0.2630 -1.3996
 2400SOL     OW11241   9.316   4.788   6.403  0.4626  0.5154 -0.3083
 2400SOL    HW111242   9.400   4.757   6.371  0.8248 -0.3918  1.4364
 2400SOL    HW211243   9.251   4.737   6.354  0.9954 -0.7492  0.2828
 2401SOL     OW11244   6.499   3.189   7.641  0.0602  0.2331  0.5691
 2401SOL    HW111245   6.420   3.136   7.634  0.6234 -0.6516  0.7335
 2401SOL    HW211246   6.505   3.235   7.557 -1.1898  1.1468  0.9491
 2402SOL     OW11247   1.236   3.240   9.737 -0.1766  0.1717  0.3473
 2402SOL    HW111248   1.153   3.197   9.716  0.1371 -0.7729  0.9383
 2402SOL    HW211249   1.256   3.294   9.661 -0.5862 -0.7691 -0.4494
 2403SOL     OW11250   6.505   7.444   6.910 -0.1673  0.2143 -0.4184
 2403SOL    HW111251   6.558   7.388   6.854  1.2473  1.4634 -0.3852
 2403SOL    HW211252   6.482   7.519   6.855 -0.8878  0.2684 -0.0620
 2404SOL     OW11253   2.544   7.046   2.084  0.0090  0.4022 -0.1817
 2404SOL    HW111254   2.454   7.080   2.078 -0.7163 -1.1777  1.1307
 2404SOL    HW211255   2.553   6.991   2.006 -0.6751 -0.5200  0.3677
 2405SOL     OW11256   5.917   0.122   8.390  0.1693  0.3922  0.3791
 2405SOL    HW111257   5.872   0.039   8.373  0.3277  0.4459 -0.3752
 2405SOL    HW211258   6.008   0.104   8.368  0.2524  0.6922  0.4795
 2406SOL     OW11259   2.068   3.267   1.254  0.3929  0.3673 -0.2799
 2406SOL    HW111260   2.013   3.203   1.209 -2.2031  0.6950  2.1389
 2406SOL    HW211261   2.074   3.340   1.193 -0.6480 -0.2799 -1.2012
 2407SOL     OW11262   3.741   3.111   7.150 -0.0275  0.4776  0.0009
 2407SOL    HW111263   3.651   3.119   7.119  0.7093  0.4631 -2.3409
 2407SOL    HW211264   3.788   3.073   7.076  1.9942  0.8652  1.0252
 2408SOL     OW11265   6.743   8.014   2.499  0.1051  0.0113 -0.6638
 2408SOL    HW111266   6.809   8.054   2.442  1.0406  1.6620  1.4395
 2408SOL    HW211267   6.668   8.072   2.494  1.7637  2.9110  3.0617
 2409SOL     OW11268  10.106   6.503   7.646 -0.3122 -0.3277 -0.2372
 2409SOL    HW111269  10.134   6.587   7.681 -2.5058  0.4805 -0.2258
 2409SOL    HW211270  10.047   6.468   7.713 -0.2200 -1.3888 -0.6926
 2410SOL     OW11271   3.620   8.794   6.726  0.1107  0.1519 -0.1845
 2410SOL    HW111272   3.700   8.743   6.728  0.8158  1.2370  0.7645
 2410SOL    HW211273   3.605   8.820   6.817  0.2826  2.3178 -0.7000
 2411SOL     OW11274   6.461   0.388   3.018 -0.0570 -0.1843 -0.3336
 2411SOL    HW111275   6.467   0.364   2.925 -0.6641  0.5209 -0.5697
 2411SOL    HW211276   6.500   0.475   3.023  0.3898 -0.4079  0.1625
 2412SOL     OW11277   0.389   3.657   2.228 -0.2610  0.1434  0.1133
 2412SOL    HW111278   0.319   3.693   2.173  0.6395 -0.1161 -1.2426
 2412SOL    HW211279   0.364   3.566   2.243 -0.5937  0.2619  0.3081
 2413SOL     OW11280   0.795   2.168   5.824 -0.3830  0.1378 -0.1560
 2413SOL    HW111281   0.760   2.079   5.836 -0.0684  0.1332  0.8272
 2413SOL    HW211282   0.760   2.196   5.740 -3.2465  0.3261  0.9735
 2414SOL     OW11283   3.598   8.826   0.902 -0.2053 -0.6880 -0.1893
 2414SOL    HW111284   3.531   8.806   0.836 -0.0942 -2.0647  0.0821
 2414SOL    HW211285   3.548   8.845   0.981 -0.3024 -0.4349 -0.3098
 2415SOL     OW11286   5.385   1.852   9.573 -0.3956  0.2157 -0.1843
 2415SOL    HW111287   5.297   1.889   9.565 -1.1044 -0.8760  1.8282
 2415SOL    HW211288   5.374   1.776   9.630  1.8213 -0.0700 -0.0445
 2416SOL     OW11289  10.130   1.433   1.041  0.1950 -0.3821  0.1729
 2416SOL    HW111290  10.199   1.378   1.005  0.0444 -1.2814  1.1808
 2416SOL    HW211291  10.151   1.439   1.135 -1.2444 -0.9328  0.5556
 2417SOL     OW11292   2.764   4.975   0.864 -0.2252  0.1224 -0.2078
 2417SOL    HW111293   2.781   4.975   0.958  1.8615  1.2159 -0.5223
 2417SOL    HW211294   2.777   4.884   0.837 -1.1587 -0.2620  0.5829
 2418SOL     OW11295   8.041   9.897   4.908  0.7429 -0.0362  0.2530
 2418SOL    HW111296   8.116   9.837   4.905  0.1942 -0.8266  1.5688
 2418SOL    HW211297   8.024   9.918   4.816  0.9535 -1.9259 -0.2662
 2419SOL     OW11298   3.830   2.149   6.810  0.3898 -0.2683  0.2980
 2419SOL    HW111299   3.826   2.054   6.814  1.2841 -0.2739  1.8388
 2419SOL    HW211300   3.741   2.176   6.789 -0.4779 -1.3661  2.3002
 2420SOL     OW11301   2.684   0.907   3.664  0.3947  0.1913  0.0365
 2420SOL    HW111302   2.769   0.895   3.622  0.3320  1.9069 -0.6345
 2420SOL    HW211303   2.621   0.864   3.606  0.8037 -1.4545  0.7451
 2421SOL     OW11304   6.196   4.372   5.188  0.0091  0.2751 -0.2549
 2421SOL    HW111305   6.161   4.340   5.104  0.8104  0.2715 -0.6000
 2421SOL    HW211306   6.289   4.348   5.185  0.2562  1.1440  0.2117
 2422SOL     OW11307   9.762   2.453   0.001  0.3272  0.2424  0.1602
 2422SOL    HW111308   9.766   2.543  -0.033  0.0561  0.1451 -0.1338
 2422SOL    HW211309   9.690   2.413  -0.046  0.8150 -0.3096 -0.1327
 2423SOL     OW11310   4.543   6.025   9.884  0.2071  0.7346  0.1392
 2423SOL    HW111311   4.478   5.997   9.949  1.4293 -1.6158  0.4559
 2423SOL    HW211312   4.613   6.066   9.936  0.2778  0.6684  0.0975
 2424SOL     OW11313   1.700   8.793   1.371  0.1874 -0.2183  0.0594
 2424SOL    HW111314   1.628   8.730   1.375  0.7926 -0.9669 -0.6148
 2424SOL    HW211315   1.681   8.854   1.442 -0.0440 -1.5649  1.2239
 2425SOL     OW11316   5.906   3.812   2.206 -0.0621  0.1149 -0.5977
 2425SOL    HW111317   5.897   3.880   2.140  0.0736  0.9127  0.1906
 2425SOL    HW211318   5.999   3.793   2.210 -0.0318  0.2952 -0.4173
 2426SOL     OW11319   8.413   6.490   9.894  0.3471 -0.3059  0.1757
 2426SOL    HW111320   8.422   6.583   9.914  0.4065 -0.5103  1.1323
 2426SOL    HW211321   8.337   6.462   9.944  1.8056 -1.3206  1.9657
 2427SOL     OW11322   7.325   0.257   4.194  0.6586  0.4634 -0.0401
 2427SOL    HW111323   7.377   0.177   4.191 -1.0354 -0.7270 -3.6794
 2427SOL    HW211324   7.367   0.316   4.131 -0.2878  0.8846 -0.3091
 2428SOL     OW11325   5.993  10.175   2.511  0.5444 -0.0257 -0.0669
 2428SOL    HW111326   6.059  10.168   2.443  0.8426  0.0087  0.2133
 2428SOL    HW211327   5.924  10.228   2.472  0.5782 -0.2533 -0.4408
 2429SOL     OW11328   9.597   3.409   7.896 -0.3368 -0.4274  0.2062
 2429SOL    HW111329   9.650   3.411   7.976  1.0490  0.1113 -0.6906
 2429SOL    HW211330   9.631   3.480   7.843 -0.6288 -1.3322 -1.2507
 2430SOL     OW11331   9.654   3.444   3.229 -0.3463 -0.1800 -0.8529
 2430SOL    HW111332   9.675   3.486   3.146 -0.7199 -2.5802 -2.2373
 2430SOL    HW211333   9.735   3.401   3.256 -0.0386  1.1108  0.4222
 2431SOL     OW11334   0.891   7.735   3.496  0.4490  0.7448  0.3951
 2431SOL    HW111335   0.960   7.747   3.431  0.0228 -1.8012 -0.6680
 2431SOL    HW211336   0.827   7.804   3.476  0.2894 -0.0061 -2.0127
 2432SOL     OW11337   0.400   0.804   3.764  0.0494 -0.0181 -0.3336
 2432SOL    HW111338   0.376   0.883   3.812  0.3302 -0.1831  0.0875
 2432SOL    HW211339   0.482   0.827   3.721 -0.1142  0.0741 -0.5956
 2433SOL     OW11340   7.840   2.818   5.246  0.1589 -0.1478 -0.2270
 2433SOL    HW111341   7.905   2.750   5.263 -0.6589 -0.7772  0.5095
 2433SOL    HW211342   7.845   2.876   5.322 -1.0702 -0.9812  0.5285
 2434SOL     OW11343   2.739   9.177   9.628  0.2491 -0.7912 -0.0282
 2434SOL    HW111344   2.820   9.180   9.678  0.3542  0.4384 -0.2376
 2434SOL    HW211345   2.750   9.245   9.561 -0.4776 -1.4098 -0.7941
 2435SOL     OW11346   8.513   2.899  10.109 -0.0716  0.1104 -0.1035
 2435SOL    HW111347   8.536   2.861  10.024  0.5723  0.6084 -0.1619
 2435SOL    HW211348   8.510   2.824  10.169 -4.0907 -0.8460 -1.1812
 2436SOL     OW11349   0.033   4.408   2.953  0.4654  0.0479 -0.0080
 2436SOL    HW111350   0.112   4.385   2.903  0.5619  1.6003 -0.6233
 2436SOL    HW211351   0.051   4.495   2.987 -0.8470  0.2745  0.1377
 2437SOL     OW11352   4.526   8.657   7.737  0.4757 -0.4067  0.9343
 2437SOL    HW111353   4.472   8.700   7.804 -1.6231 -0.7106 -0.4926
 2437SOL    HW211354   4.564   8.729   7.687 -1.5982 -0.1145 -0.3259
 2438SOL     OW11355   4.036   9.601   6.051  0.2721  0.5740  0.3345
 2438SOL    HW111356   4.073   9.577   6.135 -1.1850  0.6336  1.0315
 2438SOL    HW211357   3.950   9.637   6.072  0.2663  1.5132 -1.1011
 2439SOL     OW11358   4.663   3.970   3.867 -0.6692  0.1306 -0.1433
 2439SOL    HW111359   4.751   4.003   3.855 -1.1983  1.1797 -1.3868
 2439SOL    HW211360   4.607   4.035   3.824 -1.9471 -1.1177 -0.4273
 2440SOL     OW11361   4.846   9.038   3.982  0.2706  0.5424  0.3272
 2440SOL    HW111362   4.807   8.985   3.912  0.3461 -1.3604  1.6356
 2440SOL    HW211363   4.811   9.126   3.969  0.4365  0.2972 -2.1959
 2441SOL     OW11364   4.806   8.771   1.806  0.1512 -0.0099  0.6746
 2441SOL    HW111365   4.865   8.734   1.740  0.5157 -0.6144  1.3255
 2441SOL    HW211366   4.750   8.698   1.832 -0.4389  0.3907  0.5625
 2442SOL     OW11367   5.560   2.738   5.254 -0.5936 -0.0083 -0.2900
 2442SOL    HW111368   5.474   2.730   5.294 -0.0520 -0.2413  0.8667
 2442SOL    HW211369   5.579   2.650   5.221 -0.4630 -0.1524  0.1663
 2443SOL     OW11370   7.712   1.832   3.172  0.0291  0.6435 -0.5615
 2443SOL    HW111371   7.652   1.783   3.116 -0.4072  0.3368  0.1537
 2443SOL    HW211372   7.781   1.771   3.194  0.2968  0.8194 -0.9142
 2444SOL     OW11373   1.225   6.442   7.988  0.8952  0.3570 -0.2033
 2444SOL    HW111374   1.230   6.388   7.910  1.6216  1.1994 -0.7565
 2444SOL    HW211375   1.225   6.532   7.956 -0.3557  0.7068  0.6928
 2445SOL     OW11376   0.720   8.212   9.841  0.2920  0.0963 -0.2460
 2445SOL    HW111377   0.699   8.150   9.772 -2.4002 -0.0399  0.6028
 2445SOL    HW211378   0.664   8.287   9.824  1.6570  1.2736  0.2065
 2446SOL     OW11379   0.916   7.886   3.746  0.0095  0.2529 -0.2232
 2446SOL    HW111380   0.820   7.884   3.745 -0.1108  2.0379 -2.9144
 2446SOL    HW211381   0.938   7.941   3.822 -0.9923 -0.9615  1.0051
 2447SOL     OW11382   7.136   2.573   8.309 -0.2759  1.0317  0.0854
 2447SOL    HW111383   7.089   2.577   8.393  1.3642 -1.1944  1.2042
 2447SOL    HW211384   7.226   2.598   8.331  0.2019  0.3218 -0.9922
 2448SOL     OW11385   4.349   0.369   9.823 -0.0906  0.0658 -0.6013
 2448SOL    HW111386   4.412   0.313   9.869  0.4754  0.5361 -0.7988
 2448SOL    HW211387   4.276   0.310   9.801  0.5690 -0.6380 -0.9406
 2449SOL     OW11388   2.515   9.259   0.605  0.3433  0.0915  0.1776
 2449SOL    HW111389   2.605   9.284   0.626  0.8111 -0.1675 -1.4349
 2449SOL    HW211390   2.477   9.235   0.690  0.8352  3.1008  1.3872
 2450SOL     OW11391   2.059   6.376   9.698 -0.1651  0.1146  0.8454
 2450SOL    HW111392   2.137   6.321   9.705 -0.2478 -0.0872  0.2375
 2450SOL    HW211393   2.003   6.349   9.771  0.6148  0.7234  1.6833
 2451SOL     OW11394   2.781   8.942   5.284 -0.4460 -0.0458 -0.5607
 2451SOL    HW111395   2.761   8.930   5.192 -0.9201  2.7049 -0.9078
 2451SOL    HW211396   2.724   8.880   5.330 -2.2546  0.4459 -2.0138
 2452SOL     OW11397   7.640   3.235  10.268  0.1821  0.1007 -0.1165
 2452SOL    HW111398   7.557   3.201  10.233 -0.6746  0.3618  1.5449
 2452SOL    HW211399   7.666   3.171  10.334  0.7890  0.5347  0.0725
 2453SOL     OW11400   4.865   6.870   0.304  0.0271  0.0353 -0.1729
 2453SOL    HW111401   4.835   6.812   0.234 -1.8964  3.1316 -2.1426
 2453SOL    HW211402   4.788   6.883   0.360  0.0908  1.4675 -0.3854
 2454SOL     OW11403   5.478   5.546   0.404 -0.1766  0.0443  0.2490
 2454SOL    HW111404   5.509   5.464   0.444  1.6295  0.1439 -0.8269
 2454SOL    HW211405   5.484   5.530   0.310 -0.6144  1.1394  0.0221
 2455SOL     OW11406   9.469   4.610   4.986  0.1129 -0.4864  0.2098
 2455SOL    HW111407   9.511   4.534   4.946 -0.0973 -0.3829 -0.2190
 2455SOL    HW211408   9.520   4.685   4.953  0.7127 -0.4820  1.1340
 2456SOL     OW11409   0.299   6.838   3.181  0.3004 -0.3124  0.3507
 2456SOL    HW111410   0.385   6.870   3.209 -0.1343  0.6394  0.6562
 2456SOL    HW211411   0.292   6.750   3.218  0.9986 -0.2598  0.6155
 2457SOL     OW11412   7.814   0.051   8.383 -0.0822 -0.4041  0.7783
 2457SOL    HW111413   7.758  -0.014   8.339  0.4499  0.5646 -1.4974
 2457SOL    HW211414   7.761   0.130   8.383  0.6281  0.0846  0.1294
 2458SOL     OW11415   9.323  10.192   3.842 -0.3422  0.1672 -0.3993
 2458SOL    HW111416   9.254  10.242   3.799  0.7795  1.4273 -0.8105
 2458SOL    HW211417   9.347  10.124   3.779  1.0857  1.8161 -1.7730
 2459SOL     OW11418   6.275   3.134   5.437 -0.1647 -0.0870 -0.0155
 2459SOL    HW111419   6.339   3.181   5.490 -1.1724 -0.7810  1.8949
 2459SOL    HW211420   6.317   3.051   5.415 -0.6554 -0.9045  1.9551
 2460SOL     OW11421   1.665   8.524   1.918  0.6339  0.3102  0.7552
 2460SOL    HW111422   1.618   8.595   1.874 -1.9492 -1.4917  0.3872
 2460SOL    HW211423   1.610   8.502   1.994  2.0810 -0.4192  1.6326
 2461SOL     OW11424   8.404   4.197   5.679  0.1694  0.4772 -0.1539
 2461SOL    HW111425   8.390   4.288   5.651 -1.2316  0.3841  0.1531
 2461SOL    HW211426   8.316   4.163   5.693  0.7182 -0.2876  1.7778
 2462SOL     OW11427   4.832   0.947   6.362  0.6417  0.2236 -0.3452
 2462SOL    HW111428   4.791   1.024   6.402 -0.8734 -1.0340  0.6487
 2462SOL    HW211429   4.912   0.934   6.412  0.3883  0.5723  0.1641
 2463SOL     OW11430   5.689   6.336   3.520 -0.0566 -0.0876 -0.5040
 2463SOL    HW111431   5.726   6.322   3.433 -1.7274 -1.7283 -1.0094
 2463SOL    HW211432   5.697   6.430   3.534  1.4931  0.0221 -1.8268
 2464SOL     OW11433   9.540   6.154   5.361 -0.2744 -0.6104 -0.1480
 2464SOL    HW111434   9.612   6.146   5.298  0.7708 -0.5299  0.9885
 2464SOL    HW211435   9.476   6.209   5.317  1.5045  1.5238 -0.2645
 2465SOL     OW11436   0.499   0.518   3.618  0.0092 -0.3123 -0.1293
 2465SOL    HW111437   0.483   0.425   3.627 -0.3927 -0.0595  2.2262
 2465SOL    HW211438   0.585   0.532   3.657  0.1017  0.3118 -0.5369
 2466SOL     OW11439   5.983   1.020   9.383  0.3519 -0.2139 -0.5524
 2466SOL    HW111440   6.033   0.977   9.314 -0.4603  1.2740 -2.1586
 2466SOL    HW211441   6.036   1.095   9.408  1.2373 -1.4284  1.4222
 2467SOL     OW11442   0.056   0.044   9.567  0.0599 -0.0140 -0.8091
 2467SOL    HW111443  -0.025   0.009   9.603  1.2433 -1.2323  0.7734
 2467SOL    HW211444   0.041   0.139   9.563 -1.0970 -0.1155  0.3589
 2468SOL     OW11445   2.662   8.846   6.555  0.3568 -0.2487  0.5132
 2468SOL    HW111446   2.640   8.926   6.509 -0.5275 -0.9483 -0.3156
 2468SOL    HW211447   2.755   8.855   6.576  0.7850  0.1260 -1.3634
 2469SOL     OW11448   9.777   8.635   5.553  0.6240 -0.1244 -0.1390
 2469SOL    HW111449   9.868   8.612   5.534  0.6975  0.7496 -0.9627
 2469SOL    HW211450   9.778   8.731   5.556  0.1228 -0.1455  1.9524
 2470SOL     OW11451   0.610   0.818   5.037 -0.1769 -0.4071  0.5102
 2470SOL    HW111452   0.646   0.799   4.950  0.1076  0.7740  0.3446
 2470SOL    HW211453   0.672   0.778   5.098 -0.3600 -1.2146  0.1772
 2471SOL     OW11454   7.918   7.549   4.706 -0.0398  0.0697 -0.3898
 2471SOL    HW111455   7.930   7.583   4.617 -4.0585 -1.9628 -1.9401
 2471SOL    HW211456   7.987   7.484   4.716  1.5890  1.5691 -1.2255
 2472SOL     OW11457   5.951   1.614   8.624 -0.1343 -0.2583 -0.6122
 2472SOL    HW111458   5.969   1.534   8.575  0.0116 -0.0044 -0.9748
 2472SOL    HW211459   5.873   1.651   8.582  0.6440  0.5476 -1.3821
 2473SOL     OW11460  10.180   9.473   2.286  0.5892  0.0591  0.0718
 2473SOL    HW111461  10.086   9.487   2.299  0.4288 -0.9637  0.1252
 2473SOL    HW211462  10.220   9.557   2.306 -0.1734  0.0847  1.5966
 2474SOL     OW11463   3.275   2.136   0.908 -0.1910  0.7678 -0.2521
 2474SOL    HW111464   3.356   2.160   0.863  0.3118 -0.2442  0.0795
 2474SOL    HW211465   3.275   2.189   0.988  2.5496 -2.4042  2.1291
 2475SOL     OW11466  10.058   6.826   0.374 -0.2396  0.4462  0.2748
 2475SOL    HW111467  10.041   6.846   0.466 -0.2118  1.5695  0.0459
 2475SOL    HW211468   9.977   6.850   0.329 -0.5064 -0.7534  0.0778
 2476SOL     OW11469   9.578   8.901   4.268 -0.0480 -0.2502 -0.0761
 2476SOL    HW111470   9.607   8.991   4.284 -0.0634 -0.5351  1.8684
 2476SOL    HW211471   9.509   8.887   4.333 -0.0805 -1.6497 -0.3889
 2477SOL     OW11472   0.863   1.748   0.244  0.2305 -0.1591  0.0131
 2477SOL    HW111473   0.827   1.717   0.327  1.1535 -2.1350 -0.2673
 2477SOL    HW211474   0.947   1.703   0.235  1.1760  1.6606 -0.9913
 2478SOL     OW11475   0.598   4.397   7.154  0.1016  0.3406 -0.1840
 2478SOL    HW111476   0.632   4.328   7.211  1.2275  0.1727 -1.0319
 2478SOL    HW211477   0.505   4.374   7.143 -0.2186  0.5195  1.7382
 2479SOL     OW11478   7.429   4.708   5.939 -0.5301  0.4283  0.3504
 2479SOL    HW111479   7.504   4.697   5.880 -0.8210 -0.0370  0.0677
 2479SOL    HW211480   7.390   4.791   5.912 -1.0346 -0.0875 -0.5328
 2480SOL     OW11481   9.560   5.726   4.859  0.0384  0.3149  0.4389
 2480SOL    HW111482   9.468   5.743   4.879  0.5403  1.1262  2.2039
 2480SOL    HW211483   9.564   5.730   4.763 -2.0864 -1.6269  0.1841
 2481SOL     OW11484   7.628   3.841   0.468 -0.5357 -0.1019  0.4120
 2481SOL    HW111485   7.569   3.907   0.505 -0.6581 -0.3172  0.6042
 2481SOL    HW211486   7.715   3.871   0.493 -0.6332 -0.4196  1.1762
 2482SOL     OW11487   8.840   8.782   7.990  0.0243  0.1640  0.0320
 2482SOL    HW111488   8.765   8.834   8.020 -0.6185 -0.2291 -0.8685
 2482SOL    HW211489   8.916   8.826   8.030 -0.7870 -0.7372  2.8176
 2483SOL     OW11490   8.318   2.535   8.185  0.5016 -0.0305 -0.4803
 2483SOL    HW111491   8.251   2.587   8.141  0.3693 -0.2878 -0.5893
 2483SOL    HW211492   8.310   2.558   8.277  0.9746  0.7344 -0.6201
 2484SOL     OW11493   7.217   0.033   4.856 -0.6441 -0.4107 -0.5991
 2484SOL    HW111494   7.298   0.078   4.832 -0.2562 -0.5905  0.3511
 2484SOL    HW211495   7.242  -0.059   4.867 -0.5053 -0.1670  1.6843
 2485SOL     OW11496   6.718   2.585   9.073  0.3397 -0.2112  0.3736
 2485SOL    HW111497   6.727   2.628   9.159  0.3521  1.8288 -0.5957
 2485SOL    HW211498   6.802   2.541   9.060  0.0231 -1.3167  1.7616
 2486SOL     OW11499   7.855   0.708   3.398  0.0063 -1.0928  0.0566
 2486SOL    HW111500   7.850   0.793   3.354  0.1855 -1.0014  0.2121
 2486SOL    HW211501   7.921   0.720   3.466 -0.1949 -1.2660  0.2812
 2487SOL     OW11502   6.159   1.252   8.323 -0.0530  0.0969 -0.5107
 2487SOL    HW111503   6.212   1.234   8.246 -1.5406  1.0557 -1.8205
 2487SOL    HW211504   6.221   1.250   8.396  1.4292 -0.6391 -1.7320
 2488SOL     OW11505   6.892   2.179   3.985 -0.3228 -0.2671 -0.6173
 2488SOL    HW111506   6.954   2.251   3.978 -0.5114  0.0785  0.8680
 2488SOL    HW211507   6.908   2.142   4.072 -1.2158 -1.0918 -0.7823
 2489SOL     OW11508   4.576  10.243   9.481 -0.0805 -0.0041 -0.1085
 2489SOL    HW111509   4.577  10.150   9.461 -0.3747  0.0578 -0.4215
 2489SOL    HW211510   4.666  10.272   9.465 -0.4470  0.1964 -2.1599
 2490SOL     OW11511   9.844   7.818   0.183 -0.3060 -0.3127 -0.1210
 2490SOL    HW111512   9.906   7.891   0.187  0.0565 -0.5369 -1.3510
 2490SOL    HW211513   9.889   7.750   0.134 -0.3722 -1.6759  1.6312
 2491SOL     OW11514   8.687   6.848   1.750 -0.3072 -0.0333  0.1668
 2491SOL    HW111515   8.726   6.819   1.668  1.1316  1.0873  0.4095
 2491SOL    HW211516   8.687   6.943   1.745 -0.9304  0.0410  1.1436
 2492SOL     OW11517   3.264   5.435   8.794 -0.3372  0.2729  0.2686
 2492SOL    HW111518   3.351   5.460   8.762  0.8110 -0.9401  2.2467
 2492SOL    HW211519   3.280   5.360   8.850 -2.8550 -0.7715 -0.2800
 2493SOL     OW11520   3.246   2.188   8.071  0.2090 -0.3300  0.3081
 2493SOL    HW111521   3.279   2.156   7.987  0.4887 -0.6110  0.5200
 2493SOL    HW211522   3.177   2.249   8.048  0.2444 -0.4486 -0.1266
 2494SOL     OW11523   9.248   8.449   2.782  0.2137  0.6908  0.1436
 2494SOL    HW111524   9.327   8.474   2.734 -0.4158 -1.1262 -2.0062
 2494SOL    HW211525   9.248   8.353   2.781 -2.0478  0.6354  0.0107
 2495SOL     OW11526   4.429   1.824   1.860 -0.4875 -0.3074 -0.6047
 2495SOL    HW111527   4.516   1.865   1.852 -0.6360 -0.2802 -2.3430
 2495SOL    HW211528   4.381   1.853   1.783 -2.5460  0.7411  0.9700
 2496SOL     OW11529   1.692   4.595   4.355  0.0019 -0.5464  0.0996
 2496SOL    HW111530   1.709   4.619   4.446 -0.9194  0.9238 -0.0634
 2496SOL    HW211531   1.634   4.520   4.360  1.0686 -1.3499  0.6976
 2497SOL     OW11532   0.369   2.178   0.981  0.5509  0.0648  0.4302
 2497SOL    HW111533   0.379   2.180   0.885 -0.3952  1.0444  0.3373
 2497SOL    HW211534   0.408   2.094   1.007 -2.2752 -1.9222 -1.1928
 2498SOL     OW11535   9.694   5.252   1.507  0.0289  0.3799  0.0460
 2498SOL    HW111536   9.613   5.302   1.504 -0.3725 -0.2766 -0.4237
 2498SOL    HW211537   9.734   5.275   1.591 -0.6561  0.6973  0.2861
 2499SOL     OW11538   9.236   7.121   9.606 -0.0656  0.2232 -0.4806
 2499SOL    HW111539   9.226   7.098   9.514  0.9114  0.3805 -0.6371
 2499SOL    HW211540   9.326   7.153   9.613 -0.5002  1.3417  0.2838
 2500SOL     OW11541   0.728   4.712   1.714 -0.0077  0.4780 -0.2497
 2500SOL    HW111542   0.788   4.659   1.661 -0.5517  0.9889 -1.4213
 2500SOL    HW211543   0.640   4.684   1.687 -0.3175  2.1133 -1.0956
 2501SOL     OW11544   9.545   0.478   7.562  0.0909  0.0837  0.4059
 2501SOL    HW111545   9.577   0.521   7.641 -0.4445  0.3125  0.5057
 2501SOL    HW211546   9.620   0.430   7.528  0.2582 -0.2047  1.1811
 2502SOL     OW11547   0.013   9.287   4.403 -0.8528  0.4281  0.3545
 2502SOL    HW111548   0.103   9.256   4.412 -0.4226  1.4883 -0.1147
 2502SOL    HW211549  -0.040   9.207   4.396 -0.0160 -0.2154  1.1435
 2503SOL     OW11550   9.556   7.862   4.865  0.1240  1.0324 -0.1247
 2503SOL    HW111551   9.634   7.843   4.812 -0.3270 -2.0768  0.1050
 2503SOL    HW211552   9.590   7.875   4.954  0.4061 -1.8169  0.2823
 2504SOL     OW11553   9.330   0.650   2.395  0.0893  0.1719 -0.6636
 2504SOL    HW111554   9.395   0.581   2.383 -0.2466 -0.0168 -1.4301
 2504SOL    HW211555   9.331   0.667   2.489  1.0291 -0.0374 -0.6264
 2505SOL     OW11556   5.676   8.555   7.861 -0.3073  0.4828  0.0212
 2505SOL    HW111557   5.658   8.536   7.769 -1.4837 -0.7358  0.4706
 2505SOL    HW211558   5.597   8.600   7.892 -0.2612  0.1358  0.6456
 2506SOL     OW11559   4.854   2.379  10.098 -0.3973  0.6513 -0.1605
 2506SOL    HW111560   4.938   2.363  10.142 -0.3926 -1.5379 -0.8390
 2506SOL    HW211561   4.872   2.361  10.006 -1.4437  0.8757 -0.4180
 2507SOL     OW11562   2.297   1.094   0.445 -0.3287 -0.6477 -0.0546
 2507SOL    HW111563   2.352   1.165   0.411  0.7479 -0.8707  1.1255
 2507SOL    HW211564   2.349   1.056   0.516 -2.0195 -0.8490  1.1466
 2508SOL     OW11565   8.029   1.001   0.997 -0.3987 -0.2730 -0.4501
 2508SOL    HW111566   7.975   1.076   1.019 -0.8981 -1.0914  1.2686
 2508SOL    HW211567   7.975   0.925   1.018  1.1190 -1.1179  0.6174
 2509SOL     OW11568   5.509   8.776   9.748 -0.3621  0.4331 -0.0289
 2509SOL    HW111569   5.459   8.854   9.724 -0.0965  0.3869 -0.7472
 2509SOL    HW211570   5.450   8.703   9.728  0.0544  0.3661 -1.0968
 2510SOL     OW11571   9.565   7.409   1.814 -0.1945  0.3786  0.3714
 2510SOL    HW111572   9.620   7.390   1.738 -1.2314  0.1588 -0.3598
 2510SOL    HW211573   9.567   7.329   1.866  0.0946  0.3343  0.2912
 2511SOL     OW11574   1.326   9.265   7.457  0.1335  0.0996  0.2946
 2511SOL    HW111575   1.286   9.341   7.415  1.4867  0.6667 -0.0193
 2511SOL    HW211576   1.298   9.191   7.404 -1.2551  0.3519  0.6413
 2512SOL     OW11577   8.018   0.678   2.677 -0.1388  0.2607 -0.1924
 2512SOL    HW111578   8.071   0.602   2.650 -0.9423 -0.1414 -0.6837
 2512SOL    HW211579   7.938   0.671   2.624 -0.8095  0.6920  0.7357
 2513SOL     OW11580   3.165   0.077   8.661  0.0403 -0.1076 -0.4934
 2513SOL    HW111581   3.085   0.114   8.697 -0.2473 -1.6915  0.6326
 2513SOL    HW211582   3.214   0.047   8.737 -0.0417 -2.5167 -1.2827
 2514SOL     OW11583   7.125   0.204   7.050 -0.0483 -0.0307  0.4077
 2514SOL    HW111584   7.095   0.120   7.015  0.4612 -0.4180  0.8844
 2514SOL    HW211585   7.070   0.218   7.127  1.9985 -1.5350  2.2395
 2515SOL     OW11586   5.870  10.296   0.437  0.3352  0.0575  0.3017
 2515SOL    HW111587   5.893  10.253   0.354  0.8178 -0.8692  0.8938
 2515SOL    HW211588   5.952  10.297   0.486 -0.2152 -0.5972  1.2781
 2516SOL     OW11589   6.229   4.525  10.199  0.1379 -0.2314 -0.0403
 2516SOL    HW111590   6.302   4.468  10.223  0.2258 -0.2521 -0.3468
 2516SOL    HW211591   6.229   4.595  10.264  0.8226  0.1158 -0.4028
 2517SOL     OW11592   4.621   6.766   7.480 -0.1840  0.3353 -0.1554
 2517SOL    HW111593   4.664   6.821   7.546 -1.4538  1.5605 -0.3193
 2517SOL    HW211594   4.631   6.815   7.398  0.7215 -0.8239 -0.7715
 2518SOL     OW11595   0.909   4.716   9.545 -0.1978  0.0388  0.1220
 2518SOL    HW111596   0.826   4.763   9.547  0.4797  1.4893 -2.2734
 2518SOL    HW211597   0.954   4.749   9.467  2.4473 -1.0271  1.0755
 2519SOL     OW11598   2.766   0.501   4.842 -0.1618  0.1540 -0.2149
 2519SOL    HW111599   2.762   0.433   4.775 -0.9292  0.9879 -1.0453
 2519SOL    HW211600   2.859   0.506   4.865  0.1716  0.0381 -1.4345
 2520SOL     OW11601   9.567   2.215   4.898  0.1409  0.0053 -0.2515
 2520SOL    HW111602   9.643   2.158   4.885  1.5129  1.4304  1.0486
 2520SOL    HW211603   9.547   2.208   4.992 -1.9246 -0.9976 -0.7074
 2521SOL     OW11604   2.357   3.562   9.418  0.6109 -0.7473 -0.6118
 2521SOL    HW111605   2.316   3.602   9.495  0.9307 -0.4939 -0.5715
 2521SOL    HW211606   2.419   3.500   9.454  3.6652  2.0913 -0.4961
 2522SOL     OW11607   0.433   5.289   8.538 -0.2224 -0.1747  0.3531
 2522SOL    HW111608   0.454   5.372   8.495 -0.1387 -0.2635  0.2201
 2522SOL    HW211609   0.349   5.304   8.580 -1.2776 -0.6822 -1.4868
 2523SOL     OW11610   9.004   2.402   9.671  0.3650  0.7455 -0.5619
 2523SOL    HW111611   8.974   2.426   9.759  2.4047  0.6666  0.2100
 2523SOL    HW211612   8.943   2.334   9.643 -0.5914  1.0863  0.5905
 2524SOL     OW11613   3.792   7.262   9.830  0.4416 -0.2132 -0.3538
 2524SOL    HW111614   3.760   7.280   9.741 -0.5365  0.0028  0.0364
 2524SOL    HW211615   3.716   7.273   9.886  0.0231 -4.1922  0.1335
 2525SOL     OW11616   5.830   0.963   8.202  0.0824 -0.2797 -0.4732
 2525SOL    HW111617   5.756   0.948   8.142 -0.2348 -3.5671  0.5285
 2525SOL    HW211618   5.791   1.009   8.276  0.2030  2.5990 -2.0494
 2526SOL     OW11619   0.203   1.632   5.251  0.0703  0.0328 -0.2239
 2526SOL    HW111620   0.169   1.670   5.332 -1.6859 -1.3727 -0.2443
 2526SOL    HW211621   0.295   1.613   5.270  0.0046  0.8614  1.0083
 2527SOL     OW11622   0.554   1.245   8.175 -0.0935  0.3345 -0.0652
 2527SOL    HW111623   0.585   1.334   8.160 -0.2656  0.5372  0.7426
 2527SOL    HW211624   0.626   1.203   8.223 -0.0205  0.0377 -0.4277
 2528SOL     OW11625   0.287   2.959  10.060 -0.6183  0.3519 -0.3951
 2528SOL    HW111626   0.301   2.893   9.993  1.4449 -0.9190  1.1543
 2528SOL    HW211627   0.356   3.024  10.045 -0.2010  0.1091  0.3944
 2529SOL     OW11628   0.603   4.526   8.772 -0.0626 -0.6711 -0.4424
 2529SOL    HW111629   0.580   4.598   8.830 -0.2228 -0.3441 -0.9102
 2529SOL    HW211630   0.677   4.484   8.815  0.2509 -0.0207 -0.3305
 2530SOL     OW11631   6.237   0.447   3.714  0.1630 -0.1373 -0.1424
 2530SOL    HW111632   6.157   0.395   3.724 -1.1593  1.9338  0.7460
 2530SOL    HW211633   6.259   0.473   3.803  1.0163  0.4994 -0.5327
 2531SOL     OW11634   5.424   2.779   2.499  0.0326  0.0423 -0.1505
 2531SOL    HW111635   5.455   2.757   2.586  1.4453 -2.6258 -1.1951
 2531SOL    HW211636   5.356   2.714   2.480  1.4955 -1.0852 -1.8869
 2532SOL     OW11637   5.119   4.128   9.072 -0.5406 -0.2524  0.3816
 2532SOL    HW111638   5.181   4.176   9.018 -0.9227  1.3796  1.3218
 2532SOL    HW211639   5.160   4.042   9.085  0.6721  0.1713 -0.4764
 2533SOL     OW11640   4.628   5.719   3.853 -0.0534  0.1127  0.3658
 2533SOL    HW111641   4.663   5.706   3.765 -0.7884  0.6396 -0.0106
 2533SOL    HW211642   4.608   5.812   3.858 -3.4472 -0.4347 -0.2534
 2534SOL     OW11643   8.197   6.922   6.443 -0.2475 -0.0322  0.0744
 2534SOL    HW111644   8.286   6.916   6.408 -0.8137  0.6792 -1.6031
 2534SOL    HW211645   8.182   6.837   6.484  1.7627  0.3995  1.8774
 2535SOL     OW11646  10.202   6.995   2.926 -0.3346  0.5575 -0.6388
 2535SOL    HW111647  10.209   7.080   2.884  0.3876  0.9754  0.2952
 2535SOL    HW211648  10.292   6.964   2.933 -0.4051  0.5977  0.7608
 2536SOL     OW11649   7.753   2.000   5.403 -0.4266 -1.0206  0.4212
 2536SOL    HW111650   7.793   2.068   5.458  1.1983 -1.6876  0.1425
 2536SOL    HW211651   7.751   1.922   5.459  4.1832 -2.6250 -1.1474
 2537SOL     OW11652   3.100   2.103   2.396 -0.1348 -0.5232  0.6312
 2537SOL    HW111653   3.110   2.195   2.370 -0.2973 -0.4572  0.7984
 2537SOL    HW211654   3.189   2.068   2.395 -0.2683 -0.9408 -1.4931
 2538SOL     OW11655   5.891   4.552   6.637  0.1282 -0.2582 -0.6004
 2538SOL    HW111656   5.833   4.610   6.588 -1.2144 -1.8417 -0.9354
 2538SOL    HW211657   5.834   4.507   6.699  1.5376  0.5217  1.4028
 2539SOL     OW11658   9.192   0.378   2.820  0.4897 -0.0707  0.4011
 2539SOL    HW111659   9.156   0.360   2.906 -0.6051  0.5826  0.0944
 2539SOL    HW211660   9.119   0.414   2.770  0.5020 -2.4368 -1.4967
 2540SOL     OW11661   6.967   0.861   3.081 -0.2253  0.1347 -0.1619
 2540SOL    HW111662   6.956   0.821   2.994 -1.3606  0.7378 -0.3131
 2540SOL    HW211663   6.959   0.955   3.065 -1.0807  0.2187  0.6804
 2541SOL     OW11664   8.972   8.671   0.691  0.3092  0.7237  1.1442
 2541SOL    HW111665   9.016   8.616   0.756  1.1637 -1.2999 -0.9886
 2541SOL    HW211666   9.041   8.727   0.656  0.1874  0.7398  0.9285
 2542SOL     OW11667   5.867   5.625   9.891 -0.0293  0.4228 -0.4699
 2542SOL    HW111668   5.773   5.630   9.906  0.1483  0.5796  0.6967
 2542SOL    HW211669   5.905   5.678   9.961  0.9286  0.3015 -0.8839
 2543SOL     OW11670   9.280   1.205  10.279  0.4658  0.7365  0.2283
 2543SOL    HW111671   9.199   1.154  10.280  0.8246  0.1394 -0.5954
 2543SOL    HW211672   9.265   1.274  10.344 -0.2598 -0.0437  0.9102
 2544SOL     OW11673   8.557  10.195   9.218 -0.0404 -0.2137  0.4263
 2544SOL    HW111674   8.471  10.208   9.258 -1.5054 -0.5186 -2.3676
 2544SOL    HW211675   8.564  10.100   9.207  0.0060 -0.1019 -0.6058
 2545SOL     OW11676   9.101   8.560   8.590  0.3405 -0.5137 -0.2096
 2545SOL    HW111677   9.109   8.472   8.552  3.0497 -0.3398 -0.2820
 2545SOL    HW211678   9.161   8.613   8.537 -1.9037  1.6371 -0.7353
 2546SOL     OW11679   4.881  10.077   6.548 -0.4029  0.4303  0.3347
 2546SOL    HW111680   4.954  10.020   6.572  0.0808  1.6667  1.9399
 2546SOL    HW211681   4.890  10.153   6.605 -2.9556  0.6160  0.6128
 2547SOL     OW11682   2.273   3.676   9.655  0.1778 -0.3339 -0.0986
 2547SOL    HW111683   2.178   3.676   9.660  0.1986  1.2624  0.7554
 2547SOL    HW211684   2.302   3.655   9.744  0.6376 -0.9149 -0.3770
 2548SOL     OW11685   7.171   2.909   3.049  0.3985 -0.6632  0.3639
 2548SOL    HW111686   7.084   2.949   3.045  1.0691  0.7485 -0.4934
 2548SOL    HW211687   7.172   2.864   3.134 -1.7547 -2.1519 -0.2911
 2549SOL     OW11688   1.683   3.002   1.486 -0.1594  0.1444  0.6747
 2549SOL    HW111689   1.653   2.965   1.569 -1.5635  1.0530  0.6117
 2549SOL    HW211690   1.745   3.071   1.512  0.3355 -0.3799  0.9039
 2550SOL     OW11691   2.760   2.359   7.451  0.1947  0.1502  0.4015
 2550SOL    HW111692   2.739   2.325   7.364  1.0088  1.5558 -0.3648
 2550SOL    HW211693   2.674   2.372   7.493 -0.2397  0.4697 -0.5732
 2551SOL     OW11694   1.598   9.794   8.967  0.6039  0.1465 -0.6239
 2551SOL    HW111695   1.625   9.726   8.905  1.0583 -0.1715 -0.0842
 2551SOL    HW211696   1.621   9.759   9.053 -0.9646  0.1339 -0.1801
 2552SOL     OW11697   5.106   5.846   1.313 -0.2459 -0.3696  0.2608
 2552SOL    HW111698   5.184   5.871   1.363 -0.1345 -0.5565  0.1781
 2552SOL    HW211699   5.040   5.911   1.338 -0.8595 -1.7073  2.2990
 2553SOL     OW11700   9.832   6.600   9.293 -0.1932  0.0760 -0.0523
 2553SOL    HW111701   9.819   6.630   9.383  3.9690 -1.2575  1.2282
 2553SOL    HW211702   9.887   6.666   9.252  1.9288 -1.5066  0.0522
 2554SOL     OW11703   2.198   4.769   9.306 -0.2090 -0.0630  0.2916
 2554SOL    HW111704   2.143   4.828   9.356  0.2697 -1.0542  2.0792
 2554SOL    HW211705   2.232   4.707   9.371  2.2934 -0.0176 -0.8572
 2555SOL     OW11706   8.625   9.222   2.108  0.1932  0.7942 -0.0983
 2555SOL    HW111707   8.622   9.262   2.021 -0.3316  1.9969  0.4479
 2555SOL    HW211708   8.653   9.132   2.092  1.1734  1.3038 -1.3919
 2556SOL     OW11709   9.530   0.364   4.432  0.2893  0.2408 -0.6620
 2556SOL    HW111710   9.603   0.412   4.393 -0.5568  1.9130 -0.3218
 2556SOL    HW211711   9.492   0.426   4.495 -1.1999 -0.6978 -0.5834
 2557SOL     OW11712   1.190   1.792   5.223  0.3964 -0.7171  0.2312
 2557SOL    HW111713   1.268   1.774   5.275  1.1710 -0.3064 -0.7574
 2557SOL    HW211714   1.134   1.716   5.237  1.7561 -1.8883 -0.4711
 2558SOL     OW11715   6.901   2.304   2.380  0.2505  0.7307  0.4827
 2558SOL    HW111716   6.934   2.357   2.453  0.8972  0.9028  0.0735
 2558SOL    HW211717   6.811   2.332   2.368  0.1700  0.7748  1.1486
 2559SOL     OW11718   2.771  10.174   7.055 -0.5655  0.7019 -0.1048
 2559SOL    HW111719   2.684  10.165   7.094 -0.5782  0.7117 -0.1311
 2559SOL    HW211720   2.772  10.261   7.016 -0.1577  1.1406  0.8549
 2560SOL     OW11721   0.884   5.575   0.725  0.3478 -0.1208 -0.5060
 2560SOL    HW111722   0.820   5.529   0.779 -0.2582 -1.3440 -2.1773
 2560SOL    HW211723   0.922   5.641   0.783 -1.9640  0.2318  0.6984
 2561SOL     OW11724   5.967   3.924   9.916  0.1265  0.1315  0.4070
 2561SOL    HW111725   6.049   3.880   9.939  0.0624  0.0330  0.4506
 2561SOL    HW211726   5.899   3.863   9.945  0.0390 -0.5206 -1.0757
 2562SOL     OW11727   1.946   1.899   5.483 -0.1250  0.0401  0.3972
 2562SOL    HW111728   2.036   1.879   5.460 -0.4841 -0.4952 -0.6093
 2562SOL    HW211729   1.919   1.829   5.543  0.5781  1.0297  1.9471
 2563SOL     OW11730   1.610   0.384   1.899 -0.4060  0.3588 -0.6676
 2563SOL    HW111731   1.693   0.411   1.939 -0.8361 -0.0586  0.5440
 2563SOL    HW211732   1.550   0.456   1.920 -0.8282 -0.2092  0.1344
 2564SOL     OW11733   5.041   3.722   6.978 -0.2650  0.0292 -0.0861
 2564SOL    HW111734   5.018   3.640   6.934 -2.5011  0.2647  0.5412
 2564SOL    HW211735   4.998   3.790   6.927 -0.2646  0.5922  0.6469
 2565SOL     OW11736   1.917   7.713   6.105  0.0658 -0.6343 -0.1306
 2565SOL    HW111737   1.987   7.650   6.088 -0.7060 -1.5553  0.0192
 2565SOL    HW211738   1.927   7.735   6.198  2.0174  1.5963 -0.7807
 2566SOL     OW11739   9.214   8.295   7.081 -0.2685 -0.8063  0.2113
 2566SOL    HW111740   9.164   8.226   7.125 -1.4851  0.3174  0.6476
 2566SOL    HW211741   9.156   8.371   7.082  0.9020  0.1298 -0.5802
 2567SOL     OW11742   2.391  10.268   1.677  0.1263 -0.9115 -0.2316
 2567SOL    HW111743   2.448  10.336   1.714 -1.4215  1.2694 -1.6078
 2567SOL    HW211744   2.412  10.267   1.584 -1.0733 -1.0598 -0.5183
 2568SOL     OW11745   1.400   8.094   5.562 -0.0411 -0.0402  0.0343
 2568SOL    HW111746   1.306   8.092   5.541 -0.4941  2.0830  1.5250
 2568SOL    HW211747   1.417   8.009   5.602 -2.1561  0.6057  2.6184
 2569SOL     OW11748   1.348   8.800   6.569 -0.3517 -0.2032  0.4752
 2569SOL    HW111749   1.413   8.849   6.620  0.3049  1.7704 -2.0865
 2569SOL    HW211750   1.279   8.778   6.632  1.6103 -0.2515  2.7516
 2570SOL     OW11751   2.602   7.234   0.086 -1.0732 -0.2304  0.7132
 2570SOL    HW111752   2.620   7.182   0.165 -1.7445  0.0843  1.0824
 2570SOL    HW211753   2.508   7.251   0.089 -1.0150  0.2381  0.1211
 2571SOL     OW11754   8.345   7.914   7.296 -0.1434  0.2156 -0.0351
 2571SOL    HW111755   8.321   7.838   7.244  0.0458  0.7295 -0.8977
 2571SOL    HW211756   8.438   7.927   7.278 -0.3279  1.0498 -0.4327
 2572SOL     OW11757   9.626   5.105   7.873  0.1309  0.4277  0.7019
 2572SOL    HW111758   9.616   5.093   7.779  1.0961  0.2850  0.6011
 2572SOL    HW211759   9.592   5.192   7.891 -1.0173  0.0605  0.3962
 2573SOL     OW11760   8.727   4.278   6.912  0.4461 -0.4218 -0.3386
 2573SOL    HW111761   8.700   4.329   6.835  2.0852 -0.5720 -1.0652
 2573SOL    HW211762   8.734   4.343   6.982  2.0131  0.3126 -1.1285
 2574SOL     OW11763   1.781   6.032   7.453  0.1252  0.3297  0.6377
 2574SOL    HW111764   1.712   5.968   7.439  1.7378 -1.7431  1.5661
 2574SOL    HW211765   1.764   6.066   7.541 -2.5793  3.7621 -0.9706
 2575SOL     OW11766   3.133   2.680   2.440 -0.0824  0.5893 -0.0038
 2575SOL    HW111767   3.169   2.688   2.529 -0.3784 -2.1317  0.4388
 2575SOL    HW211768   3.043   2.711   2.448  0.8365  3.6495 -0.2209
 2576SOL     OW11769   2.376   1.341   5.214  0.1069  0.4591 -0.0471
 2576SOL    HW111770   2.377   1.286   5.136  0.0526 -0.8593  0.8648
 2576SOL    HW211771   2.308   1.406   5.196 -0.7030 -0.5208 -0.6437
 2577SOL     OW11772   5.915   0.550   0.150 -0.5302 -0.2001  0.1202
 2577SOL    HW111773   5.888   0.458   0.151 -0.7679 -0.1279  0.6083
 2577SOL    HW211774   5.976   0.558   0.223  0.5274 -0.2664 -0.7262
 2578SOL     OW11775   0.315   9.910   7.818  0.5375  0.1638  0.4256
 2578SOL    HW111776   0.361   9.991   7.796  1.2476 -0.0167  1.2014
 2578SOL    HW211777   0.305   9.865   7.734 -0.5086  1.3663 -0.1286
 2579SOL     OW11778  10.241   3.673   9.483 -0.2668  0.8404 -0.0872
 2579SOL    HW111779  10.247   3.601   9.420  0.8809 -0.0092  0.9262
 2579SOL    HW211780  10.152   3.668   9.516 -0.6046  0.7290 -0.9904
 2580SOL     OW11781   1.602   6.045  10.132  0.0710  0.6219 -0.3024
 2580SOL    HW111782   1.608   5.953  10.104  1.0692  1.0482 -1.5937
 2580SOL    HW211783   1.537   6.044  10.201 -0.3371 -0.9863 -0.6535
 2581SOL     OW11784   3.098   7.125   2.871 -0.0149  0.4021  0.1813
 2581SOL    HW111785   3.160   7.193   2.900  0.5200 -0.4521  1.0815
 2581SOL    HW211786   3.115   7.117   2.777 -0.0209  1.4472  0.0771
 2582SOL     OW11787   7.430   7.991   0.999  0.4670 -0.5844 -0.6395
 2582SOL    HW111788   7.482   7.923   0.958  2.4879  0.2082  0.4368
 2582SOL    HW211789   7.477   8.010   1.081  0.4121  2.5273 -1.2083
 2583SOL     OW11790   8.013   5.966   5.763  0.5360 -0.4239 -0.0159
 2583SOL    HW111791   8.045   5.954   5.853  0.3931  1.1578  0.2844
 2583SOL    HW211792   8.082   6.016   5.719 -0.1803  0.3893 -0.2410
 2584SOL     OW11793   9.252   7.247   4.885 -0.1844  0.7089 -0.2381
 2584SOL    HW111794   9.189   7.178   4.906 -0.5296  1.2359  0.5191
 2584SOL    HW211795   9.238   7.264   4.792 -0.2272 -0.1066 -0.3856
 2585SOL     OW11796   1.650   5.407   3.564  0.4614  0.1561  0.1181
 2585SOL    HW111797   1.575   5.378   3.615 -0.4824  0.4592 -1.0549
 2585SOL    HW211798   1.707   5.449   3.628 -0.9713  1.0728  0.8532
 2586SOL     OW11799   8.875   1.041   3.708 -0.4216 -0.2926 -0.5737
 2586SOL    HW111800   8.853   0.949   3.690 -0.9553 -0.1185 -0.8013
 2586SOL    HW211801   8.807   1.071   3.768  0.9987 -0.6945  1.3628
 2587SOL     OW11802   3.546   2.837   1.974  0.2759 -0.0548 -0.1061
 2587SOL    HW111803   3.595   2.756   1.963  1.6835  0.7612 -0.1921
 2587SOL    HW211804   3.599   2.889   2.035 -0.0676  1.1748 -0.8085
 2588SOL     OW11805   5.130   1.481   4.074  0.5726  0.1526 -0.1339
 2588SOL    HW111806   5.188   1.484   4.149 -0.6169  0.2397  0.8180
 2588SOL    HW211807   5.076   1.403   4.088 -0.2876  0.6781 -0.3964
 2589SOL     OW11808   7.901   5.566   7.563 -0.1237 -0.5585 -0.2741
 2589SOL    HW111809   7.827   5.548   7.620  0.2538 -0.5533  0.2270
 2589SOL    HW211810   7.923   5.481   7.525 -0.4088 -0.5528 -0.4537
 2590SOL     OW11811   5.666   2.359   5.422  0.2672  0.0806 -0.1085
 2590SOL    HW111812   5.753   2.385   5.392  0.5989 -1.4507 -0.5536
 2590SOL    HW211813   5.675   2.353   5.518  0.3426  0.9432 -0.0514
 2591SOL     OW11814   9.594   4.513   6.418  0.1458  0.0338  0.3026
 2591SOL    HW111815   9.618   4.572   6.489 -0.5391  0.2929  0.3290
 2591SOL    HW211816   9.514   4.469   6.450 -0.3492  0.3890 -0.4345
 2592SOL     OW11817   0.758   7.642   6.590  0.2869  0.3960  0.5805
 2592SOL    HW111818   0.698   7.588   6.539  1.4845 -2.9192  2.3412
 2592SOL    HW211819   0.713   7.726   6.600 -1.3505  0.1271 -3.0662
 2593SOL     OW11820   3.688   0.196   6.441 -0.1326 -0.8906 -0.2775
 2593SOL    HW111821   3.635   0.137   6.494 -0.2497 -2.2519 -1.8199
 2593SOL    HW211822   3.778   0.169   6.457 -0.1349 -0.9207 -0.3131
 2594SOL     OW11823   7.273   3.372   9.060  0.1793  0.4322  0.0348
 2594SOL    HW111824   7.339   3.441   9.071  1.2783 -0.3886 -1.0990
 2594SOL    HW211825   7.323   3.296   9.031 -1.1270 -0.5950  0.3891
 2595SOL     OW11826   7.032   6.430   3.163 -0.6774 -0.3286 -0.9529
 2595SOL    HW111827   6.976   6.373   3.217  0.4973 -0.8542 -0.2512
 2595SOL    HW211828   7.023   6.517   3.203 -1.4393 -0.2787 -1.2127
 2596SOL     OW11829   0.143   1.417   3.787  0.5969 -0.0451 -0.1386
 2596SOL    HW111830   0.088   1.372   3.851  0.7560 -0.2923 -0.1718
 2596SOL    HW211831   0.090   1.422   3.708 -0.2980  1.8873  0.5253
 2597SOL     OW11832   8.432   3.996   1.320 -0.4767 -0.6764  0.3051
 2597SOL    HW111833   8.494   3.979   1.391  0.3262 -0.8144 -0.4016
 2597SOL    HW211834   8.472   4.068   1.271 -0.8543 -0.7985 -0.1899
 2598SOL     OW11835  10.207   9.913   4.585 -0.1693  0.2793  0.4687
 2598SOL    HW111836  10.212  10.006   4.563  0.4124  0.7604  2.4258
 2598SOL    HW211837  10.114   9.898   4.602 -0.3903  0.2742 -0.6717
 2599SOL     OW11838   0.710   1.859   4.043 -0.0192 -0.0518 -0.7448
 2599SOL    HW111839   0.623   1.859   4.085  0.2296 -0.1438 -0.2280
 2599SOL    HW211840   0.705   1.931   3.980 -0.5604 -0.2204 -0.9009
 2600SOL     OW11841   5.655   0.442   2.177  0.6682  0.6200  0.3944
 2600SOL    HW111842   5.749   0.422   2.168  0.6939 -0.2382  2.0643
 2600SOL    HW211843   5.617   0.360   2.210 -0.7437  0.8651 -0.5381
 2601SOL     OW11844   1.730   0.760   5.099  0.2653 -0.5686 -0.7891
 2601SOL    HW111845   1.769   0.821   5.161  0.3535 -0.6975 -0.7194
 2601SOL    HW211846   1.737   0.805   5.014 -0.6588 -0.0041 -0.5839
 2602SOL     OW11847   0.010   1.495   6.232  0.7717 -0.5395  0.2038
 2602SOL    HW111848   0.050   1.408   6.229 -0.1656 -0.9840 -3.2992
 2602SOL    HW211849  -0.065   1.485   6.290  1.5680 -1.5871  1.1045
 2603SOL     OW11850   1.462   7.555   3.423 -0.1565 -0.1378 -0.1142
 2603SOL    HW111851   1.451   7.524   3.513 -0.2302 -0.0643 -0.0980
 2603SOL    HW211852   1.516   7.634   3.432  1.9412 -1.4643 -0.3379
 2604SOL     OW11853   0.103   5.333   1.662 -0.9352  0.1993 -0.1636
 2604SOL    HW111854   0.109   5.240   1.640 -0.1101  0.4664 -1.1572
 2604SOL    HW211855   0.178   5.373   1.617 -0.5027  1.1503  1.3426
 2605SOL     OW11856   1.634   5.601   8.286 -0.3901 -0.5292 -0.1924
 2605SOL    HW111857   1.659   5.516   8.250 -1.4542 -0.4467 -1.1909
 2605SOL    HW211858   1.542   5.591   8.310 -1.1148  0.8791 -2.1465
 2606SOL     OW11859   1.401   9.699   8.309  0.0157 -0.1358 -0.3270
 2606SOL    HW111860   1.472   9.693   8.245 -1.3580 -1.5415 -1.8348
 2606SOL    HW211861   1.385   9.609   8.336 -0.1903  0.3252  1.1693
 2607SOL     OW11862   6.939   5.083   7.357  0.1053 -0.0505  0.0366
 2607SOL    HW111863   6.947   5.011   7.420 -0.2078 -0.0149  0.1202
 2607SOL    HW211864   6.850   5.075   7.323 -0.5348  1.2960  1.2918
 2608SOL     OW11865   0.186   8.057   5.781 -0.0039  0.1174 -0.6448
 2608SOL    HW111866   0.239   8.009   5.718  0.7411 -0.6426  0.5222
 2608SOL    HW211867   0.196   8.149   5.757  1.0141 -0.1041 -1.0672
 2609SOL     OW11868   2.458   0.702   6.928  0.2536  0.0764 -0.0847
 2609SOL    HW111869   2.371   0.729   6.959 -0.4291  1.5864 -2.9950
 2609SOL    HW211870   2.440   0.629   6.868  1.3753 -1.6478  1.5321
 2610SOL     OW11871   1.786   9.099   4.082 -0.0287  0.2533  0.0672
 2610SOL    HW111872   1.837   9.164   4.034 -0.2458 -0.3543 -1.0234
 2610SOL    HW211873   1.708   9.085   4.028  0.0261 -0.9181  0.2614
 2611SOL     OW11874   5.092   7.438   2.465 -0.6906  0.0378 -0.0397
 2611SOL    HW111875   5.093   7.420   2.559  1.4731 -0.5664 -0.1235
 2611SOL    HW211876   5.080   7.532   2.458 -0.3088  0.1613  0.8871
 2612SOL     OW11877   7.778   3.761   8.842 -0.3050 -0.1085  0.2368
 2612SOL    HW111878   7.806   3.850   8.863 -2.5318  0.6301  0.3519
 2612SOL    HW211879   7.772   3.717   8.927 -1.7487  0.4832  0.4724
 2613SOL     OW11880   6.676   9.713   6.879 -0.1554  0.6001  0.7025
 2613SOL    HW111881   6.581   9.722   6.868 -0.0433  0.8531 -0.1347
 2613SOL    HW211882   6.686   9.656   6.955 -1.0234 -1.0905 -0.3901
 2614SOL     OW11883   1.328  10.065   1.575  0.1071 -0.0400 -0.3648
 2614SOL    HW111884   1.315   9.976   1.608 -0.9881 -0.1789 -1.1176
 2614SOL    HW211885   1.381  10.108   1.643  0.5497 -1.2140  0.0684
 2615SOL     OW11886   7.625   8.320   5.191 -0.4166  0.2259 -0.0046
 2615SOL    HW111887   7.650   8.231   5.215  0.3847  0.6110  0.6567
 2615SOL    HW211888   7.606   8.363   5.275  0.9409  1.1700 -0.1463
 2616SOL     OW11889   6.349   7.388   7.131 -0.4075  1.0131  0.4680
 2616SOL    HW111890   6.355   7.450   7.203 -0.6134  1.9850 -0.3297
 2616SOL    HW211891   6.434   7.393   7.088 -1.8760  4.4239 -2.4964
 2617SOL     OW11892   8.463   0.658   8.542 -0.4050  0.0014  0.4766
 2617SOL    HW111893   8.509   0.575   8.557 -0.5155 -0.4097 -1.2257
 2617SOL    HW211894   8.531   0.717   8.508 -0.7938 -0.1420 -0.5882
 2618SOL     OW11895   2.608   6.261   0.892  0.7477 -0.4481 -0.1725
 2618SOL    HW111896   2.690   6.215   0.875  1.4563  0.4667  0.6435
 2618SOL    HW211897   2.577   6.288   0.806  1.6307 -0.2732 -0.4438
 2619SOL     OW11898  10.084   0.953   0.920  0.1847 -0.2082 -0.6324
 2619SOL    HW111899  10.124   0.920   0.840 -1.1657 -2.5652 -0.4252
 2619SOL    HW211900  10.014   1.011   0.890 -0.5090 -1.3128 -1.1974
 2620SOL     OW11901   7.247   9.235   1.606 -0.4149  0.0479  0.2407
 2620SOL    HW111902   7.165   9.282   1.620 -0.2054  0.0781  1.5529
 2620SOL    HW211903   7.315   9.300   1.625 -0.1114 -0.4127  0.7577
 2621SOL     OW11904   0.611   5.479   6.102 -0.7700 -0.2444 -0.0932
 2621SOL    HW111905   0.642   5.406   6.155  0.8638  0.9262  0.6561
 2621SOL    HW211906   0.524   5.499   6.136 -0.7351 -1.0425  0.4963
 2622SOL     OW11907   6.791   8.917   9.299  0.1845 -0.2821 -0.0126
 2622SOL    HW111908   6.834   8.894   9.217 -0.7145 -1.2633 -0.2272
 2622SOL    HW211909   6.707   8.871   9.296 -0.2280  0.3568  1.0769
 2623SOL     OW11910   1.436   4.269   6.461 -0.2848 -0.1509  0.7688
 2623SOL    HW111911   1.366   4.220   6.504 -0.5885 -1.8299 -1.4706
 2623SOL    HW211912   1.472   4.208   6.397  3.6855  0.4521  2.1733
 2624SOL     OW11913   2.178   2.845   0.651 -0.1146  0.6724  0.1614
 2624SOL    HW111914   2.173   2.768   0.708 -0.4148  0.4642 -0.1367
 2624SOL    HW211915   2.106   2.832   0.589 -1.1164  1.9186  1.0085
 2625SOL     OW11916   5.021   1.130   8.946  0.5135  0.0715  0.0754
 2625SOL    HW111917   5.103   1.145   8.897  0.6145 -1.4912 -0.2822
 2625SOL    HW211918   5.039   1.165   9.033  2.2996 -1.9401  0.5951
 2626SOL     OW11919   7.417   4.498   3.831  0.6200 -0.0011 -0.5893
 2626SOL    HW111920   7.378   4.569   3.780  0.8660  3.0192  2.9764
 2626SOL    HW211921   7.511   4.512   3.824  0.6557  0.5875  0.7114
 2627SOL     OW11922   1.243   2.930   4.191 -0.7659 -0.2317  0.3695
 2627SOL    HW111923   1.259   2.944   4.097 -0.6352 -0.2849  0.3841
 2627SOL    HW211924   1.327   2.947   4.232 -0.9445  0.2898  0.5317
 2628SOL     OW11925   0.321   5.126   1.087  0.0143 -0.6691  0.1424
 2628SOL    HW111926   0.301   5.098   0.997  2.0114  0.4334 -0.7161
 2628SOL    HW211927   0.310   5.221   1.086 -0.0614 -0.6571  1.1013
 2629SOL     OW11928   2.081   1.212   6.748  0.3296  0.1232  0.0433
 2629SOL    HW111929   2.030   1.244   6.674  1.4194 -0.9799 -1.2532
 2629SOL    HW211930   2.034   1.135   6.779  0.5491 -0.2021 -0.4007
 2630SOL     OW11931  10.198   4.780   6.648 -0.4015 -0.8915 -0.2953
 2630SOL    HW111932  10.175   4.696   6.688  0.3632  0.6138  3.8271
 2630SOL    HW211933  10.124   4.837   6.668  0.9871  0.5185  1.2570
 2631SOL     OW11934   1.853   3.876   6.898 -0.2019 -0.0185  0.7379
 2631SOL    HW111935   1.901   3.957   6.882  0.0476 -0.4528 -0.9100
 2631SOL    HW211936   1.763   3.905   6.913 -0.2064  0.5679 -0.2754
 2632SOL     OW11937   9.244   7.970   6.083  0.1313 -0.2503  0.1800
 2632SOL    HW111938   9.277   8.057   6.107 -0.9291  0.9827 -2.4634
 2632SOL    HW211939   9.322   7.915   6.081  1.0973  1.0509  0.2737
 2633SOL     OW11940   5.749   0.899   2.892  0.6537 -0.1581  0.1301
 2633SOL    HW111941   5.779   0.989   2.901 -0.0910  0.0052  1.1360
 2633SOL    HW211942   5.698   0.899   2.812  0.7707  0.2763  0.0513
 2634SOL     OW11943   5.279   9.761   3.776 -0.2376 -0.2059  0.0081
 2634SOL    HW111944   5.267   9.824   3.847 -1.1624 -1.5175  1.0686
 2634SOL    HW211945   5.357   9.711   3.801 -0.1226 -0.1902 -0.3056
 2635SOL     OW11946   0.839   8.667   4.605 -0.8159 -0.3486 -0.2698
 2635SOL    HW111947   0.833   8.753   4.648 -0.4436 -0.4995  0.0944
 2635SOL    HW211948   0.831   8.604   4.677 -1.3537 -0.6238 -0.5710
 2636SOL     OW11949   9.757   4.947   1.045  0.4386  0.3624  0.2595
 2636SOL    HW111950   9.780   4.956   0.953  2.5462 -1.8436  0.4698
 2636SOL    HW211951   9.829   4.989   1.092  0.3321 -0.1255  0.8815
 2637SOL     OW11952   2.320   6.424   0.900  0.7382  0.1912  0.1984
 2637SOL    HW111953   2.291   6.431   0.809 -2.9770  1.2615  1.2878
 2637SOL    HW211954   2.355   6.335   0.908 -0.7487 -0.6475 -1.8384
 2638SOL     OW11955   9.494   5.462   7.474 -0.0312  0.1903  0.5064
 2638SOL    HW111956   9.415   5.419   7.508 -0.7705  0.4383 -0.8425
 2638SOL    HW211957   9.480   5.466   7.380  1.2660  0.9330  0.3334
 2639SOL     OW11958   8.014   2.912   6.923 -0.0989 -0.0594  0.3964
 2639SOL    HW111959   7.977   2.882   6.839 -1.0404 -0.1291  0.8253
 2639SOL    HW211960   7.937   2.935   6.976  0.5325  1.8617  0.5534
 2640SOL     OW11961   3.449   2.778   0.864  0.4412  0.8406  0.3224
 2640SOL    HW111962   3.535   2.763   0.903  0.5871 -0.7332 -0.5277
 2640SOL    HW211963   3.451   2.870   0.836  2.2967  0.5270 -0.7237
 2641SOL     OW11964   1.174   0.040   6.656  0.1128 -0.3123 -0.1267
 2641SOL    HW111965   1.114   0.081   6.717 -0.1219 -1.3996  0.3964
 2641SOL    HW211966   1.254   0.025   6.707  0.3241 -0.1890 -0.4145
 2642SOL     OW11967   4.048   4.912   9.781  0.3036 -0.3025 -0.3564
 2642SOL    HW111968   4.087   4.879   9.861  0.2539 -0.6664 -0.4801
 2642SOL    HW211969   3.956   4.887   9.787  0.2299 -0.0327 -0.3701
 2643SOL     OW11970   6.893   1.740   9.595  0.1531  0.3696 -0.0978
 2643SOL    HW111971   6.895   1.669   9.659  1.8957  1.6532  1.3563
 2643SOL    HW211972   6.982   1.744   9.560 -0.5311  0.3117 -1.9629
 2644SOL     OW11973   6.868   1.059   1.109  0.8553 -0.1751 -0.1344
 2644SOL    HW111974   6.890   1.091   1.196 -0.1513 -0.3324  0.1908
 2644SOL    HW211975   6.875   1.137   1.053  1.5562 -0.0852  0.0701
 2645SOL     OW11976   7.589   1.282   1.309  0.5962 -0.3004 -0.7497
 2645SOL    HW111977   7.681   1.272   1.286  0.7268  0.0656 -0.3984
 2645SOL    HW211978   7.559   1.357   1.257  0.6653 -0.0142 -0.3750
 2646SOL     OW11979   7.103   2.609   0.156 -0.4566  0.2019 -0.2587
 2646SOL    HW111980   7.081   2.627   0.247  1.4107 -0.0104  0.2828
 2646SOL    HW211981   7.044   2.664   0.105 -1.3086  0.5721  1.0742
 2647SOL     OW11982   2.493   8.683   8.132 -0.4951  0.2675  0.6850
 2647SOL    HW111983   2.559   8.723   8.076 -0.7665  1.2219  1.0294
 2647SOL    HW211984   2.479   8.596   8.094  0.3981  0.3401  0.1606
 2648SOL     OW11985   3.682   7.959   1.464 -0.6126 -0.1605  0.3850
 2648SOL    HW111986   3.591   7.987   1.463 -0.4092  0.6522 -2.3781
 2648SOL    HW211987   3.730   8.036   1.494 -0.7721 -0.5954  1.8610
 2649SOL     OW11988   3.218   2.304   0.211 -0.3661 -0.1598 -0.4801
 2649SOL    HW111989   3.188   2.259   0.132  0.3781 -1.2363 -0.1734
 2649SOL    HW211990   3.226   2.235   0.277  0.1933  0.5297  0.1999
 2650SOL     OW11991   2.384   5.384   2.467  0.6995 -0.1129 -0.1732
 2650SOL    HW111992   2.318   5.451   2.450 -0.1981 -1.3225 -1.7016
 2650SOL    HW211993   2.467   5.431   2.468  0.2071  0.9099 -2.3204
 2651SOL     OW11994   7.596   9.897   6.311  0.0735  0.3077 -0.1265
 2651SOL    HW111995   7.669   9.837   6.298 -0.2745  0.2453 -2.1691
 2651SOL    HW211996   7.540   9.853   6.375  0.4178 -0.9989 -0.6838
 2652SOL     OW11997   0.489   5.829   2.850  0.1805  0.4794  0.5909
 2652SOL    HW111998   0.565   5.806   2.797 -0.6526 -0.6327 -0.1829
 2652SOL    HW211999   0.523   5.887   2.918  2.0269 -1.3258  1.3026
 2653SOL     OW12000   8.252   5.313   5.720  0.7627 -0.2217  0.1727
 2653SOL    HW112001   8.334   5.335   5.676 -0.2254 -0.4933 -1.9172
 2653SOL    HW212002   8.274   5.312   5.813  2.7052  1.4494 -0.2105
 2654SOL     OW12003   1.986   2.706  10.069 -0.1608  0.0839  0.5054
 2654SOL    HW112004   1.907   2.666  10.106 -0.5702 -1.1104 -1.4760
 2654SOL    HW212005   1.955   2.786  10.028 -0.4341 -0.5257 -0.5157
 2655SOL     OW12006   8.460   2.922   7.269  0.0484  0.4989  0.1483
 2655SOL    HW112007   8.505   2.981   7.331  1.3920 -0.6631  0.3221
 2655SOL    HW212008   8.531   2.884   7.217 -0.9446  0.2217 -1.0272
 2656SOL     OW12009   8.589   3.848   5.448  0.0518  0.4636 -0.0711
 2656SOL    HW112010   8.506   3.886   5.417  0.0438  0.0506 -0.5595
 2656SOL    HW212011   8.653   3.918   5.436  0.1959  0.0765 -1.7168
 2657SOL     OW12012   5.274   8.584   4.253 -0.1591 -0.0211  0.4859
 2657SOL    HW112013   5.361   8.598   4.293  0.6568 -0.1706 -1.1528
 2657SOL    HW212014   5.259   8.490   4.262  0.5839 -0.2577 -0.6224
 2658SOL     OW12015   5.884   5.287   0.428 -0.2535 -0.0879  0.7798
 2658SOL    HW112016   5.908   5.245   0.345  0.0409  0.4869  0.5693
 2658SOL    HW212017   5.883   5.216   0.491 -2.1979 -0.8594 -0.0477
 2659SOL     OW12018   7.566   5.335   8.217  0.4751  0.1977 -0.4486
 2659SOL    HW112019   7.519   5.287   8.284 -1.4445  1.6473 -0.6756
 2659SOL    HW212020   7.636   5.381   8.264  0.7812 -0.8112  0.1158
 2660SOL     OW12021   4.488   1.767   4.920  0.1302 -0.4225  0.1077
 2660SOL    HW112022   4.409   1.810   4.887  0.7089 -1.0913 -2.3380
 2660SOL    HW212023   4.550   1.772   4.847  2.4134  0.1646  1.9758
 2661SOL     OW12024   6.400   0.344   1.706 -0.0408  0.4213 -0.2328
 2661SOL    HW112025   6.424   0.429   1.669 -0.0629  0.4258 -0.2373
 2661SOL    HW212026   6.401   0.284   1.632  0.1763  0.3755 -0.1925
 2662SOL     OW12027   6.964   4.899   8.576  0.1700  0.5361  0.8715
 2662SOL    HW112028   6.984   4.936   8.662  0.0114 -1.0919  1.6447
 2662SOL    HW212029   7.048   4.864   8.544  0.1162  0.6279  0.6257
 2663SOL     OW12030   0.114   9.926   2.675  0.1106 -0.0418 -0.1582
 2663SOL    HW112031   0.148   9.951   2.590  0.5294  0.1669  0.0667
 2663SOL    HW212032   0.027   9.965   2.679 -0.6746 -1.5767 -1.2222
 2664SOL     OW12033   3.666   5.159   8.010  0.1026 -0.1775  0.3006
 2664SOL    HW112034   3.573   5.165   8.033  0.2346  0.3757  0.7180
 2664SOL    HW212035   3.698   5.248   8.021  0.4072 -0.1022 -1.0603
 2665SOL     OW12036   5.719   5.725   7.936 -0.0847 -0.0463  0.4984
 2665SOL    HW112037   5.765   5.802   7.901  1.5198 -1.5480 -0.9203
 2665SOL    HW212038   5.726   5.733   8.031  1.2124  0.9085  0.3456
 2666SOL     OW12039   5.144   3.540   8.638  0.1542 -0.3400  0.6561
 2666SOL    HW112040   5.135   3.635   8.645  0.5579 -0.3343  1.1375
 2666SOL    HW212041   5.140   3.509   8.729 -2.1798 -0.9940  0.4150
 2667SOL     OW12042   8.520   7.031   6.066  0.3480  0.2889 -0.6844
 2667SOL    HW112043   8.481   7.101   6.013 -0.8551  0.9185  0.9181
 2667SOL    HW212044   8.546   7.075   6.147 -2.2132 -1.3411  1.1981
 2668SOL     OW12045   4.424   0.765   0.279 -0.0850  0.0168 -0.2917
 2668SOL    HW112046   4.387   0.699   0.221  1.8016 -2.1235  0.7720
 2668SOL    HW212047   4.398   0.738   0.367  2.3460 -0.5344  0.3281
 2669SOL     OW12048   1.670   9.087   5.595 -0.7904  0.5711  0.4110
 2669SOL    HW112049   1.720   9.006   5.589 -1.2677  0.1095  2.0611
 2669SOL    HW212050   1.666   9.120   5.505  0.3206 -0.6723 -0.1240
 2670SOL     OW12051   2.628   9.934   0.615 -0.0926  0.4287  0.0486
 2670SOL    HW112052   2.655   9.878   0.688 -2.3089  0.5436  1.0686
 2670SOL    HW212053   2.606   9.873   0.545 -1.3148  0.0415  0.7311
 2671SOL     OW12054   6.984   6.199   4.020 -0.2690 -0.3663 -0.2610
 2671SOL    HW112055   7.034   6.254   4.080  1.2946 -0.5089 -1.3531
 2671SOL    HW212056   6.939   6.261   3.962  1.3017 -0.1679 -1.3401
 2672SOL     OW12057   5.701   4.629   0.644  0.0234  0.2508 -0.3839
 2672SOL    HW112058   5.674   4.538   0.637  1.5966 -0.3773  1.0294
 2672SOL    HW212059   5.775   4.637   0.584  0.4842  0.3304  0.1823
 2673SOL     OW12060   2.733   2.541   3.187 -0.0169  0.2484  0.9553
 2673SOL    HW112061   2.803   2.536   3.122  0.1436 -1.6863  1.2005
 2673SOL    HW212062   2.675   2.469   3.164 -1.1363  0.9049  1.6569
 2674SOL     OW12063   5.518   6.487   6.293 -0.2873 -0.2626 -0.1657
 2674SOL    HW112064   5.584   6.555   6.308  1.7139 -1.6138 -2.0485
 2674SOL    HW212065   5.556   6.408   6.333 -0.7123 -1.0939 -1.3483
 2675SOL     OW12066   4.938   4.488   7.331  0.0737 -0.2082 -0.4778
 2675SOL    HW112067   4.858   4.514   7.377  0.6091 -0.7068  0.7724
 2675SOL    HW212068   4.945   4.394   7.345  1.0824 -0.1102 -0.2495
 2676SOL     OW12069   8.090   8.953   4.872 -0.1813  0.0545  0.0651
 2676SOL    HW112070   8.012   8.968   4.925 -0.1748 -0.9642  0.3996
 2676SOL    HW212071   8.085   8.860   4.849  1.3465 -0.2411  0.7956
 2677SOL     OW12072   0.249   3.268   4.232  0.3251 -0.1856 -0.6428
 2677SOL    HW112073   0.203   3.351   4.237 -0.2139 -0.3680 -1.9734
 2677SOL    HW212074   0.202   3.210   4.292  1.1227  0.6258  0.8140
 2678SOL     OW12075   0.192   7.102   9.838 -0.6612  0.1066  0.1361
 2678SOL    HW112076   0.213   7.180   9.786 -1.1584  0.7037  0.8105
 2678SOL    HW212077   0.277   7.062   9.855 -0.1753  1.5520  1.3842
 2679SOL     OW12078   4.089   5.250   6.374  0.2397 -0.0439  0.2185
 2679SOL    HW112079   4.090   5.295   6.458  3.5645 -0.8676  0.7374
 2679SOL    HW212080   4.016   5.189   6.381  0.4398 -0.1045  2.5266
 2680SOL     OW12081   1.138   4.170   6.805 -0.0801  0.4148  0.2292
 2680SOL    HW112082   1.172   4.191   6.718  0.5026 -0.8546  0.1252
 2680SOL    HW212083   1.192   4.222   6.865 -0.1968  0.9637 -0.1299
 2681SOL     OW12084   5.232   6.180   1.538 -0.2650  0.2951  0.3767
 2681SOL    HW112085   5.289   6.206   1.611  0.9805 -0.1582 -0.4089
 2681SOL    HW212086   5.277   6.106   1.498 -0.6101  0.9307 -1.2478
 2682SOL     OW12087   7.881   7.823   5.464  0.1677  0.1840  0.1278
 2682SOL    HW112088   7.818   7.881   5.507 -0.8133  0.5717 -1.7160
 2682SOL    HW212089   7.888   7.858   5.375  0.4342 -1.8465 -0.6944
 2683SOL     OW12090   1.906   2.767   9.340 -0.0479 -0.3322 -0.4601
 2683SOL    HW112091   1.895   2.678   9.307 -1.3478 -0.2069 -0.4163
 2683SOL    HW212092   1.995   2.791   9.316  0.0384 -1.3394 -1.2016
 2684SOL     OW12093   3.121   9.885   6.203  0.2770  0.8372  0.0930
 2684SOL    HW112094   3.131   9.942   6.280  1.4800  0.7689  0.0078
 2684SOL    HW212095   3.058   9.819   6.231 -1.2496  2.2494  0.1587
 2685SOL     OW12096   5.509   7.717   1.210 -0.1154 -0.1535  0.7028
 2685SOL    HW112097   5.425   7.702   1.254 -2.7701 -1.3628 -4.0913
 2685SOL    HW212098   5.504   7.808   1.181 -0.3837 -0.5421 -0.5426
 2686SOL     OW12099   3.262   4.170   0.485  0.1133  0.0883  0.2231
 2686SOL    HW112100   3.275   4.227   0.409  1.4391 -0.2195  0.1965
 2686SOL    HW212101   3.280   4.082   0.453 -1.1386 -0.2733  0.4626
 2687SOL     OW12102   3.204   7.327   7.700  0.2868  0.1128 -0.2797
 2687SOL    HW112103   3.167   7.302   7.615  1.3900 -0.5028 -0.6040
 2687SOL    HW212104   3.288   7.281   7.704  0.4195  0.4212  0.9956
 2688SOL     OW12105   0.139   7.856   0.715 -0.2104 -0.1299  0.6548
 2688SOL    HW112106   0.216   7.912   0.711 -1.6340  1.8938 -0.2222
 2688SOL    HW212107   0.116   7.853   0.808  1.5977 -1.8294  1.1042
 2689SOL     OW12108   6.372   6.706   3.672 -0.1891  0.1321 -0.5544
 2689SOL    HW112109   6.296   6.698   3.614  0.3809 -1.5792 -1.1608
 2689SOL    HW212110   6.340   6.679   3.758 -0.6833  1.2144 -0.3848
 2690SOL     OW12111   1.473   7.430   2.582 -0.3780 -0.0338  0.1103
 2690SOL    HW112112   1.432   7.479   2.653 -1.1021 -2.4084  1.4325
 2690SOL    HW212113   1.403   7.414   2.519 -1.2040 -2.5446  1.5199
 2691SOL     OW12114   8.219   1.470   4.640 -0.4898  0.4651 -0.1990
 2691SOL    HW112115   8.194   1.401   4.578  1.2720 -1.1003  0.7240
 2691SOL    HW212116   8.285   1.521   4.593  0.4110 -0.3636  0.1088
 2692SOL     OW12117   8.968   7.756   8.011  0.4525  0.6338  0.4811
 2692SOL    HW112118   8.894   7.719   8.060 -0.3578  2.5878  0.8334
 2692SOL    HW212119   8.934   7.839   7.977  1.8367  0.5380 -1.2116
 2693SOL     OW12120   4.316   3.642   8.571 -0.5600 -0.2345 -0.2963
 2693SOL    HW112121   4.337   3.722   8.619 -1.9052  0.6336 -1.0797
 2693SOL    HW212122   4.242   3.604   8.619 -2.0925  0.7819 -1.7252
 2694SOL     OW12123   1.742   3.930   9.297  0.3756 -0.1213  0.0765
 2694SOL    HW112124   1.754   3.920   9.202 -2.0535  1.1645 -0.4464
 2694SOL    HW212125   1.650   3.907   9.312  0.9038 -1.0222  2.2753
 2695SOL     OW12126   6.264   4.022   5.813 -0.0767  0.4880  0.0748
 2695SOL    HW112127   6.221   3.994   5.894 -0.2423 -0.0750 -0.2020
 2695SOL    HW212128   6.215   4.100   5.785 -0.2777  0.4413  0.2983
 2696SOL     OW12129   4.143   9.057   3.769  0.1587  0.3922 -0.0081
 2696SOL    HW112130   4.210   8.994   3.745 -0.8272 -0.3503 -0.9322
 2696SOL    HW212131   4.133   9.048   3.864  0.0691 -0.8113 -0.1254
 2697SOL     OW12132   2.815   8.343   9.190 -0.7194 -0.3003  0.2798
 2697SOL    HW112133   2.830   8.251   9.168 -2.1281 -0.8700  1.5310
 2697SOL    HW212134   2.775   8.381   9.112 -1.1697 -1.0383  0.1465
 2698SOL     OW12135   0.628   5.513   4.835 -0.3901  0.1193  0.2567
 2698SOL    HW112136   0.625   5.418   4.824  2.9214 -0.0749  0.2156
 2698SOL    HW212137   0.619   5.527   4.929  2.1053 -0.5309  0.6522
 2699SOL     OW12138   9.073   4.765   5.870  0.2263 -0.0986  0.8156
 2699SOL    HW112139   9.148   4.778   5.928 -0.0696  1.4404  0.9054
 2699SOL    HW212140   9.070   4.671   5.853  2.5032 -0.1312  0.3700
 2700SOL     OW12141   0.331  10.286   5.819 -0.8470  0.5558 -0.1867
 2700SOL    HW112142   0.283  10.218   5.866  0.1486  0.5836  0.9149
 2700SOL    HW212143   0.381  10.238   5.753 -1.1900  0.3702 -0.3171
 2701SOL     OW12144   4.826   6.807   5.163  0.0225  0.2060  0.1929
 2701SOL    HW112145   4.764   6.817   5.235  1.8094  0.5886  1.7764
 2701SOL    HW212146   4.840   6.713   5.155  0.2135  0.1829  0.7405
 2702SOL     OW12147   7.141   9.156   0.796 -0.0452 -0.4619  0.2875
 2702SOL    HW112148   7.164   9.103   0.720  0.9025  0.5705 -0.1655
 2702SOL    HW212149   7.222   9.200   0.821 -0.4814 -0.3094  1.5300
 2703SOL     OW12150   6.753   0.921   6.041 -0.3464 -0.1570 -0.4247
 2703SOL    HW112151   6.777   0.948   6.129  0.4550 -0.5579 -0.5174
 2703SOL    HW212152   6.833   0.885   6.003 -0.3369  1.1754 -1.7709
 2704SOL     OW12153   1.210   3.622   3.780  0.1861  0.3840 -0.0090
 2704SOL    HW112154   1.304   3.636   3.782  0.7278 -2.7857  0.5705
 2704SOL    HW212155   1.194   3.567   3.704 -1.4861  2.1197 -1.0233
 2705SOL     OW12156   0.641   5.048   3.035 -0.0441 -0.3962  0.2938
 2705SOL    HW112157   0.584   5.022   3.107  1.5284 -1.9177  1.0679
 2705SOL    HW212158   0.719   5.083   3.077  0.2900  0.0951 -0.7005
 2706SOL     OW12159   1.914   0.366   7.841  0.1521  0.4845 -0.0016
 2706SOL    HW112160   1.862   0.298   7.798  0.4339  0.7145 -0.7254
 2706SOL    HW212161   1.941   0.327   7.924 -0.4836  0.0643  0.0169
 2707SOL     OW12162   3.524   8.452   8.243 -0.4792  0.4459  0.1742
 2707SOL    HW112163   3.533   8.383   8.309  1.7037 -0.6503 -1.1347
 2707SOL    HW212164   3.506   8.531   8.293 -1.5583 -0.7835  1.8461
 2708SOL     OW12165   7.938   2.441   5.262  0.3811 -0.1746 -0.0525
 2708SOL    HW112166   7.906   2.463   5.174 -1.4994  1.3185  0.9349
 2708SOL    HW212167   8.001   2.509   5.283 -1.3427  1.2282  0.8364
 2709SOL     OW12168   6.752   4.212   9.922 -0.4943  0.4767  0.0775
 2709SOL    HW112169   6.798   4.222   9.839 -1.9789 -0.8631 -0.9443
 2709SOL    HW212170   6.794   4.276   9.980  0.3477  1.6939 -1.7828
 2710SOL     OW12171   0.489   9.124   7.236 -0.4653 -0.1176 -0.0867
 2710SOL    HW112172   0.523   9.034   7.243  0.2698  0.2551  2.1456
 2710SOL    HW212173   0.467   9.134   7.144  2.7264 -1.4522 -1.1713
 2711SOL     OW12174   9.675   3.272   9.197  0.3056 -0.0471 -0.3898
 2711SOL    HW112175   9.682   3.294   9.104  0.6233  3.0055  0.2231
 2711SOL    HW212176   9.583   3.284   9.217  0.4803  0.7879 -0.0402
 2712SOL     OW12177   8.351   3.295   7.141  0.2231  0.0229  0.4626
 2712SOL    HW112178   8.278   3.356   7.136 -0.2823 -0.5658  0.5355
 2712SOL    HW212179   8.418   3.341   7.191 -0.3423  0.3285  0.9434
 2713SOL     OW12180   2.557  10.234   3.448  0.0973  0.1350 -0.6141
 2713SOL    HW112181   2.470  10.273   3.455  0.4034  0.9899 -1.4306
 2713SOL    HW212182   2.551  10.176   3.373  0.7395  1.6476 -1.8892
 2714SOL     OW12183   1.986   0.927   2.788 -0.5820  0.4022  0.4045
 2714SOL    HW112184   2.009   0.893   2.874  1.3315 -0.3897 -0.3763
 2714SOL    HW212185   1.980   1.022   2.801  1.2828  0.4634  1.1164
 2715SOL     OW12186   4.067   1.331   5.482 -0.0442  0.0678  0.1723
 2715SOL    HW112187   4.119   1.313   5.561  0.8853  1.0703 -0.1937
 2715SOL    HW212188   4.088   1.259   5.423 -1.2702 -1.0731  1.0491
 2716SOL     OW12189   1.534   7.473   6.572 -0.2274 -0.0386 -0.3182
 2716SOL    HW112190   1.510   7.546   6.629 -3.5019 -1.2938  0.1153
 2716SOL    HW212191   1.563   7.405   6.632  0.6531  0.1228 -0.5486
 2717SOL     OW12192   2.879   7.473   6.091 -0.3487  0.2990 -0.0709
 2717SOL    HW112193   2.820   7.399   6.107  0.2436 -0.3927 -0.9948
 2717SOL    HW212194   2.923   7.451   6.009  1.5153  0.5957  0.8091
 2718SOL     OW12195   8.837   7.658   5.319  0.3538  0.2793  0.1102
 2718SOL    HW112196   8.862   7.619   5.403 -0.0000  0.0775  0.1250
 2718SOL    HW212197   8.891   7.613   5.254  0.7643  0.5677  0.2465
 2719SOL     OW12198  10.003   3.935   1.945 -0.6657  0.2136 -0.4162
 2719SOL    HW112199  10.064   3.893   2.006 -0.2847  0.2263 -0.7838
 2719SOL    HW212200  10.039   3.916   1.858  0.6412  2.9231 -0.5767
 2720SOL     OW12201   1.181   5.407   8.614 -0.7634  0.1810 -0.4928
 2720SOL    HW112202   1.147   5.376   8.698 -2.6106 -1.4569 -1.7503
 2720SOL    HW212203   1.135   5.490   8.599  0.5465  1.1710  0.6383
 2721SOL     OW12204   4.441   2.877   5.281 -0.3398 -0.0609  0.1926
 2721SOL    HW112205   4.359   2.866   5.234 -0.9252 -0.5393  1.2964
 2721SOL    HW212206   4.476   2.788   5.290  0.0315  0.0821  0.1975
 2722SOL     OW12207   9.519   5.156  10.243  0.0958  0.0642 -0.4985
 2722SOL    HW112208   9.552   5.089  10.182 -1.7815  0.4735 -2.0797
 2722SOL    HW212209   9.490   5.228  10.186 -0.0040  1.2885  1.0267
 2723SOL     OW12210   3.923   5.249   3.918 -0.2642  0.6156 -0.0054
 2723SOL    HW112211   3.846   5.307   3.914  0.1242  1.0814 -1.2079
 2723SOL    HW212212   3.998   5.308   3.918  0.1361  0.2096  2.2245
 2724SOL     OW12213   5.773   9.001   4.103 -0.3090  0.0401 -0.2074
 2724SOL    HW112214   5.734   9.054   4.033 -0.0728  1.4434  0.6912
 2724SOL    HW212215   5.712   9.007   4.176 -0.9654 -2.1032 -0.5123
 2725SOL     OW12216   0.333   4.225   9.367 -0.3489 -0.0504 -0.3193
 2725SOL    HW112217   0.426   4.219   9.388 -0.2910 -0.3299 -0.6373
 2725SOL    HW212218   0.301   4.135   9.371 -0.9819  0.2246  1.3988
 2726SOL     OW12219   8.035   2.147   7.655  0.6243 -0.1589  0.2142
 2726SOL    HW112220   8.094   2.178   7.587  1.9225 -0.5183  1.1465
 2726SOL    HW212221   8.052   2.205   7.729  0.2877 -0.6912  0.7124
 2727SOL     OW12222   5.002   1.354   2.940  0.0176 -0.6635  0.0995
 2727SOL    HW112223   4.968   1.266   2.921  1.7729 -1.5086  0.6337
 2727SOL    HW212224   4.998   1.361   3.035  1.1536 -0.7502  0.1735
 2728SOL     OW12225   8.305   2.876   1.997 -0.0392  0.0644 -0.2438
 2728SOL    HW112226   8.354   2.940   1.945 -1.3492 -0.4079 -2.1423
 2728SOL    HW212227   8.299   2.799   1.941 -1.2400 -0.5836  0.7336
 2729SOL     OW12228   2.781   1.436   7.019  0.2532 -0.2082 -0.1740
 2729SOL    HW112229   2.808   1.358   6.972  0.9862 -0.2403  0.2790
 2729SOL    HW212230   2.863   1.473   7.054 -0.0302  0.9472 -0.6583
 2730SOL     OW12231   5.107   0.127   2.805  0.2739 -0.2904 -0.3168
 2730SOL    HW112232   5.199   0.149   2.822  0.0683 -0.3242  0.9191
 2730SOL    HW212233   5.090   0.161   2.717  1.0790  0.9629 -0.0121
 2731SOL     OW12234   0.577   1.077   2.680 -1.0996 -1.0053 -0.2463
 2731SOL    HW112235   0.626   1.045   2.604  1.0222  2.0652 -0.3326
 2731SOL    HW212236   0.495   1.028   2.677  0.4178 -3.7192 -2.2789
 2732SOL     OW12237   1.520   3.006   0.468  0.8599 -0.6022 -0.6086
 2732SOL    HW112238   1.591   2.976   0.525 -0.0563 -1.6520  0.0298
 2732SOL    HW212239   1.449   2.943   0.484 -0.0775  0.1979 -1.5128
 2733SOL     OW12240   5.123   3.271   4.584  0.1957  0.0781 -0.2681
 2733SOL    HW112241   5.050   3.209   4.586 -0.2819  0.6011 -1.1151
 2733SOL    HW212242   5.201   3.216   4.570 -0.4273 -0.2086 -3.0897
 2734SOL     OW12243   6.445   5.484   2.271 -0.9911 -0.1726 -0.0927
 2734SOL    HW112244   6.371   5.431   2.244 -0.5932  0.4741 -2.7187
 2734SOL    HW212245   6.501   5.489   2.194  0.5004  1.4937  1.0050
 2735SOL     OW12246   4.351   7.287   0.234  0.6142 -0.3370 -0.0539
 2735SOL    HW112247   4.387   7.203   0.207 -0.3084 -0.2537 -1.6743
 2735SOL    HW212248   4.256   7.275   0.230  0.4684  0.8758 -0.7016
 2736SOL     OW12249   7.186   5.760   3.095  0.0750  0.1689  0.2230
 2736SOL    HW112250   7.152   5.676   3.065  0.0095  0.2757 -0.0066
 2736SOL    HW212251   7.252   5.738   3.160  1.0478 -0.1070 -0.8303
 2737SOL     OW12252   9.925   8.287   7.185  0.0768  0.2202 -0.5434
 2737SOL    HW112253   9.973   8.233   7.247 -0.0003  0.6914 -0.0708
 2737SOL    HW212254   9.844   8.310   7.230 -0.3568 -0.1114 -1.1261
 2738SOL     OW12255   1.818   8.695   7.731 -0.4494  0.2407 -0.3838
 2738SOL    HW112256   1.897   8.725   7.685  0.5124 -1.7710 -0.1467
 2738SOL    HW212257   1.800   8.609   7.693 -0.5769 -0.7887  1.8603
 2739SOL     OW12258   0.881   0.126   1.306 -0.1612  0.2018 -0.1104
 2739SOL    HW112259   0.822   0.136   1.380  1.7264  1.3689  1.3096
 2739SOL    HW212260   0.868   0.205   1.253 -1.9253 -0.8914 -1.4256
 2740SOL     OW12261   1.458   6.004   9.468  0.3331 -0.6556  0.3088
 2740SOL    HW112262   1.450   6.019   9.374 -2.7559 -1.2754  0.3841
 2740SOL    HW212263   1.393   5.937   9.488 -0.5554  0.8671  3.1914
 2741SOL     OW12264   8.030   5.067   3.636 -0.0696 -0.2001  0.0042
 2741SOL    HW112265   7.940   5.057   3.666 -0.8834  2.3414 -1.2753
 2741SOL    HW212266   8.065   5.139   3.688  0.5821  0.0882 -0.8031
 2742SOL     OW12267   0.879   2.597   6.816 -0.5076 -0.0871 -0.8063
 2742SOL    HW112268   0.915   2.607   6.728 -1.4595  0.7480 -1.1177
 2742SOL    HW212269   0.830   2.515   6.813  0.0322 -0.4087 -0.8495
 2743SOL     OW12270   9.282   4.217   5.589  0.0966  0.3152  0.4686
 2743SOL    HW112271   9.193   4.192   5.614 -1.6900  2.7757 -2.6426
 2743SOL    HW212272   9.321   4.136   5.557 -0.6613 -0.9816  2.6054
 2744SOL     OW12273  10.152   2.777   1.217 -0.5101 -0.0205  0.3275
 2744SOL    HW112274  10.243   2.797   1.239 -0.1441 -0.5293 -0.6574
 2744SOL    HW212275  10.111   2.756   1.300  0.4998 -0.6744  0.6740
 2745SOL     OW12276   5.113   7.678   3.201  0.0800  0.1934 -0.0357
 2745SOL    HW112277   5.176   7.615   3.235 -2.0658 -2.2722 -0.3430
 2745SOL    HW212278   5.128   7.757   3.252  1.8501 -1.0347  1.4837
 2746SOL     OW12279   7.003   5.012   1.028  0.5537 -0.5316  0.5756
 2746SOL    HW112280   6.915   5.028   1.063  0.3853  0.8024 -0.3679
 2746SOL    HW212281   6.999   4.924   0.991  0.2046 -1.2481  2.2378
 2747SOL     OW12282   5.147   9.417   4.356 -0.0446  0.0261 -0.7723
 2747SOL    HW112283   5.090   9.493   4.350 -2.1103 -1.5288 -2.4873
 2747SOL    HW212284   5.206   9.424   4.281  0.4783  0.4724 -0.3194
 2748SOL     OW12285   6.673   6.790   0.516  0.4644 -0.3674 -0.2354
 2748SOL    HW112286   6.581   6.813   0.528  0.1505 -0.4998 -2.1063
 2748SOL    HW212287   6.713   6.868   0.478  0.8089 -0.7449 -0.6695
 2749SOL     OW12288   6.943   7.038   1.292 -0.4191  0.2262 -0.1724
 2749SOL    HW112289   7.002   7.085   1.233 -0.1001  0.5404  0.3941
 2749SOL    HW212290   7.001   6.997   1.357 -0.8055  0.3327  0.2446
 2750SOL     OW12291  10.201   2.376   2.509 -0.0805  0.2308  0.0648
 2750SOL    HW112292  10.210   2.444   2.576  0.8728 -0.5129  0.7193
 2750SOL    HW212293  10.178   2.297   2.558 -0.2109 -0.1379 -0.5814
 2751SOL     OW12294   1.592   4.032   6.603 -0.6642 -0.1129 -0.3441
 2751SOL    HW112295   1.668   3.975   6.612 -0.7520 -0.1775 -0.0190
 2751SOL    HW212296   1.519   3.973   6.588 -0.8394 -0.1230  0.5006
 2752SOL     OW12297   3.998   5.211   8.393 -0.4008  0.3765 -0.0868
 2752SOL    HW112298   3.907   5.184   8.389 -0.7656  1.5223  0.1872
 2752SOL    HW212299   4.013   5.257   8.310  0.7137 -2.0806 -1.3517
 2753SOL     OW12300   1.281   8.994   4.859  0.4448 -0.1607 -0.2839
 2753SOL    HW112301   1.261   8.930   4.791 -0.1505  0.2498 -0.4996
 2753SOL    HW212302   1.248   8.954   4.940 -1.7336  0.6875 -0.6921
 2754SOL     OW12303   1.078   2.393   2.482 -0.6644 -0.0124  0.0817
 2754SOL    HW112304   1.137   2.324   2.514 -0.4376  1.2307  2.6116
 2754SOL    HW212305   1.136   2.466   2.460 -0.9660 -0.3000 -1.8515
 2755SOL     OW12306   4.700   3.785   3.562 -0.2567 -0.6141 -0.3366
 2755SOL    HW112307   4.643   3.847   3.517  1.3731  1.0224 -0.2528
 2755SOL    HW212308   4.716   3.824   3.647  0.7188 -1.2029 -0.2360
 2756SOL     OW12309   6.934   4.752   5.664  0.3008  0.1700  0.6577
 2756SOL    HW112310   6.854   4.802   5.646  0.0195 -0.3009  0.5974
 2756SOL    HW212311   6.958   4.713   5.581 -0.4753 -1.2329  1.0501
 2757SOL     OW12312   3.279   2.270  10.235 -0.1711 -0.2432 -0.0110
 2757SOL    HW112313   3.290   2.184  10.275 -0.0822 -0.5876 -0.7602
 2757SOL    HW212314   3.190   2.270  10.201 -0.3231  0.1316  0.3764
 2758SOL     OW12315   4.901   0.684   1.380  0.1076 -0.4904  0.2501
 2758SOL    HW112316   4.990   0.689   1.415  0.1126  0.4927  0.1265
 2758SOL    HW212317   4.897   0.752   1.313  0.0834 -2.3156 -1.6934
 2759SOL     OW12318   3.143   8.477   3.748  0.4731  0.3912 -0.4649
 2759SOL    HW112319   3.122   8.462   3.840 -0.6792  0.7528 -0.6476
 2759SOL    HW212320   3.175   8.392   3.716 -2.7854 -0.9012 -0.6711
 2760SOL     OW12321   6.125   4.611   8.704 -0.0170  0.3034 -0.2346
 2760SOL    HW112322   6.211   4.647   8.683 -0.5800  0.7550 -1.9641
 2760SOL    HW212323   6.095   4.662   8.779  0.2345  1.7806 -1.1093
 2761SOL     OW12324   8.290   0.411   9.160 -0.4001  0.3398 -0.4078
 2761SOL    HW112325   8.371   0.370   9.191  0.3521  1.5739 -0.6796
 2761SOL    HW212326   8.220   0.366   9.208  0.4408 -0.7363 -0.1632
 2762SOL     OW12327   4.020   5.730   6.974 -0.3056 -0.2670  0.0041
 2762SOL    HW112328   4.031   5.637   6.957  2.9727  0.3869 -2.6050
 2762SOL    HW212329   4.101   5.757   7.017 -0.0139  1.7469 -1.6324
 2763SOL     OW12330   2.810   6.922   5.588 -0.2535 -0.3735  0.2058
 2763SOL    HW112331   2.797   6.875   5.506  0.5064  0.9841 -0.7354
 2763SOL    HW212332   2.721   6.938   5.620 -0.5762 -0.5758 -0.5629
 2764SOL     OW12333   3.310   1.009   8.833  0.5694  0.0646 -0.0523
 2764SOL    HW112334   3.282   1.055   8.912  2.8258 -0.8837  1.3871
 2764SOL    HW212335   3.340   1.078   8.774  0.3903  0.6939  0.5829
 2765SOL     OW12336   7.749   5.483   1.844  0.4447  0.0586  0.0336
 2765SOL    HW112337   7.813   5.415   1.825 -0.8222 -0.7268 -1.6301
 2765SOL    HW212338   7.664   5.444   1.821 -0.6330  1.1405  1.9575
 2766SOL     OW12339   3.290   9.689   3.452 -0.0248  0.5736  0.2769
 2766SOL    HW112340   3.263   9.688   3.360  0.4067 -0.8240  0.1446
 2766SOL    HW212341   3.380   9.722   3.450 -0.6809  2.5071  0.4355
 2767SOL     OW12342   2.515   6.422   3.315 -0.1471  0.3974 -0.5573
 2767SOL    HW112343   2.572   6.485   3.359  0.3784 -0.7081  0.4395
 2767SOL    HW212344   2.432   6.428   3.362 -0.1339  0.4375 -0.5395
 2768SOL     OW12345   9.350   3.533   7.431  0.1331  0.1459 -0.2437
 2768SOL    HW112346   9.444   3.519   7.445 -0.3461 -0.6624  3.0401
 2768SOL    HW212347   9.333   3.619   7.470 -0.6410 -0.2082  0.2307
 2769SOL     OW12348   7.361   6.213   7.967  0.3837 -0.0620  0.5294
 2769SOL    HW112349   7.420   6.274   7.922 -0.5443  0.6509  0.2361
 2769SOL    HW212350   7.342   6.255   8.051 -1.6845  0.9974 -0.3904
 2770SOL     OW12351  10.163   0.272   2.913 -0.5940 -0.7255  0.2923
 2770SOL    HW112352  10.093   0.297   2.974 -0.2316  0.5018  0.2398
 2770SOL    HW212353  10.129   0.295   2.827 -0.1393 -0.0991  0.2684
 2771SOL     OW12354   6.949   2.771   0.019 -0.2400  0.3575  0.4986
 2771SOL    HW112355   6.976   2.810  -0.064  3.6025 -1.9701  0.4153
 2771SOL    HW212356   6.878   2.711  -0.005 -1.2399  1.8616 -0.5079
 2772SOL     OW12357   2.464   5.620   7.326 -0.5538 -0.1162 -0.3063
 2772SOL    HW112358   2.449   5.556   7.395  1.9194  0.5515  0.9680
 2772SOL    HW212359   2.398   5.687   7.341  0.5735  0.5710  2.2107
 2773SOL     OW12360   0.984   0.920   4.452  0.9455 -0.0526 -0.0657
 2773SOL    HW112361   0.999   0.833   4.415  0.8237 -0.2165  0.2664
 2773SOL    HW212362   0.987   0.906   4.547 -0.7272 -0.0079  0.0198
 2774SOL     OW12363   9.959   1.400   2.862  0.1043 -0.3341  0.3357
 2774SOL    HW112364  10.023   1.443   2.806 -0.7640  0.6839  0.0972
 2774SOL    HW212365   9.944   1.315   2.821  0.7677 -0.2928 -0.0012
 2775SOL     OW12366  10.239   7.544   9.300 -0.0854 -0.0554 -0.1361
 2775SOL    HW112367  10.315   7.505   9.256  1.6006  1.7724  1.0092
 2775SOL    HW212368  10.234   7.633   9.265 -0.2894  0.5895  1.4625
 2776SOL     OW12369   8.282   8.327   0.571 -0.2074  0.1154 -0.1907
 2776SOL    HW112370   8.236   8.272   0.507  0.1115 -0.4637  0.0666
 2776SOL    HW212371   8.231   8.407   0.575  0.7043  0.8851 -2.4530
 2777SOL     OW12372   2.852   4.563   3.462 -0.1626  0.3779 -0.3856
 2777SOL    HW112373   2.758   4.576   3.447 -0.5383  0.1544  1.4859
 2777SOL    HW212374   2.894   4.632   3.411 -1.3164  0.3390 -1.4522
 2778SOL     OW12375   7.528   8.237   1.595  0.0923 -0.3259 -0.6184
 2778SOL    HW112376   7.541   8.176   1.668 -0.3980  0.5049  0.1918
 2778SOL    HW212377   7.609   8.289   1.594 -0.0949 -0.0252 -0.3530
 2779SOL     OW12378   8.948   3.387   2.605 -0.3790  0.0733 -0.3812
 2779SOL    HW112379   8.955   3.323   2.676 -1.9060  1.9255  1.5979
 2779SOL    HW212380   8.865   3.367   2.562 -0.7526  0.5392  0.1016
 2780SOL     OW12381   8.340  10.244   8.996  0.3337  0.4449 -0.3623
 2780SOL    HW112382   8.425  10.255   8.954  0.8053 -1.4387  0.0127
 2780SOL    HW212383   8.359  10.251   9.090  0.0971 -0.1392 -0.2702
 2781SOL     OW12384   1.581   1.526   6.488 -0.1401 -0.7587 -0.9169
 2781SOL    HW112385   1.504   1.561   6.533  0.5068 -0.1850 -0.2207
 2781SOL    HW212386   1.604   1.448   6.537  0.9400  0.2111  0.1823
 2782SOL     OW12387   8.074   2.833   2.700 -0.0452  0.2509 -0.3492
 2782SOL    HW112388   8.075   2.899   2.769  1.7727 -0.8415  0.7561
 2782SOL    HW212389   7.981   2.815   2.686 -0.5271 -0.4917  2.8797
 2783SOL     OW12390   9.948   2.776   0.663  0.0985 -0.0049 -0.3377
 2783SOL    HW112391   9.862   2.793   0.624  0.2456  0.9122 -0.2728
 2783SOL    HW212392  10.006   2.764   0.588 -0.1023 -0.7299 -0.3814
 2784SOL     OW12393   5.182   5.322   1.186 -0.1301  0.0162 -0.1440
 2784SOL    HW112394   5.141   5.408   1.174  0.8725  0.4470 -0.5648
 2784SOL    HW212395   5.176   5.305   1.280 -2.3781 -0.5133 -0.3175
 2785SOL     OW12396   6.107   0.024   1.841 -0.9056  0.7967  0.2558
 2785SOL    HW112397   6.132  -0.025   1.762 -0.7977  0.2198  0.6413
 2785SOL    HW212398   6.015   0.046   1.826 -0.7005  1.2971 -0.3353
 2786SOL     OW12399   4.887   7.717   3.333 -0.0507 -0.2284 -0.1511
 2786SOL    HW112400   4.918   7.800   3.368 -0.3977  0.4137 -1.3004
 2786SOL    HW212401   4.950   7.694   3.264 -0.4252 -0.4699 -0.4203
 2787SOL     OW12402   6.467   4.000   0.102  0.5150 -0.2623 -0.0427
 2787SOL    HW112403   6.383   3.983   0.144 -0.5746 -0.2183 -2.0846
 2787SOL    HW212404   6.487   3.919   0.054  0.5475  0.4491 -1.2885
 2788SOL     OW12405   3.364   8.416   3.404  0.1868  0.2071  0.3685
 2788SOL    HW112406   3.438   8.442   3.349  0.0713  0.9449  0.5579
 2788SOL    HW212407   3.320   8.348   3.354  1.5168 -0.9176  0.6450
 2789SOL     OW12408   6.544   4.900   0.900 -0.5386  0.4977  0.1618
 2789SOL    HW112409   6.523   4.936   0.986 -1.2491  0.6771 -0.0787
 2789SOL    HW212410   6.470   4.844   0.879  0.2314 -0.5708  0.2242
 2790SOL     OW12411   4.699   6.274   0.839 -0.0379 -0.1573 -0.2076
 2790SOL    HW112412   4.688   6.291   0.745 -0.9306  0.8374  0.0492
 2790SOL    HW212413   4.610   6.260   0.871 -0.2120  2.9457  1.0561
 2791SOL     OW12414   0.073   9.183   2.345  0.0452 -0.0163  0.1203
 2791SOL    HW112415   0.151   9.239   2.343 -0.7113  1.3508 -4.5103
 2791SOL    HW212416   0.094   9.110   2.287 -1.4472 -0.7140  0.3998
 2792SOL     OW12417   1.184   4.189   6.540 -0.2090 -0.1114 -0.5065
 2792SOL    HW112418   1.146   4.122   6.483  0.4882  1.5414 -3.0754
 2792SOL    HW212419   1.134   4.268   6.520  0.8735  0.8005  0.3062
 2793SOL     OW12420   5.876   8.755   3.943  0.1464  0.1356  0.5921
 2793SOL    HW112421   5.847   8.810   3.870 -1.1526 -0.8782  0.3130
 2793SOL    HW212422   5.842   8.799   4.021 -1.5023 -0.6029  0.3237
 2794SOL     OW12423   1.625   7.258   1.594 -0.3483 -0.2647 -0.1296
 2794SOL    HW112424   1.641   7.164   1.594  0.0744 -0.2091  0.8497
 2794SOL    HW212425   1.562   7.272   1.664  0.5206  0.3057  0.5679
 2795SOL     OW12426   5.744   5.624   9.502 -0.2257 -0.0650  0.2527
 2795SOL    HW112427   5.768   5.531   9.502 -0.9215 -0.2589  1.3994
 2795SOL    HW212428   5.650   5.624   9.520 -0.2354  0.8669  0.2162
 2796SOL     OW12429   7.810   2.453   0.141 -0.3633 -0.2518 -0.2601
 2796SOL    HW112430   7.722   2.423   0.162 -0.5890  0.5510 -0.0306
 2796SOL    HW212431   7.805   2.548   0.144  1.0206 -0.1661  2.0047
 2797SOL     OW12432   1.313   9.262   3.676 -0.3454 -0.9523 -0.1620
 2797SOL    HW112433   1.219   9.256   3.658 -0.2066 -0.1782 -1.2322
 2797SOL    HW212434   1.353   9.268   3.590  0.5692  0.2419  0.3295
 2798SOL     OW12435   4.499   2.239   9.356 -0.3849  0.0302  0.1966
 2798SOL    HW112436   4.575   2.234   9.414  0.7047  0.8750 -1.1114
 2798SOL    HW212437   4.526   2.297   9.285 -1.5103 -1.2930 -1.3939
 2799SOL     OW12438   1.229   4.479   9.587 -0.3914 -0.9658  0.7601
 2799SOL    HW112439   1.171   4.496   9.661  0.4819 -0.2521  1.3057
 2799SOL    HW212440   1.254   4.387   9.596  0.9754 -0.4789  2.3041
 2800SOL     OW12441   1.912   1.852   5.844  0.0601  0.0574 -0.2390
 2800SOL    HW112442   2.005   1.856   5.819  0.3649 -0.7274  0.7497
 2800SOL    HW212443   1.869   1.907   5.778  0.9052 -1.4610 -2.1834
 2801SOL     OW12444   4.696   0.976   5.827  0.8248 -0.4632  0.1179
 2801SOL    HW112445   4.747   0.915   5.774  0.8960 -0.0030 -0.3444
 2801SOL    HW212446   4.761   1.035   5.865  0.6438  0.1776 -0.5423
 2802SOL     OW12447   7.047   3.750   0.895  0.0973 -0.5958 -0.0814
 2802SOL    HW112448   7.093   3.808   0.957 -0.9030 -0.4843  0.5727
 2802SOL    HW212449   7.003   3.686   0.951 -3.0243  1.0501 -0.4432
 2803SOL     OW12450   2.362   4.635   8.995  0.0860 -0.0967  0.0741
 2803SOL    HW112451   2.392   4.726   8.990 -0.1102 -0.0365 -0.0220
 2803SOL    HW212452   2.267   4.641   8.981  0.3272 -0.5287 -2.0287
 2804SOL     OW12453   7.512   7.727   0.309 -0.1579  0.6977 -0.2035
 2804SOL    HW112454   7.581   7.667   0.282 -1.7741 -0.1534 -2.8693
 2804SOL    HW212455   7.558   7.802   0.345  2.1190 -0.2033 -1.0457
 2805SOL     OW12456   9.130   8.980   0.064  0.0738 -0.6310 -0.0362
 2805SOL    HW112457   9.157   9.062   0.105 -0.0948 -0.4539 -0.2805
 2805SOL    HW212458   9.044   8.999   0.027 -0.2673 -1.1073  0.4879
 2806SOL     OW12459   7.007   2.089   7.801  0.4880 -0.3617  0.4735
 2806SOL    HW112460   7.058   2.009   7.815 -1.6842 -1.7370  0.9321
 2806SOL    HW212461   7.027   2.143   7.877  2.0291 -0.4028  0.1314
 2807SOL     OW12462   6.444   1.036   5.513 -0.4432  0.0753 -1.0079
 2807SOL    HW112463   6.418   0.975   5.445 -0.5804 -0.9119 -0.1024
 2807SOL    HW212464   6.539   1.034   5.513 -0.4399 -1.7783  0.4014
 2808SOL     OW12465   2.892   5.151   4.786 -0.2314 -0.1944 -0.7650
 2808SOL    HW112466   2.972   5.193   4.756  0.6069 -2.5126 -1.9778
 2808SOL    HW212467   2.918   5.062   4.808 -2.5202 -1.1321 -1.5274
 2809SOL     OW12468   4.908   4.501   8.472  0.1201  0.1593 -0.1091
 2809SOL    HW112469   4.940   4.505   8.562  2.7544 -0.2499 -0.9331
 2809SOL    HW212470   4.983   4.528   8.419 -1.1700 -0.2026 -2.2183
 2810SOL     OW12471   7.398   6.101   3.028  0.2373  0.7499 -0.0550
 2810SOL    HW112472   7.469   6.054   2.984 -0.9375 -0.3994 -0.7789
 2810SOL    HW212473   7.420   6.095   3.121  1.8493  1.7124 -0.3296
 2811SOL     OW12474   5.418   8.734   2.592 -0.0867 -0.0305  0.0395
 2811SOL    HW112475   5.444   8.649   2.626  0.6725  0.3957  0.5490
 2811SOL    HW212476   5.500   8.781   2.579 -0.4712  0.4909 -0.6125
 2812SOL     OW12477   4.689   8.246   1.216  0.4355  0.0779 -0.2312
 2812SOL    HW112478   4.733   8.285   1.292  1.0446 -3.0914  1.2124
 2812SOL    HW212479   4.607   8.212   1.251 -0.3962  0.6200 -1.5793
 2813SOL     OW12480   7.405  10.026   9.037 -0.0493  0.3323  0.5512
 2813SOL    HW112481   7.488   9.988   9.065 -0.0270 -0.1663 -0.1569
 2813SOL    HW212482   7.339   9.961   9.063 -0.1128  0.2652  0.2228
 2814SOL     OW12483   5.167   4.054   2.274  0.3361 -0.3051 -0.4709
 2814SOL    HW112484   5.102   4.018   2.214  0.9215 -2.2237 -0.0119
 2814SOL    HW212485   5.188   3.982   2.334 -0.6831  1.6602  2.5116
 2815SOL     OW12486   8.438   6.125   9.494 -0.0124 -0.1650 -0.5938
 2815SOL    HW112487   8.489   6.198   9.458  0.3754  0.4444  1.0893
 2815SOL    HW212488   8.350   6.137   9.458 -0.0818  1.4380 -0.0024
 2816SOL     OW12489   7.781   2.408   2.246  0.3297 -0.5321 -0.2019
 2816SOL    HW112490   7.863   2.428   2.292 -0.4075 -0.3649  1.0708
 2816SOL    HW212491   7.740   2.493   2.233  0.3133 -0.6251 -0.7777
 2817SOL     OW12492   4.796   4.231   2.013 -0.0406  0.1743 -0.0343
 2817SOL    HW112493   4.878   4.240   2.060  1.3664 -0.8052 -2.1599
 2817SOL    HW212494   4.739   4.183   2.073  1.2823 -0.0784  1.0640
 2818SOL     OW12495   3.295   2.604   9.325  0.6596 -0.4753  0.0647
 2818SOL    HW112496   3.345   2.682   9.348  0.4680 -0.1553 -0.5934
 2818SOL    HW212497   3.204   2.628   9.343  0.4592 -0.0807 -1.3605
 2819SOL     OW12498  10.257   4.899  10.173  0.1019 -0.3539 -0.5842
 2819SOL    HW112499  10.184   4.837  10.173  0.4990 -0.9606  1.9623
 2819SOL    HW212500  10.330   4.848  10.208  1.4435  0.5896 -1.9173
 2820SOL     OW12501   0.153   5.004   6.631  0.1312 -0.3430  0.4559
 2820SOL    HW112502   0.144   4.964   6.718 -2.2588 -1.5670 -0.2404
 2820SOL    HW212503   0.105   5.086   6.637  0.8148  0.0562  0.5420
 2821SOL     OW12504   0.282   0.886   5.825 -0.5471  0.0325 -0.8074
 2821SOL    HW112505   0.322   0.925   5.747 -0.7082  0.8300 -0.4905
 2821SOL    HW212506   0.233   0.811   5.791  0.4185 -0.3982 -1.3176
 2822SOL     OW12507   4.567   3.649   1.266 -0.1300  0.3217  0.3804
 2822SOL    HW112508   4.652   3.679   1.235 -0.2282  0.4522  0.2358
 2822SOL    HW212509   4.550   3.702   1.344  0.5346 -0.6413  1.2025
 2823SOL     OW12510   8.199   0.620   7.180  0.4307 -1.2355  0.0647
 2823SOL    HW112511   8.213   0.526   7.179  1.3654 -1.1202  0.7386
 2823SOL    HW212512   8.235   0.649   7.265 -0.9105 -0.4331  0.3914
 2824SOL     OW12513   6.419   2.884   0.057 -0.0239  0.2919 -0.2454
 2824SOL    HW112514   6.498   2.853   0.102 -0.9737 -1.8417  0.0866
 2824SOL    HW212515   6.366   2.923   0.126 -0.8461 -1.6819  0.3169
 2825SOL     OW12516   4.426   1.144   7.354  0.2178  0.4349 -0.3350
 2825SOL    HW112517   4.340   1.113   7.325  0.1579 -0.6541  0.9306
 2825SOL    HW212518   4.486   1.116   7.284 -0.3593  0.6707 -0.9340
 2826SOL     OW12519   1.372   7.864   4.822  0.6381 -0.1268 -0.1558
 2826SOL    HW112520   1.316   7.921   4.875 -0.2197 -0.1799 -0.9853
 2826SOL    HW212521   1.378   7.908   4.737 -0.8625 -1.6873 -1.1495
 2827SOL     OW12522   7.388   9.817   9.937 -0.4631  0.2684  0.4120
 2827SOL    HW112523   7.481   9.798   9.926 -0.8625 -1.1991 -0.7125
 2827SOL    HW212524   7.345   9.732   9.929 -1.8568  0.8095  1.7134
 2828SOL     OW12525   2.975   7.329   5.474  0.4957 -0.4632 -0.0406
 2828SOL    HW112526   3.000   7.410   5.518  2.2151  0.5046 -2.5651
 2828SOL    HW212527   2.880   7.323   5.487  0.2698  2.0994  0.0355
 2829SOL     OW12528   5.535   8.482   4.726 -0.0854  0.1504 -0.3564
 2829SOL    HW112529   5.610   8.423   4.716  0.7696  1.3579 -1.2716
 2829SOL    HW212530   5.561   8.542   4.796 -1.2324 -0.9253  1.0636
 2830SOL     OW12531   2.232   5.264   6.302  0.2219  0.2183 -0.2931
 2830SOL    HW112532   2.301   5.329   6.314 -0.7123  1.3162 -0.7302
 2830SOL    HW212533   2.211   5.268   6.209 -1.1890  0.6882  0.0307
 2831SOL     OW12534   5.859   5.677   4.481 -0.2427  0.5932  0.3335
 2831SOL    HW112535   5.854   5.588   4.515 -0.0421  0.5401  0.2267
 2831SOL    HW212536   5.772   5.713   4.493 -0.3617  0.3334  0.2479
 2832SOL     OW12537   4.593   7.226   8.599 -0.2134 -0.4188 -0.3794
 2832SOL    HW112538   4.605   7.283   8.523  1.0463 -0.2267 -0.0493
 2832SOL    HW212539   4.557   7.283   8.667  0.8896 -0.0319 -0.1023
 2833SOL     OW12540   6.336   5.795   0.202  0.3996  0.1081 -0.0460
 2833SOL    HW112541   6.346   5.836   0.116  0.3636 -1.3578 -0.7764
 2833SOL    HW212542   6.275   5.852   0.248  2.3025  2.2923 -0.0566
 2834SOL     OW12543   4.736   8.458   6.793 -0.3959 -0.6226  0.2236
 2834SOL    HW112544   4.777   8.384   6.837 -2.1853  0.4423  4.0626
 2834SOL    HW212545   4.658   8.421   6.751 -0.3085 -1.1947  0.5634
 2835SOL     OW12546   2.592   6.458   9.409  0.0361  0.2004 -0.4807
 2835SOL    HW112547   2.580   6.470   9.503  0.3442 -0.6764 -0.3132
 2835SOL    HW212548   2.654   6.527   9.384  0.8734 -0.2721  0.1949
 2836SOL     OW12549   0.663   0.024   3.732 -0.3995 -0.4894  0.0235
 2836SOL    HW112550   0.628   0.104   3.771  0.2644  0.4574 -1.2158
 2836SOL    HW212551   0.741   0.005   3.784 -0.5415 -0.3071  0.3072
 2837SOL     OW12552   2.723   3.606   9.265  0.7259  0.4137  0.6168
 2837SOL    HW112553   2.810   3.645   9.266  0.7233  0.4946 -0.8208
 2837SOL    HW212554   2.670   3.667   9.214  0.4519 -0.8910 -0.7287
 2838SOL     OW12555   4.205   5.767   2.820  0.0244  0.4423  0.2925
 2838SOL    HW112556   4.125   5.818   2.824 -0.5852 -0.5611  1.8571
 2838SOL    HW212557   4.241   5.771   2.909  1.3607  0.3272 -0.2120
 2839SOL     OW12558   4.396  10.113   3.976  0.4035 -0.8353  0.7431
 2839SOL    HW112559   4.349  10.187   4.015 -0.5947 -1.3125  0.4814
 2839SOL    HW212560   4.410  10.139   3.885 -0.4338 -1.1731  0.5054
 2840SOL     OW12561   3.452   9.339   4.653 -0.4414 -0.0971  0.1284
 2840SOL    HW112562   3.396   9.415   4.673 -0.3431  0.3078 -1.0190
 2840SOL    HW212563   3.471   9.300   4.738 -1.1747  0.6861  0.6752
 2841SOL     OW12564   3.840   1.294   3.309  0.0595 -0.2950 -0.3699
 2841SOL    HW112565   3.762   1.249   3.276 -1.9770  2.7647 -0.1150
 2841SOL    HW212566   3.902   1.223   3.328 -2.0000 -2.7677 -2.1246
 2842SOL     OW12567   3.902   0.603   8.563 -0.5279 -0.2633  0.0639
 2842SOL    HW112568   3.911   0.533   8.497 -0.4887 -0.6477  0.4745
 2842SOL    HW212569   3.855   0.562   8.635 -1.5595  0.4737 -0.1791
 2843SOL     OW12570   8.208   6.045  10.169 -0.0120 -1.0225  0.4426
 2843SOL    HW112571   8.268   6.114  10.198  0.4782 -1.4428  0.4459
 2843SOL    HW212572   8.130   6.091  10.139  1.7038 -0.1522 -3.2129
 2844SOL     OW12573   8.369   9.805   9.023 -0.3581 -0.1427  0.1257
 2844SOL    HW112574   8.385   9.867   8.951  0.0650 -0.2562  0.1210
 2844SOL    HW212575   8.276   9.817   9.044 -0.7414 -0.8142 -1.1099
 2845SOL     OW12576   6.922   9.244   0.085  0.3015  0.2130  0.8174
 2845SOL    HW112577   6.954   9.334   0.091  0.4709  0.1392  1.0225
 2845SOL    HW212578   6.984   9.200   0.026 -0.8354  0.7010 -0.8274
 2846SOL     OW12579   5.407   2.005   2.792  0.0382 -0.1598  0.4421
 2846SOL    HW112580   5.481   1.999   2.853  0.2883  2.4002  0.4978
 2846SOL    HW212581   5.331   2.018   2.848  0.1443  1.2398  0.3116
 2847SOL     OW12582   2.777   6.011   4.854  0.1125  0.3696  0.3257
 2847SOL    HW112583   2.830   6.091   4.859  0.6115  0.0966 -0.4537
 2847SOL    HW212584   2.836   5.942   4.886  0.0966  0.1241 -0.1712
 2848SOL     OW12585   9.595   5.263   8.501 -0.0558 -0.1594 -0.3501
 2848SOL    HW112586   9.544   5.312   8.437 -2.2562 -1.3456  0.3566
 2848SOL    HW212587   9.580   5.308   8.584 -0.4216 -0.8213 -0.0420
 2849SOL     OW12588   1.751   9.928   7.715 -0.3123  0.1361 -0.2583
 2849SOL    HW112589   1.776   9.968   7.798 -0.6660 -0.3934  0.1088
 2849SOL    HW212590   1.697   9.853   7.739  1.7909 -1.6874 -0.8481
 2850SOL     OW12591   7.846   7.366   4.957 -0.1069  0.3979 -0.6520
 2850SOL    HW112592   7.936   7.384   4.985  0.3111 -2.8186  0.4713
 2850SOL    HW212593   7.791   7.406   5.025  0.6826 -0.9447  0.8574
 2851SOL     OW12594   4.563   0.422   4.121  0.2554  0.6270 -0.6298
 2851SOL    HW112595   4.586   0.341   4.074  2.7845 -0.0977  1.6153
 2851SOL    HW212596   4.550   0.395   4.212 -1.8307  2.3812 -0.3118
 2852SOL     OW12597   8.271   8.960   3.823 -0.1435  0.2188 -0.3394
 2852SOL    HW112598   8.201   8.895   3.820 -1.0067  1.0318  1.0327
 2852SOL    HW212599   8.300   8.959   3.914  3.0726 -1.5058 -1.2350
 2853SOL     OW12600   5.520   5.798   0.521  0.4838 -0.4538 -0.6513
 2853SOL    HW112601   5.599   5.799   0.574  1.3301  2.5871 -1.7505
 2853SOL    HW212602   5.522   5.713   0.476 -0.1196 -3.0526  3.6679
 2854SOL     OW12603   4.375  10.248   5.999  0.4474  0.6989 -0.4549
 2854SOL    HW112604   4.352  10.157   5.981  1.2173  0.6621 -1.2929
 2854SOL    HW212605   4.406  10.283   5.915  1.9768  1.1823  0.2752
 2855SOL     OW12606   8.046   8.531   1.326 -0.3767 -0.1153 -0.0736
 2855SOL    HW112607   8.069   8.461   1.387 -1.2055  0.1378  0.5512
 2855SOL    HW212608   7.950   8.537   1.331 -0.4655 -0.0688 -1.3835
 2856SOL     OW12609   5.895   8.682   4.429 -0.9412 -0.3355 -0.2852
 2856SOL    HW112610   5.875   8.774   4.411  0.1504 -0.4172 -2.1904
 2856SOL    HW212611   5.827   8.633   4.383 -0.6688 -0.4967 -0.5186
 2857SOL     OW12612   8.023   0.865   3.891  0.4796 -0.6954  0.1475
 2857SOL    HW112613   8.037   0.802   3.820 -1.3516  0.0318 -0.9483
 2857SOL    HW212614   7.930   0.856   3.913  0.3955  0.9196  0.6358
 2858SOL     OW12615   3.091   3.258   5.117 -0.2365  0.1757  0.3442
 2858SOL    HW112616   3.112   3.339   5.163  0.0552  0.0420  0.4468
 2858SOL    HW212617   3.172   3.234   5.071  0.0564 -0.7044  1.2833
 2859SOL     OW12618   4.407   9.343   9.813 -1.4685  0.6688 -0.7785
 2859SOL    HW112619   4.347   9.395   9.866 -0.4617  1.1543 -0.0864
 2859SOL    HW212620   4.442   9.404   9.748  0.3971  1.1669  0.5901
 2860SOL     OW12621   6.846   5.623   2.224  0.3265  0.1632 -0.0152
 2860SOL    HW112622   6.885   5.596   2.307  0.0742 -1.4168 -0.3735
 2860SOL    HW212623   6.849   5.719   2.226  1.8043  0.1306  1.0927
 2861SOL     OW12624   0.004   1.230   0.936  0.2082  0.1087  0.0738
 2861SOL    HW112625   0.053   1.205   0.857 -0.9641 -1.9989 -0.0633
 2861SOL    HW212626   0.025   1.162   1.000 -0.1514  0.8855  1.0530
 2862SOL     OW12627   8.157   0.986   3.438  0.8669  0.1568  0.0592
 2862SOL    HW112628   8.216   1.008   3.366  0.5187  0.7084 -0.0608
 2862SOL    HW212629   8.210   0.930   3.495  0.6431 -1.7076 -1.4557
 2863SOL     OW12630   7.818   1.642   9.737  0.1610 -0.4271 -0.6328
 2863SOL    HW112631   7.827   1.737   9.731 -2.5278  0.2935  3.1880
 2863SOL    HW212632   7.899   1.613   9.779 -0.5390  0.8267  1.7385
 2864SOL     OW12633   7.805   3.767   3.824 -0.1334  0.3303 -0.0709
 2864SOL    HW112634   7.848   3.684   3.802  1.7754 -0.1621  4.3133
 2864SOL    HW212635   7.866   3.834   3.794 -0.4299  0.0358 -1.3593
 2865SOL     OW12636   6.250   3.088   5.873 -0.6131  0.5406  0.6027
 2865SOL    HW112637   6.294   3.042   5.801 -0.8969  2.0661 -0.5771
 2865SOL    HW212638   6.231   3.175   5.839 -0.6014  1.3788  2.5980
 2866SOL     OW12639   4.219   1.908   7.929  0.4078  0.0191  0.2824
 2866SOL    HW112640   4.237   1.993   7.890  0.1315  0.1725  0.4962
 2866SOL    HW212641   4.290   1.852   7.896  0.9752  0.4920  0.6815
 2867SOL     OW12642   1.920  10.242   5.209 -0.0896  0.5482  0.3006
 2867SOL    HW112643   1.860  10.315   5.228 -0.4954  0.5633 -0.9103
 2867SOL    HW212644   1.887  10.206   5.127  0.7348 -0.3515  0.3513
 2868SOL     OW12645   7.437   3.303   4.816  0.1202 -0.4433 -0.0693
 2868SOL    HW112646   7.465   3.230   4.760  1.0661 -0.1844  0.0420
 2868SOL    HW212647   7.394   3.364   4.756  0.8122 -0.3268 -0.4598
 2869SOL     OW12648   4.435   3.387   7.726  0.1139  0.0831  0.6297
 2869SOL    HW112649   4.476   3.393   7.812  1.6859 -0.9172 -0.0060
 2869SOL    HW212650   4.468   3.306   7.689  0.4043  1.0414 -1.3812
 2870SOL     OW12651   5.857   6.302   9.629 -0.2242 -0.3672  0.4820
 2870SOL    HW112652   5.946   6.272   9.648 -0.1707 -0.0495  0.7494
 2870SOL    HW212653   5.866   6.358   9.551  0.0816  1.0001  1.4506
 2871SOL     OW12654   5.702   5.438   2.566  0.3308  0.0014 -0.2227
 2871SOL    HW112655   5.674   5.500   2.498  1.3811 -0.1718 -0.8420
 2871SOL    HW212656   5.721   5.357   2.518 -1.5785 -1.0216  0.6492
 2872SOL     OW12657   7.783   0.602   2.321 -0.1221  0.4045 -0.4082
 2872SOL    HW112658   7.847   0.564   2.261  0.4963  0.9131 -0.0837
 2872SOL    HW212659   7.733   0.664   2.268 -0.1188  0.2584 -0.5831
 2873SOL     OW12660   4.159   9.904   0.343  0.0437 -0.3285 -0.1977
 2873SOL    HW112661   4.089   9.840   0.325 -0.7337  0.0245  1.4052
 2873SOL    HW212662   4.113   9.980   0.379  1.1551  0.3858 -0.2482
 2874SOL     OW12663   1.375   9.140   2.231 -0.0435  0.0465  0.3674
 2874SOL    HW112664   1.296   9.186   2.205 -0.7305 -1.1243  0.3504
 2874SOL    HW212665   1.345   9.069   2.288  1.1430  0.6538  1.8538
 2875SOL     OW12666   7.067   2.655   7.348  0.7013 -0.2455  0.0760
 2875SOL    HW112667   7.117   2.574   7.358  3.1081  0.9914 -1.0487
 2875SOL    HW212668   6.988   2.628   7.302  0.9773 -2.0999  0.5943
 2876SOL     OW12669   0.296   6.150   8.250 -0.1373 -0.2506  0.5650
 2876SOL    HW112670   0.276   6.142   8.156 -1.2823  0.4126  0.7299
 2876SOL    HW212671   0.340   6.234   8.258  1.6247 -1.1083  0.3978
 2877SOL     OW12672   2.981   8.771   0.120 -0.1178  0.6741 -0.1184
 2877SOL    HW112673   3.025   8.850   0.090  1.5766 -0.1695  0.0099
 2877SOL    HW212674   3.034   8.699   0.085 -1.2645 -0.4162  0.2703
 2878SOL     OW12675   8.735   5.779   7.089 -0.0398  0.2173 -0.2547
 2878SOL    HW112676   8.769   5.799   7.002 -1.4466 -0.2897 -0.9498
 2878SOL    HW212677   8.672   5.708   7.074 -0.9393  0.7182  1.0557
 2879SOL     OW12678   3.642   4.102   3.635  0.3787 -0.7422  0.8807
 2879SOL    HW112679   3.735   4.120   3.648  0.6219 -0.6168 -0.8009
 2879SOL    HW212680   3.639   4.010   3.608  0.3870  0.0137 -2.0253
 2880SOL     OW12681   1.229   9.054   3.485  0.7723 -0.3646 -0.5188
 2880SOL    HW112682   1.205   8.968   3.451  1.4893 -1.1509  0.8950
 2880SOL    HW212683   1.159   9.076   3.546 -1.1001  1.5351 -3.1150
 2881SOL     OW12684   4.315   5.622   4.479  0.0525  0.1729  0.1330
 2881SOL    HW112685   4.363   5.699   4.449  1.2977 -1.0898 -1.3681
 2881SOL    HW212686   4.373   5.581   4.543 -0.7289  0.6174  1.1399
 2882SOL     OW12687   9.266   7.645   5.295  0.1029  0.5992 -0.0881
 2882SOL    HW112688   9.235   7.710   5.232  2.1748  1.4313 -0.3318
 2882SOL    HW212689   9.241   7.561   5.257 -3.5867  1.1355  0.7282
 2883SOL     OW12690   6.310   0.542   7.734  0.2293  0.3299 -0.5200
 2883SOL    HW112691   6.249   0.615   7.730  0.5989  0.5884 -1.9782
 2883SOL    HW212692   6.286   0.495   7.814 -0.6314  1.4934 -0.0665
 2884SOL     OW12693   4.801   3.485   7.326 -0.2597  0.0961 -0.4178
 2884SOL    HW112694   4.743   3.529   7.264 -0.2595 -0.9338 -1.1628
 2884SOL    HW212695   4.889   3.507   7.296 -0.2614  0.1442 -0.3870
 2885SOL     OW12696   6.800   1.022   0.486  0.2172  0.3100 -0.7512
 2885SOL    HW112697   6.769   0.951   0.541 -0.4597  1.4835  0.4382
 2885SOL    HW212698   6.747   1.015   0.406 -0.8755  0.3385 -0.0530
 2886SOL     OW12699   4.863   1.935   9.366  0.0458 -0.1326  0.0176
 2886SOL    HW112700   4.770   1.914   9.378  0.3548 -1.8716 -0.3651
 2886SOL    HW212701   4.863   2.006   9.301 -0.9680 -1.7037 -1.8252
 2887SOL     OW12702   3.762   5.716   0.401  0.4330  0.1210  0.0252
 2887SOL    HW112703   3.780   5.802   0.363  2.7460 -0.4813 -0.4181
 2887SOL    HW212704   3.747   5.659   0.326 -0.4724 -0.0022  0.2896
 2888SOL     OW12705   0.803   5.530   1.352 -0.3093  0.7364 -0.5721
 2888SOL    HW112706   0.844   5.601   1.303 -1.2520  1.5444 -0.2206
 2888SOL    HW212707   0.855   5.523   1.432 -0.5279  1.4058 -0.3624
 2889SOL     OW12708   5.360   9.023   9.712 -0.0991 -0.0457 -0.4887
 2889SOL    HW112709   5.280   8.984   9.747 -0.9825 -0.2164 -2.5629
 2889SOL    HW212710   5.338   9.115   9.698 -0.2421 -0.2764 -1.8734
 2890SOL     OW12711  10.023   6.555   2.395 -0.2421  0.5651  0.1259
 2890SOL    HW112712  10.118   6.565   2.402  0.0579 -1.3366 -0.6300
 2890SOL    HW212713   9.990   6.572   2.483  0.9866 -0.3488  0.7993
 2891SOL     OW12714   1.734   1.203   0.623  0.0218  0.0015  0.1817
 2891SOL    HW112715   1.762   1.289   0.654  1.0363  0.4127 -1.6995
 2891SOL    HW212716   1.812   1.168   0.578 -0.8554 -1.2057 -0.4400
 2892SOL     OW12717   9.020   7.561   4.625  0.4332  0.5330  0.2835
 2892SOL    HW112718   8.978   7.534   4.707  2.0780 -0.4532  0.8527
 2892SOL    HW212719   8.949   7.599   4.573 -0.8446  0.2756  1.7622
 2893SOL     OW12720   2.211   3.017   6.613  0.6385 -0.0448  0.6533
 2893SOL    HW112721   2.237   2.928   6.588 -1.2048  0.0919 -2.0949
 2893SOL    HW212722   2.294   3.063   6.625  1.7340 -1.0267 -2.2957
 2894SOL     OW12723   0.406   0.637   5.123  0.3718 -0.1535  0.2736
 2894SOL    HW112724   0.492   0.680   5.115 -0.1669  0.6892 -1.4977
 2894SOL    HW212725   0.365   0.651   5.038 -0.9679 -1.7975  0.6119
 2895SOL     OW12726   5.413   9.800   2.634  0.5800  0.0554  0.3470
 2895SOL    HW112727   5.434   9.845   2.552  0.5493 -0.8072 -0.1434
 2895SOL    HW212728   5.401   9.871   2.698 -0.6945  0.8114 -0.6920
 2896SOL     OW12729   3.051   2.347   3.813  0.6487  0.0609 -0.0294
 2896SOL    HW112730   3.066   2.366   3.720  0.4167  1.0789  0.1302
 2896SOL    HW212731   3.053   2.252   3.818  0.3286 -0.0251 -1.1423
 2897SOL     OW12732   6.226   7.771   1.527 -0.2144  0.3119 -0.1610
 2897SOL    HW112733   6.306   7.743   1.571  0.0797  1.6196  0.1524
 2897SOL    HW212734   6.228   7.726   1.443  0.7480  0.1834 -0.0708
 2898SOL     OW12735   6.361   5.805   9.089  0.0450 -0.1448 -0.3960
 2898SOL    HW112736   6.416   5.757   9.151 -0.3888 -0.4202 -0.2204
 2898SOL    HW212737   6.273   5.797   9.125 -0.1502  0.0464 -0.8334
 2899SOL     OW12738  10.207   9.934   3.850 -0.1568  0.0443 -0.0140
 2899SOL    HW112739  10.190   9.842   3.870 -2.1394  0.6853  1.6267
 2899SOL    HW212740  10.126   9.980   3.876  0.9020  2.2937 -0.4148
 2900SOL     OW12741   4.703   6.276   3.110 -0.1771  0.2647  0.3781
 2900SOL    HW112742   4.647   6.203   3.136 -0.5061  0.3213 -0.1601
 2900SOL    HW212743   4.784   6.262   3.158  0.0079 -0.8276 -0.2150
 2901SOL     OW12744   9.435   0.091   3.595 -0.8446  0.4968 -0.1038
 2901SOL    HW112745   9.525   0.072   3.621 -0.0506  1.5145 -1.8887
 2901SOL    HW212746   9.388   0.106   3.677  0.4417 -0.6955  0.8877
 2902SOL     OW12747   8.350   7.309   2.370  0.4612  0.0830  0.4824
 2902SOL    HW112748   8.445   7.311   2.384  0.5099 -1.7038  0.6071
 2902SOL    HW212749   8.337   7.244   2.301 -0.5578  1.6698 -0.8837
 2903SOL     OW12750   7.590   7.714   8.597  0.2842 -0.0914 -0.5481
 2903SOL    HW112751   7.659   7.722   8.662 -0.2728 -1.4032  0.2516
 2903SOL    HW212752   7.549   7.630   8.616  0.7174 -0.9976 -3.2027
 2904SOL     OW12753   0.709   4.496   2.591  0.0873  0.0136 -0.1505
 2904SOL    HW112754   0.731   4.540   2.673 -0.2715 -1.4113  0.7358
 2904SOL    HW212755   0.705   4.567   2.526  0.4208  1.1525  1.0387
 2905SOL     OW12756   2.495   7.681   0.060 -0.5856  0.2572  0.3811
 2905SOL    HW112757   2.442   7.754   0.092 -2.0058 -0.9634  0.9005
 2905SOL    HW212758   2.436   7.632   0.003 -0.1675 -1.4046  1.3343
 2906SOL     OW12759   8.682   2.717   1.410 -0.2276 -0.0583  1.5736
 2906SOL    HW112760   8.634   2.634   1.401  0.9078 -0.6409  0.4590
 2906SOL    HW212761   8.727   2.727   1.326  0.2965  1.2800  1.9946
 2907SOL     OW12762   1.705   4.433   9.319  0.1829  0.5320  0.0291
 2907SOL    HW112763   1.740   4.371   9.383 -0.2744  0.7093  0.4599
 2907SOL    HW212764   1.622   4.394   9.290 -0.0479  0.8790  0.2102
 2908SOL     OW12765   2.650   2.856   9.387 -0.1616  1.0600 -0.4307
 2908SOL    HW112766   2.575   2.891   9.434  0.5648  0.6675  1.0795
 2908SOL    HW212767   2.722   2.916   9.407  0.4048  0.3088 -0.1616
 2909SOL     OW12768   8.038   5.158   9.321  0.4292  0.4222  0.0576
 2909SOL    HW112769   7.965   5.220   9.321  0.4069  0.5399  2.8766
 2909SOL    HW212770   8.001   5.076   9.288 -0.9208  0.5809  1.0845
 2910SOL     OW12771   0.973   3.484   4.058 -0.1222 -0.6297 -0.7229
 2910SOL    HW112772   1.048   3.543   4.065 -0.2329 -0.5140 -0.4867
 2910SOL    HW212773   1.010   3.397   4.066 -0.0722 -0.5540 -0.0716
 2911SOL     OW12774   1.222  10.015   9.184 -0.3991 -0.0730 -0.3469
 2911SOL    HW112775   1.267  10.068   9.119  0.5965 -0.6924 -0.1882
 2911SOL    HW212776   1.183   9.944   9.134  2.6318 -2.1212 -0.1195
 2912SOL     OW12777   9.966   9.474   5.664 -0.1103 -0.1345  0.2632
 2912SOL    HW112778   9.986   9.380   5.671 -1.4445 -0.4320  0.4455
 2912SOL    HW212779  10.036   9.510   5.609  1.3485 -0.9190  1.5060
 2913SOL     OW12780   9.198   6.162   1.585  0.2693 -0.3899  0.3849
 2913SOL    HW112781   9.181   6.213   1.665  1.2547 -0.3289  0.5719
 2913SOL    HW212782   9.114   6.122   1.564  0.2766 -1.4575  2.2013
 2914SOL     OW12783   5.615   4.388   0.680  0.7736 -0.1678  0.1212
 2914SOL    HW112784   5.616   4.295   0.658 -0.4414 -0.0821 -0.4256
 2914SOL    HW212785   5.524   4.405   0.706  0.6035  1.1449 -1.1749
 2915SOL     OW12786   6.163   9.943   8.718  0.1634  0.3897  0.9333
 2915SOL    HW112787   6.257   9.950   8.701 -0.0157  2.6364  0.6034
 2915SOL    HW212788   6.140  10.025   8.762 -2.2546  1.5469 -2.0948
 2916SOL     OW12789   4.683   2.656   9.575 -0.4598  0.3254 -0.1760
 2916SOL    HW112790   4.596   2.642   9.538 -0.0675  0.7053 -1.2869
 2916SOL    HW212791   4.707   2.571   9.612 -1.2096  0.1562 -0.0613
 2917SOL     OW12792   9.841   8.656   2.603  0.4292  0.2061 -0.0428
 2917SOL    HW112793   9.768   8.719   2.597  2.1615  2.3344  0.0664
 2917SOL    HW212794   9.838   8.623   2.693  0.1793  1.0273  0.2565
 2918SOL     OW12795   0.634   7.870   3.793  0.2813  0.1693  0.4391
 2918SOL    HW112796   0.629   7.837   3.883  2.7070 -0.3982  0.4484
 2918SOL    HW212797   0.586   7.805   3.741 -1.2360  0.5642  1.2915
 2919SOL     OW12798   1.279   4.631   6.043  0.4029 -0.5103  0.4139
 2919SOL    HW112799   1.320   4.547   6.059 -0.5797 -1.1929 -0.4576
 2919SOL    HW212800   1.190   4.622   6.078 -0.1295 -0.3163 -0.8103
 2920SOL     OW12801   9.031   4.898   0.377  0.0707  0.0989 -0.8362
 2920SOL    HW112802   9.015   4.810   0.410 -0.3532 -0.0881 -1.5318
 2920SOL    HW212803   9.125   4.899   0.357 -0.0398 -0.3924 -1.3927
 2921SOL     OW12804   1.628   4.366   1.897  0.3536 -0.4422  0.4781
 2921SOL    HW112805   1.649   4.367   1.804  0.3774 -0.9870  0.4768
 2921SOL    HW212806   1.561   4.298   1.906 -1.3160  1.1230  0.4984
 2922SOL     OW12807   9.716   5.319   9.791  0.1268  0.1542 -0.2055
 2922SOL    HW112808   9.675   5.318   9.705  0.8519 -0.9176 -0.5601
 2922SOL    HW212809   9.780   5.247   9.789 -1.3005 -1.3166  1.9448
 2923SOL     OW12810   4.791   8.304   5.694  0.3001 -0.5594 -0.4399
 2923SOL    HW112811   4.716   8.282   5.748 -0.4513 -0.4303 -1.4049
 2923SOL    HW212812   4.794   8.234   5.628  0.2076  0.1659 -1.2216
 2924SOL     OW12813   3.297   6.144   7.683 -1.1012  0.1855 -0.3458
 2924SOL    HW112814   3.317   6.205   7.754 -1.9764 -0.7739  0.7726
 2924SOL    HW212815   3.217   6.178   7.643 -2.9208 -1.3049  1.7271
 2925SOL     OW12816   8.622   5.718   6.178  0.1463 -0.4010  0.0746
 2925SOL    HW112817   8.620   5.623   6.186  2.4927 -0.6307 -1.2643
 2925SOL    HW212818   8.671   5.748   6.255  1.1000 -0.4696 -0.4921
 2926SOL     OW12819   7.611   7.990   7.205 -0.4017 -0.5497  0.1368
 2926SOL    HW112820   7.571   8.077   7.201 -2.0486 -1.1447  1.9598
 2926SOL    HW212821   7.705   8.007   7.208 -0.7149  1.4018  2.8972
 2927SOL     OW12822   1.744   5.234   7.391  0.8402  0.1475 -0.1279
 2927SOL    HW112823   1.653   5.241   7.360 -0.2249 -0.5037  2.6084
 2927SOL    HW212824   1.776   5.325   7.390  0.6021  0.2715 -2.1238
 2928SOL     OW12825   7.825   6.754   3.815 -0.6848  0.3313  0.5015
 2928SOL    HW112826   7.871   6.757   3.731 -2.3830 -2.3447 -0.6702
 2928SOL    HW212827   7.893   6.735   3.879  0.1577 -1.9046 -0.9413
 2929SOL     OW12828   8.462   1.895   4.306  0.1776  0.3465  1.0130
 2929SOL    HW112829   8.550   1.859   4.318 -0.0998 -1.6643 -1.8701
 2929SOL    HW212830   8.419   1.834   4.246 -2.4585  2.4288  0.5794
 2930SOL     OW12831   8.747   1.196   9.885  0.4270  0.0371 -0.0962
 2930SOL    HW112832   8.783   1.108   9.873  0.3827 -0.0515  0.4159
 2930SOL    HW212833   8.777   1.223   9.972  1.0541  0.8184 -0.5378
 2931SOL     OW12834   2.388   4.813   6.291  0.2674 -0.2732  0.1373
 2931SOL    HW112835   2.350   4.726   6.302  1.1966 -0.5333  1.5704
 2931SOL    HW212836   2.322   4.872   6.326  0.1114 -0.4912  0.2171
 2932SOL     OW12837   8.760   0.495   3.765  0.6015 -0.0263 -0.1681
 2932SOL    HW112838   8.829   0.556   3.789 -0.1463  1.1521 -0.8513
 2932SOL    HW212839   8.741   0.446   3.845  0.1241  1.7750  0.8807
 2933SOL     OW12840   0.161   7.484   0.022 -0.2886 -0.0521 -0.4082
 2933SOL    HW112841   0.125   7.562  -0.019  0.4918  0.3550 -0.3313
 2933SOL    HW212842   0.247   7.473  -0.017 -0.1419 -0.5228  0.0244
 2934SOL     OW12843   1.702   4.721   5.299 -0.2151 -0.4523  0.2350
 2934SOL    HW112844   1.652   4.782   5.353  1.6699  1.4191 -0.0113
 2934SOL    HW212845   1.730   4.653   5.361 -1.0805 -0.2734  0.8456
 2935SOL     OW12846   1.791   8.774   3.209 -0.3231  0.4141  0.4626
 2935SOL    HW112847   1.834   8.801   3.128 -0.4487 -0.5118  0.0814
 2935SOL    HW212848   1.835   8.825   3.277  0.5097  0.4142 -0.0645
 2936SOL     OW12849   2.665   5.219   4.929  0.0271 -0.3560  0.1849
 2936SOL    HW112850   2.738   5.205   4.869 -0.0520  0.0563 -0.0083
 2936SOL    HW212851   2.633   5.131   4.949  0.5002 -0.5296  0.1763
 2937SOL     OW12852   0.422   8.059   4.600  0.5269 -0.5549 -0.5689
 2937SOL    HW112853   0.507   8.087   4.634  1.9346 -0.8562 -3.5653
 2937SOL    HW212854   0.432   7.965   4.584 -0.5837 -0.7055 -0.4570
 2938SOL     OW12855   8.713   1.166   3.878 -0.0317  0.5392  0.2605
 2938SOL    HW112856   8.691   1.123   3.961  1.0579  1.5376  1.1162
 2938SOL    HW212857   8.629   1.189   3.839 -0.5652  0.5963  1.3979
 2939SOL     OW12858   2.610   7.260   8.824 -0.2840  0.3431 -0.0426
 2939SOL    HW112859   2.632   7.331   8.884  1.1895  0.4068 -0.6119
 2939SOL    HW212860   2.676   7.193   8.841 -0.1647  0.1417 -1.1960
 2940SOL     OW12861   8.830   6.451   5.305  0.0644  0.0748  0.1253
 2940SOL    HW112862   8.808   6.475   5.215 -1.1961 -1.2069  0.0498
 2940SOL    HW212863   8.754   6.403   5.336  1.5909 -2.0481  0.8839
 2941SOL     OW12864   8.556   4.623   1.161  0.2321  0.3310 -0.0461
 2941SOL    HW112865   8.594   4.668   1.086  2.0447 -0.1564  0.5487
 2941SOL    HW212866   8.621   4.632   1.230 -0.1527 -1.6853  0.6296
 2942SOL     OW12867   6.972   4.485   1.899 -0.1369  0.3165 -0.3475
 2942SOL    HW112868   6.942   4.402   1.936 -0.3801  0.1434 -0.9160
 2942SOL    HW212869   6.927   4.491   1.814 -0.6452  1.3458 -0.0268
 2943SOL     OW12870   3.446   4.370   0.392  0.1696  0.2038 -0.1761
 2943SOL    HW112871   3.541   4.371   0.405 -0.0154  0.5596  1.2744
 2943SOL    HW212872   3.419   4.460   0.411 -0.5930 -0.1612  0.4919
 2944SOL     OW12873   9.331   8.476   5.388 -0.4565 -0.3641 -0.0305
 2944SOL    HW112874   9.263   8.544   5.396 -1.7024 -1.5910  0.3038
 2944SOL    HW212875   9.290   8.398   5.426  1.0696 -1.2179 -0.0844
 2945SOL     OW12876   0.650   5.380   5.387 -0.8982 -0.3582  0.3916
 2945SOL    HW112877   0.575   5.419   5.433 -1.4824 -1.5896  0.5441
 2945SOL    HW212878   0.727   5.422   5.425 -1.4789  0.3637  0.7938
 2946SOL     OW12879   7.509   9.609   9.671  0.5102 -0.2777  0.4859
 2946SOL    HW112880   7.437   9.670   9.683  1.3449  1.3340 -1.9746
 2946SOL    HW212881   7.469   9.523   9.678 -1.5732  0.5679 -0.2639
 2947SOL     OW12882   8.565   8.528   4.708 -0.5235  0.3333  0.2196
 2947SOL    HW112883   8.489   8.584   4.690 -1.4159 -0.5416  1.0984
 2947SOL    HW212884   8.539   8.441   4.678  0.6806  0.2861 -0.7366
 2948SOL     OW12885   9.965   9.616   9.349 -0.0258  0.3725  0.0531
 2948SOL    HW112886  10.041   9.673   9.344 -1.5881  2.4626 -2.4855
 2948SOL    HW212887   9.913   9.652   9.422  0.8304 -0.3650  1.0554
 2949SOL     OW12888   4.287   9.870   2.449  0.1901  0.1102 -0.0944
 2949SOL    HW112889   4.380   9.874   2.471 -0.2247  0.0029  1.8327
 2949SOL    HW212890   4.264   9.778   2.459 -0.1269  0.1335 -0.5753
 2950SOL     OW12891   5.195   9.286   6.833 -0.1147  0.7639 -0.2257
 2950SOL    HW112892   5.229   9.274   6.921  2.3542  0.6636 -1.1056
 2950SOL    HW212893   5.131   9.216   6.822  0.6550 -0.1722  0.9745
 2951SOL     OW12894   8.682   1.193   8.518 -0.2412  0.0599  0.1091
 2951SOL    HW112895   8.611   1.129   8.506 -0.3782 -0.2897  2.3874
 2951SOL    HW212896   8.637   1.278   8.518 -0.4633 -0.0550  0.0496
 2952SOL     OW12897   8.059   4.987   4.385 -0.5481  0.2780 -0.0900
 2952SOL    HW112898   8.003   5.008   4.310 -1.0263 -1.4071 -0.2525
 2952SOL    HW212899   7.998   4.980   4.459 -0.2360  0.6887  0.2133
 2953SOL     OW12900   1.637   5.948   2.740  0.2606  0.3377 -0.6086
 2953SOL    HW112901   1.617   6.041   2.729 -0.7991  0.3204  0.8695
 2953SOL    HW212902   1.577   5.903   2.680 -1.1883  0.5161  0.6276
 2954SOL     OW12903   3.259   3.465   3.094  0.4649  0.0072  0.1985
 2954SOL    HW112904   3.188   3.462   3.159 -1.5211 -0.8966 -1.8754
 2954SOL    HW212905   3.337   3.441   3.143 -0.8262  0.0165  2.3907
 2955SOL     OW12906   3.402   2.453   2.690 -0.3773 -0.5075  0.1665
 2955SOL    HW112907   3.473   2.473   2.628  0.9876 -0.8720  1.5664
 2955SOL    HW212908   3.383   2.360   2.675  1.6086 -1.2531  1.8540
 2956SOL     OW12909   7.582   7.123   4.627 -0.2566  0.1820 -0.4676
 2956SOL    HW112910   7.528   7.045   4.640  0.7055 -0.7339 -1.8058
 2956SOL    HW212911   7.633   7.131   4.708 -2.0087  0.8127  0.6424
 2957SOL     OW12912   2.289   1.218   8.171  0.2133  0.0072 -0.0119
 2957SOL    HW112913   2.306   1.308   8.143 -0.2922  0.1680  0.1813
 2957SOL    HW212914   2.371   1.189   8.211 -0.2760  1.1777  2.0002
 2958SOL     OW12915   8.932   1.097   4.810 -0.1834 -0.3905 -0.6564
 2958SOL    HW112916   8.951   1.135   4.724 -1.7216  0.7272 -0.5465
 2958SOL    HW212917   8.937   1.171   4.870  0.5195 -1.1023  0.1898
 2959SOL     OW12918   0.356   1.829   9.582 -0.0202  0.5247  0.1686
 2959SOL    HW112919   0.450   1.827   9.599  0.4386  2.0235 -1.7415
 2959SOL    HW212920   0.347   1.795   9.493 -1.3992 -0.4061  0.6419
 2960SOL     OW12921   7.620   3.936   3.696  0.0209 -0.0119 -0.3202
 2960SOL    HW112922   7.671   3.882   3.757  0.7944  1.4812  0.4007
 2960SOL    HW212923   7.560   3.985   3.752 -0.5717  0.0040 -0.9541
 2961SOL     OW12924   5.144   1.649   0.699 -0.1874 -0.1647 -0.5662
 2961SOL    HW112925   5.237   1.639   0.720 -0.3925 -1.1416 -0.0970
 2961SOL    HW212926   5.128   1.743   0.707  0.6531 -0.0487 -0.1707
 2962SOL     OW12927   5.435   0.911   8.813 -0.3415  0.3785  0.0391
 2962SOL    HW112928   5.481   0.829   8.793  0.9976  1.4332 -1.5129
 2962SOL    HW212929   5.431   0.914   8.909  0.6291 -0.9521  0.1469
 2963SOL     OW12930  10.074   1.100   9.295 -0.1901 -0.0765  0.1390
 2963SOL    HW112931  10.082   1.164   9.365  2.7308  0.9805 -0.9913
 2963SOL    HW212932   9.985   1.112   9.261 -0.9230  0.8452  2.2362
 2964SOL     OW12933   0.121   7.086   3.230  0.2147  0.4372  0.2105
 2964SOL    HW112934   0.166   7.004   3.210  1.2536  1.0348 -0.0019
 2964SOL    HW212935   0.109   7.083   3.325 -0.7532 -0.4419  0.0724
 2965SOL     OW12936   0.209   0.805   0.946 -0.3778 -0.2108  0.6223
 2965SOL    HW112937   0.203   0.715   0.980 -0.1305 -0.7126 -0.5971
 2965SOL    HW212938   0.219   0.794   0.851  0.7069  1.0800  0.5518
 2966SOL     OW12939   8.358   6.054   4.539  0.3223  0.0741  0.0853
 2966SOL    HW112940   8.355   6.145   4.510 -2.8939  0.0941  0.0779
 2966SOL    HW212941   8.305   6.052   4.619 -0.9105 -1.9688 -0.6759
 2967SOL     OW12942   8.937   1.505   5.913 -0.1053 -0.0531 -0.3441
 2967SOL    HW112943   8.939   1.458   5.996  0.3342 -1.5243 -1.1625
 2967SOL    HW212944   9.010   1.470   5.863 -2.4208 -1.8535 -2.7471
 2968SOL     OW12945   8.167   7.892   6.077 -0.1747 -0.1265 -0.1162
 2968SOL    HW112946   8.166   7.921   5.985 -1.3217 -0.2653 -0.1658
 2968SOL    HW212947   8.251   7.922   6.111  0.2372 -0.0104 -1.1945
 2969SOL     OW12948   9.118   3.333   0.885 -0.0465 -0.4147  0.0309
 2969SOL    HW112949   9.125   3.426   0.906 -2.3734  1.3873 -5.3599
 2969SOL    HW212950   9.196   3.313   0.833 -0.3861 -0.9279 -0.3050
 2970SOL     OW12951   4.815   1.449   3.227  0.1859 -0.1028 -0.4848
 2970SOL    HW112952   4.775   1.385   3.285  0.1709  1.6345  1.5496
 2970SOL    HW212953   4.801   1.533   3.270  1.0196  1.1969 -2.5726
 2971SOL     OW12954   0.559   5.671   7.792 -0.2007  0.3178  0.5048
 2971SOL    HW112955   0.580   5.676   7.885 -0.7561  1.4236  0.5843
 2971SOL    HW212956   0.464   5.665   7.789 -0.1526 -0.3797  0.0158
 2972SOL     OW12957   4.274   0.585   2.027  0.3187 -0.0366  0.4480
 2972SOL    HW112958   4.341   0.518   2.037 -0.0932 -0.5703 -0.2943
 2972SOL    HW212959   4.193   0.543   2.054  0.3673  0.8166  2.0118
 2973SOL     OW12960   5.079   2.932   6.901  0.2423  0.0092 -0.1679
 2973SOL    HW112961   5.053   3.023   6.921 -1.0419 -0.5046  0.6588
 2973SOL    HW212962   5.170   2.927   6.929 -0.5529  0.2187  2.8355
 2974SOL     OW12963   5.385   0.217   2.776  0.0807  0.3290 -0.0734
 2974SOL    HW112964   5.411   0.146   2.718 -1.7366 -1.0172  0.6662
 2974SOL    HW212965   5.450   0.216   2.847  0.8811  0.3751 -0.7918
 2975SOL     OW12966   6.049   7.499   2.665 -0.0228 -0.4744  0.1374
 2975SOL    HW112967   6.117   7.444   2.704 -1.2595 -1.3564  1.1653
 2975SOL    HW212968   6.096   7.566   2.616  1.5564 -1.5364  0.1524
 2976SOL     OW12969   6.266   8.071   7.251 -0.1371 -0.4168  0.0690
 2976SOL    HW112970   6.270   7.981   7.283  2.3384  0.5010  2.7977
 2976SOL    HW212971   6.355   8.090   7.220 -0.9082  0.7602 -1.5717
 2977SOL     OW12972   2.969   7.702   9.044  0.0695 -0.2129 -0.5316
 2977SOL    HW112973   3.042   7.691   9.106  0.1053  0.4102 -0.4604
 2977SOL    HW212974   2.915   7.770   9.083 -0.0282  0.0238 -1.0771
 2978SOL     OW12975   3.759   1.978   4.077 -0.2878  0.1521 -0.3527
 2978SOL    HW112976   3.768   1.925   4.156  1.8009  0.3107 -0.4288
 2978SOL    HW212977   3.792   2.064   4.102 -0.8585  0.5843 -1.0485
 2979SOL     OW12978   6.103   9.722   0.686 -0.7751 -0.2305 -0.7070
 2979SOL    HW112979   6.124   9.634   0.655  1.3647 -0.3790  0.8999
 2979SOL    HW212980   6.121   9.779   0.611  0.0953 -0.9645 -1.0828
 2980SOL     OW12981   3.804   2.114   5.116  0.6376 -0.3892 -0.3299
 2980SOL    HW112982   3.719   2.071   5.107  1.0291 -1.1509 -0.5556
 2980SOL    HW212983   3.821   2.116   5.210  0.1613  0.1960 -0.2539
 2981SOL     OW12984   5.324  10.123   9.442 -0.3023  0.6582  0.0161
 2981SOL    HW112985   5.312  10.173   9.523 -1.8131 -0.2315  0.3887
 2981SOL    HW212986   5.342  10.034   9.473  1.9141  0.8272 -0.6345
 2982SOL     OW12987   6.694   8.340   1.412 -0.4700 -0.0741 -0.0206
 2982SOL    HW112988   6.742   8.272   1.459 -0.8232 -0.1904  0.1736
 2982SOL    HW212989   6.602   8.312   1.415 -0.2598 -1.4693 -3.0637
 2983SOL     OW12990   1.677   1.988   4.860 -0.4486  0.0041 -0.5227
 2983SOL    HW112991   1.710   1.901   4.884 -1.4595 -0.0629  0.7031
 2983SOL    HW212992   1.586   1.973   4.837 -0.7049  0.7785 -0.0428
 2984SOL     OW12993   8.106   7.062   9.871  0.1667  0.1639  0.4924
 2984SOL    HW112994   8.166   7.012   9.926 -1.0583  0.6893  2.3840
 2984SOL    HW212995   8.111   7.019   9.786  0.3598 -2.2005  1.6233
 2985SOL     OW12996   5.921   1.602   4.135  0.1882 -0.5759  0.0193
 2985SOL    HW112997   6.008   1.579   4.101 -0.2374 -0.2740 -1.3013
 2985SOL    HW212998   5.936   1.683   4.184  0.2884  0.7703 -2.1344
 2986SOL     OW12999   3.643   0.611   0.890 -0.2107 -0.3303  0.2376
 2986SOL    HW113000   3.668   0.530   0.845  1.5096  1.3977 -2.2172
 2986SOL    HW213001   3.686   0.606   0.975  0.7884 -1.5463 -0.3097
 2987SOL     OW13002   3.805   8.414   0.584 -0.6978 -0.1440 -0.0327
 2987SOL    HW113003   3.877   8.440   0.641 -0.3669 -0.8525 -0.1147
 2987SOL    HW213004   3.739   8.482   0.596  0.5237  1.3030 -0.9960
 2988SOL     OW13005   1.855   5.420   1.598 -0.2305  0.2311  0.1545
 2988SOL    HW113006   1.883   5.504   1.633 -1.0569  0.5660  0.0441
 2988SOL    HW213007   1.926   5.393   1.539  0.6923  0.1519  1.2788
 2989SOL     OW13008   7.551   7.380   5.738 -0.0741  0.3215  0.2448
 2989SOL    HW113009   7.476   7.327   5.712 -0.5852  0.8375  0.6370
 2989SOL    HW213010   7.626   7.319   5.734 -0.3478  0.0343 -1.0292
 2990SOL     OW13011   1.832   5.607   9.929 -0.2500 -0.6480 -0.4268
 2990SOL    HW113012   1.859   5.677   9.870 -2.1148  0.2539 -0.2837
 2990SOL    HW213013   1.911   5.555   9.942  1.3896  1.7537 -0.0663
 2991SOL     OW13014   1.437   0.017   7.563  0.1780  0.2452  0.2986
 2991SOL    HW113015   1.486   0.084   7.516  0.1632  0.1264  0.1116
 2991SOL    HW213016   1.494  -0.059   7.563 -0.3820 -0.1910 -0.7514
 2992SOL     OW13017   3.640   9.770   7.048  0.2337  0.1206  0.0757
 2992SOL    HW113018   3.583   9.811   6.983 -0.1370  0.2063  0.4543
 2992SOL    HW213019   3.726   9.766   7.005 -0.2309 -0.7639 -0.8202
 2993SOL     OW13020   2.410   1.679   8.935 -0.0657 -0.1879 -0.3674
 2993SOL    HW113021   2.496   1.639   8.951 -0.1503 -0.5529 -0.7862
 2993SOL    HW213022   2.426   1.773   8.937  0.3523 -0.2548 -0.5021
 2994SOL     OW13023   9.128   4.841   3.580 -0.3227  0.3403 -0.2377
 2994SOL    HW113024   9.146   4.750   3.602 -2.2006 -0.1718 -0.6814
 2994SOL    HW213025   9.137   4.889   3.663  0.3797 -0.2763  0.0503
 2995SOL     OW13026   9.374   9.789   7.898  0.9317  0.5471 -0.1948
 2995SOL    HW113027   9.366   9.715   7.958 -0.8150 -0.7033 -1.8207
 2995SOL    HW213028   9.411   9.751   7.818 -0.1268  1.3607 -1.1068
 2996SOL     OW13029   2.914   3.372   6.146  0.1717 -0.2501  0.0762
 2996SOL    HW113030   3.002   3.354   6.179 -0.3491  0.7797  2.2252
 2996SOL    HW213031   2.879   3.287   6.122  1.1657 -0.8856  0.8047
 2997SOL     OW13032   7.773   5.521   2.786 -0.7720 -0.0163 -0.3895
 2997SOL    HW113033   7.859   5.482   2.771 -0.1623  0.8055  0.8738
 2997SOL    HW213034   7.765   5.588   2.718 -0.7015 -0.4949 -0.8870
 2998SOL     OW13035   1.083  10.218   5.531  0.0158  0.4565 -0.1533
 2998SOL    HW113036   1.050  10.214   5.620 -0.3958  0.6629 -0.2939
 2998SOL    HW213037   1.112  10.129   5.511  1.4151  0.6944  0.6697
 2999SOL     OW13038   6.928   8.270   5.153  0.4987  0.3337  0.6308
 2999SOL    HW113039   6.882   8.188   5.172  0.1846  0.5964  1.0236
 2999SOL    HW213040   7.004   8.269   5.211  1.9980 -0.9175 -1.2289
 3000SOL     OW13041   2.044   1.403   9.722  0.3022 -0.2841 -0.2289
 3000SOL    HW113042   2.089   1.482   9.692 -0.5552  0.3440  0.1005
 3000SOL    HW213043   2.081   1.333   9.668 -1.6389  0.8733 -3.3331
 3001SOL     OW13044   7.731   4.632   6.145  0.4916 -0.0842  0.5813
 3001SOL    HW113045   7.636   4.621   6.139  0.2306  1.3038  1.6073
 3001SOL    HW213046   7.767   4.558   6.096 -1.1057  0.5842 -1.7670
 3002SOL     OW13047   7.192   4.731   9.686  0.1945  0.1119  0.3392
 3002SOL    HW113048   7.262   4.691   9.635 -0.5435 -1.4455  0.5184
 3002SOL    HW213049   7.221   4.822   9.697  1.6365 -0.1970 -0.5501
 3003SOL     OW13050   5.071   0.789   7.687 -0.1240  0.3471  0.1545
 3003SOL    HW113051   5.010   0.839   7.740 -1.5855  0.9780 -1.9923
 3003SOL    HW213052   5.028   0.704   7.674  1.5947 -1.0010  2.3836
 3004SOL     OW13053   1.010   1.477   4.855 -0.8038  0.3113  0.7378
 3004SOL    HW113054   1.013   1.414   4.927  1.1758 -0.5781 -0.0501
 3004SOL    HW213055   1.101   1.505   4.844 -1.3641  1.8904 -0.1712
 3005SOL     OW13056   9.337   3.433   0.720 -0.1986  0.3359  0.3194
 3005SOL    HW113057   9.385   3.409   0.640 -0.7678 -0.4857  0.2117
 3005SOL    HW213058   9.373   3.518   0.745  0.1324  0.5106 -0.6980
 3006SOL     OW13059   0.287   1.954   1.992 -0.2508  0.1465 -0.2437
 3006SOL    HW113060   0.210   1.957   2.048 -1.0232  0.0329 -1.2539
 3006SOL    HW213061   0.324   2.042   1.995 -0.9431  0.4490 -0.4339
 3007SOL     OW13062   2.423   1.252   0.728 -0.8280  0.0816 -0.1441
 3007SOL    HW113063   2.441   1.238   0.821 -3.4781  1.0000  0.6060
 3007SOL    HW213064   2.482   1.193   0.682  0.6851 -0.2600  2.1121
 3008SOL     OW13065   2.499   7.518   9.760  0.2426 -0.1658  0.3118
 3008SOL    HW113066   2.450   7.597   9.785  1.9932  0.8245  0.7931
 3008SOL    HW213067   2.465   7.495   9.674  0.0106  1.4245 -0.0606
 3009SOL     OW13068   9.017   2.671   6.939  0.0620  0.0116  0.0596
 3009SOL    HW113069   8.961   2.656   6.864  0.7271  1.7871 -0.8596
 3009SOL    HW213070   8.958   2.699   7.009 -0.3055  0.9320 -0.6073
 3010SOL     OW13071   7.241   5.851   2.249 -0.3268 -0.4375 -0.1131
 3010SOL    HW113072   7.226   5.776   2.306 -3.0087 -0.1807 -0.3643
 3010SOL    HW213073   7.269   5.921   2.308  0.8744 -1.2324  0.2930
 3011SOL     OW13074   7.082   3.035   1.248  0.2102 -0.0216 -0.1807
 3011SOL    HW113075   6.990   3.054   1.266  0.1094 -1.0625  0.4620
 3011SOL    HW213076   7.121   3.020   1.334  0.8226 -0.3141 -0.5003
 3012SOL     OW13077   4.007   0.937   1.404 -0.2372  0.2442  0.2042
 3012SOL    HW113078   4.028   0.959   1.314 -0.5114  1.5447  0.4337
 3012SOL    HW213079   4.028   1.016   1.454 -0.1148 -0.4414  1.2804
 3013SOL     OW13080   2.676   8.171   4.563 -0.4557  0.3423 -0.6061
 3013SOL    HW113081   2.702   8.117   4.488 -0.0870  0.1286 -0.3249
 3013SOL    HW213082   2.656   8.108   4.633  1.2393  0.5861  0.1366
 3014SOL     OW13083   4.559   6.070   9.406  0.2584 -0.0334 -0.4146
 3014SOL    HW113084   4.506   6.015   9.349  0.1580  0.8947 -1.2588
 3014SOL    HW213085   4.519   6.061   9.492 -0.2729 -0.6058 -0.7142
 3015SOL     OW13086   8.015   7.514   7.129 -0.3777  0.6627  0.1148
 3015SOL    HW113087   7.936   7.561   7.156  0.7199  1.5750  1.9115
 3015SOL    HW213088   8.080   7.583   7.115 -0.2324  0.0697 -2.8448
 3016SOL     OW13089   4.183   7.226   1.258 -0.2832 -0.3317  0.6340
 3016SOL    HW113090   4.187   7.260   1.168  0.6638 -1.3503  0.2743
 3016SOL    HW213091   4.224   7.295   1.311  0.1414 -0.1999  0.1394
 3017SOL     OW13092   7.307   1.309   6.368  0.0697 -0.1187 -0.2853
 3017SOL    HW113093   7.260   1.343   6.443 -0.8350  0.6047 -1.1542
 3017SOL    HW213094   7.367   1.379   6.343 -0.5435  0.1756 -0.9971
 3018SOL     OW13095   7.281   3.282   4.591  0.2586 -0.6785 -0.2707
 3018SOL    HW113096   7.273   3.376   4.573  3.4054 -0.3234 -0.4431
 3018SOL    HW213097   7.193   3.247   4.579 -1.1559  2.3278  0.4063
 3019SOL     OW13098   3.334   1.644   5.564  0.1068  0.5549  0.1896
 3019SOL    HW113099   3.385   1.707   5.513  0.8740  0.4064  0.7586
 3019SOL    HW213100   3.383   1.562   5.557  0.2536  0.5492  1.2028
 3020SOL     OW13101   0.650   7.036   7.236 -0.3247 -0.3543  0.3527
 3020SOL    HW113102   0.554   7.035   7.233 -0.3066 -0.5325 -2.2209
 3020SOL    HW213103   0.675   6.947   7.214  0.5007 -0.8827  3.0737
 3021SOL     OW13104   3.053   9.108   6.751  0.6562 -0.5901  0.0951
 3021SOL    HW113105   2.971   9.076   6.714 -0.6137  0.0439  2.2049
 3021SOL    HW213106   3.121   9.058   6.705 -0.5737  1.2483 -4.1967
 3022SOL     OW13107   3.106   0.220   5.630  0.2581  0.1832 -0.0158
 3022SOL    HW113108   3.073   0.289   5.572 -1.5017 -1.5570 -1.2303
 3022SOL    HW213109   3.043   0.216   5.701  0.1874 -0.3579 -0.1061
 3023SOL     OW13110   2.128   7.947   5.560 -0.5838  0.1900 -0.2562
 3023SOL    HW113111   2.083   7.946   5.645 -2.1624  0.8066 -1.0482
 3023SOL    HW213112   2.068   7.903   5.500  0.0801  0.6279 -1.2671
 3024SOL     OW13113   8.893   1.125   6.628  0.3539 -0.4266 -0.7460
 3024SOL    HW113114   8.952   1.090   6.695  0.7034 -0.7315 -1.2035
 3024SOL    HW213115   8.922   1.216   6.616 -0.0523 -0.2090 -0.1114
 3025SOL     OW13116   6.443   9.855   9.399  0.9344 -0.2056  0.1114
 3025SOL    HW113117   6.403   9.942   9.398  1.6668  0.1570  0.8879
 3025SOL    HW213118   6.523   9.865   9.346  1.7358 -0.0248  1.3168
 3026SOL     OW13119   4.509   7.543   8.674 -0.2365 -0.3355 -0.2283
 3026SOL    HW113120   4.500   7.610   8.607 -2.2661  2.2246  2.3347
 3026SOL    HW213121   4.420   7.512   8.690  0.2752 -1.4256  0.7693
 3027SOL     OW13122   5.450   5.864   8.225 -0.1024 -0.4669  0.2048
 3027SOL    HW113123   5.416   5.779   8.200 -0.1166 -0.2741 -0.4566
 3027SOL    HW213124   5.543   5.860   8.205  0.1309 -0.7272  1.2841
 3028SOL     OW13125   8.257   3.069   9.741  0.8398  0.1917 -0.3097
 3028SOL    HW113126   8.242   3.003   9.808  0.8740 -0.0715 -0.5607
 3028SOL    HW213127   8.282   3.019   9.663 -1.8370  0.2512 -1.3238
 3029SOL     OW13128   7.951  10.093   2.100  0.0422  0.1456 -0.3800
 3029SOL    HW113129   7.968  10.035   2.026  0.7338  0.3816 -0.4170
 3029SOL    HW213130   8.034  10.094   2.149 -0.8863 -1.2973  1.3074
 3030SOL     OW13131   9.368   5.552   8.517  0.6965 -0.3300 -0.0945
 3030SOL    HW113132   9.434   5.499   8.472  0.8546 -1.1567  1.0809
 3030SOL    HW213133   9.319   5.594   8.446  2.3803  0.1954 -0.9967
 3031SOL     OW13134   9.667   7.830   1.042  0.0116 -0.0189  0.0615
 3031SOL    HW113135   9.756   7.798   1.057 -0.0229  0.3955  1.2502
 3031SOL    HW213136   9.612   7.752   1.050  0.2584 -0.3019 -0.8097
 3032SOL     OW13137   8.609   6.283   9.979 -0.4461  0.0634  0.6428
 3032SOL    HW113138   8.627   6.311  10.069  0.0171  1.5036  0.1425
 3032SOL    HW213139   8.553   6.352   9.944  1.5808  1.0165 -0.9736
 3033SOL     OW13140   6.913   4.797   9.465 -0.4680 -0.4776  0.0384
 3033SOL    HW113141   6.906   4.714   9.511 -0.3959 -0.6557 -0.2745
 3033SOL    HW213142   6.827   4.838   9.477 -0.7078 -0.8693 -0.3381
 3034SOL     OW13143   1.941   2.157   1.491 -0.0852  0.1302  0.1087
 3034SOL    HW113144   1.949   2.101   1.568 -0.9248  1.3865  1.1596
 3034SOL    HW213145   2.029   2.192   1.478 -0.3394  1.5570  1.8509
 3035SOL     OW13146   3.986   6.934   0.359 -0.1797 -0.1541 -0.2834
 3035SOL    HW113147   3.891   6.928   0.350 -0.3689  0.7048  0.9216
 3035SOL    HW213148   4.005   7.026   0.345  0.4270 -0.2584 -0.1507
 3036SOL     OW13149   3.451   6.032   1.443  0.3345  0.1673  0.0023
 3036SOL    HW113150   3.453   6.070   1.531  0.3375 -0.4167  0.2560
 3036SOL    HW213151   3.372   6.070   1.403 -1.3408 -1.7513  1.2628
 3037SOL     OW13152   9.113   5.012   6.843 -0.1720 -0.2883 -0.1155
 3037SOL    HW113153   9.019   5.003   6.827 -0.0610 -0.9897 -0.3912
 3037SOL    HW213154   9.133   5.103   6.819 -0.5307 -0.5105 -1.3170
 3038SOL     OW13155   6.128   8.992   0.340 -0.0693  0.4674 -0.1268
 3038SOL    HW113156   6.117   8.924   0.274 -0.9506  0.8152 -0.3412
 3038SOL    HW213157   6.221   8.986   0.364 -0.4351 -1.7959  0.9515
 3039SOL     OW13158   1.514   3.431   6.320  0.6663 -0.1687 -0.2062
 3039SOL    HW113159   1.606   3.457   6.328  0.3892  1.3860 -1.5368
 3039SOL    HW213160   1.507   3.393   6.232  0.0146 -0.2426 -0.1320
 3040SOL     OW13161   4.387   9.641   6.516  0.6678 -0.0544  0.1566
 3040SOL    HW113162   4.321   9.700   6.553 -0.8409 -1.1079 -0.7431
 3040SOL    HW213163   4.449   9.628   6.587  0.0183  1.1151  0.9856
 3041SOL     OW13164   6.830   6.670   0.757 -0.2566  0.1767  0.0058
 3041SOL    HW113165   6.924   6.679   0.741 -0.3378  0.1699 -0.5021
 3041SOL    HW213166   6.790   6.712   0.681 -0.6714  1.3310  0.8313
 3042SOL     OW13167   2.487   7.448   4.755  0.3838 -0.1185  0.1035
 3042SOL    HW113168   2.538   7.526   4.732 -0.6057  0.2543 -0.9136
 3042SOL    HW213169   2.525   7.418   4.838  1.0171  1.2262  0.3203
 3043SOL     OW13170   9.507   4.315   0.790 -0.3637  0.5592 -1.1119
 3043SOL    HW113171   9.459   4.351   0.864 -0.5156 -1.6869 -0.0362
 3043SOL    HW213172   9.580   4.268   0.829 -0.7421 -1.1246 -2.3006
 3044SOL     OW13173   9.649   9.474   1.408  0.4351  0.6025  0.3503
 3044SOL    HW113174   9.604   9.542   1.458 -0.1901  0.5384 -0.1170
 3044SOL    HW213175   9.726   9.454   1.460  0.4291  1.3995  0.6856
 3045SOL     OW13176   9.413   7.261   7.577 -0.3848 -0.3086 -0.5388
 3045SOL    HW113177   9.449   7.348   7.560  0.5137 -0.7803 -1.0976
 3045SOL    HW213178   9.488   7.209   7.606 -0.8238 -1.0140 -0.6429
 3046SOL     OW13179   0.376  10.232   1.211 -0.3440  0.4632  0.6709
 3046SOL    HW113180   0.332  10.311   1.179  1.4493  1.8788  1.5079
 3046SOL    HW213181   0.459  10.263   1.247 -0.5329 -1.4935  3.1325
 3047SOL     OW13182   3.541   9.340   1.929  0.0227  0.0997 -0.4660
 3047SOL    HW113183   3.633   9.341   1.902 -0.1480 -0.7292 -1.1210
 3047SOL    HW213184   3.500   9.406   1.874  0.0462 -0.2093 -0.8574
 3048SOL     OW13185   4.408   8.039   0.584 -0.1004 -0.6024 -0.5084
 3048SOL    HW113186   4.478   8.102   0.598  0.5137 -1.6422  1.4680
 3048SOL    HW213187   4.436   7.987   0.508  0.3553  0.1747 -0.8784
 3049SOL     OW13188   5.961   1.741   6.790 -0.2666  0.4638 -0.0071
 3049SOL    HW113189   5.928   1.654   6.810  1.1480 -0.1660 -0.3028
 3049SOL    HW213190   5.958   1.747   6.695  0.4541  0.3946 -0.0383
 3050SOL     OW13191   1.601   7.166   7.971  0.5388  1.0255  0.2959
 3050SOL    HW113192   1.590   7.082   7.926 -0.6638  0.5527  1.4008
 3050SOL    HW213193   1.566   7.151   8.059 -1.4500  3.1732 -0.0217
 3051SOL     OW13194   6.819   7.878  10.229 -0.1470 -0.2690  0.4512
 3051SOL    HW113195   6.821   7.783  10.236  1.0701 -0.4453 -1.6054
 3051SOL    HW213196   6.875   7.909  10.300 -0.8599 -1.0361  1.3674
 3052SOL     OW13197   8.401   6.886   2.168 -0.3429  0.0171  0.1235
 3052SOL    HW113198   8.497   6.888   2.170 -0.3004 -1.2504  1.1489
 3052SOL    HW213199   8.376   6.969   2.128  1.1936  0.1016 -0.7580
 3053SOL     OW13200   7.772   3.360   1.299  0.3585  0.2772  0.2879
 3053SOL    HW113201   7.858   3.401   1.303  1.6095 -2.2898  1.7739
 3053SOL    HW213202   7.787   3.275   1.257 -1.4395 -0.2902  0.6849
 3054SOL     OW13203   2.942   8.248   5.608 -0.3218  0.0404  0.1737
 3054SOL    HW113204   2.974   8.232   5.519 -0.9810  0.3291 -0.1219
 3054SOL    HW213205   3.016   8.226   5.665  0.4128  0.7192 -0.4956
 3055SOL     OW13206   1.543   5.225   9.133 -0.4629  0.2280  0.3221
 3055SOL    HW113207   1.571   5.294   9.194  0.5625 -0.7158  0.9641
 3055SOL    HW213208   1.609   5.226   9.064 -0.5193 -0.0166  0.2647
 3056SOL     OW13209   4.711  10.065   8.722 -0.1347 -0.2265 -0.1146
 3056SOL    HW113210   4.677   9.983   8.686 -1.3834  0.0543  0.3912
 3056SOL    HW213211   4.634  10.112   8.752  0.4098  1.7379 -1.5728
 3057SOL     OW13212   2.790   2.503   5.017  0.2064 -0.1404  0.4382
 3057SOL    HW113213   2.857   2.450   5.060 -0.1174 -1.0947 -0.2077
 3057SOL    HW213214   2.753   2.446   4.950  1.2087  1.5111 -1.6623
 3058SOL     OW13215   6.300   6.159   6.417  0.2023  0.7126 -0.4314
 3058SOL    HW113216   6.348   6.198   6.491 -1.3582  1.0096  0.4702
 3058SOL    HW213217   6.365   6.105   6.373  1.3697  1.0878  0.7445
 3059SOL     OW13218   1.626   6.395   9.092 -0.6460 -0.3273  0.2556
 3059SOL    HW113219   1.692   6.366   9.156  0.1745  0.6886 -0.0960
 3059SOL    HW213220   1.582   6.468   9.135 -0.2384  0.2186 -0.2399
 3060SOL     OW13221   0.866   8.896   8.334 -0.3724 -0.5894  0.0699
 3060SOL    HW113222   0.773   8.913   8.353 -0.0487  0.1515  1.0543
 3060SOL    HW213223   0.905   8.877   8.419  0.9592  1.9935  0.1254
 3061SOL     OW13224   3.052   4.760   6.519  0.0597 -0.5362  0.1659
 3061SOL    HW113225   2.969   4.786   6.559 -0.5360 -1.0547 -0.7002
 3061SOL    HW213226   3.069   4.827   6.452  0.0102 -0.7841 -0.0960
 3062SOL     OW13227   8.416   4.938   3.016 -0.0656  0.0755  0.4170
 3062SOL    HW113228   8.372   4.918   2.933  0.6069  1.8327 -0.4042
 3062SOL    HW213229   8.395   4.863   3.072 -1.7335 -0.4829 -0.8551
 3063SOL     OW13230   6.525   8.311   8.094 -0.1188  0.1688  0.2758
 3063SOL    HW113231   6.580   8.299   8.172 -1.4798 -0.2533  1.2137
 3063SOL    HW213232   6.587   8.319   8.022  1.1614 -1.2471  1.1505
 3064SOL     OW13233   5.292   7.227   9.956 -0.1158  0.3470 -0.6398
 3064SOL    HW113234   5.263   7.314   9.984  1.5564  1.4438 -2.0735
 3064SOL    HW213235   5.252   7.215   9.869  2.9870  1.6789 -2.4318
 3065SOL     OW13236   0.286   1.284   8.259 -0.2283  0.1612 -0.4331
 3065SOL    HW113237   0.365   1.291   8.205 -0.8147  3.4455 -1.0946
 3065SOL    HW213238   0.222   1.339   8.214 -2.6532 -1.7130  0.5550
 3066SOL     OW13239   1.901   5.938   0.908  0.2600  0.1049 -0.2328
 3066SOL    HW113240   1.857   6.018   0.936 -0.9957 -0.5361 -0.3004
 3066SOL    HW213241   1.955   5.966   0.834 -0.4583  0.8282 -0.5044
 3067SOL     OW13242   5.684   7.825   0.880 -0.1047 -0.4660  0.0913
 3067SOL    HW113243   5.594   7.847   0.905  0.1568 -0.4685  1.0830
 3067SOL    HW213244   5.735   7.903   0.903  0.4447 -1.1678  1.3496
 3068SOL     OW13245   0.722   5.260   4.181 -0.1823 -0.1645 -0.3268
 3068SOL    HW113246   0.732   5.172   4.217 -3.0326  0.3797  2.1566
 3068SOL    HW213247   0.697   5.314   4.256 -1.4772  2.1370 -2.2840
 3069SOL     OW13248   6.918   6.434   1.534  0.2126  0.4711  0.2262
 3069SOL    HW113249   6.876   6.397   1.457 -0.9825 -0.5769  1.3362
 3069SOL    HW213250   6.965   6.361   1.574  1.8970  1.2823 -0.1529
 3070SOL     OW13251   6.709   0.994   7.154 -0.2490  0.8832 -0.2002
 3070SOL    HW113252   6.639   0.929   7.147  1.2926 -0.6802 -1.6905
 3070SOL    HW213253   6.711   1.037   7.068  1.6812 -0.2604 -0.7740
 3071SOL     OW13254   3.053   9.066   9.543 -0.3826  0.4609  0.1348
 3071SOL    HW113255   3.135   9.023   9.520  0.3068  0.9202  1.6092
 3071SOL    HW213256   3.014   9.011   9.611 -1.2753  0.2840 -0.4996
 3072SOL     OW13257   6.048   6.654   9.581  0.2051  0.3853 -0.3367
 3072SOL    HW113258   6.025   6.730   9.634  0.0212 -0.1677  0.4083
 3072SOL    HW213259   6.116   6.686   9.521  1.3163  0.7701  1.0625
 3073SOL     OW13260   1.483   7.254   2.904 -0.9595 -0.2958  0.2110
 3073SOL    HW113261   1.500   7.339   2.946 -0.8476 -0.0385 -0.3392
 3073SOL    HW213262   1.401   7.224   2.942 -0.3954 -0.5160  1.3020
 3074SOL     OW13263   7.085   0.311   5.355  0.3097 -0.4255  0.0459
 3074SOL    HW113264   7.175   0.294   5.329  0.9898  2.5768  0.1242
 3074SOL    HW213265   7.089   0.394   5.403 -2.6312  0.3116 -0.7976
 3075SOL     OW13266   6.795   8.622   3.552  0.1524  0.7524 -0.0153
 3075SOL    HW113267   6.823   8.545   3.503 -0.4946  0.4778  0.0293
 3075SOL    HW213268   6.830   8.697   3.504  1.7185  0.3991  0.5404
 3076SOL     OW13269   5.005   5.629   0.133 -0.1274  0.4689  0.2626
 3076SOL    HW113270   5.095   5.599   0.147 -0.0155  0.5966 -0.1715
 3076SOL    HW213271   4.951   5.552   0.153  0.1958 -0.3029 -1.5737
 3077SOL     OW13272   4.093   2.337   8.829  0.0774 -0.5798  0.2437
 3077SOL    HW113273   4.014   2.308   8.784 -0.5688  0.5181  0.6283
 3077SOL    HW213274   4.115   2.264   8.887 -0.8762 -0.7594  0.4020
 3078SOL     OW13275   0.346   6.133   8.673  0.0570  0.0178  0.1643
 3078SOL    HW113276   0.376   6.115   8.762  0.7942  2.0160  0.3759
 3078SOL    HW213277   0.371   6.224   8.657 -1.7954  0.3395 -1.3692
 3079SOL     OW13278   4.094   4.014   2.348 -0.7356 -0.7743 -0.1503
 3079SOL    HW113279   4.136   3.969   2.274 -1.3226  1.0578 -1.6658
 3079SOL    HW213280   4.013   4.050   2.312 -0.1361  1.7797  0.8362
 3080SOL     OW13281   7.299   6.603   7.864 -0.0122  0.0063  0.6919
 3080SOL    HW113282   7.263   6.591   7.951 -2.7830 -2.6106 -0.6285
 3080SOL    HW213283   7.252   6.679   7.829 -0.7506 -0.4537  0.6611
 3081SOL     OW13284   2.636   7.836   3.397 -0.2986 -0.0773  0.0330
 3081SOL    HW113285   2.606   7.911   3.346  0.1849  0.8255  1.0313
 3081SOL    HW213286   2.670   7.875   3.478 -1.1421 -1.4779  1.0854
 3082SOL     OW13287   3.247   4.650   0.902 -0.1647  0.2495 -0.0105
 3082SOL    HW113288   3.168   4.684   0.860 -0.8296 -0.6662  0.4711
 3082SOL    HW213289   3.317   4.709   0.873 -0.6319 -0.1625 -2.1612
 3083SOL     OW13290   8.709   3.477   8.675  0.2670  0.0765 -0.2632
 3083SOL    HW113291   8.782   3.524   8.714  0.4405 -1.2683  1.1636
 3083SOL    HW213292   8.741   3.448   8.590  0.2652  2.1460 -1.0145
 3084SOL     OW13293   3.071   5.439   8.540  0.7600 -0.0720 -0.1287
 3084SOL    HW113294   3.120   5.486   8.608  1.2008  0.0807 -0.5528
 3084SOL    HW213295   2.979   5.454   8.563  0.9057 -0.2666  0.6070
 3085SOL     OW13296   6.598   9.641   0.991  0.4081 -0.1765  0.6533
 3085SOL    HW113297   6.571   9.686   0.911  1.8020 -0.2972  0.0833
 3085SOL    HW213298   6.594   9.708   1.060 -0.0221  0.1403  0.3168
 3086SOL     OW13299   0.131   7.224   9.041 -0.0742 -0.2738  0.2410
 3086SOL    HW113300   0.092   7.179   8.967 -0.2711 -1.3080  0.9532
 3086SOL    HW213301   0.128   7.160   9.112  2.1165 -0.0860  0.5618
 3087SOL     OW13302   1.624   4.918   5.788  0.4291 -0.4848 -0.0754
 3087SOL    HW113303   1.700   4.947   5.738  0.0209 -0.6283 -0.7783
 3087SOL    HW213304   1.559   4.986   5.776 -0.5018 -1.6010 -1.6690
 3088SOL     OW13305   8.573   6.035   4.835 -0.2426 -0.1888 -0.1933
 3088SOL    HW113306   8.489   6.078   4.849 -0.8546 -1.5045  0.3901
 3088SOL    HW213307   8.554   5.964   4.773  0.4928 -0.3418 -0.2605
 3089SOL     OW13308   9.602   4.333   2.651  0.3161 -0.0829  0.6142
 3089SOL    HW113309   9.535   4.361   2.713  1.0550 -0.0601  1.4190
 3089SOL    HW213310   9.668   4.401   2.654 -0.5214  0.9498 -1.7051
 3090SOL     OW13311   9.364   0.992   7.398  0.6908  0.0888  0.0863
 3090SOL    HW113312   9.291   1.011   7.457  1.5809  0.2983  1.1536
 3090SOL    HW213313   9.364   0.897   7.390  0.5263  0.0623  0.3784
 3091SOL     OW13314   3.916   8.325   8.147  0.3535  0.0871  0.1075
 3091SOL    HW113315   3.829   8.363   8.139  0.5110  0.1976 -1.4467
 3091SOL    HW213316   3.909   8.239   8.104  1.2086  0.4885 -0.8955
 3092SOL     OW13317   1.928   0.678   3.630 -0.4085 -0.1687 -0.1929
 3092SOL    HW113318   1.995   0.732   3.671  1.2040 -0.6957 -2.0156
 3092SOL    HW213319   1.877   0.643   3.704  2.0098 -0.6587  1.3323
 3093SOL     OW13320   4.164   6.473   4.677 -0.2120 -0.3227 -0.2321
 3093SOL    HW113321   4.091   6.492   4.736 -1.3244 -0.4269 -1.5082
 3093SOL    HW213322   4.231   6.434   4.732 -0.4796  1.2196  1.2743
 3094SOL     OW13323   8.782   0.170   0.539  0.3986  0.1823 -0.1113
 3094SOL    HW113324   8.697   0.127   0.545  0.6472 -0.1119  1.9066
 3094SOL    HW213325   8.844   0.099   0.522  0.4911  0.0960  0.5706
 3095SOL     OW13326  10.145   8.718   1.908  0.4155  0.2746  0.0822
 3095SOL    HW113327  10.180   8.633   1.934 -0.6797 -0.2886 -0.2079
 3095SOL    HW213328  10.080   8.698   1.840  1.9854  1.5661 -1.9323
 3096SOL     OW13329   5.139   5.067   1.147  0.2761  0.3884 -0.0212
 3096SOL    HW113330   5.207   5.045   1.083  1.7002  0.6019  1.3596
 3096SOL    HW213331   5.146   5.162   1.158  0.9341  0.1915  1.3916
 3097SOL     OW13332   6.665   8.179   3.773  0.2681 -0.1284 -0.3589
 3097SOL    HW113333   6.676   8.257   3.828 -0.7469 -1.1944  1.4714
 3097SOL    HW213334   6.730   8.117   3.807 -0.8013 -1.0237  0.0935
 3098SOL     OW13335   1.045   2.784   3.832  0.5639 -0.2311  0.0381
 3098SOL    HW113336   1.058   2.874   3.863 -0.1596  0.1978 -0.8551
 3098SOL    HW213337   1.122   2.766   3.779  0.2289  0.2611 -0.6394
 3099SOL     OW13338  10.188   0.647   8.733  0.2316 -0.0649  0.2173
 3099SOL    HW113339  10.156   0.620   8.647  0.2807 -0.7868  0.4194
 3099SOL    HW213340  10.133   0.600   8.795  0.7520 -0.2086  0.5752
 3100SOL     OW13341   9.352   6.779   7.353 -0.0627  0.3956  0.2299
 3100SOL    HW113342   9.353   6.768   7.448 -1.8670  2.8356  0.6649
 3100SOL    HW213343   9.328   6.871   7.340  1.1672  0.4360 -2.6107
 3101SOL     OW13344   0.367   1.941   8.550 -0.5608  0.1534  0.2259
 3101SOL    HW113345   0.372   1.980   8.637 -1.2484 -0.0687  0.3672
 3101SOL    HW213346   0.322   2.007   8.497  1.9813  1.3735 -0.6066
 3102SOL     OW13347   7.901   9.266   7.432 -0.0506  0.5669  0.0124
 3102SOL    HW113348   7.848   9.221   7.498 -0.3832  0.3193 -0.4163
 3102SOL    HW213349   7.853   9.254   7.350  0.9121 -0.0868 -0.4835
 3103SOL     OW13350   5.713   1.056   3.279  0.1938  0.3163  0.1972
 3103SOL    HW113351   5.708   1.129   3.218  1.1829  0.9142  0.8095
 3103SOL    HW213352   5.678   0.982   3.231 -0.6970  1.1574 -0.4883
 3104SOL     OW13353   4.752   9.808   7.161  0.1856  0.5858  0.0340
 3104SOL    HW113354   4.802   9.739   7.205 -1.3304 -0.0020  0.9154
 3104SOL    HW213355   4.787   9.811   7.072  1.0827 -0.5026  0.3389
 3105SOL     OW13356   0.370   8.058   1.667 -0.5519 -0.6020 -0.2891
 3105SOL    HW113357   0.274   8.066   1.670 -0.3897  1.5404  1.2446
 3105SOL    HW213358   0.401   8.146   1.649  1.1854 -0.9236  0.9192
 3106SOL     OW13359   3.839   6.357   7.906 -0.5361  0.1109  0.2305
 3106SOL    HW113360   3.889   6.435   7.930  0.6913 -0.1335 -1.3238
 3106SOL    HW213361   3.889   6.284   7.943  0.5110 -0.1543 -1.5434
 3107SOL     OW13362   8.694   3.673   2.173  0.0269 -0.1011 -0.0264
 3107SOL    HW113363   8.688   3.705   2.263 -3.6815 -1.9014  0.5621
 3107SOL    HW213364   8.691   3.577   2.182 -1.0481 -0.3000 -2.0068
 3108SOL     OW13365   5.079  10.011   2.104  0.2515  0.6242  0.1198
 3108SOL    HW113366   5.018  10.000   2.031 -0.1150  1.7008  0.2458
 3108SOL    HW213367   5.163  10.032   2.062  0.7941 -1.7591 -0.0922
 3109SOL     OW13368   1.474   3.277  10.118 -0.0080 -0.2940 -0.0535
 3109SOL    HW113369   1.521   3.194  10.124 -0.4211 -0.5012  0.4201
 3109SOL    HW213370   1.409   3.272  10.188 -0.3551  0.2234 -0.3361
 3110SOL     OW13371   8.522   7.660   5.129  0.3238  0.5452  0.0728
 3110SOL    HW113372   8.563   7.575   5.115 -1.2715 -0.7207  2.2687
 3110SOL    HW213373   8.592   7.716   5.162  1.4028  0.1221 -1.4120
 3111SOL     OW13374   8.632  10.174   0.987  0.1399 -0.0954 -0.3150
 3111SOL    HW113375   8.697  10.184   0.917 -0.1172  2.2033 -0.2973
 3111SOL    HW213376   8.656  10.092   1.030  0.4458 -1.4931 -2.9094
 3112SOL     OW13377   1.669   3.021   6.996  0.6065 -1.1422 -0.6159
 3112SOL    HW113378   1.601   3.011   6.929  0.6585 -1.5113 -0.6154
 3112SOL    HW213379   1.736   3.075   6.955  1.1227 -2.2260 -1.2279
 3113SOL     OW13380   5.966   4.913  10.236 -0.0955 -0.0038  0.2636
 3113SOL    HW113381   5.886   4.877  10.275 -0.1091  0.5105  0.7317
 3113SOL    HW213382   5.977   4.998  10.280 -0.0748  0.5636 -0.8136
 3114SOL     OW13383   0.026   2.653   8.880  0.2123 -0.8335  0.6099
 3114SOL    HW113384  -0.044   2.590   8.897 -0.5720  0.2520  1.5254
 3114SOL    HW213385   0.044   2.692   8.965  0.4096  0.4658 -0.0108
 3115SOL     OW13386   0.439   5.844   4.454  0.1435 -0.2070  0.5849
 3115SOL    HW113387   0.365   5.849   4.393 -0.6373  0.5736  1.5520
 3115SOL    HW213388   0.432   5.757   4.492  0.1456 -0.3949  0.1690
 3116SOL     OW13389   8.546   5.645   9.701 -0.4358  0.2031  0.1563
 3116SOL    HW113390   8.525   5.737   9.688 -0.0116  0.1237 -1.2608
 3116SOL    HW213391   8.626   5.645   9.752  0.5350  0.6800 -1.3163
 3117SOL     OW13392   5.120   9.440   5.187  0.1995  0.1679  0.4709
 3117SOL    HW113393   5.190   9.375   5.180  0.1280  0.1112  0.2438
 3117SOL    HW213394   5.039   9.389   5.178  0.1579  0.3835 -0.5869
 3118SOL     OW13395   0.472   2.439   9.814 -0.3967  0.0556 -0.2147
 3118SOL    HW113396   0.566   2.417   9.812 -0.2491  0.0806  2.5314
 3118SOL    HW213397   0.428   2.354   9.806  0.0154 -0.4931  2.4299
 3119SOL     OW13398   1.794   1.888   3.771  0.0556  0.0520  0.3109
 3119SOL    HW113399   1.712   1.867   3.727 -0.0290  0.5299  0.2335
 3119SOL    HW213400   1.845   1.934   3.704 -1.3009  3.6986  1.5433
 3120SOL     OW13401   0.507   3.971   8.587 -0.2714 -0.0077  0.1767
 3120SOL    HW113402   0.577   3.994   8.648 -1.0051  0.9023  0.7066
 3120SOL    HW213403   0.472   4.055   8.558  0.0258 -0.4237 -1.4893
 3121SOL     OW13404   4.763   2.082   7.947 -0.1110  0.0947 -0.0329
 3121SOL    HW113405   4.746   2.008   8.006 -0.1736  0.9158  1.0103
 3121SOL    HW213406   4.740   2.159   7.999  0.1775  0.8585 -1.0241
 3122SOL     OW13407   9.609   3.210   6.292  0.1583  0.2754 -0.0752
 3122SOL    HW113408   9.675   3.213   6.361 -0.2312  0.2929  0.2969
 3122SOL    HW213409   9.531   3.251   6.330  0.0248  0.5401 -0.6152
 3123SOL     OW13410   6.360   3.446   6.719 -0.0635 -0.0258  0.1338
 3123SOL    HW113411   6.411   3.495   6.784  0.0866 -1.0758  0.8334
 3123SOL    HW213412   6.358   3.356   6.752 -3.6972  0.2053  0.9914
 3124SOL     OW13413   1.876   5.979   2.502 -0.3230 -0.0526 -0.0406
 3124SOL    HW113414   1.853   5.927   2.425 -2.3455 -0.1960  0.6158
 3124SOL    HW213415   1.906   5.914   2.566  1.0843  0.0401 -0.5639
 3125SOL     OW13416   9.993  10.280   5.117  0.2104  0.2741 -0.0162
 3125SOL    HW113417   9.951  10.201   5.152  1.8895  0.1562  1.9357
 3125SOL    HW213418  10.046  10.248   5.044 -2.3129  0.3144 -2.0135
 3126SOL     OW13419   3.398   0.968   3.603 -0.1454  0.0729  0.2974
 3126SOL    HW113420   3.404   1.062   3.622  1.6240  0.1278 -0.3221
 3126SOL    HW213421   3.438   0.926   3.679 -2.2605 -0.3131  1.2630
 3127SOL     OW13422   5.071   2.481   3.470  0.1488 -0.7817  0.1947
 3127SOL    HW113423   5.122   2.556   3.437 -1.2491  0.2479  0.2946
 3127SOL    HW213424   5.127   2.441   3.536  0.9302  0.1745  0.1334
 3128SOL     OW13425   8.734   8.551   5.429  0.5526  0.1409 -0.4398
 3128SOL    HW113426   8.651   8.538   5.382  0.6106  0.8269 -0.7450
 3128SOL    HW213427   8.719   8.510   5.514 -0.6876  1.6657  0.1229
 3129SOL     OW13428   1.318   4.458   0.165 -0.1967 -0.5551  0.0263
 3129SOL    HW113429   1.346   4.446   0.074 -1.2141  2.7669 -0.8421
 3129SOL    HW213430   1.390   4.506   0.206 -0.1106 -1.2988  0.7737
 3130SOL     OW13431   7.530   5.580   4.622  0.3336  0.3218 -0.5693
 3130SOL    HW113432   7.560   5.657   4.669  0.4297 -0.1023  0.0748
 3130SOL    HW213433   7.450   5.553   4.668  0.9954 -0.7098  0.0116
 3131SOL     OW13434  10.061   3.519   7.899  0.2470  0.1296  0.9621
 3131SOL    HW113435  10.078   3.599   7.851 -1.5197  0.1536  0.2789
 3131SOL    HW213436  10.131   3.513   7.964  0.6691  1.9553  0.7048
 3132SOL     OW13437   7.461   7.162   0.906 -0.5306 -0.6655  0.2712
 3132SOL    HW113438   7.383   7.184   0.856 -1.0028  0.7241  1.5432
 3132SOL    HW213439   7.534   7.180   0.846 -1.1280 -0.4223 -0.3950
 3133SOL     OW13440   6.886   6.980   2.128 -0.0136  0.6859  0.3862
 3133SOL    HW113441   6.892   6.886   2.113  2.9370  0.6450  1.0777
 3133SOL    HW213442   6.977   7.007   2.142 -0.9051  3.4372  1.4562
 3134SOL     OW13443   6.157   1.800   8.059 -0.1759  0.2407  0.1366
 3134SOL    HW113444   6.151   1.776   8.151 -1.5504 -0.1493 -0.0221
 3134SOL    HW213445   6.083   1.859   8.045  0.2075  0.5551 -0.6495
 3135SOL     OW13446   9.828   4.047   9.340 -0.1725 -0.3109  0.3069
 3135SOL    HW113447   9.798   4.029   9.429  1.5105 -1.0384  0.7596
 3135SOL    HW213448   9.893   3.980   9.322 -0.8302 -0.4704 -1.6846
 3136SOL     OW13449   9.696   3.232   1.619 -0.1126  0.2889 -0.3881
 3136SOL    HW113450   9.651   3.202   1.698 -0.1169  1.6194  0.1415
 3136SOL    HW213451   9.681   3.326   1.617 -1.1338  0.1335 -2.6480
 3137SOL     OW13452   3.834   3.460   2.145 -1.1042  0.1979 -0.1532
 3137SOL    HW113453   3.879   3.378   2.126  1.4277  1.8224 -1.5659
 3137SOL    HW213454   3.768   3.436   2.211  0.3117 -2.7194  0.3367
 3138SOL     OW13455   8.835  10.030   9.682  0.1446  0.9544 -0.5626
 3138SOL    HW113456   8.885  10.111   9.673  2.4711 -0.0035  2.2215
 3138SOL    HW213457   8.900   9.961   9.681 -0.8708 -0.3757  3.4907
 3139SOL     OW13458   0.029   5.271   1.927 -0.0550  0.4959 -0.5397
 3139SOL    HW113459   0.051   5.325   1.851  0.6186  0.1082 -0.6284
 3139SOL    HW213460   0.040   5.181   1.896 -0.4968  0.3185 -0.1940
 3140SOL     OW13461   4.758   7.899   5.756  0.0528 -0.4937 -0.3411
 3140SOL    HW113462   4.821   7.969   5.774  0.5566 -0.9975 -0.1257
 3140SOL    HW213463   4.729   7.916   5.667 -0.4152  0.4403 -0.0231
 3141SOL     OW13464   5.483   3.363   6.601 -0.0790 -0.3225 -0.4719
 3141SOL    HW113465   5.491   3.358   6.506  0.0885  0.7510 -0.5235
 3141SOL    HW213466   5.423   3.291   6.624  0.5865 -1.1516 -1.2776
 3142SOL     OW13467   1.876   5.011   6.997  0.1663  0.5794 -0.6082
 3142SOL    HW113468   1.920   4.977   7.075 -0.4278 -0.8514 -0.8762
 3142SOL    HW213469   1.937   4.994   6.926  0.5418  1.5354 -0.5275
 3143SOL     OW13470   1.982   2.924   3.158  0.6149  0.0068 -0.3347
 3143SOL    HW113471   1.972   2.898   3.250  2.9457 -0.7855 -0.2497
 3143SOL    HW213472   2.032   2.853   3.119  2.7237  1.9615 -1.3692
 3144SOL     OW13473   0.826   5.904   7.940  0.1988  0.7268 -0.1517
 3144SOL    HW113474   0.853   5.969   7.875  1.0872 -0.2280 -0.7731
 3144SOL    HW213475   0.734   5.887   7.920  0.5658  0.1438 -1.4745
 3145SOL     OW13476   6.821   2.962   5.973  0.0563 -0.1258  0.4404
 3145SOL    HW113477   6.791   3.051   5.955  0.8189 -0.2258 -1.5852
 3145SOL    HW213478   6.874   2.939   5.897  1.9518 -1.4113  2.0603
 3146SOL     OW13479   4.909   6.540   2.836 -0.0829  0.5490 -0.0966
 3146SOL    HW113480   4.852   6.519   2.762  0.3832 -0.1319 -0.2702
 3146SOL    HW213481   4.912   6.636   2.837 -1.6737  0.6231  0.2705
 3147SOL     OW13482   8.383   7.437   2.963  0.0366 -0.5314 -0.0736
 3147SOL    HW113483   8.473   7.438   2.995  0.4577 -2.1721 -1.1147
 3147SOL    HW213484   8.338   7.373   3.018 -1.0453  1.5502  1.6561
 3148SOL     OW13485   5.344   6.937   7.152 -0.3077 -0.3174 -0.6151
 3148SOL    HW113486   5.436   6.957   7.169 -0.6691  0.6786  0.2867
 3148SOL    HW213487   5.334   6.949   7.057  0.3439  0.1777 -0.6243
 3149SOL     OW13488   5.603   7.980   1.618 -0.2844 -0.2011  0.3926
 3149SOL    HW113489   5.624   8.059   1.567 -0.5767 -0.8433 -0.7556
 3149SOL    HW213490   5.590   8.012   1.707 -1.6381  1.2671 -0.2811
 3150SOL     OW13491   3.343   7.082   9.994 -0.2672  0.3022  0.1345
 3150SOL    HW113492   3.249   7.092  10.008 -0.4240 -1.5747  0.7371
 3150SOL    HW213493   3.351   7.013   9.928  0.6744 -0.7865  1.3285
 3151SOL     OW13494   7.612   9.975   6.021 -0.3482  0.2296  0.2609
 3151SOL    HW113495   7.592   9.980   6.115 -0.2800  0.5502  0.2611
 3151SOL    HW213496   7.688   9.918   6.016  0.4033  1.1662  0.5303
 3152SOL     OW13497   2.340   9.688   1.745 -0.1592 -0.1514  0.0274
 3152SOL    HW113498   2.354   9.621   1.811  1.5318 -1.8376 -1.8966
 3152SOL    HW213499   2.423   9.734   1.739 -1.0220  1.5657  0.6705
 3153SOL     OW13500   8.063   0.381   8.363 -0.2051  0.5253  0.0382
 3153SOL    HW113501   8.036   0.372   8.455 -0.7833  0.7945 -0.1031
 3153SOL    HW213502   8.159   0.383   8.367 -0.2348  1.9153  0.7797
 3154SOL     OW13503   4.757   9.543   6.591 -0.3114 -0.5030 -0.8017
 3154SOL    HW113504   4.727   9.485   6.661  0.4810  0.3729  0.3152
 3154SOL    HW213505   4.748   9.492   6.511  0.2513 -2.1173  0.1264
 3155SOL     OW13506   7.024   7.559   5.213  0.4351 -0.0808  0.0064
 3155SOL    HW113507   6.954   7.522   5.267 -0.2328  0.2868 -0.5857
 3155SOL    HW213508   7.004   7.653   5.209  0.4428 -0.1125 -0.9190
 3156SOL     OW13509   3.440   6.882   1.521  0.5698  0.2827  0.0537
 3156SOL    HW113510   3.388   6.809   1.554  0.7783  0.3925  0.6529
 3156SOL    HW213511   3.528   6.866   1.557  1.4607 -0.8943 -2.3950
 3157SOL     OW13512   1.526   9.970   2.812  0.6456  0.5169 -0.1748
 3157SOL    HW113513   1.485  10.055   2.824  1.5582  0.9742 -0.2483
 3157SOL    HW213514   1.463   9.920   2.760 -0.5330  0.6541  1.0551
 3158SOL     OW13515   8.810   2.302   1.634  0.4368  0.7914 -0.1387
 3158SOL    HW113516   8.898   2.306   1.597  0.3121  2.0877 -0.3279
 3158SOL    HW213517   8.754   2.284   1.558  0.5228  0.0172 -0.0261
 3159SOL     OW13518   8.373   9.447   6.710  0.0629 -0.0069  0.4040
 3159SOL    HW113519   8.451   9.393   6.726  0.4809  1.1791  2.9701
 3159SOL    HW213520   8.403   9.536   6.724 -1.5156  0.5718  0.2688
 3160SOL     OW13521   2.515   8.406   4.504  0.1038  0.0296  0.0345
 3160SOL    HW113522   2.544   8.478   4.560 -0.7842 -0.6098  1.3572
 3160SOL    HW213523   2.543   8.327   4.550 -0.1520 -0.5037 -0.7060
 3161SOL     OW13524   8.536   0.666   2.390 -0.4929 -0.0851 -0.4748
 3161SOL    HW113525   8.518   0.723   2.465  0.5375 -0.4964  0.1050
 3161SOL    HW213526   8.609   0.708   2.344  0.2145 -0.8683 -0.0982
 3162SOL     OW13527   0.850   5.977   6.754  0.0155  0.5084  0.4327
 3162SOL    HW113528   0.759   5.948   6.758  0.2909 -0.4263  0.2104
 3162SOL    HW213529   0.849   6.050   6.692 -0.8651  1.6820  1.7827
 3163SOL     OW13530   9.726   2.397   0.649  0.4362  0.3593 -0.7502
 3163SOL    HW113531   9.745   2.453   0.574 -1.7025  3.2059  0.6330
 3163SOL    HW213532   9.631   2.406   0.662  0.1404 -2.8716  0.2161
 3164SOL     OW13533   1.336   4.839   5.847  0.0109 -0.2935 -0.3657
 3164SOL    HW113534   1.288   4.757   5.834 -1.5013  0.3026  1.1475
 3164SOL    HW213535   1.414   4.813   5.895 -0.0289 -0.9523 -0.6412
 3165SOL     OW13536   8.052   4.465   3.406  0.4509 -0.7873  0.2899
 3165SOL    HW113537   7.957   4.460   3.417  0.5006 -1.1036  0.5775
 3165SOL    HW213538   8.063   4.511   3.323  0.0412 -1.1451  0.0309
 3166SOL     OW13539   7.705   3.456   8.421 -0.1230 -0.0095 -0.2534
 3166SOL    HW113540   7.730   3.396   8.490  0.4752  0.8702  0.3133
 3166SOL    HW213541   7.746   3.421   8.342  0.9613  0.1277  0.2393
 3167SOL     OW13542   2.333   3.304   4.279 -0.0463 -0.0889 -0.2841
 3167SOL    HW113543   2.288   3.246   4.341 -1.2002  0.7724 -0.2750
 3167SOL    HW213544   2.366   3.245   4.211  1.0923 -1.0300  1.0264
 3168SOL     OW13545   5.898   6.232   0.282  0.0165 -0.0360  0.0149
 3168SOL    HW113546   5.822   6.188   0.320 -0.1865  0.2803 -0.0185
 3168SOL    HW213547   5.905   6.314   0.331  0.0771  0.1305 -0.2723
 3169SOL     OW13548   1.383   4.710   2.246 -0.0829 -0.1748 -0.3911
 3169SOL    HW113549   1.388   4.672   2.159 -0.4499 -0.8652 -0.1207
 3169SOL    HW213550   1.414   4.800   2.235  0.7045 -0.5116 -1.0684
 3170SOL     OW13551   9.447   9.740   0.409 -0.2395  0.5933 -0.9551
 3170SOL    HW113552   9.506   9.805   0.447 -0.3463  0.8720 -1.2544
 3170SOL    HW213553   9.410   9.784   0.332  1.1919 -0.5237 -2.3463
 3171SOL     OW13554   1.459   0.428   7.585  0.2024  0.0203 -0.9425
 3171SOL    HW113555   1.516   0.488   7.632 -0.5198  0.1192 -0.1768
 3171SOL    HW213556   1.371   0.465   7.595 -0.1923 -0.9095 -0.8646
 3172SOL     OW13557   5.417   8.495   9.748  0.4429 -0.3647 -0.1003
 3172SOL    HW113558   5.395   8.438   9.822 -0.1130  1.5644  1.2771
 3172SOL    HW213559   5.507   8.469   9.725  0.9732 -0.4257  1.8464
 3173SOL     OW13560   6.759   9.631   6.602  0.0670  0.1272  0.1338
 3173SOL    HW113561   6.767   9.724   6.625  1.2107  0.2184 -0.5854
 3173SOL    HW213562   6.668   9.609   6.624  0.7199  0.4376  3.8244
 3174SOL     OW13563   1.498   8.035   8.672  0.0417 -0.2027 -0.1997
 3174SOL    HW113564   1.475   8.094   8.600  1.3857  0.3047 -0.2366
 3174SOL    HW213565   1.514   7.950   8.630 -2.5978 -0.8470 -0.0681
 3175SOL     OW13566   1.435   6.668   0.412  0.2863  0.1775 -0.2934
 3175SOL    HW113567   1.364   6.672   0.476  0.7252 -0.6062  0.2610
 3175SOL    HW213568   1.515   6.667   0.464  0.6534 -0.5558 -0.8337
 3176SOL     OW13569   5.714   2.692  10.029 -0.5761  0.4143  0.3012
 3176SOL    HW113570   5.766   2.741  10.092  0.9061  0.4097 -0.8619
 3176SOL    HW213571   5.681   2.616  10.078 -0.4062  0.9925  1.3407
 3177SOL     OW13572   7.669   7.228   2.383  0.4374  0.0035  0.2714
 3177SOL    HW113573   7.649   7.314   2.419 -0.5475  0.9352 -2.2712
 3177SOL    HW213574   7.628   7.166   2.443 -1.2969  1.4518  0.6463
 3178SOL     OW13575   6.995   9.525   1.345 -0.1617 -0.0469  0.6146
 3178SOL    HW113576   7.089   9.513   1.359  0.0727  2.1120  1.2503
 3178SOL    HW213577   6.958   9.527   1.433 -0.6222  0.3416  0.4153
 3179SOL     OW13578   7.452   2.135   8.271  0.7134  0.4211 -0.2632
 3179SOL    HW113579   7.458   2.056   8.324  1.0256  1.1278  0.7713
 3179SOL    HW213580   7.538   2.177   8.279 -0.0354  1.8261  0.7410
 3180SOL     OW13581   5.785   9.404   3.591  0.1284  0.2882 -0.4329
 3180SOL    HW113582   5.735   9.456   3.528  1.3127  0.1552 -1.5223
 3180SOL    HW213583   5.804   9.323   3.545 -1.4342 -1.0648  1.1337
 3181SOL     OW13584   2.485   5.636   9.153 -0.4742  0.2683  0.0727
 3181SOL    HW113585   2.421   5.592   9.097  0.2306 -0.7290  0.0247
 3181SOL    HW213586   2.567   5.634   9.103 -0.3261  1.2892  0.2456
 3182SOL     OW13587   2.519   2.190   0.296  0.0349  0.1605 -0.4966
 3182SOL    HW113588   2.589   2.176   0.360  0.7227  0.2053 -1.2209
 3182SOL    HW213589   2.561   2.176   0.211 -1.0205 -0.5998 -0.9226
 3183SOL     OW13590   2.912   2.802  10.067  0.3479 -0.1624  0.1866
 3183SOL    HW113591   2.860   2.880  10.049  0.7210  0.3805  1.4127
 3183SOL    HW213592   2.981   2.803  10.000  0.5834  0.7772  0.4338
 3184SOL     OW13593   0.771   1.552   2.662 -0.2532  0.2479  0.9229
 3184SOL    HW113594   0.716   1.630   2.657  1.1890  1.3198  1.1557
 3184SOL    HW213595   0.741   1.497   2.589  0.0148  1.9187 -0.5331
 3185SOL     OW13596  10.119   3.237   6.035  0.4419 -0.2035 -0.3167
 3185SOL    HW113597  10.123   3.185   5.954 -0.0413 -0.6407 -0.0704
 3185SOL    HW213598  10.186   3.304   6.024 -0.6517  0.7209 -1.7529
 3186SOL     OW13599   9.401   8.905   8.931  0.3824 -0.6176 -0.1669
 3186SOL    HW113600   9.422   8.884   8.840  0.6369 -0.6774 -0.0948
 3186SOL    HW213601   9.406   9.000   8.937 -0.0419 -0.5825 -0.3121
 3187SOL     OW13602   0.790   0.726   4.835 -0.4462 -0.3068  0.1127
 3187SOL    HW113603   0.808   0.744   4.742 -0.6695 -1.8903 -0.2677
 3187SOL    HW213604   0.877   0.719   4.874 -0.3316 -0.7909 -0.2227
 3188SOL     OW13605   8.706   1.110   5.577  0.0812  0.3519  0.4852
 3188SOL    HW113606   8.637   1.085   5.638  1.5510  1.4425  2.7240
 3188SOL    HW213607   8.738   1.027   5.540 -2.5142 -0.1586 -0.8288
 3189SOL     OW13608   2.908   3.841   6.344  0.1445 -0.1737  0.2601
 3189SOL    HW113609   2.997   3.874   6.343 -0.1660  0.7185  0.6676
 3189SOL    HW213610   2.915   3.755   6.384  0.8785 -0.2921 -0.1098
 3190SOL     OW13611   8.944   4.693   7.960  0.2921 -0.4391 -0.2530
 3190SOL    HW113612   8.961   4.685   7.866 -2.4048 -0.0064 -0.8704
 3190SOL    HW213613   8.981   4.778   7.984 -0.5281  0.2699 -1.3766
 3191SOL     OW13614   3.329   3.301   7.140  0.2553 -0.3508 -0.4611
 3191SOL    HW113615   3.258   3.296   7.205 -0.7355  0.9540 -1.3888
 3191SOL    HW213616   3.387   3.369   7.174  0.2404 -0.3314 -0.4752
 3192SOL     OW13617   4.834   9.652   6.061  0.6183  0.0233 -0.1285
 3192SOL    HW113618   4.928   9.636   6.063  0.2304 -2.6221  0.4352
 3192SOL    HW213619   4.812   9.680   6.150  0.6406 -1.1721  0.2712
 3193SOL     OW13620   2.470   9.199  10.019  0.4041  0.3285  0.3750
 3193SOL    HW113621   2.392   9.159  10.056  2.1211 -2.2277  1.5266
 3193SOL    HW213622   2.539   9.134  10.032  2.2016  1.3265 -3.0122
 3194SOL     OW13623   7.220   5.022   2.256  0.7745 -0.0432  0.8525
 3194SOL    HW113624   7.285   5.052   2.320  1.5406  2.7585 -1.0783
 3194SOL    HW213625   7.136   5.046   2.295  1.1923  1.1318  1.0662
 3195SOL     OW13626   9.973   3.744   1.257 -0.2246 -0.5186  0.1592
 3195SOL    HW113627   9.939   3.821   1.303  1.0469  0.5338 -0.6209
 3195SOL    HW213628   9.969   3.767   1.164 -0.5015 -1.6870 -0.1372
 3196SOL     OW13629   9.331   1.833   9.423  0.3435  0.3768  0.0759
 3196SOL    HW113630   9.323   1.904   9.359  1.0553  0.4833  0.0999
 3196SOL    HW213631   9.390   1.867   9.490  0.0876  0.0380  0.4813
 3197SOL     OW13632   3.351   8.029   4.852  0.6858 -0.1150 -0.4080
 3197SOL    HW113633   3.282   7.987   4.903  0.6925  0.8664  0.4307
 3197SOL    HW213634   3.428   7.975   4.867  0.2471 -0.9338 -0.9559
 3198SOL     OW13635   8.260   2.269   1.482 -0.3421 -0.2266 -0.0634
 3198SOL    HW113636   8.333   2.328   1.463 -1.1507  0.3785 -1.4606
 3198SOL    HW213637   8.281   2.189   1.432 -0.5828 -0.0798 -0.4057
 3199SOL     OW13638   7.599   8.256   8.829  0.1917 -0.4165  0.5190
 3199SOL    HW113639   7.509   8.226   8.838  0.5022 -1.6169 -0.1457
 3199SOL    HW213640   7.639   8.235   8.914 -0.5685  1.8185  1.5237
 3200SOL     OW13641   1.572   5.845   0.373 -0.1826  0.3065 -0.0207
 3200SOL    HW113642   1.592   5.872   0.462 -2.8320  0.3312  0.6464
 3200SOL    HW213643   1.535   5.923   0.332  0.2396  0.0636 -0.8924
 3201SOL     OW13644   2.535   7.181   8.561 -0.4291 -0.4633 -0.2223
 3201SOL    HW113645   2.566   7.203   8.649 -1.6139 -0.2483  0.1489
 3201SOL    HW213646   2.575   7.247   8.504  0.8993 -1.0087  0.0394
 3202SOL     OW13647   8.076   8.657   2.188  0.0330 -0.2322  0.1094
 3202SOL    HW113648   8.042   8.611   2.265 -1.1853  1.5530  0.7034
 3202SOL    HW213649   8.099   8.588   2.127  0.4867 -1.6880  1.8531
 3203SOL     OW13650   3.170   4.088   9.441  0.2315 -0.6452 -0.0527
 3203SOL    HW113651   3.089   4.125   9.405  0.3099 -0.7994 -0.3969
 3203SOL    HW213652   3.231   4.090   9.367  0.9714  0.7401  0.5523
 3204SOL     OW13653  10.076   6.272   5.260 -0.0286  0.2769 -0.0658
 3204SOL    HW113654  10.085   6.178   5.272 -3.7229 -0.3531 -1.0505
 3204SOL    HW213655  10.132   6.292   5.185  2.0874 -0.7260  1.1376
 3205SOL     OW13656   9.093   7.187  10.113  0.2388 -0.5081  0.1188
 3205SOL    HW113657   9.111   7.096  10.138  0.0569 -0.6935 -0.4265
 3205SOL    HW213658   9.077   7.184  10.019 -0.7296 -0.0551  0.2543
 3206SOL     OW13659   2.998   7.417   0.839 -0.3545  0.3072 -0.4356
 3206SOL    HW113660   2.912   7.439   0.877  0.1464  1.2800  0.1598
 3206SOL    HW213661   3.040   7.363   0.906 -0.1942  0.4819 -0.3966
 3207SOL     OW13662   6.240   7.807   7.348 -0.1017  0.1585  0.3780
 3207SOL    HW113663   6.332   7.779   7.347 -0.2145 -0.2330 -1.2745
 3207SOL    HW213664   6.200   7.751   7.414  0.3237 -1.5714 -0.7393
 3208SOL     OW13665   6.151  10.038   8.070  0.0816 -0.6790 -0.4238
 3208SOL    HW113666   6.084  10.059   8.135  0.5359  0.2065 -0.2257
 3208SOL    HW213667   6.109  10.056   7.986  0.9053  2.7650 -0.2669
 3209SOL     OW13668   5.604   4.600   3.208  0.1387  0.2030  0.5027
 3209SOL    HW113669   5.571   4.548   3.281  0.8156  1.8524  2.0726
 3209SOL    HW213670   5.699   4.589   3.211  0.1051 -0.9246 -1.1392
 3210SOL     OW13671   2.467   4.190  10.180  0.6192  0.2024  0.1215
 3210SOL    HW113672   2.373   4.187  10.201 -0.4142  0.4863 -3.7541
 3210SOL    HW213673   2.487   4.101  10.150  2.0126 -0.1911  1.9941
 3211SOL     OW13674   2.026   7.062   9.073 -0.2292 -0.5159  0.0366
 3211SOL    HW113675   1.965   6.993   9.046 -2.4845  0.9491  1.1582
 3211SOL    HW213676   2.042   7.046   9.166  0.5645 -0.4717 -0.0834
 3212SOL     OW13677   2.810   3.831   2.135  0.0337 -0.3984  0.1357
 3212SOL    HW113678   2.784   3.890   2.206  0.0145  0.2241 -0.3767
 3212SOL    HW213679   2.864   3.886   2.077  0.5036 -1.0421 -0.0434
 3213SOL     OW13680   9.259   0.731   5.697  0.2730  0.4754  0.2078
 3213SOL    HW113681   9.290   0.708   5.785  0.4469  2.3088  0.6664
 3213SOL    HW213682   9.168   0.758   5.711 -0.5243 -1.5666 -0.6005
 3214SOL     OW13683   3.041   6.809   1.548  0.1253 -0.2886  0.5679
 3214SOL    HW113684   3.021   6.897   1.516 -0.0589 -0.9094 -1.1253
 3214SOL    HW213685   3.000   6.750   1.484 -0.0413 -1.6136  1.8477
 3215SOL     OW13686   3.734   5.239   2.898  0.4053  0.2775 -0.2624
 3215SOL    HW113687   3.791   5.285   2.960 -0.8455  1.2428  0.2170
 3215SOL    HW213688   3.645   5.260   2.928 -0.2149 -1.4073 -0.8175
 3216SOL     OW13689   3.905   4.753   1.765 -0.5185  0.2996  0.3698
 3216SOL    HW113690   3.954   4.686   1.718 -0.4344 -0.7802  1.9218
 3216SOL    HW213691   3.854   4.797   1.696  1.6203  0.6344 -1.0965
 3217SOL     OW13692   8.169   6.858   6.172  0.0356  0.2480 -0.5706
 3217SOL    HW113693   8.080   6.823   6.174  0.9748 -2.5093 -1.9619
 3217SOL    HW213694   8.181   6.898   6.258 -2.2398 -0.1137 -0.0293
 3218SOL     OW13695   9.653   8.268   8.742  0.1658  0.3925  0.5088
 3218SOL    HW113696   9.620   8.190   8.788  0.8143 -0.7456 -0.8775
 3218SOL    HW213697   9.574   8.310   8.706 -0.2034  0.4812  1.3937
 3219SOL     OW13698   7.323   5.149   1.827 -0.4396 -0.2325 -0.0270
 3219SOL    HW113699   7.409   5.186   1.849 -0.1883  0.2703 -1.6996
 3219SOL    HW213700   7.265   5.224   1.820 -0.3433 -0.2689 -1.6487
 3220SOL     OW13701   0.477   9.056   1.142  0.5593 -0.7964  0.0170
 3220SOL    HW113702   0.552   9.047   1.201  1.4658  1.1730 -0.7194
 3220SOL    HW213703   0.488   9.143   1.103 -1.9731 -0.5547 -0.3365
 3221SOL     OW13704   9.437   2.735   9.429 -0.0922 -0.2021 -0.4815
 3221SOL    HW113705   9.487   2.658   9.402  0.4688  0.0167 -0.0850
 3221SOL    HW213706   9.353   2.701   9.457  0.1932 -0.6883 -0.1987
 3222SOL     OW13707   2.418   4.248   0.239  0.2474 -0.0785 -0.0802
 3222SOL    HW113708   2.455   4.168   0.278  1.1239  0.1133 -0.4893
 3222SOL    HW213709   2.371   4.217   0.161  2.6403  0.0014 -1.6489
 3223SOL     OW13710   9.974   4.879   8.908 -0.1355 -0.6276 -0.2500
 3223SOL    HW113711   9.914   4.805   8.906 -1.6796  0.5652 -2.4616
 3223SOL    HW213712   9.998   4.894   8.816  1.1505  0.8182  0.2649
 3224SOL     OW13713   2.088   0.611   9.508 -0.1571  0.3079 -0.7048
 3224SOL    HW113714   2.119   0.698   9.532  0.0472  0.1757 -0.4791
 3224SOL    HW213715   2.022   0.626   9.440  0.6540  0.5686 -1.4506
 3225SOL     OW13716   8.896   9.470   1.456 -0.1390 -0.2704  0.3065
 3225SOL    HW113717   8.807   9.457   1.423  0.0324  0.1116 -0.3202
 3225SOL    HW213718   8.886   9.480   1.551 -0.8989  1.0199  0.1010
 3226SOL     OW13719   8.890   9.755   2.369  0.0428 -0.2824 -0.0132
 3226SOL    HW113720   8.803   9.749   2.329  0.1689  1.2711 -0.5710
 3226SOL    HW213721   8.950   9.750   2.295  0.3644  0.3993  0.2046
 3227SOL     OW13722   1.287   7.959   8.078  0.1504  0.6771 -0.0226
 3227SOL    HW113723   1.344   8.032   8.103  0.4079  0.5503 -0.2355
 3227SOL    HW213724   1.281   7.966   7.982 -0.8197  1.1609  0.0602
 3228SOL     OW13725   5.853   1.397   2.352 -0.3674  0.3538 -0.1913
 3228SOL    HW113726   5.869   1.383   2.258  0.3347  0.4503 -0.0936
 3228SOL    HW213727   5.806   1.480   2.356  0.7159  0.9980 -0.3861
 3229SOL     OW13728   8.802   8.634   4.732 -0.0711  0.1107  0.2365
 3229SOL    HW113729   8.717   8.590   4.732  1.1620 -2.5415  1.3143
 3229SOL    HW213730   8.827   8.639   4.640 -1.3959  1.0667 -0.1064
 3230SOL     OW13731   5.781   8.100   4.391  0.0677 -0.0040 -0.7075
 3230SOL    HW113732   5.870   8.099   4.427 -0.4244  1.7386  0.6827
 3230SOL    HW213733   5.744   8.015   4.414  0.2359  0.5412  1.7884
 3231SOL     OW13734   5.154   4.319   8.225  0.2945  0.2671 -0.4264
 3231SOL    HW113735   5.191   4.260   8.290  1.1417  0.9069 -0.2981
 3231SOL    HW213736   5.158   4.405   8.267  0.1015  0.5686 -1.0210
 3232SOL     OW13737   3.917   3.290   1.553 -0.1705 -0.7981  0.7478
 3232SOL    HW113738   3.908   3.218   1.616 -2.3405  0.0377  1.5151
 3232SOL    HW213739   3.831   3.332   1.554  0.5354  0.7884 -0.9262
 3233SOL     OW13740   1.064   2.856  10.198 -0.1178 -0.2833  0.1760
 3233SOL    HW113741   1.011   2.919  10.248  0.8498  0.0106  0.8558
 3233SOL    HW213742   1.088   2.902  10.119  1.4728  0.6189  1.1454
 3234SOL     OW13743   3.851   3.336   5.771 -0.0113  0.3293  0.3513
 3234SOL    HW113744   3.884   3.426   5.775  0.4356  0.1613  0.5391
 3234SOL    HW213745   3.791   3.335   5.697 -1.8634  1.3924  1.7725
 3235SOL     OW13746   0.814   2.257   4.506 -0.5353  0.7806 -0.5568
 3235SOL    HW113747   0.794   2.220   4.420  0.9748 -0.7218 -0.3068
 3235SOL    HW213748   0.906   2.283   4.501 -0.1827 -0.0779  0.8270
 3236SOL     OW13749   1.842   8.110   6.531 -0.4047  0.1407 -0.0457
 3236SOL    HW113750   1.840   8.033   6.475 -1.8855  0.2067 -0.1156
 3236SOL    HW213751   1.795   8.084   6.610  0.6591  0.4169  0.7138
 3237SOL     OW13752   1.149   3.409   0.532 -0.2509 -0.1159 -0.2100
 3237SOL    HW113753   1.219   3.404   0.466  1.2655  0.2079  1.2989
 3237SOL    HW213754   1.073   3.370   0.489  1.3866 -2.4471 -1.2558
 3238SOL     OW13755   7.192   9.369   9.259  0.3602  0.4568  0.0501
 3238SOL    HW113756   7.130   9.391   9.328  1.1622  0.8322  0.6711
 3238SOL    HW213757   7.148   9.302   9.207  0.1475 -0.6686  1.5974
 3239SOL     OW13758   7.278  10.147   6.159  0.0213 -0.2763 -0.2556
 3239SOL    HW113759   7.329  10.193   6.093 -0.0257 -1.3985 -1.1103
 3239SOL    HW213760   7.323  10.163   6.241 -0.7623  2.4180 -0.2716
 3240SOL     OW13761   4.584   1.233   3.514 -0.6071 -0.4195  0.2662
 3240SOL    HW113762   4.566   1.258   3.423 -0.1316  0.4120  0.3901
 3240SOL    HW213763   4.611   1.315   3.556 -0.1701 -0.9297  0.9876
 3241SOL     OW13764   7.425   0.713   4.173  0.4518  0.2815 -0.4283
 3241SOL    HW113765   7.377   0.718   4.255  1.8255  1.2263  0.3644
 3241SOL    HW213766   7.514   0.740   4.196  0.2992  3.2731 -2.7015
 3242SOL     OW13767   4.163   1.280   3.227 -0.1756 -0.3800 -0.0423
 3242SOL    HW113768   4.112   1.320   3.157 -0.8110 -1.8187 -0.4482
 3242SOL    HW213769   4.142   1.186   3.221  1.2772 -0.7908  0.8165
 3243SOL     OW13770   2.065   3.645   2.965 -0.3675 -0.1014  0.2190
 3243SOL    HW113771   2.125   3.700   3.015 -1.2548  0.8542  0.2665
 3243SOL    HW213772   1.988   3.700   2.950 -0.7802 -0.9164 -0.8131
 3244SOL     OW13773  10.059   6.862   4.741 -0.3258  0.2581  0.2534
 3244SOL    HW113774  10.063   6.950   4.779 -0.5095 -0.2940  1.6419
 3244SOL    HW213775   9.980   6.824   4.778  0.2948 -0.8396  0.4978
 3245SOL     OW13776   4.544   8.266   9.249 -0.2038 -0.3781  0.1512
 3245SOL    HW113777   4.492   8.342   9.225 -1.1927 -1.4150 -1.1028
 3245SOL    HW213778   4.579   8.287   9.336  0.7237  2.0769 -0.7345
 3246SOL     OW13779   2.677   7.685   8.037  0.4736 -0.5278  0.3269
 3246SOL    HW113780   2.699   7.777   8.045  0.6169 -0.4157 -1.0185
 3246SOL    HW213781   2.600   7.673   8.092  0.5482  0.3529  0.6374
 3247SOL     OW13782   3.801   5.531   8.374 -0.6870 -0.2146  0.2397
 3247SOL    HW113783   3.741   5.582   8.319  0.4783  0.6075 -0.3193
 3247SOL    HW213784   3.768   5.442   8.369 -1.3877  0.0747 -0.7142
 3248SOL     OW13785   8.646   0.465   5.575  0.0568  0.5977  0.3177
 3248SOL    HW113786   8.631   0.539   5.516 -1.9429 -0.2783 -0.3982
 3248SOL    HW213787   8.668   0.392   5.517 -1.3543 -0.1410  0.6629
 3249SOL     OW13788   0.674   5.475   4.374 -0.7054  0.6724  0.0684
 3249SOL    HW113789   0.587   5.436   4.382  0.3654 -2.2245 -0.9573
 3249SOL    HW213790   0.708   5.478   4.463 -1.0732 -0.2513  0.2518
 3250SOL     OW13791   0.247   5.770   4.802  0.1993 -0.1529  0.0388
 3250SOL    HW113792   0.302   5.730   4.735 -3.0949 -2.5995 -1.5301
 3250SOL    HW213793   0.197   5.837   4.755 -0.7948 -0.5685  0.4728
 3251SOL     OW13794   5.636   6.566   5.960  0.2894  0.0472 -0.0356
 3251SOL    HW113795   5.678   6.487   5.995 -0.7099 -1.0201 -1.1088
 3251SOL    HW213796   5.548   6.537   5.938 -0.2610  1.6251  0.0132
 3252SOL     OW13797   4.039   2.788   8.987 -0.0387  1.1514  0.2119
 3252SOL    HW113798   4.028   2.818   8.897  1.5933  0.3163 -0.3028
 3252SOL    HW213799   4.130   2.810   9.009 -0.1514  0.5663  1.3521
 3253SOL     OW13800   4.317   1.288   8.365  0.0094  0.0562  0.4057
 3253SOL    HW113801   4.366   1.341   8.302  0.5043 -1.4045 -0.4805
 3253SOL    HW213802   4.229   1.280   8.327 -0.3566  0.9732  1.0023
 3254SOL     OW13803   1.166   5.745   0.691  0.5286  0.2375 -0.2595
 3254SOL    HW113804   1.123   5.801   0.756  0.7843 -2.3342  2.3373
 3254SOL    HW213805   1.257   5.774   0.691  0.5423  0.2380  0.6305
 3255SOL     OW13806   4.332   8.806   8.844  0.0826 -0.0524  0.2409
 3255SOL    HW113807   4.303   8.856   8.920  0.2140 -1.5259  1.3156
 3255SOL    HW213808   4.422   8.781   8.864  0.3532  0.1156 -0.7124
 3256SOL     OW13809   2.001   3.458   5.405 -0.2615  0.2413  0.3034
 3256SOL    HW113810   2.074   3.468   5.467 -0.8089 -0.2291  1.0394
 3256SOL    HW213811   1.931   3.512   5.443 -1.2341 -1.5103  1.1234
 3257SOL     OW13812   5.533   7.050   0.024  0.0705 -0.2612  0.4175
 3257SOL    HW113813   5.482   7.040   0.104 -0.8958  1.5074  0.0770
 3257SOL    HW213814   5.470   7.082  -0.040  0.9666 -1.0283 -0.9050
 3258SOL     OW13815   0.458   0.174   6.879 -0.2982  0.0550 -0.1283
 3258SOL    HW113816   0.528   0.168   6.944 -0.8789  1.6086  0.7103
 3258SOL    HW213817   0.427   0.084   6.868 -1.0527 -0.1574  2.7827
 3259SOL     OW13818   8.166   1.085   7.765  0.5167 -0.7428 -0.1778
 3259SOL    HW113819   8.249   1.130   7.749  1.5451 -2.0359  1.2104
 3259SOL    HW213820   8.103   1.155   7.781  1.2840  0.2649 -1.3962
 3260SOL     OW13821   8.998   1.377   6.217  0.3182  0.1047 -0.0236
 3260SOL    HW113822   9.074   1.434   6.224 -0.0160  0.4352  1.1405
 3260SOL    HW213823   9.032   1.295   6.180  0.8826  0.8743 -1.2696
 3261SOL     OW13824   5.188   7.253   5.300  0.3144 -0.6115 -0.2219
 3261SOL    HW113825   5.110   7.257   5.354 -0.3774  0.6225 -1.2749
 3261SOL    HW213826   5.248   7.317   5.338  1.2017 -2.1057  1.0702
 3262SOL     OW13827   2.941   1.652   5.383  0.1007  0.0261 -0.4196
 3262SOL    HW113828   2.937   1.689   5.472 -0.5808 -1.5720  0.2551
 3262SOL    HW213829   2.866   1.593   5.379  0.5837 -0.5203 -1.8029
 3263SOL     OW13830   8.976   1.393   6.618 -0.1417 -0.0010  0.2202
 3263SOL    HW113831   8.933   1.444   6.686  1.3155  0.3198  0.9303
 3263SOL    HW213832   9.036   1.454   6.576 -1.0429 -0.1835 -1.4110
 3264SOL     OW13833   0.108   5.044   1.250  0.0930 -0.2691 -0.3568
 3264SOL    HW113834   0.084   4.956   1.221  2.2072 -0.6203 -1.2514
 3264SOL    HW213835   0.202   5.050   1.233  0.2525  1.7161  0.9052
 3265SOL     OW13836   7.525   2.900   0.861  0.3767  0.1000  0.1768
 3265SOL    HW113837   7.521   2.944   0.946 -0.2965 -0.3241  0.3802
 3265SOL    HW213838   7.582   2.825   0.875  0.6046  0.2637  0.1362
 3266SOL     OW13839   1.320   6.904   9.059  0.1867 -0.5652  0.0296
 3266SOL    HW113840   1.255   6.852   9.106  0.5814 -0.9791  0.1187
 3266SOL    HW213841   1.369   6.841   9.008 -0.4104 -0.0888 -1.1606
 3267SOL     OW13842   3.651   4.467   4.331  0.0395  0.0768  0.1783
 3267SOL    HW113843   3.729   4.419   4.358 -0.3405 -0.1613  0.8499
 3267SOL    HW213844   3.647   4.542   4.391 -0.2584  0.0812  0.1530
 3268SOL     OW13845   2.578  10.006   6.259  0.1296  0.6051  0.5738
 3268SOL    HW113846   2.653   9.965   6.301 -0.4557  1.6703  2.8463
 3268SOL    HW213847   2.558   9.951   6.184  2.4275 -0.3608  0.6204
 3269SOL     OW13848   7.302   5.074   8.578  0.4728 -0.0688  0.7461
 3269SOL    HW113849   7.266   5.117   8.656 -0.8797 -0.4763  0.3884
 3269SOL    HW213850   7.260   4.988   8.578  2.0955 -0.8888  0.7143
 3270SOL     OW13851   0.066   9.434   8.161  0.1232  0.0756 -0.1220
 3270SOL    HW113852   0.153   9.474   8.169  0.1026  0.4034 -1.3401
 3270SOL    HW213853   0.027   9.443   8.248  0.8919  0.9208  0.1474
 3271SOL     OW13854   6.286   5.318   2.090 -0.0914 -0.5520 -0.5730
 3271SOL    HW113855   6.274   5.236   2.044 -0.5994 -1.6193  1.3409
 3271SOL    HW213856   6.205   5.367   2.076  0.0489 -0.5471 -1.3748
 3272SOL     OW13857   0.100   3.020   5.400  0.0097  0.2664  0.4525
 3272SOL    HW113858   0.032   2.956   5.420  0.5341 -0.0773  1.1842
 3272SOL    HW213859   0.053   3.099   5.375 -0.6853  0.3996  2.0745
 3273SOL     OW13860   7.013   0.639   9.472  0.0452  0.3628 -0.0760
 3273SOL    HW113861   7.082   0.617   9.410 -1.4108 -0.6538 -1.4329
 3273SOL    HW213862   7.056   0.642   9.557  1.6255 -0.9469 -0.7785
 3274SOL     OW13863   7.403   3.288   1.566  0.0181 -0.5961 -0.3510
 3274SOL    HW113864   7.388   3.213   1.623 -0.8139 -1.1834 -1.3095
 3274SOL    HW213865   7.497   3.307   1.575  0.2111 -1.6723  0.0095
 3275SOL     OW13866   1.102   9.042   6.228 -0.1774 -0.2874  0.5125
 3275SOL    HW113867   1.020   9.005   6.260 -0.3663  0.0105  0.3831
 3275SOL    HW213868   1.078   9.130   6.199  0.3930  0.1863  1.4464
 3276SOL     OW13869   7.435   2.229   6.525  0.2014 -0.0330 -0.2216
 3276SOL    HW113870   7.477   2.268   6.449 -0.7277  0.6666 -0.3927
 3276SOL    HW213871   7.363   2.177   6.489 -0.6561  0.8337  0.1976
 3277SOL     OW13872   7.902   6.344   2.626 -0.3218 -0.2906 -0.6785
 3277SOL    HW113873   7.857   6.418   2.585 -1.3950 -1.2444 -1.2965
 3277SOL    HW213874   7.892   6.272   2.563  0.0664 -1.1499  0.2132
 3278SOL     OW13875   1.521   2.978   2.634  0.4182  0.3033  0.0697
 3278SOL    HW113876   1.452   3.021   2.684  0.3355  0.1447  0.0932
 3278SOL    HW213877   1.539   2.897   2.682  1.5504  0.9680  0.8010
 3279SOL     OW13878   6.002   1.449   6.431  0.5230  0.1326  0.1393
 3279SOL    HW113879   5.926   1.504   6.450  0.4712  0.6378 -1.3884
 3279SOL    HW213880   5.974   1.361   6.454  0.7428  0.7260  3.0227
 3280SOL     OW13881   9.165   1.592   1.480 -0.0793 -0.1755  0.3870
 3280SOL    HW113882   9.137   1.670   1.431  0.6844 -0.7250 -0.9621
 3280SOL    HW213883   9.135   1.518   1.427 -0.6438 -0.8292  1.5705
 3281SOL     OW13884   4.652   5.126   8.489 -0.4171  0.0082 -0.4341
 3281SOL    HW113885   4.614   5.193   8.432 -0.3891 -1.6037 -2.4616
 3281SOL    HW213886   4.578   5.097   8.543 -0.5915  1.1113 -0.0350
 3282SOL     OW13887   6.565   7.519   5.427  0.3633 -0.3361 -0.2609
 3282SOL    HW113888   6.657   7.514   5.454  0.0353 -1.5982  0.6895
 3282SOL    HW213889   6.519   7.460   5.487 -0.9946 -0.1008 -1.0412
 3283SOL     OW13890   6.436   7.813   4.267  0.1384  0.4852  0.1196
 3283SOL    HW113891   6.391   7.873   4.327 -0.6666  0.1650 -0.1598
 3283SOL    HW213892   6.529   7.830   4.283 -0.0667  0.8370  1.0181
 3284SOL     OW13893   4.775   9.041   3.197 -0.0998  0.4532 -0.0929
 3284SOL    HW113894   4.746   8.968   3.252 -0.6977  0.4509 -0.3911
 3284SOL    HW213895   4.699   9.100   3.194 -0.3153  0.1392 -1.4154
 3285SOL     OW13896   4.296   8.181   2.555 -0.1813 -0.3625  0.0020
 3285SOL    HW113897   4.384   8.163   2.589 -0.9957 -1.1167  1.8724
 3285SOL    HW213898   4.238   8.156   2.626 -1.7975  3.5572  0.3522
 3286SOL     OW13899   9.319   6.978   2.682 -0.0305 -0.0565  0.7520
 3286SOL    HW113900   9.280   7.044   2.624  2.9131 -1.4701 -3.2990
 3286SOL    HW213901   9.279   6.896   2.654  0.5790 -0.6720  1.6399
 3287SOL     OW13902   6.758   6.088   4.327 -0.1514 -0.1271  0.1262
 3287SOL    HW113903   6.818   6.162   4.337 -0.7179  0.3989 -0.2670
 3287SOL    HW213904   6.726   6.070   4.415 -0.6380  0.6435  0.1204
 3288SOL     OW13905   3.087  10.199   5.029  0.6235 -0.0627 -0.0654
 3288SOL    HW113906   3.175  10.225   5.053  0.4647  2.1813 -1.5698
 3288SOL    HW213907   3.091  10.186   4.934 -0.3327 -1.5362  0.0583
 3289SOL     OW13908   2.358   2.799   4.270  0.2574 -0.3355 -0.1968
 3289SOL    HW113909   2.270   2.766   4.257  0.8839 -1.5259 -1.7781
 3289SOL    HW213910   2.387   2.759   4.353 -1.0627  1.0449  0.9879
 3290SOL     OW13911   7.379   5.077   2.810 -0.5886  0.2821 -0.8827
 3290SOL    HW113912   7.310   5.113   2.753  1.4646  1.9964 -2.4961
 3290SOL    HW213913   7.387   5.142   2.880 -1.3129 -0.4698 -0.0890
 3291SOL     OW13914   4.290   8.814   9.448 -0.0681 -0.4008  0.4495
 3291SOL    HW113915   4.288   8.784   9.539  0.0218  0.7868  0.8550
 3291SOL    HW213916   4.319   8.905   9.453 -1.9266  0.3138 -0.5752
 3292SOL     OW13917   5.567   6.429   6.728  0.0758 -0.7021 -0.6933
 3292SOL    HW113918   5.633   6.363   6.706  0.5247 -0.6218  0.3510
 3292SOL    HW213919   5.484   6.382   6.726  0.0987 -0.7446 -2.2941
 3293SOL     OW13920   0.400   1.292   1.599  0.0957  0.1339  0.0089
 3293SOL    HW113921   0.483   1.332   1.626 -0.4174  0.7016  0.7830
 3293SOL    HW213922   0.391   1.216   1.655  0.5235 -0.4580 -0.7009
 3294SOL     OW13923   8.508   4.310   1.478  0.3811  0.2717 -0.1592
 3294SOL    HW113924   8.452   4.237   1.505 -0.3167  0.8008 -0.1607
 3294SOL    HW213925   8.458   4.389   1.499  0.8152  0.7445 -0.8329
 3295SOL     OW13926   0.651   0.152   2.794  0.8952 -0.1123 -0.2294
 3295SOL    HW113927   0.683   0.123   2.880  2.7989 -2.2397 -1.5301
 3295SOL    HW213928   0.587   0.220   2.814  1.0472 -0.7187  2.8747
 3296SOL     OW13929   7.852   3.264   0.638  0.3111 -0.5649 -0.3916
 3296SOL    HW113930   7.900   3.345   0.659  0.3911 -0.4062 -1.1735
 3296SOL    HW213931   7.774   3.268   0.694  0.4426 -0.0771 -0.2330
 3297SOL     OW13932   1.979   2.744   5.086 -0.1983 -0.6652  0.1917
 3297SOL    HW113933   1.975   2.801   5.009  1.8983 -0.7386 -0.0325
 3297SOL    HW213934   1.940   2.662   5.057 -2.0161  0.1747  0.1118
 3298SOL     OW13935   7.531   1.003   5.214  0.2947 -0.6573  0.3723
 3298SOL    HW113936   7.472   1.046   5.275  0.5111  0.4992 -0.2007
 3298SOL    HW213937   7.609   0.983   5.265  0.5649  0.5096  0.4353
 3299SOL     OW13938   5.958   7.583   8.332 -0.5597  0.3981 -0.1225
 3299SOL    HW113939   5.884   7.593   8.272 -1.2144 -0.3104  0.5457
 3299SOL    HW213940   5.955   7.662   8.385 -0.9451  0.2973  0.0111
 3300SOL     OW13941   4.349   4.617   4.292 -0.0391  0.2924  0.0779
 3300SOL    HW113942   4.304   4.680   4.348 -0.7935 -0.0620 -0.1192
 3300SOL    HW213943   4.429   4.663   4.265 -0.2406  0.9055  0.4796
 3301SOL     OW13944   6.931   8.326   9.695 -0.0898 -0.0680 -0.0115
 3301SOL    HW113945   6.897   8.368   9.775 -0.2266  0.1541 -0.1842
 3301SOL    HW213946   6.950   8.399   9.637 -0.4713 -0.2546 -0.3728
 3302SOL     OW13947   5.521   5.452   6.335 -0.4072 -0.1930 -0.2681
 3302SOL    HW113948   5.592   5.517   6.335  1.2389 -1.8748 -1.5780
 3302SOL    HW213949   5.523   5.416   6.246 -1.0946 -2.1853  0.4785
 3303SOL     OW13950   6.916   3.422   4.494 -0.2133 -0.4623  0.0459
 3303SOL    HW113951   6.998   3.470   4.485 -0.1813 -0.6582 -0.7066
 3303SOL    HW213952   6.943   3.333   4.520 -0.1969 -0.4885 -0.0616
 3304SOL     OW13953   7.350   0.537   8.143  0.2253 -0.3397 -0.2871
 3304SOL    HW113954   7.415   0.489   8.090 -0.1741  0.0406 -1.1472
 3304SOL    HW213955   7.281   0.473   8.159 -0.0618 -0.2131 -0.9862
 3305SOL     OW13956   5.091   5.393   3.054 -0.0057 -0.5632 -0.0470
 3305SOL    HW113957   5.028   5.324   3.037  0.5134 -0.6124 -1.9847
 3305SOL    HW213958   5.174   5.360   3.019  0.6779  0.2667  0.7187
 3306SOL     OW13959   3.365   3.906   5.386  0.3954  0.6625 -0.6540
 3306SOL    HW113960   3.333   3.874   5.471  1.7972 -1.8996 -0.9692
 3306SOL    HW213961   3.430   3.973   5.409  0.8468 -0.0779  0.3447
 3307SOL     OW13962   8.268   8.864   6.231  0.3144 -0.1053 -0.2604
 3307SOL    HW113963   8.204   8.794   6.226  0.2776 -0.0024 -1.5558
 3307SOL    HW213964   8.219   8.938   6.268 -0.1447 -0.2158 -0.6340
 3308SOL     OW13965   6.410   5.894   7.581 -0.0230  0.9843 -0.2148
 3308SOL    HW113966   6.411   5.942   7.664  1.2203  1.0458 -0.2450
 3308SOL    HW213967   6.472   5.941   7.526  0.0427  0.2487 -0.7808
 3309SOL     OW13968   8.500   2.728   0.663  0.2005  0.1759 -0.3930
 3309SOL    HW113969   8.573   2.790   0.659 -0.2247  0.9349  2.0354
 3309SOL    HW213970   8.534   2.648   0.625  2.6602  0.2239  1.4777
 3310SOL     OW13971   6.537  10.252   6.591 -0.0334  0.1265  0.0490
 3310SOL    HW113972   6.485  10.216   6.519  1.5031  0.4175 -1.2874
 3310SOL    HW213973   6.518  10.346   6.590 -0.0685  0.1195  0.0639
 3311SOL     OW13974   8.997   0.529   1.701 -0.1542  0.4081 -0.3316
 3311SOL    HW113975   8.913   0.484   1.716 -0.8177  1.8390  0.5014
 3311SOL    HW213976   9.063   0.461   1.711 -1.1054 -0.3464  1.1023
 3312SOL     OW13977   0.589  10.238   4.541 -0.1653  0.0189 -0.1879
 3312SOL    HW113978   0.587  10.230   4.637 -2.1855 -0.4988 -0.2211
 3312SOL    HW213979   0.675  10.275   4.522  0.5034 -0.3663  1.7838
 3313SOL     OW13980   5.495   1.133   3.518  0.4540 -0.6342  0.7774
 3313SOL    HW113981   5.553   1.163   3.448 -0.5108 -1.4684 -0.4094
 3313SOL    HW213982   5.538   1.163   3.598  2.6011 -1.3137 -0.0359
 3314SOL     OW13983   7.667   7.218   0.719  0.1504  0.3512  1.0462
 3314SOL    HW113984   7.752   7.227   0.761 -0.6234  0.3780  2.7039
 3314SOL    HW213985   7.667   7.129   0.684  0.0868 -0.4500  2.9599
 3315SOL     OW13986   2.424   9.276   8.152  0.1578  0.1707 -0.1089
 3315SOL    HW113987   2.361   9.347   8.140 -1.3748 -1.1924 -0.3788
 3315SOL    HW213988   2.383   9.200   8.111  1.8295 -0.8544  0.0367
 3316SOL     OW13989   9.003   9.200   1.498 -0.5547  0.5898  0.0196
 3316SOL    HW113990   8.974   9.281   1.457  0.1009  0.2611 -1.1185
 3316SOL    HW213991   9.097   9.197   1.482 -0.0358  0.9749  2.5019
 3317SOL     OW13992   8.016   7.613   4.354 -0.2137  0.1645  0.6279
 3317SOL    HW113993   8.072   7.645   4.425  0.0832 -1.8341  1.3533
 3317SOL    HW213994   8.076   7.593   4.282 -0.3055  0.4502  0.4688
 3318SOL     OW13995   8.615   0.454   4.264  0.0723  0.3083  0.6720
 3318SOL    HW113996   8.652   0.498   4.340 -0.9475  0.5669  1.0367
 3318SOL    HW213997   8.528   0.425   4.293  1.4505 -3.8876  1.1700
 3319SOL     OW13998   2.372   1.470   8.688  0.2496 -0.4499  0.5300
 3319SOL    HW113999   2.402   1.453   8.599  1.5102  0.1990  0.7915
 3319SOL    HW214000   2.285   1.507   8.678  1.0478  1.2889 -0.5839
 3320SOL     OW14001  10.222   3.966   1.335  0.1834  1.0758  0.5009
 3320SOL    HW114002  10.285   3.922   1.392  0.8247  0.4076 -0.6839
 3320SOL    HW214003  10.157   4.003   1.395  0.0490 -0.7991  1.5786
 3321SOL     OW14004   2.567   7.955   9.089 -0.5866  0.1219 -0.0266
 3321SOL    HW114005   2.635   7.906   9.136 -0.8467 -0.5490 -0.3386
 3321SOL    HW214006   2.540   8.023   9.150 -0.4024 -0.2854  0.5155
 3322SOL     OW14007   4.860   5.612   9.335 -0.0027  0.3490  0.1706
 3322SOL    HW114008   4.833   5.648   9.251 -2.4916 -0.0406  0.7518
 3322SOL    HW214009   4.844   5.682   9.399  1.2444  0.4105  0.4576
 3323SOL     OW14010   8.240   9.287   8.594 -0.1748  0.2456  0.4599
 3323SOL    HW114011   8.227   9.381   8.590  2.3786  0.8104  2.4843
 3323SOL    HW214012   8.210   9.262   8.682 -0.3755 -0.7369  0.1277
 3324SOL     OW14013   5.003   0.442   8.085 -0.4586 -0.1039  0.7587
 3324SOL    HW114014   4.991   0.525   8.132 -1.7558  0.6803 -0.8403
 3324SOL    HW214015   5.098   0.434   8.074 -0.2068  0.3329  2.3061
 3325SOL     OW14016   1.786  10.220   2.997  0.5618  0.0721 -0.3983
 3325SOL    HW114017   1.743  10.305   2.988 -1.3065 -0.8449 -0.5480
 3325SOL    HW214018   1.880  10.240   2.989  0.1163  1.9537 -1.5996
 3326SOL     OW14019   4.336   6.808   9.300  0.5878 -0.8681 -0.1267
 3326SOL    HW114020   4.267   6.871   9.278  0.4392 -1.0255 -0.1080
 3326SOL    HW214021   4.326   6.738   9.237  0.5620 -1.0185  0.0430
 3327SOL     OW14022   7.847   2.965   2.919 -0.0992 -0.2951 -0.2217
 3327SOL    HW114023   7.761   3.006   2.929 -0.5266 -0.6621 -2.0750
 3327SOL    HW214024   7.846   2.892   2.980 -1.0177 -0.1554 -0.0544
 3328SOL     OW14025   5.148   6.386   6.852  0.1950 -0.7148  0.0551
 3328SOL    HW114026   5.068   6.384   6.905  0.0287  1.6239 -0.0209
 3328SOL    HW214027   5.216   6.351   6.911 -0.7300 -2.1566  0.3208
 3329SOL     OW14028   7.526   4.090   7.711 -0.1472 -0.3136  0.0965
 3329SOL    HW114029   7.477   4.167   7.739 -0.0610  0.1871 -1.0655
 3329SOL    HW214030   7.470   4.048   7.645 -0.2131 -1.2763  0.7424
 3330SOL     OW14031   7.378   8.577   0.346  0.0993 -0.3681  0.0683
 3330SOL    HW114032   7.360   8.594   0.254  1.5357  0.1929 -0.1252
 3330SOL    HW214033   7.411   8.487   0.348  0.9509 -0.0648 -0.0986
 3331SOL     OW14034   4.140   9.012   0.251 -0.3327 -0.1938 -0.3898
 3331SOL    HW114035   4.170   8.922   0.244  0.1650 -0.0464 -0.2354
 3331SOL    HW214036   4.062   9.016   0.196 -2.0713 -1.4332  1.8357
 3332SOL     OW14037   9.792   3.867   6.151 -0.1506  0.7411  0.4456
 3332SOL    HW114038   9.716   3.812   6.171  1.7780 -2.0126  0.7577
 3332SOL    HW214039   9.821   3.899   6.237  0.0999  0.3167  0.5173
 3333SOL     OW14040   4.563   3.156   0.784  0.0385  0.3862 -0.1057
 3333SOL    HW114041   4.595   3.121   0.701  0.8875  1.3360 -0.1925
 3333SOL    HW214042   4.636   3.207   0.819 -0.3761  0.1711  1.1391
 3334SOL     OW14043   9.769   9.342   7.259  0.2742 -0.4229 -0.0743
 3334SOL    HW114044   9.818   9.423   7.243  2.0754 -1.2645  0.9038
 3334SOL    HW214045   9.687   9.372   7.298  0.9177  0.9489  0.3100
 3335SOL     OW14046   4.412   6.217   6.367  0.1647  0.2417 -0.5945
 3335SOL    HW114047   4.415   6.126   6.338  1.1080 -0.9309  2.8098
 3335SOL    HW214048   4.331   6.224   6.417  1.1143  0.6541  0.9268
 3336SOL     OW14049   6.886   0.029   1.919  0.8007 -0.5448 -0.6641
 3336SOL    HW114050   6.913  -0.055   1.881  1.6718 -0.1604 -0.9187
 3336SOL    HW214051   6.892   0.016   2.013  4.7694  0.3488 -0.6260
 3337SOL     OW14052   2.802   0.878   2.158  0.4631  0.3035  0.3436
 3337SOL    HW114053   2.798   0.784   2.140  0.5173  0.5305 -1.0174
 3337SOL    HW214054   2.852   0.914   2.084 -0.8295  1.5933  0.0471
 3338SOL     OW14055   8.761   1.721   0.331  0.2646 -0.2945  0.2981
 3338SOL    HW114056   8.685   1.673   0.299 -0.7835  1.2992  0.2431
 3338SOL    HW214057   8.739   1.743   0.421 -0.1814  1.6464 -0.2173
 3339SOL     OW14058  10.154  10.166   9.382  0.1628  0.3578 -0.1093
 3339SOL    HW114059  10.069  10.190   9.343  0.0104  1.6467  0.9544
 3339SOL    HW214060  10.198  10.250   9.396  0.0405  0.0034  2.8366
 3340SOL     OW14061   3.724   4.890   2.064  0.0207  0.2564 -0.8152
 3340SOL    HW114062   3.747   4.803   2.095  2.0211  0.6800 -0.9425
 3340SOL    HW214063   3.683   4.876   1.979  0.2983 -0.5512 -0.8223
 3341SOL     OW14064   7.597   1.634   4.903  0.0360 -0.3412 -0.1354
 3341SOL    HW114065   7.523   1.613   4.845 -0.3556  0.1564  0.1729
 3341SOL    HW214066   7.597   1.730   4.907  1.3790 -0.2800 -1.0063
 3342SOL     OW14067   1.350   5.589   8.235  0.4918  0.0229  0.4078
 3342SOL    HW114068   1.361   5.506   8.281 -1.1750 -0.7971 -0.5488
 3342SOL    HW214069   1.281   5.634   8.284 -1.1953 -0.7961 -1.0759
 3343SOL     OW14070   0.407   7.922   6.539 -0.1938 -0.4778  0.2352
 3343SOL    HW114071   0.494   7.942   6.574 -1.3214  1.2826  2.2478
 3343SOL    HW214072   0.412   7.948   6.447  1.0546  0.7878  0.6162
 3344SOL     OW14073   5.597   0.388   3.445  0.1637  0.4332  0.1278
 3344SOL    HW114074   5.530   0.390   3.377 -0.3312 -0.9126  0.5486
 3344SOL    HW214075   5.555   0.427   3.522 -0.6706 -1.6243  0.7975
 3345SOL     OW14076   9.134   6.879   4.684  0.0840 -0.0919  0.1969
 3345SOL    HW114077   9.112   6.806   4.626  1.0515  0.0137 -0.3216
 3345SOL    HW214078   9.136   6.955   4.626  3.2184 -0.2963 -0.1191
 3346SOL     OW14079   0.021  10.030   9.723  0.1551  0.3737 -0.3378
 3346SOL    HW114080  -0.022   9.982   9.793  0.7153 -0.7064 -0.7252
 3346SOL    HW214081  -0.038  10.104   9.705 -1.6902 -1.2029 -1.0354
 3347SOL     OW14082   6.881   6.705   9.613  0.1346 -0.0823  0.1835
 3347SOL    HW114083   6.968   6.670   9.632 -0.9382 -2.6298  0.7490
 3347SOL    HW214084   6.874   6.701   9.517 -0.1227 -1.8975  0.2623
 3348SOL     OW14085   2.056   2.484   6.063 -0.3459 -0.1185  0.0207
 3348SOL    HW114086   2.044   2.505   5.971  1.4963 -1.1091 -0.5104
 3348SOL    HW214087   2.026   2.394   6.071 -0.8683  0.0921  0.4927
 3349SOL     OW14088   7.328   7.352   9.510  0.1869  0.0615  0.4229
 3349SOL    HW114089   7.263   7.413   9.547 -1.0111 -0.4655 -0.7361
 3349SOL    HW214090   7.329   7.278   9.571  0.1847  0.3552  0.7847
 3350SOL     OW14091   1.973   8.851   3.013 -0.2867 -0.2320 -0.3658
 3350SOL    HW114092   1.896   8.855   2.956 -1.8382 -1.2001  1.5157
 3350SOL    HW214093   1.997   8.943   3.027 -0.6257  0.0564 -1.5589
 3351SOL     OW14094   2.522  10.191   0.322 -0.1507  0.2426 -0.0884
 3351SOL    HW114095   2.558  10.103   0.321  0.3877  0.4449 -1.4955
 3351SOL    HW214096   2.590  10.245   0.281 -0.4800  1.3116  0.7306
 3352SOL     OW14097   3.937   9.596   4.579  0.0390 -0.2557  0.0935
 3352SOL    HW114098   4.031   9.612   4.580  0.3694 -1.9462  0.5879
 3352SOL    HW214099   3.908   9.621   4.667  0.2105 -0.5805  0.2470
 3353SOL     OW14100   3.817   9.817   3.243  0.6696  0.1066 -0.3899
 3353SOL    HW114101   3.836   9.724   3.251  0.2853  0.1688  1.8272
 3353SOL    HW214102   3.772   9.825   3.158 -0.3898 -1.9246 -0.0808
 3354SOL     OW14103   4.080   3.415   2.684  0.3504  0.0373  0.6530
 3354SOL    HW114104   4.076   3.464   2.767 -0.3552  0.9593  0.1010
 3354SOL    HW214105   4.064   3.481   2.617 -1.3414 -1.0702 -0.0958
 3355SOL     OW14106   2.983   2.178   2.966  0.0169  0.2680 -0.9128
 3355SOL    HW114107   3.054   2.152   3.024  0.0678 -0.6784 -1.3797
 3355SOL    HW214108   2.914   2.114   2.983 -0.8949  1.4247 -0.1659
 3356SOL     OW14109   5.375   3.296   1.245  0.4165  1.0254  0.1010
 3356SOL    HW114110   5.281   3.300   1.226  0.1424 -2.5639 -0.0573
 3356SOL    HW214111   5.379   3.255   1.332  1.7371 -1.9153 -1.2199
 3357SOL     OW14112   9.484   4.239   1.234  0.3729 -0.3744  0.0190
 3357SOL    HW114113   9.445   4.294   1.166  0.2375 -1.2575 -0.6387
 3357SOL    HW214114   9.429   4.161   1.236  1.2925 -1.0428  0.0427
 3358SOL     OW14115   7.215   2.401   8.870  0.2328  0.0008  0.0742
 3358SOL    HW114116   7.141   2.418   8.813 -0.2365 -0.4238  0.5406
 3358SOL    HW214117   7.270   2.479   8.863  0.2181 -0.0757 -0.9927
 3359SOL     OW14118   1.486  10.179   2.308 -0.0515  0.1869 -0.4629
 3359SOL    HW114119   1.474  10.267   2.274  0.7665  0.7045  0.5271
 3359SOL    HW214120   1.453  10.183   2.398  3.0187  0.4362  0.7547
 3360SOL     OW14121   5.884   3.316   5.904  0.4191 -0.0476 -0.0280
 3360SOL    HW114122   5.899   3.274   5.820  0.8843 -0.6956  0.3738
 3360SOL    HW214123   5.876   3.410   5.883 -0.2956 -0.2881 -0.8831
 3361SOL     OW14124   3.890   1.553   2.555  0.3105  0.0101  0.4860
 3361SOL    HW114125   3.803   1.531   2.588 -0.2693  0.2089 -0.8472
 3361SOL    HW214126   3.905   1.643   2.583 -1.0888  0.9400 -1.5455
 3362SOL     OW14127   4.239   4.817   5.397 -0.7796  0.1371 -0.1442
 3362SOL    HW114128   4.182   4.798   5.471 -1.4527  1.8661 -0.1714
 3362SOL    HW214129   4.181   4.817   5.321 -0.4873  0.4863 -0.3692
 3363SOL     OW14130   9.997   9.295   4.102 -0.4942  0.0164 -0.0439
 3363SOL    HW114131   9.968   9.372   4.053 -0.9886  0.0882  0.3524
 3363SOL    HW214132  10.092   9.307   4.112 -0.4406  0.1537 -0.7034
 3364SOL     OW14133   4.936   2.019   3.226 -0.2420  0.1155  0.1120
 3364SOL    HW114134   4.972   2.107   3.210 -0.8084  0.2728 -0.3260
 3364SOL    HW214135   4.844   2.034   3.249 -0.6812 -0.4332 -1.1885
 3365SOL     OW14136   8.551   2.761   9.003 -0.0941 -0.2959  0.1800
 3365SOL    HW114137   8.595   2.845   8.992 -1.7801  0.3928 -2.0613
 3365SOL    HW214138   8.479   2.779   9.062 -1.9563  0.5578 -2.1979
 3366SOL     OW14139   8.116  10.230   6.598 -0.1075 -0.3926 -0.6297
 3366SOL    HW114140   8.185  10.296   6.592  0.4748 -0.9047  0.2211
 3366SOL    HW214141   8.110  10.194   6.509 -0.1730  0.5410 -1.0082
 3367SOL     OW14142   0.064   1.530   6.948  0.1527 -0.1426  0.0303
 3367SOL    HW114143  -0.005   1.586   6.981 -0.0340 -0.6359  0.4871
 3367SOL    HW214144   0.119   1.588   6.895 -0.6277  0.2390 -0.3712
 3368SOL     OW14145   2.239   3.209   3.310 -0.1870  0.2203  0.2466
 3368SOL    HW114146   2.284   3.126   3.300  2.0315  1.5829 -2.2469
 3368SOL    HW214147   2.166   3.205   3.248 -0.5903 -0.1187  0.7274
 3369SOL     OW14148   6.160   2.004   9.138 -0.2034 -0.2556 -0.1212
 3369SOL    HW114149   6.234   1.954   9.105  0.3850 -0.2278  1.1243
 3369SOL    HW214150   6.150   2.076   9.075 -1.1606 -1.9377 -2.0445
 3370SOL     OW14151   0.678   1.366   9.889 -0.3555 -0.1434  0.4776
 3370SOL    HW114152   0.732   1.431   9.934  1.7229 -1.1862 -0.3883
 3370SOL    HW214153   0.624   1.327   9.957  0.8048  0.1546  1.5925
 3371SOL     OW14154   8.504   0.538   6.231  0.0057 -0.1326 -0.1840
 3371SOL    HW114155   8.429   0.538   6.172  0.6611 -2.0328 -1.1028
 3371SOL    HW214156   8.473   0.496   6.311 -0.1894  0.0403 -0.1689
 3372SOL     OW14157   0.933   9.704   2.446  0.0769 -0.1705 -0.7237
 3372SOL    HW114158   0.908   9.679   2.535 -0.6904 -0.5035 -1.0211
 3372SOL    HW214159   1.010   9.652   2.426  1.7119  1.6128  0.5981
 3373SOL     OW14160   6.845   3.974   0.165  0.3554  0.4967 -0.1211
 3373SOL    HW114161   6.781   3.914   0.204  0.8026 -0.5092 -0.8906
 3373SOL    HW214162   6.885   4.018   0.240 -1.4722  1.4173  0.3622
 3374SOL     OW14163   8.091   6.010   4.675  0.0800 -0.2865 -0.8933
 3374SOL    HW114164   8.018   5.991   4.734  0.5214  0.2272 -0.1617
 3374SOL    HW214165   8.095   5.935   4.616 -1.0010 -0.3463 -0.9116
 3375SOL     OW14166   1.050   1.117   0.068  0.1697  0.0101  0.3106
 3375SOL    HW114167   1.009   1.083   0.148  1.4283  0.5532  1.2244
 3375SOL    HW214168   1.089   1.040   0.027 -1.4126 -0.4465 -0.3719
 3376SOL     OW14169   2.150   3.974   2.770 -0.6201  0.4368  0.3492
 3376SOL    HW114170   2.235   3.991   2.730 -0.8435  1.0301  0.1252
 3376SOL    HW214171   2.114   3.900   2.720  0.1842 -0.4713  1.0821
 3377SOL     OW14172   8.894   3.480   8.462 -0.4370 -0.2842  0.5626
 3377SOL    HW114173   8.972   3.450   8.415 -1.1788 -2.5260  0.6424
 3377SOL    HW214174   8.859   3.550   8.406 -0.1354 -1.4418 -1.1687
 3378SOL     OW14175   4.026   4.581   2.663  0.0700  0.4341  0.6842
 3378SOL    HW114176   4.010   4.663   2.617  0.8117  0.3221  0.2145
 3378SOL    HW214177   3.939   4.549   2.686 -0.3008  0.6266 -0.3930
 3379SOL     OW14178   9.828   8.456   4.296 -0.2529 -0.1385  0.1503
 3379SOL    HW114179   9.813   8.542   4.257 -0.4530  0.0633  0.6545
 3379SOL    HW214180   9.875   8.475   4.378 -0.6136 -0.4756  0.4410
 3380SOL     OW14181   1.852   3.344   0.677 -0.4805 -0.1814 -0.3074
 3380SOL    HW114182   1.814   3.270   0.723  0.0534 -1.4220 -1.7604
 3380SOL    HW214183   1.792   3.361   0.604 -1.1004  1.4701  0.5362
 3381SOL     OW14184   1.458   4.578   1.776 -0.3115  0.0694  0.6780
 3381SOL    HW114185   1.460   4.538   1.689  0.1189  0.5288  0.4755
 3381SOL    HW214186   1.535   4.542   1.821  0.5926  1.3399  0.1889
 3382SOL     OW14187   7.123   1.900   6.562 -0.8314 -0.0815 -0.0739
 3382SOL    HW114188   7.093   1.854   6.483 -1.6737  1.7614 -0.9006
 3382SOL    HW214189   7.202   1.945   6.535 -0.1175 -0.8486  0.6771
 3383SOL     OW14190   0.404   2.223   3.845  0.2824  0.1925 -0.7685
 3383SOL    HW114191   0.475   2.195   3.902  1.0948 -0.2957 -1.9668
 3383SOL    HW214192   0.357   2.290   3.895 -0.5008 -1.8480  1.3979
 3384SOL     OW14193   5.921   1.484   7.228 -0.8935  0.3458  0.1850
 3384SOL    HW114194   5.826   1.489   7.214 -0.8047  0.9294 -0.2796
 3384SOL    HW214195   5.949   1.406   7.181 -1.1286  0.2461  0.2114
 3385SOL     OW14196   9.865   2.243   5.185 -0.4447 -0.3991  0.1743
 3385SOL    HW114197   9.772   2.219   5.189 -0.9118  0.9917 -1.3344
 3385SOL    HW214198   9.894   2.214   5.099  0.4025 -0.4368  0.4656
 3386SOL     OW14199   3.451   5.796   9.766  0.5156 -0.0685  0.4952
 3386SOL    HW114200   3.391   5.791   9.840 -0.0485  0.3393  0.0782
 3386SOL    HW214201   3.394   5.809   9.690  1.1994  2.3440  0.3095
 3387SOL     OW14202   4.226   6.470   8.166 -0.0257 -0.5961  0.3328
 3387SOL    HW114203   4.254   6.405   8.101 -0.8157 -0.4054 -0.2100
 3387SOL    HW214204   4.206   6.418   8.244 -1.7058 -1.1737 -0.4289
 3388SOL     OW14205   8.362   4.841   6.033 -0.2993  0.3123  0.0436
 3388SOL    HW114206   8.395   4.905   5.970 -2.1605  1.2372 -0.0682
 3388SOL    HW214207   8.285   4.803   5.989  1.2876 -2.8022 -0.3383
 3389SOL     OW14208   7.751   5.779   3.200 -0.1615  0.5897 -0.0056
 3389SOL    HW114209   7.730   5.756   3.110  0.3053  0.3876 -0.0665
 3389SOL    HW214210   7.781   5.697   3.240  0.2932  0.8176  0.1349
 3390SOL     OW14211   8.451   2.930   8.450  0.2638  0.2384  0.4222
 3390SOL    HW114212   8.502   2.940   8.530 -2.0703  0.9486  1.9121
 3390SOL    HW214213   8.441   2.836   8.440  2.3345  0.0387 -0.2882
 3391SOL     OW14214   5.904   9.499   9.145 -0.1466  0.3035  0.7490
 3391SOL    HW114215   5.925   9.587   9.175  0.6552 -0.2746  1.9378
 3391SOL    HW214216   5.824   9.476   9.192 -1.0691  0.8425 -0.4981
 3392SOL     OW14217   2.110   0.496   3.478 -0.0207 -0.5412 -0.3468
 3392SOL    HW114218   2.061   0.562   3.527 -1.4184 -1.1505 -0.8840
 3392SOL    HW214219   2.076   0.413   3.511  1.9826 -1.0336  0.5955
 3393SOL     OW14220   5.936   3.045   7.847 -0.2634 -0.5208 -0.0855
 3393SOL    HW114221   5.862   3.009   7.798  1.6558 -0.0498 -3.6400
 3393SOL    HW214222   5.927   3.140   7.839 -0.4242 -0.3822  1.4257
 3394SOL     OW14223   4.787   5.047   4.901  0.0275  0.6740  0.5738
 3394SOL    HW114224   4.870   5.047   4.853  0.2132  2.3298  0.8477
 3394SOL    HW214225   4.721   5.027   4.834  0.6734 -1.4592  0.5006
 3395SOL     OW14226   1.793   7.773   1.052 -0.0101 -0.3906 -0.1673
 3395SOL    HW114227   1.814   7.866   1.042  1.2126 -0.5062  0.9279
 3395SOL    HW214228   1.698   7.770   1.052 -0.0849  0.9592  0.4101
 3396SOL     OW14229   0.433   3.072   0.682 -0.5009  0.6288  0.2995
 3396SOL    HW114230   0.389   3.094   0.600  0.1305  0.8249  0.0040
 3396SOL    HW214231   0.434   3.154   0.731 -0.6998  0.5597  0.4199
 3397SOL     OW14232   2.008   3.736   9.213  0.0263 -0.0692  0.4652
 3397SOL    HW114233   2.078   3.671   9.201  1.4484  0.7989  3.1008
 3397SOL    HW214234   1.928   3.684   9.219  0.5890 -1.2195 -1.2428
 3398SOL     OW14235   5.673   8.544   0.564 -0.0837  0.1200 -0.4830
 3398SOL    HW114236   5.719   8.623   0.537  0.0715  1.2848  2.7097
 3398SOL    HW214237   5.742   8.482   0.587 -0.1848 -0.0975 -0.7593
 3399SOL     OW14238   2.174   3.359   9.390  0.4388 -0.0146  0.0681
 3399SOL    HW114239   2.183   3.346   9.484  1.0046 -0.2954 -0.0147
 3399SOL    HW214240   2.224   3.439   9.372  0.9193 -0.3377 -0.0811
 3400SOL     OW14241   4.827   7.292   0.260  0.1714 -0.7568 -0.4708
 3400SOL    HW114242   4.830   7.356   0.331 -0.0421 -0.4473 -0.7322
 3400SOL    HW214243   4.737   7.259   0.262 -0.3664  0.5038 -1.6580
 3401SOL     OW14244   4.783   5.646   4.423  0.0964  0.0557 -0.1051
 3401SOL    HW114245   4.834   5.566   4.407  0.3087  0.3440 -0.9405
 3401SOL    HW214246   4.840   5.717   4.393 -1.1269  0.3322 -1.9403
 3402SOL     OW14247   7.778   3.122   6.766  0.0793  0.2938  0.2977
 3402SOL    HW114248   7.773   3.084   6.854  1.7756 -1.2452 -0.2001
 3402SOL    HW214249   7.794   3.047   6.708  0.5771  1.4403 -1.1180
 3403SOL     OW14250   8.813   9.823   1.435 -0.2635  0.5693  0.1859
 3403SOL    HW114251   8.812   9.776   1.352  1.7531  0.7894 -0.0017
 3403SOL    HW214252   8.790   9.913   1.411  0.1806  0.6047 -0.1207
 3404SOL     OW14253   8.131   2.450   4.385 -0.2046 -0.8907  0.2906
 3404SOL    HW114254   8.224   2.436   4.407 -0.2281  0.7004  1.6290
 3404SOL    HW214255   8.086   2.373   4.420  0.4727 -1.0988  0.7223
 3405SOL     OW14256   7.888   0.697   4.962 -0.4805 -0.2871 -0.8158
 3405SOL    HW114257   7.828   0.765   4.994  0.5251 -0.7308  2.4587
 3405SOL    HW214258   7.963   0.745   4.927  0.1909  0.4019  1.3999
 3406SOL     OW14259   3.302   2.201   5.928 -0.1361 -0.3290 -0.1758
 3406SOL    HW114260   3.273   2.218   5.838 -0.8326  0.9020  0.2547
 3406SOL    HW214261   3.314   2.288   5.966 -3.8794 -0.6452  2.2067
 3407SOL     OW14262   7.818   1.115   3.818 -0.2034  0.6949  0.2620
 3407SOL    HW114263   7.777   1.036   3.854 -1.5472  0.0747 -2.3318
 3407SOL    HW214264   7.787   1.186   3.874 -3.2061 -0.0493 -0.2583
 3408SOL     OW14265   2.217   4.738   4.913 -0.2867 -0.4244 -0.0548
 3408SOL    HW114266   2.260   4.813   4.953 -0.0937 -1.7740  2.5350
 3408SOL    HW214267   2.124   4.749   4.935 -0.5004 -0.1440 -1.0735
 3409SOL     OW14268   1.323   9.490   3.900  0.3866  0.1715 -0.3425
 3409SOL    HW114269   1.270   9.459   3.827  0.4218  0.2111 -0.3856
 3409SOL    HW214270   1.319   9.586   3.893 -2.2687  0.2900  1.6215
 3410SOL     OW14271   8.546   7.773   8.284  0.6645  0.6031  0.3260
 3410SOL    HW114272   8.521   7.864   8.295 -0.9437  0.5147 -1.8438
 3410SOL    HW214273   8.473   7.723   8.321  0.5918  0.2270 -0.3106
 3411SOL     OW14274  10.068   5.749   3.198  0.4930 -0.0506  0.2669
 3411SOL    HW114275  10.150   5.714   3.162 -0.7160  0.8848 -3.8743
 3411SOL    HW214276  10.001   5.685   3.172 -0.5642  1.0662  0.1585
 3412SOL     OW14277   2.033   5.769   5.726 -0.0584 -0.0768  0.2518
 3412SOL    HW114278   2.088   5.691   5.726  0.1015  0.0215  1.2551
 3412SOL    HW214279   2.095   5.842   5.714 -0.1830 -0.0830 -0.4661
 3413SOL     OW14280   9.997   2.580   2.922 -0.2475  0.9973  0.0201
 3413SOL    HW114281  10.000   2.486   2.939 -0.2364  1.0590  0.3776
 3413SOL    HW214282   9.927   2.613   2.979  1.4511  1.5904  1.9239
 3414SOL     OW14283   5.705   3.983   5.592 -0.2943 -0.1612  0.6863
 3414SOL    HW114284   5.644   3.921   5.631 -1.4754  0.2983 -0.3669
 3414SOL    HW214285   5.714   4.053   5.658 -0.9834 -0.1864  0.8136
 3415SOL     OW14286   6.450   6.392   4.360  0.2724 -0.0620  0.2768
 3415SOL    HW114287   6.449   6.314   4.304 -2.5701 -0.7416  1.1393
 3415SOL    HW214288   6.495   6.363   4.439 -1.1784 -1.0548  0.7890
 3416SOL     OW14289   1.390   0.804   0.345 -0.0336  0.0515 -0.1468
 3416SOL    HW114290   1.404   0.862   0.420  2.0115 -2.5754  1.7090
 3416SOL    HW214291   1.471   0.810   0.294 -0.0877 -0.6429 -0.3227
 3417SOL     OW14292   8.769   9.662  10.196 -0.1402 -0.5817 -0.2364
 3417SOL    HW114293   8.736   9.679  10.108 -0.1792  0.3724 -0.0494
 3417SOL    HW214294   8.831   9.733  10.212 -1.2271  0.1172  1.0557
 3418SOL     OW14295   2.640   9.258   7.944 -0.4779  0.1697  0.1841
 3418SOL    HW114296   2.586   9.202   8.001  0.9815 -0.0895  1.3661
 3418SOL    HW214297   2.710   9.200   7.913 -2.0337 -0.1342 -3.2258
 3419SOL     OW14298   8.533   2.572   1.147  0.0656 -0.5664  0.1644
 3419SOL    HW114299   8.467   2.623   1.101 -0.8728 -0.9741  1.0269
 3419SOL    HW214300   8.616   2.605   1.113 -0.5716 -0.1366 -1.0332
 3420SOL     OW14301   8.110   1.521   4.287 -0.0047  0.7441  0.2848
 3420SOL    HW114302   8.020   1.529   4.317  0.3138  1.9696  0.9638
 3420SOL    HW214303   8.161   1.574   4.348  1.0058  1.1914 -0.8997
 3421SOL     OW14304   3.714   3.679   2.539  0.1725 -0.2397 -0.4074
 3421SOL    HW114305   3.693   3.754   2.594  0.8482  1.3662 -2.2432
 3421SOL    HW214306   3.655   3.686   2.465 -1.9049 -3.3189  0.7649
 3422SOL     OW14307   3.387   5.850   8.864 -0.4365  0.9237  0.5741
 3422SOL    HW114308   3.334   5.921   8.827 -0.1827  0.7333 -0.1800
 3422SOL    HW214309   3.359   5.772   8.816 -0.0066  0.6939  0.6878
 3423SOL     OW14310   4.829   6.648   2.578  0.4291 -0.1083 -0.3439
 3423SOL    HW114311   4.754   6.703   2.557  0.8168  0.0613 -1.3365
 3423SOL    HW214312   4.905   6.696   2.544  0.8378 -0.9455 -0.6523
 3424SOL     OW14313   9.837   2.668   5.738  0.5108  0.6872 -0.2856
 3424SOL    HW114314   9.753   2.624   5.749  0.6038  0.7264  0.7238
 3424SOL    HW214315   9.902   2.604   5.766  1.0190 -0.0819 -2.9964
 3425SOL     OW14316   1.023   4.413   6.429  0.2480  0.0247 -0.1725
 3425SOL    HW114317   0.937   4.407   6.471 -0.9886 -1.4877 -2.6878
 3425SOL    HW214318   1.003   4.416   6.335  2.9572 -1.3063 -0.8732
 3426SOL     OW14319   8.265   1.222  10.092 -0.0382 -0.3804 -0.3003
 3426SOL    HW114320   8.244   1.141  10.138 -0.0073  0.5149  1.3602
 3426SOL    HW214321   8.293   1.282  10.161  0.2516  0.9493 -1.5319
 3427SOL     OW14322   2.151   1.038   5.248 -0.5626 -0.0789 -0.4349
 3427SOL    HW114323   2.166   1.096   5.322  0.1320 -1.1058  0.2576
 3427SOL    HW214324   2.215   1.064   5.182 -0.0107 -0.2735  0.0145
 3428SOL     OW14325   2.996   6.791   7.340 -0.1217 -0.4370  0.1466
 3428SOL    HW114326   2.909   6.783   7.379  0.1084  2.0545  1.3705
 3428SOL    HW214327   2.980   6.821   7.251 -0.5207  0.3958  0.4927
 3429SOL     OW14328   5.812   6.928   3.264  0.4763  0.0800 -0.1479
 3429SOL    HW114329   5.867   6.987   3.316 -0.2682  0.8889 -0.2567
 3429SOL    HW214330   5.872   6.858   3.237  1.4689  0.9400 -0.2765
 3430SOL     OW14331   2.614   9.900   2.452  0.5275 -0.1762 -0.2139
 3430SOL    HW114332   2.545   9.834   2.443  1.0380 -0.9009  0.8592
 3430SOL    HW214333   2.695   9.852   2.435  0.8844  0.2481  0.2730
 3431SOL     OW14334   3.979   3.032   9.167 -0.5288  0.3460  0.2064
 3431SOL    HW114335   4.056   3.082   9.196 -0.2125  0.4562 -0.7929
 3431SOL    HW214336   4.015   2.961   9.114 -1.1338  0.7344 -0.7584
 3432SOL     OW14337   5.276   3.602   2.005 -0.0678 -0.4925 -0.0558
 3432SOL    HW114338   5.355   3.587   1.953  0.0270 -0.4006  0.0635
 3432SOL    HW214339   5.306   3.650   2.082 -0.4076  0.5261 -0.5505
 3433SOL     OW14340   8.996   4.950   3.341 -0.3339  0.2938 -0.5550
 3433SOL    HW114341   9.044   4.940   3.423 -2.2396  0.6492  0.6632
 3433SOL    HW214342   9.052   5.006   3.287  0.6646  0.5925  0.7317
 3434SOL     OW14343   8.547   8.111   8.295  0.0298  0.2105  0.0190
 3434SOL    HW114344   8.498   8.071   8.223  0.8493 -0.7893 -0.0133
 3434SOL    HW214345   8.614   8.163   8.252  1.5746 -1.6824 -0.0308
 3435SOL     OW14346   3.747   1.779   7.261 -0.4390  0.5441  0.8613
 3435SOL    HW114347   3.663   1.801   7.302 -1.4858  0.7422 -1.2087
 3435SOL    HW214348   3.738   1.687   7.236 -0.3765  0.7826 -0.0699
 3436SOL     OW14349   8.598   6.209   1.402  0.0922 -0.3202  0.3349
 3436SOL    HW114350   8.578   6.157   1.480 -1.2453  0.8253  0.7942
 3436SOL    HW214351   8.627   6.293   1.436 -0.6687  0.2493 -0.4092
 3437SOL     OW14352   8.554   6.069   7.370 -0.2501 -0.2567  0.4198
 3437SOL    HW114353   8.555   5.980   7.404 -1.5353  0.1177  1.5080
 3437SOL    HW214354   8.646   6.096   7.371 -0.0061 -1.0564  1.4764
 3438SOL     OW14355   2.670   7.362   5.124  0.2022  0.5810 -0.0651
 3438SOL    HW114356   2.740   7.313   5.082 -1.3191 -1.0935 -0.7775
 3438SOL    HW214357   2.657   7.438   5.068 -0.0146 -0.2598 -1.2095
 3439SOL     OW14358   1.403   9.200   1.294 -0.3066  0.1251  0.2846
 3439SOL    HW114359   1.443   9.139   1.231  1.2021  0.5374  0.8022
 3439SOL    HW214360   1.404   9.285   1.249 -0.8851  0.0924  0.1982
 3440SOL     OW14361   1.684   4.743   1.099 -0.0351 -0.1978  0.0624
 3440SOL    HW114362   1.600   4.725   1.142  0.0509  1.0286  0.8023
 3440SOL    HW214363   1.690   4.839   1.099  0.5487 -0.2061 -1.6013
 3441SOL     OW14364   5.063   0.122   7.707 -0.3773 -0.2859 -0.5087
 3441SOL    HW114365   5.083   0.178   7.631  0.2841  1.1800  0.6964
 3441SOL    HW214366   4.995   0.170   7.755  1.3178  0.3425  1.3938
 3442SOL     OW14367   0.073   6.247   7.752 -0.3329 -0.1033 -0.3698
 3442SOL    HW114368   0.016   6.244   7.675  0.3639  2.3634 -1.0467
 3442SOL    HW214369   0.125   6.167   7.746 -2.1170 -1.3062 -0.9321
 3443SOL     OW14370   6.502   1.469   5.412 -0.2105  0.1667 -0.5664
 3443SOL    HW114371   6.580   1.518   5.389  0.4953  0.3300  1.8643
 3443SOL    HW214372   6.532   1.379   5.423 -0.2180  0.3101  0.8236
 3444SOL     OW14373   0.410   2.298   2.248 -0.5492 -0.1927  0.0610
 3444SOL    HW114374   0.397   2.215   2.293  2.1200  0.0699  1.4966
 3444SOL    HW214375   0.342   2.356   2.283 -1.6413 -1.3810 -0.0345
 3445SOL     OW14376   7.359   3.932   1.463 -0.5003 -0.3887 -0.4399
 3445SOL    HW114377   7.346   3.989   1.387 -1.7535  1.4286  1.0539
 3445SOL    HW214378   7.454   3.918   1.466 -0.1187  1.6939 -0.8691
 3446SOL     OW14379   7.809   9.381   3.965 -0.5064 -0.1473  0.2637
 3446SOL    HW114380   7.810   9.456   3.905  0.8174 -0.8831 -0.6901
 3446SOL    HW214381   7.901   9.366   3.986 -0.3340 -3.2943 -1.9841
 3447SOL     OW14382   6.380   6.696   9.978 -0.6689  0.0063 -0.1069
 3447SOL    HW114383   6.346   6.785   9.967 -2.0289 -0.5155 -0.2269
 3447SOL    HW214384   6.331   6.644   9.915 -0.0029 -0.8706  0.0890
 3448SOL     OW14385   5.469   5.240   1.032 -0.4771 -0.0413  0.0625
 3448SOL    HW114386   5.526   5.221   1.107 -1.4759 -1.2661  0.5590
 3448SOL    HW214387   5.398   5.293   1.069  0.7431  2.2600 -0.7323
 3449SOL     OW14388   6.393   5.639  10.158 -0.3715  0.4314 -0.7361
 3449SOL    HW114389   6.387   5.735  10.164 -0.1559  0.5272 -1.7935
 3449SOL    HW214390   6.486   5.623  10.138  0.0272 -0.1296  1.3743
 3450SOL     OW14391   1.145   8.839   3.341  0.1820 -0.2466 -0.2125
 3450SOL    HW114392   1.179   8.864   3.255 -0.3362  1.4646  0.0472
 3450SOL    HW214393   1.055   8.809   3.324  0.6722 -1.6463 -0.4716
 3451SOL     OW14394   5.634   4.711   5.287  0.0214 -0.0883  0.0016
 3451SOL    HW114395   5.540   4.700   5.300  0.3225 -0.6348  2.0516
 3451SOL    HW214396   5.647   4.806   5.287 -0.5374 -0.0052 -0.4592
 3452SOL     OW14397   9.103   8.374   4.316  0.3425 -0.6967  0.5291
 3452SOL    HW114398   9.098   8.415   4.403  1.7252  0.3872  0.1420
 3452SOL    HW214399   9.097   8.447   4.255 -0.4915 -1.4358 -0.3014
 3453SOL     OW14400   3.170  10.248   4.137  0.6184 -0.3283 -0.3812
 3453SOL    HW114401   3.152  10.318   4.074  0.8553 -0.2157 -0.3255
 3453SOL    HW214402   3.128  10.276   4.218 -0.6105 -0.9731 -0.7714
 3454SOL     OW14403   9.575   0.426   0.409  0.4876  0.0561  0.0748
 3454SOL    HW114404   9.648   0.408   0.468  1.9836  2.3883 -0.9022
 3454SOL    HW214405   9.536   0.340   0.391  2.1604 -1.1025  1.6599
 3455SOL     OW14406   3.850   4.706   2.870 -0.3929  0.3569  0.1932
 3455SOL    HW114407   3.773   4.672   2.824  0.4284 -0.2234 -0.7950
 3455SOL    HW214408   3.814   4.747   2.949 -1.4898 -2.5856  1.3682
 3456SOL     OW14409   2.208   6.369   6.326  0.0481  0.2160  0.7738
 3456SOL    HW114410   2.122   6.371   6.368 -0.4954 -0.5653 -0.2342
 3456SOL    HW214411   2.244   6.283   6.349  0.1765  0.1908  0.4845
 3457SOL     OW14412   5.103   0.709   3.515  0.4166  0.3339  0.7517
 3457SOL    HW114413   5.152   0.787   3.488  0.8532  0.1096  0.8893
 3457SOL    HW214414   5.164   0.660   3.571 -0.1833  0.3707  1.4517
 3458SOL     OW14415   6.158   6.796   3.549  0.0673 -0.5918 -0.1691
 3458SOL    HW114416   6.112   6.790   3.465  0.6279 -0.9107 -0.4543
 3458SOL    HW214417   6.188   6.887   3.553  1.2968 -0.9386 -0.9907
 3459SOL     OW14418   2.480   4.287   9.876 -0.0704 -0.1358  0.0980
 3459SOL    HW114419   2.476   4.274   9.971  0.6321 -1.5018 -0.0382
 3459SOL    HW214420   2.392   4.316   9.852 -0.4998 -0.6056  1.0570
 3460SOL     OW14421   7.350   8.329   0.598  0.4600  0.0832 -0.4298
 3460SOL    HW114422   7.439   8.316   0.632 -0.4126  2.3794  3.3753
 3460SOL    HW214423   7.330   8.421   0.617 -3.6470 -0.9909  1.5473
 3461SOL     OW14424   3.401   7.762   8.020 -0.2916  0.3941 -0.0551
 3461SOL    HW114425   3.323   7.815   8.037 -0.5066  0.2032 -0.4461
 3461SOL    HW214426   3.457   7.777   8.097 -0.7042  0.5413  0.2176
 3462SOL     OW14427   3.668   6.052   1.229 -0.2424 -0.6191  0.1761
 3462SOL    HW114428   3.641   6.036   1.319 -1.0832  1.9441  0.4776
 3462SOL    HW214429   3.747   6.107   1.237 -0.0042 -0.8204 -0.6590
 3463SOL     OW14430   1.778   9.631   1.617  0.1171  0.1796 -0.4823
 3463SOL    HW114431   1.733   9.663   1.538 -2.2437 -0.5344  0.4982
 3463SOL    HW214432   1.780   9.706   1.676  0.3405  0.2458 -0.5736
 3464SOL     OW14433   3.232   9.069   6.468 -0.2788  0.2034 -0.8719
 3464SOL    HW114434   3.148   9.025   6.483  0.9259 -2.0913 -0.3334
 3464SOL    HW214435   3.266   9.030   6.388 -0.1494  1.8916 -1.6887
 3465SOL     OW14436   4.098   3.478   3.235  0.2974 -0.2616 -0.7192
 3465SOL    HW114437   4.150   3.554   3.211  0.5300  0.1384  0.9083
 3465SOL    HW214438   4.158   3.404   3.230  0.9563  0.1329  0.7008
 3466SOL     OW14439   2.373   7.940   4.977  0.5967 -0.3295 -0.5263
 3466SOL    HW114440   2.344   8.027   5.004  0.1980 -0.0613 -1.7762
 3466SOL    HW214441   2.451   7.924   5.030  0.7965  0.8702 -0.4220
 3467SOL     OW14442   9.679   0.850   1.542 -0.0746 -0.2190  0.1235
 3467SOL    HW114443   9.705   0.886   1.627  1.0295 -1.6100  0.4174
 3467SOL    HW214444   9.596   0.805   1.560 -0.7306  0.9401  0.0636
 3468SOL     OW14445   6.613   1.206   2.226  0.0431 -0.3795  0.5047
 3468SOL    HW114446   6.643   1.294   2.249  0.4293 -0.4749  0.3858
 3468SOL    HW214447   6.521   1.204   2.250 -0.1449  0.2785 -0.1182
 3469SOL     OW14448   2.662   5.609   4.485 -0.6033  0.1525 -0.3370
 3469SOL    HW114449   2.570   5.628   4.464 -0.3471  2.6692  0.4066
 3469SOL    HW214450   2.658   5.561   4.568 -1.2535  0.9994  0.1423
 3470SOL     OW14451   4.766   7.378   6.509  0.4262 -0.3739 -0.6291
 3470SOL    HW114452   4.751   7.397   6.416  1.0085 -0.2157 -0.6969
 3470SOL    HW214453   4.858   7.400   6.523  0.3666 -0.4901 -0.0348
 3471SOL     OW14454   6.354   8.916   0.619 -0.0003  0.5444 -0.5312
 3471SOL    HW114455   6.343   8.826   0.589 -0.5525  0.6567 -0.6842
 3471SOL    HW214456   6.388   8.963   0.543  1.1503  0.2876 -0.1876
 3472SOL     OW14457   5.767   3.134   2.238  0.4329  0.3777 -0.5435
 3472SOL    HW114458   5.694   3.154   2.296  0.4909 -1.5307  0.2848
 3472SOL    HW214459   5.740   3.166   2.152 -1.3723 -0.2305 -0.2418
 3473SOL     OW14460   4.899   5.068   9.984  0.7909 -0.2047  0.4662
 3473SOL    HW114461   4.942   4.984   9.992  2.1258  0.5478  1.4298
 3473SOL    HW214462   4.806   5.049   9.999  1.2965 -1.2219  2.6083
 3474SOL     OW14463   5.804   8.103   0.905  0.2296 -0.2928 -0.5413
 3474SOL    HW114464   5.756   8.140   0.979  1.0211  0.9017 -0.6039
 3474SOL    HW214465   5.837   8.179   0.857  0.5814 -1.0650 -1.5584
 3475SOL     OW14466   7.673   1.732   1.196  0.3506 -0.4286 -0.2299
 3475SOL    HW114467   7.713   1.704   1.114  0.6403 -1.6005  0.2999
 3475SOL    HW214468   7.591   1.683   1.201 -0.5687  0.9782 -0.6668
 3476SOL     OW14469   0.888   9.543   1.483  0.1841 -0.1876 -0.2766
 3476SOL    HW114470   0.910   9.465   1.535  0.6361  0.0467 -0.1155
 3476SOL    HW214471   0.817   9.585   1.532  1.2367  0.5393  0.6651
 3477SOL     OW14472   7.045   3.706   5.592  0.1813 -0.3304  0.4697
 3477SOL    HW114473   7.136   3.723   5.568  0.0818 -1.3073 -0.6716
 3477SOL    HW214474   6.997   3.710   5.509 -0.6283 -0.9659  0.8945
 3478SOL     OW14475   6.475   8.688   5.050  0.0809 -0.2073 -0.4062
 3478SOL    HW114476   6.460   8.597   5.078 -0.6815 -0.1338 -0.5642
 3478SOL    HW214477   6.549   8.682   4.989  0.4440 -0.6367  0.0660
 3479SOL     OW14478   1.787   1.777   8.830 -0.6638 -0.7092 -0.0062
 3479SOL    HW114479   1.778   1.846   8.896  0.6384 -0.6526  0.1402
 3479SOL    HW214480   1.787   1.824   8.746 -0.3221 -0.5746  0.0667
 3480SOL     OW14481   6.304   4.506   9.755  0.6270  0.2119 -0.3115
 3480SOL    HW114482   6.388   4.465   9.775  0.4755  0.0959  0.1085
 3480SOL    HW214483   6.258   4.507   9.839  0.7798  1.6140 -0.2266
 3481SOL     OW14484   3.047   8.412   7.336  0.1327 -0.0878 -0.5420
 3481SOL    HW114485   3.116   8.410   7.270  0.6200  0.9239 -0.0839
 3481SOL    HW214486   3.015   8.502   7.335  1.2404  0.4087  1.6896
 3482SOL     OW14487   1.304   5.784   9.523  0.2138  0.2025 -0.4936
 3482SOL    HW114488   1.324   5.797   9.616  1.8131 -1.3129 -0.5894
 3482SOL    HW214489   1.209   5.785   9.519  0.0190 -1.9784  1.5461
 3483SOL     OW14490   6.991   8.316   6.577  0.2376 -0.2566  0.2146
 3483SOL    HW114491   7.046   8.356   6.509  3.0846  0.3243  2.6118
 3483SOL    HW214492   6.940   8.389   6.612 -1.1799 -0.5433 -1.1434
 3484SOL     OW14493  10.116   3.871  10.009  0.1770  0.0791 -0.4228
 3484SOL    HW114494  10.159   3.812   9.948  0.7840 -0.8818  0.8934
 3484SOL    HW214495  10.177   3.944  10.020  0.7703 -0.4978  0.2003
 3485SOL     OW14496   5.376   1.642   3.314  0.0600 -0.0377  0.0355
 3485SOL    HW114497   5.305   1.639   3.250 -1.3345  0.0570  1.5057
 3485SOL    HW214498   5.411   1.730   3.307  2.1433 -0.9803 -2.8236
 3486SOL     OW14499   8.262   2.025   2.645 -0.1772 -0.0635 -0.1356
 3486SOL    HW114500   8.319   1.950   2.624  1.3623  0.4862  1.8328
 3486SOL    HW214501   8.188   1.986   2.691  0.6034 -0.4080  0.8645
 3487SOL     OW14502   6.711   8.638   4.886 -0.1856  0.0300 -0.3125
 3487SOL    HW114503   6.727   8.555   4.841 -0.6038  0.1419 -0.6713
 3487SOL    HW214504   6.796   8.663   4.921 -0.0182 -0.4580 -0.3638
 3488SOL     OW14505   5.515   4.528   1.195 -0.0940  0.6268 -0.5349
 3488SOL    HW114506   5.503   4.623   1.201 -1.8836  0.3696  1.5349
 3488SOL    HW214507   5.548   4.502   1.281 -0.4539 -0.6992 -0.7654
 3489SOL     OW14508   1.166   7.142   5.937  0.5443  0.4543 -0.2905
 3489SOL    HW114509   1.098   7.160   5.872 -0.2114 -0.1720  0.3008
 3489SOL    HW214510   1.181   7.226   5.979 -0.4784  0.4433  0.1320
 3490SOL     OW14511   0.513   7.258   5.611  0.5272  0.7037  0.3280
 3490SOL    HW114512   0.558   7.223   5.535  0.5131 -0.6813  0.9308
 3490SOL    HW214513   0.440   7.309   5.575  1.1365  0.9496 -0.5876
 3491SOL     OW14514   8.153   8.749   8.979  0.3482  0.4035 -0.0963
 3491SOL    HW114515   8.067   8.775   9.013  0.1485 -0.1343 -0.1900
 3491SOL    HW214516   8.133   8.701   8.899  0.7980  1.3502 -0.7992
 3492SOL     OW14517   5.716   2.476   0.902 -0.1604 -0.4561 -0.2957
 3492SOL    HW114518   5.625   2.463   0.929  0.0280  0.7064  1.0700
 3492SOL    HW214519   5.767   2.457   0.981  0.8071 -1.2227 -1.0827
 3493SOL     OW14520   4.822   9.940   5.556  0.2212 -0.0602  0.8631
 3493SOL    HW114521   4.896   9.994   5.530 -0.5550 -0.2600 -2.0297
 3493SOL    HW214522   4.860   9.855   5.577  0.8236 -0.2208 -0.7806
 3494SOL     OW14523   3.487   6.063   8.053 -0.6423 -0.5563 -1.0120
 3494SOL    HW114524   3.548   5.992   8.068 -1.6068 -0.9824  1.2398
 3494SOL    HW214525   3.542   6.141   8.045  0.2649 -1.1532 -0.6754
 3495SOL     OW14526   1.649   7.437   7.294 -0.9868  0.1455 -0.0397
 3495SOL    HW114527   1.678   7.348   7.315  0.0424  0.8890  1.8553
 3495SOL    HW214528   1.572   7.424   7.238 -1.3504 -1.9387  0.8641
 3496SOL     OW14529  10.017   3.208   5.489 -0.2344  0.3651  0.1073
 3496SOL    HW114530   9.987   3.204   5.580 -0.0128  2.1003  0.2845
 3496SOL    HW214531  10.084   3.277   5.489  1.3842 -1.1085 -0.9368
 3497SOL     OW14532   8.871   9.163   4.039 -0.0121  0.3181  0.8190
 3497SOL    HW114533   8.787   9.164   3.994  0.8383  1.2394 -0.8595
 3497SOL    HW214534   8.888   9.071   4.057 -0.7825  0.0071  0.0062
 3498SOL     OW14535   8.027   7.440   0.265 -0.5172  0.0911 -0.0951
 3498SOL    HW114536   8.085   7.461   0.338  1.2938 -3.7357 -0.1392
 3498SOL    HW214537   8.078   7.459   0.187 -0.3443 -0.7720 -0.2016
 3499SOL     OW14538   9.336   5.068   9.477  0.2268  0.7136 -0.6025
 3499SOL    HW114539   9.275   5.142   9.476  1.2407  1.5895 -0.4324
 3499SOL    HW214540   9.367   5.062   9.387 -0.4093 -0.0033 -0.7837
 3500SOL     OW14541   5.311   3.801   4.542 -0.1984  0.1579 -0.1571
 3500SOL    HW114542   5.287   3.708   4.539  0.6418 -0.0379 -1.4238
 3500SOL    HW214543   5.269   3.839   4.465 -1.6187  1.1464  1.0256
 3501SOL     OW14544   2.446   2.196   0.945 -0.0994 -0.1437 -0.1964
 3501SOL    HW114545   2.483   2.245   0.871  0.3320  0.1943  0.2355
 3501SOL    HW214546   2.406   2.262   1.001  0.5157 -0.2703  0.4098
 3502SOL     OW14547  10.162   0.495   9.057  0.2092  0.0024  0.4491
 3502SOL    HW114548  10.138   0.406   9.082 -0.9071 -0.0528 -0.7060
 3502SOL    HW214549  10.252   0.488   9.025  0.9645 -0.2625  2.4757
 3503SOL     OW14550   5.487   4.099   0.971  0.1191  0.1453 -0.0598
 3503SOL    HW114551   5.571   4.107   0.926  0.7298 -1.0288  0.8267
 3503SOL    HW214552   5.424   4.140   0.911  1.5434  2.7016  0.0245
 3504SOL     OW14553   4.433   9.084   6.579  0.7065  0.1122  0.5024
 3504SOL    HW114554   4.414   9.177   6.565 -0.0166  0.0466  0.9892
 3504SOL    HW214555   4.466   9.080   6.669  2.8060  0.1772 -0.2084
 3505SOL     OW14556   2.148   8.320   1.425  0.5911 -0.6325 -0.2528
 3505SOL    HW114557   2.226   8.313   1.480 -0.0035 -0.3737  0.6456
 3505SOL    HW214558   2.175   8.372   1.350  1.0829  0.1141  0.4341
 3506SOL     OW14559   6.739   7.674   2.702  0.6652  0.8260  0.0032
 3506SOL    HW114560   6.660   7.705   2.657  0.7809 -1.9907 -2.4631
 3506SOL    HW214561   6.707   7.611   2.766  0.8309 -0.2379 -0.9246
 3507SOL     OW14562   8.012   4.574   5.028  0.8829 -0.1972 -0.0953
 3507SOL    HW114563   7.964   4.599   5.107  0.7439 -1.0117  0.0810
 3507SOL    HW214564   8.045   4.486   5.046  0.4317 -0.5948 -1.1292
 3508SOL     OW14565   1.968   7.735   5.170 -0.4079 -0.1393 -0.3037
 3508SOL    HW114566   1.936   7.769   5.254  0.2056 -1.9888  0.7523
 3508SOL    HW214567   2.060   7.761   5.167 -0.6062  0.5305 -0.7579
 3509SOL     OW14568   6.466   6.300   9.847  0.5254  0.5778 -0.0708
 3509SOL    HW114569   6.509   6.330   9.927  2.9906  1.0161 -1.4422
 3509SOL    HW214570   6.378   6.275   9.874  1.3367  0.5026  2.8013
 3510SOL     OW14571   9.633   7.360   8.517  0.0606  0.1817 -0.1060
 3510SOL    HW114572   9.701   7.361   8.585 -0.8750  4.5076  1.1158
 3510SOL    HW214573   9.553   7.338   8.564 -0.0815 -0.3358 -0.5841
 3511SOL     OW14574   9.746   5.471   0.811  0.3858  0.7061 -0.0478
 3511SOL    HW114575   9.774   5.563   0.810  3.1048 -0.0177  0.4576
 3511SOL    HW214576   9.764   5.440   0.723  0.8668  0.3062  0.1887
 3512SOL     OW14577   8.086   1.028   7.190  0.3409  0.6676 -0.3555
 3512SOL    HW114578   8.139   1.075   7.255  0.9106  0.5893 -0.7557
 3512SOL    HW214579   8.005   1.079   7.185 -0.8253 -0.6959  2.2615
 3513SOL     OW14580   3.497   3.089   2.170  0.8569 -0.0264 -0.6056
 3513SOL    HW114581   3.549   3.160   2.207  0.6830  0.6009 -1.5352
 3513SOL    HW214582   3.442   3.131   2.103  2.2097 -1.3049 -2.6336
 3514SOL     OW14583   5.871   9.397   9.980  0.5966  0.4979 -0.3967
 3514SOL    HW114584   5.816   9.435   9.911 -0.0951  1.2205  0.5250
 3514SOL    HW214585   5.917   9.472  10.018 -0.3913  0.3941  1.1004
 3515SOL     OW14586   8.377   9.340  10.292  0.4383 -0.5098 -0.2629
 3515SOL    HW114587   8.371   9.359  10.198 -1.6415  0.2162 -0.0488
 3515SOL    HW214588   8.369   9.425  10.334  1.1399 -0.8573  0.5989
 3516SOL     OW14589   3.582   4.150   6.803  0.8272 -0.2496  0.0670
 3516SOL    HW114590   3.606   4.059   6.820 -0.7464 -0.7629 -0.3039
 3516SOL    HW214591   3.626   4.199   6.872  0.6628 -1.4508  1.0794
 3517SOL     OW14592   1.136   5.159   3.292 -0.1304 -0.0209 -0.4209
 3517SOL    HW114593   1.112   5.068   3.274  0.6355 -0.2579 -0.2748
 3517SOL    HW214594   1.098   5.177   3.378 -1.7478  0.3560 -1.1753
 3518SOL     OW14595   6.498   7.418   0.627  0.3739 -0.0251 -0.1774
 3518SOL    HW114596   6.463   7.353   0.688  1.0190  1.5134  1.9428
 3518SOL    HW214597   6.543   7.481   0.682  3.5993 -0.0662 -2.5035
 3519SOL     OW14598   7.854   6.339   3.137  0.3333 -0.3164  0.0479
 3519SOL    HW114599   7.823   6.318   3.048  1.8439 -1.4094 -0.2731
 3519SOL    HW214600   7.776   6.332   3.192 -0.4336 -0.6697 -1.0487
 3520SOL     OW14601   8.700   1.622   5.826 -0.0698 -0.2193 -0.5706
 3520SOL    HW114602   8.768   1.562   5.856 -0.3907 -0.3615 -0.1082
 3520SOL    HW214603   8.735   1.661   5.746 -0.2070 -1.6344 -1.3418
 3521SOL     OW14604   4.055   2.263   1.582 -0.5079 -0.4290  0.0746
 3521SOL    HW114605   4.143   2.291   1.605 -0.1241 -0.2865 -1.4508
 3521SOL    HW214606   4.067   2.173   1.550 -0.6795  0.0353 -1.3756
 3522SOL     OW14607   6.630   3.853   5.478  0.5272  0.1274  0.4957
 3522SOL    HW114608   6.592   3.858   5.565  0.1917 -0.0557  0.3621
 3522SOL    HW214609   6.555   3.840   5.420  0.9474 -2.7071  0.4468
 3523SOL     OW14610   6.989   9.695   1.132 -0.1381  0.2074 -0.6535
 3523SOL    HW114611   7.009   9.653   1.216 -3.1631  0.1731  0.1793
 3523SOL    HW214612   6.926   9.764   1.154  0.3360  1.3725 -2.7092
 3524SOL     OW14613   6.056   8.386   7.086 -0.1779  0.0389 -0.6993
 3524SOL    HW114614   6.088   8.302   7.051 -1.2647 -0.1341 -1.3136
 3524SOL    HW214615   6.015   8.363   7.169  0.3873  0.1128 -0.3956
 3525SOL     OW14616   9.459   3.821   9.975  0.6729 -0.0769  0.0725
 3525SOL    HW114617   9.386   3.814  10.037 -0.6044  1.3327 -1.1513
 3525SOL    HW214618   9.535   3.842  10.029 -0.0137 -0.6295  1.3055
 3526SOL     OW14619   8.605   9.809   7.012 -0.0717 -0.0935 -0.5236
 3526SOL    HW114620   8.624   9.815   7.105 -1.2728  0.4812 -0.2988
 3526SOL    HW214621   8.653   9.883   6.973  1.2812 -0.9414 -0.5373
 3527SOL     OW14622   3.835   0.277   1.984  0.1477  0.0838  0.3522
 3527SOL    HW114623   3.836   0.274   2.080 -0.6893 -1.0230  0.3448
 3527SOL    HW214624   3.864   0.190   1.957  0.5317  0.4429 -0.4082
 3528SOL     OW14625   0.275   7.565   8.848 -0.3173  0.0937 -0.4015
 3528SOL    HW114626   0.347   7.504   8.831  1.0328  0.9034  1.9915
 3528SOL    HW214627   0.197   7.519   8.816  1.0605 -1.3370 -1.9404
 3529SOL     OW14628   6.978   7.232   9.663 -0.1829 -0.3692 -0.3725
 3529SOL    HW114629   6.928   7.308   9.633  0.5053 -0.0370 -0.7259
 3529SOL    HW214630   7.037   7.267   9.730 -1.0945 -0.9416  0.7649
 3530SOL     OW14631   6.277   6.821   9.487  0.5717  0.1379 -0.2884
 3530SOL    HW114632   6.340   6.829   9.559 -1.6862  2.2788  1.6271
 3530SOL    HW214633   6.252   6.912   9.467 -2.9245 -0.5902  0.1093
 3531SOL     OW14634   7.397   1.877   1.661 -0.5929 -0.2309  0.2710
 3531SOL    HW114635   7.316   1.921   1.688  0.4216  1.4018  0.7705
 3531SOL    HW214636   7.438   1.938   1.599  0.1640 -1.1393 -0.1571
 3532SOL     OW14637   5.553   8.763   4.132  0.0909 -0.5410  0.1830
 3532SOL    HW114638   5.552   8.771   4.037  0.7578 -1.9297  0.0299
 3532SOL    HW214639   5.533   8.850   4.164  0.9798  0.2229 -1.2341
 3533SOL     OW14640   2.573   9.392   5.666 -0.2563  0.2893 -0.7316
 3533SOL    HW114641   2.482   9.417   5.679  0.0004  1.6670 -1.4322
 3533SOL    HW214642   2.590   9.407   5.573  0.2590 -1.4776 -0.9698
 3534SOL     OW14643   5.734   9.757   0.670 -0.4309 -0.1755 -0.3346
 3534SOL    HW114644   5.782   9.802   0.600  0.7122 -0.2346  0.3749
 3534SOL    HW214645   5.787   9.679   0.688  0.2985  0.7327  1.7766
 3535SOL     OW14646   9.633   4.527   7.693 -0.4945 -0.2442 -0.4780
 3535SOL    HW114647   9.597   4.611   7.721  1.6446  0.6680 -0.2588
 3535SOL    HW214648   9.564   4.463   7.712 -3.2692  1.7093 -3.0507
 3536SOL     OW14649   2.930   8.631   3.020  0.3472 -0.2533 -0.0391
 3536SOL    HW114650   2.863   8.616   3.087 -0.2965 -0.5393 -0.7293
 3536SOL    HW214651   2.955   8.544   2.992 -0.9368 -0.1395 -1.6620
 3537SOL     OW14652   0.323   4.422   0.426  0.0571  0.7730  0.2486
 3537SOL    HW114653   0.271   4.361   0.374 -0.8753  1.0720  0.8138
 3537SOL    HW214654   0.323   4.386   0.514 -0.6641  1.6640  0.6339
 3538SOL     OW14655   1.459   9.083   3.261 -0.2071  0.0607 -0.4997
 3538SOL    HW114656   1.363   9.078   3.253 -0.4517 -0.9998  2.2264
 3538SOL    HW214657   1.487   8.992   3.272  0.6676  0.5773  2.2001
 3539SOL     OW14658   4.089   5.251   9.855  0.8982 -0.3458  0.1024
 3539SOL    HW114659   4.062   5.341   9.872  0.2802 -0.2730 -1.1788
 3539SOL    HW214660   4.048   5.200   9.924 -0.3183  0.1207 -0.2576
 3540SOL     OW14661   5.146   0.839   0.341  0.2151  0.0637 -0.4034
 3540SOL    HW114662   5.227   0.816   0.296  0.6935  0.2768  0.3340
 3540SOL    HW214663   5.148   0.935   0.346  0.1745  0.0422  0.0779
 3541SOL     OW14664   0.412   7.634   1.602  0.4993  0.7454  0.5956
 3541SOL    HW114665   0.344   7.680   1.553 -0.4558 -0.5091  0.6842
 3541SOL    HW214666   0.367   7.558   1.638  1.3942  1.1320  2.6554
 3542SOL     OW14667   1.638   6.068   6.275  0.1468  0.0062 -0.4532
 3542SOL    HW114668   1.719   6.119   6.265 -0.3215  0.5898 -1.4781
 3542SOL    HW214669   1.575   6.112   6.219 -1.3438  0.4618  1.4691
 3543SOL     OW14670   7.489   0.411   5.815  0.1648  0.1751 -0.1999
 3543SOL    HW114671   7.501   0.339   5.877  0.6226  1.0737  0.7948
 3543SOL    HW214672   7.524   0.378   5.732  2.0835 -0.1249  0.6781
 3544SOL     OW14673   3.456   5.490   4.880  0.1705  0.5285  0.3284
 3544SOL    HW114674   3.437   5.584   4.873  0.2451  0.5361  0.2152
 3544SOL    HW214675   3.471   5.462   4.789 -1.6100  0.0295  0.1535
 3545SOL     OW14676   9.645   8.455   8.927 -0.8421 -0.2328 -0.3868
 3545SOL    HW114677   9.740   8.471   8.935 -0.9844  1.4332 -1.6029
 3545SOL    HW214678   9.639   8.376   8.874 -0.1448 -0.6447  0.1182
 3546SOL     OW14679   6.076   8.204   7.459 -0.2132 -0.3217  0.4391
 3546SOL    HW114680   6.155   8.218   7.510  0.0063  0.3477 -0.0796
 3546SOL    HW214681   6.099   8.136   7.396  0.6248  1.3089 -1.1017
 3547SOL     OW14682   1.973   3.873   4.710  0.1563 -0.0987  0.4782
 3547SOL    HW114683   2.034   3.923   4.766  0.9227 -1.0230  0.4874
 3547SOL    HW214684   1.962   3.928   4.632  2.7094 -0.8114 -0.5034
 3548SOL     OW14685   7.629   8.812   7.847  0.5828 -0.0508  0.3295
 3548SOL    HW114686   7.684   8.877   7.890  0.7011  1.2007 -1.6255
 3548SOL    HW214687   7.556   8.862   7.811  0.6077 -0.9913 -1.1119
 3549SOL     OW14688   2.686   9.990   5.329  0.2736 -0.3735  0.2300
 3549SOL    HW114689   2.648  10.062   5.379  0.4012  0.4937 -0.8696
 3549SOL    HW214690   2.750  10.032   5.272  0.7866 -1.4455 -0.0102
 3550SOL     OW14691   0.766   4.599   8.035  0.0586 -0.1871  0.6404
 3550SOL    HW114692   0.809   4.599   7.950 -1.2116 -1.3887 -0.0334
 3550SOL    HW214693   0.724   4.685   8.040 -1.0199 -0.5983 -0.6012
 3551SOL     OW14694   9.026   8.074   8.276 -0.0550  0.2073  0.3565
 3551SOL    HW114695   9.117   8.066   8.247 -0.2518 -2.9589  0.2543
 3551SOL    HW214696   8.979   8.105   8.198  0.7199  0.4101 -0.0396
 3552SOL     OW14697   1.347   3.161   7.471 -0.4774  0.0533 -0.4810
 3552SOL    HW114698   1.294   3.082   7.484 -0.0762 -0.0269  0.8348
 3552SOL    HW214699   1.436   3.129   7.460 -0.2978  0.3029  0.1623
 3553SOL     OW14700  10.149   7.541   2.439 -0.2486 -0.1913 -0.1574
 3553SOL    HW114701  10.131   7.526   2.532 -0.5396  1.3649  0.0702
 3553SOL    HW214702  10.178   7.633   2.435  4.4888 -1.4124 -0.9155
 3554SOL     OW14703  10.291   8.752   7.918 -0.1116  0.7258  0.7069
 3554SOL    HW114704  10.232   8.727   7.990 -0.9668  2.0836  0.5175
 3554SOL    HW214705  10.375   8.767   7.961  0.2505 -1.5725  0.9388
 3555SOL     OW14706   5.321   9.730  10.088  0.2723 -0.1372  0.1483
 3555SOL    HW114707   5.388   9.791  10.059 -0.8469  1.8117  1.4576
 3555SOL    HW214708   5.331   9.726  10.184  0.0366 -1.7068  0.1432
 3556SOL     OW14709   1.229   8.410   7.486 -0.5385 -0.4866 -0.8801
 3556SOL    HW114710   1.303   8.356   7.512 -1.8676 -0.9887  2.3720
 3556SOL    HW214711   1.250   8.498   7.517 -0.3454 -0.1154 -2.0283
 3557SOL     OW14712   3.649   8.966   9.143 -0.5075 -0.3741 -0.4809
 3557SOL    HW114713   3.572   8.912   9.126 -0.2058 -0.6371 -1.0394
 3557SOL    HW214714   3.640   9.040   9.083 -0.6124 -0.1115 -0.1433
 3558SOL     OW14715   1.696   0.720   4.738  0.3613 -0.0233  0.0685
 3558SOL    HW114716   1.621   0.704   4.681  1.0883  0.1364 -0.9660
 3558SOL    HW214717   1.757   0.649   4.717  0.8147  0.2837  0.3468
 3559SOL     OW14718   7.445   0.917   0.982  0.0162 -0.7580  0.1142
 3559SOL    HW114719   7.444   0.870   0.899  3.3443 -0.1208 -0.4140
 3559SOL    HW214720   7.478   0.854   1.045 -0.3640 -0.5845  0.4919
 3560SOL     OW14721   5.279   2.270   0.954 -0.0209 -0.2720 -0.1887
 3560SOL    HW114722   5.353   2.301   0.902 -0.6027 -1.7779 -2.0312
 3560SOL    HW214723   5.294   2.175   0.962 -1.1184 -0.4002  0.4817
 3561SOL     OW14724   5.073   0.269   2.557 -0.1666 -0.4163 -0.2764
 3561SOL    HW114725   5.100   0.355   2.589 -1.6995  0.3448 -0.9248
 3561SOL    HW214726   5.138   0.246   2.491 -0.1087  0.5597 -0.5669
 3562SOL     OW14727   6.514   2.615   0.563 -0.2973 -0.0567 -0.1329
 3562SOL    HW114728   6.442   2.574   0.612  1.1026 -0.0903  2.0521
 3562SOL    HW214729   6.592   2.565   0.590  0.6445  0.3335 -1.9924
 3563SOL     OW14730   8.239   5.513   4.632  0.2975 -0.4781  0.3150
 3563SOL    HW114731   8.217   5.420   4.623  0.7593 -0.5084 -0.6242
 3563SOL    HW214732   8.181   5.557   4.570  0.5519 -0.2082  0.2681
 3564SOL     OW14733   5.182   4.964   5.382  0.0828  0.3127  0.2511
 3564SOL    HW114734   5.213   4.986   5.295  0.6005  0.9888  0.5943
 3564SOL    HW214735   5.194   4.870   5.389  1.1443  0.4225  0.0126
 3565SOL     OW14736   2.167   8.727   4.758  0.3340 -0.2121 -0.4888
 3565SOL    HW114737   2.225   8.654   4.781 -0.3736 -0.7723 -0.4343
 3565SOL    HW214738   2.091   8.685   4.717 -0.2623  0.4568 -0.0972
 3566SOL     OW14739   8.748   4.940   1.524  0.4413  0.0204 -0.2922
 3566SOL    HW114740   8.748   4.866   1.586 -0.2919  0.1449 -0.1326
 3566SOL    HW214741   8.705   5.011   1.572  0.5961  0.3663 -0.6640
 3567SOL     OW14742   6.246   3.911   0.257  0.5959  0.3683  0.5912
 3567SOL    HW114743   6.245   3.919   0.352  1.4604  2.1597  0.4927
 3567SOL    HW214744   6.229   3.818   0.240  0.9102 -0.0744  2.4969
 3568SOL     OW14745   2.434   0.500   9.161 -0.0903  0.0479 -0.0130
 3568SOL    HW114746   2.417   0.439   9.233 -1.4472  0.2329 -0.1424
 3568SOL    HW214747   2.440   0.585   9.204 -0.4640  0.1020 -0.0625
 3569SOL     OW14748   6.704   8.641   6.551  0.0934  0.0271 -0.1088
 3569SOL    HW114749   6.702   8.596   6.467  0.0419 -1.7730  0.8247
 3569SOL    HW214750   6.746   8.580   6.611 -0.8697  0.8057  1.4445
 3570SOL     OW14751   7.899   4.595   9.184  0.9244  0.0491 -0.1789
 3570SOL    HW114752   7.963   4.599   9.113  1.3464  0.9480  0.2282
 3570SOL    HW214753   7.815   4.613   9.142  1.0780 -0.1152 -0.5600
 3571SOL     OW14754   9.485  10.093   6.564 -0.0847  0.3311 -0.0897
 3571SOL    HW114755   9.564  10.097   6.511 -0.4116 -0.3045 -0.6378
 3571SOL    HW214756   9.433  10.023   6.525 -1.4096  1.4308 -0.3970
 3572SOL     OW14757   6.995   8.747   9.718  0.2917  0.0432  0.0941
 3572SOL    HW114758   6.918   8.691   9.716 -0.4925  1.0587  0.9376
 3572SOL    HW214759   7.024   8.750   9.627 -0.7935 -0.1627 -0.2745
 3573SOL     OW14760   7.027   7.069   7.348  0.0058 -0.3847 -0.1261
 3573SOL    HW114761   7.090   7.007   7.384 -1.4370 -1.7314  0.1756
 3573SOL    HW214762   6.961   7.014   7.306  0.4983  1.0543 -3.0279
 3574SOL     OW14763  10.268   4.492   3.272  0.2856 -0.4561 -0.1501
 3574SOL    HW114764  10.349   4.442   3.280  1.2701  0.8047 -1.6856
 3574SOL    HW214765  10.200   4.426   3.256  1.3777 -1.3701 -1.1511
 3575SOL     OW14766   3.268  10.179   2.249  0.1187  0.3399  0.3413
 3575SOL    HW114767   3.321  10.153   2.174 -1.1935 -0.1847 -0.4476
 3575SOL    HW214768   3.185  10.132   2.237 -0.4953  1.0550  1.5699
 3576SOL     OW14769   3.728   0.504   5.034  0.0271  0.0432  0.2573
 3576SOL    HW114770   3.789   0.574   5.009 -0.0801 -0.2444 -0.8737
 3576SOL    HW214771   3.653   0.516   4.975  0.4503 -1.6418 -0.6808
 3577SOL     OW14772   3.249   0.726   5.198  0.4158 -0.5428 -0.0210
 3577SOL    HW114773   3.338   0.752   5.224 -0.2395  0.2347  1.5903
 3577SOL    HW214774   3.201   0.809   5.195 -0.0189 -0.8179 -2.0330
 3578SOL     OW14775   4.117   1.773   0.742 -0.5260 -0.3870 -0.2040
 3578SOL    HW114776   4.053   1.736   0.680 -0.8756 -1.6268  0.8479
 3578SOL    HW214777   4.098   1.728   0.825 -0.2577  1.4373  0.8912
 3579SOL     OW14778   3.272   2.154   6.601  0.4610  0.0425 -0.2138
 3579SOL    HW114779   3.256   2.109   6.518 -0.8847  2.6776 -1.4790
 3579SOL    HW214780   3.330   2.227   6.579 -1.0448  1.6422  0.8270
 3580SOL     OW14781   7.872   5.512   3.272  0.1550 -0.4993 -0.1653
 3580SOL    HW114782   7.904   5.546   3.355 -0.2412 -2.3242  0.7654
 3580SOL    HW214783   7.947   5.467   3.233  0.2850  0.1832 -0.7268
 3581SOL     OW14784   1.744   3.605   8.659 -0.1077  0.4469 -0.0441
 3581SOL    HW114785   1.663   3.655   8.654 -1.2383 -1.3272 -0.1775
 3581SOL    HW214786   1.729   3.529   8.603  1.5305 -0.0993  0.1914
 3582SOL     OW14787   1.796   4.390   8.177 -0.2619 -0.1638  0.5251
 3582SOL    HW114788   1.830   4.413   8.263 -1.1246  0.1130  0.7999
 3582SOL    HW214789   1.726   4.327   8.194 -2.0090  1.6017  0.2300
 3583SOL     OW14790   4.818   4.875   0.839 -0.3581 -0.1959 -0.4410
 3583SOL    HW114791   4.854   4.787   0.833  0.8617  0.2765 -0.3236
 3583SOL    HW214792   4.807   4.890   0.933 -1.6208 -0.6200 -0.5055
 3584SOL     OW14793   5.667   6.402   3.822 -0.1984 -0.0992 -0.2239
 3584SOL    HW114794   5.688   6.422   3.731  1.0868 -1.8318 -0.3600
 3584SOL    HW214795   5.743   6.431   3.872 -1.5616  2.3780  0.5929
 3585SOL     OW14796   0.572   4.557   3.145  0.1946  0.9192  0.3563
 3585SOL    HW114797   0.498   4.596   3.098  0.5897  1.9991  0.5949
 3585SOL    HW214798   0.548   4.465   3.156 -0.3337  0.8598 -1.1059
 3586SOL     OW14799   9.339   0.945   6.817  0.2650 -0.0423  0.1978
 3586SOL    HW114800   9.394   0.993   6.878  0.6280 -0.1365 -0.0517
 3586SOL    HW214801   9.269   1.007   6.794 -0.3714 -0.2972  1.3621
 3587SOL     OW14802   5.933   1.932   8.009 -0.5056 -0.0663  0.2417
 3587SOL    HW114803   5.903   2.016   8.044  0.7913  0.5375 -0.0420
 3587SOL    HW214804   5.852   1.885   7.988 -1.3361 -0.0370  2.9937
 3588SOL     OW14805   1.809  10.247   4.954 -0.0721  0.2227  0.0185
 3588SOL    HW114806   1.809  10.199   4.871  0.7305  0.3217 -0.0461
 3588SOL    HW214807   1.810  10.340   4.928 -0.8904  0.2698  0.1420
 3589SOL     OW14808   4.845   6.777   2.297 -0.0454  0.0465 -0.2476
 3589SOL    HW114809   4.815   6.849   2.353 -1.9397 -0.5840 -0.3925
 3589SOL    HW214810   4.786   6.778   2.222  0.7758 -0.8040 -0.9390
 3590SOL     OW14811   9.131   5.660   2.225 -0.0192  0.2659 -0.1259
 3590SOL    HW114812   9.211   5.707   2.250 -0.9402  0.8322  1.8836
 3590SOL    HW214813   9.084   5.646   2.306 -0.9799 -2.0185 -0.9821
 3591SOL     OW14814   9.369   6.790   9.260  0.7995  0.6150 -0.2127
 3591SOL    HW114815   9.342   6.748   9.179  1.3596  0.6940 -0.4403
 3591SOL    HW214816   9.459   6.762   9.273 -0.3900 -2.7430  2.5175
 3592SOL     OW14817   0.302   8.435   4.043 -0.0622  0.3879 -0.1400
 3592SOL    HW114818   0.350   8.353   4.034 -0.3253  0.2517 -0.3178
 3592SOL    HW214819   0.249   8.441   3.963 -1.6307 -0.3029  0.8062
 3593SOL     OW14820   4.442   4.363   1.961  0.5574 -0.2757  0.1827
 3593SOL    HW114821   4.426   4.362   1.867 -0.9427 -1.0564  0.4160
 3593SOL    HW214822   4.514   4.424   1.973  0.9049 -0.3259 -1.4903
 3594SOL     OW14823   8.991   5.436   1.784  0.0231  0.0829 -0.2156
 3594SOL    HW114824   9.032   5.523   1.791  2.2996 -0.8833 -0.6244
 3594SOL    HW214825   8.985   5.405   1.875  2.5361 -0.7045 -0.2361
 3595SOL     OW14826   6.975   2.552   6.379 -0.0035  0.0114 -0.1199
 3595SOL    HW114827   6.893   2.538   6.331 -0.6073  1.0592  0.5715
 3595SOL    HW214828   6.948   2.587   6.464  1.1911  0.9403 -0.0977
 3596SOL     OW14829   4.700   9.050   0.290  0.2106  0.5064 -0.2313
 3596SOL    HW114830   4.621   9.011   0.328  0.5081 -1.2786 -1.3539
 3596SOL    HW214831   4.758   9.062   0.365 -0.9365  1.4739  0.5495
 3597SOL     OW14832   9.771   2.277   2.558 -1.1260  0.0350  0.5613
 3597SOL    HW114833   9.845   2.266   2.498 -2.6969 -3.2122 -0.9894
 3597SOL    HW214834   9.780   2.206   2.621 -2.0888  0.5609  1.3234
 3598SOL     OW14835   0.121   1.568   0.499 -0.0422  0.0682  0.2558
 3598SOL    HW114836   0.083   1.514   0.569 -0.1120 -0.0451  0.1290
 3598SOL    HW214837   0.137   1.508   0.427  0.9888 -0.0109  0.5363
 3599SOL     OW14838   2.302   6.144   0.814 -0.2182 -0.0348  1.0162
 3599SOL    HW114839   2.360   6.096   0.755 -1.8810 -2.8299  1.4687
 3599SOL    HW214840   2.253   6.203   0.757 -0.6345 -1.4847 -0.1922
 3600SOL     OW14841   1.214   9.666   6.198 -0.1896  0.1080  0.2906
 3600SOL    HW114842   1.277   9.617   6.145 -0.1972  0.0863  0.3017
 3600SOL    HW214843   1.128   9.637   6.166 -0.1954 -0.0240  0.4240
 3601SOL     OW14844   8.134   1.933   8.351 -0.0041  0.6988  0.2702
 3601SOL    HW114845   8.161   1.934   8.443 -1.3619 -0.6684  0.7456
 3601SOL    HW214846   8.194   1.872   8.309 -0.0082  0.5314  0.5003
 3602SOL     OW14847   8.544   1.913   9.238  0.2308  0.6061 -0.6171
 3602SOL    HW114848   8.518   1.829   9.275 -1.8442  1.2374 -0.5320
 3602SOL    HW214849   8.538   1.900   9.143  0.2688  0.5637 -0.6142
 3603SOL     OW14850   8.703   5.973   5.364  0.2270 -0.3434 -0.3510
 3603SOL    HW114851   8.783   5.948   5.318  0.4278 -0.4054  0.0263
 3603SOL    HW214852   8.632   5.941   5.308  0.4622 -2.4597  0.4776
 3604SOL     OW14853   5.139   8.858   5.966  0.0253 -0.4725  0.2000
 3604SOL    HW114854   5.102   8.792   5.907  0.7993 -0.1551 -0.6727
 3604SOL    HW214855   5.079   8.933   5.957  0.5943 -0.1195 -0.8679
 3605SOL     OW14856   9.736   3.466   8.119 -0.4119  0.4796  0.0589
 3605SOL    HW114857   9.799   3.504   8.057 -0.7963  0.5372 -0.3012
 3605SOL    HW214858   9.784   3.394   8.161  0.0474  0.8315  0.1385
 3606SOL     OW14859   3.711   0.312   0.785 -0.2044  0.4274 -0.0866
 3606SOL    HW114860   3.687   0.343   0.698 -1.1757 -0.1323 -0.0293
 3606SOL    HW214861   3.636   0.260   0.814  0.2392  0.3352  0.9516
 3607SOL     OW14862   3.555   5.788   2.915 -0.4855 -1.0650  0.0451
 3607SOL    HW114863   3.562   5.723   2.985  0.2563 -1.6204 -0.5373
 3607SOL    HW214864   3.607   5.863   2.946  2.0753 -2.3014 -0.9969
 3608SOL     OW14865   0.144   7.129  10.106  0.1948 -0.6482  0.1202
 3608SOL    HW114866   0.054   7.132  10.075 -0.1343  3.1180  1.0275
 3608SOL    HW214867   0.196   7.162  10.033  0.4696  0.0438  0.6217
 3609SOL     OW14868   3.125   2.863   8.338  0.2962 -0.1163 -0.4665
 3609SOL    HW114869   3.213   2.835   8.365  0.8212  0.9780 -1.0135
 3609SOL    HW214870   3.082   2.782   8.309  0.7090 -0.8579  0.8696
 3610SOL     OW14871   6.506   2.995   1.650  0.7099 -0.1927 -0.4025
 3610SOL    HW114872   6.461   2.934   1.709  0.1345 -0.2181 -0.8521
 3610SOL    HW214873   6.581   2.946   1.617 -0.7135 -1.3403 -2.1362
 3611SOL     OW14874   5.414   7.037   2.952 -0.2929 -0.5492 -0.2804
 3611SOL    HW114875   5.441   6.988   3.029 -1.1537  0.4220  0.6847
 3611SOL    HW214876   5.468   7.117   2.954  1.0565 -1.3486 -1.7973
 3612SOL     OW14877   9.941   6.734   9.085 -0.1392  0.3514  0.5022
 3612SOL    HW114878  10.018   6.704   9.037  0.4002 -0.4923  1.8465
 3612SOL    HW214879   9.868   6.717   9.025  0.5950  0.1342 -0.3562
 3613SOL     OW14880   2.211   8.199   3.515 -0.4509  0.1962  0.0582
 3613SOL    HW114881   2.282   8.253   3.479  0.5530 -1.2569 -0.2122
 3613SOL    HW214882   2.227   8.198   3.609 -1.7086  2.0609  0.3396
 3614SOL     OW14883   4.019   4.634   4.467  0.4941  0.2809 -0.2950
 3614SOL    HW114884   4.098   4.679   4.436  0.1513  0.7740 -0.4587
 3614SOL    HW214885   3.957   4.704   4.487 -0.0134 -0.1119 -0.4593
 3615SOL     OW14886   0.968   6.526   4.955 -0.1625 -0.2375  0.1838
 3615SOL    HW114887   0.956   6.474   4.875  4.5462  1.6168 -2.1200
 3615SOL    HW214888   0.891   6.583   4.958 -1.7022 -2.0392 -1.5175
 3616SOL     OW14889   0.978   9.550   3.735 -0.0118 -0.2403 -0.8447
 3616SOL    HW114890   0.916   9.615   3.768 -0.5569 -1.3991  0.5347
 3616SOL    HW214891   0.970   9.555   3.640 -2.1203 -0.2491 -0.7168
 3617SOL     OW14892  10.047   1.699   1.310 -0.3993  0.0655  0.0042
 3617SOL    HW114893  10.058   1.741   1.225  0.2985 -0.2113 -0.0475
 3617SOL    HW214894   9.952   1.689   1.320 -0.5300  0.9183 -0.3363
 3618SOL     OW14895   8.384   6.809   0.553  0.5461 -0.0540  0.0468
 3618SOL    HW114896   8.380   6.718   0.525  1.8997 -0.0563 -0.2463
 3618SOL    HW214897   8.380   6.859   0.471 -1.2130  0.2221  0.2677
 3619SOL     OW14898  10.087   9.692   5.511  0.1608 -0.5140  0.4071
 3619SOL    HW114899  10.003   9.732   5.535  1.2123  1.3644  1.1633
 3619SOL    HW214900  10.089   9.696   5.415  0.3526  1.5964  0.4660
 3620SOL     OW14901   4.090   0.095   7.300  0.3377 -0.0218  0.1421
 3620SOL    HW114902   4.083   0.133   7.388  0.4706  0.2596  0.0334
 3620SOL    HW214903   4.007   0.118   7.258  0.4753  0.2777  0.0286
 3621SOL     OW14904   0.723   7.207   8.111  0.1325  0.4353 -0.4154
 3621SOL    HW114905   0.635   7.189   8.077  0.5132 -0.6352 -0.8599
 3621SOL    HW214906   0.781   7.192   8.037  0.9706 -1.8837  0.6181
 3622SOL     OW14907   9.965   7.585   4.462  0.0720 -0.4745 -0.2268
 3622SOL    HW114908   9.897   7.652   4.464  1.2408  0.7518  2.3741
 3622SOL    HW214909  10.010   7.600   4.379 -0.2570  1.3852 -0.1132
 3623SOL     OW14910   7.094   1.351   7.923  0.5578  0.1645  0.2481
 3623SOL    HW114911   7.048   1.275   7.959 -0.6508  0.5786 -0.3283
 3623SOL    HW214912   7.174   1.358   7.974 -0.9742  0.6247  2.7697
 3624SOL     OW14913  10.270   8.151   2.643  0.2426 -0.1231  0.4128
 3624SOL    HW114914  10.347   8.203   2.618  1.8037 -1.8469  1.4125
 3624SOL    HW214915  10.299   8.101   2.720 -1.2103 -2.3635 -0.4071
 3625SOL     OW14916   8.668   7.364   2.021 -0.3473 -0.3494 -0.5538
 3625SOL    HW114917   8.621   7.283   2.038  1.1251 -1.2995 -0.8360
 3625SOL    HW214918   8.642   7.389   1.932 -1.7076  0.1538 -0.0395
 3626SOL     OW14919   2.533   6.020   1.644  0.0212 -0.0658  0.1879
 3626SOL    HW114920   2.499   6.069   1.718 -1.9675 -0.0457 -0.6722
 3626SOL    HW214921   2.512   5.929   1.663 -0.6653 -0.0439 -0.3920
 3627SOL     OW14922   4.771   0.387   9.332  0.0219  0.0238  0.1718
 3627SOL    HW114923   4.825   0.312   9.358 -1.0390 -0.3520  1.4286
 3627SOL    HW214924   4.767   0.382   9.237  2.4863  0.2947 -0.0005
 3628SOL     OW14925   3.074   3.660   2.794  0.6647  0.0038 -0.5064
 3628SOL    HW114926   3.135   3.587   2.805  0.4609 -0.0272  0.4950
 3628SOL    HW214927   2.987   3.621   2.806  0.5528  0.4024  0.0068
 3629SOL     OW14928   3.753   7.603   7.526 -0.1896 -0.0349  0.0824
 3629SOL    HW114929   3.667   7.573   7.555 -0.0012 -2.1896 -1.4001
 3629SOL    HW214930   3.813   7.574   7.596 -0.3922 -0.3794  0.1107
 3630SOL     OW14931   6.689   1.707   0.501 -0.4449 -0.1975  0.1702
 3630SOL    HW114932   6.604   1.690   0.461  0.3796 -0.1922 -1.6710
 3630SOL    HW214933   6.712   1.625   0.545 -1.6428 -0.0009  1.2430
 3631SOL     OW14934   4.374   5.266   2.727 -0.1223  0.1828 -0.0938
 3631SOL    HW114935   4.283   5.281   2.703 -0.9332 -0.1609  2.4892
 3631SOL    HW214936   4.374   5.262   2.823  2.8589  1.7602  0.0985
 3632SOL     OW14937   9.876   9.144   9.625  0.3667  0.4881  0.6341
 3632SOL    HW114938   9.905   9.079   9.561  1.4460  0.6455  0.9429
 3632SOL    HW214939   9.891   9.228   9.582 -2.0005  0.5618 -0.1744
 3633SOL     OW14940   7.279   2.531   7.593  0.4280  0.3683  0.1188
 3633SOL    HW114941   7.205   2.474   7.572  0.5682 -0.4245  1.6107
 3633SOL    HW214942   7.357   2.480   7.572  0.5634 -0.2840  1.9777
 3634SOL     OW14943   7.990   3.837   2.180  0.3609  0.2728 -0.1197
 3634SOL    HW114944   8.047   3.902   2.221  2.9048 -0.8606 -1.6525
 3634SOL    HW214945   7.977   3.869   2.091  2.7316 -1.8062 -1.3209
 3635SOL     OW14946   7.932   9.173   2.630  0.4848 -0.7353  0.0224
 3635SOL    HW114947   7.967   9.156   2.542 -0.6985 -3.1222 -0.0694
 3635SOL    HW214948   7.945   9.090   2.677 -0.0194  0.1109  1.7215
 3636SOL     OW14949   8.807   1.734   1.912  0.0002 -0.0159 -0.2942
 3636SOL    HW114950   8.874   1.745   1.845  0.6233  0.7291  0.4228
 3636SOL    HW214951   8.759   1.656   1.886  2.3244 -1.7035  0.1342
 3637SOL     OW14952   1.292   3.221   0.011 -0.2041 -0.3642  0.5400
 3637SOL    HW114953   1.205   3.234   0.050 -0.3629 -1.1285  0.4603
 3637SOL    HW214954   1.320   3.136   0.043 -0.4313 -1.1271 -1.1362
 3638SOL     OW14955   9.612   4.970   6.567 -0.2818  0.2767  0.3896
 3638SOL    HW114956   9.654   5.046   6.607 -1.2179 -0.0291  2.0762
 3638SOL    HW214957   9.524   4.970   6.604 -0.7860 -0.7794 -0.7483
 3639SOL     OW14958   9.720   1.045   1.983  0.0992  0.2960  0.2309
 3639SOL    HW114959   9.755   0.979   1.923 -0.5258  1.2914 -1.3033
 3639SOL    HW214960   9.793   1.068   2.040  0.6664 -0.8145 -0.0227
 3640SOL     OW14961  10.192   1.322   7.952  0.4510 -0.0399 -0.4841
 3640SOL    HW114962  10.119   1.384   7.959  1.1382  0.8419 -0.9761
 3640SOL    HW214963  10.197   1.301   7.859  1.1484  0.3124 -0.5337
 3641SOL     OW14964  10.201   0.536   2.022 -0.1063 -0.4641  0.4200
 3641SOL    HW114965  10.160   0.478   2.087 -0.7822  0.2777  0.6711
 3641SOL    HW214966  10.209   0.481   1.944 -1.0254 -0.8136  0.5535
 3642SOL     OW14967   8.088   3.347   8.563  0.0428 -0.6654  0.0642
 3642SOL    HW114968   8.177   3.328   8.533  0.1726 -0.0558  0.0532
 3642SOL    HW214969   8.099   3.372   8.655  0.1101  1.0981 -0.3890
 3643SOL     OW14970   7.656   8.771   6.780  0.6808  0.5286  0.0089
 3643SOL    HW114971   7.574   8.733   6.813  0.8103 -1.1874 -1.4595
 3643SOL    HW214972   7.628   8.844   6.725  0.2934  1.3871  1.3121
 3644SOL     OW14973   0.948   9.671   0.285  0.3029 -0.6169  0.1979
 3644SOL    HW114974   1.025   9.656   0.230  0.5886  0.6529  0.2195
 3644SOL    HW214975   0.884   9.607   0.254  0.6343 -0.2761 -1.2762
 3645SOL     OW14976   7.849   1.839   3.918 -0.5671  0.3056  0.2635
 3645SOL    HW114977   7.839   1.773   3.849  0.2418  0.0163  0.4130
 3645SOL    HW214978   7.943   1.844   3.933 -0.6183  1.5242  0.2362
 3646SOL     OW14979   5.896   4.549   0.463  0.5312  0.0652  0.1557
 3646SOL    HW114980   5.898   4.457   0.491 -0.7417 -0.3147 -0.9095
 3646SOL    HW214981   5.833   4.551   0.391 -2.7361  2.4668  2.7444
 3647SOL     OW14982   4.010   6.153   2.864  0.3495 -0.0256  0.5164
 3647SOL    HW114983   3.979   6.094   2.933 -1.4209 -1.5580 -1.4632
 3647SOL    HW214984   4.100   6.174   2.890  0.0451 -1.1809  2.8322
 3648SOL     OW14985   7.962   4.583   3.165  0.1762  0.5217 -0.0006
 3648SOL    HW114986   7.902   4.619   3.099 -0.2400  2.8250  1.4845
 3648SOL    HW214987   8.048   4.615   3.139  0.2463  0.1064 -0.2782
 3649SOL     OW14988   8.057   5.807   6.712  0.6329 -0.3587 -0.1256
 3649SOL    HW114989   8.067   5.745   6.784  0.8682  0.0792  0.2207
 3649SOL    HW214990   8.010   5.882   6.750 -0.4072 -0.6640 -0.7414
 3650SOL     OW14991   5.003   7.637   9.885 -0.3088 -0.5010 -0.4897
 3650SOL    HW114992   4.921   7.598   9.854 -1.3237  0.1223  1.2405
 3650SOL    HW214993   4.977   7.690   9.960  1.6413  0.0930 -0.1741
 3651SOL     OW14994   4.818   7.581   8.226  0.4929  0.2689 -0.0595
 3651SOL    HW114995   4.840   7.665   8.264 -1.8279  0.8503  0.1022
 3651SOL    HW214996   4.856   7.584   8.138 -0.9891  2.2411 -0.7115
 3652SOL     OW14997   8.842   7.814   9.943 -0.4331 -0.0080  0.2744
 3652SOL    HW114998   8.779   7.744   9.928  1.5778 -1.6580 -1.0957
 3652SOL    HW214999   8.795   7.895   9.924 -1.7829 -1.2472 -2.0681
 3653SOL     OW15000   5.064   2.735   5.242  0.0004 -0.1660  0.4309
 3653SOL    HW115001   5.031   2.700   5.160  0.1952  1.3333 -0.3228
 3653SOL    HW215002   4.991   2.725   5.304  0.1416 -2.0726  0.3352
 3654SOL     OW15003   9.817   0.797   7.946  0.3667 -0.8201  0.0930
 3654SOL    HW115004   9.865   0.830   7.870 -0.4690 -1.4841 -0.7595
 3654SOL    HW215005   9.881   0.797   8.017  1.3388 -0.7352 -0.7594
 3655SOL     OW15006   1.762   7.199   9.911 -0.0197  0.3386  0.1544
 3655SOL    HW115007   1.780   7.109   9.937 -0.3096 -0.0105 -0.8091
 3655SOL    HW215008   1.848   7.240   9.904  0.1184  0.1011  0.4797
 3656SOL     OW15009   1.206   4.681   2.445  0.3009 -0.3769  0.5857
 3656SOL    HW115010   1.264   4.683   2.369 -0.8154 -0.6863 -0.2929
 3656SOL    HW215011   1.129   4.634   2.416 -1.7118  2.5086  0.7771
 3657SOL     OW15012   9.193   5.587   6.185  0.1449  0.3500  0.0089
 3657SOL    HW115013   9.133   5.660   6.195 -0.0750  0.3421 -1.1164
 3657SOL    HW215014   9.184   5.537   6.266 -0.3432  1.0915  0.4221
 3658SOL     OW15015   4.810   0.385   0.084 -0.1414  0.2199 -0.4375
 3658SOL    HW115016   4.836   0.414   0.171 -0.2991  0.1718 -0.3747
 3658SOL    HW215017   4.761   0.304   0.099  0.7311 -0.3630 -0.6470
 3659SOL     OW15018   0.278   5.248   5.621  0.3426 -0.9443  0.1825
 3659SOL    HW115019   0.183   5.260   5.616  0.0851 -2.9670 -0.7972
 3659SOL    HW215020   0.295   5.229   5.713 -0.3463 -1.5729  0.1846
 3660SOL     OW15021   5.253   9.323   5.682  0.0578  0.4060  0.2545
 3660SOL    HW115022   5.336   9.323   5.729  0.3617  0.9951 -0.2674
 3660SOL    HW215023   5.275   9.292   5.594 -0.3927 -0.0718  0.3073
 3661SOL     OW15024   5.882   2.454   1.965  0.1388 -0.5309  0.2181
 3661SOL    HW115025   5.957   2.425   1.913  0.0577 -0.5301  0.0990
 3661SOL    HW215026   5.909   2.444   2.056  0.3977 -0.2418  0.1750
 3662SOL     OW15027   1.508   3.512   9.682  0.0142  0.2046  0.1627
 3662SOL    HW115028   1.418   3.517   9.714 -0.4775  0.7117 -1.2351
 3662SOL    HW215029   1.557   3.471   9.754 -1.1608  0.6819  1.2614
 3663SOL     OW15030   8.952   5.186   5.400 -0.1586 -0.8905  0.3593
 3663SOL    HW115031   9.015   5.190   5.328  0.3473 -0.1981  0.8317
 3663SOL    HW215032   8.991   5.126   5.463  0.8026  0.6880  1.3477
 3664SOL     OW15033   1.198   2.694   6.601  0.0096 -0.7442 -0.6182
 3664SOL    HW115034   1.107   2.665   6.607 -0.2962  0.3157  0.2777
 3664SOL    HW215035   1.234   2.679   6.689  0.5750 -0.7832 -0.8499
 3665SOL     OW15036   2.265   1.502   8.258 -0.0913 -0.0774  0.3987
 3665SOL    HW115037   2.176   1.504   8.224  0.0256  1.7596  0.0956
 3665SOL    HW215038   2.285   1.594   8.278  1.7183 -0.4573  0.4822
 3666SOL     OW15039   5.086   0.895   6.466  0.5049 -0.1127  0.1388
 3666SOL    HW115040   5.151   0.825   6.473  0.3423 -0.2309  0.4716
 3666SOL    HW215041   5.119   0.964   6.523 -0.2885 -0.6648  1.3134
 3667SOL     OW15042   5.629   2.354   8.030  0.0963  0.1683  0.2169
 3667SOL    HW115043   5.676   2.315   7.956 -0.0999  0.5830 -0.1312
 3667SOL    HW215044   5.565   2.287   8.055  0.1475  0.0345  0.0001
 3668SOL     OW15045   9.926  10.280   4.738  0.0833  0.0337 -0.2182
 3668SOL    HW115046   9.982  10.218   4.785 -0.2530 -0.6078 -0.6481
 3668SOL    HW215047   9.910  10.350   4.802  3.3729  1.5372 -0.8585
 3669SOL     OW15048   0.577   5.911   9.759  0.1615  0.4725 -0.6239
 3669SOL    HW115049   0.563   5.997   9.720 -0.7767  0.1251 -1.0855
 3669SOL    HW215050   0.557   5.849   9.689  2.6974 -0.1299 -0.9071
 3670SOL     OW15051   2.656   0.294   9.705  0.6377  0.7581  0.0634
 3670SOL    HW115052   2.691   0.219   9.657  0.7364  1.9922 -1.8970
 3670SOL    HW215053   2.579   0.259   9.751  0.6794 -0.5325 -0.8025
 3671SOL     OW15054   3.287   2.310   5.651 -0.2257  0.7181 -0.0381
 3671SOL    HW115055   3.338   2.362   5.588 -1.5535  1.7880 -0.2497
 3671SOL    HW215056   3.196   2.334   5.635 -0.6481  0.6087  1.9334
 3672SOL     OW15057   0.358   3.298   2.710  0.4549 -0.1121  0.5495
 3672SOL    HW115058   0.335   3.276   2.800  1.2532  2.1401  1.3761
 3672SOL    HW215059   0.452   3.280   2.704  0.6115  0.6695  0.5024
 3673SOL     OW15060   0.647   3.954   7.947  0.0823 -0.3370 -0.3989
 3673SOL    HW115061   0.645   3.875   8.001  0.2857 -1.2286 -1.6520
 3673SOL    HW215062   0.596   4.018   7.996  1.5285 -0.6146  1.5828
 3674SOL     OW15063   4.079   3.825   1.895  0.0341  0.7072  0.2646
 3674SOL    HW115064   4.160   3.776   1.905 -0.9292 -0.7617  1.3887
 3674SOL    HW215065   4.011   3.758   1.889 -0.9224  1.7776 -3.4836
 3675SOL     OW15066   4.745   0.981   2.621 -0.0149 -0.3078 -0.0852
 3675SOL    HW115067   4.697   0.950   2.698 -1.7761 -1.1399 -1.4595
 3675SOL    HW215068   4.785   0.903   2.584 -0.5196 -0.1924 -0.8998
 3676SOL     OW15069   9.861  10.040   5.010 -0.0040  0.2079 -0.0386
 3676SOL    HW115070   9.783  10.094   5.019 -0.2398 -0.1302 -0.0370
 3676SOL    HW215071   9.828   9.953   4.990  0.3768  0.0818 -0.1367
 3677SOL     OW15072   6.838   1.916   4.876  0.6811 -0.4636  0.2236
 3677SOL    HW115073   6.848   1.843   4.815  0.4294 -1.3369  1.1978
 3677SOL    HW215074   6.782   1.882   4.945  0.4965  0.6867  0.6621
 3678SOL     OW15075   4.425   3.859   8.675 -0.2052  0.2889 -0.2254
 3678SOL    HW115076   4.365   3.928   8.702  0.5749  1.1715 -0.6991
 3678SOL    HW215077   4.508   3.879   8.718 -0.0606 -0.5638 -0.0760
 3679SOL     OW15078   6.204   3.348   3.425 -0.2692  0.5730  0.6951
 3679SOL    HW115079   6.189   3.255   3.405  0.0830  0.5210  0.6698
 3679SOL    HW215080   6.257   3.379   3.352 -1.9473  1.2608 -0.2830
 3680SOL     OW15081   7.819   6.401   5.929  0.0180 -0.0474 -0.1575
 3680SOL    HW115082   7.854   6.312   5.938  1.2433  0.3353 -0.9273
 3680SOL    HW215083   7.892   6.458   5.955 -0.4475  0.7593 -0.5832
 3681SOL     OW15084   0.935   4.275   6.966  0.0233 -0.3251  0.0252
 3681SOL    HW115085   0.848   4.282   6.927  0.7656  1.9011 -1.4609
 3681SOL    HW215086   0.992   4.252   6.892  0.9954  0.5132  0.4853
 3682SOL     OW15087   6.841   7.003   0.803 -0.0275 -0.2314 -0.1543
 3682SOL    HW115088   6.909   7.016   0.869  2.1189 -2.7979 -1.6508
 3682SOL    HW215089   6.764   6.975   0.853  0.8045  0.1184  1.4011
 3683SOL     OW15090   5.038   9.416   1.110 -0.2036  0.3867 -0.1806
 3683SOL    HW115091   5.105   9.368   1.158 -0.9198 -0.5346 -0.0670
 3683SOL    HW215092   5.055   9.508   1.130  2.1538  0.3470 -1.6309
 3684SOL     OW15093   3.259   0.843   3.250 -0.9111 -0.0616 -0.1560
 3684SOL    HW115094   3.315   0.800   3.185 -0.7164  0.3204 -0.2383
 3684SOL    HW215095   3.199   0.896   3.198  0.1187  1.3187  0.0222
 3685SOL     OW15096   1.692   6.678   2.728 -0.7450 -0.6291  0.1036
 3685SOL    HW115097   1.778   6.706   2.761 -1.0493  2.0386 -1.1974
 3685SOL    HW215098   1.713   6.616   2.658  0.0525 -0.8432  0.5082
 3686SOL     OW15099   9.354   5.559  10.257 -0.4036  0.3532 -0.3413
 3686SOL    HW115100   9.322   5.591  10.342  0.0601  1.8748 -0.7019
 3686SOL    HW215101   9.386   5.638  10.213  0.2544 -0.5615 -1.5476
 3687SOL     OW15102   9.958   7.768   6.701  0.6214 -0.0286  0.6314
 3687SOL    HW115103   9.965   7.862   6.716  2.0381  0.0910 -0.4972
 3687SOL    HW215104   9.987   7.756   6.610  0.4462 -1.5515  0.7470
 3688SOL     OW15105   8.195   5.035   1.616 -0.1408 -0.0205 -0.0527
 3688SOL    HW115106   8.108   4.995   1.618  0.0949 -0.5196  1.4940
 3688SOL    HW215107   8.249   4.973   1.568 -0.2220 -0.6399  0.6387
 3689SOL     OW15108   1.118   9.242  10.062  0.0002  0.4432  0.2890
 3689SOL    HW115109   1.036   9.215  10.103 -0.6056  2.7384  0.7217
 3689SOL    HW215110   1.165   9.291  10.130  1.6155 -0.5478 -0.0537
 3690SOL     OW15111   7.492   7.879   2.658 -0.3405  0.0281 -0.2688
 3690SOL    HW115112   7.445   7.796   2.661  0.6161 -0.5433 -0.5148
 3690SOL    HW215113   7.428   7.944   2.686 -0.2220 -1.1737  3.3486
 3691SOL     OW15114   5.828   5.344   0.989  0.0545  0.0876  0.2069
 3691SOL    HW115115   5.890   5.393   0.935  1.1850 -1.3308  0.1356
 3691SOL    HW215116   5.835   5.383   1.076 -0.0644  0.8984 -0.1417
 3692SOL     OW15117   0.609   6.759   3.142 -0.3405 -0.0284  0.2720
 3692SOL    HW115118   0.677   6.707   3.101 -0.5368 -1.3837  1.5665
 3692SOL    HW215119   0.533   6.749   3.085 -0.1202 -0.4360  0.0492
 3693SOL     OW15120   4.030   1.404   4.605 -0.1490 -0.3245  0.0691
 3693SOL    HW115121   4.023   1.337   4.672  1.3289  0.2692  0.8520
 3693SOL    HW215122   4.119   1.437   4.612 -0.3209  0.5802 -1.4073
 3694SOL     OW15123   1.171   1.430   9.394  0.0971 -0.4196 -0.4922
 3694SOL    HW115124   1.110   1.494   9.356 -0.1993  0.3452  1.1974
 3694SOL    HW215125   1.216   1.392   9.318 -1.5553 -0.0699 -1.7010
 3695SOL     OW15126   8.564  10.006   0.639  0.0070  0.2081  0.3178
 3695SOL    HW115127   8.590  10.046   0.556 -0.4064 -0.3453 -0.0878
 3695SOL    HW215128   8.481  10.048   0.662 -0.9408 -1.0522 -0.6101
 3696SOL     OW15129   8.683   2.762   3.977  1.2249 -0.0152 -0.6695
 3696SOL    HW115130   8.669   2.799   3.890  1.1589 -1.3576 -1.2449
 3696SOL    HW215131   8.641   2.824   4.037  0.4702  0.4495 -1.6658
 3697SOL     OW15132   5.076   5.353   7.342 -0.1350 -0.0822  0.4143
 3697SOL    HW115133   4.983   5.371   7.336  0.3139  1.9632 -2.4273
 3697SOL    HW215134   5.085   5.262   7.313 -1.2385 -0.4783  1.2375
 3698SOL     OW15135   8.552   5.377   7.343 -0.0225  0.4449  0.0663
 3698SOL    HW115136   8.600   5.395   7.262  0.1005  1.0170  0.2659
 3698SOL    HW215137   8.553   5.460   7.391  1.9572 -0.4150  1.7168
 3699SOL     OW15138   8.166  10.134   2.490 -0.2124  0.3011  0.1203
 3699SOL    HW115139   8.222  10.106   2.562  0.1051  0.8139  0.0701
 3699SOL    HW215140   8.218  10.119   2.411 -0.1216  0.8341  0.0778
 3700SOL     OW15141   1.946   9.076   0.503  0.5407  0.1052  0.2050
 3700SOL    HW115142   1.967   9.022   0.427  0.9783  1.5152 -0.7080
 3700SOL    HW215143   1.909   9.014   0.566 -1.3302 -0.8873 -1.7116
 3701SOL     OW15144   5.190   9.994   7.558 -0.1616 -0.9478  0.1380
 3701SOL    HW115145   5.193  10.070   7.500  0.7318 -2.2127 -1.6012
 3701SOL    HW215146   5.118  10.012   7.618 -0.1231  1.1420 -0.3619
 3702SOL     OW15147   9.195   7.492   8.098  0.2686 -0.3155 -0.4013
 3702SOL    HW115148   9.179   7.533   8.013 -0.2053  0.1325 -0.1019
 3702SOL    HW215149   9.108   7.466   8.128  0.4219 -0.3555  0.0025
 3703SOL     OW15150   6.196   8.468   0.985 -0.1911  0.4186 -0.4704
 3703SOL    HW115151   6.269   8.472   0.923 -0.1939  0.6643 -0.4599
 3703SOL    HW215152   6.225   8.407   1.053  0.5224  1.4393  0.1866
 3704SOL     OW15153   3.054   0.959   3.785 -0.6173  0.0123  0.4842
 3704SOL    HW115154   3.020   0.904   3.715  0.9848 -1.0405  0.4954
 3704SOL    HW215155   2.992   0.946   3.857 -0.5942 -1.3228  0.2871
 3705SOL     OW15156   4.570   2.087   1.571 -0.1576  0.7385 -0.3714
 3705SOL    HW115157   4.602   2.066   1.658  1.9337  0.2841 -1.1817
 3705SOL    HW215158   4.532   2.005   1.539  2.2231 -0.1771 -1.1187
 3706SOL     OW15159   5.721   7.739   8.234 -0.1503  0.2407 -0.1569
 3706SOL    HW115160   5.638   7.739   8.281 -0.2636  0.7772 -0.3541
 3706SOL    HW215161   5.767   7.817   8.266  0.0813  0.2006 -0.3861
 3707SOL     OW15162   7.440   4.583   4.410 -0.1543  0.5446 -0.0880
 3707SOL    HW115163   7.433   4.490   4.432  0.2189  0.1990 -1.3597
 3707SOL    HW215164   7.474   4.584   4.321 -0.4547  1.9030 -0.2054
 3708SOL     OW15165   6.125   9.696   4.780  0.0676 -0.3896  0.3671
 3708SOL    HW115166   6.124   9.720   4.688 -1.3287  1.8781  0.8834
 3708SOL    HW215167   6.198   9.745   4.818 -0.4506  0.1042  0.7545
 3709SOL     OW15168   2.731   0.019   1.902 -0.0594 -0.4959  0.3736
 3709SOL    HW115169   2.781  -0.013   1.826  1.3286 -0.7616  1.3555
 3709SOL    HW215170   2.682   0.093   1.868  0.3326 -0.7669 -0.8552
 3710SOL     OW15171   8.731   8.594   8.196  0.5030  0.1110  0.6626
 3710SOL    HW115172   8.763   8.659   8.133  1.7604 -0.6210  0.5270
 3710SOL    HW215173   8.773   8.618   8.278 -1.0386  0.9900  1.2566
 3711SOL     OW15174   7.899   6.924   8.723 -0.3636 -0.2456 -0.1446
 3711SOL    HW115175   7.934   6.842   8.687 -1.4751 -0.0445 -1.7887
 3711SOL    HW215176   7.842   6.896   8.795  1.3595 -0.7012  1.1092
 3712SOL     OW15177   5.229   0.013   5.064  0.3218 -0.2453  0.4050
 3712SOL    HW115178   5.205  -0.061   5.120 -1.0875 -1.0003 -1.1111
 3712SOL    HW215179   5.152   0.068   5.062  0.4341 -0.1056 -0.5760
 3713SOL     OW15180   7.698   2.492   9.237  0.0168 -0.4522 -0.4715
 3713SOL    HW115181   7.682   2.556   9.168  1.6371 -0.2712 -0.7284
 3713SOL    HW215182   7.774   2.443   9.206  0.8435 -0.3075  1.2025
 3714SOL     OW15183   8.754   3.758   1.079 -0.0019 -0.2942 -0.3821
 3714SOL    HW115184   8.678   3.770   1.023  1.0305 -0.2140 -1.8037
 3714SOL    HW215185   8.791   3.846   1.090 -0.1740 -0.3097  0.4288
 3715SOL     OW15186   7.064   0.255   1.801  0.6056  0.0943 -0.2536
 3715SOL    HW115187   7.071   0.340   1.758  1.2818  0.3565  0.3642
 3715SOL    HW215188   7.040   0.275   1.891  0.2248 -0.4038 -0.2361
 3716SOL     OW15189   7.214   5.894   0.088  0.2216  0.4986 -0.0449
 3716SOL    HW115190   7.271   5.937   0.152 -1.2238 -0.5550  2.0847
 3716SOL    HW215191   7.128   5.935   0.102 -0.6658 -1.4103  0.4335
 3717SOL     OW15192   0.295   1.457   6.374  0.3452  0.2106  0.5751
 3717SOL    HW115193   0.250   1.390   6.323  0.6771  0.1147  0.3996
 3717SOL    HW215194   0.226   1.500   6.424  0.1372 -0.3467  0.7839
 3718SOL     OW15195   9.930   4.460   1.518 -0.5213  0.0147 -0.1693
 3718SOL    HW115196   9.911   4.498   1.603  0.7901  0.9283 -0.2591
 3718SOL    HW215197   9.926   4.534   1.457  2.1389  0.1222 -0.3343
 3719SOL     OW15198   6.844   7.770   8.945  0.3523  0.4935  0.6582
 3719SOL    HW115199   6.850   7.713   9.021  1.6818  0.1255  0.3025
 3719SOL    HW215200   6.933   7.803   8.933  1.3229 -2.7673 -3.2231
 3720SOL     OW15201   1.009   8.535   0.785 -0.1677 -0.2394  0.2458
 3720SOL    HW115202   0.997   8.441   0.771  1.0029 -0.5942  1.3824
 3720SOL    HW215203   0.941   8.558   0.848  1.2403 -0.9855  2.1647
 3721SOL     OW15204   4.169   5.859   6.198  0.0258 -0.2302 -0.0790
 3721SOL    HW115205   4.157   5.803   6.275  2.8901 -0.1060  0.5693
 3721SOL    HW215206   4.233   5.812   6.144  0.8547  1.3608 -0.5560
 3722SOL     OW15207   3.708   8.461  10.021  0.1667  0.0389 -0.6787
 3722SOL    HW115208   3.778   8.515   9.983 -0.8105  2.1392  0.3373
 3722SOL    HW215209   3.746   8.425  10.101  0.8710 -0.9573 -1.4307
 3723SOL     OW15210   2.180   0.789   6.978  0.4404 -0.1617 -0.1228
 3723SOL    HW115211   2.138   0.791   6.892 -2.1458  1.4649  1.0531
 3723SOL    HW215212   2.171   0.878   7.011  0.1293 -1.0389  2.3605
 3724SOL     OW15213   6.448   1.649   8.452 -0.8320  0.1434  0.6125
 3724SOL    HW115214   6.482   1.663   8.364 -1.3129 -0.5209  0.3137
 3724SOL    HW215215   6.516   1.600   8.497 -1.0753 -0.5330  0.2472
 3725SOL     OW15216   2.770   6.733   9.595 -0.2235 -0.0429  0.2268
 3725SOL    HW115217   2.759   6.772   9.681 -3.6235 -1.5597  0.6363
 3725SOL    HW215218   2.762   6.639   9.609 -0.6800 -0.3489 -1.6948
 3726SOL     OW15219   0.359   1.772   3.631  0.0285  0.2321  0.7766
 3726SOL    HW115220   0.397   1.860   3.632  1.3215 -0.2220 -1.3720
 3726SOL    HW215221   0.270   1.784   3.663  0.6090  2.0865  1.8414
 3727SOL     OW15222   0.860   9.514   4.942 -0.7723 -0.3388  0.4222
 3727SOL    HW115223   0.800   9.476   5.007 -1.8235 -0.2047 -0.4407
 3727SOL    HW215224   0.802   9.545   4.872  0.3854 -1.4654 -1.0871
 3728SOL     OW15225   8.083   2.571   0.065  0.0299  0.0842  0.0432
 3728SOL    HW115226   8.129   2.520  -0.002 -0.6249  1.7952 -1.8094
 3728SOL    HW215227   8.014   2.513   0.097 -0.0716 -0.5372 -1.2621
 3729SOL     OW15228   6.318   6.267   0.488  0.3703  0.5138 -0.0444
 3729SOL    HW115229   6.401   6.311   0.507  0.1312  1.3351 -0.8416
 3729SOL    HW215230   6.341   6.199   0.424  0.3580  1.0518 -0.6260
 3730SOL     OW15231   1.476   8.240   9.529 -0.1967  0.2534 -0.2229
 3730SOL    HW115232   1.454   8.211   9.618  2.0839  2.9512  1.4000
 3730SOL    HW215233   1.484   8.335   9.537 -1.2243  0.7687 -3.7094
 3731SOL     OW15234   0.569   1.248   9.668  0.4922 -0.5315  0.3389
 3731SOL    HW115235   0.625   1.279   9.740 -1.5738  1.1864  1.2952
 3731SOL    HW215236   0.518   1.324   9.642  0.2352 -1.4546 -2.1147
 3732SOL     OW15237   7.448  10.186   6.650  0.2263 -0.0056  0.2255
 3732SOL    HW115238   7.465  10.099   6.688 -0.8521  0.4450  1.8525
 3732SOL    HW215239   7.463  10.247   6.723 -1.3477  0.9640 -0.2247
 3733SOL     OW15240   3.182   5.998   5.017 -0.3454  0.5342 -0.1204
 3733SOL    HW115241   3.196   6.087   5.050  0.4068  1.9380 -3.7189
 3733SOL    HW215242   3.262   5.951   5.039 -0.3384  1.0405  0.9736
 3734SOL     OW15243   2.281   5.257   4.483  0.2750  0.0471  0.1598
 3734SOL    HW115244   2.293   5.232   4.392  0.4753 -1.4384  0.5797
 3734SOL    HW215245   2.370   5.273   4.515  0.3014 -0.5588  0.3977
 3735SOL     OW15246   0.201   3.679   3.293 -0.2835 -0.4493 -0.2718
 3735SOL    HW115247   0.296   3.664   3.294 -0.4335 -1.6763  1.6757
 3735SOL    HW215248   0.192   3.774   3.296  0.8585 -0.2831 -1.1897
 3736SOL     OW15249   8.310   8.308   9.294 -0.3470  0.0007 -0.1076
 3736SOL    HW115250   8.323   8.325   9.388 -0.7583  0.7680 -0.1786
 3736SOL    HW215251   8.399   8.302   9.258 -0.1436  1.9359 -0.0394
 3737SOL     OW15252   9.220   0.431   5.018 -0.3977  0.2470  0.0591
 3737SOL    HW115253   9.208   0.357   4.958 -0.1322 -1.1344  1.6327
 3737SOL    HW215254   9.204   0.508   4.964  1.6404 -0.8114 -2.2559
 3738SOL     OW15255   0.677   0.103   6.536 -0.0511  0.3608 -0.3816
 3738SOL    HW115256   0.682   0.198   6.546  0.3636  0.2509  0.5056
 3738SOL    HW215257   0.606   0.090   6.472 -0.1768  1.2551 -0.4413
 3739SOL     OW15258   6.912   4.466   6.124 -0.0921  0.2731 -0.0289
 3739SOL    HW115259   7.008   4.466   6.123 -0.0631 -1.3826 -2.1671
 3739SOL    HW215260   6.887   4.492   6.036 -1.5881 -0.5997  0.1110
 3740SOL     OW15261   8.779   5.312   2.592 -0.2252  0.3119 -0.4371
 3740SOL    HW115262   8.858   5.331   2.643  0.0897  0.0938 -0.8417
 3740SOL    HW215263   8.721   5.268   2.654 -0.6545  1.8532  0.3015
 3741SOL     OW15264   4.632   7.655   0.938 -0.6243  0.1720  0.4656
 3741SOL    HW115265   4.600   7.743   0.920 -1.9677 -0.5566 -0.9262
 3741SOL    HW215266   4.574   7.597   0.889 -0.7388 -1.6200  2.5459
 3742SOL     OW15267  10.019   7.888   9.464  0.1119 -0.3377 -0.1442
 3742SOL    HW115268  10.016   7.976   9.503 -1.6234 -0.3680 -0.1496
 3742SOL    HW215269  10.074   7.899   9.386 -1.7531  1.2705 -1.3286
 3743SOL     OW15270   6.224   4.114   3.636  0.1346  0.0418 -0.0134
 3743SOL    HW115271   6.155   4.056   3.602 -1.1214  0.9131  0.9488
 3743SOL    HW215272   6.196   4.202   3.609  1.2574  0.3397 -0.2241
 3744SOL     OW15273   9.515   9.481   5.667 -0.2087  0.3189 -0.4419
 3744SOL    HW115274   9.445   9.483   5.601  0.9385  1.8971 -1.7023
 3744SOL    HW215275   9.563   9.401   5.649 -0.1431  0.5369 -1.2931
 3745SOL     OW15276   5.199   0.061   4.607  0.0729 -0.0392 -0.1714
 3745SOL    HW115277   5.250   0.085   4.684  0.3821 -1.1963  0.0130
 3745SOL    HW215278   5.109   0.056   4.638 -0.2458  2.2889 -0.5603
 3746SOL     OW15279  10.250   6.034   1.292 -0.0501  0.4918  0.1248
 3746SOL    HW115280  10.237   6.105   1.229 -2.9842  1.0014  1.1391
 3746SOL    HW215281  10.334   5.996   1.268  0.6693  2.9813 -1.7560
 3747SOL     OW15282   6.269   6.561   6.647  0.1528 -0.0825 -0.3252
 3747SOL    HW115283   6.337   6.620   6.679  0.2944 -0.6288  0.4160
 3747SOL    HW215284   6.187   6.599   6.680  0.2463 -0.3001  0.1753
 3748SOL     OW15285   3.303   3.194   7.610  0.4756 -0.4149 -0.7912
 3748SOL    HW115286   3.256   3.244   7.676  1.4730  0.9934 -1.0986
 3748SOL    HW215287   3.292   3.244   7.529  2.5654  0.0409 -0.8440
 3749SOL     OW15288   5.484   5.042   5.842  0.1328 -0.7027  0.0035
 3749SOL    HW115289   5.522   5.126   5.870 -1.2191  0.6120 -1.8486
 3749SOL    HW215290   5.546   5.008   5.778  0.1689 -0.5739 -0.0303
 3750SOL     OW15291   9.594   3.822   0.011 -0.7017  0.3672  0.3947
 3750SOL    HW115292   9.657   3.828  -0.061 -1.2498 -1.1423 -0.2492
 3750SOL    HW215293   9.510   3.808  -0.032 -0.9603 -1.1428  1.3247
 3751SOL     OW15294   1.730   2.889   3.613 -0.6168 -0.3820  0.3611
 3751SOL    HW115295   1.743   2.918   3.703 -0.0797  0.2740  0.0827
 3751SOL    HW215296   1.649   2.840   3.615  0.9573 -3.1833  1.8603
 3752SOL     OW15297   6.662   4.523   6.146  0.1516 -0.3345 -0.0057
 3752SOL    HW115298   6.757   4.509   6.143  0.3701  1.0916 -0.4778
 3752SOL    HW215299   6.642   4.533   6.239  0.9659  2.2885 -0.0404
 3753SOL     OW15300   7.902  10.137   6.095  0.2846  0.1489  0.3912
 3753SOL    HW115301   7.924  10.047   6.068 -0.1972  0.1666 -0.0809
 3753SOL    HW215302   7.891  10.184   6.013 -1.5896  0.1117  0.5812
 3754SOL     OW15303   9.406   1.172   7.826  0.1184  1.0237  0.7823
 3754SOL    HW115304   9.396   1.098   7.765  1.4664  1.4378  0.0138
 3754SOL    HW215305   9.317   1.191   7.855 -0.2365 -1.0244  1.1590
 3755SOL     OW15306   0.016   5.053   4.444 -0.5451 -0.0526 -0.4770
 3755SOL    HW115307   0.029   5.113   4.516 -2.4972  0.6935 -0.6797
 3755SOL    HW215308   0.035   5.104   4.365  1.2643 -0.7709 -0.5561
 3756SOL     OW15309   3.421   7.287   6.413 -0.4032  0.2898  0.2357
 3756SOL    HW115310   3.365   7.243   6.478 -0.2400 -1.0209 -0.4715
 3756SOL    HW215311   3.505   7.242   6.420 -0.8376 -1.0325 -1.9702
 3757SOL     OW15312  10.287   6.682   3.266  0.1524 -0.2132  0.0062
 3757SOL    HW115313  10.292   6.590   3.240  0.9334 -0.6817  1.6950
 3757SOL    HW215314  10.200   6.710   3.237 -0.0959 -1.4746 -0.5364
 3758SOL     OW15315   3.613   4.523   4.638 -0.6359 -0.5233 -0.2670
 3758SOL    HW115316   3.599   4.516   4.732 -0.0669 -1.9321 -0.2645
 3758SOL    HW215317   3.656   4.608   4.626 -1.9338  0.2828  0.5668
 3759SOL     OW15318   1.374   5.389   0.446  0.1964 -0.4593 -0.4909
 3759SOL    HW115319   1.300   5.437   0.484 -0.5402 -1.7547 -0.2098
 3759SOL    HW215320   1.334   5.310   0.410  0.7336  0.8288 -4.4018
 3760SOL     OW15321  10.133   8.091   4.147  0.2546 -0.2275  0.0996
 3760SOL    HW115322  10.084   8.073   4.227 -2.2056  0.5707 -1.1376
 3760SOL    HW215323  10.164   8.181   4.157  1.0392 -0.5477  0.6515
 3761SOL     OW15324   7.796   5.080   2.243 -0.0197 -0.2764 -0.3962
 3761SOL    HW115325   7.850   5.064   2.165  0.5140 -2.0638  0.2897
 3761SOL    HW215326   7.748   4.998   2.256  0.9919 -0.5801  1.9543
 3762SOL     OW15327   2.433   5.317   9.878 -0.4204 -0.0518 -0.0499
 3762SOL    HW115328   2.506   5.281   9.826 -0.9589 -0.3284 -0.6321
 3762SOL    HW215329   2.471   5.393   9.922  0.3675 -0.5086  0.0917
 3763SOL     OW15330   4.915   3.183   6.935  0.1217 -0.3700 -0.0733
 3763SOL    HW115331   4.901   3.220   6.848 -1.7197 -3.4308 -1.2676
 3763SOL    HW215332   4.835   3.204   6.984 -0.3283 -1.5006 -0.2989
 3764SOL     OW15333   6.569   3.182   5.913 -0.7126 -0.7080  0.0707
 3764SOL    HW115334   6.633   3.151   5.849  0.3573  0.5383  0.4968
 3764SOL    HW215335   6.556   3.274   5.892 -1.5018 -0.6521  0.7272
 3765SOL     OW15336   7.973   4.401   7.260  0.3250  0.1858 -0.0985
 3765SOL    HW115337   7.885   4.399   7.296  0.2047  1.0377 -0.3150
 3765SOL    HW215338   7.986   4.314   7.222 -0.8964  0.4494 -1.1898
 3766SOL     OW15339   6.675   4.822   4.084 -0.2261 -0.0027  0.0591
 3766SOL    HW115340   6.673   4.739   4.038 -2.4078  0.8502 -1.5276
 3766SOL    HW215341   6.624   4.882   4.029 -0.0863  1.9667  1.9344
 3767SOL     OW15342   0.900   6.227   7.184  0.2204  0.0907  0.5673
 3767SOL    HW115343   0.818   6.275   7.198  0.4928  1.0750 -0.9914
 3767SOL    HW215344   0.894   6.152   7.243 -2.1726 -0.3001 -0.0593
 3768SOL     OW15345   0.147   2.826   1.271  1.0232  0.2449 -0.0250
 3768SOL    HW115346   0.128   2.886   1.344  1.9366  0.7481 -0.1967
 3768SOL    HW215347   0.236   2.848   1.244  0.5082  0.4323 -1.6553
 3769SOL     OW15348   3.470  10.053   2.513  0.1984  0.0538 -0.0478
 3769SOL    HW115349   3.385  10.095   2.518 -0.4187 -1.2021  0.4821
 3769SOL    HW215350   3.458   9.969   2.558  1.5041 -0.4696 -0.6226
 3770SOL     OW15351   1.679   9.360   0.548 -0.2376 -0.2796  0.5295
 3770SOL    HW115352   1.700   9.327   0.461 -0.2693  1.0035  0.0012
 3770SOL    HW215353   1.608   9.304   0.578  0.0379 -0.9939 -0.1010
 3771SOL     OW15354   0.317   5.502   5.341  0.8384  0.5140  0.3340
 3771SOL    HW115355   0.274   5.587   5.336  1.9593  1.1189  0.5477
 3771SOL    HW215356   0.359   5.501   5.427  1.6830  0.1928 -0.0636
 3772SOL     OW15357   2.974   6.125   7.797  0.4590  0.3523  0.1468
 3772SOL    HW115358   3.054   6.146   7.847 -0.4845 -0.4216  2.1090
 3772SOL    HW215359   2.978   6.181   7.720  2.4594  0.9771  0.6411
 3773SOL     OW15360   7.941   2.562   2.621 -0.5571  0.5022  0.3606
 3773SOL    HW115361   7.962   2.609   2.701 -0.5521 -0.0480  0.6872
 3773SOL    HW215362   7.956   2.626   2.551  3.2358 -0.0526  0.4509
 3774SOL     OW15363   3.068   8.049   2.359  0.9192  0.2431  0.0668
 3774SOL    HW115364   3.086   8.046   2.265 -0.2133 -1.2304 -0.1372
 3774SOL    HW215365   3.095   7.963   2.391 -1.4005 -0.3933  0.5177
 3775SOL     OW15366   5.316   6.516   8.292  0.1038 -0.8354 -0.2135
 3775SOL    HW115367   5.228   6.543   8.267  0.3295  1.6737  1.3885
 3775SOL    HW215368   5.304   6.466   8.372  0.0902 -1.3736 -0.5427
 3776SOL     OW15369   1.819   9.584   6.122 -0.5633  0.0821  0.0863
 3776SOL    HW115370   1.746   9.528   6.149 -0.4453  0.1766  0.6122
 3776SOL    HW215371   1.823   9.652   6.189  0.5347 -0.4015  0.5405
 3777SOL     OW15372   4.937   7.063   9.579 -0.7438 -0.3074  0.7015
 3777SOL    HW115373   4.885   7.141   9.557  1.7345  1.5883  1.0883
 3777SOL    HW215374   4.984   7.088   9.658  1.7984 -1.3297 -0.3835
 3778SOL     OW15375   3.813   0.931   6.435 -0.1550 -0.4355  0.2667
 3778SOL    HW115376   3.747   0.864   6.417  1.1253 -1.8118  0.4290
 3778SOL    HW215377   3.810   0.944   6.529 -0.2162 -0.4836  0.2713
 3779SOL     OW15378   3.512   4.914   4.744 -0.5672  0.0523 -0.7382
 3779SOL    HW115379   3.523   4.976   4.816  1.9368 -1.3478  0.2091
 3779SOL    HW215380   3.562   4.837   4.771 -1.3403 -1.3516 -3.0542
 3780SOL     OW15381   0.524   0.497   5.332 -0.2294 -0.1600  0.0962
 3780SOL    HW115382   0.541   0.403   5.334 -1.1441 -0.4817 -2.5657
 3780SOL    HW215383   0.469   0.509   5.254 -1.0246  2.4516  0.9706
 3781SOL     OW15384   1.412   7.023   3.186  0.0808  0.3512 -0.1796
 3781SOL    HW115385   1.383   6.980   3.106  0.0837  1.0794 -0.5735
 3781SOL    HW215386   1.412   7.116   3.166  0.9332  0.4910  0.3906
 3782SOL     OW15387   6.065  10.259   5.939 -0.2098  0.0810 -0.2417
 3782SOL    HW115388   6.068  10.167   5.966  2.1195 -0.2272 -1.3265
 3782SOL    HW215389   5.995  10.263   5.874 -1.3700 -0.5518  0.9091
 3783SOL     OW15390   5.182   1.856   3.638 -0.1595 -0.3095 -0.1277
 3783SOL    HW115391   5.194   1.766   3.608 -0.7298 -1.0580  1.7185
 3783SOL    HW215392   5.266   1.898   3.622  0.5604 -1.5681  0.2187
 3784SOL     OW15393   8.691   2.935   1.890 -0.6788 -0.2263  0.6490
 3784SOL    HW115394   8.666   2.843   1.876  0.3043 -0.5697  1.0505
 3784SOL    HW215395   8.703   2.971   1.803 -1.2645 -0.4204  0.4844
 3785SOL     OW15396   2.806   4.745   1.620  0.1033 -0.3483 -0.1022
 3785SOL    HW115397   2.854   4.770   1.541 -0.4803  0.2827 -0.2606
 3785SOL    HW215398   2.855   4.670   1.655  0.2594 -0.7587 -1.1646
 3786SOL     OW15399   1.745   3.756   0.018 -0.7424  0.7135 -0.1938
 3786SOL    HW115400   1.765   3.663   0.007  2.6477  1.4707 -1.7371
 3786SOL    HW215401   1.697   3.780  -0.061 -1.6853  0.3125  0.2389
 3787SOL     OW15402   4.641   2.184   9.043  0.4592  0.0220 -0.0331
 3787SOL    HW115403   4.604   2.206   8.957  2.8592 -0.9808 -1.4340
 3787SOL    HW215404   4.598   2.103   9.069 -2.4900  1.8457  1.2711
 3788SOL     OW15405   0.471   3.943   2.677 -0.0535  0.1835  0.0042
 3788SOL    HW115406   0.447   3.852   2.661  0.3328  0.3017 -1.3546
 3788SOL    HW215407   0.460   3.954   2.772  1.0918 -1.6245  0.4017
 3789SOL     OW15408   0.069   7.008   6.300 -0.7376  0.5251 -0.0283
 3789SOL    HW115409   0.082   7.095   6.261 -2.2469  1.4180  1.3573
 3789SOL    HW215410  -0.019   6.982   6.272 -1.0442  0.2931  1.1211
 3790SOL     OW15411   3.930   9.048   9.009 -0.4333  0.8886 -0.1274
 3790SOL    HW115412   3.937   9.129   8.959  0.2355  0.1305 -1.3054
 3790SOL    HW215413   3.982   9.063   9.087  2.1188  0.6470 -1.6614
 3791SOL     OW15414   3.692   4.275   5.252 -0.1412 -0.7477  0.4188
 3791SOL    HW115415   3.729   4.294   5.165 -1.4556 -0.8484 -0.1851
 3791SOL    HW215416   3.634   4.348   5.270  1.2140  0.0107  1.8986
 3792SOL     OW15417   6.427   4.493   6.037 -0.6471  0.3724 -0.1002
 3792SOL    HW115418   6.445   4.489   5.943  0.1242  1.4921 -0.0249
 3792SOL    HW215419   6.513   4.494   6.078 -0.9472  1.1044  0.5440
 3793SOL     OW15420   7.324   8.729   9.847  0.2183 -0.6027  0.0244
 3793SOL    HW115421   7.293   8.750   9.936  0.0605  1.0427 -0.3874
 3793SOL    HW215422   7.303   8.807   9.796 -1.3937 -2.2201 -1.9249
 3794SOL     OW15423   0.977   1.218   6.303 -0.0051  0.3102 -0.0768
 3794SOL    HW115424   0.890   1.257   6.307  0.1730  0.7078  0.0283
 3794SOL    HW215425   0.971   1.140   6.358  0.1660  1.2607  1.3778
 3795SOL     OW15426   2.370   5.573   5.257 -0.4479 -0.1041  0.3869
 3795SOL    HW115427   2.399   5.650   5.306 -2.2437 -0.0879  1.5255
 3795SOL    HW215428   2.303   5.606   5.198  1.2021 -0.2532 -1.7040
 3796SOL     OW15429   2.108   0.452   1.917  0.1302 -0.2556 -0.5610
 3796SOL    HW115430   2.049   0.462   1.993  2.0820 -0.2378  1.0284
 3796SOL    HW215431   2.080   0.370   1.876 -0.1825 -0.9424  0.9431
 3797SOL     OW15432   5.247   5.634   2.646 -0.1247 -0.1314  0.6511
 3797SOL    HW115433   5.226   5.678   2.564  1.3232  0.9719  0.8396
 3797SOL    HW215434   5.304   5.561   2.620  2.3197  1.6055  0.8049
 3798SOL     OW15435   0.245   7.992   3.139  0.0312  0.0119 -0.4417
 3798SOL    HW115436   0.195   7.938   3.201  0.2405 -1.8101 -1.7840
 3798SOL    HW215437   0.262   8.073   3.187 -1.7988 -0.4109  1.0472
 3799SOL     OW15438   3.649   6.652   9.356 -0.1174 -0.0458  0.6765
 3799SOL    HW115439   3.629   6.559   9.366  1.5305 -0.1882  3.8662
 3799SOL    HW215440   3.648   6.667   9.261 -2.4342 -2.7814  0.1532
 3800SOL     OW15441   3.898   0.059   9.246  0.2433  0.0738 -0.3638
 3800SOL    HW115442   3.902   0.108   9.164 -1.1374 -0.0911 -0.5375
 3800SOL    HW215443   3.989   0.033   9.262  0.9692  2.2626 -0.5112
 3801SOL     OW15444   4.581   8.405   9.876 -0.1084  0.5774  0.2932
 3801SOL    HW115445   4.602   8.358   9.957 -0.1517  0.0118 -0.0185
 3801SOL    HW215446   4.665   8.416   9.832  0.0524  1.7098  0.8372
 3802SOL     OW15447   7.867   3.245   8.852 -0.3539 -0.2230  0.0229
 3802SOL    HW115448   7.863   3.185   8.778  2.5246  2.1801 -2.2960
 3802SOL    HW215449   7.817   3.322   8.823  1.4480  1.0555  0.1623
 3803SOL     OW15450   0.866   3.736   3.659 -0.1821 -0.1443  0.3488
 3803SOL    HW115451   0.939   3.778   3.704 -0.6779 -0.5809  1.5853
 3803SOL    HW215452   0.901   3.715   3.572  1.1176 -0.2323  0.8768
 3804SOL     OW15453  10.090   3.845   0.043 -0.4911  0.7205 -0.6967
 3804SOL    HW115454  10.003   3.887   0.042 -1.1381 -0.4289  1.3779
 3804SOL    HW215455  10.090   3.794   0.124  1.3669 -0.9627 -1.6995
 3805SOL     OW15456   4.766   9.716   1.869 -0.1081  1.3471 -0.2271
 3805SOL    HW115457   4.710   9.667   1.930  1.4366  0.2651  0.3955
 3805SOL    HW215458   4.837   9.655   1.848  0.5356  2.4665 -1.4453
 3806SOL     OW15459   1.207   0.144   2.021  0.5399  0.0944 -0.6361
 3806SOL    HW115460   1.206   0.232   1.983 -0.9133  0.3477 -0.0719
 3806SOL    HW215461   1.118   0.112   2.010  0.2012 -0.0773  1.8897
 3807SOL     OW15462   0.961   6.137   2.403  0.0686  0.0837 -0.0245
 3807SOL    HW115463   0.934   6.101   2.487  1.0563 -1.1334 -0.2019
 3807SOL    HW215464   1.049   6.102   2.388  0.0676  0.5674 -1.3946
 3808SOL     OW15465   8.688   4.671   4.875 -0.3585  0.2290  0.6790
 3808SOL    HW115466   8.737   4.626   4.943 -0.9546 -0.5723  0.5782
 3808SOL    HW215467   8.754   4.726   4.832  0.3439 -0.4137  0.9065
 3809SOL     OW15468   4.935   8.640   2.150 -0.3697  0.9200  0.1530
 3809SOL    HW115469   4.853   8.599   2.178  0.5509 -0.9297  0.3003
 3809SOL    HW215470   4.960   8.695   2.225 -0.2169 -0.4719  1.1571
 3810SOL     OW15471   2.538   1.436   0.538 -0.0039 -0.7065  0.0403
 3810SOL    HW115472   2.488   1.355   0.555  1.1610 -1.4569  0.0056
 3810SOL    HW215473   2.629   1.406   0.528  0.8140  0.8141  2.1435
 3811SOL     OW15474   5.910   2.750   3.757 -0.2362 -0.0063 -0.5612
 3811SOL    HW115475   5.846   2.804   3.710 -0.7943  0.7798  1.0538
 3811SOL    HW215476   5.866   2.726   3.838  1.8017  1.2606  1.0057
 3812SOL     OW15477   0.359   0.632   4.767  0.2360  0.4421  0.3099
 3812SOL    HW115478   0.282   0.602   4.815  0.2717 -0.3395 -0.1037
 3812SOL    HW215479   0.347   0.727   4.760 -1.2424  0.2165 -0.6840
 3813SOL     OW15480   2.784   1.982   8.484 -0.5299 -0.1112 -0.1944
 3813SOL    HW115481   2.715   1.950   8.425  1.1283 -0.3238 -2.1446
 3813SOL    HW215482   2.738   2.002   8.566 -2.4743 -2.6600 -0.5307
 3814SOL     OW15483   2.307   4.209   6.163  0.1882  0.6242  0.4054
 3814SOL    HW115484   2.288   4.151   6.237  0.3896  1.2593  0.9671
 3814SOL    HW215485   2.275   4.294   6.191  3.3341  1.6622  1.2071
 3815SOL     OW15486   5.820   2.596   8.174  0.1055  0.1365  0.7533
 3815SOL    HW115487   5.765   2.588   8.252 -0.9264  1.5922  0.2107
 3815SOL    HW215488   5.865   2.680   8.185 -1.0100  0.9875 -0.7725
 3816SOL     OW15489   9.406   8.969   4.788 -0.2280 -0.3449 -0.2734
 3816SOL    HW115490   9.371   8.883   4.810 -0.4519 -0.0916  0.4112
 3816SOL    HW215491   9.464   8.991   4.862  2.5085 -1.3316 -1.9879
 3817SOL     OW15492   8.270   7.091   0.028 -0.3045 -0.1534  0.1992
 3817SOL    HW115493   8.196   7.142   0.061  0.7539  1.7858 -0.2738
 3817SOL    HW215494   8.347   7.130   0.070  0.4913 -2.3003  0.9163
 3818SOL     OW15495   2.200   5.038   0.933  0.1156 -0.4211 -0.0687
 3818SOL    HW115496   2.129   5.072   0.989  0.1198 -0.4528 -0.0439
 3818SOL    HW215497   2.161   4.963   0.888 -0.5855  0.9342 -1.8060
 3819SOL     OW15498   8.214   0.636   6.418  0.1226  0.5196 -0.3723
 3819SOL    HW115499   8.169   0.622   6.501  2.0391 -0.4600  0.5455
 3819SOL    HW215500   8.161   0.703   6.373 -1.9495 -0.2377  0.8225
 3820SOL     OW15501   2.881   4.164   9.832  0.0227  0.2866  0.2760
 3820SOL    HW115502   2.949   4.226   9.804  0.6996 -0.6646 -0.2480
 3820SOL    HW215503   2.906   4.082   9.791 -2.1726  0.1872 -0.9971
 3821SOL     OW15504   5.852   8.226   7.215  0.3054 -0.3083 -0.3842
 3821SOL    HW115505   5.839   8.137   7.247 -0.4198 -1.1076 -2.7115
 3821SOL    HW215506   5.766   8.254   7.184  0.5123  1.2494  0.3420
 3822SOL     OW15507   9.496   1.907   0.905  0.2263 -0.1867 -0.0235
 3822SOL    HW115508   9.561   1.973   0.927  0.8661 -1.3985  2.0276
 3822SOL    HW215509   9.537   1.824   0.929 -2.1017 -1.0051  1.5020
 3823SOL     OW15510   7.740   9.755   3.994 -0.3841 -0.0818  0.3255
 3823SOL    HW115511   7.675   9.702   3.946 -0.6459 -1.5341  2.1732
 3823SOL    HW215512   7.799   9.787   3.926 -1.0421 -1.6193 -1.0532
 3824SOL     OW15513   6.669   4.829   4.963 -0.4466  0.1250 -0.0230
 3824SOL    HW115514   6.634   4.903   5.014 -0.7079 -0.0412  0.0449
 3824SOL    HW215515   6.760   4.851   4.947 -0.1902 -0.0870  1.0367
 3825SOL     OW15516   7.591   3.960   6.583  0.7517  0.3143 -0.1679
 3825SOL    HW115517   7.622   4.046   6.611 -0.0751  0.3388  0.7046
 3825SOL    HW215518   7.665   3.901   6.602  0.0142  0.2025  2.8249
 3826SOL     OW15519   3.681   9.952   2.363 -0.1974  0.3651  0.2840
 3826SOL    HW115520   3.602   9.997   2.392 -0.1279  0.0897  0.9038
 3826SOL    HW215521   3.651   9.893   2.293 -0.5981 -0.0021  0.7632
 3827SOL     OW15522   2.746   6.349   3.895  0.1856  0.3904 -0.2021
 3827SOL    HW115523   2.712   6.438   3.889  1.4369  0.8522 -0.7306
 3827SOL    HW215524   2.825   6.350   3.842  1.9966 -0.1504  2.3278
 3828SOL     OW15525   6.845   4.176   4.196 -0.1153 -0.1065 -0.1373
 3828SOL    HW115526   6.756   4.209   4.191 -0.0066  0.0955 -0.8613
 3828SOL    HW215527   6.880   4.186   4.107 -0.6698 -3.8697 -0.9754
 3829SOL     OW15528   6.448   1.473   3.431  0.2931  0.3232 -0.1326
 3829SOL    HW115529   6.392   1.549   3.447 -0.5805 -0.5474  1.1181
 3829SOL    HW215530   6.537   1.507   3.433 -0.0066  1.0722  2.0122
 3830SOL     OW15531   7.024   8.613   1.720 -0.2424 -0.7897 -0.1656
 3830SOL    HW115532   6.965   8.687   1.705  0.4410  0.0052  0.9214
 3830SOL    HW215533   7.089   8.619   1.650 -0.8868 -1.1161 -0.8103
 3831SOL     OW15534   6.121   3.473  10.289  0.3098  0.1753 -0.0721
 3831SOL    HW115535   6.215   3.462  10.303  0.2421 -0.7964 -0.2826
 3831SOL    HW215536   6.105   3.430  10.205 -0.0153  2.0225 -1.0027
 3832SOL     OW15537   6.561   5.810   3.874 -0.4340 -0.1755  0.1337
 3832SOL    HW115538   6.592   5.873   3.938  0.7738  0.6694 -1.2237
 3832SOL    HW215539   6.496   5.758   3.921 -0.6420  1.3345  1.6063
 3833SOL     OW15540   8.666   1.944   2.022 -0.3755  0.1468  0.5404
 3833SOL    HW115541   8.709   2.010   1.968 -0.0147 -0.9766 -0.5853
 3833SOL    HW215542   8.686   1.861   1.980 -0.1905 -0.7783  2.3437
 3834SOL     OW15543   5.630   1.786   0.136  0.3523  0.0722  0.1873
 3834SOL    HW115544   5.543   1.751   0.155  0.4967 -0.1840  0.3924
 3834SOL    HW215545   5.630   1.874   0.175  0.4775 -0.2636  0.9568
 3835SOL     OW15546   0.848   7.043   0.403 -0.1718 -0.6023  0.5508
 3835SOL    HW115547   0.849   7.009   0.313  3.1839 -0.7379  0.5082
 3835SOL    HW215548   0.890   6.974   0.455  0.9466  0.7899  1.5871
 3836SOL     OW15549   6.293   0.217   7.311 -0.4614  0.0042  0.0117
 3836SOL    HW115550   6.339   0.136   7.332 -1.7878 -0.4886  1.1981
 3836SOL    HW215551   6.252   0.200   7.226  0.5552  0.0467 -0.5112
 3837SOL     OW15552   6.482   6.728   7.225  0.2207 -0.0865  0.1508
 3837SOL    HW115553   6.523   6.791   7.166 -0.1351  0.6194  0.6463
 3837SOL    HW215554   6.514   6.643   7.195 -0.1952  0.2192 -1.2621
 3838SOL     OW15555   6.829   8.081   5.916 -0.6074 -0.3293  0.2256
 3838SOL    HW115556   6.878   8.081   5.835 -1.3091  0.0894 -0.2113
 3838SOL    HW215557   6.891   8.049   5.982 -0.3782 -1.8526 -0.6663
 3839SOL     OW15558   9.743   5.281   8.937  0.0352  0.4888  0.3308
 3839SOL    HW115559   9.681   5.247   9.002 -0.3105 -2.8206 -1.5662
 3839SOL    HW215560   9.694   5.350   8.892 -2.3985 -1.9881 -1.0861
 3840SOL     OW15561   8.178   6.291   1.942 -0.1242 -0.3413 -0.4133
 3840SOL    HW115562   8.147   6.231   2.010  1.0476 -0.7428 -0.2043
 3840SOL    HW215563   8.227   6.235   1.882  1.5571  0.4793  0.1438
 3841SOL     OW15564   0.318   8.341   2.931 -0.3217  1.2651 -0.2162
 3841SOL    HW115565   0.322   8.382   3.018  0.3599  0.8614 -0.0524
 3841SOL    HW215566   0.233   8.368   2.897 -0.8080  1.0387  0.7768
 3842SOL     OW15567   9.094   3.268   9.536  0.1033 -0.0576 -0.0849
 3842SOL    HW115568   9.038   3.191   9.525  1.0940 -0.5012 -2.6534
 3842SOL    HW215569   9.044   3.340   9.499 -0.3295  0.3684  1.2459
 3843SOL     OW15570  10.147   2.799   3.598  0.0532 -0.7383  0.4060
 3843SOL    HW115571  10.082   2.765   3.658  1.5101 -1.9456  1.3574
 3843SOL    HW215572  10.157   2.891   3.623  1.1108 -1.3589  2.5351
 3844SOL     OW15573  10.219   8.519   8.786 -0.3861  0.3354 -0.2596
 3844SOL    HW115574  10.230   8.430   8.755 -1.1980  0.5638 -1.2669
 3844SOL    HW215575  10.281   8.528   8.859 -0.3547 -1.0586 -0.1016
 3845SOL     OW15576   7.791   4.180   0.852 -0.0309 -0.0257 -0.0764
 3845SOL    HW115577   7.807   4.086   0.863 -0.0899  0.0125  0.3544
 3845SOL    HW215578   7.785   4.192   0.757  2.8779  0.0205 -0.3556
 3846SOL     OW15579   7.888   2.725   0.417 -0.2359  0.0417 -0.4780
 3846SOL    HW115580   7.877   2.728   0.512 -1.0614 -0.4860 -0.5471
 3846SOL    HW215581   7.930   2.640   0.400 -1.9292 -0.7855 -0.7302
 3847SOL     OW15582   1.386   1.003   8.204  0.6388  0.6873  0.0205
 3847SOL    HW115583   1.339   0.928   8.168  0.5031  0.5018  0.5738
 3847SOL    HW215584   1.359   1.006   8.296  0.2886  1.6856 -0.1051
 3848SOL     OW15585   6.969   5.048   6.337  0.4323  0.1919 -0.2675
 3848SOL    HW115586   6.945   5.063   6.428  0.0349  1.7146 -0.5980
 3848SOL    HW215587   7.041   4.985   6.341 -1.5451 -2.1359  0.9085
 3849SOL     OW15588   7.939   8.363   8.160 -0.3346  0.1035  0.2209
 3849SOL    HW115589   7.968   8.279   8.193  0.6673  0.7898  1.1521
 3849SOL    HW215590   7.849   8.372   8.192 -0.5095 -0.6664 -0.0309
 3850SOL     OW15591   1.517   3.688   0.455  0.9859  0.4060 -0.2678
 3850SOL    HW115592   1.586   3.746   0.422  0.3267  1.4176  0.0866
 3850SOL    HW215593   1.532   3.685   0.550  0.6141  0.5466 -0.2028
 3851SOL     OW15594   5.407   4.110   8.244 -0.1099 -0.9866  0.4525
 3851SOL    HW115595   5.406   4.143   8.334  0.2736  0.6240 -0.0941
 3851SOL    HW215596   5.451   4.026   8.249  3.7768  0.8878  1.2359
 3852SOL     OW15597   8.194   2.849   9.922 -0.0750  0.1493 -0.5465
 3852SOL    HW115598   8.103   2.876   9.913 -0.3097 -0.8047 -1.1088
 3852SOL    HW215599   8.224   2.893  10.002 -1.3221 -0.3162  0.2021
 3853SOL     OW15600   0.810   2.515   8.188  0.3457  0.2365  0.4023
 3853SOL    HW115601   0.832   2.461   8.112 -1.1055  1.6873 -1.1419
 3853SOL    HW215602   0.865   2.594   8.178 -1.2342  1.2949 -0.2713
 3854SOL     OW15603   2.558   8.610   2.365 -0.5024 -0.0596 -0.1882
 3854SOL    HW115604   2.547   8.705   2.373  0.5530  0.1988 -1.4835
 3854SOL    HW215605   2.573   8.595   2.271 -0.9058 -1.5450 -0.0470
 3855SOL     OW15606   7.827   1.256   9.353 -0.0962 -0.5733 -0.2993
 3855SOL    HW115607   7.863   1.341   9.328 -0.1027 -0.1908  0.9125
 3855SOL    HW215608   7.739   1.255   9.317  0.4051 -0.6823 -1.5645
 3856SOL     OW15609   5.511   2.957   7.941  0.3966  0.3643  0.0419
 3856SOL    HW115610   5.534   3.043   7.977  1.7899  0.5940 -1.3166
 3856SOL    HW215611   5.457   2.976   7.864 -1.0623 -0.0746  0.9113
 3857SOL     OW15612   4.713   7.462   1.170 -0.0678  0.1235 -0.0446
 3857SOL    HW115613   4.803   7.441   1.193 -0.2498  1.8213  2.6949
 3857SOL    HW215614   4.720   7.534   1.106  0.6357  1.7755  1.7824
 3858SOL     OW15615  10.236   3.280   7.792 -0.3603  0.2106  0.0271
 3858SOL    HW115616  10.159   3.331   7.817 -1.0109 -1.0883  0.8424
 3858SOL    HW215617  10.310   3.339   7.802 -1.1356  1.1359  0.3826
 3859SOL     OW15618   0.919   7.017   2.489  0.2744  0.1726 -0.0555
 3859SOL    HW115619   0.826   7.003   2.470  0.1118  0.7917  0.2814
 3859SOL    HW215620   0.924   7.107   2.520  1.0332  0.2328 -0.3430
 3860SOL     OW15621   2.439   1.188   9.872  0.0365  0.1528  0.0508
 3860SOL    HW115622   2.430   1.147   9.786  1.7614 -0.7091  0.2393
 3860SOL    HW215623   2.407   1.121   9.933  1.1157 -0.2280  0.2248
 3861SOL     OW15624   9.444   1.763   4.998 -0.2666  0.5138 -0.2640
 3861SOL    HW115625   9.437   1.820   5.075 -0.5183 -0.9862  0.8737
 3861SOL    HW215626   9.503   1.810   4.939  0.9687  1.1378  1.3862
 3862SOL     OW15627   8.483   0.490   2.817 -0.0322 -0.6429  0.3282
 3862SOL    HW115628   8.579   0.485   2.813  0.0977  0.4292  1.5463
 3862SOL    HW215629   8.465   0.537   2.898 -1.6528 -1.9984  0.8076
 3863SOL     OW15630   1.398   2.329   8.926  0.0266 -0.3071  0.7364
 3863SOL    HW115631   1.444   2.360   8.848  0.8838  2.1498  2.0957
 3863SOL    HW215632   1.348   2.254   8.896  1.1174 -0.0913 -1.9328
 3864SOL     OW15633   8.738   4.450   7.097 -0.1248 -0.2879 -0.0653
 3864SOL    HW115634   8.776   4.530   7.131  0.1301 -0.4277 -0.0226
 3864SOL    HW215635   8.685   4.415   7.169  0.2078 -0.4484  0.1031
 3865SOL     OW15636   4.447   9.012   1.906 -0.3483  0.9446 -0.4611
 3865SOL    HW115637   4.391   9.087   1.928 -1.4326  0.4248 -1.3606
 3865SOL    HW215638   4.527   9.051   1.872 -0.0423  1.7091  1.0735
 3866SOL     OW15639   5.472   8.553   0.352  0.2770  0.0812 -0.0250
 3866SOL    HW115640   5.417   8.476   0.335  0.9462 -0.3661 -0.2132
 3866SOL    HW215641   5.530   8.525   0.423  0.6375  0.3577 -0.2102
 3867SOL     OW15642   0.786   1.102   3.347 -0.3751  0.0715 -0.3100
 3867SOL    HW115643   0.718   1.036   3.361  1.6755 -1.5581  3.6142
 3867SOL    HW215644   0.760   1.175   3.403  1.0485 -0.6188  1.3223
 3868SOL     OW15645   3.068   6.480   5.081 -0.2019 -0.2523  0.0771
 3868SOL    HW115646   2.987   6.478   5.131  0.9233 -1.8914  2.0026
 3868SOL    HW215647   3.134   6.443   5.141  1.9571  0.9509 -1.4162
 3869SOL     OW15648   0.633   1.921   7.906  0.1025  0.0124  0.3448
 3869SOL    HW115649   0.538   1.904   7.903  0.1821 -0.6252  1.2742
 3869SOL    HW215650   0.651   1.966   7.823 -1.1008  0.6025  0.3826
 3870SOL     OW15651   7.579   6.537   5.943 -0.4144 -0.2277 -0.7441
 3870SOL    HW115652   7.522   6.461   5.936 -1.1209  0.2471 -0.2362
 3870SOL    HW215653   7.662   6.502   5.977 -1.4000 -0.5057  1.5887
 3871SOL     OW15654   7.156   5.902   0.710  0.8125 -0.0077  0.2007
 3871SOL    HW115655   7.177   5.913   0.617  0.9053 -1.1070  0.0812
 3871SOL    HW215656   7.215   5.962   0.755  2.3057 -1.0313 -0.3256
 3872SOL     OW15657   7.004   7.427   8.887 -0.8977  0.6923 -0.3882
 3872SOL    HW115658   6.934   7.476   8.932  0.4943 -0.6852  3.7571
 3872SOL    HW215659   7.084   7.451   8.934  0.3610 -2.7768 -0.5046
 3873SOL     OW15660   6.530   4.404   0.952  0.4910  0.2206 -0.2192
 3873SOL    HW115661   6.626   4.398   0.952  0.4771 -0.1430 -0.9201
 3873SOL    HW215662   6.501   4.317   0.980  0.3602 -0.2767 -1.8201
 3874SOL     OW15663   8.760   8.392   8.899  0.2442 -0.1174  0.7608
 3874SOL    HW115664   8.793   8.328   8.962 -0.4794  0.5087  1.8068
 3874SOL    HW215665   8.685   8.349   8.857 -0.8567  0.3721  2.1668
 3875SOL     OW15666   1.537   4.266   5.765  0.1642  0.7829 -0.0715
 3875SOL    HW115667   1.459   4.253   5.711 -0.4476 -2.0410  1.3144
 3875SOL    HW215668   1.503   4.292   5.850  0.8728  1.2590  0.0787
 3876SOL     OW15669   9.652   4.959   6.300 -0.2995 -0.4407 -0.1489
 3876SOL    HW115670   9.625   4.935   6.389 -2.3994 -1.0957 -0.8850
 3876SOL    HW215671   9.628   4.883   6.247 -0.2070  0.4079 -1.4453
 3877SOL     OW15672   1.551   9.534   7.804  0.3393 -0.4014  0.3194
 3877SOL    HW115673   1.553   9.617   7.850  1.0616 -0.1775 -0.1030
 3877SOL    HW215674   1.496   9.477   7.859 -1.4115  0.7751 -0.1417
 3878SOL     OW15675   3.050   7.219   8.795  0.1839 -0.8486  0.1892
 3878SOL    HW115676   3.113   7.196   8.727 -1.1147 -1.1806 -0.9509
 3878SOL    HW215677   2.978   7.262   8.748 -1.2169 -1.9902  1.1897
 3879SOL     OW15678   3.333   8.129   1.183 -0.2099  0.3673  0.0245
 3879SOL    HW115679   3.330   8.104   1.091 -1.7790 -1.5759  0.5240
 3879SOL    HW215680   3.270   8.201   1.190 -0.3977  0.2450 -0.3574
 3880SOL     OW15681   9.459   6.290   7.181 -0.5941 -0.4312 -0.5715
 3880SOL    HW115682   9.550   6.300   7.153  0.2783 -2.2266  1.3053
 3880SOL    HW215683   9.445   6.361   7.244 -0.1625 -0.6853 -0.1793
 3881SOL     OW15684   4.593   1.606   1.290 -0.0101 -0.4107 -0.1678
 3881SOL    HW115685   4.498   1.599   1.288 -0.0106 -0.2900 -0.5857
 3881SOL    HW215686   4.615   1.664   1.217  0.3724 -0.3138  0.0196
 3882SOL     OW15687   5.622   2.462   4.690  0.7025  0.1241  0.6572
 3882SOL    HW115688   5.597   2.484   4.601  2.0822 -1.1751 -0.1038
 3882SOL    HW215689   5.617   2.367   4.693  0.5197  0.1614  2.0251
 3883SOL     OW15690   4.941   0.721   6.234  0.0211  0.1370 -0.2972
 3883SOL    HW115691   4.914   0.803   6.275  1.1016  0.2159  0.3069
 3883SOL    HW215692   5.029   0.739   6.199  0.0232 -0.5858 -0.6956
 3884SOL     OW15693   7.247   6.886   0.799  0.2035  0.6942 -0.6784
 3884SOL    HW115694   7.236   6.978   0.823 -0.2963  1.0183 -2.0948
 3884SOL    HW215695   7.199   6.876   0.717  2.3274 -0.2360 -1.8835
 3885SOL     OW15696   5.358   3.058   2.988 -0.5493 -0.2480  0.5570
 3885SOL    HW115697   5.339   3.144   2.949 -1.4148 -0.3425  0.7403
 3885SOL    HW215698   5.298   3.052   3.062 -0.1775 -0.8240  0.8145
 3886SOL     OW15699   7.419   4.778   4.673 -0.4302 -0.0244 -0.5432
 3886SOL    HW115700   7.450   4.718   4.606  1.3143  0.8036 -0.5302
 3886SOL    HW215701   7.485   4.848   4.676 -0.1567 -0.2654  2.3483
 3887SOL     OW15702   0.870   2.754   3.252  0.2003 -0.3708 -0.6181
 3887SOL    HW115703   0.806   2.738   3.321  0.1855  4.5117  0.8835
 3887SOL    HW215704   0.872   2.673   3.201 -3.9117 -2.2851  1.7912
 3888SOL     OW15705   5.270   4.097  10.042 -0.1216 -0.3811 -0.4856
 3888SOL    HW115706   5.295   4.023   9.985 -2.2794 -1.3906 -0.2470
 3888SOL    HW215707   5.231   4.161   9.982  2.8127  1.2063 -0.8654
 3889SOL     OW15708   6.212   4.429   6.180  0.3382  0.3846  0.0819
 3889SOL    HW115709   6.280   4.457   6.119  1.6308  1.1794  1.8042
 3889SOL    HW215710   6.132   4.427   6.127  1.4751  0.5560 -1.7287
 3890SOL     OW15711   2.549   8.107   9.333  0.8939  0.1445 -0.5172
 3890SOL    HW115712   2.494   8.085   9.409 -1.6982  0.4401 -2.1837
 3890SOL    HW215713   2.639   8.095   9.365 -0.0032  0.9642  2.8086
 3891SOL     OW15714   8.614   3.987   8.280  0.4129 -0.3486  0.1393
 3891SOL    HW115715   8.664   3.944   8.211  0.2031  0.6164 -0.6285
 3891SOL    HW215716   8.527   3.999   8.242  0.3158  0.2499  0.5405
 3892SOL     OW15717   3.671   3.767   0.293 -0.5116  0.2162  0.6042
 3892SOL    HW115718   3.648   3.841   0.237  0.1096  0.9653  1.3214
 3892SOL    HW215719   3.663   3.691   0.235 -0.9574  0.8530 -0.2010
 3893SOL     OW15720   0.860   2.081   9.379  0.3329  0.2953  0.5029
 3893SOL    HW115721   0.914   2.042   9.447 -1.3087  0.3760  1.9292
 3893SOL    HW215722   0.770   2.060   9.404 -0.4686  2.4436 -0.2667
 3894SOL     OW15723   6.068   7.654   9.330 -0.1058 -0.1263 -0.0900
 3894SOL    HW115724   6.146   7.598   9.327  0.0091 -0.2691  2.7692
 3894SOL    HW215725   5.995   7.592   9.334 -0.5235  0.0016 -3.1911
 3895SOL     OW15726   9.565   9.784   8.661 -0.1364 -0.0139 -0.1482
 3895SOL    HW115727   9.576   9.756   8.752  1.3376 -3.3434 -1.1864
 3895SOL    HW215728   9.620   9.862   8.654 -1.1644  1.0116  2.0059
 3896SOL     OW15729   4.488   8.116   1.388 -0.2764  0.0674 -0.1114
 3896SOL    HW115730   4.554   8.092   1.453 -1.8717  0.7821  1.9060
 3896SOL    HW215731   4.432   8.038   1.382 -1.2524  0.6549  0.9129
 3897SOL     OW15732   5.992   7.453   7.284  0.0391  0.1306  0.2630
 3897SOL    HW115733   5.962   7.362   7.279 -1.0907  0.5468 -0.9498
 3897SOL    HW215734   6.072   7.454   7.231  0.5562 -0.3207  1.0025
 3898SOL     OW15735   4.367  10.269   1.499 -0.6841 -0.0655 -0.3280
 3898SOL    HW115736   4.305  10.335   1.468 -1.1961 -0.3798  0.0203
 3898SOL    HW215737   4.343  10.252   1.590  1.0642  1.1376  0.4111
 3899SOL     OW15738   0.834   2.168   2.957  0.1840 -0.2811 -0.1937
 3899SOL    HW115739   0.914   2.145   2.910  0.3231  0.3462 -0.2841
 3899SOL    HW215740   0.787   2.086   2.968 -0.1731 -0.3768 -2.0239
 3900SOL     OW15741   1.742   4.664   1.834  0.0207  0.4987 -0.4816
 3900SOL    HW115742   1.774   4.748   1.870  0.7989 -0.3187  0.8231
 3900SOL    HW215743   1.816   4.629   1.786  0.1269 -0.0193  0.0483
 3901SOL     OW15744   6.395   8.222   0.242 -0.2932  0.2664 -0.2004
 3901SOL    HW115745   6.362   8.134   0.256  1.7978 -0.5580 -0.1064
 3901SOL    HW215746   6.461   8.212   0.173  1.1649  1.4500  0.9645
 3902SOL     OW15747   5.264   0.837  10.049 -0.0222  0.6136 -0.1941
 3902SOL    HW115748   5.340   0.869  10.098 -0.2286 -0.9171  1.2236
 3902SOL    HW215749   5.194   0.899  10.068  0.0038  0.2515  1.2166
 3903SOL     OW15750   9.038   1.622   0.429  0.0340  0.0822 -0.0038
 3903SOL    HW115751   9.120   1.668   0.442 -0.1451  0.4668 -0.2196
 3903SOL    HW215752   8.986   1.679   0.372 -1.1419  0.7680  1.6651
 3904SOL     OW15753   5.993   0.599   4.469 -0.1045  0.0874  0.3465
 3904SOL    HW115754   5.948   0.617   4.552  1.1959  1.4285  0.8140
 3904SOL    HW215755   6.036   0.515   4.484  0.4905  0.5292  1.2246
 3905SOL     OW15756   9.483   3.789   3.865 -0.4043 -0.0369  0.6164
 3905SOL    HW115757   9.514   3.718   3.809  0.8615 -0.2836  1.5782
 3905SOL    HW215758   9.478   3.865   3.807 -1.1436 -0.7433 -0.2787
 3906SOL     OW15759   0.755   6.144   4.884  0.2132  0.1101 -0.3001
 3906SOL    HW115760   0.687   6.114   4.945  0.9783 -0.9463  0.0656
 3906SOL    HW215761   0.798   6.064   4.855  0.3520  0.6633 -1.6635
 3907SOL     OW15762   3.660  10.260   6.106  0.0267  0.5890  0.3961
 3907SOL    HW115763   3.590  10.322   6.088  1.2611  1.2849 -2.6860
 3907SOL    HW215764   3.737  10.315   6.123  0.6968 -0.0930 -0.3718
 3908SOL     OW15765   0.411   4.957   0.369  0.5238  0.4451  0.3729
 3908SOL    HW115766   0.366   4.877   0.394 -0.4357  1.2975  1.5050
 3908SOL    HW215767   0.384   4.974   0.279 -0.1556  0.0908  0.5069
 3909SOL     OW15768   6.761   8.172   6.588  0.3591  0.1883  0.7353
 3909SOL    HW115769   6.851   8.196   6.608  0.4079 -0.5584  1.4974
 3909SOL    HW215770   6.708   8.222   6.650  0.2668  0.4783  0.4200
 3910SOL     OW15771   9.891   0.426   9.503 -0.4128 -0.9668  0.3122
 3910SOL    HW115772   9.836   0.479   9.560  0.9645  1.3107 -0.3494
 3910SOL    HW215773   9.854   0.436   9.416  0.8520  0.4505 -0.1114
 3911SOL     OW15774   0.622   3.740   7.117 -0.0295  0.4623  0.4665
 3911SOL    HW115775   0.656   3.726   7.205  0.2091  0.3972  0.3650
 3911SOL    HW215776   0.643   3.660   7.070 -1.0147  0.1091  0.6119
 3912SOL     OW15777   9.516   2.296   0.867  0.0783  0.0933  1.1692
 3912SOL    HW115778   9.423   2.317   0.862  0.1134 -0.0417 -0.4163
 3912SOL    HW215779   9.557   2.376   0.902 -0.4414  0.7212  0.3589
 3913SOL     OW15780   7.841   9.002   0.595  0.4057 -0.1533 -0.3628
 3913SOL    HW115781   7.923   8.986   0.642  0.5262  0.1522 -0.4682
 3913SOL    HW215782   7.839   9.097   0.581  0.3840 -0.2365 -0.9878
 3914SOL     OW15783   8.550   2.403   8.630 -0.1276  0.0660 -0.2540
 3914SOL    HW115784   8.627   2.349   8.615  0.6704  0.5581  1.7351
 3914SOL    HW215785   8.577   2.465   8.697 -1.7904  1.2938 -0.6472
 3915SOL     OW15786   8.766   3.031   7.170  0.0076  0.2402 -0.2520
 3915SOL    HW115787   8.736   3.081   7.246  2.3741  1.3727  0.0214
 3915SOL    HW215788   8.774   3.096   7.101 -1.4283 -0.6604 -1.3219
 3916SOL     OW15789   4.351   9.605   7.077 -0.3167  0.0831  0.0942
 3916SOL    HW115790   4.388   9.542   7.015 -1.4071 -1.4075  0.8701
 3916SOL    HW215791   4.283   9.650   7.028  0.2206  0.4075 -0.3663
 3917SOL     OW15792   8.305   8.014   1.458 -0.2174  0.1736  0.1428
 3917SOL    HW115793   8.225   8.055   1.424 -0.9802 -0.0242  1.6195
 3917SOL    HW215794   8.301   7.924   1.427 -0.5765  0.1639  0.2105
 3918SOL     OW15795   8.730   1.754   1.126 -0.4655 -0.1874 -0.2356
 3918SOL    HW115796   8.705   1.764   1.218  1.5120  0.4070  0.2913
 3918SOL    HW215797   8.826   1.752   1.128 -0.4116 -1.8825 -2.1316
 3919SOL     OW15798   9.341   6.724   1.107  0.3338  0.3109 -0.0772
 3919SOL    HW115799   9.329   6.653   1.171  2.3442  0.7952  0.9087
 3919SOL    HW215800   9.385   6.682   1.034 -0.5929  0.0791 -0.5167
 3920SOL     OW15801   7.204   3.562   7.528  0.3008  0.6149 -0.1518
 3920SOL    HW115802   7.223   3.504   7.454  0.4540  0.2971  0.1337
 3920SOL    HW215803   7.204   3.504   7.604  0.7048  1.0293  0.1686
 3921SOL     OW15804   4.815   4.694   4.060 -0.0180 -0.0281 -0.7586
 3921SOL    HW115805   4.900   4.650   4.057 -0.0868 -0.1247 -1.8885
 3921SOL    HW215806   4.825   4.768   3.999 -0.1478  1.0855  0.5331
 3922SOL     OW15807   4.937   4.434   9.943  0.0269  0.6495 -0.1113
 3922SOL    HW115808   4.943   4.510   9.885  0.7225  0.5176 -0.2199
 3922SOL    HW215809   5.011   4.444  10.003 -1.1007  1.1800  1.2560
 3923SOL     OW15810   8.149   1.153   8.317 -0.6730 -0.2005  0.2880
 3923SOL    HW115811   8.101   1.075   8.287  0.2950 -0.7817  0.2208
 3923SOL    HW215812   8.124   1.163   8.409  0.2684 -1.4449  0.7089
 3924SOL     OW15813   1.524   8.773   1.971 -0.1087  0.7588  0.2594
 3924SOL    HW115814   1.572   8.824   2.036  3.3208 -1.6386 -0.0728
 3924SOL    HW215815   1.449   8.738   2.018  1.5989  0.0900  2.6827
 3925SOL     OW15816   2.923   9.803   7.281 -0.7002  0.1250  0.3260
 3925SOL    HW115817   2.968   9.762   7.355  1.1784  0.4376 -0.6004
 3925SOL    HW215818   2.890   9.886   7.317  1.3217  0.8960  0.5491
 3926SOL     OW15819   9.852   0.159   4.910  1.2742  0.2963 -0.1447
 3926SOL    HW115820   9.769   0.156   4.959  1.7586 -0.5417  0.6627
 3926SOL    HW215821   9.850   0.243   4.864  1.5171  1.8941  2.5922
 3927SOL     OW15822   4.089   2.399   5.506 -0.0151 -0.9570  0.4391
 3927SOL    HW115823   4.038   2.326   5.473  0.5825 -1.6462  1.0018
 3927SOL    HW215824   4.102   2.456   5.430  0.7873 -2.1887 -0.3793
 3928SOL     OW15825   2.493   6.301   5.482  0.4959  0.1728 -0.6639
 3928SOL    HW115826   2.486   6.269   5.393  0.2568 -1.1580 -0.1807
 3928SOL    HW215827   2.460   6.230   5.537 -0.1089  1.2539  0.4466
 3929SOL     OW15828   8.199   7.322   7.275  0.2646 -0.0118  0.8841
 3929SOL    HW115829   8.219   7.233   7.247 -0.8582 -0.3282  1.0267
 3929SOL    HW215830   8.232   7.378   7.205 -0.0110 -0.6090  0.2750
 3930SOL     OW15831   6.744   1.289   8.462 -0.1866  0.2601 -0.2087
 3930SOL    HW115832   6.714   1.201   8.441 -2.1508  0.5809  0.9771
 3930SOL    HW215833   6.839   1.283   8.463 -0.2846 -1.8807 -0.0324
 3931SOL     OW15834   7.715   1.556   7.978 -0.0581  0.7920 -0.0598
 3931SOL    HW115835   7.750   1.470   8.002  1.8544  0.3683 -3.6188
 3931SOL    HW215836   7.670   1.541   7.895  1.4251  3.3451 -1.4468
 3932SOL     OW15837   1.345   0.373   1.647  0.1798  0.4146  0.2458
 3932SOL    HW115838   1.440   0.379   1.634  0.4077 -1.3824  0.7752
 3932SOL    HW215839   1.319   0.296   1.596 -1.0296  0.9924 -0.0372
 3933SOL     OW15840   2.940   3.908   4.851  0.5647 -0.0338 -0.3280
 3933SOL    HW115841   3.010   3.845   4.868 -0.7903 -0.6649  4.2146
 3933SOL    HW215842   2.984   3.993   4.849  1.7799 -0.6567 -0.6617
 3934SOL     OW15843  10.090   7.334   0.412 -0.1434 -0.3523 -0.3236
 3934SOL    HW115844  10.001   7.369   0.401  0.2982  1.1355  0.4929
 3934SOL    HW215845  10.076   7.245   0.446 -1.3146 -0.6730 -1.5511
 3935SOL     OW15846   3.856   3.235   4.685 -0.4341 -0.0355 -0.4296
 3935SOL    HW115847   3.852   3.159   4.744 -0.9272 -0.5975 -1.1734
 3935SOL    HW215848   3.810   3.304   4.733  0.5170 -0.0126  0.5015
 3936SOL     OW15849   6.751   1.054   9.438 -0.1027  0.0834  0.1201
 3936SOL    HW115850   6.794   1.007   9.510 -1.4422 -0.5755  0.5119
 3936SOL    HW215851   6.821   1.108   9.400  1.2828 -1.5823  0.1867
 3937SOL     OW15852   9.799   6.559   7.675 -0.1612 -0.3865  0.6830
 3937SOL    HW115853   9.834   6.470   7.686  2.7280  0.5814  0.0213
 3937SOL    HW215854   9.799   6.573   7.580  0.6856  0.7662  0.8392
 3938SOL     OW15855   4.734   3.688   7.553 -0.4198 -0.2631  0.4634
 3938SOL    HW115856   4.662   3.735   7.512 -1.8223 -1.1929  1.7465
 3938SOL    HW215857   4.753   3.616   7.492 -1.1774 -0.5166  0.5147
 3939SOL     OW15858   1.262   7.989   2.601 -0.1988 -0.0162 -0.1779
 3939SOL    HW115859   1.288   7.898   2.613 -0.4201  0.1502  1.9363
 3939SOL    HW215860   1.169   7.985   2.578 -0.2441 -0.3248  0.0568
 3940SOL     OW15861   1.357   9.131   6.457 -0.4935 -0.0184 -0.5693
 3940SOL    HW115862   1.369   9.038   6.441 -2.2366 -0.4063  0.0789
 3940SOL    HW215863   1.343   9.169   6.370 -2.1496 -0.7916 -0.6791
 3941SOL     OW15864   9.898   0.135   6.039 -0.0824  0.2551  0.3793
 3941SOL    HW115865   9.819   0.156   6.089 -0.5114 -0.3780 -0.0139
 3941SOL    HW215866   9.933   0.056   6.080  0.6294  0.8092  0.8586
 3942SOL     OW15867   5.031   6.540   0.571 -0.5103 -0.4325 -1.0200
 3942SOL    HW115868   4.940   6.542   0.599  0.0525 -1.4470  1.1726
 3942SOL    HW215869   5.028   6.522   0.477 -2.5589  1.1210 -1.3017
 3943SOL     OW15870   1.287   4.013   3.958  0.1263  0.3014  0.3905
 3943SOL    HW115871   1.352   3.982   4.021 -0.5489 -0.2500  0.8370
 3943SOL    HW215872   1.280   4.107   3.975  0.7516  0.3530  0.3827
 3944SOL     OW15873   9.568   6.913   0.170 -0.9421  0.4847  0.4264
 3944SOL    HW115874   9.555   7.006   0.185 -0.9824  0.1656  2.6403
 3944SOL    HW215875   9.512   6.893   0.094 -0.5650  2.3077 -0.3881
 3945SOL     OW15876   1.500   7.550   3.063 -0.1271  0.1583  0.1963
 3945SOL    HW115877   1.495   7.584   2.973 -0.6802  3.7898  1.4288
 3945SOL    HW215878   1.589   7.569   3.091  0.0050 -0.8391  0.4882
 3946SOL     OW15879   7.353   2.980   2.300  0.0955  0.0713  0.2089
 3946SOL    HW115880   7.428   3.022   2.342  0.0795  0.1968  0.1120
 3946SOL    HW215881   7.385   2.892   2.277  1.1010  0.9726 -2.2321
 3947SOL     OW15882   6.990   5.993   8.662 -0.7792 -0.1446  0.0569
 3947SOL    HW115883   7.001   5.898   8.657 -1.5293 -0.1930 -2.9170
 3947SOL    HW215884   7.001   6.023   8.571  2.7948  3.0922  1.2765
 3948SOL     OW15885   3.482   4.270   4.695  0.1233  0.0728  0.3609
 3948SOL    HW115886   3.535   4.341   4.659  0.1461  0.4948  1.1916
 3948SOL    HW215887   3.533   4.238   4.769  0.0803 -0.7731  0.0307
 3949SOL     OW15888   3.744   3.698   8.096  0.2097  0.0146 -0.1045
 3949SOL    HW115889   3.673   3.699   8.161  0.4426  2.1532  0.1950
 3949SOL    HW215890   3.699   3.705   8.012 -0.0436 -1.7555 -0.1495
 3950SOL     OW15891   8.168   3.169   8.069 -0.5022  1.1731  0.2900
 3950SOL    HW115892   8.247   3.164   8.123 -0.0373  1.3838 -0.3591
 3950SOL    HW215893   8.196   3.140   7.983 -1.6650 -0.9735  0.5834
 3951SOL     OW15894   9.624   7.789   9.633  0.0974 -0.3396  0.4400
 3951SOL    HW115895   9.542   7.808   9.588  0.1263  0.8949  0.8813
 3951SOL    HW215896   9.691   7.803   9.566  0.1405  1.4944  0.8338
 3952SOL     OW15897   0.457   0.798   1.583  0.3205  0.6927  0.0686
 3952SOL    HW115898   0.461   0.734   1.513  1.0462  1.0411 -0.2203
 3952SOL    HW215899   0.494   0.878   1.545  0.4538  0.9694  0.7540
 3953SOL     OW15900   1.767   2.259   8.671  0.5961  0.3115  0.5481
 3953SOL    HW115901   1.744   2.167   8.683 -1.1513  0.6970  0.3225
 3953SOL    HW215902   1.816   2.283   8.750  2.5487 -1.2159 -0.1079
 3954SOL     OW15903   7.592   6.885   1.902  0.2704  0.2968 -0.2337
 3954SOL    HW115904   7.642   6.895   1.983  0.0899  0.1101 -0.0967
 3954SOL    HW215905   7.558   6.972   1.883 -1.1927 -0.0008  0.8749
 3955SOL     OW15906   2.662   4.577   0.605 -0.1707 -1.0236  0.0984
 3955SOL    HW115907   2.714   4.626   0.669  0.7337 -1.2760 -0.4316
 3955SOL    HW215908   2.661   4.632   0.527 -0.7746 -0.9853  0.1276
 3956SOL     OW15909   7.658   4.888   5.527  0.4065 -0.1062 -0.0266
 3956SOL    HW115910   7.723   4.819   5.514 -0.0315 -0.3995 -0.7458
 3956SOL    HW215911   7.677   4.951   5.457  1.1771  0.8124  0.9754
 3957SOL     OW15912   4.209   8.033   1.598 -0.2826  0.8163  0.3985
 3957SOL    HW115913   4.303   8.046   1.605 -0.3518  0.3004  3.4697
 3957SOL    HW215914   4.190   7.961   1.657 -2.4957  0.0918 -1.0607
 3958SOL     OW15915   9.780   5.008   5.714  0.5292 -0.3772  0.2652
 3958SOL    HW115916   9.726   4.954   5.656  1.6638  0.1170 -1.3255
 3958SOL    HW215917   9.846   4.947   5.749  0.8687 -0.3530 -0.3163
 3959SOL     OW15918   0.183   9.453   9.288 -0.0928 -0.4415 -0.3818
 3959SOL    HW115919   0.155   9.466   9.197 -0.7962  0.9823  0.0097
 3959SOL    HW215920   0.249   9.521   9.303 -1.1435  0.3887  0.6375
 3960SOL     OW15921   7.734   5.443   7.733  0.4116  0.0389 -0.1692
 3960SOL    HW115922   7.777   5.474   7.812  1.8601 -0.0656 -0.8871
 3960SOL    HW215923   7.760   5.351   7.726 -1.0780 -0.4328  0.1139
 3961SOL     OW15924   6.074   3.193   0.211 -0.4748 -0.3141  0.7674
 3961SOL    HW115925   6.009   3.217   0.145  0.2070  0.7252  0.4416
 3961SOL    HW215926   6.045   3.237   0.291 -0.7843 -0.7923  0.9221
 3962SOL     OW15927  10.073   8.439   8.350 -0.4699 -0.6680  0.0388
 3962SOL    HW115928   9.983   8.419   8.322 -0.5403  1.2560 -1.2746
 3962SOL    HW215929  10.062   8.501   8.422 -0.1897 -0.9428  0.3198
 3963SOL     OW15930   0.445   4.093   2.154 -0.0204 -0.1645 -0.2307
 3963SOL    HW115931   0.390   4.062   2.082  0.8475  1.1215 -1.5084
 3963SOL    HW215932   0.385   4.103   2.227 -1.2761  0.1022 -1.2528
 3964SOL     OW15933   5.628   5.116   9.876 -0.9594 -0.5524  0.3291
 3964SOL    HW115934   5.701   5.080   9.928  0.5459 -0.7512 -1.8021
 3964SOL    HW215935   5.595   5.189   9.930 -0.8571 -1.9912  2.4817
 3965SOL     OW15936   6.152   6.031   0.580  0.4705  0.2919 -0.2967
 3965SOL    HW115937   6.119   5.990   0.660 -1.2535  1.9418 -0.0886
 3965SOL    HW215938   6.245   6.045   0.597  0.3304 -0.2276  1.0443
 3966SOL     OW15939   9.490   8.263   4.300 -0.4365 -0.0086  0.2986
 3966SOL    HW115940   9.412   8.208   4.303  0.6322 -1.6846 -0.9484
 3966SOL    HW215941   9.468   8.332   4.237 -0.7096 -0.8720 -0.5876
 3967SOL     OW15942   5.047   9.041   9.971  0.2795 -0.1320  0.6088
 3967SOL    HW115943   4.972   8.984   9.988  0.0882  0.4935  1.9006
 3967SOL    HW215944   5.010   9.114   9.922  0.5367 -1.0876 -1.1126
 3968SOL     OW15945   9.639   1.691   9.498  0.2378  0.4829 -0.3346
 3968SOL    HW115946   9.705   1.654   9.440  1.5568  1.1393  0.7079
 3968SOL    HW215947   9.584   1.616   9.522  0.0014  0.0994 -1.9442
 3969SOL     OW15948   4.571   7.199   7.443 -0.0549  0.4664 -0.0349
 3969SOL    HW115949   4.647   7.221   7.389  1.5786 -0.5751  1.7138
 3969SOL    HW215950   4.595   7.229   7.531 -2.0370  0.8249  0.4353
 3970SOL     OW15951   4.330   1.864   8.837  0.2784  0.4709  0.0084
 3970SOL    HW115952   4.368   1.790   8.789 -0.2927  0.3135 -0.2139
 3970SOL    HW215953   4.251   1.887   8.788 -0.1106  0.5569  0.6544
 3971SOL     OW15954   7.741   5.676   2.569 -0.5404 -0.4182  0.0387
 3971SOL    HW115955   7.747   5.673   2.473 -3.7854  0.1489 -0.2823
 3971SOL    HW215956   7.806   5.742   2.594  1.8251 -1.9932 -1.4919
 3972SOL     OW15957   1.464   2.767  10.292  0.2961  0.0710  0.1699
 3972SOL    HW115958   1.439   2.804  10.208  2.1563 -0.6394 -0.7361
 3972SOL    HW215959   1.400   2.697  10.307 -0.4362  0.6187 -0.3125
 3973SOL     OW15960   0.834   9.054   4.969  0.6974 -0.3527  0.3552
 3973SOL    HW115961   0.879   9.130   4.931  2.6500 -0.6868  1.8356
 3973SOL    HW215962   0.795   9.088   5.050 -0.0231 -0.5288  0.0870
 3974SOL     OW15963   4.375   2.988   7.109 -0.1852  0.0708 -0.3881
 3974SOL    HW115964   4.291   2.964   7.146  0.1613 -0.9584 -0.2445
 3974SOL    HW215965   4.363   3.078   7.079 -0.5334  0.9001  2.0260
 3975SOL     OW15966   5.032   9.050   2.815  0.0080 -0.1074 -0.0032
 3975SOL    HW115967   4.951   9.070   2.769 -1.6849 -1.8956  2.0078
 3975SOL    HW215968   5.048   9.126   2.871 -1.7356 -0.7700  1.4586
 3976SOL     OW15969   6.004   8.287  10.145  0.6262  0.5237 -0.4945
 3976SOL    HW115970   5.992   8.331  10.229  0.7765 -0.9372  0.3317
 3976SOL    HW215971   6.000   8.194  10.167  2.7856  0.0703 -1.7687
 3977SOL     OW15972   2.730   9.471   1.941  0.5341 -0.1105  0.5654
 3977SOL    HW115973   2.693   9.523   2.013  0.1969 -1.5058  1.4345
 3977SOL    HW215974   2.685   9.387   1.947 -0.6864  0.2266 -2.2887
 3978SOL     OW15975   4.374   5.627   6.688 -0.1649  0.1992  0.2641
 3978SOL    HW115976   4.430   5.565   6.641 -1.2086 -0.7843  0.2669
 3978SOL    HW215977   4.428   5.659   6.760  1.2288  1.1990 -1.1483
 3979SOL     OW15978   4.679   5.907   5.720 -0.1124  0.0704 -0.3723
 3979SOL    HW115979   4.767   5.900   5.683  0.3707 -0.7664  0.8536
 3979SOL    HW215980   4.654   5.998   5.704  0.4064 -0.0277 -1.9338
 3980SOL     OW15981   0.012   1.098   3.875  0.2363  0.1795 -0.7053
 3980SOL    HW115982   0.023   1.185   3.912 -0.5252  0.7968 -1.8436
 3980SOL    HW215983   0.086   1.047   3.908  0.2386  1.0135  0.6439
 3981SOL     OW15984   2.481   6.520   5.676 -0.0244  0.1821  0.6072
 3981SOL    HW115985   2.499   6.429   5.652 -1.2493 -0.2505  1.1810
 3981SOL    HW215986   2.421   6.552   5.608 -0.5190  0.1669  1.0242
 3982SOL     OW15987   0.060   3.855   6.403  0.6938 -0.3063  0.4033
 3982SOL    HW115988   0.026   3.915   6.469 -0.2250 -0.2816 -0.0793
 3982SOL    HW215989  -0.018   3.818   6.361  1.2281 -1.7948  0.6369
 3983SOL     OW15990   1.958   8.417   3.807  0.3339  0.1888  0.6280
 3983SOL    HW115991   2.039   8.368   3.802 -0.8728 -1.8593 -0.2806
 3983SOL    HW215992   1.964   8.467   3.888  1.8783 -1.0423  1.3107
 3984SOL     OW15993   5.880   8.105   9.344 -0.1629  0.6342 -0.1096
 3984SOL    HW115994   5.974   8.088   9.340 -0.3562 -1.4674  2.0800
 3984SOL    HW215995   5.839   8.022   9.320 -1.4963  1.5018 -0.9833
 3985SOL     OW15996   6.343   7.167   2.214 -0.3040  0.2896 -0.4046
 3985SOL    HW115997   6.430   7.143   2.182 -0.5122  0.4942 -1.1477
 3985SOL    HW215998   6.332   7.259   2.186 -1.1232 -0.0154 -1.1446
 3986SOL     OW15999   7.450   7.680   6.981 -0.2694 -0.3615  0.0962
 3986SOL    HW116000   7.439   7.647   6.892 -0.0206 -1.5243  0.4920
 3986SOL    HW216001   7.531   7.640   7.012  1.1576  2.1712 -0.0848
 3987SOL     OW16002   8.384   1.052   6.864 -0.4597 -0.8252  0.6777
 3987SOL    HW116003   8.445   1.117   6.830  1.5270 -0.9683  3.6598
 3987SOL    HW216004   8.307   1.059   6.807  1.8417  0.1253 -2.5835
 3988SOL     OW16005   6.664   1.920   7.794 -0.1534 -0.2419 -0.0333
 3988SOL    HW116006   6.742   1.870   7.817  1.1172  1.3452 -0.7570
 3988SOL    HW216007   6.620   1.868   7.727  0.2440 -1.1563  0.4039
 3989SOL     OW16008   1.608   3.744   5.371  0.4792 -0.0925 -0.2535
 3989SOL    HW116009   1.523   3.731   5.331  0.3703 -1.1912  0.2948
 3989SOL    HW216010   1.589   3.787   5.455  0.6308  1.3308 -0.9187
 3990SOL     OW16011   8.930   7.563   2.078  0.6034  0.6249  0.3982
 3990SOL    HW116012   8.944   7.521   1.993  1.8301 -2.1416  1.8333
 3990SOL    HW216013   8.883   7.498   2.130 -2.5669  3.2340  1.1578
 3991SOL     OW16014   2.361   2.401   6.079  0.2564 -0.1399 -0.2583
 3991SOL    HW116015   2.266   2.409   6.068  0.2879 -0.1658 -0.5563
 3991SOL    HW216016   2.385   2.327   6.024  0.3659 -0.5267  0.2947
 3992SOL     OW16017   1.731   0.462   6.707  0.6296  0.5903  0.1461
 3992SOL    HW116018   1.704   0.496   6.792 -0.3508 -0.1287  0.1349
 3992SOL    HW216019   1.773   0.378   6.725 -1.3481 -0.5244 -0.2066
 3993SOL     OW16020   2.570   3.062   7.538  0.0797 -0.3785 -0.2257
 3993SOL    HW116021   2.591   3.153   7.518 -2.5775  0.6432  1.2076
 3993SOL    HW216022   2.632   3.038   7.607 -0.0581  0.7884  0.3280
 3994SOL     OW16023   9.859   6.439   3.880 -0.2735 -0.0176 -0.8253
 3994SOL    HW116024   9.908   6.518   3.861 -0.5235  0.2271 -0.4681
 3994SOL    HW216025   9.923   6.379   3.920 -0.7745  1.2554  2.1569
 3995SOL     OW16026   2.598   8.413   0.553 -0.0458  0.2958 -0.4282
 3995SOL    HW116027   2.641   8.445   0.632 -1.6560 -2.0179  1.5487
 3995SOL    HW216028   2.535   8.481   0.530  0.2586  0.8753  0.4181
 3996SOL     OW16029   5.177   4.786   9.523 -0.5885  0.2274 -0.2102
 3996SOL    HW116030   5.267   4.796   9.492 -0.0233  1.6452  1.6966
 3996SOL    HW216031   5.185   4.738   9.605 -1.5681  0.3576 -0.0270
 3997SOL     OW16032  10.152   9.167   2.746  0.4689 -0.1396  0.0556
 3997SOL    HW116033  10.141   9.101   2.677  0.4073 -0.4900  0.3948
 3997SOL    HW216034  10.150   9.251   2.700 -0.5819 -0.3168 -0.2483
 3998SOL     OW16035   6.934   0.655   8.213 -0.1164 -0.2281 -0.4688
 3998SOL    HW116036   6.998   0.634   8.281 -1.5290 -1.1193  0.6459
 3998SOL    HW216037   6.872   0.583   8.216 -0.9822  0.4358 -1.7593
 3999SOL     OW16038   9.585   9.766   6.614 -0.8972  0.5681 -0.2064
 3999SOL    HW116039   9.646   9.754   6.687 -1.6311  0.2791  0.3773
 3999SOL    HW216040   9.634   9.818   6.550 -0.0009  0.2319  0.1862
 4000SOL     OW16041   3.863   5.653   5.299  0.5928  0.1436  0.0907
 4000SOL    HW116042   3.802   5.679   5.368 -0.2950 -1.3632 -0.0659
 4000SOL    HW216043   3.847   5.715   5.228 -1.3624 -0.6568 -0.2339
 4001SOL     OW16044   7.326   2.027   7.381  0.1536 -0.0770  0.3059
 4001SOL    HW116045   7.394   2.093   7.394  0.9381 -0.7685 -0.2184
 4001SOL    HW216046   7.369   1.958   7.330 -1.5481  0.4712 -2.0197
 4002SOL     OW16047   2.096   8.012   7.409 -0.2956  0.5856  0.2044
 4002SOL    HW116048   2.150   8.086   7.437 -1.2418  1.6133 -0.5697
 4002SOL    HW216049   2.139   7.980   7.330 -0.3214  0.8389  0.0855
 4003SOL     OW16050   3.814   9.058   7.044 -0.1454 -0.1085 -0.5798
 4003SOL    HW116051   3.845   9.121   7.109 -0.3302  0.8968 -1.4361
 4003SOL    HW216052   3.893   9.014   7.014  0.1113  0.4166 -0.6832
 4004SOL     OW16053   5.138   3.326   9.229  0.4050 -0.3965  0.2741
 4004SOL    HW116054   5.180   3.403   9.191 -1.0040  0.5361  0.5403
 4004SOL    HW216055   5.171   3.322   9.319  2.4088 -1.6080 -0.4428
 4005SOL     OW16056   8.781   3.357   3.491 -0.1050  0.0672  0.6867
 4005SOL    HW116057   8.698   3.349   3.537 -0.6870 -0.2296 -0.3921
 4005SOL    HW216058   8.761   3.332   3.401  1.1195  0.1447  0.3807
 4006SOL     OW16059  10.252   0.084   0.454  0.1413 -0.0305  0.0056
 4006SOL    HW116060  10.343   0.108   0.473  0.0913  0.6736 -0.6102
 4006SOL    HW216061  10.204   0.167   0.457 -0.1658 -0.1372 -1.4622
 4007SOL     OW16062   3.685   2.341   6.052 -0.3081  0.2817  0.5306
 4007SOL    HW116063   3.720   2.252   6.055  0.3653  0.4985 -0.2995
 4007SOL    HW216064   3.610   2.335   5.992 -1.6762 -0.1598  2.2206
 4008SOL     OW16065   6.992   8.980   7.391 -0.3828 -0.4130  0.4210
 4008SOL    HW116066   6.983   9.041   7.465 -0.2515 -0.9603  0.8984
 4008SOL    HW216067   7.083   8.950   7.397  0.5609  1.7155 -1.7005
 4009SOL     OW16068   9.911   5.726   2.098  0.6444  1.6076  0.4909
 4009SOL    HW116069   9.906   5.658   2.165 -2.0753 -0.2801 -1.3928
 4009SOL    HW216070   9.970   5.690   2.032 -0.1135  1.4349 -0.1072
 4010SOL     OW16071   1.132   8.384   0.346 -0.1707  0.2703  0.4994
 4010SOL    HW116072   1.211   8.437   0.336 -0.2234  1.4171  4.4031
 4010SOL    HW216073   1.068   8.443   0.385 -1.3449 -1.7987  1.9306
 4011SOL     OW16074  10.165   9.011   7.325  0.4683  0.0565  0.6547
 4011SOL    HW116075  10.141   9.103   7.310  0.7866 -0.0411 -0.4970
 4011SOL    HW216076  10.116   8.962   7.259 -1.3001 -0.8643  2.5129
 4012SOL     OW16077   2.966   1.449   4.402  0.2783  0.1389  0.3755
 4012SOL    HW116078   2.938   1.371   4.449  1.6737  0.3201  1.5903
 4012SOL    HW216079   3.009   1.503   4.468 -0.2768  1.7573 -0.5232
 4013SOL     OW16080   9.315   3.977   8.353  0.8542 -0.2630  0.1195
 4013SOL    HW116081   9.311   4.065   8.317 -0.9154 -0.8456 -1.2343
 4013SOL    HW216082   9.386   3.935   8.304 -0.0607 -0.3625 -1.1843
 4014SOL     OW16083   8.817   8.293   4.433  0.0768 -0.6963 -0.2211
 4014SOL    HW116084   8.735   8.248   4.452  0.9589 -1.2697  2.6764
 4014SOL    HW216085   8.875   8.225   4.399  0.7306 -1.4008  2.1270
 4015SOL     OW16086   0.076   4.090   8.240  0.3225  0.0202  0.1124
 4015SOL    HW116087   0.137   4.018   8.224  1.3875  1.0186 -0.4043
 4015SOL    HW216088   0.122   4.146   8.302 -1.7053 -1.2197  2.9840
 4016SOL     OW16089   2.785   6.876   0.066 -0.4416 -0.2284 -0.2817
 4016SOL    HW116090   2.691   6.888   0.079 -0.2319  0.2436  0.8941
 4016SOL    HW216091   2.825   6.950   0.112  0.5910 -1.5837  1.0535
 4017SOL     OW16092   0.029   4.710   7.094  0.0196  0.3862  0.8304
 4017SOL    HW116093   0.023   4.754   7.179 -3.4079 -1.1474  1.5622
 4017SOL    HW216094  -0.062   4.701   7.065  1.0108  0.1957 -2.7253
 4018SOL     OW16095   7.099   3.605   2.500  0.3967 -0.3500  0.4435
 4018SOL    HW116096   7.182   3.634   2.463  0.7632 -3.5119 -1.5386
 4018SOL    HW216097   7.115   3.515   2.528 -2.2598 -0.9000  0.4120
 4019SOL     OW16098   6.300   2.178   6.694  0.5014 -0.2774 -0.5141
 4019SOL    HW116099   6.385   2.155   6.657  1.5233  2.8114 -0.3346
 4019SOL    HW216100   6.311   2.163   6.788 -0.0428 -2.1653 -0.6949
 4020SOL     OW16101   7.822   4.951   7.145 -0.6080  0.4860 -0.2717
 4020SOL    HW116102   7.866   4.906   7.073 -1.6379 -0.1559 -0.5123
 4020SOL    HW216103   7.893   4.970   7.207  0.2273  0.6871 -1.2534
 4021SOL     OW16104   2.508   9.455   8.539 -0.3034  0.0471  0.3677
 4021SOL    HW116105   2.517   9.507   8.619  2.8134  1.8192 -0.9369
 4021SOL    HW216106   2.446   9.504   8.485 -0.8333 -0.0389  0.8934
 4022SOL     OW16107   4.481   8.976   1.190  0.1597  0.1218  0.0177
 4022SOL    HW116108   4.473   9.003   1.282 -0.1458  0.8097 -0.2069
 4022SOL    HW216109   4.508   9.055   1.143  0.2306 -0.2044 -0.5021
 4023SOL     OW16110   2.361   2.820   6.234 -0.0186 -0.6830 -0.0848
 4023SOL    HW116111   2.305   2.743   6.245 -1.2702  0.3968  1.7246
 4023SOL    HW216112   2.408   2.827   6.317  1.3577 -0.4335 -0.8537
 4024SOL     OW16113  10.229   8.690   6.956 -0.5302  0.1090 -0.0992
 4024SOL    HW116114  10.148   8.650   6.988 -0.4106  0.3542  0.5298
 4024SOL    HW216115  10.241   8.653   6.869 -1.0472 -0.3213  0.0041
 4025SOL     OW16116   5.970   2.774   4.159  0.4804 -0.1460 -0.3990
 4025SOL    HW116117   6.033   2.718   4.112  2.1228  0.7148  0.6872
 4025SOL    HW216118   5.917   2.813   4.090  1.5464 -0.4213 -1.4064
 4026SOL     OW16119   4.335   8.432   1.526 -0.0962  0.5453 -0.3218
 4026SOL    HW116120   4.324   8.355   1.471 -0.8693  0.8039 -0.5481
 4026SOL    HW216121   4.295   8.408   1.609  0.1257  0.5169 -0.2257
 4027SOL     OW16122   6.891  10.086   8.377 -0.3535  0.2967 -0.1969
 4027SOL    HW116123   6.815  10.086   8.435 -0.0051 -1.4990  0.3070
 4027SOL    HW216124   6.947  10.017   8.410  1.3819  1.3655 -0.7651
 4028SOL     OW16125   3.691   6.953   0.360  0.0256  0.3658 -0.4500
 4028SOL    HW116126   3.656   6.864   0.373  4.0255 -1.1666  1.5834
 4028SOL    HW216127   3.641   6.988   0.286 -3.0108 -2.8123 -0.1783
 4029SOL     OW16128   0.712   9.458   0.334 -0.0295 -0.0269  0.0205
 4029SOL    HW116129   0.772   9.400   0.380 -0.3787 -1.9099 -1.7695
 4029SOL    HW216130   0.735   9.448   0.242  0.0201  2.8869 -0.3842
 4030SOL     OW16131   7.497   4.127  10.258  0.6322  0.3377  0.7637
 4030SOL    HW116132   7.458   4.040  10.250  3.6717 -1.0222 -1.0294
 4030SOL    HW216133   7.455   4.164  10.335 -1.0449 -2.5755  1.4345
 4031SOL     OW16134   6.902   4.501   0.750 -0.4561  0.4252 -0.1012
 4031SOL    HW116135   6.850   4.482   0.673  0.6069 -1.1859 -0.4725
 4031SOL    HW216136   6.983   4.540   0.716  0.1135 -0.5030  0.1578
 4032SOL     OW16137   9.548   4.705   2.375  0.2656  0.1400 -0.7698
 4032SOL    HW116138   9.620   4.697   2.312 -0.0572  0.3273 -1.1675
 4032SOL    HW216139   9.473   4.666   2.330  0.2826 -0.7166 -0.0775
 4033SOL     OW16140   9.940   0.873   6.388  0.6925  0.6645 -0.1066
 4033SOL    HW116141  10.024   0.886   6.431  1.0611 -0.0566 -0.6062
 4033SOL    HW216142   9.959   0.817   6.314 -0.3841 -0.2897  0.3108
 4034SOL     OW16143   1.731   9.066   3.629 -0.1030  0.3017  0.2461
 4034SOL    HW116144   1.656   9.040   3.576  0.0056  0.7912 -0.1494
 4034SOL    HW216145   1.718   9.021   3.713 -0.5278 -0.0837 -0.0246
 4035SOL     OW16146   1.899   7.191   5.738 -0.3392  0.3323  0.0520
 4035SOL    HW116147   1.941   7.140   5.807 -1.6229  1.5146  1.8098
 4035SOL    HW216148   1.822   7.140   5.714  2.0520 -2.0422 -3.4654
 4036SOL     OW16149   2.201   2.879   7.526 -0.0115 -0.0331 -0.8602
 4036SOL    HW116150   2.281   2.826   7.519 -0.6145 -0.8981 -1.3065
 4036SOL    HW216151   2.143   2.827   7.581  0.2496  1.2697  0.7308
 4037SOL     OW16152   1.411   6.502   0.202 -0.0020  0.1012 -0.4680
 4037SOL    HW116153   1.413   6.430   0.265  0.7657 -0.7350 -1.4251
 4037SOL    HW216154   1.407   6.581   0.257 -1.0110 -0.6477  0.5905
 4038SOL     OW16155  10.063   7.543   7.310  0.1701  0.1749  0.1867
 4038SOL    HW116156  10.116   7.477   7.355 -0.6408 -0.0083  0.9182
 4038SOL    HW216157  10.077   7.624   7.359  0.4786  0.3386 -0.1709
 4039SOL     OW16158   9.904   4.030   8.717  0.0053 -0.0138 -0.6002
 4039SOL    HW116159   9.826   3.978   8.736  0.2372 -0.2272 -0.2110
 4039SOL    HW216160   9.878   4.120   8.737  0.2683 -0.2348  0.9023
 4040SOL     OW16161   1.881   1.359   8.463  0.2208  0.2770 -0.1677
 4040SOL    HW116162   1.790   1.365   8.492  0.4019  0.2133  0.4291
 4040SOL    HW216163   1.932   1.354   8.544  0.5867 -2.4449 -0.4469
 4041SOL     OW16164   9.222   8.207   5.851  0.4271  0.2619 -0.3961
 4041SOL    HW116165   9.275   8.280   5.883  0.4986  1.2855 -2.6755
 4041SOL    HW216166   9.134   8.243   5.843  0.6126  0.3815 -2.2525
 4042SOL     OW16167   0.112   1.054   1.541 -0.3429 -0.4124  0.4474
 4042SOL    HW116168   0.143   1.044   1.451  0.5914  2.2941  0.4064
 4042SOL    HW216169   0.075   0.968   1.563  0.3352 -1.4450 -2.1361
 4043SOL     OW16170   5.525   8.394   6.210 -0.3971 -0.2657  0.0867
 4043SOL    HW116171   5.488   8.407   6.123 -0.1062  1.1335  0.1524
 4043SOL    HW216172   5.606   8.345   6.194 -1.4714 -2.0376 -0.1865
 4044SOL     OW16173   6.405   9.042   0.967 -0.0637  0.4078  0.2644
 4044SOL    HW116174   6.348   9.004   1.034  0.9169  0.5875  1.2340
 4044SOL    HW216175   6.349   9.052   0.890 -1.5235  1.2831  1.4050
 4045SOL     OW16176   4.717   2.771   3.129 -0.1599  0.3134 -0.0627
 4045SOL    HW116177   4.768   2.786   3.049  1.2554 -1.1632  0.5146
 4045SOL    HW216178   4.644   2.716   3.100  1.0278 -1.2607 -0.1726
 4046SOL     OW16179   4.547   2.934   5.518 -0.3850  0.1977  0.2538
 4046SOL    HW116180   4.527   2.922   5.425 -0.7044 -0.8642  0.4499
 4046SOL    HW216181   4.639   2.911   5.525 -0.3680  0.2497  0.2100
 4047SOL     OW16182   7.719   1.261   8.122 -0.1472 -0.2264  0.1104
 4047SOL    HW116183   7.624   1.255   8.128 -0.2267  1.7320  2.6527
 4047SOL    HW216184   7.741   1.213   8.042 -3.2358 -0.7174 -0.5884
 4048SOL     OW16185   2.887   3.731   7.078 -0.1424 -0.5750 -0.0993
 4048SOL    HW116186   2.872   3.642   7.109  0.4008 -0.2286  1.2268
 4048SOL    HW216187   2.869   3.786   7.154 -1.0406  0.5103 -1.0559
 4049SOL     OW16188   8.372   9.398   3.694 -0.0561 -0.0701  0.1688
 4049SOL    HW116189   8.330   9.434   3.616 -0.0352  2.1914  1.1187
 4049SOL    HW216190   8.394   9.308   3.670 -1.1458  0.1675 -1.9853
 4050SOL     OW16191   0.049   0.182   1.382 -0.3145 -0.1778  0.8574
 4050SOL    HW116192   0.089   0.157   1.299 -1.4553  0.8216 -0.0340
 4050SOL    HW216193   0.008   0.267   1.365  0.4103  0.6185  2.7791
 4051SOL     OW16194   9.824   2.557   2.663 -0.2499 -0.3501  0.0152
 4051SOL    HW116195   9.892   2.559   2.731 -1.0820  1.0918  0.8581
 4051SOL    HW216196   9.811   2.464   2.645 -0.2719 -0.8188  2.1419
 4052SOL     OW16197   3.302  10.091   6.757 -0.5577  0.1410  0.4783
 4052SOL    HW116198   3.310   9.998   6.778  0.3016  0.0397 -0.2771
 4052SOL    HW216199   3.357  10.135   6.822  1.3243 -0.1056 -0.8634
 4053SOL     OW16200   6.012   3.116   9.251 -0.1181  0.1409  0.6898
 4053SOL    HW116201   6.038   3.024   9.245 -1.2930 -0.2318  0.9957
 4053SOL    HW216202   6.057   3.150   9.328  1.6784  0.3091 -0.3885
 4054SOL     OW16203   5.560   4.548  10.187 -0.0073 -0.1839 -0.8535
 4054SOL    HW116204   5.529   4.463  10.157 -0.7983 -0.4330  0.5927
 4054SOL    HW216205   5.495   4.577  10.251  0.5130  1.2838 -0.9357
 4055SOL     OW16206   8.605   1.852   4.912  0.0066 -0.0285 -0.4458
 4055SOL    HW116207   8.512   1.869   4.926 -0.3310 -0.9955 -1.3858
 4055SOL    HW216208   8.624   1.892   4.827  0.1337 -0.9008 -0.8410
 4056SOL     OW16209   9.196   5.338   7.018 -0.8091 -0.5425  0.2816
 4056SOL    HW116210   9.138   5.407   7.050  0.6159  0.2628  1.2598
 4056SOL    HW216211   9.188   5.342   6.923 -0.4296  1.3056  0.2804
 4057SOL     OW16212   4.324   3.862   3.296  0.4124  0.1481  0.3454
 4057SOL    HW116213   4.253   3.829   3.352  0.3589 -0.5321 -0.1220
 4057SOL    HW216214   4.392   3.890   3.358 -0.6447  1.7701  0.8544
 4058SOL     OW16215   1.613   9.831   7.394  0.3331 -0.1970  0.3422
 4058SOL    HW116216   1.582   9.808   7.306 -0.1417  1.0072  0.1761
 4058SOL    HW216217   1.573   9.765   7.451 -1.9040  0.7967  0.0299
 4059SOL     OW16218   0.768   8.690   3.971  0.0589 -0.1961  0.2352
 4059SOL    HW116219   0.694   8.659   3.919  0.2153  0.9030 -0.6739
 4059SOL    HW216220   0.823   8.612   3.984 -0.7342 -0.7934  0.0510
 4060SOL     OW16221   8.492   8.442   3.968  0.2326  0.7254 -0.5383
 4060SOL    HW116222   8.575   8.465   3.927  0.8643  0.8547  0.7609
 4060SOL    HW216223   8.433   8.514   3.947  1.4132  2.2987  1.2101
 4061SOL     OW16224   7.103   2.104   4.280  0.0509 -0.5146 -0.3627
 4061SOL    HW116225   7.132   2.048   4.352 -1.9162 -0.8024  0.2887
 4061SOL    HW216226   7.179   2.157   4.257  1.4330 -2.1663  0.2389
 4062SOL     OW16227   5.859   6.439   1.174 -0.0122 -0.3727 -0.0298
 4062SOL    HW116228   5.880   6.469   1.262  0.8503 -1.2111  0.0648
 4062SOL    HW216229   5.836   6.518   1.126 -0.7632  0.0654  1.0154
 4063SOL     OW16230   7.329   6.833   5.474 -0.5922  0.0370  0.0127
 4063SOL    HW116231   7.342   6.909   5.531  2.8096 -1.8947  2.1761
 4063SOL    HW216232   7.242   6.800   5.498  0.3819 -0.2719  3.8236
 4064SOL     OW16233   8.236   2.586   0.401  0.1678 -0.3918 -0.3689
 4064SOL    HW116234   8.158   2.539   0.373 -0.0733  0.2860 -0.8563
 4064SOL    HW216235   8.285   2.522   0.454  0.3195 -1.4990 -1.7911
 4065SOL     OW16236   3.637   5.832   3.739 -0.3458 -0.7459  0.1140
 4065SOL    HW116237   3.681   5.848   3.655 -0.4915  1.2527  0.3589
 4065SOL    HW216238   3.707   5.838   3.804 -0.8904  3.3709  0.5969
 4066SOL     OW16239   2.109   9.753  10.180 -0.0264 -0.4169 -0.4774
 4066SOL    HW116240   2.134   9.713  10.263  2.7264 -1.4441 -1.6861
 4066SOL    HW216241   2.047   9.691  10.141 -1.0906 -0.0759  0.6237
 4067SOL     OW16242   4.444   1.989   5.991 -0.2832 -1.1558  0.0055
 4067SOL    HW116243   4.522   1.986   6.047 -0.6670 -0.6587  0.5912
 4067SOL    HW216244   4.379   2.037   6.044 -1.7573 -3.5255  0.5200
 4068SOL     OW16245   0.472   2.242   8.168  0.4013 -0.7336 -0.5004
 4068SOL    HW116246   0.501   2.297   8.241 -1.0695 -0.7052  0.1103
 4068SOL    HW216247   0.499   2.289   8.090 -0.1291  0.4944  0.0250
 4069SOL     OW16248   5.181   5.714   0.479 -0.0819 -0.3004 -0.4689
 4069SOL    HW116249   5.090   5.703   0.505 -0.5493 -0.6372 -2.1569
 4069SOL    HW216250   5.206   5.800   0.513 -1.0392 -0.1784 -0.0513
 4070SOL     OW16251   8.936   4.780   6.703 -0.2581  0.2425  0.5311
 4070SOL    HW116252   8.884   4.733   6.638 -0.2203  0.2588  0.4892
 4070SOL    HW216253   8.897   4.867   6.708 -0.1561  0.2940  0.4089
 4071SOL     OW16254   8.381   7.480   7.767 -0.2896 -0.5595  0.1462
 4071SOL    HW116255   8.367   7.427   7.688  0.6327 -0.0931 -0.3548
 4071SOL    HW216256   8.474   7.467   7.787 -0.8466 -1.9580  2.1224
 4072SOL     OW16257   8.433   1.338   0.464 -0.6268 -0.7427 -0.1109
 4072SOL    HW116258   8.357   1.394   0.449 -0.4916 -0.6612 -0.5045
 4072SOL    HW216259   8.503   1.379   0.412 -0.6106 -1.4557 -0.6574
 4073SOL     OW16260   4.890   4.769   8.290 -0.6174  0.2994 -0.6447
 4073SOL    HW116261   4.965   4.712   8.309 -0.7262 -0.1049 -1.3845
 4073SOL    HW216262   4.895   4.838   8.356 -0.7252 -0.7949  0.5615
 4074SOL     OW16263   1.133   8.751   0.070 -0.5001 -0.5327 -0.3142
 4074SOL    HW116264   1.109   8.671   0.022 -1.3983 -1.0824  1.0158
 4074SOL    HW216265   1.210   8.726   0.121 -0.8756 -0.6067  0.2234
 4075SOL     OW16266   0.422  10.239   7.551 -0.2437 -0.3390  0.4860
 4075SOL    HW116267   0.350  10.218   7.610 -0.1840  0.2014  0.7559
 4075SOL    HW216268   0.383  10.295   7.484 -0.3175 -0.9683 -0.0126
 4076SOL     OW16269   3.334   9.293   0.192 -0.2708  0.2551  0.5292
 4076SOL    HW116270   3.425   9.307   0.168 -0.0462 -3.1671 -1.2513
 4076SOL    HW216271   3.285   9.362   0.147  1.2382  0.8422 -0.2541
 4077SOL     OW16272   9.272   2.256   5.221  0.0259 -1.2296 -0.6018
 4077SOL    HW116273   9.223   2.298   5.292 -0.3253 -2.1523 -0.2763
 4077SOL    HW216274   9.230   2.171   5.210  0.6529 -1.4615 -1.3060
 4078SOL     OW16275   3.629   5.458   6.294 -0.0349  0.0866 -0.0596
 4078SOL    HW116276   3.646   5.429   6.384 -0.2007  0.3453  0.0613
 4078SOL    HW216277   3.555   5.519   6.303 -1.4820 -1.5006 -0.6321
 4079SOL     OW16278   2.487   5.404  10.215 -0.4507  0.6908 -0.2979
 4079SOL    HW116279   2.431   5.471  10.252  0.6645  0.4539  2.0005
 4079SOL    HW216280   2.532   5.447  10.142 -1.2309  1.8271 -0.1178
 4080SOL     OW16281   9.614   8.867   3.529 -0.1552 -0.6207  0.3486
 4080SOL    HW116282   9.679   8.876   3.599  0.4417 -1.7802 -0.0170
 4080SOL    HW216283   9.581   8.777   3.539 -1.0597 -0.3361 -0.0169
 4081SOL     OW16284   5.299   0.867   0.591  0.1927 -0.2389  0.2288
 4081SOL    HW116285   5.347   0.784   0.600  2.0234  0.7597  0.1586
 4081SOL    HW216286   5.208   0.840   0.574  0.9080 -2.2429 -0.8131
 4082SOL     OW16287   2.585   8.352   0.239 -0.0120 -0.5382  0.1611
 4082SOL    HW116288   2.583   8.376   0.331  1.4049  0.6538 -0.0966
 4082SOL    HW216289   2.670   8.382   0.207 -0.1109 -1.6988 -1.3403
 4083SOL     OW16290   9.661   0.685   8.405 -0.1420 -0.3011 -0.4333
 4083SOL    HW116291   9.694   0.631   8.477  1.3765  1.3804  0.2025
 4083SOL    HW216292   9.703   0.650   8.327  2.6876  1.2509  0.2539
 4084SOL     OW16293   2.501   0.089   1.033  0.0732  0.2478 -0.2641
 4084SOL    HW116294   2.540   0.002   1.038 -2.1787 -0.8901 -1.0125
 4084SOL    HW216295   2.549   0.134   0.965  1.2785 -0.3906  0.1459
 4085SOL     OW16296   8.861   6.890   3.696 -0.1888 -0.1008  0.2808
 4085SOL    HW116297   8.798   6.916   3.628  0.8053  0.7173 -0.3590
 4085SOL    HW216298   8.881   6.799   3.676 -0.5356 -0.1150 -0.0161
 4086SOL     OW16299   3.714   2.018   0.718 -0.2942 -0.6426  0.2483
 4086SOL    HW116300   3.665   2.088   0.762 -0.5010 -0.6581  0.0394
 4086SOL    HW216301   3.712   1.945   0.779 -1.7873 -1.1504 -0.3722
 4087SOL     OW16302   3.308   0.136   8.191  0.4296 -0.1669 -0.2530
 4087SOL    HW116303   3.219   0.108   8.173 -0.0514  1.5216 -0.6313
 4087SOL    HW216304   3.315   0.136   8.287  0.1583 -0.6562 -0.2317
 4088SOL     OW16305   0.288   3.144   8.043  0.5684 -0.8021 -0.1047
 4088SOL    HW116306   0.349   3.101   8.103  0.2313  0.3061  1.0953
 4088SOL    HW216307   0.251   3.216   8.095 -2.3910 -1.9368 -0.4934
 4089SOL     OW16308   9.920   8.992   9.056 -0.1908 -0.4957  0.6978
 4089SOL    HW116309   9.930   9.034   8.970 -2.8904 -0.6709  0.2020
 4089SOL    HW216310   9.936   9.063   9.119 -0.9868  0.3771 -0.0416
 4090SOL     OW16311   8.834   2.637   1.919  0.3602 -0.3217  0.3292
 4090SOL    HW116312   8.755   2.585   1.901  0.4634 -0.8705  1.3767
 4090SOL    HW216313   8.900   2.601   1.860  0.0812 -0.5025  0.1255
 4091SOL     OW16314   9.831   1.122   3.482 -0.1715 -0.0569  0.7645
 4091SOL    HW116315   9.756   1.179   3.499  0.3847  0.7292  0.6310
 4091SOL    HW216316   9.865   1.153   3.398 -0.3494 -1.1259  0.2805
 4092SOL     OW16317   9.100   4.618   9.710 -0.6831 -0.3604 -0.1906
 4092SOL    HW116318   9.163   4.551   9.683  0.6565  0.6980  0.2367
 4092SOL    HW216319   9.018   4.569   9.723  0.1145 -1.8207 -0.4082
 4093SOL     OW16320   6.751   4.804   5.976 -0.8067 -0.5802 -0.1278
 4093SOL    HW116321   6.825   4.838   6.026 -0.9363  0.2960 -0.5163
 4093SOL    HW216322   6.787   4.730   5.927  0.2194  0.7739 -1.4976
 4094SOL     OW16323   0.789   5.611   5.516 -0.0973 -0.3355  0.2365
 4094SOL    HW116324   0.776   5.583   5.607 -0.5891 -0.7969  0.0300
 4094SOL    HW216325   0.861   5.674   5.521  0.5505 -1.0917  0.8164
 4095SOL     OW16326   2.938   8.208   0.301  0.3059  0.6199 -0.4595
 4095SOL    HW116327   3.028   8.175   0.299 -0.3538 -1.2559 -1.5190
 4095SOL    HW216328   2.935   8.264   0.379  1.6876 -1.4504  1.2092
 4096SOL     OW16329   7.524   2.201   5.332 -0.5062 -0.3174 -0.0143
 4096SOL    HW116330   7.593   2.264   5.310 -1.2153  1.3910  2.2058
 4096SOL    HW216331   7.564   2.115   5.320  0.8086  0.5220 -2.2639
 4097SOL     OW16332   6.635   7.282   9.782  0.1934  0.6062 -0.2752
 4097SOL    HW116333   6.638   7.193   9.746 -1.0149  1.1722 -1.9385
 4097SOL    HW216334   6.543   7.295   9.805 -0.2976  2.3275 -2.7415
 4098SOL     OW16335   9.923   9.566   7.211 -0.5019  0.1087  0.3583
 4098SOL    HW116336   9.962   9.618   7.281 -0.0354  0.0376  0.1587
 4098SOL    HW216337   9.991   9.562   7.144 -1.8022  2.3616 -1.2420
 4099SOL     OW16338   9.787   4.104   4.542 -0.4065  0.0761  0.1627
 4099SOL    HW116339   9.857   4.162   4.574  1.2740 -1.1988 -0.9932
 4099SOL    HW216340   9.751   4.151   4.467  1.3707 -0.5575 -1.1601
 4100SOL     OW16341   4.998   0.475   3.991  0.1700  0.0754  0.1085
 4100SOL    HW116342   4.964   0.467   3.902 -0.0843  1.6817  0.0298
 4100SOL    HW216343   4.990   0.568   4.011 -1.6823 -0.5180  2.5727
 4101SOL     OW16344   4.786   9.511   3.984 -0.3784  0.2732 -0.0518
 4101SOL    HW116345   4.858   9.448   3.992  1.0880  2.0093  1.4124
 4101SOL    HW216346   4.827   9.587   3.941 -1.0921  1.5931  1.5134
 4102SOL     OW16347   3.995   7.024   5.846 -0.3404  0.2479 -0.4724
 4102SOL    HW116348   4.004   6.929   5.839 -0.4884  0.2981 -1.6180
 4102SOL    HW216349   3.900   7.038   5.851 -0.2796  0.2778  1.1354
 4103SOL     OW16350   3.420   5.635   3.897 -0.1343 -0.1134 -0.0045
 4103SOL    HW116351   3.398   5.629   3.804  0.8374  1.1553 -0.3502
 4103SOL    HW216352   3.478   5.560   3.913  0.2075  0.0201 -0.5916
 4104SOL     OW16353   5.310   2.137   4.153 -0.5795  0.5594  0.3050
 4104SOL    HW116354   5.250   2.074   4.113 -0.0225  0.5108 -0.4718
 4104SOL    HW216355   5.257   2.216   4.165 -0.4676  0.9982 -1.6915
 4105SOL     OW16356   8.555   5.884   1.858 -0.3992 -0.2541 -0.1102
 4105SOL    HW116357   8.581   5.960   1.805  0.2016  0.8574  1.6540
 4105SOL    HW216358   8.563   5.809   1.799  1.1959  0.7854 -1.3090
 4106SOL     OW16359   6.150   4.659   6.611 -0.3253  0.4692 -0.4128
 4106SOL    HW116360   6.062   4.621   6.605 -1.2062  2.3668 -0.1549
 4106SOL    HW216361   6.203   4.606   6.552 -1.1456 -2.0029  0.9191
 4107SOL     OW16362   6.135   5.657  10.253  0.3171 -0.1135  0.1596
 4107SOL    HW116363   6.227   5.652  10.226  0.4140 -0.8754  0.5950
 4107SOL    HW216364   6.126   5.588  10.319 -0.5422  0.0271  0.1968
 4108SOL     OW16365   8.191   3.682   0.749 -0.5303 -0.5980 -0.0554
 4108SOL    HW116366   8.241   3.683   0.831  0.0382 -2.3186 -0.3318
 4108SOL    HW216367   8.236   3.745   0.693  0.4710 -1.0380  0.2147
 4109SOL     OW16368   4.737   2.191   7.515  0.5763  0.4818 -0.0446
 4109SOL    HW116369   4.779   2.211   7.432  1.9220 -1.5900  0.0478
 4109SOL    HW216370   4.806   2.201   7.580 -0.5546  2.4748  0.9530
 4110SOL     OW16371   4.383   0.956   4.729  0.0160 -0.1441  0.0353
 4110SOL    HW116372   4.402   0.870   4.691  0.9635 -0.4361  1.0973
 4110SOL    HW216373   4.296   0.947   4.767 -0.4540 -0.2002 -1.0242
 4111SOL     OW16374   0.437   5.878  10.011  0.4230  0.1879 -0.1042
 4111SOL    HW116375   0.506   5.891  10.076  1.7817  0.8864 -1.6281
 4111SOL    HW216376   0.483   5.875   9.927 -1.4081  0.6752 -1.1793
 4112SOL     OW16377   8.444   9.545   8.605 -0.0738  0.4675 -0.0446
 4112SOL    HW116378   8.470   9.595   8.682  0.0320 -1.4201  1.2145
 4112SOL    HW216379   8.361   9.584   8.577  0.7508  2.3052 -0.0924
 4113SOL     OW16380   4.530   3.258  10.089  0.2934 -0.6111  0.2667
 4113SOL    HW116381   4.475   3.326  10.128 -0.1144 -0.8829  0.1776
 4113SOL    HW216382   4.522   3.184  10.148 -0.4902 -1.0932 -0.4122
 4114SOL     OW16383   2.001   6.403   2.764  0.2823 -0.4620 -0.0017
 4114SOL    HW116384   1.992   6.485   2.715 -0.0786 -0.5786 -0.1332
 4114SOL    HW216385   1.995   6.335   2.697  0.5697 -0.5989  0.1091
 4115SOL     OW16386   9.145   2.691   5.483 -0.0230  0.1986  0.7545
 4115SOL    HW116387   9.093   2.686   5.563 -1.2133 -0.6072 -0.0289
 4115SOL    HW216388   9.120   2.612   5.434  1.5675  0.0644  0.1100
 4116SOL     OW16389   3.767   6.525   8.956  0.2555 -0.4237  0.7311
 4116SOL    HW116390   3.805   6.579   9.026  0.7066  0.2380 -0.0096
 4116SOL    HW216391   3.815   6.442   8.963  2.3616  0.5943 -0.5674
 4117SOL     OW16392   8.817   9.102   9.429  0.5418  0.1352  0.6075
 4117SOL    HW116393   8.823   9.173   9.493  1.1532 -0.3124  1.0570
 4117SOL    HW216394   8.735   9.118   9.383 -0.5197 -0.1946  2.3097
 4118SOL     OW16395   4.209   3.155   9.189  0.4267  0.3555 -0.1738
 4118SOL    HW116396   4.178   3.237   9.151 -1.1907 -0.2202 -0.1610
 4118SOL    HW216397   4.298   3.175   9.221 -0.5444  2.5824  1.3639
 4119SOL     OW16398   8.132   5.253   1.256  0.3783 -0.2251  0.2467
 4119SOL    HW116399   8.153   5.221   1.169 -0.3762 -1.6719  0.5651
 4119SOL    HW216400   8.036   5.255   1.258  0.3805 -0.6156  1.1686
 4120SOL     OW16401   4.268   8.842   5.377 -0.2265 -0.3604 -0.0198
 4120SOL    HW116402   4.301   8.866   5.463  0.4691 -1.4895  0.0564
 4120SOL    HW216403   4.211   8.767   5.393  0.7531 -1.2634 -0.6313
 4121SOL     OW16404   4.109   4.122   6.156 -0.1361  0.0022  0.3476
 4121SOL    HW116405   4.053   4.198   6.171 -0.6055 -0.4352  0.8535
 4121SOL    HW216406   4.163   4.117   6.236  0.8609  0.6131 -0.2688
 4122SOL     OW16407   9.264   5.941   9.963  0.0952  0.2358  0.1976
 4122SOL    HW116408   9.287   5.941  10.055  3.1808 -0.5069 -0.4500
 4122SOL    HW216409   9.274   5.849   9.936 -0.1753  0.5398 -0.9963
 4123SOL     OW16410   4.321   1.045   4.414  0.3742 -0.0770 -0.0489
 4123SOL    HW116411   4.395   1.079   4.365  1.3834  0.1219  1.5646
 4123SOL    HW216412   4.358   0.978   4.472 -0.4283  0.9198  1.7237
 4124SOL     OW16413   9.209   9.047   3.396  0.3591 -0.3508 -0.4624
 4124SOL    HW116414   9.266   9.039   3.319  0.8492  0.7104 -0.2198
 4124SOL    HW216415   9.185   8.956   3.417  2.8856 -0.9733  0.1054
 4125SOL     OW16416   3.012   2.518   8.538  0.0645  0.0600  0.2481
 4125SOL    HW116417   3.101   2.517   8.575  0.2297  1.0139 -0.0795
 4125SOL    HW216418   2.998   2.429   8.505  0.7541 -0.2024  0.6524
 4126SOL     OW16419   1.198   1.670   0.488  0.2520 -0.0645 -0.5573
 4126SOL    HW116420   1.116   1.706   0.521  0.7680 -0.6012  1.4656
 4126SOL    HW216421   1.179   1.644   0.398 -1.2589  1.4785 -0.7315
 4127SOL     OW16422   0.432   7.495   3.003  0.6404  0.1279 -0.0222
 4127SOL    HW116423   0.439   7.400   2.997  0.9124  0.0725  0.9816
 4127SOL    HW216424   0.339   7.513   2.996  0.3548 -0.4003  1.7961
 4128SOL     OW16425   1.403   1.625   4.464  0.4794 -0.3564  0.2015
 4128SOL    HW116426   1.441   1.538   4.477 -1.4262 -1.1491  0.9054
 4128SOL    HW216427   1.371   1.650   4.551 -0.1418  0.4821 -0.2581
 4129SOL     OW16428   3.626   7.382   1.728  0.3518 -0.5679  0.1148
 4129SOL    HW116429   3.721   7.391   1.739  0.5802 -1.2745 -1.0102
 4129SOL    HW216430   3.588   7.439   1.794  1.5683 -0.0341  0.3848
 4130SOL     OW16431   4.368   4.915   0.933 -0.6802 -0.8453 -0.2472
 4130SOL    HW116432   4.304   4.986   0.933 -0.8503 -0.9453  1.9637
 4130SOL    HW216433   4.434   4.943   0.869  0.0031  2.0210  1.5480
 4131SOL     OW16434   1.587   1.809   2.258 -0.0832 -0.1578 -0.1203
 4131SOL    HW116435   1.616   1.750   2.189  0.5951 -2.4596  1.9955
 4131SOL    HW216436   1.665   1.860   2.281  0.0865 -0.4483 -0.0504
 4132SOL     OW16437   6.000   0.605   9.182 -0.2601  0.4169 -0.0044
 4132SOL    HW116438   6.000   0.574   9.272 -0.5083  0.3681 -0.0188
 4132SOL    HW216439   5.912   0.642   9.170  0.5374  2.6323  0.5222
 4133SOL     OW16440   2.197   6.595   8.245  0.1403 -0.8423 -0.3436
 4133SOL    HW116441   2.257   6.590   8.320  0.5747  1.0772 -0.5119
 4133SOL    HW216442   2.248   6.559   8.172  0.5903 -0.4925 -0.2046
 4134SOL     OW16443   9.582   5.583   3.530 -0.1582 -0.4974  0.8579
 4134SOL    HW116444   9.498   5.626   3.548  0.1939  0.0670  1.2040
 4134SOL    HW216445   9.622   5.573   3.617 -0.6629 -2.4596  0.9031
 4135SOL     OW16446   7.981   9.617   6.780 -1.0440  0.4725  0.3249
 4135SOL    HW116447   7.940   9.703   6.790 -0.3233  0.8917 -0.2118
 4135SOL    HW216448   8.023   9.621   6.694  0.3053  0.1448  0.9406
 4136SOL     OW16449   5.491   1.742   1.528 -0.4014  0.1631 -0.2452
 4136SOL    HW116450   5.414   1.794   1.554 -0.1130  0.4345  0.0764
 4136SOL    HW216451   5.487   1.665   1.584  0.0260  0.5819  0.3751
 4137SOL     OW16452   1.021   7.971   0.069  0.6334  0.4056 -0.2160
 4137SOL    HW116453   1.005   7.951  -0.023 -0.4406 -1.4996  0.3342
 4137SOL    HW216454   0.954   8.036   0.091 -1.4121 -1.6429  0.0193
 4138SOL     OW16455   7.466   8.137   9.209 -0.0471  0.0168 -0.2940
 4138SOL    HW116456   7.393   8.161   9.152  0.6303 -2.4676 -2.4239
 4138SOL    HW216457   7.454   8.189   9.288 -2.6796  1.5201 -1.5715
 4139SOL     OW16458   2.784   1.083   3.351 -0.9931 -0.1351  0.4095
 4139SOL    HW116459   2.690   1.092   3.338 -1.0846 -0.0950  1.0602
 4139SOL    HW216460   2.810   1.165   3.394 -0.0625  1.3616 -2.7329
 4140SOL     OW16461   7.173   1.673   7.259 -0.0089  0.4729 -0.4735
 4140SOL    HW116462   7.182   1.595   7.205 -1.0077  0.4880 -0.6765
 4140SOL    HW216463   7.259   1.716   7.254 -0.6309  1.6342 -3.8733
 4141SOL     OW16464   5.087   3.521   6.787  0.3456  0.1934 -0.1517
 4141SOL    HW116465   5.000   3.495   6.817 -0.2178  0.7161 -1.2541
 4141SOL    HW216466   5.145   3.451   6.816 -0.7624 -1.1483 -1.0616
 4142SOL     OW16467   7.535   4.967   8.791  0.0462  0.4667  0.2159
 4142SOL    HW116468   7.521   4.881   8.831  0.6810 -0.0413 -0.6140
 4142SOL    HW216469   7.594   4.950   8.718  0.7693  1.7349  0.4823
 4143SOL     OW16470   7.772   0.343  10.215  0.0154 -0.0831  0.0450
 4143SOL    HW116471   7.856   0.389  10.204  0.0207  0.2014  1.1470
 4143SOL    HW216472   7.711   0.391  10.160 -0.0518  1.4968  1.3991
 4144SOL     OW16473   0.315   5.238   5.933  0.0347 -0.5733  0.5068
 4144SOL    HW116474   0.262   5.167   5.969  1.0136 -0.8274  1.5374
 4144SOL    HW216475   0.405   5.208   5.945  0.4489  0.5502  0.3329
 4145SOL     OW16476   9.106   2.298   1.074 -0.0155  0.1720 -0.6099
 4145SOL    HW116477   9.061   2.286   0.991 -0.1075 -0.3977 -0.4787
 4145SOL    HW216478   9.052   2.362   1.121 -0.1791  0.1940 -0.8249
 4146SOL     OW16479   7.160   5.355   1.833  0.0610  0.7413 -0.1973
 4146SOL    HW116480   7.130   5.425   1.776 -0.6303  2.0713  1.6969
 4146SOL    HW216481   7.098   5.355   1.906  1.9410  0.4019  1.4991
 4147SOL     OW16482   3.898   5.691   2.414  0.3404  0.1457 -0.3636
 4147SOL    HW116483   3.884   5.784   2.430  0.6547  0.1130  0.1123
 4147SOL    HW216484   3.838   5.647   2.474 -0.7665  0.0409 -1.5031
 4148SOL     OW16485   7.964   6.256   0.096 -0.2767 -0.1301  0.7804
 4148SOL    HW116486   7.921   6.171   0.104  2.2158 -1.5199  0.4593
 4148SOL    HW216487   7.955   6.278   0.003  0.2849 -0.7328  0.5819
 4149SOL     OW16488   6.822   5.619   8.547 -0.5116  0.2529 -0.2074
 4149SOL    HW116489   6.806   5.677   8.622  0.8613  1.5090 -0.8468
 4149SOL    HW216490   6.734   5.601   8.512 -1.3773 -1.6452  2.5467
 4150SOL     OW16491   4.269   3.200   6.968 -0.6841  0.3193 -0.1244
 4150SOL    HW116492   4.216   3.135   6.924 -0.7040  0.7165 -0.6946
 4150SOL    HW216493   4.283   3.269   6.903 -1.9584  1.6240  0.9181
 4151SOL     OW16494  10.256   4.867   9.002 -0.1029  0.2976  0.2918
 4151SOL    HW116495  10.166   4.843   8.980 -0.0571  0.7468 -0.4117
 4151SOL    HW216496  10.308   4.838   8.927  0.0991  1.5795 -0.0859
 4152SOL     OW16497   9.179   3.317   1.290 -0.1975  0.3391  0.1566
 4152SOL    HW116498   9.200   3.239   1.238 -0.7095 -1.7928  2.8857
 4152SOL    HW216499   9.264   3.351   1.317  0.0510  1.1323 -1.5340
 4153SOL     OW16500   3.507   8.730   9.665  0.1983 -0.3708  0.4751
 4153SOL    HW116501   3.594   8.769   9.673 -0.1052  0.5362 -0.4304
 4153SOL    HW216502   3.448   8.805   9.653 -0.7526 -0.9489  1.3558
 4154SOL     OW16503   4.062   2.339   9.551 -0.2855  0.1926  0.6321
 4154SOL    HW116504   4.066   2.323   9.457 -1.0597  0.6897  0.4976
 4154SOL    HW216505   3.981   2.297   9.580  0.0038 -0.0561  1.1016
 4155SOL     OW16506   7.537   0.645   1.943 -0.6459  0.2110 -0.1376
 4155SOL    HW116507   7.508   0.554   1.949  1.3449 -0.5185 -0.7326
 4155SOL    HW216508   7.574   0.664   2.029  1.5912 -0.5779 -0.8535
 4156SOL     OW16509   3.715   9.243   8.799  0.0837  0.8393 -0.4849
 4156SOL    HW116510   3.640   9.238   8.859  0.8051 -0.4443  0.3467
 4156SOL    HW216511   3.722   9.336   8.778 -0.5772  1.2453  0.9440
 4157SOL     OW16512   9.280   5.222   0.078 -0.1564  0.1849 -0.3828
 4157SOL    HW116513   9.286   5.249   0.170 -1.5614 -1.4264  0.2419
 4157SOL    HW216514   9.369   5.233   0.044  0.2736  1.2982  1.0248
 4158SOL     OW16515   9.993   5.433   7.636  0.2796 -0.1379 -0.5314
 4158SOL    HW116516   9.922   5.412   7.696 -0.1856  0.3469 -0.9080
 4158SOL    HW216517  10.006   5.528   7.647  1.3701 -0.3387  0.0798
 4159SOL     OW16518   1.613   2.745   1.936  0.0433 -0.2079 -0.5490
 4159SOL    HW116519   1.591   2.784   2.021  0.2030  0.6757 -0.8969
 4159SOL    HW216520   1.602   2.651   1.948 -1.1620 -0.0011  0.0981
 4160SOL     OW16521   9.125   9.709   4.981  0.0245 -0.3014 -0.8209
 4160SOL    HW116522   9.104   9.648   4.910 -0.7388 -1.2461  0.1819
 4160SOL    HW216523   9.170   9.781   4.937 -1.7641 -0.1121 -2.5240
 4161SOL     OW16524   6.168   9.615   3.169  0.2644  0.4104 -0.4169
 4161SOL    HW116525   6.174   9.675   3.095  0.2234  1.4190  0.3725
 4161SOL    HW216526   6.240   9.640   3.227 -0.2828  0.2982  0.3420
 4162SOL     OW16527   7.069   6.177   8.151  0.0235  0.0531 -0.1130
 4162SOL    HW116528   6.995   6.223   8.110 -1.2393 -0.6272  1.3187
 4162SOL    HW216529   7.141   6.240   8.145 -0.3802  0.4283 -2.3064
 4163SOL     OW16530   9.255   7.310   2.192 -0.2690  0.0501  0.5102
 4163SOL    HW116531   9.240   7.402   2.170 -0.6658 -0.4487 -1.4762
 4163SOL    HW216532   9.171   7.281   2.229  0.0137  0.5775  1.6269
 4164SOL     OW16533   3.780   1.559   7.936  0.4917  0.3294 -0.0392
 4164SOL    HW116534   3.856   1.554   7.879  1.2736  1.6609  0.8342
 4164SOL    HW216535   3.779   1.476   7.983  0.5722 -0.2613 -1.0514
 4165SOL     OW16536   5.149   0.634  10.242 -0.2935  0.0096 -0.1444
 4165SOL    HW116537   5.190   0.549  10.225  0.0690 -0.2860  1.9026
 4165SOL    HW216538   5.154   0.681  10.159  1.7535 -1.0459 -0.6661
 4166SOL     OW16539   5.654   2.569   1.871 -0.1458 -0.0625  0.4531
 4166SOL    HW116540   5.731   2.513   1.865 -0.9750 -1.2524  0.4873
 4166SOL    HW216541   5.689   2.658   1.877  1.2040 -0.2989 -2.3003
 4167SOL     OW16542   2.556   0.295   5.860 -0.6480  0.1312 -0.2234
 4167SOL    HW116543   2.481   0.288   5.801 -1.5924  1.0075  0.8400
 4167SOL    HW216544   2.534   0.240   5.935  0.6841 -1.2245 -0.7519
 4168SOL     OW16545   8.393   5.229   2.706 -0.1196  0.4560 -0.1578
 4168SOL    HW116546   8.411   5.173   2.631  0.5476  0.7703 -0.2381
 4168SOL    HW216547   8.473   5.226   2.758 -0.7459 -0.1626  0.8152
 4169SOL     OW16548   6.150   7.912   8.082 -0.5913  0.2310  0.1072
 4169SOL    HW116549   6.056   7.903   8.068 -0.4958 -1.6333  0.4057
 4169SOL    HW216550   6.169   8.003   8.060 -2.2059  0.2474 -1.4077
 4170SOL     OW16551   0.950   9.709   2.113  0.5928  0.2352 -1.0059
 4170SOL    HW116552   0.903   9.787   2.083  1.1854  0.1065 -2.3241
 4170SOL    HW216553   1.030   9.744   2.152  0.1507  0.3568 -0.1677
 4171SOL     OW16554   6.795   9.632   8.355  0.3033 -0.6786 -0.5698
 4171SOL    HW116555   6.799   9.559   8.416  0.3637  0.5741  0.9867
 4171SOL    HW216556   6.722   9.685   8.385  2.0176  1.4270  0.1997
 4172SOL     OW16557   2.818   2.667   3.573  0.2291  0.3677  0.0199
 4172SOL    HW116558   2.774   2.742   3.533 -1.1520  1.0540  2.6196
 4172SOL    HW216559   2.780   2.591   3.529 -0.2466  1.1098 -0.8760
 4173SOL     OW16560   7.134   2.765   5.950 -0.6324  0.0703  0.2282
 4173SOL    HW116561   7.129   2.672   5.930 -1.7538  0.0204  0.6494
 4173SOL    HW216562   7.064   2.805   5.897 -0.0479  0.6999 -0.0867
 4174SOL     OW16563   3.118   0.590   8.653  0.1579  0.0150  0.2465
 4174SOL    HW116564   3.131   0.553   8.566  1.4887 -0.0408  0.4490
 4174SOL    HW216565   3.182   0.661   8.659 -0.2777  0.3575  0.9966
 4175SOL     OW16566   1.603   1.643  10.193  0.2261 -0.5436 -0.0829
 4175SOL    HW116567   1.625   1.648  10.100 -1.5764  0.4568 -0.5007
 4175SOL    HW216568   1.606   1.549  10.212  1.6518 -0.6848 -0.8613
 4176SOL     OW16569   5.498   8.442   1.620 -0.1744 -0.1947  0.1445
 4176SOL    HW116570   5.526   8.531   1.641 -0.0342 -0.2684  0.2778
 4176SOL    HW216571   5.405   8.439   1.644 -0.0573 -0.2287  0.6162
 4177SOL     OW16572   7.116   1.815   0.155  0.3521 -0.2238  0.6059
 4177SOL    HW116573   7.022   1.832   0.142  0.4572 -0.1936 -0.1581
 4177SOL    HW216574   7.126   1.722   0.137  0.3448 -0.4019  1.4759
 4178SOL     OW16575   0.812   1.615   9.896 -0.3911  0.3250  0.1635
 4178SOL    HW116576   0.895   1.578   9.868 -1.1961  0.3417 -2.5278
 4178SOL    HW216577   0.835   1.698   9.938  0.9922 -0.2840  0.6680
 4179SOL     OW16578   1.426   4.207   9.407  0.2841  0.6933 -0.3914
 4179SOL    HW116579   1.362   4.233   9.474 -0.3108  2.2779 -1.4942
 4179SOL    HW216580   1.418   4.112   9.402 -1.8086  0.8128 -0.2770
 4180SOL     OW16581   2.130   9.221   4.181  0.7530 -0.9144  0.1688
 4180SOL    HW116582   2.215   9.263   4.165  0.5231 -0.8346 -0.9374
 4180SOL    HW216583   2.074   9.255   4.111  0.1465 -1.9132  0.1651
 4181SOL     OW16584   5.565   9.283   1.723 -0.4050 -0.1832  0.5090
 4181SOL    HW116585   5.615   9.279   1.642 -0.6680 -0.8374  0.3740
 4181SOL    HW216586   5.626   9.256   1.791 -0.0317  0.8817  0.6058
 4182SOL     OW16587   4.146   9.137   7.050 -0.1572 -0.2575  1.0480
 4182SOL    HW116588   4.132   9.042   7.053 -0.8339 -0.2145 -0.1356
 4182SOL    HW216589   4.236   9.149   7.080 -0.1322 -1.2503  1.4087
 4183SOL     OW16590   0.531   5.981   5.996  0.7143  0.2496  0.0460
 4183SOL    HW116591   0.457   6.036   6.020  0.4465 -0.3393  0.5995
 4183SOL    HW216592   0.607   6.039   6.000  0.1105  1.3229 -2.2485
 4184SOL     OW16593   4.447   3.323   6.438  0.5805 -0.0349  0.7515
 4184SOL    HW116594   4.537   3.351   6.455  0.5940 -0.2702  1.0823
 4184SOL    HW216595   4.395   3.403   6.451  0.7690  0.1708  0.2721
 4185SOL     OW16596   7.339   5.548   3.975  0.1116  0.4307 -0.3015
 4185SOL    HW116597   7.384   5.628   4.002  0.3529 -0.2328  1.3393
 4185SOL    HW216598   7.400   5.477   3.994 -1.1785 -0.3914  0.9859
 4186SOL     OW16599   5.411   5.068   8.001  0.2114 -0.0306  0.3853
 4186SOL    HW116600   5.485   5.008   8.014  0.8140  0.6152  0.0278
 4186SOL    HW216601   5.362   5.064   8.083 -0.8115 -2.3864 -0.2492
 4187SOL     OW16602   4.134   5.862   1.573 -0.0137  0.4759 -0.0538
 4187SOL    HW116603   4.164   5.847   1.662 -2.8105  2.6652  1.4269
 4187SOL    HW216604   4.096   5.778   1.546  1.2459 -0.3325  0.5897
 4188SOL     OW16605   2.198   2.602   5.137  0.5410  0.2168  0.4700
 4188SOL    HW116606   2.125   2.664   5.131  0.4055 -0.0165 -0.3663
 4188SOL    HW216607   2.263   2.637   5.076 -0.7852 -2.1155 -2.5253
 4189SOL     OW16608   5.057   8.677   5.177  0.5324  0.0595 -0.3879
 4189SOL    HW116609   5.032   8.642   5.262 -1.8303 -0.4672 -1.2130
 4189SOL    HW216610   4.982   8.731   5.150  0.8518 -0.4255 -2.4295
 4190SOL     OW16611   0.482   9.234   3.618  0.3017 -0.1291  0.4298
 4190SOL    HW116612   0.482   9.316   3.568 -1.2996 -0.6597 -0.5125
 4190SOL    HW216613   0.446   9.258   3.704 -3.8978 -0.3761 -1.0261
 4191SOL     OW16614   0.372   7.242   5.933 -0.5320  0.3954 -0.2056
 4191SOL    HW116615   0.413   7.264   5.850 -2.5747 -2.1707 -2.0976
 4191SOL    HW216616   0.331   7.323   5.963  1.9584  1.8616 -0.5698
 4192SOL     OW16617   8.799   1.144   1.028  0.3816  0.5725  0.2964
 4192SOL    HW116618   8.862   1.215   1.014 -1.1655  2.1560  1.0302
 4192SOL    HW216619   8.721   1.171   0.980  0.6794 -2.1187 -1.9705
 4193SOL     OW16620   7.965   7.839   7.535 -0.1356  0.1702 -0.2194
 4193SOL    HW116621   7.966   7.878   7.622 -1.3287  1.2295 -0.6514
 4193SOL    HW216622   8.046   7.788   7.530  0.0808  0.3159  1.3954
 4194SOL     OW16623   1.205   3.374   6.162 -0.1746  0.1488  0.3994
 4194SOL    HW116624   1.240   3.287   6.183 -0.5104  0.1823  1.1137
 4194SOL    HW216625   1.262   3.406   6.092 -1.4417 -1.5892 -1.5556
 4195SOL     OW16626   0.530   3.062   6.320  0.7620 -0.5978  0.5706
 4195SOL    HW116627   0.472   3.133   6.292  0.4141 -0.7362  0.9241
 4195SOL    HW216628   0.611   3.076   6.270  0.1483 -0.8683 -0.5184
 4196SOL     OW16629   1.983   0.376   1.409  0.0550  0.1246 -0.3558
 4196SOL    HW116630   1.956   0.419   1.490  1.5030  0.3886  0.0249
 4196SOL    HW216631   2.079   0.382   1.410  0.1106 -0.0070 -2.0134
 4197SOL     OW16632   4.401   0.606   8.804  0.1016 -0.7470  0.4604
 4197SOL    HW116633   4.324   0.554   8.827 -0.7757  0.7071  0.9856
 4197SOL    HW216634   4.367   0.676   8.749  0.4478  1.5973  2.9874
 4198SOL     OW16635   0.485   6.664   7.591 -0.1592  0.2610  0.2279
 4198SOL    HW116636   0.416   6.717   7.553 -1.5519 -1.3678  0.3745
 4198SOL    HW216637   0.480   6.680   7.685 -0.0141  0.5020  0.1954
 4199SOL     OW16638   9.573   3.684   6.166 -0.0471  0.2122 -0.1882
 4199SOL    HW116639   9.561   3.597   6.126  0.7894 -0.2603  0.5668
 4199SOL    HW216640   9.495   3.695   6.222  0.8433 -1.0032  1.3755
 4200SOL     OW16641   7.462   9.973   2.838 -0.0900  0.5020 -0.3593
 4200SOL    HW116642   7.442  10.057   2.797 -0.7222 -0.1487 -1.4506
 4200SOL    HW216643   7.400   9.912   2.799 -0.2666 -0.3032  1.1115
 4201SOL     OW16644  10.117   1.683   7.006  0.4610 -0.5123  0.4376
 4201SOL    HW116645  10.070   1.604   6.983  1.0253 -0.5624 -0.6004
 4201SOL    HW216646  10.050   1.743   7.039  0.0508 -1.4489  1.3621
 4202SOL     OW16647   8.514   2.876   6.070 -0.0337 -0.2304 -0.0809
 4202SOL    HW116648   8.440   2.898   6.014 -0.0898 -1.8847 -0.7285
 4202SOL    HW216649   8.477   2.871   6.159 -0.8922 -1.7058 -0.4847
 4203SOL     OW16650   2.591   1.797   8.400 -0.1220  0.0378 -0.1231
 4203SOL    HW116651   2.500   1.785   8.373 -0.4118  1.1836  0.2911
 4203SOL    HW216652   2.595   1.762   8.489  0.2440 -1.4437 -0.6767
 4204SOL     OW16653   3.030   8.120   1.791  0.0540  0.5088 -0.6083
 4204SOL    HW116654   3.109   8.165   1.821  0.8194 -2.3012  2.1049
 4204SOL    HW216655   2.960   8.153   1.848  0.1340  0.0729 -0.2486
 4205SOL     OW16656   1.511   8.818   3.271 -0.1655  0.4274  0.2465
 4205SOL    HW116657   1.592   8.784   3.310 -1.2477 -1.6869  0.7699
 4205SOL    HW216658   1.519   8.797   3.178 -0.4660 -0.5543  0.4349
 4206SOL     OW16659   8.713   2.688  10.155 -0.4074 -0.1626  0.2284
 4206SOL    HW116660   8.722   2.690  10.250  0.2943 -1.0802  0.2015
 4206SOL    HW216661   8.625   2.654  10.140  0.1611 -1.9357  0.5887
 4207SOL     OW16662   1.769   4.979   1.879 -0.5775  0.3301  0.1809
 4207SOL    HW116663   1.825   5.025   1.941  0.0971 -1.9993  1.4498
 4207SOL    HW216664   1.690   4.957   1.929 -0.5371 -0.5579 -0.1181
 4208SOL     OW16665   3.636   5.079   4.506 -0.1087  0.0001  0.4824
 4208SOL    HW116666   3.660   5.159   4.553 -0.6191  0.7657 -0.5208
 4208SOL    HW216667   3.581   5.031   4.568  0.6736  0.1408  1.3072
 4209SOL     OW16668   3.034   6.407   6.353 -0.5214 -0.0468  0.7590
 4209SOL    HW116669   3.118   6.382   6.392 -0.3913 -0.6798  0.1053
 4209SOL    HW216670   2.978   6.331   6.369 -0.7153  0.0366  0.4673
 4210SOL     OW16671   3.263   6.729   9.894 -0.4058  0.1924  0.0655
 4210SOL    HW116672   3.237   6.685   9.975 -1.5772 -1.5267 -1.1683
 4210SOL    HW216673   3.359   6.731   9.897 -0.4384  1.2705  2.0052
 4211SOL     OW16674   9.019   3.509   3.604 -0.2406  0.1648 -0.7525
 4211SOL    HW116675   9.056   3.421   3.613 -0.4067  0.0675 -1.0042
 4211SOL    HW216676   8.960   3.518   3.679  1.2608  0.8189  0.3925
 4212SOL     OW16677   5.399  10.084   7.240  0.3430 -0.4448 -0.1894
 4212SOL    HW116678   5.368   9.996   7.262 -2.2026  0.4419  0.1669
 4212SOL    HW216679   5.328  10.142   7.268  2.2659  1.8303  0.3138
 4213SOL     OW16680   3.825   6.522   1.555 -0.0816  0.6140  0.1239
 4213SOL    HW116681   3.878   6.580   1.501 -1.3665  3.0846  1.3460
 4213SOL    HW216682   3.735   6.539   1.527 -0.7752  1.8199  2.7429
 4214SOL     OW16683   0.863   9.614   8.576 -0.2447 -0.4519 -0.1723
 4214SOL    HW116684   0.950   9.577   8.593 -0.0300  1.0469  2.6534
 4214SOL    HW216685   0.879   9.694   8.527 -0.1853 -0.8968 -0.8939
 4215SOL     OW16686   0.008   2.968   6.072  0.2612  0.0368 -0.4678
 4215SOL    HW116687  -0.020   2.876   6.075  1.8755 -0.4701  1.7856
 4215SOL    HW216688  -0.032   3.003   5.992 -0.5942 -2.5560 -1.2735
 4216SOL     OW16689   9.218   5.962   5.938 -0.5506 -0.1527  0.0495
 4216SOL    HW116690   9.181   6.002   6.017 -0.6226 -1.2726  0.6047
 4216SOL    HW216691   9.145   5.916   5.897 -0.7321  1.1702 -1.2054
 4217SOL     OW16692   5.197   3.281   5.710 -0.6622  0.2929 -0.6241
 4217SOL    HW116693   5.179   3.338   5.635 -0.5689  0.9095 -0.1841
 4217SOL    HW216694   5.144   3.317   5.781 -1.7269 -1.0319 -0.7060
 4218SOL     OW16695   9.915   7.400   7.112 -0.0046  0.2298 -0.0147
 4218SOL    HW116696   9.967   7.440   7.182 -1.1129  1.2001  0.2864
 4218SOL    HW216697   9.958   7.429   7.031  0.1625  0.6954  0.2324
 4219SOL     OW16698   5.341   5.938   1.421 -0.4473 -0.3800  0.3977
 4219SOL    HW116699   5.409   5.902   1.364 -1.1924 -0.5333 -0.4142
 4219SOL    HW216700   5.379   5.933   1.509  0.0882 -1.6653  0.1197
 4220SOL     OW16701   3.900   9.745   3.599  0.3642 -0.1463 -0.3221
 4220SOL    HW116702   3.935   9.811   3.539  0.8304  0.1259  0.2420
 4220SOL    HW216703   3.814   9.723   3.563 -0.1096  1.2908 -0.1349
 4221SOL     OW16704   4.293   6.021   7.733  0.2779  0.0594 -0.3592
 4221SOL    HW116705   4.323   6.036   7.822  0.4236 -1.4733 -0.1239
 4221SOL    HW216706   4.199   6.006   7.742  0.5034 -1.3770 -0.2855
 4222SOL     OW16707   8.598   5.446   8.750 -0.4063 -0.1247  0.1534
 4222SOL    HW116708   8.573   5.354   8.743 -2.4066  0.4349 -0.8912
 4222SOL    HW216709   8.598   5.477   8.660 -1.5953  1.3259  0.6179
 4223SOL     OW16710   7.442   5.099   2.429  0.1010  0.0191 -0.4116
 4223SOL    HW116711   7.479   5.018   2.463 -0.9703 -0.0124  0.7717
 4223SOL    HW216712   7.488   5.168   2.477 -1.6008 -0.0315  1.4356
 4224SOL     OW16713   1.122   7.875   2.928  0.1558 -0.1063 -0.0095
 4224SOL    HW116714   1.069   7.838   2.858  0.7193  0.1470 -0.5826
 4224SOL    HW216715   1.153   7.800   2.978 -0.4946 -0.2709  0.1591
 4225SOL     OW16716   6.151   9.405   1.765  0.3120 -0.0361  0.5308
 4225SOL    HW116717   6.129   9.496   1.784 -0.1762  0.0794 -0.5550
 4225SOL    HW216718   6.246   9.407   1.750  0.5662  0.0189  1.9697
 4226SOL     OW16719   0.474   5.808   2.279 -0.5748  0.2080 -0.1577
 4226SOL    HW116720   0.510   5.839   2.362 -0.8594  0.4128 -0.1086
 4226SOL    HW216721   0.379   5.816   2.290 -0.6068  0.4301 -0.5774
 4227SOL     OW16722   2.678   9.569   6.926 -0.4858  0.3391 -0.6602
 4227SOL    HW116723   2.730   9.593   7.003  2.6735  0.9729 -2.7720
 4227SOL    HW216724   2.609   9.513   6.960  1.1362  0.0271  2.5502
 4228SOL     OW16725   0.901   3.679   1.208  0.1601 -0.1844  0.7692
 4228SOL    HW116726   0.891   3.692   1.302  1.0787  0.8161  0.7535
 4228SOL    HW216727   0.859   3.755   1.169  2.1452  0.8707  0.5109
 4229SOL     OW16728   9.944   0.354   8.855  0.4631 -0.6253  0.1415
 4229SOL    HW116729   9.914   0.445   8.865  1.2903 -0.4185  0.8048
 4229SOL    HW216730   9.924   0.313   8.940 -0.0186 -1.1009 -0.1965
 4230SOL     OW16731   7.191   8.213   7.355 -0.2795 -0.3632  0.1480
 4230SOL    HW116732   7.185   8.140   7.416 -0.6928 -1.0991 -0.7557
 4230SOL    HW216733   7.100   8.235   7.335 -0.1749  0.7697  0.8280
 4231SOL     OW16734   8.903   1.953   9.271  0.3095  0.1396 -0.2626
 4231SOL    HW116735   8.816   1.925   9.242 -0.4026  1.1218  0.8468
 4231SOL    HW216736   8.949   1.871   9.291 -0.7645 -0.3538  0.2472
 4232SOL     OW16737   9.584  10.041   9.017 -0.2213  0.3839 -0.6914
 4232SOL    HW116738   9.557   9.960   8.973  0.7520 -1.6374  2.0813
 4232SOL    HW216739   9.676  10.051   8.992 -0.3335  0.6259 -1.0112
 4233SOL     OW16740   5.184   8.503   2.327 -0.2973 -0.0016  0.5805
 4233SOL    HW116741   5.155   8.593   2.313  0.0488 -0.0050 -0.2018
 4233SOL    HW216742   5.190   8.494   2.422 -1.3643  0.4685  0.7020
 4234SOL     OW16743   9.798   6.318   4.599  0.2837  0.1982 -0.2888
 4234SOL    HW116744   9.787   6.224   4.606 -1.5371  0.4301  0.5274
 4234SOL    HW216745   9.709   6.353   4.603  0.8226  1.8892 -1.7086
 4235SOL     OW16746   3.391   4.432   5.090  0.3387  0.1339 -0.7007
 4235SOL    HW116747   3.340   4.354   5.067  0.6162  0.1380 -1.3447
 4235SOL    HW216748   3.438   4.454   5.010  1.8357 -0.2324  0.0501
 4236SOL     OW16749   0.693   7.140   8.375  0.0809  0.3623  0.1057
 4236SOL    HW116750   0.739   7.203   8.430 -1.2783  1.6516 -0.1748
 4236SOL    HW216751   0.732   7.151   8.289  0.7616 -0.1474  0.3430
 4237SOL     OW16752   1.873   2.163   5.060  0.6901 -0.0608 -0.3145
 4237SOL    HW116753   1.868   2.069   5.038  0.2350  0.5874 -3.5700
 4237SOL    HW216754   1.830   2.170   5.145 -1.6248 -2.4987 -1.1153
 4238SOL     OW16755   8.294   3.635   9.235  0.8472 -0.1208  0.6251
 4238SOL    HW116756   8.200   3.645   9.253  0.7542 -3.3907  2.7774
 4238SOL    HW216757   8.298   3.570   9.165  1.5350  0.3237  0.2440
 4239SOL     OW16758   4.727   6.346   9.585 -0.3720  0.4244  0.2657
 4239SOL    HW116759   4.787   6.395   9.642 -1.4570  0.3939  1.4615
 4239SOL    HW216760   4.640   6.366   9.618 -0.8705 -2.8014  1.2448
 4240SOL     OW16761   2.186   1.808   5.710 -0.1220 -0.3636  0.4363
 4240SOL    HW116762   2.186   1.901   5.734 -0.4047 -0.9774  3.0399
 4240SOL    HW216763   2.268   1.796   5.662 -0.9588  1.5825 -1.7086
 4241SOL     OW16764   1.290   9.437   5.111  0.2645  0.4019  0.1974
 4241SOL    HW116765   1.360   9.481   5.063 -0.6845 -0.0733 -1.7159
 4241SOL    HW216766   1.302   9.344   5.091 -0.8590  0.3111 -0.1369
 4242SOL     OW16767   0.716   2.254   6.116  0.1482  0.1781 -0.0378
 4242SOL    HW116768   0.750   2.276   6.029  0.0808 -0.2776 -0.1824
 4242SOL    HW216769   0.654   2.324   6.136 -0.9724 -0.5088 -1.0078
 4243SOL     OW16770   5.963   7.401   6.189 -0.3846 -0.2505  0.5164
 4243SOL    HW116771   5.966   7.447   6.273 -1.1366 -2.4520  1.8208
 4243SOL    HW216772   5.882   7.432   6.148 -0.5740  0.0237  1.0887
 4244SOL     OW16773   2.096   9.771   6.062 -0.0221  0.1194  0.0402
 4244SOL    HW116774   2.042   9.793   5.986 -0.8468 -1.1545  0.2303
 4244SOL    HW216775   2.100   9.852   6.113  0.9423  1.1263 -1.5676
 4245SOL     OW16776   9.296   3.894   6.583 -0.1485 -0.6581  0.1505
 4245SOL    HW116777   9.322   3.985   6.599 -0.4367 -0.0293 -2.5543
 4245SOL    HW216778   9.220   3.880   6.640 -1.5253  1.5623 -1.0172
 4246SOL     OW16779   6.831   7.718   9.411 -0.1327  0.0987  0.9422
 4246SOL    HW116780   6.831   7.628   9.443  1.0878 -0.1001  0.4414
 4246SOL    HW216781   6.893   7.763   9.468 -1.0926  0.7550  1.4968
 4247SOL     OW16782   1.489   0.373   9.236 -0.4237 -0.5504  0.6062
 4247SOL    HW116783   1.536   0.347   9.315 -0.6519 -1.6282  0.4022
 4247SOL    HW216784   1.551   0.427   9.188  0.2825 -1.1811  0.7826
 4248SOL     OW16785   5.672  10.030   4.651 -0.0509 -0.4786  0.0662
 4248SOL    HW116786   5.658  10.063   4.740  1.2751  0.8828 -0.1905
 4248SOL    HW216787   5.760   9.993   4.653  0.8426  1.4544 -1.1700
 4249SOL     OW16788  10.234   9.619   3.962 -0.1566 -0.1133 -0.1997
 4249SOL    HW116789  10.228   9.532   3.923  0.0868 -0.6354  0.8766
 4249SOL    HW216790  10.310   9.613   4.020 -0.4077  0.6762  0.2173
 4250SOL     OW16791   8.775   4.388   5.843 -0.1588 -0.6210 -0.3849
 4250SOL    HW116792   8.759   4.455   5.910  1.2903 -1.3589  0.7568
 4250SOL    HW216793   8.745   4.306   5.883  1.8397 -1.2665 -0.0883
 4251SOL     OW16794   2.423   3.969   7.174 -0.2335 -0.0235  0.1784
 4251SOL    HW116795   2.509   4.002   7.202 -1.3295  1.1068  2.4920
 4251SOL    HW216796   2.440   3.926   7.091  2.1337  2.4394 -0.7547
 4252SOL     OW16797   1.274   8.608   3.546  0.0639 -0.2440  0.5122
 4252SOL    HW116798   1.320   8.675   3.597 -1.2147  1.2569 -0.2401
 4252SOL    HW216799   1.219   8.657   3.486 -0.5440 -1.9930 -0.4237
 4253SOL     OW16800   2.111   9.523   6.637  0.0484 -0.2623  0.1792
 4253SOL    HW116801   2.128   9.482   6.722  0.1871  1.1722  0.8632
 4253SOL    HW216802   2.026   9.566   6.648  0.6929  1.0891  0.0540
 4254SOL     OW16803   2.402   8.414   2.501 -0.1452  0.3970  0.3573
 4254SOL    HW116804   2.431   8.490   2.450 -1.2125 -0.0508 -0.9572
 4254SOL    HW216805   2.423   8.339   2.446 -0.4342 -0.1686  1.0121
 4255SOL     OW16806   2.001   7.448   3.785 -0.3248 -0.6453 -0.7541
 4255SOL    HW116807   1.973   7.477   3.698  1.3439  0.4533 -0.9639
 4255SOL    HW216808   2.044   7.524   3.824 -0.3632 -1.3437  0.7415
 4256SOL     OW16809   8.487   5.516   8.519  0.1290  0.4118  0.2720
 4256SOL    HW116810   8.476   5.595   8.466 -2.2314 -1.6116 -2.5597
 4256SOL    HW216811   8.399   5.496   8.551  0.0329 -2.4518 -1.4220
 4257SOL     OW16812   3.611   4.738   4.451 -0.2446  0.1662  0.1326
 4257SOL    HW116813   3.690   4.781   4.484 -0.2412  0.2714 -0.0112
 4257SOL    HW216814   3.586   4.790   4.375  1.5001 -1.8367 -1.9480
 4258SOL     OW16815   9.610   1.087   2.722 -0.2248 -0.8916  0.6173
 4258SOL    HW116816   9.654   1.002   2.722  0.3787 -0.5834  0.1822
 4258SOL    HW216817   9.652   1.136   2.652 -0.4834 -0.1883  0.9441
 4259SOL     OW16818   2.618   9.270   6.247  0.2013 -0.2557 -0.2328
 4259SOL    HW116819   2.530   9.302   6.266 -0.1485 -2.0482  1.5652
 4259SOL    HW216820   2.638   9.302   6.159 -1.3477  2.0097  0.1664
 4260SOL     OW16821   5.081   9.964   4.707  0.7190  0.1961  0.5134
 4260SOL    HW116822   5.011   9.901   4.689  0.2849  0.4476  1.2938
 4260SOL    HW216823   5.141   9.955   4.633 -0.0219 -0.1849 -0.0503
 4261SOL     OW16824   3.597   1.590   3.266  0.3296 -0.2164 -0.4677
 4261SOL    HW116825   3.580   1.678   3.300  3.2669  0.2489  0.0607
 4261SOL    HW216826   3.572   1.531   3.337  0.5497  0.3703  0.1041
 4262SOL     OW16827   1.726   8.873   0.355  0.1177 -0.0604  0.0678
 4262SOL    HW116828   1.730   8.867   0.450 -2.2065  0.4914  0.2761
 4262SOL    HW216829   1.727   8.782   0.325 -0.6676 -0.3188  0.7673
 4263SOL     OW16830   7.955   5.206   5.906  0.6842  0.2532  0.3378
 4263SOL    HW116831   7.886   5.249   5.958 -0.1695 -0.1757 -0.4033
 4263SOL    HW216832   7.989   5.275   5.849 -0.0766  0.1694 -0.2344
 4264SOL     OW16833   6.114   5.292   5.898  0.0586  0.1476 -0.2355
 4264SOL    HW116834   6.129   5.350   5.973  1.6792 -0.5573  0.0212
 4264SOL    HW216835   6.167   5.329   5.828 -0.7500  0.2903 -0.7928
 4265SOL     OW16836   6.976   5.338   2.970  0.1973  0.2696 -0.3272
 4265SOL    HW116837   6.904   5.317   2.910  0.4361  2.1878 -1.3761
 4265SOL    HW216838   6.969   5.432   2.984  1.0934  0.1090  1.4678
 4266SOL     OW16839   9.915   3.184   9.985 -0.6076  0.2455  0.4948
 4266SOL    HW116840   9.979   3.210   9.918  0.3590  2.2521  2.0891
 4266SOL    HW216841   9.840   3.241   9.970 -1.0678 -0.4322  0.1474
 4267SOL     OW16842   9.878   1.484   2.113 -0.3673  0.0548  0.0330
 4267SOL    HW116843   9.835   1.421   2.171 -1.7102  0.4819 -0.4372
 4267SOL    HW216844   9.855   1.569   2.149  0.1880  0.2975 -0.1795
 4268SOL     OW16845   8.161   3.846   9.814 -0.1512 -0.2732 -0.1185
 4268SOL    HW116846   8.078   3.874   9.775 -0.4697 -0.0103  0.7314
 4268SOL    HW216847   8.136   3.801   9.894  0.5090 -0.5704 -0.0787
 4269SOL     OW16848   6.520   9.961   2.285 -0.1878  0.0390  0.3161
 4269SOL    HW116849   6.573   9.966   2.365 -0.7068 -1.4503  0.7809
 4269SOL    HW216850   6.537  10.044   2.240  1.2122  0.3052  1.2745
 4270SOL     OW16851   0.805   8.926   1.714  0.0315  0.2057 -0.1184
 4270SOL    HW116852   0.874   8.955   1.775  1.8583 -1.4438 -1.2690
 4270SOL    HW216853   0.852   8.904   1.634 -2.2057  1.5136 -1.9010
 4271SOL     OW16854   4.904   7.132   2.079  0.1020  0.0596 -0.3035
 4271SOL    HW116855   4.956   7.161   2.153 -0.5189  0.6720 -0.0908
 4271SOL    HW216856   4.950   7.167   2.002 -0.6806  1.7512 -0.0449
 4272SOL     OW16857   6.219   6.574   9.783  0.0586  0.2130  0.5089
 4272SOL    HW116858   6.287   6.536   9.726  0.4524 -2.2684  2.4376
 4272SOL    HW216859   6.150   6.599   9.723  1.6806  0.5870 -1.3216
 4273SOL     OW16860   1.006   6.564   4.459  0.0616  0.1444  0.3799
 4273SOL    HW116861   0.957   6.602   4.532  0.7517  2.7922 -0.4358
 4273SOL    HW216862   0.941   6.552   4.390 -0.1262  0.1001  0.5661
 4274SOL     OW16863   8.867   9.070  10.257  0.1592  0.1319  0.1002
 4274SOL    HW116864   8.924   9.137  10.217  0.1591  0.8400  1.2465
 4274SOL    HW216865   8.833   9.021  10.182  2.0040 -0.1033 -0.6451
 4275SOL     OW16866   3.764   6.172   5.829  0.4009 -0.0430  0.3943
 4275SOL    HW116867   3.858   6.155   5.831  0.8106  1.9745  0.2146
 4275SOL    HW216868   3.748   6.207   5.741 -0.4324  0.1149  0.5995
 4276SOL     OW16869   2.462   3.234   8.471  0.4085 -0.2250 -0.4832
 4276SOL    HW116870   2.459   3.189   8.555  0.7805  0.1470 -0.2623
 4276SOL    HW216871   2.389   3.198   8.421  1.3991 -1.9448 -0.7731
 4277SOL     OW16872   8.886   3.481   1.499 -0.1039 -0.2358  0.2735
 4277SOL    HW116873   8.979   3.487   1.523  0.4098 -3.1300 -0.5755
 4277SOL    HW216874   8.882   3.407   1.438 -2.7483  0.8534 -1.0531
 4278SOL     OW16875   0.436   9.335   7.383  0.8457  0.2511 -0.0841
 4278SOL    HW116876   0.479   9.256   7.352 -0.9837 -0.7114 -0.2767
 4278SOL    HW216877   0.455   9.338   7.477  1.7364  0.1465 -0.2507
 4279SOL     OW16878   5.745   0.850   7.349  0.7113 -0.0992 -0.2647
 4279SOL    HW116879   5.713   0.898   7.426 -0.3331  0.9362 -1.3136
 4279SOL    HW216880   5.745   0.914   7.278 -2.3628 -1.9291 -2.1424
 4280SOL     OW16881   3.318   0.852   2.895 -0.0341  0.0858  1.0578
 4280SOL    HW116882   3.231   0.817   2.912 -0.0561  0.2510  1.2843
 4280SOL    HW216883   3.303   0.944   2.874  0.0212 -0.0420  0.4456
 4281SOL     OW16884   5.711   7.721   3.735 -0.5872 -0.4158  0.0007
 4281SOL    HW116885   5.653   7.649   3.757 -0.0427 -0.7233  0.4624
 4281SOL    HW216886   5.792   7.678   3.706 -0.2594  0.0097  0.2797
 4282SOL     OW16887   6.581   0.141   5.681 -0.0755  0.2390 -0.1594
 4282SOL    HW116888   6.545   0.065   5.726  0.0040  0.7098  0.7345
 4282SOL    HW216889   6.672   0.119   5.664  0.0484  0.2638  0.4307
 4283SOL     OW16890   1.434   0.759   3.744 -0.0168  0.4731  0.7189
 4283SOL    HW116891   1.439   0.666   3.720 -1.2153  0.2453  1.2607
 4283SOL    HW216892   1.375   0.797   3.678  1.8490  1.2546 -0.5713
 4284SOL     OW16893   4.312   8.385   9.585  0.0849  0.3097 -0.1493
 4284SOL    HW116894   4.268   8.432   9.515  0.0454 -0.7276 -0.8544
 4284SOL    HW216895   4.285   8.429   9.666 -1.2519  0.4710 -0.6630
 4285SOL     OW16896   7.381   5.534   5.731 -0.1040  0.4970  1.0428
 4285SOL    HW116897   7.340   5.612   5.768 -1.8054  1.0344 -1.6627
 4285SOL    HW216898   7.420   5.564   5.649  2.1664 -0.8906  1.5195
 4286SOL     OW16899   2.063   2.168   3.550 -0.3239  0.1765 -0.4476
 4286SOL    HW116900   2.077   2.079   3.584  1.2739  0.8917  0.9337
 4286SOL    HW216901   2.122   2.174   3.475 -2.4328 -0.7658 -2.2771
 4287SOL     OW16902   3.893   3.712   8.597 -0.1271  0.0406  0.0736
 4287SOL    HW116903   3.944   3.647   8.645  0.5824 -0.1381 -0.8688
 4287SOL    HW216904   3.959   3.774   8.564 -0.6782  0.6122  0.0225
 4288SOL     OW16905   6.503   6.735   3.153 -0.1713 -0.1364 -0.6082
 4288SOL    HW116906   6.532   6.826   3.155  0.1019 -0.2230  1.3116
 4288SOL    HW216907   6.548   6.697   3.078  0.5733  1.0427 -0.7839
 4289SOL     OW16908   3.904  10.192   1.180  0.0809 -0.0227  0.9700
 4289SOL    HW116909   3.973  10.137   1.217 -0.4112 -0.3099  1.4646
 4289SOL    HW216910   3.841  10.130   1.144  1.0485  0.2259 -1.3759
 4290SOL     OW16911   3.292   1.920   9.124 -0.5155  0.0930  0.1453
 4290SOL    HW116912   3.253   1.877   9.048  0.8398  2.3259 -1.9594
 4290SOL    HW216913   3.360   1.859   9.154 -0.7424 -0.6233 -0.7493
 4291SOL     OW16914   2.916   3.713   6.666  0.2987 -0.2758  0.2013
 4291SOL    HW116915   2.932   3.620   6.652  0.4673 -0.1744 -0.3030
 4291SOL    HW216916   2.940   3.729   6.757 -0.2177 -0.8286  0.4366
 4292SOL     OW16917   8.873   3.485   5.607  0.9124 -0.1353 -0.0417
 4292SOL    HW116918   8.838   3.574   5.618 -0.3968 -0.6869  0.4063
 4292SOL    HW216919   8.926   3.490   5.527 -0.3259  0.6910 -0.8393
 4293SOL     OW16920   8.475   2.162   5.034  0.4206 -0.1049  0.1579
 4293SOL    HW116921   8.424   2.158   4.953  1.1678 -1.5530 -0.2671
 4293SOL    HW216922   8.524   2.244   5.027 -0.8655  0.6882 -0.0012
 4294SOL     OW16923   4.087   0.334   3.062 -0.4488  0.1635  0.2656
 4294SOL    HW116924   4.063   0.334   2.969 -0.8529  0.7552  0.3652
 4294SOL    HW216925   4.157   0.399   3.069  0.0291 -0.3447  0.2681
 4295SOL     OW16926   8.855   3.922   1.484 -0.2471 -0.2102 -1.2568
 4295SOL    HW116927   8.832   3.847   1.430  0.3916  0.4276 -2.4604
 4295SOL    HW216928   8.849   3.890   1.574 -0.3192 -1.5951 -1.7328
 4296SOL     OW16929   6.366   4.639   1.902  0.1873  0.4540  0.3533
 4296SOL    HW116930   6.385   4.657   1.810  0.5131  2.2004  0.7332
 4296SOL    HW216931   6.292   4.697   1.923  0.1898  0.1615  1.2238
 4297SOL     OW16932   6.456   3.299   1.750 -0.2911 -0.1048 -0.0025
 4297SOL    HW116933   6.431   3.206   1.749 -2.5699  0.4514 -0.5831
 4297SOL    HW216934   6.441   3.329   1.661  3.6167  0.1600 -0.7421
 4298SOL     OW16935   8.829   1.164   8.747 -0.2448 -0.5396 -0.1605
 4298SOL    HW116936   8.757   1.123   8.795 -1.4036  1.2887 -0.2242
 4298SOL    HW216937   8.800   1.162   8.655 -0.0621 -0.0781 -0.2294
 4299SOL     OW16938   6.677   9.079   6.620 -0.1888  0.4379 -0.0057
 4299SOL    HW116939   6.758   9.124   6.648  0.1793  0.5257 -1.1549
 4299SOL    HW216940   6.695   9.052   6.530 -1.1652 -0.2408 -0.0070
 4300SOL     OW16941   5.433   1.163   4.659  0.0520 -0.0685 -0.0272
 4300SOL    HW116942   5.361   1.205   4.707 -0.1973 -1.8935  1.2916
 4300SOL    HW216943   5.455   1.226   4.590 -2.5642  0.7083 -0.2645
 4301SOL     OW16944   1.970   9.302   4.912  0.1866  0.3161  0.5285
 4301SOL    HW116945   1.903   9.277   4.849 -0.9906  0.3739  1.7256
 4301SOL    HW216946   2.018   9.373   4.869 -0.0490 -0.1867 -0.6198
 4302SOL     OW16947   0.255   6.096   1.017 -0.4244  0.0229  0.0021
 4302SOL    HW116948   0.226   6.057   1.099  0.2122 -1.1523 -0.3089
 4302SOL    HW216949   0.245   6.191   1.030 -0.0418 -0.1257  1.5534
 4303SOL     OW16950   7.093   1.967   3.296  0.2413  0.9960  0.0320
 4303SOL    HW116951   7.166   2.027   3.276 -1.1020  2.6532 -0.1048
 4303SOL    HW216952   7.085   1.971   3.392  2.2435 -1.6118  0.4335
 4304SOL     OW16953   0.536   2.785   6.253  0.1340  0.8721  0.1481
 4304SOL    HW116954   0.498   2.768   6.166  0.4800  0.6363  0.0425
 4304SOL    HW216955   0.490   2.863   6.284  0.7338  1.5841 -0.6930
 4305SOL     OW16956   3.748   9.651  10.075  0.0854 -0.5723  0.5792
 4305SOL    HW116957   3.665   9.607  10.058 -0.1040  0.7139 -2.6563
 4305SOL    HW216958   3.812   9.580  10.081 -0.7278 -1.4750 -0.8097
 4306SOL     OW16959   4.043   7.222   2.500  0.2319  0.3319  0.0076
 4306SOL    HW116960   3.974   7.239   2.436 -0.4785 -1.2954  0.2935
 4306SOL    HW216961   4.007   7.254   2.583 -0.3161 -0.7522  0.2038
 4307SOL     OW16962   3.960   7.790   4.800  0.0223 -0.3984 -0.4690
 4307SOL    HW116963   4.028   7.734   4.837  0.3132  0.6292  0.6111
 4307SOL    HW216964   4.002   7.832   4.724  0.9770  1.0105  0.7828
 4308SOL     OW16965   3.705   0.689   6.628  0.2314  0.2640  0.2831
 4308SOL    HW116966   3.624   0.644   6.654 -0.2585  0.3293 -1.0290
 4308SOL    HW216967   3.771   0.655   6.688 -0.6049 -0.4398  0.8400
 4309SOL     OW16968   4.427   7.956   3.620  0.0493  0.1843  0.0174
 4309SOL    HW116969   4.482   7.989   3.549  0.1889 -1.3226 -0.6180
 4309SOL    HW216970   4.390   8.034   3.660  2.3947  1.2517  0.2859
 4310SOL     OW16971   8.105   8.777   5.799  0.1168 -0.1531 -0.4959
 4310SOL    HW116972   8.161   8.715   5.847  1.3883 -0.3977 -2.1904
 4310SOL    HW216973   8.147   8.862   5.811  0.9038 -0.3324 -1.7497
 4311SOL     OW16974   8.792   6.908   6.237  0.6326 -0.0633  0.4870
 4311SOL    HW116975   8.796   6.994   6.193 -0.6928  0.3419  1.1103
 4311SOL    HW216976   8.781   6.929   6.329  1.9167 -0.9260  0.8602
 4312SOL     OW16977   6.703   4.442   8.474  0.5792 -0.1270  0.0475
 4312SOL    HW116978   6.722   4.366   8.528  1.0994 -0.3762 -0.4830
 4312SOL    HW216979   6.784   4.493   8.473  0.7693 -0.4152 -0.9541
 4313SOL     OW16980   7.340   7.537   6.706  0.9085 -0.2271  0.3584
 4313SOL    HW116981   7.421   7.488   6.722  0.9076  0.2405  2.0274
 4313SOL    HW216982   7.272   7.486   6.749  0.3867 -0.3211 -0.5479
 4314SOL     OW16983   1.355   5.402   4.808 -0.0175 -0.9191  0.0262
 4314SOL    HW116984   1.276   5.357   4.774 -1.6858  2.9404 -1.8411
 4314SOL    HW216985   1.381   5.460   4.736  2.8382  0.0316  1.7055
 4315SOL     OW16986   8.538   1.825   0.765  0.2400  0.1825 -0.0873
 4315SOL    HW116987   8.509   1.761   0.700  0.2398 -2.0442  1.9560
 4315SOL    HW216988   8.632   1.835   0.748  0.0326  0.5113 -1.1001
 4316SOL     OW16989   6.147   2.387   3.852 -0.1593  0.3876  0.6287
 4316SOL    HW116990   6.063   2.371   3.808  0.2520 -2.2818  0.6797
 4316SOL    HW216991   6.209   2.330   3.807  0.8107 -0.5559  3.0108
 4317SOL     OW16992   1.140  10.114   4.664  0.1038  0.0344 -0.5459
 4317SOL    HW116993   1.153  10.095   4.757 -1.7885 -1.6675 -0.5393
 4317SOL    HW216994   1.221  10.084   4.622  0.3578 -0.6925  0.4063
 4318SOL     OW16995   1.048   4.797   1.762  0.0355 -0.1893  0.0209
 4318SOL    HW116996   0.963   4.807   1.805 -1.8364 -2.2307 -2.8997
 4318SOL    HW216997   1.058   4.703   1.749  3.3581 -0.1526  1.2122
 4319SOL     OW16998   9.875   4.872   3.308  0.2051 -0.0459 -0.2813
 4319SOL    HW116999   9.947   4.817   3.276 -0.4233  0.5225 -2.9389
 4319SOL    HW217000   9.918   4.945   3.353  1.1565 -0.9703  0.3561
 4320SOL     OW17001   8.358   6.093   1.026  0.0620 -0.3593  0.8792
 4320SOL    HW117002   8.337   6.102   1.119 -0.1194 -0.3004  0.8328
 4320SOL    HW217003   8.436   6.037   1.025  0.2655 -0.0875  1.0824
 4321SOL     OW17004   7.172   6.267   4.189 -0.0800 -0.3955 -0.9251
 4321SOL    HW117005   7.171   6.198   4.256  0.5066 -0.1711 -0.6768
 4321SOL    HW217006   7.264   6.271   4.160  0.3964  1.7750  0.6317
 4322SOL     OW17007   2.633   6.028   3.813  0.1568  0.0802 -0.6212
 4322SOL    HW117008   2.561   5.999   3.758 -0.5783  1.6799 -0.5451
 4322SOL    HW217009   2.605   6.113   3.848  0.6576 -0.7888  2.1210
 4323SOL     OW17010   3.542   3.227   9.217 -0.0930  0.3049 -0.4819
 4323SOL    HW117011   3.610   3.183   9.166 -1.2532 -0.6332 -1.2832
 4323SOL    HW217012   3.580   3.311   9.241  1.9552 -0.8305  0.5071
 4324SOL     OW17013   4.808   5.257   6.382 -0.2186 -0.1018 -0.1590
 4324SOL    HW117014   4.821   5.284   6.291  2.5643 -0.0327  0.1820
 4324SOL    HW217015   4.747   5.322   6.418  0.3141  1.1311 -1.4139
 4325SOL     OW17016   3.654   4.891   9.292 -0.1600  0.6224 -0.4527
 4325SOL    HW117017   3.709   4.957   9.335 -0.8354  1.8411 -1.3978
 4325SOL    HW217018   3.656   4.816   9.352  0.6985  1.4567  0.6201
 4326SOL     OW17019   3.904   8.433   7.818  0.3594 -0.4109 -0.2947
 4326SOL    HW117020   3.818   8.474   7.830  1.7430  2.8348 -0.2885
 4326SOL    HW217021   3.925   8.395   7.903  0.5667  2.4239  1.0319
 4327SOL     OW17022   6.051  10.287   0.804 -0.4034  0.1857  0.1768
 4327SOL    HW117023   6.005  10.368   0.782 -0.5071  0.2921  0.7748
 4327SOL    HW217024   5.988  10.218   0.788 -1.1499  0.3951  1.9618
 4328SOL     OW17025   0.260   6.782   5.077 -0.4138 -0.4636  0.4148
 4328SOL    HW117026   0.300   6.695   5.068  0.0048 -0.2190 -0.1721
 4328SOL    HW217027   0.175   6.773   5.034  0.2158 -0.2096 -0.9348
 4329SOL     OW17028   8.211   3.923  10.247 -0.0817  0.2455  0.1434
 4329SOL    HW117029   8.269   3.847  10.234  1.7149  1.1559  2.2260
 4329SOL    HW217030   8.128   3.885  10.274  0.6066 -1.0311  0.5868
 4330SOL     OW17031   0.236   8.986   7.572  0.4236 -0.1963 -0.1717
 4330SOL    HW117032   0.233   8.908   7.627  0.0397  0.3333  0.5660
 4330SOL    HW217033   0.264   8.953   7.486 -2.2101 -1.5901 -0.6224
 4331SOL     OW17034   5.775   8.327   2.090 -0.7645  0.0904 -0.1690
 4331SOL    HW117035   5.698   8.324   2.033 -0.3785 -2.6653 -0.6756
 4331SOL    HW217036   5.827   8.401   2.057 -1.9346  0.3508 -1.4980
 4332SOL     OW17037   9.400   9.053   6.186  0.1972  0.6048 -0.5437
 4332SOL    HW117038   9.335   9.116   6.216  0.3180  0.1263  0.7794
 4332SOL    HW217039   9.410   9.071   6.093 -0.7756  1.6239 -0.4645
 4333SOL     OW17040   4.358   8.429   4.762  0.1193 -0.2080 -0.2313
 4333SOL    HW117041   4.354   8.422   4.858 -1.0837 -2.1025 -0.3723
 4333SOL    HW217042   4.421   8.363   4.735 -0.1100 -0.2066 -0.7885
 4334SOL     OW17043   4.311   9.473  10.041 -0.3606  0.4460  0.2404
 4334SOL    HW117044   4.312   9.525  10.122  0.7646  1.5108 -0.4346
 4334SOL    HW217045   4.260   9.395  10.064 -1.2549  1.3667  1.5706
 4335SOL     OW17046   8.419  10.254   6.632 -0.5364 -0.4045  0.1879
 4335SOL    HW117047   8.418  10.162   6.658 -0.2197 -0.1810  1.0110
 4335SOL    HW217048   8.472  10.297   6.698 -1.9221  0.6342  0.6679
 4336SOL     OW17049   6.186   8.245   1.163 -0.7328 -0.6100 -0.2121
 4336SOL    HW117050   6.250   8.208   1.224 -1.4623  0.4345  1.2523
 4336SOL    HW217051   6.105   8.197   1.181 -0.8189 -0.6472 -0.7104
 4337SOL     OW17052   2.827   2.345   3.441 -0.2011  0.2380 -0.0650
 4337SOL    HW117053   2.839   2.251   3.455  0.3212  0.7137  3.6093
 4337SOL    HW217054   2.732   2.357   3.445 -0.2180 -0.0282  0.3967
 4338SOL     OW17055   8.546   6.853   7.685  0.1790  0.3317 -0.4876
 4338SOL    HW117056   8.557   6.868   7.779 -0.9494  0.6840 -0.3893
 4338SOL    HW217057   8.525   6.940   7.649  1.9004  0.4585 -1.2973
 4339SOL     OW17058   8.656   4.829   2.869  0.5739  0.4584 -0.4522
 4339SOL    HW117059   8.576   4.780   2.847  2.0006 -1.8078 -0.8791
 4339SOL    HW217060   8.652   4.838   2.964  0.6327 -1.2331 -0.2553
 4340SOL     OW17061   8.951   3.997   9.625 -0.5372 -0.9669  0.3044
 4340SOL    HW117062   8.943   3.920   9.680 -0.6994 -1.7577 -0.7889
 4340SOL    HW217063   8.994   3.966   9.545 -0.6843  0.0499 -0.1995
 4341SOL     OW17064   7.083   5.347   9.365  0.7437 -0.2915  0.3475
 4341SOL    HW117065   7.071   5.293   9.288  1.6709 -1.2395  0.8538
 4341SOL    HW217066   7.016   5.416   9.356 -0.5507 -1.5695 -0.2364
 4342SOL     OW17067   5.773   5.449   7.917 -0.2719 -0.5661 -0.8892
 4342SOL    HW117068   5.735   5.537   7.921 -1.7278 -1.1641 -0.7936
 4342SOL    HW217069   5.698   5.391   7.927  0.9446 -1.8325  1.7103
 4343SOL     OW17070   5.212   6.967   3.489 -0.1173 -0.1341  0.0453
 4343SOL    HW117071   5.234   7.022   3.414  0.9816 -1.8529 -0.9796
 4343SOL    HW217072   5.164   6.893   3.451  1.2436 -1.4943  0.8603
 4344SOL     OW17073   1.615   0.609   2.773  0.3716 -0.1521 -0.2434
 4344SOL    HW117074   1.542   0.642   2.721 -0.6227  0.9386  1.7415
 4344SOL    HW217075   1.575   0.553   2.839  1.3658  0.0245  0.5458
 4345SOL     OW17076   0.248   8.359   9.340 -0.0184  0.2829  0.5811
 4345SOL    HW117077   0.295   8.330   9.261 -1.2129 -2.2022  0.6799
 4345SOL    HW217078   0.316   8.376   9.404  0.8767 -2.0211  0.3387
 4346SOL     OW17079   6.683   2.794   6.147 -0.0974  0.1104 -0.3553
 4346SOL    HW117080   6.744   2.849   6.097  0.9136 -0.3017  0.3683
 4346SOL    HW217081   6.696   2.706   6.113 -0.5252  0.0754 -0.4206
 4347SOL     OW17082   8.779   0.113   6.600  0.0122  0.0572 -0.2374
 4347SOL    HW117083   8.767   0.090   6.508  1.3759 -0.8189 -0.2287
 4347SOL    HW217084   8.831   0.194   6.598 -1.5860  1.1272 -0.2263
 4348SOL     OW17085   6.526   1.896   8.628 -0.0327  0.2398 -0.4951
 4348SOL    HW117086   6.610   1.927   8.592 -0.3348  0.6547 -0.8472
 4348SOL    HW217087   6.490   1.840   8.559  0.2342 -0.4340 -0.0959
 4349SOL     OW17088   0.364   7.246   1.277  0.1812 -0.0467 -0.4894
 4349SOL    HW117089   0.451   7.261   1.241  0.6724 -1.8868 -0.1904
 4349SOL    HW217090   0.379   7.201   1.360 -1.0498  0.0518 -0.1885
 4350SOL     OW17091   3.772   0.488   4.220 -0.1045  0.5327  0.2490
 4350SOL    HW117092   3.789   0.495   4.314  0.7137 -0.1522  0.1555
 4350SOL    HW217093   3.821   0.411   4.192  1.2749  1.8438 -1.1190
 4351SOL     OW17094   6.967   3.360   0.769 -0.2615 -0.2390 -0.1155
 4351SOL    HW117095   6.873   3.366   0.786 -0.2886 -0.1537 -0.2903
 4351SOL    HW217096   7.008   3.389   0.850 -0.3929  2.8598 -1.0098
 4352SOL     OW17097   6.127   3.875   1.891  0.0852 -0.0977  0.2040
 4352SOL    HW117098   6.126   3.936   1.965  0.5064  2.0850 -1.4829
 4352SOL    HW217099   6.205   3.821   1.904  0.8127  1.0552  0.7609
 4353SOL     OW17100   6.341   4.201   0.351  0.1928  0.0804 -0.1261
 4353SOL    HW117101   6.250   4.229   0.355  0.6915  2.1178 -1.6274
 4353SOL    HW217102   6.353   4.170   0.261  0.8223 -0.8143  0.2489
 4354SOL     OW17103  10.196   4.896   4.682  0.2275 -0.2286 -0.6235
 4354SOL    HW117104  10.155   4.931   4.602  0.0887  0.6393 -0.1828
 4354SOL    HW217105  10.289   4.891   4.661  0.5418  2.2313 -0.0932
 4355SOL     OW17106   1.932   6.333   9.926 -0.0984  0.7408  0.5720
 4355SOL    HW117107   1.904   6.278   9.999 -1.6877  0.2131 -0.3997
 4355SOL    HW217108   1.925   6.423   9.959 -1.8585  0.5684  0.7659
 4356SOL     OW17109   2.643   2.289   5.363 -0.5272  0.0212  0.1038
 4356SOL    HW117110   2.619   2.208   5.406 -0.5637 -0.4088 -0.7060
 4356SOL    HW217111   2.715   2.265   5.304 -0.6244  0.5476 -0.2430
 4357SOL     OW17112   2.305   8.885   2.618  0.4737  0.7949  0.7635
 4357SOL    HW117113   2.296   8.869   2.712  1.4466  0.8914  0.8841
 4357SOL    HW217114   2.295   8.799   2.578  0.6232  0.6657  1.0013
 4358SOL     OW17115   3.882   6.340   1.727  0.8801 -0.1807  0.1073
 4358SOL    HW117116   3.863   6.415   1.670  4.8708  0.3379 -0.8658
 4358SOL    HW217117   3.846   6.265   1.681  0.4313  0.6869 -1.0109
 4359SOL     OW17118   6.249   9.491   2.824 -0.0446  0.0025  0.2425
 4359SOL    HW117119   6.233   9.585   2.835  3.2220  0.4496  2.9726
 4359SOL    HW217120   6.248   9.456   2.913 -0.3510 -2.4240 -0.6459
 4360SOL     OW17121   4.117   0.468   8.755 -0.0042 -0.3858 -1.3065
 4360SOL    HW117122   4.147   0.441   8.668  0.8826 -2.6249 -0.3717
 4360SOL    HW217123   4.111   0.386   8.805  0.5252  0.9436  1.0657
 4361SOL     OW17124   4.116   0.878   0.356 -0.9020  0.1434  0.1253
 4361SOL    HW117125   4.142   0.817   0.288  0.2534 -0.7281  1.3019
 4361SOL    HW217126   4.021   0.875   0.357 -0.9067 -0.2606 -1.0477
 4362SOL     OW17127   7.155   3.592   3.805 -0.4444  0.7034 -0.2780
 4362SOL    HW117128   7.176   3.500   3.822  0.9001  0.7747 -1.4123
 4362SOL    HW217129   7.072   3.606   3.851 -1.4211 -1.4705 -1.2535
 4363SOL     OW17130   5.149  10.215   4.320 -0.3910  0.6318 -0.4276
 4363SOL    HW117131   5.141  10.298   4.273 -0.6163  0.5609 -0.5169
 4363SOL    HW217132   5.077  10.215   4.382  0.7524  1.3835  0.9625
 4364SOL     OW17133   7.073   0.679   7.646 -0.0657  0.4926  0.5511
 4364SOL    HW117134   7.022   0.752   7.611 -0.2232  0.0458 -0.1782
 4364SOL    HW217135   7.140   0.662   7.579  1.1579  1.1738  1.5618
 4365SOL     OW17136   7.167   2.489   8.052  0.6892 -0.0538 -0.3499
 4365SOL    HW117137   7.162   2.532   8.138  0.8570  0.7311 -0.7177
 4365SOL    HW217138   7.251   2.445   8.052  0.4466 -0.5259  0.0986
 4366SOL     OW17139   7.030  10.185   5.577  0.4950  0.7108 -0.1550
 4366SOL    HW117140   7.121  10.186   5.606  0.9428  1.7538 -1.5178
 4366SOL    HW217141   7.025  10.111   5.515  1.1674  2.3226 -2.2345
 4367SOL     OW17142   0.772   7.989   6.100 -0.7342  0.1329  0.3580
 4367SOL    HW117143   0.785   8.080   6.129  1.7046 -0.0565  0.0569
 4367SOL    HW217144   0.762   7.995   6.005 -1.7232  0.1537  0.4516
 4368SOL     OW17145   0.733   2.184   6.930 -0.4197  0.4374  0.1317
 4368SOL    HW117146   0.742   2.196   7.024  0.7981 -2.6937  0.5395
 4368SOL    HW217147   0.699   2.095   6.921  0.9549  0.0924 -2.4181
 4369SOL     OW17148   5.415   2.781   3.590  0.0556  0.1040  0.1600
 4369SOL    HW117149   5.393   2.863   3.545  0.8756 -0.1762 -0.7782
 4369SOL    HW217150   5.363   2.714   3.546 -0.8374  0.1301  1.1148
 4370SOL     OW17151   5.291   5.043   4.546  0.0988  0.0738 -0.1659
 4370SOL    HW117152   5.320   4.965   4.594 -2.7757 -1.1959 -0.2614
 4370SOL    HW217153   5.261   5.103   4.614  0.5658  0.3271 -0.1800
 4371SOL     OW17154   9.880   7.774   3.100 -0.1600  0.1974  0.2271
 4371SOL    HW117155   9.876   7.821   3.017 -0.6251 -0.8864 -0.3772
 4371SOL    HW217156   9.850   7.686   3.080 -0.2161 -0.1065  1.5355
 4372SOL     OW17157   2.493   6.282   6.290  0.0963  0.7154  0.2497
 4372SOL    HW117158   2.426   6.213   6.289  1.6764 -0.8933 -0.2656
 4372SOL    HW217159   2.526   6.284   6.200  3.0797 -1.0261  1.1607
 4373SOL     OW17160   8.720   4.293   6.433 -0.5708 -0.1561 -0.4631
 4373SOL    HW117161   8.666   4.246   6.496 -0.8834 -0.6562 -1.0948
 4373SOL    HW217162   8.662   4.308   6.358  0.0627 -0.4085 -1.0164
 4374SOL     OW17163   1.651   5.386   8.146 -0.0190 -0.5249  0.2831
 4374SOL    HW117164   1.711   5.311   8.148 -0.2041 -0.6623  1.2728
 4374SOL    HW217165   1.643   5.407   8.054  1.5879 -0.4851  0.1141
 4375SOL     OW17166   6.868   4.204   8.860  0.2775  0.3489  0.1325
 4375SOL    HW117167   6.930   4.151   8.810 -1.1946 -0.6259 -0.7315
 4375SOL    HW217168   6.858   4.157   8.943 -1.0779 -0.8148 -0.6585
 4376SOL     OW17169   3.631   3.086   8.327  0.4514  0.3727  0.3662
 4376SOL    HW117170   3.553   3.133   8.299  1.0570  1.6195  0.7291
 4376SOL    HW217171   3.613   3.059   8.417  0.3011  0.3334  0.3244
 4377SOL     OW17172   6.153   6.358   6.306  0.0197 -0.2727 -0.6957
 4377SOL    HW117173   6.212   6.383   6.234  2.1327  1.3179  1.4502
 4377SOL    HW217174   6.202   6.291   6.355 -0.2570  0.5202  0.7028
 4378SOL     OW17175  10.255   3.944   3.740  0.0470 -0.3459  0.4208
 4378SOL    HW117176  10.216   3.953   3.653  1.0651 -0.9677 -0.1273
 4378SOL    HW217177  10.248   4.031   3.779  2.7776  0.9782 -1.7024
 4379SOL     OW17178   0.280   7.595   0.236 -0.0305  0.0455 -0.0294
 4379SOL    HW117179   0.213   7.546   0.189  0.2588 -0.3161 -0.0734
 4379SOL    HW217180   0.262   7.577   0.329  0.5150 -0.7608 -0.0610
 4380SOL     OW17181   8.084   2.220   8.998  0.1038  0.1233 -0.0918
 4380SOL    HW117182   8.162   2.276   8.989 -0.1809  0.9864  2.3206
 4380SOL    HW217183   8.017   2.278   9.032 -1.1778 -0.9760 -0.6792
 4381SOL     OW17184   8.791   4.694   8.512  0.7479  0.2156 -0.2169
 4381SOL    HW117185   8.822   4.662   8.597  0.4839 -1.5034 -0.7330
 4381SOL    HW217186   8.827   4.632   8.448  0.7723  1.3647 -1.3542
 4382SOL     OW17187   9.642   9.023   9.665  0.3752  0.3802  0.1037
 4382SOL    HW117188   9.587   9.071   9.602  0.0168 -0.4519 -0.2287
 4382SOL    HW217189   9.731   9.054   9.647  0.2449  0.3474 -0.6441
 4383SOL     OW17190   5.434   4.245   2.404 -0.0903 -0.0957  0.5796
 4383SOL    HW117191   5.455   4.336   2.386  0.7001 -0.3913 -0.0696
 4383SOL    HW217192   5.473   4.196   2.332  0.9152 -1.1003  1.7360
 4384SOL     OW17193   0.429   4.199   5.887 -0.1924 -0.1038 -0.5523
 4384SOL    HW117194   0.393   4.181   5.801 -1.0662 -0.4582 -0.1210
 4384SOL    HW217195   0.439   4.113   5.927 -1.2705  0.1386  0.2801
 4385SOL     OW17196   4.587   4.989   4.682  0.1886 -0.0279 -0.1992
 4385SOL    HW117197   4.618   4.966   4.594  1.6246 -2.0378  0.7668
 4385SOL    HW217198   4.525   4.920   4.704 -0.7278  0.8709  0.1256
 4386SOL     OW17199  10.294   3.933   4.314 -0.1580  0.2033 -0.0262
 4386SOL    HW117200  10.276   4.005   4.253 -0.1401 -0.7885 -1.2357
 4386SOL    HW217201  10.387   3.912   4.300 -0.2852 -0.3726 -0.0372
 4387SOL     OW17202   5.962   5.333  10.163  0.8897  0.0159 -0.2546
 4387SOL    HW117203   5.957   5.293  10.249  0.7963  0.1987 -0.1730
 4387SOL    HW217204   6.039   5.390  10.166  0.6938  0.2830 -0.1758
 4388SOL     OW17205   4.483   4.130   1.577 -0.3701 -0.1821  0.1024
 4388SOL    HW117206   4.439   4.207   1.613 -0.5980  0.1493 -0.8624
 4388SOL    HW217207   4.509   4.156   1.488  1.8314 -0.3425  0.6261
 4389SOL     OW17208   0.717   1.698   9.277 -0.1440  0.1910 -0.2872
 4389SOL    HW117209   0.778   1.662   9.342 -0.3432  1.5994  0.7068
 4389SOL    HW217210   0.771   1.755   9.222 -0.4130  0.8782  0.1497
 4390SOL     OW17211   8.929   2.861   3.533  0.7615  0.3263  0.0435
 4390SOL    HW117212   8.886   2.778   3.515  2.6008 -0.8133  0.5863
 4390SOL    HW217213   8.931   2.906   3.448  0.0518 -0.3205 -0.3269
 4391SOL     OW17214   5.479   2.125   3.503 -0.3694 -0.2997  0.4395
 4391SOL    HW117215   5.508   2.209   3.467 -1.0990 -0.0278  0.4600
 4391SOL    HW217216   5.482   2.137   3.598 -1.5226  0.0929  0.4422
 4392SOL     OW17217   9.058   2.191   9.257 -0.0447  0.1604 -0.4979
 4392SOL    HW117218   9.020   2.218   9.174  0.3245  0.0874 -0.6936
 4392SOL    HW217219   9.001   2.120   9.287 -1.0947  1.2115  0.0861
 4393SOL     OW17220   8.110   7.424   9.652  0.6553 -0.6014 -0.3794
 4393SOL    HW117221   8.163   7.393   9.579  1.7490 -0.2903  0.2458
 4393SOL    HW217222   8.021   7.399   9.631  1.1876 -2.0746 -0.9816
 4394SOL     OW17223   0.766   7.178   3.019 -0.6887  0.2699 -0.3145
 4394SOL    HW117224   0.737   7.124   2.944 -2.6480  0.5049  0.2163
 4394SOL    HW217225   0.747   7.268   2.992 -1.3683  0.3570  0.4412
 4395SOL     OW17226   9.243   7.549   1.989 -0.1262  0.6923  0.3409
 4395SOL    HW117227   9.240   7.605   1.912  1.0249 -0.8715 -0.8989
 4395SOL    HW217228   9.255   7.460   1.954 -0.0732 -0.1219  2.2973
 4396SOL     OW17229   2.801   6.398   4.680  0.2758  0.1677 -0.4053
 4396SOL    HW117230   2.855   6.472   4.704 -0.6649  0.2086  1.8432
 4396SOL    HW217231   2.831   6.326   4.736 -3.0903  0.7052  2.4737
 4397SOL     OW17232   3.444   1.650   9.377  0.0884 -0.2808  0.4399
 4397SOL    HW117233   3.463   1.741   9.358 -0.4065  0.0261  1.3781
 4397SOL    HW217234   3.420   1.648   9.469  2.0942 -1.6895  0.9901
 4398SOL     OW17235   4.814   4.960   5.589 -0.6586  0.1995  1.0674
 4398SOL    HW117236   4.760   4.966   5.668 -1.3576 -0.7702  0.6841
 4398SOL    HW217237   4.831   4.866   5.579  1.3457  0.5089  1.3298
 4399SOL     OW17238   1.057   7.393   2.930  0.3072  0.6561 -0.0277
 4399SOL    HW117239   1.110   7.373   3.007 -0.6011 -0.5249  0.3148
 4399SOL    HW217240   0.969   7.411   2.965 -0.0933  0.1900 -0.7592
 4400SOL     OW17241   7.173   3.224   0.388  0.1051  0.8530 -0.5061
 4400SOL    HW117242   7.164   3.214   0.483 -4.2092 -1.3605 -0.8913
 4400SOL    HW217243   7.259   3.187   0.368 -0.2824 -2.0218  2.2905
 4401SOL     OW17244   5.709   4.210   5.780  0.9230  0.5917 -0.1894
 4401SOL    HW117245   5.794   4.216   5.823  1.1540 -0.5750 -0.4611
 4401SOL    HW217246   5.650   4.175   5.847  0.3584  2.4747  0.3610
 4402SOL     OW17247   2.145   8.309   9.313 -0.6307 -0.0988  0.0802
 4402SOL    HW117248   2.113   8.303   9.403  0.5221 -0.0329  0.5121
 4402SOL    HW217249   2.098   8.384   9.277 -1.1038 -0.1199  0.6252
 4403SOL     OW17250   1.301   3.062   2.746  1.1566 -0.1536 -0.4395
 4403SOL    HW117251   1.240   3.036   2.816  2.9385 -2.5210  0.3912
 4403SOL    HW217252   1.291   3.157   2.740 -2.9733 -0.3898 -0.8076
 4404SOL     OW17253   9.599   1.235   5.031 -0.1367  0.0212 -0.5870
 4404SOL    HW117254   9.536   1.297   4.995 -1.4138 -0.0276  1.4177
 4404SOL    HW217255   9.675   1.288   5.056  0.2416  0.2234 -2.0845
 4405SOL     OW17256   7.152   3.184   9.586  0.1464 -0.1295 -0.1147
 4405SOL    HW117257   7.132   3.146   9.500 -0.4533 -0.0075 -0.0315
 4405SOL    HW217258   7.105   3.267   9.588 -0.1822 -0.3235  0.4912
 4406SOL     OW17259   6.565   9.388   0.880  0.3699  0.7420  0.1222
 4406SOL    HW117260   6.568   9.472   0.926 -0.2396  1.2292 -0.7103
 4406SOL    HW217261   6.473   9.364   0.880  0.3344  0.8492 -1.0110
 4407SOL     OW17262   3.224   7.700   0.037 -0.0668  0.3984  0.3041
 4407SOL    HW117263   3.292   7.638   0.009  1.2044  1.9098 -0.1139
 4407SOL    HW217264   3.201   7.672   0.125  1.7567  0.3458  0.8131
 4408SOL     OW17265   1.615   3.565   4.621  0.3089  0.6281  0.6550
 4408SOL    HW117266   1.601   3.479   4.583 -2.0484  1.7162 -1.2239
 4408SOL    HW217267   1.708   3.583   4.605  0.2599 -0.5388 -1.2531
 4409SOL     OW17268   3.599   6.634   6.915 -0.1598 -0.5973  0.5480
 4409SOL    HW117269   3.587   6.553   6.866  1.9487 -0.8717  0.3794
 4409SOL    HW217270   3.543   6.698   6.872 -2.0860 -1.9905  0.8570
 4410SOL     OW17271   5.218   4.593   0.496  0.2577  0.6537 -0.2918
 4410SOL    HW117272   5.152   4.620   0.560  0.8393  0.5546  0.3663
 4410SOL    HW217273   5.183   4.622   0.412 -0.1854  1.4248  0.1452
 4411SOL     OW17274   7.334   2.426   3.882  0.0314  0.6050 -0.5941
 4411SOL    HW117275   7.422   2.392   3.898  0.5460  2.5529  1.0872
 4411SOL    HW217276   7.348   2.516   3.855 -1.4125  0.3761 -2.3111
 4412SOL     OW17277   7.405  10.108   3.770  0.1513 -0.7129 -0.5504
 4412SOL    HW117278   7.420  10.149   3.855 -2.2747  1.1127 -0.8604
 4412SOL    HW217279   7.492  10.085   3.738  1.3914  1.1733  1.1869
 4413SOL     OW17280   4.791   4.892   8.046 -0.1183  0.1003 -0.3817
 4413SOL    HW117281   4.817   4.984   8.053 -0.3727  0.1722 -0.3724
 4413SOL    HW217282   4.850   4.846   8.105 -1.2096  0.4992  1.0771
 4414SOL     OW17283   9.089   9.246   3.901  0.0071 -0.6150  0.2657
 4414SOL    HW117284   9.016   9.238   3.963 -1.2731  0.5425 -1.0095
 4414SOL    HW217285   9.105   9.340   3.896  0.7402 -0.7728 -0.4250
 4415SOL     OW17286   1.416   4.251   7.361 -0.1127 -0.0270  0.1718
 4415SOL    HW117287   1.367   4.320   7.405 -1.5352 -1.8244  1.5569
 4415SOL    HW217288   1.466   4.208   7.431 -1.2396 -1.9797 -0.1541
 4416SOL     OW17289   4.830   9.073   4.279 -0.0711 -0.5400  0.3888
 4416SOL    HW117290   4.842   9.057   4.185  0.9490  1.0120  0.2152
 4416SOL    HW217291   4.919   9.081   4.313 -0.4154  1.6025  0.9570
 4417SOL     OW17292   9.277   2.207   6.403  0.0106  0.3581  0.2638
 4417SOL    HW117293   9.235   2.263   6.338 -2.4925 -1.6908 -0.0607
 4417SOL    HW217294   9.325   2.142   6.351 -2.0500 -1.3256  0.3463
 4418SOL     OW17295   5.526   7.983   7.311  0.3580 -0.1409  0.0235
 4418SOL    HW117296   5.619   7.965   7.297  0.9209  2.6558 -0.2915
 4418SOL    HW217297   5.489   7.988   7.223  0.4174  0.9970  0.0483
 4419SOL     OW17298   7.336   2.246   1.550  0.2513  0.2823 -0.4106
 4419SOL    HW117299   7.307   2.244   1.459 -1.4307  0.4061  0.0916
 4419SOL    HW217300   7.409   2.184   1.552 -0.3137 -0.4832 -1.6435
 4420SOL     OW17301   9.133   1.185   8.996  0.3602  0.5110 -0.0972
 4420SOL    HW117302   9.228   1.188   9.005  0.2891  0.8602  0.6322
 4420SOL    HW217303   9.100   1.236   9.070 -0.5097 -2.5600  1.7977
 4421SOL     OW17304   9.273   2.385   3.375 -0.3493  0.5528 -0.6095
 4421SOL    HW117305   9.205   2.451   3.379 -0.2237  0.6213  2.2723
 4421SOL    HW217306   9.229   2.303   3.398  0.5069  0.6293  1.4779
 4422SOL     OW17307   0.273   1.168  10.164 -0.7198  0.0345 -0.9770
 4422SOL    HW117308   0.253   1.087  10.118 -0.6600 -0.1643 -0.6533
 4422SOL    HW217309   0.188   1.212  10.172 -0.6604  0.2871 -1.6828
 4423SOL     OW17310   4.394   7.236   0.763 -0.4720  0.1666 -0.3954
 4423SOL    HW117311   4.343   7.166   0.722  1.0192  0.0514 -2.1488
 4423SOL    HW217312   4.485   7.217   0.740  0.0190  2.3899 -0.5128
 4424SOL     OW17313   7.134   3.119  10.292 -0.1807 -0.3474  0.1482
 4424SOL    HW117314   7.134   3.198  10.237 -0.3352 -0.9170 -0.6770
 4424SOL    HW217315   7.125   3.047  10.231 -0.4097 -0.9952  0.9326
 4425SOL     OW17316   5.463   0.364   6.351  0.0152 -0.3242 -0.6135
 4425SOL    HW117317   5.528   0.434   6.342  0.0542 -0.2074  0.4175
 4425SOL    HW217318   5.499   0.291   6.300  0.7866 -0.1414 -0.3448
 4426SOL     OW17319   9.040   1.229   4.585  0.0762 -0.0883 -0.3137
 4426SOL    HW117320   9.047   1.311   4.537  1.2367 -0.1853 -0.3442
 4426SOL    HW217321   9.032   1.162   4.517  2.4728 -0.3009 -0.4690
 4427SOL     OW17322   3.149   5.755   3.364 -0.3367 -0.1426 -0.0276
 4427SOL    HW117323   3.087   5.739   3.435 -1.7686  0.4777 -1.0924
 4427SOL    HW217324   3.196   5.672   3.354 -2.0215 -1.1353 -0.1480
 4428SOL     OW17325   8.969  10.213   3.983 -0.1678  0.2417  0.6649
 4428SOL    HW117326   8.917  10.284   4.021 -0.8452  0.6040 -0.8810
 4428SOL    HW217327   8.915  10.178   3.913  0.6842 -0.9926  0.5912
 4429SOL     OW17328   0.145  10.045   2.910 -0.4794 -0.7992  0.2314
 4429SOL    HW117329   0.122   9.995   2.832 -0.4186  1.3469 -1.2564
 4429SOL    HW217330   0.131  10.136   2.885 -0.3016 -0.0145  2.7014
 4430SOL     OW17331   8.483   1.831   2.174  0.5621  0.1651  0.3751
 4430SOL    HW117332   8.404   1.816   2.122 -0.2782 -0.9291  1.9115
 4430SOL    HW217333   8.541   1.881   2.115 -0.6957 -0.2228 -1.2679
 4431SOL     OW17334   5.923   1.729   1.277 -0.4249 -0.0004  0.1201
 4431SOL    HW117335   5.905   1.771   1.193 -0.1518 -1.7303 -0.8551
 4431SOL    HW217336   6.010   1.689   1.266 -0.7037 -0.8820  0.9528
 4432SOL     OW17337   2.836   9.860   1.354  0.0515 -0.2253  0.1207
 4432SOL    HW117338   2.811   9.790   1.415  1.6005  0.0167  1.0995
 4432SOL    HW217339   2.894   9.916   1.405 -0.3357  1.2206 -0.9601
 4433SOL     OW17340   2.635   6.505   9.696 -0.2566 -0.1942 -0.3253
 4433SOL    HW117341   2.654   6.416   9.724  0.3877  0.0405 -0.0094
 4433SOL    HW217342   2.572   6.538   9.760 -1.1358 -0.6877 -0.9039
 4434SOL     OW17343   9.103   2.191   8.722  0.6313 -0.6305 -0.3394
 4434SOL    HW117344   9.193   2.222   8.733  0.5191 -0.9462  2.1363
 4434SOL    HW217345   9.071   2.180   8.812 -1.0215 -3.0203 -1.1380
 4435SOL     OW17346   0.459   5.521   5.581 -0.2701 -0.5777  0.3784
 4435SOL    HW117347   0.508   5.585   5.634  0.2427  0.1696 -0.9528
 4435SOL    HW217348   0.403   5.476   5.644  0.7242 -0.1130  1.6507
 4436SOL     OW17349   2.122   4.928   2.663 -0.2545 -0.0597  0.0088
 4436SOL    HW117350   2.056   4.896   2.601 -1.6656 -1.2035  1.9710
 4436SOL    HW217351   2.147   4.850   2.713 -1.4663  1.2387  2.8678
 4437SOL     OW17352   3.513   8.185   7.739 -0.0718 -0.1492 -0.6503
 4437SOL    HW117353   3.544   8.254   7.679 -1.3826  1.1240  0.0672
 4437SOL    HW217354   3.578   8.116   7.731  0.4486  0.4879 -2.6232
 4438SOL     OW17355   6.694   2.514   6.246 -0.7191 -0.3579  0.5678
 4438SOL    HW117356   6.665   2.452   6.179 -0.9713 -1.2951  1.5041
 4438SOL    HW217357   6.615   2.563   6.269 -0.5990  0.0675  0.0755
 4439SOL     OW17358   7.922   9.984   7.713  0.1486  0.4851  0.0838
 4439SOL    HW117359   7.905  10.066   7.758  0.2399 -0.0358  1.1060
 4439SOL    HW217360   8.017   9.973   7.716  0.0543 -0.2152  1.0082
 4440SOL     OW17361   2.631   6.610   3.883  0.0548 -0.0001  0.6498
 4440SOL    HW117362   2.709   6.626   3.830  1.1494 -0.6125  2.0147
 4440SOL    HW217363   2.558   6.632   3.826  1.1657 -0.9017 -1.2059
 4441SOL     OW17364   7.893   7.653   5.725  0.2468  0.4871 -0.2965
 4441SOL    HW117365   7.940   7.672   5.644 -0.4012  2.3991 -0.2840
 4441SOL    HW217366   7.920   7.564   5.749  2.3525  0.8099 -1.2764
 4442SOL     OW17367   6.543   8.482   6.968  0.1477 -0.4399  0.0075
 4442SOL    HW117368   6.598   8.435   7.031 -0.3005 -0.0924  0.6599
 4442SOL    HW217369   6.460   8.495   7.013  0.3592  1.2699 -0.0381
 4443SOL     OW17370   5.515   6.822   1.778 -0.4324 -0.0512  0.4398
 4443SOL    HW117371   5.557   6.885   1.719 -1.2855  1.0629  0.9974
 4443SOL    HW217372   5.432   6.802   1.735 -0.3096 -0.5698  0.4313
 4444SOL     OW17373   9.761   8.110   8.472 -0.4818  0.2973  0.0761
 4444SOL    HW117374   9.800   8.055   8.539 -0.2712 -0.7685 -0.9005
 4444SOL    HW217375   9.670   8.121   8.500 -0.3695 -0.0471  0.5865
 4445SOL     OW17376   8.158   0.302   4.173 -0.3248 -0.4289 -0.2870
 4445SOL    HW117377   8.084   0.361   4.185 -0.4842 -0.5323 -0.7527
 4445SOL    HW217378   8.173   0.301   4.078 -0.9826 -1.9383 -0.3954
 4446SOL     OW17379   5.462   5.651   9.549  0.1306 -0.3406 -0.6170
 4446SOL    HW117380   5.416   5.673   9.631  0.4055  0.1155 -0.5797
 4446SOL    HW217381   5.399   5.675   9.480 -1.2998 -3.4144 -0.5501
 4447SOL     OW17382   2.682   6.876   1.338  0.5708  0.0521 -0.2654
 4447SOL    HW117383   2.668   6.782   1.336 -0.0743  0.1493 -1.8046
 4447SOL    HW217384   2.601   6.911   1.376  2.1987 -0.1554  3.8579
 4448SOL     OW17385   4.919   3.843   7.339  0.5999  0.2228  0.4179
 4448SOL    HW117386   4.857   3.848   7.266 -0.3744 -0.2550  1.1937
 4448SOL    HW217387   4.875   3.886   7.412  1.6773  0.9332  0.6771
 4449SOL     OW17388   7.333   5.696   6.755 -0.1337 -0.1618  0.5884
 4449SOL    HW117389   7.298   5.666   6.671  2.8174 -1.5334 -0.2665
 4449SOL    HW217390   7.352   5.616   6.803  0.6788  0.5459  1.4807
 4450SOL     OW17391   6.198   5.989   2.814  0.1588  0.1679 -0.6593
 4450SOL    HW117392   6.268   5.954   2.759  0.7991  0.4711 -0.0655
 4450SOL    HW217393   6.134   5.918   2.820  0.9817 -0.5659 -0.2580
 4451SOL     OW17394   5.548   1.903   6.765  0.3034  0.6614  0.6439
 4451SOL    HW117395   5.574   1.975   6.708  0.2915  0.8580  0.8842
 4451SOL    HW217396   5.452   1.905   6.764  0.2748 -0.2819 -0.5191
 4452SOL     OW17397   2.552   4.378   6.431  0.2173  0.4109  0.5048
 4452SOL    HW117398   2.566   4.379   6.337  1.2207 -0.8587  0.6025
 4452SOL    HW217399   2.465   4.416   6.444 -0.7774 -1.1871 -1.1016
 4453SOL     OW17400   0.855   2.746   0.755 -0.2406  0.8442 -0.6396
 4453SOL    HW117401   0.909   2.789   0.689  1.8194  0.8744  0.9516
 4453SOL    HW217402   0.859   2.653   0.732  1.0898  0.7611 -0.2068
 4454SOL     OW17403   9.759   4.623   7.453 -0.0348 -0.1763 -0.3872
 4454SOL    HW117404   9.705   4.580   7.519 -0.7948  0.8256 -0.3327
 4454SOL    HW217405   9.835   4.655   7.500  0.9236 -2.0785 -0.5600
 4455SOL     OW17406   4.417   8.296   2.137 -0.6254 -0.0623 -0.1256
 4455SOL    HW117407   4.510   8.311   2.117 -1.0537  0.8180 -1.6067
 4455SOL    HW217408   4.379   8.383   2.141 -1.7280 -0.4527 -1.3304
 4456SOL     OW17409   1.474   2.978   3.176 -0.6145  0.0492  0.2151
 4456SOL    HW117410   1.568   2.967   3.161 -0.7445  0.7794 -1.2459
 4456SOL    HW217411   1.460   2.942   3.264  1.2400  1.0087  0.9688
 4457SOL     OW17412   9.225   9.500   4.481  0.3888 -0.3311  0.5938
 4457SOL    HW117413   9.266   9.565   4.537 -1.4599 -0.5006  2.2415
 4457SOL    HW217414   9.161   9.456   4.537 -2.3059  0.1555 -1.8336
 4458SOL     OW17415   1.688   6.576   8.485 -0.0669 -0.2733 -0.3072
 4458SOL    HW117416   1.680   6.585   8.580  0.9372  1.0215 -0.3042
 4458SOL    HW217417   1.782   6.577   8.469 -0.2346  0.2580 -1.3613
 4459SOL     OW17418   8.211   5.048   6.425 -0.3671 -0.6884 -0.0025
 4459SOL    HW117419   8.225   5.142   6.411  0.2747 -0.8558 -0.5974
 4459SOL    HW217420   8.213   5.036   6.520  0.1243 -0.1752  0.0563
 4460SOL     OW17421   0.205   0.639   9.148 -0.3685  0.2134 -0.0170
 4460SOL    HW117422   0.148   0.645   9.224  1.9962 -0.7180  1.9680
 4460SOL    HW217423   0.283   0.689   9.172 -0.1946  1.3425 -2.5632
 4461SOL     OW17424   7.383   8.754   8.801  0.6881  0.1117  0.1776
 4461SOL    HW117425   7.318   8.736   8.868  0.9934 -0.6524  0.2814
 4461SOL    HW217426   7.362   8.694   8.730  1.2281 -0.0780  0.1764
 4462SOL     OW17427   7.260   3.399   8.130 -0.4091 -0.3003  0.2065
 4462SOL    HW117428   7.229   3.443   8.051 -0.2744  1.1598  0.9380
 4462SOL    HW217429   7.206   3.435   8.200 -0.2118 -1.2336  0.8502
 4463SOL     OW17430   6.307   6.070   5.260  0.0496  0.4861 -0.5593
 4463SOL    HW117431   6.365   6.146   5.254 -0.6127  1.0100 -0.4179
 4463SOL    HW217432   6.366   5.997   5.276  0.6086  1.1445  0.5008
 4464SOL     OW17433   8.154   5.016   7.040 -0.6555 -0.3515  0.4148
 4464SOL    HW117434   8.065   5.009   7.005 -0.3693 -0.4624 -0.3208
 4464SOL    HW217435   8.188   4.927   7.037 -0.0741 -0.1172 -0.5561
 4465SOL     OW17436   6.351   3.362   2.266  0.2354 -0.1142 -0.3703
 4465SOL    HW117437   6.390   3.442   2.300  0.3500 -0.7342  1.0259
 4465SOL    HW217438   6.267   3.390   2.230 -0.0567  0.5480  0.7596
 4466SOL     OW17439   9.310   0.535   0.002 -0.2237  0.6449 -0.1870
 4466SOL    HW117440   9.367   0.602   0.039  0.2731  0.0922  0.0630
 4466SOL    HW217441   9.280   0.572  -0.081 -0.3211  1.3621  0.1643
 4467SOL     OW17442   9.983   4.615   0.758 -0.0862  0.1278 -0.3328
 4467SOL    HW117443   9.993   4.709   0.749  1.7923 -0.1298 -1.4761
 4467SOL    HW217444   9.898   4.596   0.718  0.1159  1.1930 -1.3304
 4468SOL     OW17445   0.877   1.875   6.968 -0.4317 -0.3439  0.0412
 4468SOL    HW117446   0.967   1.840   6.966 -0.0297  0.6772 -0.4065
 4468SOL    HW217447   0.847   1.860   7.057  0.1141 -0.8796  0.1411
 4469SOL     OW17448   2.117  10.100   8.823 -0.2416  0.3979 -0.1462
 4469SOL    HW117449   2.181  10.067   8.759 -0.1192  1.1006 -0.3900
 4469SOL    HW217450   2.169  10.121   8.900 -0.6310 -2.4325  1.0154
 4470SOL     OW17451   1.193   2.162   7.763  0.7422 -0.3417  0.0548
 4470SOL    HW117452   1.228   2.087   7.812  2.1232  0.5511  0.4886
 4470SOL    HW217453   1.130   2.202   7.822  1.3468 -0.1104  0.5526
 4471SOL     OW17454   2.309   6.526   8.707 -0.3570  0.1159  0.3194
 4471SOL    HW117455   2.368   6.470   8.758 -0.4599 -0.2524  0.0395
 4471SOL    HW217456   2.367   6.592   8.668  0.1657 -1.2591 -1.3655
 4472SOL     OW17457   0.105   4.680   4.634  0.3217 -0.8559 -0.2156
 4472SOL    HW117458   0.184   4.710   4.590 -0.7973  0.7024 -1.2872
 4472SOL    HW217459   0.053   4.638   4.565  0.1369 -1.7508  0.4416
 4473SOL     OW17460   0.435   0.631   4.499 -0.0622 -0.3655 -0.4870
 4473SOL    HW117461   0.377   0.626   4.575  2.5524  0.2040  1.6985
 4473SOL    HW217462   0.415   0.552   4.448 -0.9275 -1.5341  1.5450
 4474SOL     OW17463   0.550   6.557   2.392  0.5264 -0.3460  0.3481
 4474SOL    HW117464   0.548   6.624   2.325  0.1502 -0.4660  0.2378
 4474SOL    HW217465   0.489   6.490   2.361 -0.4410  0.0697  1.2950
 4475SOL     OW17466  10.146   9.540   7.060 -0.0564 -0.4167 -0.2617
 4475SOL    HW117467  10.213   9.507   7.120 -0.6858  0.5267  0.9881
 4475SOL    HW217468  10.195   9.594   6.998  0.4443 -0.3789  0.1556
 4476SOL     OW17469   3.009   1.564   8.154 -0.1335  0.0785  0.0078
 4476SOL    HW117470   3.005   1.631   8.223  0.7376 -1.5053  1.6783
 4476SOL    HW217471   3.088   1.586   8.104  1.0283 -0.4983  1.4908
 4477SOL     OW17472   4.286   0.788   2.533 -0.6520 -0.1108 -0.1694
 4477SOL    HW117473   4.246   0.707   2.502  0.0070 -0.6473  0.3440
 4477SOL    HW217474   4.344   0.815   2.462 -1.4065  0.3069 -0.6369
 4478SOL     OW17475   1.524   9.748   0.714  0.3743 -0.1267  0.3535
 4478SOL    HW117476   1.558   9.741   0.803  0.1576 -1.6360  0.3332
 4478SOL    HW217477   1.595   9.717   0.658  0.5520  0.9207 -0.0319
 4479SOL     OW17478   8.431   1.240   2.781 -0.4042 -0.2235  0.4704
 4479SOL    HW117479   8.447   1.315   2.838 -0.1903 -0.0335  0.1653
 4479SOL    HW217480   8.519   1.212   2.754 -0.5357  0.4272 -0.7113
 4480SOL     OW17481   3.700   5.937   9.946  0.1547  0.2120 -0.2058
 4480SOL    HW117482   3.787   5.907   9.919 -0.1894 -0.6448 -0.3736
 4480SOL    HW217483   3.661   5.972   9.866 -0.0110 -0.2604 -0.3305
 4481SOL     OW17484   3.071   1.954   5.231  0.5412  0.9236 -0.1671
 4481SOL    HW117485   3.121   1.999   5.162 -1.2621  1.2014 -1.3719
 4481SOL    HW217486   3.069   1.863   5.203 -0.5842  1.1156 -0.7729
 4482SOL     OW17487   7.951   7.200   0.789  1.0103  0.3031  0.4723
 4482SOL    HW117488   7.989   7.240   0.867  1.4659  0.3689  0.2225
 4482SOL    HW217489   7.966   7.106   0.801 -2.2796 -0.1462  2.2667
 4483SOL     OW17490   6.161   1.412   8.993  0.2841  0.8902  0.0591
 4483SOL    HW117491   6.253   1.392   8.975  0.0457  0.5604 -0.8656
 4483SOL    HW217492   6.142   1.486   8.936 -0.9954 -1.3132 -2.6139
 4484SOL     OW17493   7.253   3.073   7.253  0.4494  0.2414  0.4973
 4484SOL    HW117494   7.276   3.006   7.317  1.6721 -1.4083 -1.5414
 4484SOL    HW217495   7.304   3.051   7.175 -0.2186  2.7145 -0.7642
 4485SOL     OW17496   1.830   9.720   2.956 -1.2056 -0.7803  0.0236
 4485SOL    HW117497   1.782   9.689   2.880  0.8698  0.4762 -1.9177
 4485SOL    HW217498   1.847   9.812   2.938  0.0502 -0.6530  1.6148
 4486SOL     OW17499   6.608   3.554   3.045  0.0711 -0.2966  0.0774
 4486SOL    HW117500   6.675   3.564   2.977  0.4142 -0.3004  0.4103
 4486SOL    HW217501   6.575   3.465   3.033 -0.0382 -0.2142 -0.2359
 4487SOL     OW17502   5.320   6.280   8.112  0.5044  0.1414  0.3532
 4487SOL    HW117503   5.343   6.290   8.205  0.4156 -1.4447  0.5698
 4487SOL    HW217504   5.398   6.240   8.072  0.3736  0.3914 -0.1607
 4488SOL     OW17505   1.655   4.206   8.490 -0.1894  0.1700 -0.1558
 4488SOL    HW117506   1.607   4.288   8.496 -1.4509 -0.5260 -0.4045
 4488SOL    HW217507   1.625   4.166   8.408  2.3044  0.6114 -1.3856
 4489SOL     OW17508   4.185   7.733   3.054 -0.6428  0.8006  0.6069
 4489SOL    HW117509   4.280   7.734   3.042 -0.2698 -3.4205  1.5560
 4489SOL    HW217510   4.150   7.743   2.965  0.6983  1.3946  0.1080
 4490SOL     OW17511   6.266   0.646   3.960 -0.0663 -0.0739 -0.1347
 4490SOL    HW117512   6.307   0.680   4.039 -1.7203  0.0712  0.6994
 4490SOL    HW217513   6.325   0.577   3.930 -0.0690 -1.0983  2.0452
 4491SOL     OW17514   5.072   1.085   8.386  0.1883 -0.0796 -0.0458
 4491SOL    HW117515   5.058   1.059   8.477 -0.3450  0.7972  0.1361
 4491SOL    HW217516   5.157   1.046   8.363  0.9257  0.6791  1.2188
 4492SOL     OW17517  10.023   8.455   4.975 -0.2707  0.6943 -0.1686
 4492SOL    HW117518  10.103   8.426   5.018  0.3167  0.0718 -1.6265
 4492SOL    HW217519   9.959   8.388   4.996  0.0729  0.2758 -0.4403
 4493SOL     OW17520   9.230   3.676   3.627  0.6912  0.4063 -0.3988
 4493SOL    HW117521   9.164   3.608   3.613  1.1849 -0.7500  2.3258
 4493SOL    HW217522   9.242   3.715   3.540 -1.7315 -0.9948 -1.4880
 4494SOL     OW17523   2.748   7.910   3.617 -0.2450  0.5075 -0.0947
 4494SOL    HW117524   2.776   7.951   3.699  0.8524  1.0409 -0.7099
 4494SOL    HW217525   2.827   7.868   3.582 -0.7762 -0.0119 -0.7084
 4495SOL     OW17526   1.753   1.730   7.580  0.1267  0.2326  0.5489
 4495SOL    HW117527   1.706   1.806   7.615  1.4195  1.2832  0.0919
 4495SOL    HW217528   1.760   1.747   7.486 -2.4361 -2.0741 -0.2131
 4496SOL     OW17529   2.469   1.599   3.149  0.0102 -0.2202  0.4580
 4496SOL    HW117530   2.392   1.648   3.120 -0.0555  0.4556  1.7145
 4496SOL    HW217531   2.541   1.663   3.145  0.0209 -0.1349  1.6186
 4497SOL     OW17532   5.798   8.798   5.206  0.5471  0.0533  0.0004
 4497SOL    HW117533   5.825   8.757   5.124 -1.2248 -1.1602 -0.0338
 4497SOL    HW217534   5.864   8.771   5.269  0.5189 -1.1925 -0.4788
 4498SOL     OW17535   7.653   1.284   5.613  0.4711 -0.2405  0.1187
 4498SOL    HW117536   7.709   1.305   5.538 -0.0387 -0.1020 -0.2273
 4498SOL    HW217537   7.674   1.193   5.634  0.8890 -0.1603  0.0450
 4499SOL     OW17538   6.978   8.167   0.527  0.6450  0.1721 -0.3479
 4499SOL    HW117539   6.891   8.156   0.566  1.4527 -2.2497  0.9679
 4499SOL    HW217540   6.980   8.258   0.498 -1.9752  0.5582  0.4143
 4500SOL     OW17541   4.971   5.331   2.373 -0.0742  0.5976  0.2624
 4500SOL    HW117542   4.994   5.317   2.465  0.1468 -0.3383  0.0763
 4500SOL    HW217543   4.990   5.424   2.358  0.7663  0.5495  0.9179
 4501SOL     OW17544   7.214   9.272   6.163 -0.1066 -0.1405 -0.4902
 4501SOL    HW117545   7.188   9.253   6.253 -0.9114  0.5396 -0.5702
 4501SOL    HW217546   7.133   9.292   6.118  0.4547  1.3102 -0.9243
 4502SOL     OW17547   8.224   9.113  10.081  0.0321 -0.4350 -0.4660
 4502SOL    HW117548   8.265   9.162  10.010  1.0263  0.6864  0.8219
 4502SOL    HW217549   8.282   9.127  10.156 -0.6083 -2.1443  0.4111
 4503SOL     OW17550   7.058   9.994   5.886 -0.1855  0.6500 -0.0752
 4503SOL    HW117551   7.066   9.949   5.802  3.1070  2.7243 -1.0606
 4503SOL    HW217552   7.146   9.993   5.922 -1.3888  0.3514  3.1657
 4504SOL     OW17553  10.037   4.274   3.500 -0.3552  0.4054 -0.6320
 4504SOL    HW117554  10.112   4.328   3.527 -0.3673  0.1647 -0.1060
 4504SOL    HW217555   9.960   4.327   3.522 -0.4274 -0.5076  1.4738
 4505SOL     OW17556   3.439   4.116   7.678  0.1480  0.4631 -0.2565
 4505SOL    HW117557   3.453   4.166   7.758  0.6000  1.3278 -0.8657
 4505SOL    HW217558   3.525   4.081   7.656 -0.3305 -1.5142  0.7255
 4506SOL     OW17559   4.256   1.806   5.743 -0.0579 -0.2092 -0.3658
 4506SOL    HW117560   4.170   1.789   5.780  1.0992 -0.9806  2.2241
 4506SOL    HW217561   4.285   1.721   5.710  1.0569 -0.8275  2.0027
 4507SOL     OW17562   0.175   8.506   8.227 -0.1061  0.4751  0.2124
 4507SOL    HW117563   0.217   8.496   8.312  0.1376  0.4587  0.0921
 4507SOL    HW217564   0.115   8.432   8.220  1.6044 -0.8969 -0.6324
 4508SOL     OW17565   7.946   7.583   3.519  0.0471 -0.5749 -0.0568
 4508SOL    HW117566   7.977   7.631   3.442  1.1329 -0.9376  0.1382
 4508SOL    HW217567   7.990   7.498   3.514  0.4514 -0.4636  1.1616
 4509SOL     OW17568   8.135   7.328   0.960 -0.1996  0.0598 -0.2816
 4509SOL    HW117569   8.163   7.402   0.905  0.9631  0.0949  0.3272
 4509SOL    HW217570   8.216   7.293   0.996 -0.8046 -1.0761  0.0150
 4510SOL     OW17571   9.663   6.245   6.800  0.2032 -0.8976 -0.2760
 4510SOL    HW117572   9.662   6.242   6.896  1.9357  0.1202 -0.1868
 4510SOL    HW217573   9.574   6.221   6.775 -1.0506  1.3046  1.6748
 4511SOL     OW17574   5.161   6.054   5.590 -0.2379 -0.4964 -0.4123
 4511SOL    HW117575   5.242   6.092   5.625 -0.4839 -0.3101 -0.0376
 4511SOL    HW217576   5.125   6.123   5.535  0.1359 -0.7804 -1.0215
 4512SOL     OW17577   4.979   9.134   7.446 -0.5079  0.2291  0.0706
 4512SOL    HW117578   5.011   9.088   7.524 -2.0574  0.9736  1.2281
 4512SOL    HW217579   4.998   9.075   7.373  1.3939 -0.3024  0.9324
 4513SOL     OW17580   8.650   4.151   7.476  0.0543 -0.3402  0.4006
 4513SOL    HW117581   8.585   4.084   7.456 -2.2053  1.8474 -0.2259
 4513SOL    HW217582   8.621   4.188   7.560  0.8036  0.3144  0.3793
 4514SOL     OW17583   0.681   0.648   7.296  0.2254  0.1310 -0.4524
 4514SOL    HW117584   0.690   0.743   7.299 -0.7858  0.2378 -0.2818
 4514SOL    HW217585   0.750   0.615   7.353 -0.8987  0.8826  1.4534
 4515SOL     OW17586   8.033  10.150   7.976 -0.2365  0.2171  0.2244
 4515SOL    HW117587   8.103  10.101   7.933 -0.3102 -0.0254  0.3772
 4515SOL    HW217588   8.064  10.160   8.066 -0.0626  0.7600  0.1057
 4516SOL     OW17589   9.292   5.138   8.112  0.2406 -0.0067  0.5368
 4516SOL    HW117590   9.250   5.222   8.131 -0.1630 -0.0335 -0.2096
 4516SOL    HW217591   9.352   5.157   8.040 -0.4566 -0.5276 -0.1928
 4517SOL     OW17592   4.695   0.177   6.947 -0.0819  0.2418  0.2602
 4517SOL    HW117593   4.637   0.250   6.922  1.2677  1.1373 -0.3328
 4517SOL    HW217594   4.701   0.123   6.869 -0.9483 -0.4451  0.6501
 4518SOL     OW17595   7.972   7.777   1.509  0.3345  0.1843 -0.3061
 4518SOL    HW117596   7.996   7.839   1.440  0.8758 -0.6158 -0.8597
 4518SOL    HW217597   7.932   7.703   1.463  1.4956 -0.7545  0.1133
 4519SOL     OW17598   5.513   0.546   2.395 -0.5024 -0.5253 -0.1653
 4519SOL    HW117599   5.587   0.535   2.334  0.6907  2.3304  0.6048
 4519SOL    HW217600   5.548   0.517   2.479 -0.7433 -0.5245 -0.0664
 4520SOL     OW17601   3.438   1.032   3.332  0.0103 -0.1066  0.1387
 4520SOL    HW117602   3.403   0.952   3.293 -2.9966 -0.2628  2.7427
 4520SOL    HW217603   3.470   1.004   3.418 -0.9178  1.4336  1.0198
 4521SOL     OW17604   0.492   3.654   6.615 -0.3282 -0.3532  0.9845
 4521SOL    HW117605   0.422   3.625   6.673 -1.2622 -1.9316 -0.8360
 4521SOL    HW217606   0.449   3.712   6.552  0.4736  0.4997  1.1920
 4522SOL     OW17607   1.149   5.007   2.432 -0.0238 -0.3945  0.4158
 4522SOL    HW117608   1.203   4.939   2.473  1.7553 -0.5621 -2.0238
 4522SOL    HW217609   1.062   4.967   2.425  0.6795 -1.9770  0.1424
 4523SOL     OW17610   5.128   8.792   4.136  0.2314 -0.2792  0.2216
 4523SOL    HW117611   5.190   8.834   4.195  0.8622 -1.1578  0.1962
 4523SOL    HW217612   5.136   8.699   4.154  2.0631 -0.8225 -2.7392
 4524SOL     OW17613   2.338   0.346   1.097  0.0499  0.0142  0.1500
 4524SOL    HW117614   2.356   0.362   1.190  1.7427 -1.2721  0.1079
 4524SOL    HW217615   2.384   0.264   1.078 -0.3030  0.2234 -1.8212
 4525SOL     OW17616   8.750   0.179   8.703  0.0284 -0.2570 -0.6503
 4525SOL    HW117617   8.755   0.103   8.645 -0.8350 -1.2578  0.5017
 4525SOL    HW217618   8.825   0.170   8.761 -0.3375 -0.5254 -0.2055
 4526SOL     OW17619   4.325   0.784   8.106  0.2397  0.2435 -0.7776
 4526SOL    HW117620   4.333   0.849   8.175 -0.3117  1.0165 -1.4213
 4526SOL    HW217621   4.266   0.718   8.141  0.5828  0.2251 -0.2245
 4527SOL     OW17622   8.092   1.225   6.761  0.1148  0.2007 -0.6632
 4527SOL    HW117623   8.082   1.171   6.682  0.2204  0.6098 -0.9630
 4527SOL    HW217624   8.177   1.268   6.749 -0.5508  1.4367 -1.0585
 4528SOL     OW17625   1.332   4.937   3.595  0.4155 -0.3328 -0.1595
 4528SOL    HW117626   1.323   5.008   3.531  0.3348  0.5661  0.8271
 4528SOL    HW217627   1.305   4.976   3.678  1.0500 -1.3153  0.5300
 4529SOL     OW17628   1.268  10.157   9.423  0.2402  0.7025 -0.1491
 4529SOL    HW117629   1.240  10.129   9.336  0.7180 -1.5746  0.3623
 4529SOL    HW217630   1.187  10.169   9.472  0.0041 -0.2788 -0.2778
 4530SOL     OW17631   3.184   1.726   3.423 -0.8482 -0.2403  0.6157
 4530SOL    HW117632   3.124   1.708   3.350  1.6544 -1.4392 -1.3168
 4530SOL    HW217633   3.214   1.640   3.451  1.0481  0.3325  0.4948
 4531SOL     OW17634   9.803   6.386   9.118 -0.3337 -0.3738  0.5367
 4531SOL    HW117635   9.811   6.450   9.189 -0.8052  0.9531 -0.5426
 4531SOL    HW217636   9.720   6.341   9.135 -2.2774  2.3027 -0.8769
 4532SOL     OW17637   8.564   0.592   1.784  0.2382 -0.3234  0.0548
 4532SOL    HW117638   8.529   0.514   1.828 -1.0999 -0.6008 -1.4284
 4532SOL    HW217639   8.563   0.570   1.691 -0.6401  1.6321 -0.4487
 4533SOL     OW17640   7.916   4.304   4.923  0.0282 -0.1282 -0.4098
 4533SOL    HW117641   7.864   4.377   4.956  0.6823  1.6029 -2.9203
 4533SOL    HW217642   8.005   4.321   4.956 -0.3559 -1.7025  1.7354
 4534SOL     OW17643   5.023   8.108   9.045 -0.5193 -0.2665  0.1158
 4534SOL    HW117644   5.068   8.067   8.971 -1.9938  0.0247 -0.9930
 4534SOL    HW217645   4.979   8.035   9.089 -0.2924 -0.3290  0.2431
 4535SOL     OW17646   5.471   8.510   7.064 -0.0158  0.0202 -0.3528
 4535SOL    HW117647   5.413   8.544   7.132  0.6521  1.2034 -0.3603
 4535SOL    HW217648   5.499   8.587   7.015 -0.5548 -0.7973 -2.0516
 4536SOL     OW17649   0.944   0.310   9.267 -0.0519  0.2755 -0.2803
 4536SOL    HW117650   1.007   0.293   9.337 -0.7544 -1.2749  0.0345
 4536SOL    HW217651   0.997   0.313   9.188  0.7207  1.7737  0.2506
 4537SOL     OW17652   9.143   3.064   8.332 -0.0862  0.1606 -0.0648
 4537SOL    HW117653   9.185   3.095   8.252  0.0144  0.9525  0.2864
 4537SOL    HW217654   9.079   3.000   8.303  0.1336  0.2477 -0.7544
 4538SOL     OW17655   4.432   2.635   1.255  0.2895  0.3061  0.1870
 4538SOL    HW117656   4.519   2.607   1.227 -0.3917 -0.0590 -1.6601
 4538SOL    HW217657   4.420   2.593   1.340  0.9726 -1.6099 -0.6102
 4539SOL     OW17658   5.361   3.337   7.357 -0.3423  0.4630  0.3731
 4539SOL    HW117659   5.449   3.359   7.324 -0.0512  0.6514  1.2423
 4539SOL    HW217660   5.327   3.274   7.294  0.5989  0.0504  0.2574
 4540SOL     OW17661   5.740   0.364   8.266  1.0312 -0.1237  0.2612
 4540SOL    HW117662   5.799   0.296   8.297  0.9106 -0.2802  0.1519
 4540SOL    HW217663   5.718   0.338   8.176  1.5371  0.4345 -0.0322
 4541SOL     OW17664   8.402   9.108   2.850 -0.0232  0.4767 -0.2390
 4541SOL    HW117665   8.446   9.172   2.907 -1.7293  1.1713  0.3693
 4541SOL    HW217666   8.351   9.054   2.910 -0.9270  0.4571 -1.0022
 4542SOL     OW17667   1.029   0.906   7.414 -0.6200 -0.3370 -0.3362
 4542SOL    HW117668   0.961   0.950   7.465  1.0999  0.4007  1.4696
 4542SOL    HW217669   1.038   0.959   7.335 -1.3688  0.2003 -0.0685
 4543SOL     OW17670   8.200   9.889   9.597  0.2954  0.1622  0.6540
 4543SOL    HW117671   8.158   9.843   9.669 -0.6631 -0.1796 -0.0906
 4543SOL    HW217672   8.151   9.971   9.589 -1.1787 -0.8019 -1.0589
 4544SOL     OW17673   1.095   7.517   7.040 -0.4036 -0.6658  0.4626
 4544SOL    HW117674   1.014   7.492   6.996  0.2382 -0.6385 -0.7573
 4544SOL    HW217675   1.133   7.585   6.984 -0.4185  0.6202  1.9388
 4545SOL     OW17676   4.213   8.978   8.664  0.3569  0.5286  0.1422
 4545SOL    HW117677   4.285   8.972   8.601  1.1208  1.1805  0.9380
 4545SOL    HW217678   4.233   8.912   8.730 -0.5450 -0.2908 -0.3622
 4546SOL     OW17679   6.300   9.622   9.095  0.0407  0.6449 -0.3053
 4546SOL    HW117680   6.260   9.705   9.122  0.4625  1.0316 -0.8491
 4546SOL    HW217681   6.241   9.587   9.028 -0.4070  0.2475  0.2893
 4547SOL     OW17682   0.628   6.136   1.071  0.1278  0.0663 -0.2270
 4547SOL    HW117683   0.551   6.192   1.085  1.2806  1.7543 -0.3495
 4547SOL    HW217684   0.636   6.086   1.152 -0.3696  0.7995  0.2917
 4548SOL     OW17685   8.065   6.190   9.904  0.1358  0.1459  0.6295
 4548SOL    HW117686   8.040   6.199   9.813  1.3618  0.3961  0.2966
 4548SOL    HW217687   8.114   6.107   9.908  0.3068  0.2594  1.0072
 4549SOL     OW17688   2.936   5.165   2.420 -0.7565 -0.5902  0.1327
 4549SOL    HW117689   2.910   5.076   2.441 -0.9834 -0.4448  0.4680
 4549SOL    HW217690   3.032   5.161   2.412 -0.6295 -0.6023  1.4519
 4550SOL     OW17691   5.180   3.130   5.268  0.7679  0.1782 -0.2779
 4550SOL    HW117692   5.096   3.109   5.227 -0.1841  2.1182  0.5844
 4550SOL    HW217693   5.177   3.087   5.353  0.7953  0.0043 -0.3630
 4551SOL     OW17694   5.751   6.367   9.323  0.1595 -0.1097 -0.0714
 4551SOL    HW117695   5.664   6.338   9.351 -0.3796  1.6576  0.1716
 4551SOL    HW217696   5.769   6.445   9.376  1.2113  0.4766 -1.2474
 4552SOL     OW17697   4.626   8.202   0.575 -0.2873 -0.1488 -0.1949
 4552SOL    HW117698   4.638   8.208   0.480 -1.6498 -1.4430 -0.4682
 4552SOL    HW217699   4.628   8.293   0.605 -0.7970  0.3415 -1.5877
 4553SOL     OW17700   7.398   8.851   6.587  0.2186 -0.2483 -0.2904
 4553SOL    HW117701   7.383   8.838   6.681 -1.3134  0.2937 -0.4437
 4553SOL    HW217702   7.372   8.768   6.546 -1.0158  0.1914 -0.4157
 4554SOL     OW17703   0.850   7.441   7.272  0.3056 -0.1192 -0.1796
 4554SOL    HW117704   0.806   7.516   7.232  1.5558  0.3424 -0.7603
 4554SOL    HW217705   0.824   7.367   7.217  0.0633  0.1061 -0.3736
 4555SOL     OW17706   3.407   5.530   0.897  0.2427 -0.7994 -0.0122
 4555SOL    HW117707   3.435   5.444   0.928  1.2272 -0.7323 -0.6684
 4555SOL    HW217708   3.489   5.576   0.877 -0.3223 -0.3329 -1.3290
 4556SOL     OW17709   8.441   5.012   8.270 -0.1587  0.1877 -0.0189
 4556SOL    HW117710   8.502   4.938   8.274  0.4118  0.6220 -0.4444
 4556SOL    HW217711   8.466   5.067   8.344  1.0855  1.1853 -1.1126
 4557SOL     OW17712   5.296   0.458   1.109 -0.6635  0.5668  0.0631
 4557SOL    HW117713   5.279   0.532   1.051 -2.6579 -1.9910 -3.0405
 4557SOL    HW217714   5.216   0.405   1.103  1.2045 -2.5772  0.8179
 4558SOL     OW17715   1.433   9.470   6.396  0.1750 -0.5861 -0.2736
 4558SOL    HW117716   1.430   9.418   6.477 -1.1947 -0.8064 -0.4269
 4558SOL    HW217717   1.368   9.428   6.339 -1.3387  1.5267 -0.2360
 4559SOL     OW17718   7.267   0.179   1.221 -0.0322  0.3476 -0.4173
 4559SOL    HW117719   7.328   0.242   1.183  4.8866 -3.4409  0.1838
 4559SOL    HW217720   7.230   0.133   1.146 -1.1359  1.7285 -0.7583
 4560SOL     OW17721   8.473   7.600   5.863  0.3129 -0.4228  0.2515
 4560SOL    HW117722   8.405   7.571   5.803  0.9754 -0.1770 -0.6363
 4560SOL    HW217723   8.430   7.603   5.949 -1.2816  1.4698 -0.5442
 4561SOL     OW17724   0.812   0.706   0.689 -0.1832  0.4793 -0.1627
 4561SOL    HW117725   0.871   0.778   0.711 -1.0688  0.2434  3.7322
 4561SOL    HW217726   0.864   0.627   0.705 -0.3929  0.2512 -0.5841
 4562SOL     OW17727   3.664   8.388   8.004 -0.0985  0.3911 -0.4694
 4562SOL    HW117728   3.677   8.293   7.997  2.3024  0.6055  0.1996
 4562SOL    HW217729   3.591   8.398   8.065 -0.3171 -1.0347 -0.4668
 4563SOL     OW17730   5.714   9.044  10.271 -0.0209 -1.0111 -0.6263
 4563SOL    HW117731   5.631   9.065  10.313  0.7737  0.7590  0.1415
 4563SOL    HW217732   5.693   9.041  10.177 -1.1686 -1.8291 -0.3640
 4564SOL     OW17733   3.604   9.938   9.188  0.2625 -0.5573 -0.5087
 4564SOL    HW117734   3.630   9.846   9.188 -0.9952 -0.9677  1.3168
 4564SOL    HW217735   3.625   9.969   9.276  1.0803  1.0695 -1.2149
 4565SOL     OW17736   4.144   4.129   0.750  0.1030  0.7596 -0.2707
 4565SOL    HW117737   4.055   4.094   0.763  0.0034  1.0067 -0.2745
 4565SOL    HW217738   4.132   4.224   0.750  0.5645  0.8352  1.1662
 4566SOL     OW17739   3.458   0.728   4.075  0.2299 -0.7781 -0.1242
 4566SOL    HW117740   3.446   0.780   4.155  0.2728  2.0289 -1.8009
 4566SOL    HW217741   3.552   0.711   4.072  0.4060  0.1495 -0.1516
 4567SOL     OW17742   4.719   8.250   3.740  0.5794  0.9511  0.1969
 4567SOL    HW117743   4.770   8.268   3.661  0.4845  0.2748 -0.0265
 4567SOL    HW217744   4.629   8.242   3.709  0.8890 -2.4980 -0.1850
 4568SOL     OW17745   1.778   5.371   9.709 -0.1635  0.3011 -0.2239
 4568SOL    HW117746   1.774   5.407   9.798  2.1312 -1.5612  0.7736
 4568SOL    HW217747   1.759   5.278   9.721 -0.9585  0.2190 -1.9045
 4569SOL     OW17748   6.499   7.845   0.755  0.5166  0.5683 -0.1427
 4569SOL    HW117749   6.529   7.758   0.780  1.7270  0.5470 -1.5267
 4569SOL    HW217750   6.565   7.905   0.790  1.0151  0.7102 -1.2761
 4570SOL     OW17751   5.878   0.331   3.467  0.1059 -0.4220 -0.2656
 4570SOL    HW117752   5.917   0.356   3.383 -1.2042 -0.2074 -0.8194
 4570SOL    HW217753   5.784   0.341   3.455 -0.0569  1.0487  1.6799
 4571SOL     OW17754   7.714   0.432   6.426 -0.1771 -0.2924  0.2377
 4571SOL    HW117755   7.618   0.424   6.424 -0.1039 -1.1627 -0.7631
 4571SOL    HW217756   7.730   0.522   6.453 -1.2693 -0.3803  1.2817
 4572SOL     OW17757   2.573   9.059   3.441 -0.4277 -0.9481 -0.4819
 4572SOL    HW117758   2.663   9.026   3.433 -0.2284 -0.4452 -0.3986
 4572SOL    HW217759   2.528   9.025   3.364 -0.1081 -1.0314 -0.6361
 4573SOL     OW17760   9.223   1.775   2.349  0.0349  0.1693 -0.5125
 4573SOL    HW117761   9.312   1.743   2.361  0.3029  0.7554 -0.8727
 4573SOL    HW217762   9.223   1.861   2.391  0.0957  0.8663 -1.8879
 4574SOL     OW17763   7.209   8.983   1.210 -0.3231 -0.3007 -0.4793
 4574SOL    HW117764   7.299   8.998   1.181 -0.1885  3.5249  1.3467
 4574SOL    HW217765   7.216   8.976   1.306 -1.9026 -0.7172 -0.3650
 4575SOL     OW17766   1.388   8.100   9.751  0.0799 -0.1869  0.0830
 4575SOL    HW117767   1.412   8.057   9.833  1.8060  1.5764  0.5823
 4575SOL    HW217768   1.342   8.179   9.779 -1.3680 -0.7026 -0.7531
 4576SOL     OW17769   5.437   7.810   7.985 -0.1632 -0.0706  0.4862
 4576SOL    HW117770   5.353   7.772   8.013 -0.6728  0.5830 -0.1154
 4576SOL    HW217771   5.470   7.853   8.064 -1.1869  1.0486  0.3363
 4577SOL     OW17772   7.218   6.795   8.887  0.1477  0.4083 -0.0506
 4577SOL    HW117773   7.280   6.773   8.955  0.8335  1.3343 -0.3477
 4577SOL    HW217774   7.178   6.877   8.917 -0.9542 -0.1783  0.1436
 4578SOL     OW17775   9.579   9.280   9.477 -0.4183 -0.4518 -0.6847
 4578SOL    HW117776   9.495   9.300   9.435 -1.7399 -0.6136  1.6880
 4578SOL    HW217777   9.598   9.357   9.531  0.3108 -0.9398 -0.2167
 4579SOL     OW17778   2.412   7.637   6.693  0.1102  0.3990  0.6543
 4579SOL    HW117779   2.372   7.701   6.752  0.3812  0.8425  0.3602
 4579SOL    HW217780   2.448   7.570   6.752 -1.0517 -0.0153  0.9277
 4580SOL     OW17781  10.018   9.516   7.881 -0.0209 -0.1132 -0.3750
 4580SOL    HW117782  10.070   9.442   7.911 -1.2183 -0.0040  2.2547
 4580SOL    HW217783  10.068   9.593   7.909  0.0879  0.0475 -1.0002
 4581SOL     OW17784   4.945   1.301  10.044 -0.0260 -0.1739  0.4996
 4581SOL    HW117785   4.938   1.381   9.991 -0.4184  0.4699  1.4873
 4581SOL    HW217786   5.037   1.299  10.071 -0.2638  0.6301  1.4613
 4582SOL     OW17787   6.107   4.229   8.341  0.3398 -0.4594 -0.0396
 4582SOL    HW117788   6.108   4.290   8.414  0.0618 -0.2019 -0.2525
 4582SOL    HW217789   6.055   4.155   8.373 -2.5477  0.9815 -1.0343
 4583SOL     OW17790   6.171   5.228   3.156  0.7092 -0.0365  0.5042
 4583SOL    HW117791   6.175   5.190   3.068  1.9677 -0.1267  0.5830
 4583SOL    HW217792   6.097   5.185   3.197  1.4983 -1.7213  0.2552
 4584SOL     OW17793   9.591   1.723   0.133 -0.1510  0.7432  0.4776
 4584SOL    HW117794   9.613   1.630   0.131 -1.9187  0.2509 -2.5886
 4584SOL    HW217795   9.643   1.761   0.062  0.0647  2.0048  1.2862
 4585SOL     OW17796   8.470   1.379   5.105  0.1722  0.0305  0.0117
 4585SOL    HW117797   8.483   1.380   5.010 -0.6721  1.5709 -0.1331
 4585SOL    HW217798   8.395   1.437   5.119 -0.4890 -1.1397  1.5253
 4586SOL     OW17799   7.173   2.983   5.640  0.6688 -0.4695  0.2462
 4586SOL    HW117800   7.208   3.002   5.553 -1.2765 -1.4170 -0.8155
 4586SOL    HW217801   7.149   3.068   5.676  1.9077 -0.0302  0.0572
 4587SOL     OW17802   4.222   3.163   8.692  0.1015  0.2109  0.4358
 4587SOL    HW117803   4.157   3.217   8.647  1.2672  1.7988  0.5654
 4587SOL    HW217804   4.305   3.209   8.679  0.9145 -0.7479  1.8808
 4588SOL     OW17805   3.639   4.065   0.214 -0.9372  0.5181 -0.0296
 4588SOL    HW117806   3.678   4.088   0.298 -2.2153 -2.8782  1.7144
 4588SOL    HW217807   3.713   4.037   0.160 -0.2439  1.2360  0.5281
 4589SOL     OW17808   6.743   0.645   4.744  0.0771  0.3234 -0.1750
 4589SOL    HW117809   6.730   0.740   4.750 -0.3588  0.5472 -3.0733
 4589SOL    HW217810   6.654   0.609   4.746  0.1747  0.0799 -0.2423
 4590SOL     OW17811   3.917   0.587   9.244  0.2312  0.4233  0.0836
 4590SOL    HW117812   3.871   0.671   9.239 -1.2069 -0.2593  0.9146
 4590SOL    HW217813   3.922   0.556   9.154  0.2101  1.1164 -0.1593
 4591SOL     OW17814   7.372   4.197   9.986 -0.2890 -0.4098  0.0710
 4591SOL    HW117815   7.366   4.257  10.060 -1.6059  1.6428 -1.5956
 4591SOL    HW217816   7.464   4.170   9.985 -0.2149 -0.4160  2.3474
 4592SOL     OW17817   6.526   1.855   6.516 -0.2332 -0.3269 -0.5295
 4592SOL    HW117818   6.527   1.830   6.423  0.0153 -2.3789 -0.0285
 4592SOL    HW217819   6.504   1.774   6.562  1.3915  0.2148  1.3303
 4593SOL     OW17820   1.645   4.285   1.634 -0.3209  0.1611 -0.7955
 4593SOL    HW117821   1.611   4.200   1.608 -0.3024  0.5960 -2.2893
 4593SOL    HW217822   1.737   4.283   1.608 -0.1497  0.4096 -0.2337
 4594SOL     OW17823   7.922   4.105   2.438 -0.1458  0.2768  0.5580
 4594SOL    HW117824   7.888   4.081   2.352 -1.3485  5.3968 -0.7276
 4594SOL    HW217825   7.985   4.174   2.421  3.8497 -2.1451  3.6536
 4595SOL     OW17826   1.317   4.061   5.093 -0.0521  0.4072  0.0223
 4595SOL    HW117827   1.325   4.125   5.022  1.8191  0.0510 -0.1324
 4595SOL    HW217828   1.360   4.102   5.167 -0.6526  0.1475  0.5230
 4596SOL     OW17829   2.961   3.403   7.613 -0.0407 -0.0566  0.3221
 4596SOL    HW117830   2.976   3.497   7.605 -1.7471  0.3822  1.7791
 4596SOL    HW217831   3.028   3.364   7.556  1.6845  1.9591  0.8128
 4597SOL     OW17832   5.203   7.166   9.697 -0.4985  0.7304  0.3347
 4597SOL    HW117833   5.144   7.241   9.696 -0.4153  0.8585 -2.4139
 4597SOL    HW217834   5.214   7.143   9.605  0.8991 -1.5578  0.9892
 4598SOL     OW17835   3.742   6.083   8.839 -0.5636  0.2244 -0.3593
 4598SOL    HW117836   3.721   6.006   8.891  3.1042 -0.0610  0.9896
 4598SOL    HW217837   3.799   6.051   8.769 -1.4983  1.3246 -1.6835
 4599SOL     OW17838   4.023   3.476   5.174  0.2278  0.1587  0.4943
 4599SOL    HW117839   3.960   3.520   5.231 -0.8972  1.0576 -1.3517
 4599SOL    HW217840   3.976   3.400   5.141  0.7900 -0.2281  0.5822
 4600SOL     OW17841   0.801   4.802   3.947 -0.1924  0.4307 -0.1684
 4600SOL    HW117842   0.732   4.866   3.927 -0.2129  0.0528 -1.4062
 4600SOL    HW217843   0.764   4.718   3.919  0.9406  0.2911 -1.3097
 4601SOL     OW17844   4.948   9.026   8.920  0.1108 -0.1277 -0.2014
 4601SOL    HW117845   4.859   9.055   8.899 -0.5488 -2.0489 -0.3090
 4601SOL    HW217846   4.938   8.969   8.996  1.4059  0.4328  0.4199
 4602SOL     OW17847   0.441   9.429   7.875  0.2033 -0.0261 -0.2189
 4602SOL    HW117848   0.387   9.503   7.902  0.4616 -0.0526  0.4025
 4602SOL    HW217849   0.511   9.426   7.941  0.4175 -0.5745 -0.4691
 4603SOL     OW17850   4.783   9.137   2.399  0.0222 -0.1721  1.0300
 4603SOL    HW117851   4.687   9.139   2.400 -0.0556  2.4287 -1.0521
 4603SOL    HW217852   4.804   9.065   2.340 -0.6729 -0.1332  0.7187
 4604SOL     OW17853   5.680  10.133   9.110  0.0217 -0.2294 -0.2050
 4604SOL    HW117854   5.646  10.187   9.182  0.9319 -0.5346  0.4675
 4604SOL    HW217855   5.613  10.067   9.096 -0.2023 -0.1122  0.2986
 4605SOL     OW17856   2.369   9.984   9.811 -0.3458 -0.3202 -0.5047
 4605SOL    HW117857   2.418   9.935   9.877  1.1910 -0.7112 -1.8853
 4605SOL    HW217858   2.310  10.040   9.862  0.4274 -0.9720  1.1785
 4606SOL     OW17859   3.115   7.245   4.444  0.1330  0.2590  0.4203
 4606SOL    HW117860   3.081   7.156   4.455  1.5677 -0.0864  2.6961
 4606SOL    HW217861   3.118   7.280   4.533  1.9422  1.6818 -0.1495
 4607SOL     OW17862   7.357   6.529   7.485 -0.7829 -0.0788 -0.1895
 4607SOL    HW117863   7.394   6.609   7.521 -2.1574  0.1560  0.7898
 4607SOL    HW217864   7.429   6.467   7.484  0.3698  1.2158 -1.1985
 4608SOL     OW17865   1.104   6.331   0.321  0.0794 -0.0232  0.2780
 4608SOL    HW117866   1.112   6.283   0.404  1.0316 -2.1444 -0.9541
 4608SOL    HW217867   1.173   6.397   0.325  0.1986 -0.1850  1.1295
 4609SOL     OW17868   0.286   8.876   0.109  0.2460 -0.3272 -0.3813
 4609SOL    HW117869   0.308   8.944   0.173 -0.3306 -0.4698 -0.0209
 4609SOL    HW217870   0.369   8.855   0.067  0.3123  1.1267 -1.0325
 4610SOL     OW17871   6.278   2.108   3.338  0.1408  0.4257  0.2443
 4610SOL    HW117872   6.250   2.084   3.427 -0.9757 -0.9315 -0.4433
 4610SOL    HW217873   6.257   2.031   3.285  0.8268  1.2099 -1.2027
 4611SOL     OW17874   1.220   0.217   7.210  0.0007 -0.0888  0.2394
 4611SOL    HW117875   1.185   0.289   7.157 -2.4507 -0.7827  0.7752
 4611SOL    HW217876   1.215   0.249   7.300  1.6266  0.0907  0.2938
 4612SOL     OW17877   2.601   0.794   3.978 -0.6527 -0.0696  0.2088
 4612SOL    HW117878   2.638   0.743   4.050 -0.4503 -0.8612 -0.4407
 4612SOL    HW217879   2.550   0.730   3.927  0.3392  0.1572 -1.1271
 4613SOL     OW17880   5.173   9.538   2.351 -0.2638  0.3382  0.3510
 4613SOL    HW117881   5.104   9.518   2.287  1.4534 -1.3452 -1.0739
 4613SOL    HW217882   5.210   9.621   2.321  0.3165 -0.2805 -0.7049
 4614SOL     OW17883   7.248   7.849   9.653 -0.0561 -0.0472  0.0112
 4614SOL    HW117884   7.297   7.918   9.607 -1.1651  1.2963  0.7541
 4614SOL    HW217885   7.312   7.806   9.708  0.5104  0.9481  0.1519
 4615SOL     OW17886   5.542   7.177   4.599  0.8121 -0.0316  0.0371
 4615SOL    HW117887   5.595   7.097   4.606 -1.3941 -1.5293  0.5019
 4615SOL    HW217888   5.452   7.146   4.595 -0.1840  2.4913  1.0789
 4616SOL     OW17889   9.311   7.031   1.821 -0.4302  0.5267 -0.2262
 4616SOL    HW117890   9.325   7.021   1.727 -1.7519  0.1727 -0.3994
 4616SOL    HW217891   9.377   6.974   1.861 -1.1695 -0.9082 -0.9937
 4617SOL     OW17892   6.789   7.822   7.021 -0.6497  0.2263 -0.1021
 4617SOL    HW117893   6.799   7.854   6.931  0.3521 -0.9339 -0.4157
 4617SOL    HW217894   6.719   7.877   7.057 -2.4496 -0.5268 -2.1901
 4618SOL     OW17895   0.124   7.492   9.099 -0.6492  0.2177 -0.0726
 4618SOL    HW117896   0.154   7.530   9.016 -0.1255  0.2606  0.1338
 4618SOL    HW217897   0.094   7.404   9.076 -1.0194  0.4264 -0.4001
 4619SOL     OW17898   1.464   8.502   2.813  0.1666 -0.0545  0.1517
 4619SOL    HW117899   1.404   8.481   2.884  0.5841 -1.3165  0.1544
 4619SOL    HW217900   1.409   8.546   2.748 -0.3386  0.5909  0.9935
 4620SOL     OW17901   2.325   3.807   0.031 -0.5141 -0.1284  0.6512
 4620SOL    HW117902   2.238   3.789  -0.004 -0.2050 -0.8516  0.2116
 4620SOL    HW217903   2.310   3.851   0.114 -1.2949 -0.1217  0.5096
 4621SOL     OW17904   1.037   0.809   5.498 -0.3972  0.2815 -0.3122
 4621SOL    HW117905   1.104   0.805   5.429 -0.8982 -0.9551 -0.7560
 4621SOL    HW217906   1.072   0.752   5.568 -0.4894  0.4971 -0.0900
 4622SOL     OW17907   8.599   7.082   4.282 -0.6596  0.1207  0.0117
 4622SOL    HW117908   8.512   7.085   4.321 -0.8956  3.4779 -0.4522
 4622SOL    HW217909   8.651   7.143   4.336  0.2733  1.2753 -2.0885
 4623SOL     OW17910   5.462   0.070   7.572  0.2047  0.1263  0.0995
 4623SOL    HW117911   5.447   0.159   7.541 -2.1529 -0.1915  0.1676
 4623SOL    HW217912   5.473   0.018   7.493  0.0911  0.2414  0.0080
 4624SOL     OW17913   3.121   2.566   0.227 -0.1067  0.0565  0.8227
 4624SOL    HW117914   3.169   2.589   0.147  0.0405 -0.6681  0.6973
 4624SOL    HW217915   3.106   2.472   0.219  0.5610 -0.1655  2.0090
 4625SOL     OW17916   5.346   9.153   4.453  0.0439  0.0903 -0.3894
 4625SOL    HW117917   5.294   9.219   4.498 -2.4473 -1.4638 -0.8043
 4625SOL    HW217918   5.355   9.186   4.364  0.5096  0.7559 -0.1035
 4626SOL     OW17919   8.269   2.869   0.865 -0.3081  0.0030  0.3065
 4626SOL    HW117920   8.219   2.905   0.792 -1.0001 -0.2843  0.6282
 4626SOL    HW217921   8.223   2.901   0.943  1.3894  1.7037  0.6670
 4627SOL     OW17922   4.776   7.715   1.440 -0.3927  0.4694  0.1380
 4627SOL    HW117923   4.695   7.666   1.450 -0.1281  0.1618  0.8551
 4627SOL    HW217924   4.751   7.792   1.390 -1.3323  0.8725  1.1836
 4628SOL     OW17925   0.586   5.691   6.894 -0.1256 -0.0225  0.0680
 4628SOL    HW117926   0.563   5.719   6.983  1.6370 -0.7076  0.7788
 4628SOL    HW217927   0.593   5.596   6.900 -0.2301 -0.0966 -0.8793
 4629SOL     OW17928   2.441   9.501   7.966 -0.4915  0.0524 -0.1488
 4629SOL    HW117929   2.508   9.526   8.029 -0.7784  1.3879 -0.3453
 4629SOL    HW217930   2.454   9.407   7.953 -0.2750 -0.2180  1.7069
 4630SOL     OW17931   0.149   9.304   9.819 -0.2814 -0.5302  0.2742
 4630SOL    HW117932   0.161   9.326   9.912  0.3930  0.2835  0.0044
 4630SOL    HW217933   0.167   9.210   9.815  0.9175 -0.3466  0.7765
 4631SOL     OW17934   9.233   6.413   8.361  0.1011  0.3222  0.2714
 4631SOL    HW117935   9.165   6.382   8.421  0.9222  0.6989  1.4288
 4631SOL    HW217936   9.314   6.372   8.393  0.3537 -0.6603 -1.4861
 4632SOL     OW17937   2.213  10.125   2.807  0.4348 -0.1345  0.0857
 4632SOL    HW117938   2.180  10.167   2.886 -0.3391  0.6017 -0.6064
 4632SOL    HW217939   2.198  10.190   2.738  1.4432 -0.6153 -0.6039
 4633SOL     OW17940   4.024   0.488   5.157  0.4178  0.4871 -0.3874
 4633SOL    HW117941   3.961   0.487   5.229  0.3728  0.6367 -0.4240
 4633SOL    HW217942   4.093   0.547   5.187  0.3408  0.6427 -0.5165
 4634SOL     OW17943   0.308   2.993   6.706  0.1167  0.2446  0.1172
 4634SOL    HW117944   0.274   2.928   6.768 -1.8412  1.5817  0.5386
 4634SOL    HW217945   0.349   2.942   6.637 -1.7440 -1.4691  0.2119
 4635SOL     OW17946   5.195   0.726   6.111 -0.2423  0.3198 -0.4116
 4635SOL    HW117947   5.248   0.658   6.068  0.8901 -0.5034  2.0985
 4635SOL    HW217948   5.257   0.774   6.165 -1.5219  1.6116 -0.0336
 4636SOL     OW17949   7.292   0.101   1.743 -0.4647 -0.0719 -0.4594
 4636SOL    HW117950   7.228   0.148   1.796  0.6776 -0.0256  0.9545
 4636SOL    HW217951   7.311   0.022   1.793  0.8111  0.0668 -0.6831
 4637SOL     OW17952   8.556   8.770   6.965 -0.0038 -0.3166  0.0226
 4637SOL    HW117953   8.592   8.780   6.877  0.6938  1.6148  0.4748
 4637SOL    HW217954   8.632   8.769   7.023 -0.4878  1.8537  0.8319
 4638SOL     OW17955   0.782   0.743   4.557 -0.5244 -0.3294  0.4348
 4638SOL    HW117956   0.728   0.691   4.497  0.7831 -0.8132 -0.3680
 4638SOL    HW217957   0.791   0.828   4.514  0.0431 -0.5303  0.1461
 4639SOL     OW17958   6.896   6.539   5.111 -0.2620 -0.0156 -0.8876
 4639SOL    HW117959   6.825   6.480   5.085 -0.1429 -1.9928  2.5636
 4639SOL    HW217960   6.851   6.614   5.151 -0.5427 -1.0700  0.9081
 4640SOL     OW17961   3.937  10.153   7.319  0.4626  0.6103 -0.5316
 4640SOL    HW117962   3.982  10.124   7.398  0.3694  1.5007 -0.1348
 4640SOL    HW217963   4.007  10.174   7.257  0.5323 -1.4124 -1.2242
 4641SOL     OW17964   0.457   8.056   1.927 -0.0185 -0.6068  0.5248
 4641SOL    HW117965   0.422   8.067   1.839 -1.0489 -0.8409  0.8949
 4641SOL    HW217966   0.544   8.096   1.923 -0.8286  1.2233 -0.0761
 4642SOL     OW17967   4.899   2.470   7.572 -0.3322 -0.6701  0.2902
 4642SOL    HW117968   4.981   2.507   7.605  0.9424 -1.7760 -1.4661
 4642SOL    HW217969   4.856   2.435   7.650  1.5750 -1.4031  1.0775
 4643SOL     OW17970   3.930   2.166   4.891 -0.5877  0.0213  0.4030
 4643SOL    HW117971   3.889   2.108   4.827 -1.2483  0.7795  0.1230
 4643SOL    HW217972   3.880   2.152   4.972 -0.4261 -0.1645  0.4715
 4644SOL     OW17973   8.858   3.245   6.368 -0.0705  0.7638  0.5004
 4644SOL    HW117974   8.942   3.215   6.403 -0.0929 -0.5488 -0.4988
 4644SOL    HW217975   8.881   3.309   6.301  0.0678  1.2639  1.0129
 4645SOL     OW17976   6.169   4.900   3.294 -0.3148 -0.2197  0.0953
 4645SOL    HW117977   6.211   4.822   3.327  0.0885  0.0026  0.1098
 4645SOL    HW217978   6.076   4.876   3.286 -0.4000 -0.3224  1.2489
 4646SOL     OW17979   9.854   4.078   1.252  0.8908 -0.5743 -0.0266
 4646SOL    HW117980   9.785   4.137   1.284  0.6055 -1.1482  0.4307
 4646SOL    HW217981   9.911   4.064   1.327  0.7587 -1.1610 -0.0311
 4647SOL     OW17982   1.437   1.396   7.589  0.5929  0.0151  0.5066
 4647SOL    HW117983   1.414   1.437   7.506  0.2802 -1.3084 -0.0900
 4647SOL    HW217984   1.514   1.445   7.619  1.2443 -0.0276 -0.9926
 4648SOL     OW17985   9.274   9.757   2.390 -0.5202 -0.0306  0.9722
 4648SOL    HW117986   9.351   9.813   2.404  0.4201 -0.8517 -0.6916
 4648SOL    HW217987   9.217   9.809   2.334  1.0802 -1.2319 -1.9650
 4649SOL     OW17988   7.014   5.888   6.829 -0.6114 -0.1734  0.7383
 4649SOL    HW117989   7.057   5.862   6.911 -1.0587 -0.8978  0.7502
 4649SOL    HW217990   6.925   5.854   6.837 -0.9722  0.6824  0.4027
 4650SOL     OW17991   4.739   6.560   5.626 -0.4546  0.1378  0.5584
 4650SOL    HW117992   4.773   6.637   5.581  0.5481 -1.4517 -1.5498
 4650SOL    HW217993   4.765   6.573   5.718  2.6646  0.7687 -0.2917
 4651SOL     OW17994   5.330   5.571   2.003  0.0023  0.0953  0.4134
 4651SOL    HW117995   5.263   5.503   2.003 -0.4079  0.4889  0.0024
 4651SOL    HW217996   5.400   5.536   2.058 -1.3865  0.5277  2.5833
 4652SOL     OW17997   8.958   1.945   4.250 -0.6650  0.3239 -0.0245
 4652SOL    HW117998   8.927   1.962   4.339 -0.1822 -0.8292  0.3936
 4652SOL    HW217999   8.878   1.935   4.198 -0.9708  0.1281  0.4697
 4653SOL     OW18000   0.273   0.265   2.648 -0.0237  0.1709 -0.1546
 4653SOL    HW118001   0.337   0.336   2.651 -0.0534  0.1917 -0.0112
 4653SOL    HW218002   0.261   0.240   2.739 -1.2892  1.1400 -0.0278
 4654SOL     OW18003   3.561   9.572   0.863  0.4170  0.4256  0.1494
 4654SOL    HW118004   3.548   9.477   0.862  0.5220  0.4108 -1.5774
 4654SOL    HW218005   3.528   9.599   0.949  0.3566 -1.1617  0.6596
 4655SOL     OW18006   4.926   8.380   9.139 -0.0320 -0.1571 -0.3791
 4655SOL    HW118007   5.008   8.422   9.166  0.5568 -0.6187 -1.4131
 4655SOL    HW218008   4.953   8.309   9.081 -1.1654 -0.3719 -0.6679
 4656SOL     OW18009   1.717   6.055   7.108  0.0235  0.0612 -0.3015
 4656SOL    HW118010   1.712   6.052   7.204 -0.9246  1.4810 -0.2878
 4656SOL    HW218011   1.695   5.966   7.081  0.3525 -0.3756  0.7940
 4657SOL     OW18012   5.499   7.977   4.660  0.1497  0.0210 -0.2830
 4657SOL    HW118013   5.413   7.938   4.678  0.6720 -0.0938  2.3372
 4657SOL    HW218014   5.529   7.932   4.581 -2.2374  0.2034 -1.3948
 4658SOL     OW18015  10.139   6.864   0.872 -0.3011  0.0621  0.2033
 4658SOL    HW118016  10.053   6.902   0.853 -0.1721  0.7197  0.8966
 4658SOL    HW218017  10.120   6.791   0.931 -0.3668  0.3456  0.5356
 4659SOL     OW18018   1.268   9.744   0.575 -0.2568 -0.6931  0.1255
 4659SOL    HW118019   1.217   9.667   0.600 -0.8424 -0.1591  0.6007
 4659SOL    HW218020   1.345   9.741   0.632 -1.8682  0.8453  2.5477
 4660SOL     OW18021   4.186   7.846   9.741  0.0660 -0.5826  0.1482
 4660SOL    HW118022   4.248   7.780   9.772  1.0951  0.4455  0.3376
 4660SOL    HW218023   4.130   7.799   9.680 -0.5094 -2.1012  1.7627
 4661SOL     OW18024   9.999   9.963   0.482  0.4055  0.0101  0.0470
 4661SOL    HW118025   9.927   9.987   0.540  1.2139 -0.6759  1.3705
 4661SOL    HW218026  10.068  10.026   0.502  0.0660  0.9537 -1.5354
 4662SOL     OW18027   3.477   4.851   5.836 -0.2981  0.7971 -0.0845
 4662SOL    HW118028   3.446   4.937   5.809  2.4866  1.8913 -0.0892
 4662SOL    HW218029   3.512   4.864   5.925  1.2593  0.0179 -0.5308
 4663SOL     OW18030   5.721   3.428   2.815 -0.4672  0.4112 -0.2256
 4663SOL    HW118031   5.682   3.511   2.842 -0.4842  0.7687 -1.3081
 4663SOL    HW218032   5.725   3.433   2.720  0.5378 -0.3829 -0.2406
 4664SOL     OW18033   4.398   6.104   5.805  0.5851  0.0728 -0.0667
 4664SOL    HW118034   4.411   6.092   5.899 -2.7094  2.1585  0.8310
 4664SOL    HW218035   4.370   6.018   5.773 -0.8437 -0.0966  1.4774
 4665SOL     OW18036   7.141   4.433   8.902 -0.4076  0.0936 -0.3991
 4665SOL    HW118037   7.171   4.395   8.819  0.2026  0.2347 -0.2455
 4665SOL    HW218038   7.215   4.485   8.933 -1.2720  1.5841 -0.6951
 4666SOL     OW18039   8.321   6.305   1.684 -0.3637  0.2158  0.5796
 4666SOL    HW118040   8.270   6.289   1.604  0.6492  0.8346 -0.2038
 4666SOL    HW218041   8.312   6.399   1.700  2.0845  0.7321 -0.6898
 4667SOL     OW18042   0.530   7.480   1.055 -0.0577  0.5428  0.2643
 4667SOL    HW118043   0.450   7.452   1.010  1.0959 -0.3519 -1.3196
 4667SOL    HW218044   0.570   7.399   1.085 -0.8351  1.1111  3.1304
 4668SOL     OW18045   2.844  10.206   5.197  0.8562 -0.8684  0.0077
 4668SOL    HW118046   2.858  10.280   5.255 -0.5674 -1.5668  1.3057
 4668SOL    HW218047   2.922  10.203   5.142 -0.1088  3.2486 -2.0162
 4669SOL     OW18048   9.984   3.123   9.122 -0.3939  0.1094  0.6219
 4669SOL    HW118049   9.940   3.063   9.062  0.2919 -0.8529  1.0550
 4669SOL    HW218050  10.039   3.066   9.176  0.6171  1.1813  0.7468
 4670SOL     OW18051   4.174   7.583   0.034 -0.0736  0.1415  0.3438
 4670SOL    HW118052   4.147   7.668   0.071 -0.4596 -0.8257  2.4330
 4670SOL    HW218053   4.107   7.522   0.064  1.5021 -1.3350  0.9704
 4671SOL     OW18054  10.207  10.283   4.943  0.1753 -0.0011  0.2262
 4671SOL    HW118055  10.258  10.293   4.863  1.8917 -2.5643  0.8594
 4671SOL    HW218056  10.206  10.370   4.982 -0.7595  1.3438 -2.5285
 4672SOL     OW18057   8.320   0.241   6.753  0.0645  0.0656  0.2085
 4672SOL    HW118058   8.321   0.309   6.686 -1.5625 -1.6109 -1.6355
 4672SOL    HW218059   8.274   0.168   6.712 -0.4033 -1.2902  2.9380
 4673SOL     OW18060   4.835   9.900   3.390  0.1443  0.0406  0.2993
 4673SOL    HW118061   4.796   9.979   3.427  0.7072  0.2076  0.5473
 4673SOL    HW218062   4.870   9.927   3.306 -1.4875 -0.4289 -0.5852
 4674SOL     OW18063   5.023   4.070   3.075  0.2233 -0.5009  0.9366
 4674SOL    HW118064   5.003   4.152   3.120 -3.3296 -1.4974  1.4529
 4674SOL    HW218065   4.958   4.064   3.005  1.8615 -1.8464 -0.5729
 4675SOL     OW18066   6.204   3.240   9.740  0.2817 -0.0708 -0.9220
 4675SOL    HW118067   6.160   3.158   9.762 -0.5863  0.0977 -1.9446
 4675SOL    HW218068   6.198   3.292   9.820 -1.0321 -0.2180 -0.8980
 4676SOL     OW18069   6.386   1.684   6.063  0.2853  0.4764  0.2075
 4676SOL    HW118070   6.352   1.766   6.027  0.4522  0.9552  1.1033
 4676SOL    HW218071   6.316   1.651   6.119  1.2579  1.5299  2.1587
 4677SOL     OW18072   6.238  10.293   1.570  0.5311  0.4019  0.3991
 4677SOL    HW118073   6.173  10.271   1.503 -0.2938  0.5674  1.1253
 4677SOL    HW218074   6.296  10.356   1.527  0.5022 -0.1063 -0.4089
 4678SOL     OW18075   8.408   6.837   6.809 -0.0921  0.0756 -0.3908
 4678SOL    HW118076   8.441   6.863   6.895  0.6207  1.0520 -0.9387
 4678SOL    HW218077   8.374   6.918   6.771  0.0229 -0.2511 -1.2058
 4679SOL     OW18078   4.700   3.739   6.227 -0.0880 -0.1450 -0.0911
 4679SOL    HW118079   4.728   3.783   6.308  1.0168  2.0665 -1.5372
 4679SOL    HW218080   4.680   3.811   6.168 -2.1378 -1.7129 -1.4112
 4680SOL     OW18081  10.285  10.058   7.346 -0.1732  0.0993  0.0031
 4680SOL    HW118082  10.233   9.997   7.400 -0.2314 -1.0750 -1.3329
 4680SOL    HW218083  10.375  10.026   7.355 -0.3541 -0.9942 -1.6725
 4681SOL     OW18084   0.566   4.388   8.526  0.1209 -0.3164  0.4714
 4681SOL    HW118085   0.655   4.404   8.496 -0.5904  2.3385 -0.5259
 4681SOL    HW218086   0.558   4.438   8.607 -0.8495  0.7836 -0.2576
 4682SOL     OW18087   4.964   2.127   6.472  0.3643  0.5290 -0.1532
 4682SOL    HW118088   4.950   2.132   6.567 -1.6407 -1.0819 -0.2832
 4682SOL    HW218089   4.914   2.200   6.436  0.0683  0.3885 -0.0313
 4683SOL     OW18090   0.108   3.417   7.525  0.1490 -0.3070  0.2341
 4683SOL    HW118091   0.074   3.456   7.445  1.2338  1.5824  0.6458
 4683SOL    HW218092   0.142   3.332   7.497 -0.3468 -0.0884 -1.1151
 4684SOL     OW18093   0.474   1.859   6.646 -0.6365 -0.0735  0.3241
 4684SOL    HW118094   0.433   1.913   6.713 -1.1520 -1.0355  0.8082
 4684SOL    HW218095   0.402   1.830   6.590 -0.5006 -1.0220  0.6294
 4685SOL     OW18096   4.025   9.190   6.816  0.1495 -0.5213  0.1177
 4685SOL    HW118097   4.060   9.171   6.903  0.8340  1.9467  0.4495
 4685SOL    HW218098   4.098   9.228   6.768 -0.9131  0.6880 -0.6154
 4686SOL     OW18099   0.961   7.976  10.098  0.1491 -0.2523 -0.1882
 4686SOL    HW118100   0.868   7.960  10.080 -0.1852  0.6614  0.6228
 4686SOL    HW218101   0.994   8.017  10.018  0.3084 -2.1432 -1.1496
 4687SOL     OW18102   3.925   6.894   0.664  0.2721  0.7628 -0.3561
 4687SOL    HW118103   3.954   6.887   0.573  0.2353  1.6936 -0.4472
 4687SOL    HW218104   3.858   6.962   0.662  0.5860  1.0978  0.4430
 4688SOL     OW18105   9.350   3.441   8.033 -0.0985  0.3878  0.2521
 4688SOL    HW118106   9.288   3.513   8.020 -2.9735 -1.8585  0.3286
 4688SOL    HW218107   9.396   3.432   7.949 -2.5200 -0.0625 -1.1195
 4689SOL     OW18108   1.774   1.307   1.962 -0.1817  0.2909 -0.3629
 4689SOL    HW118109   1.721   1.237   2.001 -0.4872 -0.0192 -1.2987
 4689SOL    HW218110   1.826   1.341   2.035  0.0646 -0.9906  0.0874
 4690SOL     OW18111   7.871   3.387   1.749  0.4372 -0.1505  0.6510
 4690SOL    HW118112   7.906   3.318   1.805 -0.2393  0.4001  1.7746
 4690SOL    HW218113   7.810   3.435   1.805  1.3054  1.7188  0.0769
 4691SOL     OW18114   9.993   5.115   8.508  0.1841 -0.7429  0.3701
 4691SOL    HW118115   9.950   5.200   8.497  1.4075 -0.0084  0.9842
 4691SOL    HW218116  10.039   5.101   8.426  0.7335 -0.3503  0.6030
 4692SOL     OW18117   6.533   0.418   1.052  0.2620 -0.0734 -0.1233
 4692SOL    HW118118   6.450   0.377   1.075  0.5245 -0.4751  0.1205
 4692SOL    HW218119   6.509   0.500   1.010 -0.2181  0.8461  1.8823
 4693SOL     OW18120   7.891   0.028   2.716  0.3923  0.0900 -1.0885
 4693SOL    HW118121   7.801   0.054   2.731  0.2532  0.7719 -2.8360
 4693SOL    HW218122   7.898  -0.060   2.754 -0.2086  1.0666  1.4545
 4694SOL     OW18123   6.176  10.286   2.672 -0.5932 -0.5952  0.2013
 4694SOL    HW118124   6.261  10.269   2.631  0.4391  0.2607  1.8495
 4694SOL    HW218125   6.112  10.255   2.609  0.8907  0.3233 -1.8762
 4695SOL     OW18126   1.094  10.228   5.809 -0.0761  0.4050 -1.0843
 4695SOL    HW118127   1.049  10.183   5.880 -0.7508  2.3149 -0.2510
 4695SOL    HW218128   1.179  10.251   5.845  0.2782 -0.1882 -1.5182
 4696SOL     OW18129   6.546  10.216   2.185 -0.0078  0.3309  0.4126
 4696SOL    HW118130   6.640  10.226   2.174 -0.0245 -0.2542 -0.3645
 4696SOL    HW218131   6.507  10.279   2.125 -0.1065  0.1648  0.2987
 4697SOL     OW18132   8.527   8.613   2.389 -0.6401 -0.4141  0.5517
 4697SOL    HW118133   8.446   8.589   2.345 -0.3605 -0.1030 -0.1530
 4697SOL    HW218134   8.559   8.531   2.427 -2.3851 -0.1673  2.7676
 4698SOL     OW18135   3.128   1.003   5.226 -0.0471  0.2700 -0.1838
 4698SOL    HW118136   3.140   1.096   5.206  0.2699  0.0098 -1.2502
 4698SOL    HW218137   3.069   1.003   5.302  1.4393  1.3871  1.0348
 4699SOL     OW18138   1.637   1.690   8.377  0.1892 -0.4680  0.2784
 4699SOL    HW118139   1.629   1.611   8.430  0.1712 -0.8192 -0.2361
 4699SOL    HW218140   1.561   1.688   8.319 -0.4051  0.5066  1.0117
 4700SOL     OW18141   2.939   4.064   0.308 -0.5694 -0.2865  0.8452
 4700SOL    HW118142   2.851   4.035   0.332 -0.4151 -0.2133  1.5077
 4700SOL    HW218143   2.958   4.137   0.368  0.1963 -0.7249  1.1458
 4701SOL     OW18144   0.686   6.972   1.094 -0.5113 -0.0358  0.1575
 4701SOL    HW118145   0.706   7.005   1.006 -0.4655 -0.8694 -0.1546
 4701SOL    HW218146   0.634   6.894   1.078 -0.0980 -0.4575  0.8645
 4702SOL     OW18147   4.934   7.007   2.444 -0.1110 -0.0682 -0.7466
 4702SOL    HW118148   4.889   7.069   2.503 -0.2775 -0.8724 -0.0089
 4702SOL    HW218149   4.997   7.061   2.397 -0.0780  0.6325  0.0645
 4703SOL     OW18150   9.783   0.349   1.131  0.5674 -0.3268  0.1966
 4703SOL    HW118151   9.870   0.375   1.162 -0.0237  1.5581  0.4050
 4703SOL    HW218152   9.723   0.393   1.191 -0.5575  0.8007 -1.6831
 4704SOL     OW18153   6.684   1.931   9.254  0.1319  0.5382 -0.3205
 4704SOL    HW118154   6.729   1.988   9.316  0.8657 -0.2007 -0.1631
 4704SOL    HW218155   6.746   1.861   9.236 -0.6766 -0.1060 -0.6625
 4705SOL     OW18156   4.821   5.740   7.499  0.0001 -0.1449 -0.1664
 4705SOL    HW118157   4.830   5.818   7.445 -0.0550 -0.6030 -0.8463
 4705SOL    HW218158   4.893   5.683   7.471  1.3428  0.4806  1.7604
 4706SOL     OW18159   1.085   3.016   6.309 -0.3394 -0.0790 -0.1081
 4706SOL    HW118160   1.022   3.081   6.339 -0.5688 -0.0711 -0.6021
 4706SOL    HW218161   1.122   2.979   6.390 -1.4052 -0.5117  0.1965
 4707SOL     OW18162   4.337   3.743   7.950 -0.1774  0.8327 -0.2638
 4707SOL    HW118163   4.255   3.792   7.956 -0.9506 -0.6124  2.1926
 4707SOL    HW218164   4.311   3.657   7.918 -0.1911 -0.5535  3.0741
 4708SOL     OW18165   0.336   2.187   9.867  0.4386 -0.0190  0.0944
 4708SOL    HW118166   0.389   2.163   9.943 -0.6764 -1.3435  0.5123
 4708SOL    HW218167   0.297   2.104   9.839 -1.1965  0.8424 -0.3327
 4709SOL     OW18168   1.587   6.978   8.890 -0.3098 -0.0251  0.3422
 4709SOL    HW118169   1.533   6.899   8.878  0.5939 -0.5698 -0.2544
 4709SOL    HW218170   1.563   7.034   8.817  0.5230 -0.6227 -0.4050
 4710SOL     OW18171   8.124   9.298   1.913 -0.5803 -0.6325  0.3940
 4710SOL    HW118172   8.041   9.317   1.955 -1.5780 -0.4421 -1.5450
 4710SOL    HW218173   8.172   9.246   1.977 -3.1803 -2.9183  0.6477
 4711SOL     OW18174   2.022   4.990   2.068  0.0208  0.0457  0.3904
 4711SOL    HW118175   2.106   4.970   2.109 -0.3857 -0.5972  0.9333
 4711SOL    HW218176   1.977   4.906   2.062 -0.5001  0.3467 -0.0984
 4712SOL     OW18177   9.810   2.310   4.298  0.4295 -0.5155 -0.3446
 4712SOL    HW118178   9.766   2.235   4.339  0.5929 -0.4527 -0.0483
 4712SOL    HW218179   9.744   2.379   4.299 -0.5236 -1.2789 -2.6869
 4713SOL     OW18180   0.327   6.967   6.398 -0.0164  0.2390  0.1231
 4713SOL    HW118181   0.239   6.977   6.361 -0.4253  0.5648  1.1472
 4713SOL    HW218182   0.340   6.872   6.404 -1.0713  0.1613  1.6931
 4714SOL     OW18183   6.138   4.346   4.577 -0.1673  0.4705 -0.1070
 4714SOL    HW118184   6.188   4.275   4.536 -0.4444  0.5491 -0.5754
 4714SOL    HW218185   6.095   4.304   4.652  2.2370  0.8123  1.5937
 4715SOL     OW18186   0.139   2.379   9.123 -0.4206 -0.5738 -0.3206
 4715SOL    HW118187   0.165   2.392   9.031 -2.3509  0.7548 -0.7331
 4715SOL    HW218188   0.221   2.381   9.171  0.6131 -0.8981 -1.9704
 4716SOL     OW18189   4.681   3.621   7.095  0.3569 -0.3308  0.1198
 4716SOL    HW118190   4.596   3.579   7.108  0.2346  0.2781  1.4722
 4716SOL    HW218191   4.661   3.707   7.059  0.5235 -0.8481 -1.2608
 4717SOL     OW18192   2.964   0.084   9.178 -0.0031  0.6491 -0.1648
 4717SOL    HW118193   2.939   0.103   9.088 -1.1496  0.1785  0.0472
 4717SOL    HW218194   3.034   0.019   9.170 -2.2876 -1.9096 -0.6931
 4718SOL     OW18195   8.720   1.434   4.224 -0.1784  0.2986  0.0573
 4718SOL    HW118196   8.648   1.466   4.280 -1.9232 -2.3943 -0.4668
 4718SOL    HW218197   8.678   1.371   4.165  2.4709 -0.5786 -1.0203
 4719SOL     OW18198   6.334   4.898   6.482  0.3553  0.6477  0.3210
 4719SOL    HW118199   6.280   4.907   6.404  0.8160 -1.6792 -0.3704
 4719SOL    HW218200   6.424   4.909   6.450  0.6958 -2.1144  0.0294
 4720SOL     OW18201   3.066   4.411   9.742 -0.4462  0.1653  0.5382
 4720SOL    HW118202   3.112   4.420   9.825 -0.8650 -0.0599  0.7972
 4720SOL    HW218203   3.120   4.351   9.690 -0.1699  0.3302  0.6349
 4721SOL     OW18204   7.392   9.932   5.886  0.1985 -0.1194 -0.9612
 4721SOL    HW118205   7.453   9.941   5.959 -0.8442 -0.9083  0.0239
 4721SOL    HW218206   7.412   9.847   5.847  0.0217 -0.1805 -0.9179
 4722SOL     OW18207   4.307   9.980  10.021 -0.4122 -0.2885 -0.0059
 4722SOL    HW118208   4.369  10.052  10.013 -1.3815  0.4005 -2.0126
 4722SOL    HW218209   4.238  10.013  10.078 -0.8293  0.3896 -0.8824
 4723SOL     OW18210   9.963   3.927   9.686  0.6247  0.1827 -0.2175
 4723SOL    HW118211   9.902   3.902   9.616 -0.5673  2.6043 -0.1632
 4723SOL    HW218212  10.049   3.902   9.654 -0.0306  0.0843 -1.9839
 4724SOL     OW18213   2.473   9.342   1.468  0.3055 -0.6602  0.1469
 4724SOL    HW118214   2.528   9.278   1.512 -0.0778 -0.2973  1.1874
 4724SOL    HW218215   2.533   9.412   1.441  0.2428  0.2291  2.1897
 4725SOL     OW18216   3.686   9.072   4.150 -0.0406 -0.4910  0.5715
 4725SOL    HW118217   3.708   8.980   4.135  2.2438 -0.3455  2.3958
 4725SOL    HW218218   3.709   9.087   4.242  0.6006  2.1219  0.0640
 4726SOL     OW18219   1.068   7.245   9.801  0.2353  0.1437 -0.4455
 4726SOL    HW118220   1.021   7.326   9.781 -2.0344 -1.2490 -1.1836
 4726SOL    HW218221   1.072   7.243   9.897 -4.3412 -1.1492 -0.0603
 4727SOL     OW18222   8.491   8.158   0.203 -0.1181 -0.0497 -0.5677
 4727SOL    HW118223   8.494   8.208   0.284 -1.3461  1.0302 -1.1599
 4727SOL    HW218224   8.569   8.103   0.206 -0.1485 -0.0504  1.3493
 4728SOL     OW18225   7.017   7.253   3.031  0.4448  0.2814 -0.2805
 4728SOL    HW118226   6.924   7.274   3.022  0.0293 -0.4582  1.7224
 4728SOL    HW218227   7.039   7.279   3.121  1.7135 -1.1630 -0.1273
 4729SOL     OW18228   5.624   4.328   1.975 -0.5719 -0.1083 -0.1706
 4729SOL    HW118229   5.540   4.363   2.005 -1.0342  0.0401 -1.5970
 4729SOL    HW218230   5.667   4.401   1.930 -0.3097 -0.5750 -0.6972
 4730SOL     OW18231   6.400   9.143   2.329 -0.3133 -0.4652 -0.6016
 4730SOL    HW118232   6.345   9.208   2.285 -1.0919 -2.0493 -2.1036
 4730SOL    HW218233   6.344   9.066   2.336  0.6883 -1.0961  0.8443
 4731SOL     OW18234   4.461   3.278   9.606  0.2498  0.7799 -0.1237
 4731SOL    HW118235   4.467   3.230   9.689 -3.4697  0.2223 -0.0115
 4731SOL    HW218236   4.449   3.209   9.540 -2.8167  1.3107 -0.2552
 4732SOL     OW18237   2.101   0.976   2.089 -0.7244 -0.1471  0.5905
 4732SOL    HW118238   2.060   0.955   2.005 -1.3112 -0.8051  1.0241
 4732SOL    HW218239   2.083   0.899   2.144  0.6083 -0.2116  0.9765
 4733SOL     OW18240   4.485   7.500   0.762  0.1460 -0.1836  0.0353
 4733SOL    HW118241   4.556   7.494   0.699  0.4070  1.3864  0.1380
 4733SOL    HW218242   4.450   7.411   0.768  1.3005 -0.7239 -0.9297
 4734SOL     OW18243   4.930   3.171   9.321 -0.1796  0.2019  0.4727
 4734SOL    HW118244   4.993   3.230   9.279  0.6775 -1.5388 -0.8073
 4734SOL    HW218245   4.983   3.105   9.365 -1.0683 -0.8157  0.0833
 4735SOL     OW18246   4.806   8.543   9.470  0.3121  0.6195 -0.3502
 4735SOL    HW118247   4.807   8.449   9.488  1.5391  0.4299 -1.3401
 4735SOL    HW218248   4.713   8.564   9.459  0.0693 -0.5882 -0.7080
 4736SOL     OW18249  10.210   7.507   8.503 -0.1914  0.1824  0.1561
 4736SOL    HW118250  10.225   7.568   8.431  0.0736 -0.0406  0.0206
 4736SOL    HW218251  10.115   7.506   8.515 -0.1530  1.2633  0.7161
 4737SOL     OW18252   8.251   1.510   0.783  1.0202  0.3651 -0.1778
 4737SOL    HW118253   8.250   1.416   0.764  0.6723  0.1644  0.8013
 4737SOL    HW218254   8.175   1.545   0.737  1.5037  0.2838 -1.0626
 4738SOL     OW18255   2.649   0.402   5.304  0.2738  0.1235 -0.2309
 4738SOL    HW118256   2.658   0.436   5.393 -0.6518 -1.9995  0.7418
 4738SOL    HW218257   2.704   0.460   5.251 -1.3563  3.2625  1.1987
 4739SOL     OW18258   9.280   2.793   2.070  0.2936 -0.0999  0.1578
 4739SOL    HW118259   9.198   2.822   2.109  1.1773 -0.3518  2.4006
 4739SOL    HW218260   9.259   2.710   2.028 -0.6752  0.0004  0.4290
 4740SOL     OW18261   9.086   7.325   3.077  0.4049  0.8368 -0.4442
 4740SOL    HW118262   9.022   7.288   3.017 -0.8143  1.4680  0.4133
 4740SOL    HW218263   9.078   7.420   3.065  0.4360  0.9587  0.3941
 4741SOL     OW18264   5.105   2.897   7.629 -0.2606  0.5681 -0.2975
 4741SOL    HW118265   5.116   2.833   7.558 -1.1943 -0.6054  0.5528
 4741SOL    HW218266   5.074   2.976   7.585 -2.8074 -0.7396 -1.0823
 4742SOL     OW18267   3.023   8.638   1.517  0.4233  0.2918  0.4314
 4742SOL    HW118268   3.014   8.722   1.562 -2.4361 -0.3550  1.2852
 4742SOL    HW218269   3.069   8.581   1.578  0.9130  0.7703  0.5127
 4743SOL     OW18270   4.802   5.721   1.737 -0.6404 -0.2833 -0.1449
 4743SOL    HW118271   4.878   5.770   1.768 -1.9325  0.8989  1.2865
 4743SOL    HW218272   4.753   5.699   1.816 -2.3014 -0.1486 -1.0909
 4744SOL     OW18273   3.047   7.058   0.721  0.1812  0.6934 -0.7301
 4744SOL    HW118274   2.994   7.130   0.687 -1.2330  0.0549  0.0607
 4744SOL    HW218275   3.024   7.052   0.814  1.3156  0.1030 -0.4592
 4745SOL     OW18276   8.528   1.454   2.927  0.1751 -0.4596 -0.2915
 4745SOL    HW118277   8.510   1.502   3.008 -0.3711 -1.1082 -0.0238
 4745SOL    HW218278   8.622   1.436   2.930  0.0068 -1.2827  0.6479
 4746SOL     OW18279   7.909   2.325   6.273 -0.0134 -0.5385  0.1237
 4746SOL    HW118280   7.879   2.340   6.363 -0.3359  1.0743 -0.2126
 4746SOL    HW218281   7.838   2.360   6.219  0.2513 -1.3427 -0.7558
 4747SOL     OW18282   3.707   2.333   4.726  0.1011  0.7603 -0.4762
 4747SOL    HW118283   3.732   2.314   4.817 -0.6269  1.4724 -0.1142
 4747SOL    HW218284   3.621   2.293   4.716  0.1572  0.7312 -0.8346
 4748SOL     OW18285   3.277   3.047   0.083 -0.1767  0.0723 -0.7821
 4748SOL    HW118286   3.225   3.054   0.163 -1.1083  0.6685 -1.4239
 4748SOL    HW218287   3.362   3.083   0.107 -0.0895 -0.7418  0.2305
 4749SOL     OW18288   6.065   0.842   5.911 -0.0972  0.7559 -0.0709
 4749SOL    HW118289   6.129   0.880   5.972  0.7057  2.6705 -1.9871
 4749SOL    HW218290   6.010   0.916   5.885 -0.5898 -0.0501 -1.4201
 4750SOL     OW18291   1.959   9.344   4.017  0.1983  0.8705  0.6680
 4750SOL    HW118292   1.985   9.410   3.953 -1.8156 -0.4556 -1.6782
 4750SOL    HW218293   1.866   9.361   4.032  0.1032 -0.2661  1.4725
 4751SOL     OW18294   5.472   9.185  10.242  0.1398  0.6483 -0.4443
 4751SOL    HW118295   5.518   9.268  10.231  1.8214 -0.4382 -2.3492
 4751SOL    HW218296   5.395   9.193  10.187  0.7831  0.6503 -1.3757
 4752SOL     OW18297   6.777   8.368   2.509  0.4053  0.4282  0.4175
 4752SOL    HW118298   6.808   8.349   2.598  2.9318  0.4696 -0.3623
 4752SOL    HW218299   6.737   8.287   2.479  2.7014 -0.7944  0.4216
 4753SOL     OW18300   1.904   1.650   5.599 -0.1306 -0.3477  0.3985
 4753SOL    HW118301   1.945   1.581   5.546 -0.6300 -0.3899  0.0636
 4753SOL    HW218302   1.810   1.637   5.586 -0.2252  0.8537 -0.2736
 4754SOL     OW18303   0.296   3.224   0.999  0.2983  0.5475  0.0993
 4754SOL    HW118304   0.295   3.260   0.910 -0.8013  1.0877  0.3213
 4754SOL    HW218305   0.355   3.148   0.993  0.7178  0.9357 -0.9373
 4755SOL     OW18306   8.023   9.099   3.036  0.5285 -0.3675 -0.9687
 4755SOL    HW118307   8.030   9.193   3.020  0.8823 -0.3565 -0.7596
 4755SOL    HW218308   7.931   9.078   3.018 -0.4679  0.6438  2.2626
 4756SOL     OW18309   6.746   7.307   3.075 -0.4190  0.4804 -0.5529
 4756SOL    HW118310   6.736   7.337   3.165 -2.3373  2.4866 -1.3197
 4756SOL    HW218311   6.698   7.224   3.071 -0.6985  0.6011  0.1914
 4757SOL     OW18312   3.119   3.441   9.863  0.2906 -0.2017  0.5672
 4757SOL    HW118313   3.120   3.346   9.851  0.1550 -0.0652 -0.5428
 4757SOL    HW218314   3.145   3.453   9.955 -1.2121 -1.3752  1.1845
 4758SOL     OW18315   5.138   6.420   5.123 -0.3828  0.4987 -0.1679
 4758SOL    HW118316   5.078   6.374   5.182 -1.2145  0.6795 -0.8451
 4758SOL    HW218317   5.207   6.453   5.180 -0.3566 -0.6373  0.4818
 4759SOL     OW18318   3.447   8.022   5.824  0.0794  0.0477  0.7906
 4759SOL    HW118319   3.434   7.940   5.776  1.3091  0.2761  0.0241
 4759SOL    HW218320   3.399   8.087   5.772 -0.2443 -0.0456  0.9701
 4760SOL     OW18321   0.537   7.614   7.374 -0.0901  0.2363  0.2395
 4760SOL    HW118322   0.595   7.617   7.299  0.2990 -0.0723  0.5225
 4760SOL    HW218323   0.453   7.587   7.339 -0.0209  0.5276 -0.1491
 4761SOL     OW18324   7.901   4.497   4.597 -0.1704 -0.5428  0.0582
 4761SOL    HW118325   7.890   4.528   4.507  0.8534 -2.2913 -0.7404
 4761SOL    HW218326   7.955   4.564   4.639  0.3559 -0.2645 -1.0084
 4762SOL     OW18327   6.846   9.936   5.189  0.0339 -0.2886  0.0352
 4762SOL    HW118328   6.912  10.005   5.185  0.2780 -0.4610  1.0377
 4762SOL    HW218329   6.771   9.972   5.141 -0.1713  1.0393  1.3098
 4763SOL     OW18330   9.569   2.221   8.360  0.2763 -0.3525 -0.6657
 4763SOL    HW118331   9.646   2.170   8.334  1.1851 -0.1159  1.3873
 4763SOL    HW218332   9.605   2.298   8.404 -1.1372  0.4820 -0.9075
 4764SOL     OW18333   9.780   1.338   1.901 -0.1843  0.1567  0.0247
 4764SOL    HW118334   9.822   1.405   1.955  0.1604 -0.3743  0.4300
 4764SOL    HW218335   9.780   1.260   1.956 -2.1038  0.2465  0.1942
 4765SOL     OW18336   1.908   8.611   1.068 -0.0302 -0.2004 -0.2584
 4765SOL    HW118337   1.916   8.618   1.163 -1.1959 -0.4104 -0.1281
 4765SOL    HW218338   1.843   8.542   1.054 -2.3775  1.9939 -1.0827
 4766SOL     OW18339   7.712   4.703   9.659 -0.1138  0.2259 -0.1141
 4766SOL    HW118340   7.768   4.781   9.664 -2.5054  1.9738  1.3394
 4766SOL    HW218341   7.630   4.735   9.620 -0.5311 -2.0148 -1.2166
 4767SOL     OW18342   1.851   3.901   1.569 -0.1607 -0.0645 -0.3037
 4767SOL    HW118343   1.931   3.848   1.578 -0.5690 -0.5620  0.4803
 4767SOL    HW218344   1.785   3.840   1.537 -0.5898 -0.0054  0.4386
 4768SOL     OW18345   5.397   4.165   0.251  0.4984  0.2342 -0.3816
 4768SOL    HW118346   5.313   4.155   0.207  0.5697 -1.0284 -0.2938
 4768SOL    HW218347   5.376   4.164   0.345  0.6358 -0.6784 -0.3449
 4769SOL     OW18348   2.088  10.030   9.359 -0.0902  0.0113  0.0715
 4769SOL    HW118349   2.074  10.119   9.327 -1.3172  0.7390  2.3851
 4769SOL    HW218350   2.002   9.990   9.357 -0.1686 -0.0286  1.9193
 4770SOL     OW18351   0.799   1.993   4.839 -0.7011  0.1721 -0.3067
 4770SOL    HW118352   0.856   1.975   4.765  0.2404 -0.5851  0.5620
 4770SOL    HW218353   0.739   1.918   4.841  0.4101 -0.7500  0.7015
 4771SOL     OW18354   2.008  10.265   9.232 -0.8938  0.2438  0.7566
 4771SOL    HW118355   2.072  10.337   9.231  0.5369 -0.9434 -1.0142
 4771SOL    HW218356   1.923  10.309   9.230 -0.0635  1.9574 -0.9938
 4772SOL     OW18357   4.793   6.658   4.374  0.4283  0.5703 -0.0554
 4772SOL    HW118358   4.794   6.608   4.455  0.7882 -0.2775 -0.5642
 4772SOL    HW218359   4.842   6.603   4.312 -2.6323 -0.4329 -1.7919
 4773SOL     OW18360   6.192   6.944   3.236 -0.5390  0.0050 -0.0030
 4773SOL    HW118361   6.254   7.006   3.273  0.7030  0.0015 -1.9314
 4773SOL    HW218362   6.238   6.904   3.162 -1.8440 -2.0991  0.2194
 4774SOL     OW18363   7.689   0.516  10.015 -0.0332  0.2840 -0.4880
 4774SOL    HW118364   7.636   0.594  10.001 -0.4098  0.6068  2.1065
 4774SOL    HW218365   7.773   0.536   9.974 -1.1389  0.6964 -2.6618
 4775SOL     OW18366   9.242   0.742   5.365 -0.1733 -0.1478  0.0704
 4775SOL    HW118367   9.158   0.746   5.319 -0.2123 -2.5916 -0.2271
 4775SOL    HW218368   9.303   0.704   5.301  0.7754  0.1363  0.7787
 4776SOL     OW18369   0.412  10.014   6.487  0.4039  0.4490  0.1291
 4776SOL    HW118370   0.421   9.934   6.539  1.2635 -0.5111 -1.4283
 4776SOL    HW218371   0.396   9.983   6.398  1.5667  1.9747 -0.6650
 4777SOL     OW18372   5.023   0.062   9.932  0.0054 -0.2249 -0.9875
 4777SOL    HW118373   5.013  -0.032   9.951 -0.8232  0.2040  0.9455
 4777SOL    HW218374   4.977   0.074   9.849 -1.3623 -1.2665 -0.4296
 4778SOL     OW18375   6.020   4.045   4.359 -0.3784  0.4803  0.5402
 4778SOL    HW118376   5.969   4.051   4.439 -0.0546 -0.3317  0.8192
 4778SOL    HW218377   5.966   3.992   4.300 -0.2279  0.3200  0.5442
 4779SOL     OW18378   2.862  10.246   0.588  0.2862 -0.1004 -0.1264
 4779SOL    HW118379   2.769  10.241   0.610  1.0306 -0.2988  3.6073
 4779SOL    HW218380   2.872  10.330   0.544 -1.3845  0.9116  1.2960
 4780SOL     OW18381   6.971   3.976   8.719 -0.0081 -0.2320 -0.0346
 4780SOL    HW118382   7.018   3.908   8.766 -1.1527 -0.5807  0.6230
 4780SOL    HW218383   6.878   3.958   8.736 -0.7074 -1.8292 -4.2686
 4781SOL     OW18384  10.053   0.532   7.423 -0.1826  0.3130 -0.1900
 4781SOL    HW118385  10.119   0.599   7.444 -0.5410  0.3538  0.8723
 4781SOL    HW218386  10.104   0.453   7.408  0.2435  0.7834 -1.3869
 4782SOL     OW18387   1.396   7.459   7.189 -0.3407 -0.2352 -0.4032
 4782SOL    HW118388   1.410   7.464   7.094 -0.8000  1.2823 -0.4233
 4782SOL    HW218389   1.318   7.512   7.204  0.7768  1.0974  1.0209
 4783SOL     OW18390   8.591   9.148   8.028  0.1043 -0.5532  0.2796
 4783SOL    HW118391   8.541   9.145   8.110  0.3673  0.1037  0.4769
 4783SOL    HW218392   8.611   9.057   8.008 -2.0839 -0.9533 -0.3846
 4784SOL     OW18393   9.191   6.274   4.018  0.3725 -0.0510 -0.3744
 4784SOL    HW118394   9.214   6.218   3.944 -0.6576  0.9776 -1.5187
 4784SOL    HW218395   9.236   6.357   3.999 -2.1644  1.1947 -1.4216
 4785SOL     OW18396   5.959   2.329   9.744 -0.3911 -0.0403  0.3224
 4785SOL    HW118397   5.910   2.292   9.671  0.4284  0.5835 -0.5723
 4785SOL    HW218398   5.897   2.384   9.790 -0.4617  1.0849 -1.0416
 4786SOL     OW18399   9.987   7.039   5.578 -0.1357  0.6747  0.1066
 4786SOL    HW118400   9.969   7.100   5.506  0.6999  1.3463  0.4491
 4786SOL    HW218401  10.073   7.003   5.557 -0.8786 -0.8835 -0.4153
 4787SOL     OW18402  10.169   5.234   7.701  0.1058  0.0258  0.2646
 4787SOL    HW118403  10.101   5.204   7.761 -0.1718  0.4894  0.1888
 4787SOL    HW218404  10.129   5.307   7.654  0.0241 -0.8951 -1.1330
 4788SOL     OW18405   0.400   0.974   7.261  0.1493  0.1621  0.8173
 4788SOL    HW118406   0.478   0.926   7.287 -0.1967  0.1818  1.9443
 4788SOL    HW218407   0.408   0.983   7.166  0.6295 -1.4034  0.6804
 4789SOL     OW18408   7.121   7.946   7.306 -0.2601 -0.3905  0.2919
 4789SOL    HW118409   7.119   7.854   7.282  0.2052 -0.7566  1.5836
 4789SOL    HW218410   7.209   7.975   7.282 -0.3527 -0.3259  0.0308
 4790SOL     OW18411   4.210   1.491   7.006 -0.0660 -0.0157 -0.4752
 4790SOL    HW118412   4.228   1.452   7.092 -1.2581 -1.1143 -0.7001
 4790SOL    HW218413   4.153   1.428   6.962 -0.8666  1.3107 -1.4234
 4791SOL     OW18414   9.437   2.370   3.730  0.3358  0.0346  0.1323
 4791SOL    HW118415   9.350   2.344   3.701  0.0669 -0.0180  0.9745
 4791SOL    HW218416   9.497   2.314   3.679 -0.1273 -0.1451 -0.2185
 4792SOL     OW18417   3.405   2.371   3.800  0.3474 -0.1030 -0.3683
 4792SOL    HW118418   3.392   2.417   3.883 -1.1236 -1.6707  0.3332
 4792SOL    HW218419   3.405   2.278   3.824 -1.7721 -0.6736 -2.2525
 4793SOL     OW18420   1.085   9.551   0.617 -0.2407 -0.3879  0.2692
 4793SOL    HW118421   0.992   9.571   0.602 -0.8467 -3.2098 -0.3775
 4793SOL    HW218422   1.114   9.509   0.536  1.9284  1.2851  0.1013
 4794SOL     OW18423   1.201   4.171   1.347  0.4980  0.1697  0.0047
 4794SOL    HW118424   1.163   4.254   1.317  0.7892 -0.2175 -1.4879
 4794SOL    HW218425   1.289   4.171   1.311  0.2502 -1.1186 -0.6331
 4795SOL     OW18426   1.120   2.107   5.710 -0.2091 -0.6878 -0.1063
 4795SOL    HW118427   1.182   2.072   5.774  0.4151 -0.5751 -0.6285
 4795SOL    HW218428   1.052   2.041   5.702  0.9363 -1.8248 -1.0713
 4796SOL     OW18429   5.005  10.240   1.710  0.2659  0.3514  0.7159
 4796SOL    HW118430   4.994  10.315   1.653  0.6114 -0.6898 -0.7668
 4796SOL    HW218431   4.916  10.214   1.734 -0.0242 -0.5786 -1.2309
 4797SOL     OW18432   1.763   6.216   7.658 -0.2896 -0.0563  0.4495
 4797SOL    HW118433   1.701   6.256   7.720 -0.0972  2.2292 -0.7304
 4797SOL    HW218434   1.847   6.256   7.680 -0.0450  0.0599 -0.6778
 4798SOL     OW18435   9.988   3.813   0.600 -0.0551  0.5050  0.1429
 4798SOL    HW118436   9.921   3.747   0.620 -0.7464  1.5323  1.3637
 4798SOL    HW218437  10.061   3.791   0.658  0.1776  0.1445 -0.2782
 4799SOL     OW18438   7.127   7.400   3.250 -0.1587  0.0908  0.6411
 4799SOL    HW118439   7.105   7.455   3.326  1.2705 -0.2861  1.3648
 4799SOL    HW218440   7.190   7.337   3.284 -1.0708 -1.4537 -0.3787
 4800SOL     OW18441   6.123   4.674   2.010  0.4706 -0.5978  0.0172
 4800SOL    HW118442   6.042   4.691   2.058 -0.0979 -0.4249 -0.9604
 4800SOL    HW218443   6.162   4.599   2.055 -0.8035 -1.4055 -0.1446
 4801SOL     OW18444   6.956   6.918   4.977 -0.2674 -0.8837 -0.4719
 4801SOL    HW118445   7.002   6.845   4.937  0.2981 -1.2130  0.7178
 4801SOL    HW218446   7.017   6.950   5.044 -1.0725 -0.2070 -0.0488
 4802SOL     OW18447  10.178   5.443   2.106 -0.3792 -0.4239  0.0932
 4802SOL    HW118448  10.132   5.497   2.042 -3.0657 -1.8125  0.6762
 4802SOL    HW218449  10.223   5.376   2.054 -1.6997 -0.9400 -0.4301
 4803SOL     OW18450   2.123   9.334   8.350  0.4519  0.6228  0.9033
 4803SOL    HW118451   2.077   9.351   8.432  0.5806  0.4493  1.0097
 4803SOL    HW218452   2.162   9.248   8.361 -2.0606 -0.8222 -0.4443
 4804SOL     OW18453   1.987   4.681   6.041 -0.4335  0.3457  0.2890
 4804SOL    HW118454   1.893   4.691   6.028 -0.5448 -0.0071  0.7765
 4804SOL    HW218455   2.002   4.711   6.130 -0.6178 -2.5658  1.4073
 4805SOL     OW18456  10.178   1.433   1.326  0.2666 -0.2279  0.1522
 4805SOL    HW118457  10.217   1.398   1.406 -1.2732 -0.0219  1.0361
 4805SOL    HW218458  10.115   1.499   1.357  1.9137  2.2223 -1.3671
 4806SOL     OW18459   2.420   7.034   1.468  0.2465  0.1834 -0.1570
 4806SOL    HW118460   2.377   7.046   1.553  1.8350 -0.1141  0.7385
 4806SOL    HW218461   2.395   6.946   1.441  0.0071  0.1455  0.1807
 4807SOL     OW18462   8.831   5.642   9.805 -0.2371 -0.0826 -0.0618
 4807SOL    HW118463   8.817   5.548   9.815  0.8928 -0.3464 -0.7512
 4807SOL    HW218464   8.897   5.649   9.736 -0.3216  1.2210 -0.0321
 4808SOL     OW18465   7.073   2.137   2.717  0.4227  0.0410 -0.4976
 4808SOL    HW118466   7.131   2.192   2.665  0.2923  1.0474  0.3766
 4808SOL    HW218467   7.007   2.107   2.655 -1.0439  3.0450 -0.5983
 4809SOL     OW18468   1.805   1.003   6.189 -0.0431 -0.5302 -0.2582
 4809SOL    HW118469   1.877   1.053   6.229 -1.2582  0.0331  1.3497
 4809SOL    HW218470   1.738   1.069   6.172 -1.8352 -1.5568  2.2423
 4810SOL     OW18471   5.143   0.937   5.891  0.4671 -0.0148  0.1112
 4810SOL    HW118472   5.169   0.849   5.920  1.5318  0.6209  1.1816
 4810SOL    HW218473   5.113   0.925   5.801  1.7695 -1.2822 -0.1890
 4811SOL     OW18474   0.417   3.294   6.167 -0.0666 -0.0821  0.1977
 4811SOL    HW118475   0.328   3.264   6.183 -0.4621  0.3623 -1.0658
 4811SOL    HW218476   0.408   3.389   6.155  0.4877 -0.1107 -0.5067
 4812SOL     OW18477   3.091   3.715   8.202 -0.0579 -0.3898 -0.6091
 4812SOL    HW118478   3.043   3.647   8.156 -0.1569 -1.4287  0.9597
 4812SOL    HW218479   3.079   3.695   8.295  1.8954  0.3478 -0.1317
 4813SOL     OW18480   4.382   1.249   0.825 -0.3933  0.3371 -0.3349
 4813SOL    HW118481   4.469   1.236   0.786 -0.7655 -1.9125 -0.5861
 4813SOL    HW218482   4.346   1.326   0.782  1.5970  1.5445  0.0336
 4814SOL     OW18483   8.564   9.855   1.783  0.0674 -0.1040 -0.7253
 4814SOL    HW118484   8.601   9.776   1.743 -1.4664 -0.4473 -1.5527
 4814SOL    HW218485   8.631   9.885   1.843  1.4721 -0.9571 -1.8097
 4815SOL     OW18486   2.079   5.334   1.446 -0.0440  0.1159  0.4319
 4815SOL    HW118487   2.158   5.363   1.491  0.2596 -1.8993  1.2807
 4815SOL    HW218488   2.074   5.390   1.368  1.4223  1.2206  1.0961
 4816SOL     OW18489   6.063   1.927   7.371  0.6519  0.0359 -0.0679
 4816SOL    HW118490   6.034   1.859   7.311  0.8579 -0.2973  0.2043
 4816SOL    HW218491   5.997   1.996   7.365  0.5190 -0.1284 -0.4526
 4817SOL     OW18492   4.099   9.392   4.366 -0.2435  0.1474 -0.0262
 4817SOL    HW118493   4.065   9.440   4.291 -2.0721 -0.6131  0.2788
 4817SOL    HW218494   4.132   9.310   4.329 -2.3415 -0.8137  0.0826
 4818SOL     OW18495   3.012   2.881   1.175 -0.3672  0.5331  0.2436
 4818SOL    HW118496   3.093   2.839   1.146 -0.4940 -0.1756  0.8933
 4818SOL    HW218497   2.990   2.838   1.257 -1.6510  0.3875 -0.1503
 4819SOL     OW18498   7.779   9.911   8.881  0.4231 -0.1915 -0.5774
 4819SOL    HW118499   7.705   9.900   8.821  0.5698  0.4374 -0.8863
 4819SOL    HW218500   7.851   9.939   8.824  0.2691  1.5379  0.0342
 4820SOL     OW18501   6.681   8.996   3.015 -0.7524  0.2050 -0.2088
 4820SOL    HW118502   6.676   8.958   3.103 -0.5796  0.6426 -0.0079
 4820SOL    HW218503   6.773   8.987   2.991 -0.2450  2.3237  0.6779
 4821SOL     OW18504   4.205   8.427   6.232  0.1446  0.2286  0.6247
 4821SOL    HW118505   4.299   8.436   6.215 -0.1418  1.6879 -0.4078
 4821SOL    HW218506   4.193   8.463   6.320  0.5016  0.4803  0.5744
 4822SOL     OW18507   4.018   4.311   1.075  0.0813  0.5470 -0.2110
 4822SOL    HW118508   4.114   4.320   1.074  0.1304  0.1000 -1.3565
 4822SOL    HW218509   4.002   4.230   1.027 -0.8523  0.2634  0.5622
 4823SOL     OW18510   1.650   8.135   6.773 -0.1771 -1.0750 -0.2078
 4823SOL    HW118511   1.620   8.161   6.860 -1.5289 -3.2188  0.0613
 4823SOL    HW218512   1.640   8.213   6.719 -1.7984 -0.3807  1.0077
 4824SOL     OW18513  10.171   1.099   8.948 -0.1788 -0.3054 -0.3977
 4824SOL    HW118514  10.201   1.166   9.010  0.2830 -0.8088 -0.0744
 4824SOL    HW218515  10.095   1.139   8.905 -0.6781 -0.0467  0.6826
 4825SOL     OW18516   9.685   2.106   0.969  0.1945 -0.0790  0.6150
 4825SOL    HW118517   9.661   2.127   1.059 -2.9974 -1.9676  0.3564
 4825SOL    HW218518   9.637   2.170   0.916  1.9826  0.9649  0.1500
 4826SOL     OW18519   0.728  10.057   0.778 -0.6560  0.2524 -0.2160
 4826SOL    HW118520   0.649  10.075   0.728 -0.4628  1.2618 -0.1886
 4826SOL    HW218521   0.768   9.982   0.734 -1.0698  0.4056 -0.8728
 4827SOL     OW18522   0.541   7.922   0.304 -0.1222  0.5167 -0.5636
 4827SOL    HW118523   0.622   7.871   0.308  1.4999  3.0116  1.6212
 4827SOL    HW218524   0.564   7.999   0.253 -0.9660  1.5027  0.5138
 4828SOL     OW18525   7.746   1.430  10.022  0.1246 -0.0052 -0.2400
 4828SOL    HW118526   7.710   1.501   9.969  0.0500 -0.7510 -1.2338
 4828SOL    HW218527   7.774   1.471  10.103 -0.7809  0.9938 -0.4166
 4829SOL     OW18528   1.408   7.182   3.928 -0.3034  0.1282 -0.0353
 4829SOL    HW118529   1.329   7.128   3.938  0.2984 -0.7371  0.1463
 4829SOL    HW218530   1.378   7.271   3.943 -1.7118  0.0878 -2.1649
 4830SOL     OW18531   6.936   9.732   7.754  0.4300  0.0494 -0.3034
 4830SOL    HW118532   6.969   9.773   7.834  2.6905  0.2116 -1.2376
 4830SOL    HW218533   6.934   9.639   7.773 -2.2606  0.2638  0.9733
 4831SOL     OW18534   8.110   9.255   4.364 -0.4880 -0.0053 -0.7601
 4831SOL    HW118535   8.081   9.167   4.390  0.7666 -0.1645  0.2494
 4831SOL    HW218536   8.157   9.242   4.282 -0.4294 -0.2572 -0.6875
 4832SOL     OW18537   6.108   7.123   2.659 -0.2171  0.1228 -0.7072
 4832SOL    HW118538   6.056   7.202   2.673  0.6046  0.4008  1.1173
 4832SOL    HW218539   6.081   7.064   2.729  1.3582  0.0049 -0.1551
 4833SOL     OW18540   8.507   7.878   9.981  0.2913 -0.7763 -0.3334
 4833SOL    HW118541   8.492   7.971   9.994 -0.5074 -0.8382 -0.7270
 4833SOL    HW218542   8.578   7.856  10.041  0.5602  0.1044 -0.3237
 4834SOL     OW18543   7.484   0.553   3.030  0.3992 -0.2834  0.4374
 4834SOL    HW118544   7.488   0.458   3.021 -2.7430 -0.7418  2.3571
 4834SOL    HW218545   7.511   0.570   3.120 -0.3172  0.4950  0.5172
 4835SOL     OW18546   1.711   6.309   2.136 -0.1023 -0.1578  0.0914
 4835SOL    HW118547   1.795   6.304   2.181 -1.0494  2.2183  2.4003
 4835SOL    HW218548   1.646   6.297   2.205 -1.6375  1.7974 -0.8876
 4836SOL     OW18549   6.240   1.213   7.035  0.7354  0.2892  0.3823
 4836SOL    HW118550   6.246   1.269   6.957 -0.5683  2.0034  1.4280
 4836SOL    HW218551   6.310   1.243   7.092  0.4336  0.4283  0.6838
 4837SOL     OW18552   7.045   4.819   3.606  0.1717 -0.1465  0.6540
 4837SOL    HW118553   7.036   4.795   3.698 -1.4714 -1.2754  0.2472
 4837SOL    HW218554   6.992   4.899   3.598  2.1497  1.3053  1.0993
 4838SOL     OW18555   1.887   5.691   5.382  0.5761  0.4298  0.1940
 4838SOL    HW118556   1.806   5.685   5.331  0.7668 -0.8478  0.0095
 4838SOL    HW218557   1.908   5.785   5.383 -0.8024  0.7591  0.0977
 4839SOL     OW18558   0.336   7.075   7.242 -0.2980 -0.1502 -0.2852
 4839SOL    HW118559   0.248   7.062   7.277  0.5612 -4.0415  0.9012
 4839SOL    HW218560   0.382   7.125   7.310 -0.6253 -1.3334  0.8342
 4840SOL     OW18561   0.743   9.310   3.138 -0.4720  0.0478  0.0537
 4840SOL    HW118562   0.732   9.335   3.230  0.9278  1.9251 -0.2230
 4840SOL    HW218563   0.746   9.393   3.091 -1.5705 -0.8852 -1.7771
 4841SOL     OW18564   8.590   8.208   4.624  0.0414  0.1681  0.6703
 4841SOL    HW118565   8.618   8.226   4.714 -0.2084  1.7151  0.4744
 4841SOL    HW218566   8.516   8.268   4.610  0.9595  0.9972 -1.0043
 4842SOL     OW18567   2.094   9.885   8.296  0.1286 -0.0121 -0.0038
 4842SOL    HW118568   2.063   9.794   8.292  0.1460  0.0112 -0.8527
 4842SOL    HW218569   2.158   9.885   8.367  0.4578 -0.7745 -0.2905
 4843SOL     OW18570   3.187   4.391   5.729 -0.4170 -0.6780  0.2358
 4843SOL    HW118571   3.103   4.403   5.685  0.3977 -0.4702 -1.3194
 4843SOL    HW218572   3.202   4.296   5.726 -0.4883 -0.6922  0.3214
 4844SOL     OW18573   4.299   3.852   4.675  1.0071  0.5055  0.2815
 4844SOL    HW118574   4.368   3.807   4.627  0.6678 -0.1253  0.3788
 4844SOL    HW218575   4.269   3.921   4.616  0.1120 -0.6914 -0.7117
 4845SOL     OW18576   4.446   9.081   5.466  0.1297 -0.2713  0.1193
 4845SOL    HW118577   4.427   9.156   5.410  0.0019  0.8248  1.5850
 4845SOL    HW218578   4.364   9.062   5.511  0.4606 -0.5448  0.6221
 4846SOL     OW18579   7.408   1.920   8.695 -0.9154 -0.2094 -0.4149
 4846SOL    HW118580   7.388   1.909   8.602 -0.8946 -0.9385 -0.3413
 4846SOL    HW218581   7.355   1.853   8.738 -0.5237 -0.2200  0.0499
 4847SOL     OW18582   0.431   5.499   1.243  0.4474  0.3792  0.0627
 4847SOL    HW118583   0.414   5.478   1.151  0.4588 -1.3979  0.4387
 4847SOL    HW218584   0.493   5.433   1.272 -0.3858  0.2301  1.6376
 4848SOL     OW18585   6.845   1.948   6.646 -0.0780  0.0561 -0.0831
 4848SOL    HW118586   6.839   2.039   6.617  0.6115 -0.0098 -0.4745
 4848SOL    HW218587   6.933   1.921   6.619 -0.3676 -0.7982 -0.1848
 4849SOL     OW18588   5.708   4.277   2.254 -0.3615 -0.2582  0.3164
 4849SOL    HW118589   5.729   4.185   2.271 -1.4799 -0.5474  0.2630
 4849SOL    HW218590   5.675   4.278   2.164  2.4229  0.7179 -0.7773
 4850SOL     OW18591   5.594   1.156   8.809  0.4725 -0.5222  0.1189
 4850SOL    HW118592   5.591   1.060   8.811 -0.3905 -0.5554 -1.2837
 4850SOL    HW218593   5.636   1.180   8.891  0.8600 -2.1079  0.4260
 4851SOL     OW18594   3.365   4.739   9.573 -0.1348  0.0280 -0.7987
 4851SOL    HW118595   3.275   4.707   9.565  0.1138 -0.7922 -0.4831
 4851SOL    HW218596   3.409   4.671   9.625  0.7861  0.1836 -1.3688
 4852SOL     OW18597   8.314   6.834   9.205 -0.1948  0.3331  0.0834
 4852SOL    HW118598   8.227   6.855   9.172 -0.5238  0.1576  0.7967
 4852SOL    HW218599   8.298   6.772   9.277  0.6979 -2.2158 -1.7542
 4853SOL     OW18600   1.001   7.697  10.202 -1.0303 -0.1190  0.2035
 4853SOL    HW118601   0.953   7.722  10.282 -0.8222  1.2195 -0.0713
 4853SOL    HW218602   1.039   7.779  10.170 -0.0437 -0.8622 -0.5772
 4854SOL     OW18603   2.855   8.431   3.655  0.2653 -0.0973  0.1938
 4854SOL    HW118604   2.826   8.521   3.642  1.9970  0.1774 -2.6167
 4854SOL    HW218605   2.945   8.439   3.687  0.2689 -0.8408  0.3974
 4855SOL     OW18606   8.316   9.460   4.054  0.0482 -0.5703 -0.3261
 4855SOL    HW118607   8.402   9.482   4.091 -0.8433  0.9985  0.9263
 4855SOL    HW218608   8.304   9.367   4.076  0.4979 -0.2419  1.5015
 4856SOL     OW18609   2.129   5.941   4.489 -0.3405  0.6538  0.1222
 4856SOL    HW118610   2.188   5.957   4.416 -0.4328  0.0074 -0.0978
 4856SOL    HW218611   2.112   5.846   4.486 -2.9108  1.0742 -0.9790
 4857SOL     OW18612   9.761   0.161   2.077 -0.4850 -0.0472  0.5297
 4857SOL    HW118613   9.850   0.166   2.111 -0.5063  0.4523  0.5188
 4857SOL    HW218614   9.706   0.141   2.153 -0.6111  1.6961  0.9258
 4858SOL     OW18615   6.967   1.461   0.088  0.0760  0.0658  0.1087
 4858SOL    HW118616   6.952   1.368   0.103 -0.8185  0.4894  2.2799
 4858SOL    HW218617   7.060   1.468   0.067 -0.2801 -1.4956 -2.2594
 4859SOL     OW18618   3.734   9.850   7.481 -0.5149 -0.2686  0.5318
 4859SOL    HW118619   3.707   9.777   7.425 -1.1171  0.3271  0.0193
 4859SOL    HW218620   3.706   9.928   7.433 -0.4956  0.2791  1.3886
 4860SOL     OW18621   5.496   7.144   0.818  0.2281  0.0728  0.6698
 4860SOL    HW118622   5.577   7.097   0.798  0.5220 -0.3739  2.6854
 4860SOL    HW218623   5.505   7.227   0.771  0.8257 -0.8499 -0.9261
 4861SOL     OW18624   6.047   6.348   8.096 -0.1222 -0.0370 -0.0431
 4861SOL    HW118625   6.139   6.344   8.122 -0.6375  1.6578  2.5007
 4861SOL    HW218626   6.017   6.258   8.099  0.9992 -0.3983  1.0724
 4862SOL     OW18627   8.095   9.335   9.749 -0.7734 -0.0033  0.0499
 4862SOL    HW118628   8.117   9.424   9.721 -1.9744  0.2417 -0.1787
 4862SOL    HW218629   8.175   9.284   9.736  0.1994  1.2202  0.9887
 4863SOL     OW18630   7.668   4.286   9.254  0.1732 -0.3266 -0.1486
 4863SOL    HW118631   7.631   4.369   9.283 -0.7279 -1.1077  1.0332
 4863SOL    HW218632   7.600   4.248   9.198  1.1432  0.3227 -1.8449
 4864SOL     OW18633   1.784  10.140   4.695  0.2740 -0.0206 -0.1419
 4864SOL    HW118634   1.850  10.086   4.651  0.1976  0.3842 -0.7634
 4864SOL    HW218635   1.744  10.190   4.625 -0.7535 -0.3106  0.2273
 4865SOL     OW18636   5.155   5.757   3.611  0.0077 -0.1630 -0.0973
 4865SOL    HW118637   5.151   5.734   3.518  0.4107  0.7576 -0.3512
 4865SOL    HW218638   5.183   5.676   3.654  0.7940 -0.3317 -0.8964
 4866SOL     OW18639   4.350   4.098   7.338 -0.2479  0.2199 -0.0294
 4866SOL    HW118640   4.281   4.159   7.364  0.8060  1.3532  0.2015
 4866SOL    HW218641   4.334   4.082   7.245 -2.7526 -2.1585  0.6767
 4867SOL     OW18642   1.922   5.476   6.200  0.2212  0.6953 -0.0916
 4867SOL    HW118643   1.902   5.427   6.279  1.7336  0.7810  0.3673
 4867SOL    HW218644   1.836   5.495   6.162 -0.4829 -0.4082  0.8585
 4868SOL     OW18645   3.039   4.908   4.839 -0.2453  0.2528 -0.1143
 4868SOL    HW118646   3.054   4.835   4.778  2.4338  0.5908  0.0456
 4868SOL    HW218647   3.121   4.957   4.839 -0.2315  0.4607  3.5455
 4869SOL     OW18648   2.122   1.363   4.591 -0.1648 -0.1077  0.1809
 4869SOL    HW118649   2.155   1.279   4.624 -2.6391 -1.4776 -0.5619
 4869SOL    HW218650   2.124   1.421   4.668  0.7694 -1.1018  0.9352
 4870SOL     OW18651   9.530   0.684   0.383  0.6027 -0.7911 -0.3764
 4870SOL    HW118652   9.547   0.590   0.388  0.2586 -0.8811 -0.8210
 4870SOL    HW218653   9.616   0.725   0.386  0.8795 -1.1989 -1.9776
 4871SOL     OW18654   8.971   0.322   6.531  0.6555 -0.9020  0.4878
 4871SOL    HW118655   8.964   0.247   6.473 -1.0200 -0.7474  0.4407
 4871SOL    HW218656   9.064   0.343   6.532  0.8157 -1.2799 -1.6557
 4872SOL     OW18657   8.964   7.173   8.834 -0.0931 -0.1241  0.9301
 4872SOL    HW118658   9.031   7.116   8.871 -0.6482 -0.5270  1.3209
 4872SOL    HW218659   8.882   7.143   8.873 -0.8213 -1.0599 -1.1701
 4873SOL     OW18660   1.719   3.003   1.881  0.4514  0.6110  0.2908
 4873SOL    HW118661   1.694   2.920   1.923 -1.0299  0.9471  0.1373
 4873SOL    HW218662   1.765   3.051   1.949  2.1549 -0.6748  0.1229
 4874SOL     OW18663   2.553   5.274   4.549  0.7468  0.2214 -0.0628
 4874SOL    HW118664   2.601   5.321   4.618  1.4307  0.0255 -0.3943
 4874SOL    HW218665   2.601   5.192   4.539  0.2251 -0.0617 -0.2814
 4875SOL     OW18666   3.476   4.494   8.908 -0.4286  0.6259  0.3972
 4875SOL    HW118667   3.485   4.533   8.995  2.2321 -0.7105  0.8143
 4875SOL    HW218668   3.445   4.405   8.924  0.6780  0.1627  0.0613
 4876SOL     OW18669   2.108   5.153   4.838 -0.2395 -0.4614 -0.2030
 4876SOL    HW118670   2.101   5.088   4.768  0.8070 -0.5593 -0.2308
 4876SOL    HW218671   2.021   5.192   4.844 -0.7307 -1.4869 -0.5550
 4877SOL     OW18672   5.981   2.354   4.949  0.1199  0.2968  0.5867
 4877SOL    HW118673   6.044   2.333   4.880  0.4769  1.5288  0.5121
 4877SOL    HW218674   6.032   2.404   5.013 -0.8954  1.8327  0.2318
 4878SOL     OW18675   6.319   4.508   7.707 -0.0584 -0.0371 -0.0193
 4878SOL    HW118676   6.336   4.431   7.761 -1.1232  0.3233  0.8696
 4878SOL    HW218677   6.377   4.575   7.742 -0.5513  0.1190  0.4972
 4879SOL     OW18678   4.602   5.169   0.886  0.0685  0.0310 -0.2872
 4879SOL    HW118679   4.646   5.136   0.964  0.3212  1.1121  0.0488
 4879SOL    HW218680   4.655   5.137   0.813 -0.8446 -2.0147 -0.1246
 4880SOL     OW18681   0.506   8.662   8.132 -0.2962  0.1149 -0.1265
 4880SOL    HW118682   0.457   8.632   8.055  0.7134 -1.8616 -0.0528
 4880SOL    HW218683   0.477   8.752   8.145 -1.1533  0.2074 -2.2869
 4881SOL     OW18684   2.469   2.335   7.821  0.0795  0.1627  0.0064
 4881SOL    HW118685   2.426   2.308   7.740 -0.4282  0.2537  0.2394
 4881SOL    HW218686   2.404   2.319   7.889  0.5706 -0.0962  0.4252
 4882SOL     OW18687   6.862   0.504   9.970 -0.2034  0.3032 -0.6028
 4882SOL    HW118688   6.781   0.547   9.997 -1.1334 -1.6435 -0.1360
 4882SOL    HW218689   6.834   0.422   9.929  1.4725  0.3616 -1.9943
 4883SOL     OW18690  10.064   3.435   1.573  0.1113 -0.1066  0.5445
 4883SOL    HW118691  10.009   3.359   1.553  0.0443 -0.9705  3.6003
 4883SOL    HW218692  10.151   3.398   1.588  0.1184  0.4254  1.9060
 4884SOL     OW18693   5.849   8.901   6.561 -0.0422 -0.2456  0.1335
 4884SOL    HW118694   5.826   8.987   6.595  1.6694  0.3238 -0.0717
 4884SOL    HW218695   5.801   8.895   6.478 -1.7575 -0.3626  1.0785
 4885SOL     OW18696   2.907   0.522   1.287  0.3798 -0.4857 -0.4682
 4885SOL    HW118697   2.829   0.526   1.342  0.7281  1.9845 -0.0485
 4885SOL    HW218698   2.980   0.526   1.349  0.7831  1.4699 -1.0173
 4886SOL     OW18699   3.747   7.755   7.807  0.8854 -0.2355 -0.2939
 4886SOL    HW118700   3.808   7.690   7.772  0.4947 -0.7421 -0.0494
 4886SOL    HW218701   3.794   7.795   7.880  0.9112 -0.6617 -0.0717
 4887SOL     OW18702   7.481   7.923   5.778  0.4153 -0.5333  0.2078
 4887SOL    HW118703   7.403   7.904   5.829  0.4555  1.7818  1.2656
 4887SOL    HW218704   7.544   7.856   5.805 -1.2134 -2.6222 -0.8883
 4888SOL     OW18705   7.018   1.362   5.273  0.2080  0.4403  0.0238
 4888SOL    HW118706   7.030   1.457   5.265  2.6340  0.1114 -1.5873
 4888SOL    HW218707   6.956   1.340   5.203  0.7931  0.7025 -0.5949
 4889SOL     OW18708  10.220   4.966   7.543 -0.1681  0.3188  0.8649
 4889SOL    HW118709  10.194   5.043   7.592  1.2099  0.0773  2.0701
 4889SOL    HW218710  10.296   4.932   7.591 -0.0411 -1.1264 -0.2813
 4890SOL     OW18711   6.614  10.005   0.356  0.5797  0.1300 -0.0064
 4890SOL    HW118712   6.662  10.016   0.274 -0.4630 -0.0901 -0.6777
 4890SOL    HW218713   6.643  10.077   0.411  1.5932  0.0545 -0.4188
 4891SOL     OW18714   7.685   1.034   2.588 -0.2139  0.0740  0.0323
 4891SOL    HW118715   7.739   0.958   2.565  0.5244  0.4491  0.4808
 4891SOL    HW218716   7.744   1.109   2.576 -0.2549  0.4032  1.6870
 4892SOL     OW18717   3.092   7.410   2.092 -0.1789 -0.2296  0.0412
 4892SOL    HW118718   3.007   7.444   2.119 -0.3098  0.6693 -1.3798
 4892SOL    HW218719   3.154   7.479   2.116  0.2535 -1.0767  1.4991
 4893SOL     OW18720   9.402   3.094   1.998  0.5099 -0.0508 -0.3366
 4893SOL    HW118721   9.386   3.000   2.008 -3.4360  0.5117  0.0292
 4893SOL    HW218722   9.462   3.115   2.069  0.1935 -2.0337  0.6064
 4894SOL     OW18723   4.219   5.691   6.399 -0.0713 -0.3646 -0.0372
 4894SOL    HW118724   4.284   5.622   6.387  0.4722  0.2481 -0.7820
 4894SOL    HW218725   4.232   5.721   6.489  1.0531  0.1058 -0.3385
 4895SOL     OW18726   1.111   9.926   5.412  0.2169 -0.2777  0.2497
 4895SOL    HW118727   1.182   9.953   5.353 -0.1539 -1.9866 -1.0457
 4895SOL    HW218728   1.044   9.889   5.354 -1.0619 -0.1434  1.5902
 4896SOL     OW18729   6.644   2.814   3.076 -0.0625 -0.1837 -0.1153
 4896SOL    HW118730   6.553   2.845   3.076  0.2742  0.8594  0.0154
 4896SOL    HW218731   6.637   2.719   3.066 -1.1360 -0.0386 -0.9487
 4897SOL     OW18732   7.796   0.917   5.322 -0.0609  0.9048  0.4853
 4897SOL    HW118733   7.846   0.934   5.242 -1.8479  0.8923 -0.7002
 4897SOL    HW218734   7.819   0.828   5.347 -0.8602  0.2160 -1.1122
 4898SOL     OW18735   0.823   3.222   9.658  0.0657 -0.1727  0.5482
 4898SOL    HW118736   0.745   3.235   9.713 -1.3389 -0.7649 -1.1877
 4898SOL    HW218737   0.799   3.263   9.575  0.7582 -2.2245 -0.7115
 4899SOL     OW18738   4.878   8.176   2.566 -0.2000  0.6400 -0.1178
 4899SOL    HW118739   4.942   8.176   2.494  0.4599  1.2906  0.4540
 4899SOL    HW218740   4.796   8.203   2.525  0.3799  1.9476 -0.4666
 4900SOL     OW18741   6.579   3.996   3.030 -0.0172  0.2940 -0.4605
 4900SOL    HW118742   6.610   4.081   2.999  2.2562 -0.9367 -1.7922
 4900SOL    HW218743   6.656   3.939   3.027 -1.7764 -2.2390 -1.1082
 4901SOL     OW18744   1.138   7.606   6.361  0.1489 -0.0229 -0.2797
 4901SOL    HW118745   1.183   7.669   6.418  0.1330  0.5425 -0.8743
 4901SOL    HW218746   1.060   7.654   6.330 -0.9498 -1.0225  0.8291
 4902SOL     OW18747   8.411   7.857   7.893 -0.0394 -0.3257  0.3389
 4902SOL    HW118748   8.404   7.916   7.817  0.3220 -1.0096 -0.2367
 4902SOL    HW218749   8.502   7.828   7.892  0.0862  0.0075  1.3108
 4903SOL     OW18750   1.199   6.142   9.075 -0.4198  0.2819 -0.0954
 4903SOL    HW118751   1.198   6.231   9.109 -0.2141  0.3339 -0.2237
 4903SOL    HW218752   1.155   6.090   9.142  0.5594  0.2742  0.5530
 4904SOL     OW18753   9.416   9.601   4.930 -0.0021  0.0195  0.0797
 4904SOL    HW118754   9.328   9.572   4.953 -0.0645  0.7849  0.8746
 4904SOL    HW218755   9.453   9.632   5.013  1.4831 -1.4345  0.0210
 4905SOL     OW18756   6.344   0.995   4.360  0.0284  0.1894  0.1023
 4905SOL    HW118757   6.259   0.954   4.344 -0.5745  1.0858  0.9370
 4905SOL    HW218758   6.341   1.022   4.452  1.2086  0.2645  0.1384
 4906SOL     OW18759   5.299   9.836   6.201 -0.1072  0.6057  0.2044
 4906SOL    HW118760   5.348   9.812   6.280  2.3994  1.1098 -1.0754
 4906SOL    HW218761   5.239   9.905   6.230 -1.6903 -1.4756  2.2756
 4907SOL     OW18762   8.563   1.677   9.645  0.1922  0.1246  0.1141
 4907SOL    HW118763   8.603   1.591   9.652 -1.9668 -1.0010 -0.6131
 4907SOL    HW218764   8.587   1.708   9.558 -0.4527 -0.5359 -0.3108
 4908SOL     OW18765   1.523   8.640   0.997 -0.2682  0.4157 -0.3251
 4908SOL    HW118766   1.502   8.647   1.090 -1.0782 -0.4103 -0.4370
 4908SOL    HW218767   1.563   8.554   0.988 -0.5788  0.3202 -0.8118
 4909SOL     OW18768   0.696   9.200   2.429  0.0094  0.1514  0.1072
 4909SOL    HW118769   0.685   9.141   2.354 -0.2195 -0.6648  0.7707
 4909SOL    HW218770   0.786   9.232   2.422 -0.2302  0.6635 -0.9156
 4910SOL     OW18771   8.174   0.418   2.593  0.6426 -0.2196 -0.0478
 4910SOL    HW118772   8.216   0.419   2.507  1.0737  0.9342  0.1555
 4910SOL    HW218773   8.151   0.327   2.607 -1.5283 -0.1268 -2.3713
 4911SOL     OW18774   9.088   6.385   8.581 -0.0461 -0.1195  0.7739
 4911SOL    HW118775   8.995   6.402   8.599  0.1282  1.7378  0.1338
 4911SOL    HW218776   9.133   6.408   8.663  0.1129  2.0617  0.1381
 4912SOL     OW18777   4.336   2.972   6.244 -0.5553  0.7330  0.2623
 4912SOL    HW118778   4.314   2.997   6.334  1.4500 -0.7763  1.2551
 4912SOL    HW218779   4.423   3.009   6.230 -0.3734 -0.0133 -0.6581
 4913SOL     OW18780   0.910   4.595   1.935 -0.0568 -0.1658  0.1422
 4913SOL    HW118781   0.829   4.576   1.983 -0.5494  0.9454 -0.2027
 4913SOL    HW218782   0.902   4.545   1.854 -0.5530  0.1676 -0.0207
 4914SOL     OW18783   7.692   7.774   5.841 -0.0356 -0.2230  0.0703
 4914SOL    HW118784   7.724   7.863   5.858 -0.9467  0.0647  0.3130
 4914SOL    HW218785   7.772   7.721   5.837  0.5223  0.5952 -0.0549
 4915SOL     OW18786   8.899  10.097   8.705  0.3197 -0.6445 -0.1299
 4915SOL    HW118787   8.946  10.054   8.634 -0.4397 -0.9430 -0.4661
 4915SOL    HW218788   8.861  10.025   8.755 -1.1633 -0.3882 -0.8372
 4916SOL     OW18789   6.844   2.247   6.255  0.0143  0.0830  0.3340
 4916SOL    HW118790   6.874   2.334   6.229  0.7959 -0.8275 -2.0401
 4916SOL    HW218791   6.750   2.247   6.236  0.4246 -0.2893 -1.8998
 4917SOL     OW18792   5.170   8.465   6.393  0.3467  0.2469  0.1318
 4917SOL    HW118793   5.236   8.478   6.460  0.1337  3.2579 -0.0988
 4917SOL    HW218794   5.199   8.518   6.319 -1.9394  1.1320 -0.2295
 4918SOL     OW18795   1.834   7.712   6.881 -0.6190  0.5667  0.2742
 4918SOL    HW118796   1.855   7.638   6.824  0.1827  0.5158  0.6220
 4918SOL    HW218797   1.802   7.672   6.962 -2.1000  0.6454 -0.2597
 4919SOL     OW18798   5.424   7.048   4.322  0.7908 -0.3941 -0.4472
 4919SOL    HW118799   5.494   7.070   4.384 -0.8594 -0.7988  1.7151
 4919SOL    HW218800   5.346   7.091   4.358 -0.3848 -1.2038 -1.9074
 4920SOL     OW18801   7.573   2.192   5.649  0.2551  0.1753  0.0924
 4920SOL    HW118802   7.543   2.103   5.630  0.6289  0.0511  0.0621
 4920SOL    HW218803   7.599   2.227   5.564  1.3118 -0.1479  0.2556
 4921SOL     OW18804   0.630   0.883   3.626  0.1942 -0.0240  0.4608
 4921SOL    HW118805   0.614   0.976   3.642  1.1569  0.1236  0.6098
 4921SOL    HW218806   0.661   0.879   3.535  0.2155 -0.1897  0.4743
 4922SOL     OW18807   3.465   1.871   7.549 -0.4452 -0.0504  0.5458
 4922SOL    HW118808   3.423   1.819   7.480  0.1951  0.7379 -0.4815
 4922SOL    HW218809   3.444   1.962   7.526  0.2124  0.2496  1.1018
 4923SOL     OW18810   5.983   9.913   1.553  0.3415  0.1003  0.2115
 4923SOL    HW118811   5.919   9.886   1.488 -0.1684  0.0455  0.7308
 4923SOL    HW218812   6.046   9.966   1.504  0.8948 -1.3037 -0.6648
 4924SOL     OW18813   0.141   6.383   5.303  0.1751 -0.2969  0.2599
 4924SOL    HW118814   0.236   6.388   5.297  0.4446 -3.4316  0.0570
 4924SOL    HW218815   0.115   6.337   5.223 -1.5216  0.5140  0.3099
 4925SOL     OW18816   3.864   4.924   8.588 -0.4482  0.0903  0.1960
 4925SOL    HW118817   3.909   5.007   8.599 -1.0079  0.1821  2.3016
 4925SOL    HW218818   3.832   4.902   8.676 -1.2388 -1.8190 -0.5017
 4926SOL     OW18819   3.947   7.934   1.137 -0.0150 -0.2339  0.4594
 4926SOL    HW118820   3.995   7.977   1.066 -1.1817 -0.3357 -0.4285
 4926SOL    HW218821   4.002   7.947   1.214  0.6842  1.0017 -0.2027
 4927SOL     OW18822   6.450   5.273   8.239 -0.2802 -0.0804 -0.6172
 4927SOL    HW118823   6.448   5.369   8.235  2.0071  0.0878  0.8049
 4927SOL    HW218824   6.431   5.246   8.149  0.9364  1.7851 -1.5201
 4928SOL     OW18825   4.240   6.694   3.324 -0.2782  0.7215 -0.3112
 4928SOL    HW118826   4.230   6.702   3.419 -2.0873  1.7068 -0.5559
 4928SOL    HW218827   4.207   6.607   3.304  2.4352 -0.5501  0.1820
 4929SOL     OW18828   4.751   2.004   5.085 -0.1452  0.0020 -0.2168
 4929SOL    HW118829   4.796   1.944   5.144  0.8711  1.3743  0.4784
 4929SOL    HW218830   4.788   1.986   4.999 -0.9884 -1.4097 -0.2993
 4930SOL     OW18831   8.266   4.657   9.029  1.0632  0.2062 -0.1704
 4930SOL    HW118832   8.221   4.721   9.084 -1.2311 -1.1557 -0.3379
 4930SOL    HW218833   8.296   4.590   9.090 -2.5671 -1.9403 -0.4900
 4931SOL     OW18834   9.754   7.072   8.606  0.2865  0.6296  0.4226
 4931SOL    HW118835   9.827   7.018   8.573 -2.0512 -2.1080 -0.6439
 4931SOL    HW218836   9.695   7.080   8.531 -1.0290  1.8849  1.5417
 4932SOL     OW18837   6.960   9.212   4.999  0.2055  0.2128 -0.0804
 4932SOL    HW118838   7.010   9.184   4.923 -0.5685  0.7046 -0.7879
 4932SOL    HW218839   7.008   9.287   5.033  0.5401  0.0078 -0.0948
 4933SOL     OW18840   4.049   6.170   5.848 -0.0085  0.2369  0.1568
 4933SOL    HW118841   4.060   6.130   5.935  0.6212 -0.0335 -0.0440
 4933SOL    HW218842   4.131   6.150   5.802 -0.9929 -1.1503 -1.1078
 4934SOL     OW18843   9.564   8.645   7.963  0.3214 -0.2579 -0.3461
 4934SOL    HW118844   9.612   8.712   7.914 -0.7869 -1.2700 -3.0209
 4934SOL    HW218845   9.500   8.694   8.015 -1.0440  0.8798 -2.8825
 4935SOL     OW18846   7.186   6.738   7.152  0.3277  0.2540 -0.1622
 4935SOL    HW118847   7.202   6.823   7.112  1.0937 -0.0857 -0.6137
 4935SOL    HW218848   7.207   6.675   7.082 -0.4229 -0.2963  0.0961
 4936SOL     OW18849   0.126   5.519  10.220  0.0364 -0.6619  1.0621
 4936SOL    HW118850   0.214   5.541  10.251  0.1673 -0.2648  0.4333
 4936SOL    HW218851   0.067   5.568  10.276  0.3414  2.3809 -1.0362
 4937SOL     OW18852   1.428   5.196   6.064  0.1685  0.5717 -0.0693
 4937SOL    HW118853   1.441   5.289   6.046  1.5364  0.1743 -1.2854
 4937SOL    HW218854   1.513   5.165   6.095 -0.3731 -0.2056  0.6912
 4938SOL     OW18855   2.167   3.699   8.114  0.5533  0.5556  0.0918
 4938SOL    HW118856   2.093   3.642   8.136  0.5257  0.1499 -0.9932
 4938SOL    HW218857   2.221   3.647   8.055  1.5634  0.9606  0.6363
 4939SOL     OW18858   5.729   2.007  10.112 -0.4750  0.1971  0.7005
 4939SOL    HW118859   5.773   1.929  10.147  0.0931  0.7421  1.2154
 4939SOL    HW218860   5.676   1.974  10.039 -0.7578 -0.7798  1.3285
 4940SOL     OW18861   5.139   8.079   5.186  0.3549  0.2481 -0.2672
 4940SOL    HW118862   5.089   7.999   5.173 -1.5963  1.3449  0.1149
 4940SOL    HW218863   5.088   8.129   5.250  1.6110  1.7236 -0.3620
 4941SOL     OW18864   6.502   9.569   2.048 -0.1930  0.4548  0.4580
 4941SOL    HW118865   6.448   9.611   2.116  1.3709  3.2298  0.1457
 4941SOL    HW218866   6.592   9.584   2.076  0.5538 -3.3487  0.5429
 4942SOL     OW18867  10.204  10.134   0.552 -0.5328  0.2627  0.3232
 4942SOL    HW118868  10.298  10.119   0.549 -0.6744 -0.8116 -3.0676
 4942SOL    HW218869  10.193  10.224   0.521 -0.6487 -0.0512 -0.5732
 4943SOL     OW18870   2.929   5.791   9.434 -0.7754  0.6846  0.1458
 4943SOL    HW118871   2.841   5.764   9.410  0.2175 -1.2739 -1.6134
 4943SOL    HW218872   2.980   5.710   9.433  1.4595  2.0172 -0.9066
 4944SOL     OW18873   0.179   5.414   2.115  0.1598 -0.1474  0.5530
 4944SOL    HW118874   0.119   5.378   2.050 -0.2068  0.9767  0.2292
 4944SOL    HW218875   0.169   5.358   2.192 -2.3728  0.7744  1.0036
 4945SOL     OW18876   7.424   2.018   4.453 -0.4221  0.2293 -0.2655
 4945SOL    HW118877   7.374   1.958   4.398 -1.3400  0.6613  0.0750
 4945SOL    HW218878   7.390   2.104   4.432  0.9802  0.6645 -0.8437
 4946SOL     OW18879   4.916   8.249   3.564 -0.2137  0.1440 -0.0142
 4946SOL    HW118880   4.858   8.247   3.487  0.4054  1.9158 -0.5729
 4946SOL    HW218881   4.928   8.342   3.583  0.5840 -0.2359  1.5432
 4947SOL     OW18882   6.278   0.207   9.875  0.4506  0.2064  0.2388
 4947SOL    HW118883   6.349   0.143   9.868 -0.5353 -1.1440  1.8492
 4947SOL    HW218884   6.230   0.199   9.792  0.7333 -0.6842  0.1523
 4948SOL     OW18885   6.090   9.922   2.697 -0.6710 -0.1985  0.2199
 4948SOL    HW118886   6.104   9.844   2.751  0.6068  0.2314  0.5518
 4948SOL    HW218887   6.178   9.956   2.681 -1.1678  0.8229 -0.4578
 4949SOL     OW18888   4.399   9.931   6.932 -0.1983 -0.0109 -0.6344
 4949SOL    HW118889   4.401  10.024   6.910  2.5616  0.0184 -0.5830
 4949SOL    HW218890   4.383   9.929   7.026 -1.0504  0.3363 -0.7576
 4950SOL     OW18891   1.388   3.542   4.218 -0.0554  0.4486 -0.6208
 4950SOL    HW118892   1.294   3.552   4.235 -0.2910 -1.3291 -0.6028
 4950SOL    HW218893   1.429   3.616   4.263 -1.2430 -0.2321  1.7684
 4951SOL     OW18894   5.194   7.711   2.871 -0.2978 -0.0105 -0.0749
 4951SOL    HW118895   5.285   7.683   2.879 -0.5812 -1.0088 -0.2585
 4951SOL    HW218896   5.152   7.680   2.951 -0.1982  1.6258  0.6458
 4952SOL     OW18897   8.312   9.917   2.251 -0.8005  0.1059  0.0412
 4952SOL    HW118898   8.281   9.995   2.205 -1.4622 -0.5848 -0.7189
 4952SOL    HW218899   8.380   9.950   2.310 -0.7626  1.1904 -0.5701
 4953SOL     OW18900   1.882   4.054   2.855  0.3449 -0.3415 -0.3522
 4953SOL    HW118901   1.976   4.058   2.837  0.6454 -1.3352  0.8627
 4953SOL    HW218902   1.864   3.961   2.867 -0.6802 -0.1088  0.0186
 4954SOL     OW18903   8.836   5.744   7.843  0.2301 -0.4350 -0.1417
 4954SOL    HW118904   8.862   5.655   7.817 -1.3811 -0.5199 -1.6944
 4954SOL    HW218905   8.743   5.736   7.866  0.5140  0.5310  1.4963
 4955SOL     OW18906   8.017   0.920   5.882 -0.0949 -0.0857  0.2622
 4955SOL    HW118907   7.977   1.001   5.914  0.6466  1.4790 -2.4425
 4955SOL    HW218908   7.948   0.877   5.832  0.2302  0.2004 -0.4411
 4956SOL     OW18909   5.183   4.844   2.452 -0.1351 -0.4595 -0.2166
 4956SOL    HW118910   5.127   4.817   2.379 -0.7390  0.3545 -0.0668
 4956SOL    HW218911   5.186   4.940   2.446 -0.9035 -0.3028  1.3170
 4957SOL     OW18912   8.044   2.299   4.947 -0.3119 -0.1588  0.1868
 4957SOL    HW118913   7.988   2.221   4.955 -0.3761 -0.0621  0.6714
 4957SOL    HW218914   8.116   2.284   5.008  0.1566 -0.2427 -0.3745
 4958SOL     OW18915   6.462   9.557   9.843  0.1010  0.0105 -0.4047
 4958SOL    HW118916   6.547   9.598   9.861  0.2215  0.1926 -1.3745
 4958SOL    HW218917   6.398   9.616   9.883  0.3347  0.6339 -0.9404
 4959SOL     OW18918   0.013   4.782   5.106  0.0639 -0.1063 -0.2178
 4959SOL    HW118919  -0.040   4.707   5.080  0.4754 -0.2810 -0.5732
 4959SOL    HW218920   0.016   4.777   5.201 -0.4497 -0.1642 -0.2005
 4960SOL     OW18921   4.690   6.420   7.157 -0.1330 -0.0775  0.5794
 4960SOL    HW118922   4.646   6.337   7.173 -0.1998 -0.4905 -1.4972
 4960SOL    HW218923   4.622   6.477   7.121 -0.0734  0.8906  1.9245
 4961SOL     OW18924   8.420   8.726   4.123  0.3286  0.1392  0.1911
 4961SOL    HW118925   8.481   8.784   4.167 -0.0543  0.4203  0.3562
 4961SOL    HW218926   8.371   8.684   4.195  0.5630 -0.3466  0.0739
 4962SOL     OW18927   2.721   0.546   2.228  0.1821  0.0709  0.4037
 4962SOL    HW118928   2.688   0.520   2.142 -2.4526 -2.4385  2.0006
 4962SOL    HW218929   2.797   0.489   2.243 -0.1795 -0.4468  0.2841
 4963SOL     OW18930   8.367   8.067   8.962 -0.0825 -0.2433 -0.1928
 4963SOL    HW118931   8.417   8.045   9.040  2.0400 -2.2568 -1.9658
 4963SOL    HW218932   8.425   8.124   8.912  0.4057 -2.2754 -2.0981
 4964SOL     OW18933   1.744   3.013   2.439 -0.4774  0.1149 -0.5073
 4964SOL    HW118934   1.715   3.101   2.416 -0.2457  1.1783  2.7254
 4964SOL    HW218935   1.677   2.982   2.500  1.2575 -0.4276  1.1976
 4965SOL     OW18936   4.281   7.369   2.845  0.1163  0.2060  0.9484
 4965SOL    HW118937   4.262   7.367   2.751  0.8138  1.7427  0.7531
 4965SOL    HW218938   4.369   7.332   2.853  0.2305  0.4813  0.9538
 4966SOL     OW18939   1.095   2.537   2.942  0.1363  0.5169 -0.0651
 4966SOL    HW118940   1.118   2.622   2.905 -0.4523  0.0336 -1.6636
 4966SOL    HW218941   1.177   2.488   2.942  0.0420  0.2950 -1.4967
 4967SOL     OW18942   5.389   2.957   1.542  0.1228 -0.0430 -0.8250
 4967SOL    HW118943   5.378   2.879   1.597 -1.9722  0.6773 -0.1517
 4967SOL    HW218944   5.457   2.932   1.479  1.1636 -1.5895  0.8067
 4968SOL     OW18945   2.709   3.383   1.960 -0.0021  0.0445 -0.4792
 4968SOL    HW118946   2.704   3.338   1.876 -0.0192 -0.9777  0.0550
 4968SOL    HW218947   2.705   3.313   2.025 -0.8928  0.8829  0.3948
 4969SOL     OW18948   4.078  10.137   4.746 -0.1372 -0.2784 -1.0874
 4969SOL    HW118949   4.140  10.207   4.768  0.0760 -0.6279 -0.5259
 4969SOL    HW218950   4.023  10.129   4.824  0.4812 -1.3903 -0.7306
 4970SOL     OW18951   0.732   8.523  10.175  0.3710 -0.6240 -0.1846
 4970SOL    HW118952   0.817   8.541  10.136  0.8701 -0.8836  0.7769
 4970SOL    HW218953   0.671   8.579  10.125  1.1960  0.1083 -0.3954
 4971SOL     OW18954   9.044   3.200   3.557  0.4470 -0.0968  0.4044
 4971SOL    HW118955   8.952   3.223   3.542  0.8238 -0.0295 -2.2111
 4971SOL    HW218956   9.042   3.105   3.571  0.1057 -0.3780 -1.3412
 4972SOL     OW18957   4.779   8.954   1.281  0.2433  0.1445  0.2551
 4972SOL    HW118958   4.798   8.976   1.190  1.0226 -1.7803 -0.0882
 4972SOL    HW218959   4.728   8.873   1.276 -0.0545  0.2319  1.5308
 4973SOL     OW18960   1.623   4.661   6.435 -0.1430  0.3651  0.0070
 4973SOL    HW118961   1.549   4.604   6.453  0.5726 -0.8044 -0.6817
 4973SOL    HW218962   1.691   4.633   6.497  0.2982  0.2958 -0.4997
 4974SOL     OW18963   3.599   6.544   7.792 -0.2593 -0.5100  0.4298
 4974SOL    HW118964   3.685   6.578   7.767 -0.5729  0.4309  0.5736
 4974SOL    HW218965   3.578   6.591   7.873 -0.5923 -1.2609  0.7799
 4975SOL     OW18966   1.367  10.243   2.534  0.5180  0.0145  0.1661
 4975SOL    HW118967   1.446  10.277   2.577  1.8049  1.1443 -2.8171
 4975SOL    HW218968   1.317  10.320   2.510 -0.3683 -0.5986  0.0124
 4976SOL     OW18969   0.075   8.128   1.886  0.5397 -0.0888 -0.1535
 4976SOL    HW118970   0.081   8.204   1.943 -0.0377 -0.5200  0.5005
 4976SOL    HW218971   0.131   8.062   1.928 -0.3934 -0.6236  0.2932
 4977SOL     OW18972   2.104   1.020   7.082 -0.0903  0.4037  0.5126
 4977SOL    HW118973   2.118   1.058   7.169 -2.8960  1.0611  0.7667
 4977SOL    HW218974   2.013   1.041   7.061 -0.0774 -1.4275 -1.7708
 4978SOL     OW18975   5.488   0.059   4.985  0.8862 -0.2819 -0.1254
 4978SOL    HW118976   5.399   0.033   5.010  0.3713  0.7606 -0.7943
 4978SOL    HW218977   5.516   0.117   5.056  1.5516 -1.6188  0.7365
 4979SOL     OW18978   3.025   2.396   4.114 -0.0302 -0.2404 -0.2570
 4979SOL    HW118979   3.112   2.388   4.152 -0.4380  0.0862  0.7880
 4979SOL    HW218980   3.038   2.384   4.020  1.4928  2.2211 -0.4231
 4980SOL     OW18981   1.235   8.971   3.111 -0.1814 -0.0081 -0.6872
 4980SOL    HW118982   1.314   8.996   3.063  1.7901  2.4324  3.2987
 4980SOL    HW218983   1.179   9.049   3.106 -0.5954 -0.2731 -0.2601
 4981SOL     OW18984   3.997   3.418   3.493 -0.5350  0.2684 -0.1048
 4981SOL    HW118985   3.907   3.448   3.482 -0.4295  0.8824  0.6425
 4981SOL    HW218986   4.035   3.423   3.406 -0.9579  0.8898 -0.2569
 4982SOL     OW18987   6.544  10.048   0.007 -0.2588  0.0367  0.0898
 4982SOL    HW118988   6.636  10.033   0.031 -0.7130 -0.0920  1.9238
 4982SOL    HW218989   6.537  10.143  -0.003  0.0011  0.0829  0.3205
 4983SOL     OW18990   6.173   3.509   9.156 -0.0733  0.2329  0.1878
 4983SOL    HW118991   6.143   3.504   9.247 -2.0898 -0.7797 -0.4616
 4983SOL    HW218992   6.093   3.500   9.104  1.1990 -0.8841 -1.7177
 4984SOL     OW18993   4.976   9.596   7.324 -0.2188  0.4068 -0.3872
 4984SOL    HW118994   4.911   9.600   7.394 -0.9577  0.9752 -1.0811
 4984SOL    HW218995   5.052   9.643   7.357  0.0518 -0.7160  0.6399
 4985SOL     OW18996   0.967   2.243   1.970  0.3857  0.0320  0.1262
 4985SOL    HW118997   0.944   2.251   2.063  0.2063 -0.5464  0.1375
 4985SOL    HW218998   1.012   2.325   1.949  1.1226 -0.1509  0.9250
 4986SOL     OW18999   5.522   1.980   3.047 -0.5940  0.8805 -0.1883
 4986SOL    HW119000   5.497   2.062   3.090  0.8688  0.8097  0.8996
 4986SOL    HW219001   5.504   1.912   3.112 -1.4008  0.3786 -0.9247
 4987SOL     OW19002   3.811   9.409   7.455  0.4842  0.0262  0.0059
 4987SOL    HW119003   3.763   9.486   7.424 -0.5653  0.1337  1.7864
 4987SOL    HW219004   3.774   9.336   7.407 -1.9165  0.0372  1.6648
 4988SOL     OW19005   4.006   0.357   8.252  0.2590  0.0127  0.9783
 4988SOL    HW119006   4.060   0.287   8.290  0.7107 -0.7752 -1.0011
 4988SOL    HW219007   3.931   0.311   8.214 -0.6745  0.8783  1.7147
 4989SOL     OW19008   1.479   4.962   8.531  0.4035 -0.5729 -0.6362
 4989SOL    HW119009   1.414   5.033   8.536  0.0693 -0.9617  1.1317
 4989SOL    HW219010   1.563   5.005   8.546  0.2084 -0.5276  0.3727
 4990SOL     OW19011   2.835   1.303   3.962 -0.3440  0.6276 -0.3416
 4990SOL    HW119012   2.894   1.255   4.019  0.5189  1.9165 -0.1110
 4990SOL    HW219013   2.875   1.296   3.875 -1.7841 -1.5428 -0.9014
 4991SOL     OW19014   3.460   0.215   4.818  0.1468 -0.3705  0.1392
 4991SOL    HW119015   3.422   0.216   4.906 -1.7891 -1.5133 -0.6311
 4991SOL    HW219016   3.481   0.123   4.802 -0.2815 -0.2946 -0.8995
 4992SOL     OW19017   8.409   7.324  10.179 -0.0461 -0.2300 -0.5067
 4992SOL    HW119018   8.342   7.318  10.111  1.1453 -1.7549 -1.6227
 4992SOL    HW219019   8.426   7.233  10.203 -0.2012  0.2615  1.6386
 4993SOL     OW19020   6.321   5.933   6.871  0.0795  0.0056  0.2852
 4993SOL    HW119021   6.321   6.028   6.885 -0.0077  0.0763 -0.1856
 4993SOL    HW219022   6.230   5.906   6.883 -0.6675  0.5293 -3.1135
 4994SOL     OW19023   0.599   5.658   1.477  0.3949 -0.7679  0.0376
 4994SOL    HW119024   0.651   5.733   1.508 -0.0516 -1.3948  2.5773
 4994SOL    HW219025   0.663   5.597   1.441  0.7618  0.7909 -2.1361
 4995SOL     OW19026   7.037   1.820   8.276  0.1369 -0.5060  0.2688
 4995SOL    HW119027   7.027   1.886   8.345 -1.0617 -0.9167  0.5002
 4995SOL    HW219028   6.992   1.857   8.200  1.0639 -0.2557 -0.1719
 4996SOL     OW19029   2.711   8.974   8.351  0.6735  0.3522 -0.0542
 4996SOL    HW119030   2.755   9.056   8.328  1.5725 -0.0287  0.2636
 4996SOL    HW219031   2.736   8.913   8.281 -1.3908  0.7966 -1.2351
 4997SOL     OW19032   6.692   9.888   9.651  0.3460 -0.0845 -0.1405
 4997SOL    HW119033   6.704   9.857   9.561 -0.2110 -1.0748  0.1083
 4997SOL    HW219034   6.679   9.983   9.642 -1.1151 -0.3438 -1.2604
 4998SOL     OW19035   8.088   0.203   0.111 -0.0993 -0.2488 -0.2303
 4998SOL    HW119036   8.055   0.124   0.069 -0.4545 -0.2340  0.0175
 4998SOL    HW219037   8.159   0.172   0.168  1.1179 -0.1444 -1.6159
 4999SOL     OW19038   1.409   7.216   9.301 -0.0715 -0.8189  0.5036
 4999SOL    HW119039   1.462   7.162   9.243  0.6410 -0.0987  0.4585
 4999SOL    HW219040   1.464   7.231   9.378 -0.1418  0.0302  0.4076
 5000SOL     OW19041   1.836   8.177   3.401  0.2583  0.3344 -0.2408
 5000SOL    HW119042   1.821   8.085   3.378 -0.5048  0.7643 -1.5780
 5000SOL    HW219043   1.857   8.175   3.494 -0.1332 -1.1554 -0.1547
 5001SOL     OW19044   1.007   9.241   5.792 -0.2036  0.1979 -0.1948
 5001SOL    HW119045   0.928   9.278   5.833  0.0175  0.3694  0.0883
 5001SOL    HW219046   1.051   9.317   5.753 -1.2744 -0.1950 -2.2763
 5002SOL     OW19047   3.232   3.694   3.359  0.1448 -0.0534  0.2403
 5002SOL    HW119048   3.306   3.644   3.392  1.0213  1.2074  0.2705
 5002SOL    HW219049   3.201   3.745   3.434  0.9050  1.3520 -0.3558
 5003SOL     OW19050   5.139   6.284   4.057  0.0120 -0.1555  0.0179
 5003SOL    HW119051   5.044   6.271   4.058  0.0383 -0.3550  0.1985
 5003SOL    HW219052   5.150   6.377   4.037 -0.1726 -0.5022 -1.8220
 5004SOL     OW19053   6.923   3.486   0.037  0.0100  0.2797 -0.6530
 5004SOL    HW119054   6.976   3.523   0.108  0.8743 -0.5977 -0.8182
 5004SOL    HW219055   6.896   3.400   0.069 -1.3662  0.7203 -0.5624
 5005SOL     OW19056   9.166   8.308   0.671  0.5771  0.4036 -0.4962
 5005SOL    HW119057   9.197   8.318   0.580  1.3694  0.4544 -0.2323
 5005SOL    HW219058   9.212   8.231   0.703 -1.5700 -1.1224 -0.8823
 5006SOL     OW19059   4.325   7.921  10.124  0.7631  1.2389 -0.4988
 5006SOL    HW119060   4.385   7.876  10.065  1.0892  0.5849  0.3081
 5006SOL    HW219061   4.241   7.920  10.078  1.0856  1.0603 -1.0995
 5007SOL     OW19062   0.465   7.337   4.795  0.3430 -0.0724 -0.3587
 5007SOL    HW119063   0.412   7.260   4.772  0.9798 -1.0192  1.1918
 5007SOL    HW219064   0.407   7.411   4.779 -0.4526 -0.8896 -1.4476
 5008SOL     OW19065   0.838   4.970   1.360 -0.3169  0.2428  0.4463
 5008SOL    HW119066   0.930   4.946   1.373 -0.5377 -0.2883  1.0464
 5008SOL    HW219067   0.842   5.057   1.319  0.4780 -0.2935 -0.6908
 5009SOL     OW19068   2.242   3.373   3.902  0.0243 -0.3795 -0.0206
 5009SOL    HW119069   2.318   3.333   3.945  1.5026 -0.1137 -2.1953
 5009SOL    HW219070   2.218   3.310   3.833 -1.9277 -0.5736  0.7745
 5010SOL     OW19071   9.926   4.910   6.704 -0.5199  0.3276  0.0268
 5010SOL    HW119072   9.865   4.886   6.773  0.6627 -1.0881  0.6336
 5010SOL    HW219073   9.972   4.987   6.738 -0.8380  0.4180  0.2532
 5011SOL     OW19074   0.809   5.807   9.768 -0.2222 -0.4033  0.4018
 5011SOL    HW119075   0.878   5.872   9.782  0.4033 -1.2296  1.2693
 5011SOL    HW219076   0.728   5.857   9.770  0.3232  0.5704 -0.5024
 5012SOL     OW19077   3.011   4.527   3.718 -0.1811 -0.2980  0.1769
 5012SOL    HW119078   3.026   4.432   3.723  0.6868 -0.1391  0.7722
 5012SOL    HW219079   3.031   4.549   3.627 -0.7891 -0.7417 -0.0746
 5013SOL     OW19080   3.627  10.237   2.951  0.0571 -0.3345  0.6234
 5013SOL    HW119081   3.538  10.272   2.947  0.0801 -0.2999  0.3531
 5013SOL    HW219082   3.649  10.219   2.859  0.1043 -0.9069  0.7431
 5014SOL     OW19083   6.021   4.078   0.598  0.3845  0.5363  0.0910
 5014SOL    HW119084   6.025   4.031   0.514  0.6923 -1.9213  1.3706
 5014SOL    HW219085   6.110   4.111   0.611  0.3824  0.7701 -0.4533
 5015SOL     OW19086   5.102   0.124   1.059  1.0063  0.1308 -0.1822
 5015SOL    HW119087   5.089   0.097   1.151  0.7594  0.5492 -0.0962
 5015SOL    HW219088   5.069   0.213   1.055  0.5565 -0.0561 -0.8000
 5016SOL     OW19089   7.516   3.678   8.803  0.3616 -0.4801 -0.4226
 5016SOL    HW119090   7.484   3.675   8.712 -2.9725  2.7962  0.3701
 5016SOL    HW219091   7.599   3.725   8.797  0.7864 -1.3369 -1.8243
 5017SOL     OW19092   2.051   1.586   7.921  0.2409 -0.1665  0.0151
 5017SOL    HW119093   2.059   1.499   7.882  0.5425  0.0665 -0.4530
 5017SOL    HW219094   2.142   1.617   7.929  0.1765 -0.1386  0.7497
 5018SOL     OW19095   5.327   4.330   9.831 -0.0101  0.3883  0.4508
 5018SOL    HW119096   5.243   4.287   9.847 -0.0081  0.5747  1.0052
 5018SOL    HW219097   5.347   4.312   9.739  0.9826 -2.5490  1.1110
 5019SOL     OW19098   7.380   6.815   2.520 -0.5214 -0.1008  0.3575
 5019SOL    HW119099   7.427   6.773   2.448 -1.8983 -0.5905 -0.2910
 5019SOL    HW219100   7.289   6.816   2.492 -1.0751 -0.1832  2.0426
 5020SOL     OW19101   8.755   3.057   1.039 -0.4578 -0.6840  0.1413
 5020SOL    HW119102   8.826   3.072   0.976 -0.3191  0.5340  0.5688
 5020SOL    HW219103   8.681   3.031   0.984  0.1315 -1.3658 -0.3631
 5021SOL     OW19104   6.932   3.322   2.451  0.1265 -0.0531  0.4512
 5021SOL    HW119105   6.889   3.355   2.372  1.4701  0.3498 -0.1359
 5021SOL    HW219106   6.983   3.247   2.421  0.0946 -0.3281  1.0691
 5022SOL     OW19107   2.264   7.096   2.097 -0.6964  0.4504 -0.4566
 5022SOL    HW119108   2.172   7.112   2.077 -0.8749 -2.0355 -1.9741
 5022SOL    HW219109   2.262   7.050   2.181 -0.8634  0.2292 -0.5796
 5023SOL     OW19110   9.321   4.882   6.959 -0.1370 -0.0059 -0.1152
 5023SOL    HW119111   9.258   4.939   6.914 -1.3181 -0.4512  0.9118
 5023SOL    HW219112   9.316   4.909   7.050  1.0368 -0.1942  0.0188
 5024SOL     OW19113   8.336   4.147   0.091  0.1643 -0.0625  0.0625
 5024SOL    HW119114   8.341   4.171  -0.002 -2.1349  2.2329  0.4247
 5024SOL    HW219115   8.283   4.067   0.092 -0.4012  0.2942 -0.5595
 5025SOL     OW19116   6.916   9.659  10.267  0.3881 -0.1641  0.6911
 5025SOL    HW119117   6.956   9.587  10.316  1.0683 -0.7266 -0.6371
 5025SOL    HW219118   6.917   9.733  10.328  2.3365 -0.4878  1.1344
 5026SOL     OW19119   7.205   9.092   8.957  0.0184  0.1641  0.2482
 5026SOL    HW119120   7.118   9.105   8.919 -0.2563 -1.3295  0.3103
 5026SOL    HW219121   7.196   9.014   9.012  1.3507  0.0880  0.3934
 5027SOL     OW19122   7.417   0.978   8.518 -0.0792  0.1457  0.0040
 5027SOL    HW119123   7.401   0.938   8.603  1.5069  0.1064  0.3274
 5027SOL    HW219124   7.403   0.907   8.455 -1.3023  0.1886  0.2142
 5028SOL     OW19125   8.267   8.191   8.345 -0.3694 -0.3521 -0.2849
 5028SOL    HW119126   8.266   8.250   8.270 -0.3509 -1.0474 -0.8413
 5028SOL    HW219127   8.356   8.155   8.347  0.4361  1.5590  1.6057
 5029SOL     OW19128   1.480   4.049   2.878  0.5679 -0.1787  0.4183
 5029SOL    HW119129   1.518   3.970   2.841 -0.2005 -0.3189 -0.0928
 5029SOL    HW219130   1.413   4.018   2.939  1.3317  0.0635  1.4136
 5030SOL     OW19131   9.698   6.273   1.894  0.6332 -0.0087 -0.2385
 5030SOL    HW119132   9.706   6.318   1.810  2.8920  2.3364  1.0957
 5030SOL    HW219133   9.700   6.180   1.872  0.5070  0.5234 -2.7952
 5031SOL     OW19134   2.083   5.120   6.760  0.9457  0.5453  0.1311
 5031SOL    HW119135   2.160   5.173   6.779  2.3064 -0.1970 -2.8018
 5031SOL    HW219136   2.102   5.034   6.799  0.6724  0.9034  1.0951
 5032SOL     OW19137   4.595   3.803   0.946 -1.3068  0.0235 -0.3518
 5032SOL    HW119138   4.641   3.811   0.862  1.2865  1.8938  1.0806
 5032SOL    HW219139   4.645   3.736   0.994  0.4447  2.4125  1.4096
 5033SOL     OW19140   4.378   5.921   1.433 -0.1924  0.3489  0.1825
 5033SOL    HW119141   4.441   5.922   1.505  2.4494 -0.9126 -1.9097
 5033SOL    HW219142   4.292   5.913   1.476  1.1121  0.9442  3.1715
 5034SOL     OW19143   1.117   3.601   5.828 -0.7859  0.1468 -0.2604
 5034SOL    HW119144   1.047   3.536   5.826 -1.2852  0.6242  0.7606
 5034SOL    HW219145   1.196   3.550   5.848 -0.8150 -0.3952 -1.4481
 5035SOL     OW19146   2.192   3.771   8.504 -0.2921 -0.4236  0.1456
 5035SOL    HW119147   2.244   3.691   8.518 -1.0184 -1.4739 -2.5167
 5035SOL    HW219148   2.256   3.838   8.485  0.3368 -1.9373 -4.2095
 5036SOL     OW19149   2.081   7.796   1.606  0.1944 -0.0407  0.0525
 5036SOL    HW119150   2.013   7.741   1.567 -0.4027 -0.8837  2.1616
 5036SOL    HW219151   2.137   7.821   1.532 -0.3764 -2.2483 -1.2110
 5037SOL     OW19152   8.338   5.957   1.987  0.5849  0.3574 -0.4391
 5037SOL    HW119153   8.268   5.934   1.925  0.9892 -0.7868 -0.5084
 5037SOL    HW219154   8.418   5.927   1.943  0.9235 -0.0002  0.4100
 5038SOL     OW19155   0.105   6.120   5.593 -0.1913 -0.0996  0.1788
 5038SOL    HW119156   0.077   6.177   5.521  0.3913  1.9128  1.4642
 5038SOL    HW219157   0.079   6.032   5.565 -2.9516  0.9778 -1.0474
 5039SOL     OW19158   2.357   8.537   5.749  0.2864 -0.3307 -0.5784
 5039SOL    HW119159   2.276   8.507   5.790  1.3859  0.7170  2.7777
 5039SOL    HW219160   2.413   8.460   5.747  0.4426 -0.2820  0.7146
 5040SOL     OW19161   3.624   5.172  10.274 -0.0288 -0.1952 -0.0713
 5040SOL    HW119162   3.597   5.212  10.357  1.3444 -1.8528  1.2761
 5040SOL    HW219163   3.706   5.215  10.252  0.5896 -1.0509  0.4892
 5041SOL     OW19164   4.135   5.346   4.816 -0.2939 -0.4797  0.0000
 5041SOL    HW119165   4.112   5.254   4.805  1.9752 -1.0011 -0.9307
 5041SOL    HW219166   4.229   5.346   4.834 -0.3587  1.6373  0.7001
 5042SOL     OW19167   3.973   8.617   6.952 -0.0954 -0.2737  0.0797
 5042SOL    HW119168   3.906   8.577   7.007 -1.1373 -0.7040 -1.4114
 5042SOL    HW219169   4.056   8.592   6.992 -0.8030 -1.2047  1.0073
 5043SOL     OW19170   2.196   1.727   3.129 -0.2254 -0.4517 -0.3205
 5043SOL    HW119171   2.121   1.668   3.129 -0.6887  0.1242 -0.7708
 5043SOL    HW219172   2.207   1.752   3.037 -1.4508  1.9183  0.1182
 5044SOL     OW19173   5.132   3.547   3.220  0.1667 -0.0417 -0.0109
 5044SOL    HW119174   5.107   3.635   3.192 -1.7704 -0.9093 -1.2071
 5044SOL    HW219175   5.053   3.511   3.260  1.0742 -1.0858  0.9412
 5045SOL     OW19176   3.567   1.663   7.021 -0.6392  0.1998  0.4282
 5045SOL    HW119177   3.491   1.639   6.968 -0.1807 -0.1526 -0.0760
 5045SOL    HW219178   3.589   1.584   7.070 -1.4842  0.7185  1.6865
 5046SOL     OW19179   4.390   4.563   2.138 -0.3553 -0.3551 -0.5084
 5046SOL    HW119180   4.348   4.630   2.084 -0.6679 -1.1392 -1.2460
 5046SOL    HW219181   4.385   4.483   2.087 -0.4507 -1.0761  0.5867
 5047SOL     OW19182   6.221   9.905   2.351  0.0276 -0.5493 -0.3083
 5047SOL    HW119183   6.216  10.001   2.348 -0.8218 -0.5799 -0.2611
 5047SOL    HW219184   6.314   9.885   2.347  0.2344  0.2966  0.0435
 5048SOL     OW19185   6.948   4.951   2.099  0.0734  0.2850  0.1493
 5048SOL    HW119186   7.006   4.922   2.028 -0.2537  0.5882 -0.2468
 5048SOL    HW219187   6.962   4.887   2.169  0.5109  0.0674 -0.1347
 5049SOL     OW19188   9.877   5.794   7.467  0.1138  0.2380  0.4199
 5049SOL    HW119189   9.828   5.765   7.544 -0.7277 -2.1724 -0.9110
 5049SOL    HW219190   9.811   5.833   7.409  0.7740  2.2433  0.9438
 5050SOL     OW19191   0.681   2.375   3.359 -0.2902 -0.5175 -0.1404
 5050SOL    HW119192   0.674   2.284   3.332 -1.9126 -0.7950  1.0332
 5050SOL    HW219193   0.739   2.415   3.295  0.4048 -2.3514 -0.7182
 5051SOL     OW19194   7.695   5.563   1.213 -0.2821 -0.4433  0.3060
 5051SOL    HW119195   7.758   5.530   1.148 -2.0609  0.1168 -1.8179
 5051SOL    HW219196   7.723   5.653   1.231 -0.5335 -0.1417 -0.7554
 5052SOL     OW19197   8.038   5.822   1.822  0.1287  0.3525  0.0970
 5052SOL    HW119198   8.090   5.748   1.854 -0.1157 -0.0236 -0.3603
 5052SOL    HW219199   7.983   5.847   1.897  0.3466  0.1926  0.3121
 5053SOL     OW19200   9.992   8.989   0.151  0.1828 -0.2907  0.7660
 5053SOL    HW119201   9.897   8.984   0.159 -0.1357 -0.5901 -2.1487
 5053SOL    HW219202  10.025   8.910   0.194 -1.0022 -0.9445  0.5063
 5054SOL     OW19203   5.170   6.565   4.006  0.4534 -0.7310 -0.0077
 5054SOL    HW119204   5.260   6.597   4.002 -0.1221  0.9340 -0.6234
 5054SOL    HW219205   5.136   6.579   3.917 -0.4982 -1.0557  0.2911
 5055SOL     OW19206   1.264   0.584   2.980 -0.2343  0.3531 -0.1209
 5055SOL    HW119207   1.176   0.609   3.007 -1.1371 -0.7234 -1.9129
 5055SOL    HW219208   1.283   0.640   2.905  0.3816  0.1821 -0.0972
 5056SOL     OW19209   9.388   1.503   5.966 -0.1127  0.1977 -0.7585
 5056SOL    HW119210   9.387   1.425   6.022 -1.8234 -0.9084 -2.2397
 5056SOL    HW219211   9.479   1.510   5.937  0.4633 -0.1419  0.8252
 5057SOL     OW19212   1.591   6.407   5.746 -0.3895  0.2651 -0.6199
 5057SOL    HW119213   1.546   6.421   5.663 -1.2802 -0.5282 -0.2847
 5057SOL    HW219214   1.671   6.360   5.722 -1.1101 -0.8480 -0.9632
 5058SOL     OW19215   2.438   3.488   8.384 -0.4616  0.1939 -0.3162
 5058SOL    HW119216   2.385   3.508   8.461  0.8777  1.7949  0.2520
 5058SOL    HW219217   2.469   3.399   8.398  0.2489  0.6662  1.3234
 5059SOL     OW19218   3.212   3.575   9.029 -0.1751  0.5568  0.2140
 5059SOL    HW119219   3.288   3.541   8.982 -0.8320 -1.3610  0.4477
 5059SOL    HW219220   3.157   3.498   9.045 -2.7152  1.9990 -0.8805
 5060SOL     OW19221   0.903   3.383   7.823 -0.3640 -0.1911 -0.0086
 5060SOL    HW119222   0.852   3.310   7.861 -0.8211 -0.6094 -1.3803
 5060SOL    HW219223   0.942   3.346   7.744  0.5898  0.6645  0.0499
 5061SOL     OW19224   4.300   6.449   3.032  0.1832  0.5201 -0.7992
 5061SOL    HW119225   4.318   6.426   2.941  0.7709  0.6439 -0.7169
 5061SOL    HW219226   4.382   6.486   3.064  0.4482 -0.8912  0.2336
 5062SOL     OW19227   2.372   0.392   0.544  0.4665  0.4105  0.1050
 5062SOL    HW119228   2.438   0.435   0.489  0.7796 -1.0689 -0.7183
 5062SOL    HW219229   2.381   0.299   0.524 -0.0788 -0.0708  1.9696
 5063SOL     OW19230   6.619   7.599   8.384  0.6378  1.0812  0.8346
 5063SOL    HW119231   6.595   7.685   8.418 -0.1826  1.0611  0.3398
 5063SOL    HW219232   6.536   7.560   8.356  1.2114  0.9217 -0.7662
 5064SOL     OW19233   6.512   4.709  10.235  0.2344 -0.3369  0.2061
 5064SOL    HW119234   6.560   4.789  10.213 -0.1028 -0.1587  0.1080
 5064SOL    HW219235   6.435   4.710  10.178 -0.1934 -0.3128  0.7724
 5065SOL     OW19236   9.135   4.384   5.251  0.3561 -0.2199 -0.6583
 5065SOL    HW119237   9.118   4.301   5.295 -0.0211  0.3650  0.3423
 5065SOL    HW219238   9.078   4.383   5.175  0.1785 -0.7789 -0.5207
 5066SOL     OW19239   3.700   5.986   3.052 -0.4325 -0.4840  0.1330
 5066SOL    HW119240   3.792   6.010   3.066  0.4611 -3.0926 -0.5645
 5066SOL    HW219241   3.660   6.063   3.013  1.0122  1.3080  1.9932
 5067SOL     OW19242   8.060   5.768   2.628 -0.3653 -0.6469  0.7865
 5067SOL    HW119243   8.097   5.747   2.714  1.4198 -0.8992  0.0012
 5067SOL    HW219244   8.056   5.684   2.582  0.6605 -0.2436 -0.0843
 5068SOL     OW19245   5.361   1.714   5.805  0.4111 -0.4839 -0.1303
 5068SOL    HW119246   5.407   1.641   5.847  0.4898 -0.6249 -0.4578
 5068SOL    HW219247   5.377   1.701   5.712  1.5557  0.6911 -0.1324
 5069SOL     OW19248   1.081   4.817   8.694 -0.1344  0.0409 -0.0940
 5069SOL    HW119249   1.175   4.804   8.705  0.0907  0.8632 -0.8438
 5069SOL    HW219250   1.074   4.908   8.664 -1.0786 -0.3632 -1.1290
 5070SOL     OW19251   4.481   8.137   5.686 -0.0263 -0.5577  0.2003
 5070SOL    HW119252   4.538   8.139   5.609 -0.3268  1.6490 -0.0468
 5070SOL    HW219253   4.454   8.046   5.694  0.8871 -1.0424 -1.6482
 5071SOL     OW19254   2.152   6.998   1.110  0.3225  0.6400 -0.2643
 5071SOL    HW119255   2.121   6.910   1.088  1.8681 -0.2398  0.8449
 5071SOL    HW219256   2.211   7.022   1.039 -0.0748  0.7580 -0.5522
 5072SOL     OW19257   5.839   8.335   7.910 -0.2478  0.1275  0.2890
 5072SOL    HW119258   5.763   8.372   7.866 -0.0557 -1.0944 -1.1276
 5072SOL    HW219259   5.914   8.365   7.858  0.2563  1.1502  1.5520
 5073SOL     OW19260   8.291   2.672   1.547  0.3689  0.1201 -0.3681
 5073SOL    HW119261   8.338   2.590   1.531 -2.2529 -1.7232  0.7768
 5073SOL    HW219262   8.226   2.677   1.477  0.2203  1.0326 -0.1759
 5074SOL     OW19263   6.248   4.954  10.212  0.1534  0.0585  0.2853
 5074SOL    HW119264   6.162   4.913  10.204 -0.2489  1.0643 -0.6329
 5074SOL    HW219265   6.292   4.903  10.281 -0.9724 -0.7890  0.4011
 5075SOL     OW19266   4.613   1.226   2.085  0.0019 -0.2522  0.1124
 5075SOL    HW119267   4.623   1.272   2.168 -0.9439 -2.0327  1.2550
 5075SOL    HW219268   4.548   1.277   2.037  0.2296  0.5421  0.6312
 5076SOL     OW19269   0.158   0.603   5.993 -0.3064  0.3150 -0.0347
 5076SOL    HW119270   0.253   0.614   5.990 -0.4844  2.3822  0.4561
 5076SOL    HW219271   0.125   0.658   5.922 -1.2106  1.1461  0.9953
 5077SOL     OW19272   4.222   2.500   4.834  0.4383  0.1128  0.6685
 5077SOL    HW119273   4.150   2.531   4.888  0.1626  0.3539  0.1629
 5077SOL    HW219274   4.300   2.537   4.875  0.2516  0.1023  1.0357
 5078SOL     OW19275   0.871   6.167   3.407 -0.6648  0.1757 -0.0917
 5078SOL    HW119276   0.786   6.210   3.408 -0.0640  1.4155 -0.8533
 5078SOL    HW219277   0.871   6.114   3.327 -1.0281 -0.5032  0.3454
 5079SOL     OW19278   2.680   9.644   7.229  0.1543  0.0629 -0.0829
 5079SOL    HW119279   2.760   9.697   7.220 -0.4670  1.4010  1.7241
 5079SOL    HW219280   2.712   9.555   7.242  1.2954  0.2902 -1.1453
 5080SOL     OW19281   6.200   6.964   0.678  0.3015 -0.0821  0.0774
 5080SOL    HW119282   6.159   6.925   0.755  0.9807 -0.5448  0.2174
 5080SOL    HW219283   6.139   6.946   0.606 -0.1823  0.0709  0.4434
 5081SOL     OW19284   7.399   9.699   5.764 -0.1635 -0.1924  0.0681
 5081SOL    HW119285   7.412   9.643   5.840 -1.4572 -2.1672 -1.0690
 5081SOL    HW219286   7.435   9.649   5.690 -0.9662  0.6613 -0.9416
 5082SOL     OW19287   9.843   9.928   2.693 -0.4410 -0.6592  0.2294
 5082SOL    HW119288   9.753   9.897   2.696 -0.0084 -2.7536 -3.4126
 5082SOL    HW219289   9.836  10.019   2.663 -1.3665 -0.9023 -0.3378
 5083SOL     OW19290   1.153   8.296   5.866 -0.1757  1.0915  0.3065
 5083SOL    HW119291   1.175   8.376   5.914 -0.6061  1.7514 -0.5814
 5083SOL    HW219292   1.204   8.301   5.786  1.4552 -0.5819  1.1612
 5084SOL     OW19293   3.063   6.306   5.540  0.3630 -0.3366 -0.8094
 5084SOL    HW119294   3.062   6.380   5.600 -0.2170 -2.6564  2.2769
 5084SOL    HW219295   2.971   6.293   5.515  0.2953 -0.6994 -0.3886
 5085SOL     OW19296   7.404   2.691   3.572 -0.1831 -0.6627 -0.0124
 5085SOL    HW119297   7.371   2.642   3.647  1.6320 -1.8845  0.0657
 5085SOL    HW219298   7.479   2.740   3.606 -0.2451 -0.0643 -0.7160
 5086SOL     OW19299  10.168   6.600   4.413 -0.5530 -0.7908 -0.1608
 5086SOL    HW119300  10.123   6.685   4.410  1.0479  0.1105  0.1816
 5086SOL    HW219301  10.124   6.552   4.483 -0.5111  0.3433  0.6725
 5087SOL     OW19302   5.900   8.556   3.655 -0.4163  0.6174  0.8040
 5087SOL    HW119303   5.935   8.599   3.577 -0.2065 -1.1422 -0.1193
 5087SOL    HW219304   5.960   8.580   3.725  1.0946 -0.1406 -0.1949
 5088SOL     OW19305   4.097   8.026   6.622 -0.1820 -0.5229  0.4504
 5088SOL    HW119306   4.110   8.104   6.677 -2.4567 -0.6626  1.2863
 5088SOL    HW219307   4.088   8.061   6.533  0.4324  0.0002  0.5864
 5089SOL     OW19308   4.163   4.072   3.207 -0.0296 -0.1406 -0.5215
 5089SOL    HW119309   4.212   4.008   3.259  3.4387  1.1987 -1.8512
 5089SOL    HW219310   4.164   4.151   3.260 -0.2619  0.0788 -0.8417
 5090SOL     OW19311   6.937   9.199   7.543 -0.4024  0.4653 -0.7514
 5090SOL    HW119312   6.975   9.176   7.628 -0.8623  0.8577 -0.4339
 5090SOL    HW219313   7.012   9.227   7.490  0.1852 -1.6658 -1.1506
 5091SOL     OW19314   8.295   5.072   1.850 -0.1318  0.8283 -0.2742
 5091SOL    HW119315   8.331   4.984   1.862 -0.2307  1.0392  2.2504
 5091SOL    HW219316   8.263   5.073   1.760 -0.0360 -1.6923 -0.4182
 5092SOL     OW19317   9.602   2.647   6.971 -0.4144  0.4478 -0.1518
 5092SOL    HW119318   9.605   2.553   6.952 -0.3682  0.3847  0.1620
 5092SOL    HW219319   9.619   2.653   7.065 -0.5915  0.7588 -0.1388
 5093SOL     OW19320   1.923   7.898   2.916  0.2058 -0.2690 -0.3883
 5093SOL    HW119321   1.839   7.941   2.930 -1.2659 -3.2999  1.2507
 5093SOL    HW219322   1.918   7.861   2.828 -0.8780 -1.6833  0.2328
 5094SOL     OW19323   7.716   0.544   3.549  0.0262  0.3165 -0.1610
 5094SOL    HW119324   7.656   0.600   3.599 -1.3446  0.5043 -1.9030
 5094SOL    HW219325   7.768   0.605   3.497  1.5160  0.1311  1.0603
 5095SOL     OW19326   9.763   9.089   4.300 -0.5186  0.3696  0.0271
 5095SOL    HW119327   9.799   9.152   4.238  0.2172  0.1435  0.2176
 5095SOL    HW219328   9.831   9.023   4.311 -0.8973  0.0519  0.5708
 5096SOL     OW19329   8.082   9.962   5.175 -0.1314  0.1244 -0.9066
 5096SOL    HW119330   8.147  10.031   5.165 -0.8976  0.8528 -1.0259
 5096SOL    HW219331   8.060   9.936   5.086 -0.9172  0.7764 -0.9122
 5097SOL     OW19332   9.179   2.669   3.000 -0.0426 -0.0890  0.0564
 5097SOL    HW119333   9.176   2.666   3.096 -1.2158  0.9104  0.0745
 5097SOL    HW219334   9.154   2.759   2.978 -0.7066 -0.5618 -1.2100
 5098SOL     OW19335   0.838   4.413   8.484 -0.3016 -0.6599 -0.4936
 5098SOL    HW119336   0.909   4.473   8.463  0.2541 -1.0070  0.3550
 5098SOL    HW219337   0.839   4.406   8.580 -0.8729 -1.4008 -0.5292
 5099SOL     OW19338   3.464   6.621   8.045  0.1880 -0.3809  0.0959
 5099SOL    HW119339   3.504   6.706   8.066  1.2053 -0.6585 -0.6723
 5099SOL    HW219340   3.370   6.638   8.053  0.3839  0.6862  0.4461
 5100SOL     OW19341   1.532   0.186   3.567  0.2490  0.2065  0.4339
 5100SOL    HW119342   1.585   0.264   3.549  0.4249  0.1674  0.7753
 5100SOL    HW219343   1.552   0.164   3.658  0.2443 -0.2739  0.3199
 5101SOL     OW19344   1.748   1.783   3.518  0.0814 -0.5282  0.5402
 5101SOL    HW119345   1.720   1.834   3.442 -0.5045 -1.0116  0.4270
 5101SOL    HW219346   1.844   1.793   3.519 -0.0149  0.5474  0.5140
 5102SOL     OW19347   3.254   3.690   2.124  0.2971 -0.6454  0.1334
 5102SOL    HW119348   3.262   3.617   2.186 -0.0149  0.2488  1.2742
 5102SOL    HW219349   3.344   3.715   2.104  0.4177 -0.1901  1.1800
 5103SOL     OW19350   3.741   8.087   2.133 -0.1030 -0.2702  0.9115
 5103SOL    HW119351   3.782   8.012   2.090  0.8156  0.1525  1.0267
 5103SOL    HW219352   3.693   8.048   2.207  1.6790 -0.6420  1.9498
 5104SOL     OW19353   5.582   4.285   8.082  1.1363 -0.0467  0.1149
 5104SOL    HW119354   5.567   4.232   8.160  0.3859 -3.3373 -2.0373
 5104SOL    HW219355   5.495   4.296   8.044  1.6358  0.2148 -0.9978
 5105SOL     OW19356   3.696   8.245   0.245  0.6850  0.4735 -0.2404
 5105SOL    HW119357   3.755   8.174   0.221  1.9671  1.2234  0.5587
 5105SOL    HW219358   3.721   8.318   0.188 -0.4677  0.3892 -0.9009
 5106SOL     OW19359   1.533   7.099  10.091 -0.3076  0.0509  0.1741
 5106SOL    HW119360   1.615   7.141  10.068 -0.1760  0.0806  0.6760
 5106SOL    HW219361   1.550   7.057  10.176 -0.9142  0.3695  0.4672
 5107SOL     OW19362  10.124   7.751   1.489 -0.7715  0.3925  0.2556
 5107SOL    HW119363  10.192   7.807   1.527 -0.0357  1.2129 -2.1251
 5107SOL    HW219364  10.164   7.715   1.410 -1.8700 -2.1137  0.7445
 5108SOL     OW19365   1.302   6.109   1.147 -0.3633 -0.0968  0.2597
 5108SOL    HW119366   1.217   6.153   1.145 -0.5053 -0.3280 -2.3185
 5108SOL    HW219367   1.290   6.032   1.091  2.0198  0.9174 -1.8492
 5109SOL     OW19368  10.078   2.011   2.443 -0.0209  0.2237 -0.5739
 5109SOL    HW119369  10.092   1.976   2.355 -0.0828  0.1612 -0.5588
 5109SOL    HW219370  10.008   1.957   2.479  1.4191 -1.1518  0.2959
 5110SOL     OW19371   1.542   7.130   4.567 -0.0079 -0.2016  0.1735
 5110SOL    HW119372   1.494   7.049   4.550 -1.9244  0.7765  0.7054
 5110SOL    HW219373   1.499   7.168   4.643  2.2474  0.2845  1.2865
 5111SOL     OW19374   0.708   7.045   2.792 -0.2874 -0.2767  0.6182
 5111SOL    HW119375   0.642   6.977   2.803 -0.4522 -0.3668 -0.7514
 5111SOL    HW219376   0.676   7.098   2.719  0.8348  0.0601  0.3429
 5112SOL     OW19377   0.535   2.524   9.540  0.5691 -0.0041 -0.6224
 5112SOL    HW119378   0.596   2.481   9.600  0.4590  0.3288 -0.2729
 5112SOL    HW219379   0.520   2.611   9.578  0.1070  0.0243 -0.8623
 5113SOL     OW19380   7.188   5.346   4.314  0.2118 -0.1731  0.5820
 5113SOL    HW119381   7.279   5.351   4.342  0.6912  0.9695 -1.0451
 5113SOL    HW219382   7.187   5.278   4.247 -0.5698 -1.6183  1.9934
 5114SOL     OW19383   5.415   7.591   9.995  0.1599  0.7515 -0.2325
 5114SOL    HW119384   5.408   7.526   9.925  1.0171 -0.3751  0.6814
 5114SOL    HW219385   5.324   7.607  10.022 -0.0576 -0.1736 -0.3907
 5115SOL     OW19386   0.941   2.219   3.766  0.1345 -0.1961 -0.1577
 5115SOL    HW119387   0.971   2.230   3.676  3.1813 -0.0987  0.7528
 5115SOL    HW219388   0.890   2.298   3.784  1.5243  0.9627 -1.0836
 5116SOL     OW19389   3.510   0.985  10.114  0.3305  0.7519  0.3797
 5116SOL    HW119390   3.519   1.050  10.183  1.7298 -1.0069  1.9528
 5116SOL    HW219391   3.424   1.002  10.076  0.2336  2.8298  1.4136
 5117SOL     OW19392   7.634   6.308   0.628 -0.4157  0.0162  0.4381
 5117SOL    HW119393   7.610   6.259   0.707 -0.7980 -0.7538 -0.1366
 5117SOL    HW219394   7.552   6.318   0.580 -0.0304 -0.3837 -0.3275
 5118SOL     OW19395   0.600   6.114   2.204 -0.5684  0.2606 -0.3623
 5118SOL    HW119396   0.590   6.068   2.287  1.1519  0.3736 -0.0535
 5118SOL    HW219397   0.688   6.090   2.174  0.1841  2.8501 -0.4718
 5119SOL     OW19398  10.076   4.543   6.233 -0.2132  0.1152 -0.0640
 5119SOL    HW119399  10.104   4.611   6.171  0.4592  0.5258  0.6615
 5119SOL    HW219400   9.989   4.517   6.204  0.1187  0.2610 -1.2109
 5120SOL     OW19401   3.699   9.751   0.125 -0.2800  0.1676 -0.4020
 5120SOL    HW119402   3.624   9.721   0.073  0.1098 -0.4762 -0.6013
 5120SOL    HW219403   3.721   9.677   0.182 -0.4665  0.7375  0.4226
 5121SOL     OW19404   2.669   4.329   1.668 -0.2687  0.3335 -0.0495
 5121SOL    HW119405   2.749   4.333   1.722 -0.7036 -2.1042  0.8951
 5121SOL    HW219406   2.676   4.404   1.610  2.7372  0.2077 -0.0106
 5122SOL     OW19407   7.545   8.071   6.526  0.4412 -0.0752 -1.2323
 5122SOL    HW119408   7.615   8.100   6.584  0.0357 -0.1567 -0.6918
 5122SOL    HW219409   7.470   8.126   6.549  0.0038 -0.7554 -1.0079
 5123SOL     OW19410   4.165   0.091   4.901  0.2640 -0.0308 -0.1580
 5123SOL    HW119411   4.096   0.115   4.962 -0.7497  0.7823 -1.5633
 5123SOL    HW219412   4.245   0.092   4.953 -0.7243 -0.6897  1.4392
 5124SOL     OW19413   9.190   3.451   3.831  0.4558 -0.0858  0.0490
 5124SOL    HW119414   9.136   3.429   3.906  1.3739  1.4376  1.2274
 5124SOL    HW219415   9.274   3.410   3.849 -0.2630 -2.6444 -1.8863
 5125SOL     OW19416   4.801   2.812   5.380  0.0204 -0.1867 -0.3122
 5125SOL    HW119417   4.845   2.797   5.463 -1.7089 -1.2218  0.4756
 5125SOL    HW219418   4.757   2.729   5.360 -0.6287  0.4330 -1.6011
 5126SOL     OW19419   1.323   3.531   5.473  0.5897 -0.0847  0.0594
 5126SOL    HW119420   1.326   3.620   5.439 -0.8232  0.8487  2.1842
 5126SOL    HW219421   1.402   3.524   5.527  1.0057 -0.3498 -0.5703
 5127SOL     OW19422   7.885   5.994   3.675  0.2988 -0.2244  0.4485
 5127SOL    HW119423   7.834   5.995   3.594 -1.1839 -0.8470  1.3485
 5127SOL    HW219424   7.877   5.905   3.708  0.2016  0.2308  1.7069
 5128SOL     OW19425   9.781  10.140   3.145 -0.5143 -0.2201  0.0172
 5128SOL    HW119426   9.797  10.205   3.214  0.2780 -0.8282  0.4315
 5128SOL    HW219427   9.845  10.071   3.162 -0.1104 -0.2505 -1.5226
 5129SOL     OW19428   4.142   2.588   5.293 -0.4696 -0.3410  0.2470
 5129SOL    HW119429   4.176   2.621   5.376  0.5759  0.4233 -0.4491
 5129SOL    HW219430   4.151   2.663   5.233  1.5057 -1.6883 -1.2758
 5130SOL     OW19431  10.125   0.091   5.438 -0.2394 -0.1663 -0.2531
 5130SOL    HW119432  10.210   0.123   5.408 -0.2119 -0.8444 -0.9262
 5130SOL    HW219433  10.096   0.156   5.501  2.1859 -1.4532  2.4200
 5131SOL     OW19434   0.661   5.902   5.754 -0.4215 -0.0356 -0.2490
 5131SOL    HW119435   0.602   5.899   5.830  0.1419 -0.1859  0.1935
 5131SOL    HW219436   0.749   5.909   5.792 -0.1897  0.7819 -0.9094
 5132SOL     OW19437   2.320   1.665   1.893  0.4036 -0.0033  0.0382
 5132SOL    HW119438   2.411   1.639   1.880  0.4493 -0.6693  1.5369
 5132SOL    HW219439   2.326   1.751   1.936  0.3886 -0.7507  1.6082
 5133SOL     OW19440   2.554   5.429   6.087 -0.7186  0.4043  0.7187
 5133SOL    HW119441   2.546   5.484   6.009 -0.1318 -0.0910  0.3006
 5133SOL    HW219442   2.515   5.346   6.061 -0.7449  0.3157  1.0396
 5134SOL     OW19443   0.324   4.618   9.314  0.1746  0.4352 -0.3207
 5134SOL    HW119444   0.314   4.646   9.223  0.3702  0.9814 -0.1755
 5134SOL    HW219445   0.276   4.535   9.319 -0.5774  0.8381 -0.7057
 5135SOL     OW19446   2.387   6.961   8.668 -0.1854 -0.6556 -0.0995
 5135SOL    HW119447   2.440   7.034   8.634 -1.5615  0.5656  0.2560
 5135SOL    HW219448   2.340   6.999   8.743 -3.3540 -0.9080 -1.7637
 5136SOL     OW19449   0.422   5.541   2.610  0.1183 -0.1221  0.0808
 5136SOL    HW119450   0.411   5.493   2.692  0.9130 -0.9495 -0.2704
 5136SOL    HW219451   0.515   5.532   2.590  0.0790  0.7111 -0.5296
 5137SOL     OW19452   5.314   2.699   5.336 -0.1751  0.1096 -0.0376
 5137SOL    HW119453   5.327   2.721   5.429  0.4652  2.8999 -0.6988
 5137SOL    HW219454   5.221   2.713   5.321 -0.4098 -0.9723  0.2770
 5138SOL     OW19455   4.159   3.159   4.724 -0.0148 -0.1839  0.1018
 5138SOL    HW119456   4.190   3.083   4.773 -1.3920  0.1881  1.6226
 5138SOL    HW219457   4.066   3.163   4.743 -0.2391  1.0490 -1.1304
 5139SOL     OW19458   6.456   5.955   6.322  0.0322  0.8082  0.1794
 5139SOL    HW119459   6.549   5.969   6.338 -0.1788  1.1837  1.1448
 5139SOL    HW219460   6.449   5.863   6.295  0.6754  0.7795  0.1045
 5140SOL     OW19461   4.400   0.911   3.947  0.4333  0.2149 -0.0062
 5140SOL    HW119462   4.377   0.874   3.862  3.6827 -1.0145 -0.5154
 5140SOL    HW219463   4.433   0.836   3.997 -0.7607  1.0358  2.1595
 5141SOL     OW19464   7.906   1.155   5.998 -0.0249  0.1763 -0.0894
 5141SOL    HW119465   7.828   1.196   5.962  0.0049 -0.1860 -0.5788
 5141SOL    HW219466   7.965   1.229   6.016 -0.6957  0.5055  0.8557
 5142SOL     OW19467   3.476   9.312   0.744 -0.7476 -0.8722 -0.0033
 5142SOL    HW119468   3.401   9.300   0.686  0.6138 -0.4157 -1.9527
 5142SOL    HW219469   3.550   9.276   0.695  0.7116  0.8134  0.8567
 5143SOL     OW19470   7.104   0.180   0.298 -0.2872  0.3327 -0.1041
 5143SOL    HW119471   7.049   0.258   0.297 -2.0653 -0.7852  1.7608
 5143SOL    HW219472   7.141   0.179   0.387  1.9426  0.4482 -0.9590
 5144SOL     OW19473   8.591   0.237   7.880 -0.4980  0.0076  0.4378
 5144SOL    HW119474   8.502   0.269   7.866  0.0181  0.5907 -1.8928
 5144SOL    HW219475   8.645   0.315   7.879  0.1214 -0.4014  1.2080
 5145SOL     OW19476   6.997   6.841  10.162 -0.0303 -0.1871  0.7168
 5145SOL    HW119477   7.071   6.797  10.121  0.8365  2.6399 -1.0427
 5145SOL    HW219478   6.994   6.807  10.251  1.8771 -2.1003  0.1052
 5146SOL     OW19479   1.027   7.943   8.250 -0.5346  0.1299  0.6814
 5146SOL    HW119480   0.998   7.930   8.159 -1.0808 -0.8315  0.9774
 5146SOL    HW219481   1.072   7.862   8.272 -0.7307  0.2088  1.3880
 5147SOL     OW19482   5.474   9.695   0.604  0.5091 -0.0928 -0.2664
 5147SOL    HW119483   5.556   9.674   0.649  1.2408  0.7558 -1.1797
 5147SOL    HW219484   5.438   9.768   0.654 -0.2231 -1.0862  0.7294
 5148SOL     OW19485   0.964   7.800   6.260 -0.1366  0.0585  0.0386
 5148SOL    HW119486   1.035   7.860   6.240 -1.0250  1.0216 -0.3365
 5148SOL    HW219487   0.936   7.824   6.348  0.7924 -1.1504  0.6919
 5149SOL     OW19488   4.692   7.115   7.807  0.1281 -0.1703  0.4820
 5149SOL    HW119489   4.757   7.076   7.749 -0.0468  2.6658 -1.8713
 5149SOL    HW219490   4.740   7.180   7.858 -0.2785 -0.4640  1.2637
 5150SOL     OW19491   8.302   3.764   8.351  0.4256  0.0406  0.1182
 5150SOL    HW119492   8.259   3.683   8.378 -0.9644  0.2916 -1.2106
 5150SOL    HW219493   8.252   3.833   8.394  1.0089  0.2550  0.4660
 5151SOL     OW19494  10.146   3.039   3.719 -0.2517  0.3900  0.4437
 5151SOL    HW119495  10.220   3.100   3.713 -1.1282  1.5614  1.2357
 5151SOL    HW219496  10.070   3.094   3.737 -1.4282 -0.7496 -0.7846
 5152SOL     OW19497   9.411   6.605   6.059  0.3829  0.4799 -0.8782
 5152SOL    HW119498   9.451   6.691   6.051  0.0488  0.8123  0.6608
 5152SOL    HW219499   9.469   6.546   6.011  1.6564  1.2634 -0.3469
 5153SOL     OW19500   4.119   3.132   5.161 -0.0591 -0.2747 -0.4215
 5153SOL    HW119501   4.052   3.145   5.095  0.6036 -1.1174 -1.2885
 5153SOL    HW219502   4.080   3.164   5.242 -0.6696  1.3483 -1.3154
 5154SOL     OW19503   4.335   5.661   6.099 -0.2086  0.3636 -0.1892
 5154SOL    HW119504   4.423   5.692   6.077 -0.6881  0.7384 -1.6539
 5154SOL    HW219505   4.349   5.602   6.173  1.2826  0.3338 -0.4563
 5155SOL     OW19506   6.569   6.480   7.147 -0.6212  0.0485  0.2367
 5155SOL    HW119507   6.563   6.497   7.053 -0.4778  1.0424  0.3973
 5155SOL    HW219508   6.663   6.479   7.165 -0.6603  1.4143  0.6215
 5156SOL     OW19509   7.136   4.584   0.606 -0.0843 -0.1131 -0.6284
 5156SOL    HW119510   7.131   4.619   0.517  1.6553 -0.0536 -0.7424
 5156SOL    HW219511   7.223   4.610   0.636  0.1093 -1.7971  0.3719
 5157SOL     OW19512   6.458   3.732  10.015  0.0772  0.4013  0.0391
 5157SOL    HW119513   6.508   3.665   9.968  0.0607 -0.1271  0.7625
 5157SOL    HW219514   6.513   3.810  10.010  0.5988  0.0440  0.1212
 5158SOL     OW19515   6.548   5.267   9.970  0.2553 -0.2840  0.0782
 5158SOL    HW119516   6.478   5.332   9.971  0.2161 -0.3044 -0.7153
 5158SOL    HW219517   6.503   5.184   9.991 -0.0415 -0.3626 -0.8135
 5159SOL     OW19518   4.067   6.884   8.812  0.5155  0.0679  0.6892
 5159SOL    HW119519   3.975   6.861   8.801  0.6432 -1.0323  1.7415
 5159SOL    HW219520   4.107   6.862   8.727 -0.1885  0.6407  0.1961
 5160SOL     OW19521   6.526   6.926   8.529 -0.3881  0.1729 -0.3106
 5160SOL    HW119522   6.532   6.922   8.624  2.3164 -1.6320 -0.4432
 5160SOL    HW219523   6.607   6.970   8.502  0.8575 -2.7487 -1.8270
 5161SOL     OW19524   7.605   5.962   2.895 -0.1289 -0.1663  0.3412
 5161SOL    HW119525   7.627   5.873   2.922 -1.7082 -0.4690  0.7336
 5161SOL    HW219526   7.675   5.987   2.835  0.4871 -1.5550  0.4405
 5162SOL     OW19527   4.648   0.833   8.144 -0.5221 -0.5841 -0.6131
 5162SOL    HW119528   4.597   0.883   8.207 -1.6790 -2.6010  0.1193
 5162SOL    HW219529   4.641   0.883   8.063  0.2146  1.5576  0.5496
 5163SOL     OW19530   0.477   4.531   4.361 -0.4632 -0.0042 -0.1957
 5163SOL    HW119531   0.563   4.567   4.338 -0.7068 -0.1618 -1.4109
 5163SOL    HW219532   0.425   4.540   4.282 -1.0456 -1.4917 -0.0172
 5164SOL     OW19533   6.536   7.356   2.010  0.0459  0.1036  0.0381
 5164SOL    HW119534   6.562   7.376   1.920 -2.0667  1.4774 -0.3497
 5164SOL    HW219535   6.452   7.400   2.021 -0.9391 -2.0271  1.9279
 5165SOL     OW19536   0.330   8.381   1.277  0.1817 -0.2652  0.1480
 5165SOL    HW119537   0.290   8.467   1.283 -0.6710 -0.7452  2.3937
 5165SOL    HW219538   0.264   8.321   1.312  0.8466 -1.8258 -1.1067
 5166SOL     OW19539   3.567   6.926   3.735  0.2909  0.3735  0.2609
 5166SOL    HW119540   3.579   6.999   3.674 -1.9897  0.1152 -0.5772
 5166SOL    HW219541   3.585   6.848   3.682 -0.2034  0.2121  0.3292
 5167SOL     OW19542   6.538   6.299   4.595  0.1964  0.1686 -0.1481
 5167SOL    HW119543   6.585   6.377   4.625  2.2944 -1.0460 -0.1020
 5167SOL    HW219544   6.602   6.228   4.600 -1.4254 -1.4498 -0.8846
 5168SOL     OW19545   0.939   4.058   5.748  0.6406  0.0165 -0.3669
 5168SOL    HW119546   0.892   4.018   5.674 -3.1015  0.8904  1.3193
 5168SOL    HW219547   1.001   3.991   5.776 -0.6748 -1.9069 -1.8150
 5169SOL     OW19548   5.910   1.787  10.131  0.0539  0.3493 -0.0137
 5169SOL    HW119549   5.961   1.817  10.055 -0.7775 -0.5573 -0.9535
 5169SOL    HW219550   5.964   1.718  10.170 -0.7733 -1.1974 -1.4978
 5170SOL     OW19551   0.443   0.994   4.112 -0.1246 -0.2062  0.1897
 5170SOL    HW119552   0.454   1.081   4.152 -1.7174 -0.7858  2.0018
 5170SOL    HW219553   0.464   0.933   4.182 -0.5163 -1.2961 -0.6274
 5171SOL     OW19554   1.875   8.971   8.841  0.0386  0.2877 -0.6060
 5171SOL    HW119555   1.915   8.986   8.756 -1.0905  2.3252 -0.8522
 5171SOL    HW219556   1.790   8.932   8.821 -0.1659  0.6309 -0.4106
 5172SOL     OW19557   8.299   3.103   3.620 -0.5726 -0.1222  0.8109
 5172SOL    HW119558   8.269   3.144   3.701 -0.9932  0.7307  0.2456
 5172SOL    HW219559   8.264   3.014   3.623 -3.1252  0.7927  0.2433
 5173SOL     OW19560   5.891   1.691   0.134 -0.3465 -0.1434  0.1765
 5173SOL    HW119561   5.804   1.728   0.150 -0.8140 -1.3450  0.5075
 5173SOL    HW219562   5.917   1.728   0.050  0.6400  3.5169  1.8996
 5174SOL     OW19563   4.377   8.280   4.142  0.3882  0.3068 -0.2884
 5174SOL    HW119564   4.407   8.308   4.056  0.0280 -1.8023 -1.1622
 5174SOL    HW219565   4.286   8.254   4.128  0.5394 -0.7367  0.5602
 5175SOL     OW19566   3.229   9.733   8.618  0.0082 -0.7312  0.8049
 5175SOL    HW119567   3.201   9.667   8.681 -2.0354 -0.4464  0.2886
 5175SOL    HW219568   3.172   9.719   8.542 -0.3975  1.5138  0.6232
 5176SOL     OW19569   8.551   7.160   8.006 -0.4691 -0.0437  0.0134
 5176SOL    HW119570   8.616   7.201   7.949 -0.5827  0.0238 -0.0698
 5176SOL    HW219571   8.472   7.156   7.953 -0.2567 -1.0796 -0.2544
 5177SOL     OW19572   8.558   5.915   1.072  0.5456  0.3803 -0.3477
 5177SOL    HW119573   8.609   5.861   1.012 -0.3037 -0.1278 -0.6322
 5177SOL    HW219574   8.591   5.892   1.159  0.0610 -0.7484 -0.4510
 5178SOL     OW19575   6.238   0.855   2.192 -0.5377 -0.7840  0.0513
 5178SOL    HW119576   6.269   0.945   2.183 -1.9386 -0.3690 -0.7792
 5178SOL    HW219577   6.313   0.802   2.164 -0.6243  0.1982 -2.2372
 5179SOL     OW19578   3.338   6.187   2.731  0.5733 -0.2190 -0.4168
 5179SOL    HW119579   3.325   6.214   2.640  0.1167  0.3585 -0.1865
 5179SOL    HW219580   3.334   6.268   2.781  2.7370 -0.2926 -0.0546
 5180SOL     OW19581   9.855   2.024   1.265  0.0309  0.1237  0.3221
 5180SOL    HW119582   9.879   2.016   1.357 -0.1835 -0.9677  0.2999
 5180SOL    HW219583   9.759   2.016   1.265  0.0590 -0.2124 -0.0292
 5181SOL     OW19584   5.083   7.621   3.620  0.8930 -0.1139 -0.5334
 5181SOL    HW119585   4.996   7.622   3.581  0.6860  1.8558 -0.1260
 5181SOL    HW219586   5.143   7.623   3.546  0.5681 -0.2849 -0.8019
 5182SOL     OW19587   5.118   7.140   9.156  0.1884  0.6174 -0.3048
 5182SOL    HW119588   5.099   7.058   9.202 -0.0516  0.4260 -0.7414
 5182SOL    HW219589   5.148   7.114   9.070  1.6158  0.9519  0.0653
 5183SOL     OW19590   1.141   7.999   6.216 -0.1782 -0.3298 -0.2141
 5183SOL    HW119591   1.236   7.996   6.224  0.2403 -0.4844 -3.6795
 5183SOL    HW219592   1.119   8.092   6.219 -0.2233 -0.3564  2.3513
 5184SOL     OW19593   9.211   0.484   1.331  0.2635  0.2656  0.6573
 5184SOL    HW119594   9.244   0.518   1.248  1.0506 -0.2093  0.7697
 5184SOL    HW219595   9.150   0.415   1.307 -0.9250  1.3628  0.4396
 5185SOL     OW19596   2.950   0.359   3.991  0.2741  0.2869  0.2669
 5185SOL    HW119597   2.934   0.450   4.016 -1.8744 -0.0634  0.3921
 5185SOL    HW219598   3.007   0.365   3.914 -1.6620  1.8921 -1.1573
 5186SOL     OW19599   1.632   8.431   8.322  0.8087 -0.4769  0.0777
 5186SOL    HW119600   1.656   8.516   8.361 -0.4334 -0.3771  0.6874
 5186SOL    HW219601   1.705   8.373   8.343  0.6445 -0.1418  1.6725
 5187SOL     OW19602   3.255   0.187   2.577  0.2379  0.2490 -0.3101
 5187SOL    HW119603   3.161   0.204   2.573  0.1487  0.1780  0.9579
 5187SOL    HW219604   3.262   0.091   2.577  0.0301  0.1110  3.0259
 5188SOL     OW19605   1.856   6.864   0.717  0.4759  0.1103  0.5573
 5188SOL    HW119606   1.950   6.849   0.721  0.5664  0.6826  0.7070
 5188SOL    HW219607   1.820   6.807   0.786  0.9176  1.3386  1.8635
 5189SOL     OW19608   5.565   3.281   3.052  0.2589 -0.5438  0.8109
 5189SOL    HW119609   5.498   3.323   2.998 -0.1111 -0.2638  1.4753
 5189SOL    HW219610   5.601   3.211   2.997 -0.0665 -0.2185  0.1867
 5190SOL     OW19611   9.201   0.602   4.607 -0.2163 -0.4217 -0.0251
 5190SOL    HW119612   9.160   0.678   4.647  0.2968 -1.4858  2.7312
 5190SOL    HW219613   9.129   0.555   4.565 -0.6362  1.1531 -1.1587
 5191SOL     OW19614   5.155   2.477   5.556 -0.5370 -0.3308  0.4444
 5191SOL    HW119615   5.089   2.407   5.554 -0.0185 -1.1604  4.0544
 5191SOL    HW219616   5.104   2.558   5.554 -1.5019 -0.9152  0.7241
 5192SOL     OW19617   7.097   2.448   0.924 -0.2429 -0.3689 -0.1351
 5192SOL    HW119618   7.035   2.414   0.989 -1.3969  1.7538 -0.0340
 5192SOL    HW219619   7.115   2.537   0.953  1.1544 -0.1931 -1.4184
 5193SOL     OW19620   9.847   1.897   0.524  0.0109  0.4263  0.0231
 5193SOL    HW119621   9.838   1.848   0.606 -0.7666  0.6880  0.1020
 5193SOL    HW219622   9.798   1.978   0.539 -0.2557  0.4115 -0.7576
 5194SOL     OW19623   5.379   4.659   4.151 -0.1312 -0.5244  0.2073
 5194SOL    HW119624   5.327   4.616   4.220  0.2726 -0.2422  0.7002
 5194SOL    HW219625   5.463   4.614   4.154  0.4227  0.5204  0.9813
 5195SOL     OW19626   2.314   2.144   8.745 -0.0243 -0.2636  0.4935
 5195SOL    HW119627   2.277   2.061   8.777  0.5409  0.2797  2.7560
 5195SOL    HW219628   2.243   2.207   8.753  0.2795 -0.0057  1.2963
 5196SOL     OW19629   1.794   0.267   0.500 -0.2269 -0.9184 -0.1939
 5196SOL    HW119630   1.809   0.201   0.567  1.3502 -0.0200  0.3805
 5196SOL    HW219631   1.844   0.236   0.424  0.2962 -0.5384 -0.0111
 5197SOL     OW19632   9.141   6.319   6.784 -0.2134 -0.0816 -0.6614
 5197SOL    HW119633   9.120   6.413   6.787 -1.1719 -0.2661 -0.9831
 5197SOL    HW219634   9.105   6.290   6.700 -0.2794 -0.8137 -0.3820
 5198SOL     OW19635  10.008   7.511   6.893  0.1348 -0.1042 -0.1396
 5198SOL    HW119636   9.981   7.499   6.802  1.4842  0.4161 -0.6427
 5198SOL    HW219637  10.103   7.527   6.887  0.3834 -0.8187  1.4139
 5199SOL     OW19638   6.858   5.574   0.565 -0.2962  0.2981 -0.4276
 5199SOL    HW119639   6.907   5.564   0.646 -3.5253  1.8053  1.9172
 5199SOL    HW219640   6.836   5.484   0.539  1.2471 -0.2295 -0.0014
 5200SOL     OW19641   5.150   2.059   7.904 -0.3787 -0.1937  0.4094
 5200SOL    HW119642   5.075   2.079   7.959 -0.7580 -0.4998  0.0076
 5200SOL    HW219643   5.199   2.141   7.898 -0.4926 -0.0850  0.9569
 5201SOL     OW19644   5.422   9.567   5.292 -0.4143 -0.2907  0.0270
 5201SOL    HW119645   5.336   9.586   5.255 -0.1822  0.6661 -0.0472
 5201SOL    HW219646   5.458   9.500   5.233 -1.1252 -0.7579  0.1048
 5202SOL     OW19647   5.175   5.175   3.476  0.4602  0.6537  0.0548
 5202SOL    HW119648   5.106   5.170   3.410 -1.9620 -1.6952  2.5336
 5202SOL    HW219649   5.240   5.111   3.447 -0.8407 -0.7685  0.1411
 5203SOL     OW19650   4.169   1.421   5.972 -0.0557 -0.0348  0.1126
 5203SOL    HW119651   4.116   1.496   5.998 -0.3560  0.0253 -0.6755
 5203SOL    HW219652   4.258   1.445   5.995 -0.1778  0.4803  0.0441
 5204SOL     OW19653   6.919   2.396   9.027 -0.0947  0.1904  0.4932
 5204SOL    HW119654   6.970   2.376   9.107  1.2342  2.8814  0.4254
 5204SOL    HW219655   6.903   2.310   8.988 -0.2765 -1.1995  3.3045
 5205SOL     OW19656   4.726   5.630   5.405 -0.0049  0.0995  0.5350
 5205SOL    HW119657   4.792   5.699   5.414  0.9419 -0.6014 -0.7332
 5205SOL    HW219658   4.728   5.584   5.488  1.2224  0.0142  0.4761
 5206SOL     OW19659   9.686   9.029   1.869  0.1067  0.0830  0.3289
 5206SOL    HW119660   9.701   8.985   1.952 -1.4600  0.9296  1.1082
 5206SOL    HW219661   9.707   9.120   1.886 -2.4779  0.7269  0.5727
 5207SOL     OW19662   0.164   4.479   9.848  0.3844  0.2630 -0.0237
 5207SOL    HW119663   0.143   4.422   9.775 -0.6176 -1.1583  1.3067
 5207SOL    HW219664   0.091   4.468   9.909  1.2861  1.2267  1.3060
 5208SOL     OW19665   5.569   6.991   2.631 -0.2591 -0.1802  0.2328
 5208SOL    HW119666   5.524   6.909   2.614 -0.7487  0.1305  0.0139
 5208SOL    HW219667   5.533   7.023   2.714  0.4701 -0.5492  0.7073
 5209SOL     OW19668   6.497   3.591   1.232  1.1659  0.3475 -0.1343
 5209SOL    HW119669   6.493   3.685   1.249 -0.7693  0.2754  0.0362
 5209SOL    HW219670   6.587   3.575   1.205  2.0693  1.9191  1.7246
 5210SOL     OW19671  10.131   7.501   3.116 -0.2142 -0.0637  0.4517
 5210SOL    HW119672  10.150   7.594   3.107  0.9757 -0.4242 -1.2390
 5210SOL    HW219673  10.043   7.491   3.078 -0.9434  0.5566  1.9252
 5211SOL     OW19674   3.281   2.979   9.924 -0.5276 -0.3667 -0.2343
 5211SOL    HW119675   3.304   2.892   9.890  0.4983 -0.2432  0.1130
 5211SOL    HW219676   3.235   2.962  10.006 -0.2284 -0.5783 -0.1107
 5212SOL     OW19677   0.555   6.356   4.334 -0.1675  0.0696  1.1214
 5212SOL    HW119678   0.480   6.352   4.393 -1.5546  0.8690 -0.5212
 5212SOL    HW219679   0.530   6.419   4.266  1.9240  0.2410  0.4222
 5213SOL     OW19680   2.210   1.529   2.548 -0.2810 -0.0035  0.0079
 5213SOL    HW119681   2.185   1.437   2.559  1.8889 -0.5677  0.9064
 5213SOL    HW219682   2.237   1.535   2.457 -0.7732 -0.1562 -0.1522
 5214SOL     OW19683   3.676   7.576   0.250 -0.4409 -0.1844 -0.3637
 5214SOL    HW119684   3.675   7.590   0.344 -1.3287  0.7688 -0.4925
 5214SOL    HW219685   3.651   7.485   0.238 -0.1808 -0.3472  0.3258
 5215SOL     OW19686   7.997   9.586   1.349  0.6483 -0.5704  0.1280
 5215SOL    HW119687   8.090   9.606   1.354  0.0863  2.0755  2.6274
 5215SOL    HW219688   7.969   9.621   1.264  1.5618  0.5707  0.2806
 5216SOL     OW19689   3.983   7.130   8.636 -0.5790 -0.6049  0.2198
 5216SOL    HW119690   4.071   7.167   8.627 -0.7821  0.1917  1.3805
 5216SOL    HW219691   3.997   7.035   8.640 -0.1018 -0.8481 -3.4543
 5217SOL     OW19692   8.430   6.683   2.726 -0.5649  0.0363 -0.2923
 5217SOL    HW119693   8.339   6.670   2.698 -0.6012 -0.8941  0.2393
 5217SOL    HW219694   8.483   6.645   2.656 -0.6088 -0.3225 -0.1310
 5218SOL     OW19695   3.541   9.336   3.061  0.5854 -0.4798  0.2327
 5218SOL    HW119696   3.538   9.241   3.047  0.4078 -0.3350 -0.8464
 5218SOL    HW219697   3.496   9.373   2.985 -0.9789  0.4158  1.5184
 5219SOL     OW19698   9.829   6.594   0.192 -0.6005  0.0586 -0.1298
 5219SOL    HW119699   9.849   6.647   0.115 -3.9323  0.5668 -0.7753
 5219SOL    HW219700   9.845   6.504   0.164  1.2176  0.3913 -0.3226
 5220SOL     OW19701   1.332   0.725   7.265  0.1284 -0.3115  0.0716
 5220SOL    HW119702   1.346   0.754   7.355 -0.9022 -0.7894  0.4064
 5220SOL    HW219703   1.351   0.802   7.212  0.3338  0.1009  0.7253
 5221SOL     OW19704   7.698   0.924   1.909 -0.9516 -0.0478  0.1143
 5221SOL    HW119705   7.761   0.984   1.870 -0.2975  0.0533  1.2795
 5221SOL    HW219706   7.659   0.879   1.834  1.0589 -0.6643 -0.6390
 5222SOL     OW19707   5.360   6.698   0.897  0.0856  0.3896 -0.1862
 5222SOL    HW119708   5.279   6.715   0.850 -0.3233 -0.0802  0.3391
 5222SOL    HW219709   5.362   6.764   0.966 -0.3205 -0.1739  0.3769
 5223SOL     OW19710   1.608   3.568   2.568  0.3983  0.0555 -0.1258
 5223SOL    HW119711   1.703   3.581   2.567  0.7191 -1.9597  0.4003
 5223SOL    HW219712   1.582   3.572   2.475  0.8412  1.4163 -0.2138
 5224SOL     OW19713   9.342   9.440   6.494 -0.7018 -0.6482  0.1768
 5224SOL    HW119714   9.426   9.479   6.474 -1.2927  0.1631 -0.8193
 5224SOL    HW219715   9.336   9.443   6.589 -0.3492  0.8985  0.1661
 5225SOL     OW19716   1.462   8.495   1.656 -0.1491 -0.9465 -0.0030
 5225SOL    HW119717   1.456   8.431   1.584 -1.1825 -1.7009  0.7273
 5225SOL    HW219718   1.523   8.561   1.624 -0.4732 -1.3446 -1.5269
 5226SOL     OW19719   2.211   1.348   7.514  0.2559 -0.1804 -0.2290
 5226SOL    HW119720   2.304   1.330   7.520  0.3978  0.5394 -0.2282
 5226SOL    HW219721   2.184   1.367   7.604  0.2975  0.4937 -0.3523
 5227SOL     OW19722   8.689   9.525   3.333 -0.6081 -0.2932 -0.0341
 5227SOL    HW119723   8.688   9.603   3.388  2.6653 -0.1809  0.0955
 5227SOL    HW219724   8.675   9.452   3.393  0.0771 -0.0060  0.4813
 5228SOL     OW19725   5.829   0.000   1.784  0.5135 -0.3664  0.1216
 5228SOL    HW119726   5.771  -0.058   1.736  1.5687 -0.7026 -0.8013
 5228SOL    HW219727   5.771   0.059   1.833 -0.5781 -0.5800 -0.8922
 5229SOL     OW19728   3.077   4.995   3.866 -0.6390  0.1992  0.3304
 5229SOL    HW119729   3.121   4.998   3.782 -0.8838 -1.3072  0.1152
 5229SOL    HW219730   3.031   4.911   3.866  1.2908 -0.9974  2.9207
 5230SOL     OW19731   0.422   7.226   8.041  0.1572  0.2499 -0.4072
 5230SOL    HW119732   0.398   7.214   8.133  0.1476  1.7049 -0.1944
 5230SOL    HW219733   0.365   7.166   7.993 -1.2100  0.8640  0.3993
 5231SOL     OW19734   6.459   0.388   5.775 -0.6313 -0.8134  0.3588
 5231SOL    HW119735   6.495   0.301   5.759  1.6875  0.3516 -1.4334
 5231SOL    HW219736   6.532   0.448   5.756 -2.2617  1.5458  1.0886
 5232SOL     OW19737   3.705   5.062   4.231 -0.5065  0.3887 -0.3267
 5232SOL    HW119738   3.719   5.157   4.231  1.5503  0.1687  1.3186
 5232SOL    HW219739   3.668   5.043   4.317 -1.7802 -0.2325 -0.9865
 5233SOL     OW19740   3.557   2.487   6.787  0.3567 -0.0280  0.1213
 5233SOL    HW119741   3.635   2.454   6.831  0.8589 -0.0797 -0.7871
 5233SOL    HW219742   3.587   2.565   6.740  0.5842 -1.6359 -2.6010
 5234SOL     OW19743   8.682   3.430   0.737  0.3930 -0.5795  0.0877
 5234SOL    HW119744   8.670   3.399   0.827 -1.4160  0.4099  0.2484
 5234SOL    HW219745   8.670   3.525   0.742  4.6056  0.1816 -0.5750
 5235SOL     OW19746   1.775   2.196   9.642  0.5249 -0.1992 -0.4773
 5235SOL    HW119747   1.812   2.243   9.718 -1.0502  0.1521  0.0994
 5235SOL    HW219748   1.797   2.252   9.567  1.8625 -0.4134 -0.2712
 5236SOL     OW19749   3.882   0.313   3.652  0.0454 -0.2315 -0.2608
 5236SOL    HW119750   3.972   0.333   3.625  0.0309  1.8586  1.0440
 5236SOL    HW219751   3.879   0.217   3.656  1.2621 -0.5275 -3.3321
 5237SOL     OW19752   1.005   4.818   3.691 -0.1705  0.0624  0.1733
 5237SOL    HW119753   1.017   4.817   3.786  0.8894 -0.0235  0.0540
 5237SOL    HW219754   1.071   4.757   3.658  0.9736  1.7231 -0.7548
 5238SOL     OW19755   6.704   9.112   8.220 -0.3813 -0.0611  0.1502
 5238SOL    HW119756   6.687   9.024   8.253  1.0394  0.3167  2.0962
 5238SOL    HW219757   6.799   9.114   8.204 -0.6760  0.5302 -1.8017
 5239SOL     OW19758   5.189   6.086   4.226 -0.1125  0.0317  0.1061
 5239SOL    HW119759   5.162   6.157   4.169  2.7030  0.1712 -1.2099
 5239SOL    HW219760   5.144   6.009   4.192  0.8066  0.2863 -1.8125
 5240SOL     OW19761   2.104  10.131   0.215  0.3704  0.4184  0.3198
 5240SOL    HW119762   2.188  10.159   0.179 -0.3655  1.5806 -0.5814
 5240SOL    HW219763   2.121  10.118   0.308  1.7713 -0.3317 -0.0198
 5241SOL     OW19764   4.774   2.707   7.856  0.1190  0.1222  0.0521
 5241SOL    HW119765   4.728   2.635   7.815  0.3254  0.8951 -1.6058
 5241SOL    HW219766   4.865   2.696   7.829 -0.0049  1.5213 -1.0477
 5242SOL     OW19767  10.208   9.434   9.744  0.5927  0.4061  0.4391
 5242SOL    HW119768  10.166   9.350   9.725 -0.4280  0.4764  2.1743
 5242SOL    HW219769  10.299   9.412   9.762  0.8032 -0.0531 -1.1097
 5243SOL     OW19770   2.575   6.925   5.153  0.1446  0.5626  0.0739
 5243SOL    HW119771   2.580   7.011   5.195 -0.8679  1.2325 -1.0995
 5243SOL    HW219772   2.484   6.918   5.124  0.8387  0.3111 -2.2755
 5244SOL     OW19773   0.274   5.287   6.869  0.3366 -0.1057 -0.1336
 5244SOL    HW119774   0.310   5.287   6.780 -1.5250 -0.5697 -0.9408
 5244SOL    HW219775   0.320   5.359   6.913  1.2253  0.2080 -1.5020
 5245SOL     OW19776   6.903   3.196   3.630  0.1358 -0.0454 -0.1723
 5245SOL    HW119777   6.941   3.204   3.718  1.4689  3.0323 -0.9168
 5245SOL    HW219778   6.842   3.270   3.624 -0.8577 -0.9290 -1.4726
 5246SOL     OW19779   1.208   1.179   2.406 -0.0555 -0.3005 -0.1905
 5246SOL    HW119780   1.189   1.270   2.431 -0.9837 -0.1246 -1.5048
 5246SOL    HW219781   1.189   1.129   2.486 -1.1565  0.4638  0.0572
 5247SOL     OW19782   3.768   0.709   3.788  0.2281 -0.0708 -0.0241
 5247SOL    HW119783   3.849   0.719   3.738 -0.9899  1.8456 -1.8114
 5247SOL    HW219784   3.714   0.650   3.736 -1.0725  1.9758 -1.1631
 5248SOL     OW19785   5.056   0.438   1.907  0.2243 -0.0237  0.4927
 5248SOL    HW119786   5.151   0.431   1.912  0.1812 -2.4842 -0.7082
 5248SOL    HW219787   5.023   0.358   1.947 -1.2797  0.0462 -0.4910
 5249SOL     OW19788   8.846   0.848   4.895  0.1678 -0.2621  0.3810
 5249SOL    HW119789   8.862   0.941   4.904 -0.6681 -0.2331  1.8699
 5249SOL    HW219790   8.782   0.841   4.824  0.4193  0.2649  0.1023
 5250SOL     OW19791   9.037   4.167   1.921  0.2154 -0.6412 -0.1915
 5250SOL    HW119792   9.107   4.104   1.903  1.3764  0.7298 -0.6794
 5250SOL    HW219793   9.071   4.221   1.992  0.3160  0.9894 -1.4227
 5251SOL     OW19794   3.859  10.124   5.658  0.7312 -0.4540 -0.1159
 5251SOL    HW119795   3.773  10.150   5.624  2.3120  2.7022 -2.1179
 5251SOL    HW219796   3.862  10.162   5.746 -0.0182 -0.8778  0.1020
 5252SOL     OW19797   1.987   6.417   4.517  0.3069  0.5749 -0.3919
 5252SOL    HW119798   2.035   6.447   4.594 -0.4800 -0.8030  0.6816
 5252SOL    HW219799   1.896   6.441   4.534  0.3388  1.8224 -1.7266
 5253SOL     OW19800   4.996   9.026   9.308  0.5487 -0.4312 -0.0829
 5253SOL    HW119801   4.983   9.083   9.232  1.3621  1.7449  1.3062
 5253SOL    HW219802   4.928   8.960   9.300  0.8872 -0.5627 -2.9088
 5254SOL     OW19803   7.545   3.868   4.138  0.0350 -0.1154 -0.2821
 5254SOL    HW119804   7.524   3.917   4.217  0.7919  1.2489 -0.8931
 5254SOL    HW219805   7.530   3.776   4.162 -0.7453  0.3465  1.1024
 5255SOL     OW19806   2.885   0.084   2.329 -0.0781  0.8361  0.7266
 5255SOL    HW119807   2.829   0.022   2.282  0.0710 -0.2105  1.8692
 5255SOL    HW219808   2.955   0.104   2.268 -0.5204  0.4342  0.0750
 5256SOL     OW19809   7.429   9.797   4.983 -0.5040  0.7542  0.8951
 5256SOL    HW119810   7.464   9.708   4.977 -0.3123  0.8647  0.3076
 5256SOL    HW219811   7.367   9.804   4.911  1.5988  2.0090 -0.9204
 5257SOL     OW19812   2.497   0.589   8.869 -0.5477  0.2899  0.2308
 5257SOL    HW119813   2.413   0.603   8.826  0.1643  2.1769 -0.6664
 5257SOL    HW219814   2.475   0.572   8.961 -1.9394 -0.4452 -0.2169
 5258SOL     OW19815   3.060   0.453   0.468 -0.6595 -0.0534  0.0608
 5258SOL    HW119816   3.155   0.462   0.469 -0.4732 -1.3630 -1.4808
 5258SOL    HW219817   3.032   0.477   0.557  1.0526  0.6908  0.4339
 5259SOL     OW19818   5.919   7.504   3.618  0.0667  0.2487 -0.3880
 5259SOL    HW119819   5.836   7.466   3.590  0.4727 -0.6946 -0.3561
 5259SOL    HW219820   5.960   7.535   3.537 -0.0988  0.2735 -0.4618
 5260SOL     OW19821   5.489   4.831   6.475 -0.0688  0.1472  0.2394
 5260SOL    HW119822   5.518   4.918   6.448  0.2707  0.5572  1.7921
 5260SOL    HW219823   5.407   4.817   6.428 -0.3921  1.5268  0.3585
 5261SOL     OW19824   0.815   6.076   9.258 -0.2621  0.1129  0.2236
 5261SOL    HW119825   0.795   5.986   9.285 -2.1185  1.3680  3.6827
 5261SOL    HW219826   0.910   6.084   9.270  0.1830 -1.6831 -1.5305
 5262SOL     OW19827   6.951   2.256   5.614 -0.3691  0.0745  0.2129
 5262SOL    HW119828   7.033   2.211   5.635 -1.0289 -0.8006  0.9796
 5262SOL    HW219829   6.892   2.232   5.685 -0.9078  1.7590  0.3707
 5263SOL     OW19830   4.950   6.316   4.705  0.1533  0.0311  0.9029
 5263SOL    HW119831   4.928   6.272   4.623  0.8335  2.0764 -0.4262
 5263SOL    HW219832   4.872   6.302   4.760 -0.5073 -0.9832 -0.2303
 5264SOL     OW19833   0.194   3.109   6.207 -0.1299  0.1973 -0.4658
 5264SOL    HW119834   0.142   3.038   6.168 -0.1522 -0.9780  1.5847
 5264SOL    HW219835   0.145   3.189   6.186 -0.8499 -0.5236 -1.6244
 5265SOL     OW19836   9.256   0.319   6.496 -0.3718 -0.1815 -0.8006
 5265SOL    HW119837   9.306   0.238   6.505 -1.5182 -0.7894  0.6753
 5265SOL    HW219838   9.320   0.389   6.505  0.0134 -0.7705  5.3551
 5266SOL     OW19839   0.543   7.239   6.369  0.6073 -0.7014  0.0744
 5266SOL    HW119840   0.549   7.211   6.277  0.5296 -1.5342  0.3244
 5266SOL    HW219841   0.627   7.212   6.407  0.7346 -0.1477  0.2029
 5267SOL     OW19842   6.470   8.269   5.001  0.0786  0.3108  0.2237
 5267SOL    HW119843   6.380   8.302   5.000  0.0909  0.3788  0.7838
 5267SOL    HW219844   6.515   8.321   4.934 -0.4915 -0.3000 -0.6451
 5268SOL     OW19845   4.096   3.160   9.798 -0.2995 -0.6228  0.0968
 5268SOL    HW119846   4.130   3.246   9.773  2.2582 -1.3080  0.9221
 5268SOL    HW219847   4.071   3.120   9.714  0.9379 -0.0199 -0.6001
 5269SOL     OW19848   1.180   1.835   7.132 -0.2059 -0.2468 -0.0941
 5269SOL    HW119849   1.274   1.836   7.146 -0.5236 -0.0178  2.5982
 5269SOL    HW219850   1.159   1.743   7.116  0.3744 -0.4093  0.0545
 5270SOL     OW19851   9.421   3.282   8.704 -0.5995  0.0733  0.2180
 5270SOL    HW119852   9.489   3.216   8.688 -1.5351 -1.0717  0.7714
 5270SOL    HW219853   9.373   3.288   8.621  0.3182  1.0817 -0.2578
 5271SOL     OW19854   1.067   5.302   0.770  0.0460 -0.0900  0.3327
 5271SOL    HW119855   0.988   5.249   0.782  1.0106 -1.3973  1.0129
 5271SOL    HW219856   1.053   5.378   0.827 -1.4873  0.6183 -0.8903
 5272SOL     OW19857   2.250  10.130   2.480 -0.2001 -0.3324  0.1602
 5272SOL    HW119858   2.165  10.164   2.452  0.0194  0.8480  0.8634
 5272SOL    HW219859   2.229  10.048   2.524 -0.8977 -0.4092 -0.2930
 5273SOL     OW19860   3.906   2.369   0.065  0.6145 -0.3621 -0.5264
 5273SOL    HW119861   3.983   2.397   0.115  1.2819 -0.3908 -1.5206
 5273SOL    HW219862   3.895   2.277   0.088  1.2287 -0.5136 -0.8085
 5274SOL     OW19863   5.118   9.279   0.382 -0.0935 -0.5610  0.0269
 5274SOL    HW119864   5.166   9.293   0.463 -0.2611 -0.9799  0.1990
 5274SOL    HW219865   5.104   9.184   0.378 -2.2839 -0.3295  0.7783
 5275SOL     OW19866   6.214   3.567   1.183  0.4747 -0.3302  0.0058
 5275SOL    HW119867   6.146   3.558   1.250 -0.1002 -0.2253 -0.5468
 5275SOL    HW219868   6.293   3.590   1.231 -0.2985  1.4410  0.5188
 5276SOL     OW19869   7.775   1.647   2.002 -0.0351  0.1366  0.4263
 5276SOL    HW119870   7.817   1.601   1.929  1.8273 -0.3388  1.7306
 5276SOL    HW219871   7.847   1.689   2.049 -1.4451  2.5957  0.5679
 5277SOL     OW19872   9.016   9.088   6.421 -0.6756 -0.0924 -0.0408
 5277SOL    HW119873   8.928   9.076   6.457  0.3593  0.5546  2.9582
 5277SOL    HW219874   9.025   9.019   6.355 -2.1881 -2.3915  2.0203
 5278SOL     OW19875   7.234   7.202   1.679 -0.1641 -0.4577 -0.1628
 5278SOL    HW119876   7.198   7.114   1.691  0.7148 -1.1964 -2.3962
 5278SOL    HW219877   7.329   7.190   1.679  0.0580  0.8725  1.7543
 5279SOL     OW19878   4.707  10.085   9.826  0.0667  0.9053 -0.3982
 5279SOL    HW119879   4.726  10.057   9.736 -2.4436  0.2556 -0.8108
 5279SOL    HW219880   4.793  10.102   9.864  1.3139 -0.4077 -2.4035
 5280SOL     OW19881   4.019   9.496   4.126  0.7895  0.0983 -0.3591
 5280SOL    HW119882   3.948   9.431   4.130  0.5759  0.3730  0.4663
 5280SOL    HW219883   3.993   9.555   4.056  0.1778  0.2132 -0.0430
 5281SOL     OW19884   6.180   4.866   7.432  0.0867  0.3901  0.2548
 5281SOL    HW119885   6.209   4.832   7.347  2.5207  1.2038  0.6983
 5281SOL    HW219886   6.143   4.951   7.412  0.3802  0.4534 -0.0371
 5282SOL     OW19887   3.132   0.281   6.530 -0.0894 -0.2667  0.5489
 5282SOL    HW119888   3.117   0.267   6.623  0.3729  1.3205  0.8857
 5282SOL    HW219889   3.048   0.310   6.496 -0.3644 -1.2254  0.3628
 5283SOL     OW19890   1.326   9.368   3.313  0.2733 -0.0436  1.0436
 5283SOL    HW119891   1.380   9.373   3.392  1.1004 -0.8427  0.5516
 5283SOL    HW219892   1.382   9.323   3.249 -0.5169  0.2557  0.1209
 5284SOL     OW19893   0.449   2.650   1.528  0.2827  0.2774  0.1035
 5284SOL    HW119894   0.498   2.718   1.481  1.5430 -0.2949  0.5410
 5284SOL    HW219895   0.440   2.684   1.617 -2.1963  1.4083 -0.4972
 5285SOL     OW19896   1.361   7.003   9.734 -0.1549 -0.4218 -0.3732
 5285SOL    HW119897   1.435   7.063   9.735 -1.4762  1.2604  0.0123
 5285SOL    HW219898   1.375   6.947   9.811  1.2083 -0.8136 -0.8748
 5286SOL     OW19899   2.706   4.886   1.247  0.2447 -0.2009  0.5050
 5286SOL    HW119900   2.628   4.932   1.278 -0.1076 -1.9881  2.5203
 5286SOL    HW219901   2.673   4.824   1.182  0.3079  0.3312 -0.0526
 5287SOL     OW19902   9.114   8.630   9.600  0.6975  0.2427 -0.1924
 5287SOL    HW119903   9.200   8.668   9.581  1.0966  0.1446  1.3429
 5287SOL    HW219904   9.059   8.658   9.526  1.8935  0.7808 -0.9059
 5288SOL     OW19905   8.487   2.436   1.364  0.3938  0.2290 -0.4902
 5288SOL    HW119906   8.489   2.480   1.279  1.2918 -0.2685 -0.7432
 5288SOL    HW219907   8.570   2.387   1.367 -0.5336 -1.4026 -0.2074
 5289SOL     OW19908   5.338   4.757   4.575  0.1899  0.5800 -0.1975
 5289SOL    HW119909   5.316   4.665   4.594 -0.6767  1.0763  1.4893
 5289SOL    HW219910   5.282   4.780   4.501 -0.4932  0.0602  0.1342
 5290SOL     OW19911   3.814   0.261   9.810 -0.1391 -0.5247  0.0684
 5290SOL    HW119912   3.835   0.331   9.749  1.1604 -0.3675  0.6673
 5290SOL    HW219913   3.877   0.191   9.790  0.5777 -0.3168  1.4498
 5291SOL     OW19914   3.874   4.090   0.768 -0.3834  0.0632 -0.2462
 5291SOL    HW119915   3.872   4.059   0.677 -1.5947  0.2704 -0.3077
 5291SOL    HW219916   3.794   4.141   0.777  0.1463  0.7362  0.7066
 5292SOL     OW19917   2.505   7.100   3.558  0.1086  0.0355 -0.2411
 5292SOL    HW119918   2.453   7.081   3.636 -0.9320  0.8002 -0.7152
 5292SOL    HW219919   2.592   7.066   3.577 -0.2995 -0.3422  0.9974
 5293SOL     OW19920   6.471   5.303   1.641 -0.2103  0.0464  0.2600
 5293SOL    HW119921   6.409   5.231   1.630  0.4105 -0.4271 -0.1445
 5293SOL    HW219922   6.478   5.313   1.736  0.0525 -0.7347  0.3293
 5294SOL     OW19923   3.425   8.874   9.963  0.5107 -0.1708  0.0819
 5294SOL    HW119924   3.418   8.951   9.907  2.5829 -0.4546 -0.6660
 5294SOL    HW219925   3.404   8.906  10.051 -0.8766  0.7168 -0.5474
 5295SOL     OW19926   5.022   5.844   6.393 -0.7376 -0.0924  0.2002
 5295SOL    HW119927   4.976   5.768   6.357  0.3628  0.2132 -2.0105
 5295SOL    HW219928   5.073   5.879   6.320  0.6048  1.4154  1.7529
 5296SOL     OW19929   3.302   4.920   7.932 -1.1301 -0.4832  0.4426
 5296SOL    HW119930   3.327   4.982   7.863 -1.2183 -1.3124 -0.3592
 5296SOL    HW219931   3.316   4.968   8.013  0.7830 -0.0786 -0.0616
 5297SOL     OW19932   0.843   7.365   6.090  0.0966  0.2106  0.0275
 5297SOL    HW119933   0.816   7.447   6.131 -0.5690  0.0746 -0.1309
 5297SOL    HW219934   0.779   7.301   6.120  1.3565 -0.5491  1.2140
 5298SOL     OW19935   4.854   9.261   5.178 -0.0550  0.0725 -0.3724
 5298SOL    HW119936   4.773   9.306   5.155 -0.6159 -1.0550 -0.6643
 5298SOL    HW219937   4.856   9.184   5.120 -0.5640 -1.8438  2.0125
 5299SOL     OW19938   7.143   6.801   4.797  0.5299  0.0612  0.7292
 5299SOL    HW119939   7.140   6.822   4.703  0.6927  0.9807  0.9202
 5299SOL    HW219940   7.202   6.725   4.802 -0.4191 -0.7575 -0.0283
 5300SOL     OW19941   6.424   7.752   7.910 -0.1573 -0.0540 -0.2259
 5300SOL    HW119942   6.412   7.815   7.839  1.1032  0.1559 -0.2650
 5300SOL    HW219943   6.418   7.805   7.990 -0.7295 -0.1542 -0.1995
 5301SOL     OW19944   4.677   9.827   8.061 -0.6125  0.0708 -0.1537
 5301SOL    HW119945   4.680   9.899   8.124  0.1446 -0.4344  0.4107
 5301SOL    HW219946   4.585   9.801   8.059 -0.6758  0.1982  0.6361
 5302SOL     OW19947   5.691   1.361   7.099  0.2625 -0.0183 -0.4835
 5302SOL    HW119948   5.644   1.423   7.156 -0.4393 -0.4967 -0.5325
 5302SOL    HW219949   5.627   1.336   7.033  0.2113 -1.5665  0.1124
 5303SOL     OW19950   5.741   4.719   9.120  0.4783  0.0901 -0.0075
 5303SOL    HW119951   5.790   4.651   9.165  1.9923  2.3349  1.9809
 5303SOL    HW219952   5.803   4.792   9.112 -2.0422  2.5875  1.3942
 5304SOL     OW19953   1.471   3.110   6.293  0.2871 -0.1058 -0.7499
 5304SOL    HW119954   1.474   3.129   6.199  1.0515  1.7687 -0.3928
 5304SOL    HW219955   1.416   3.032   6.300 -2.0526  1.2409 -2.5431
 5305SOL     OW19956   5.623   7.783   7.040 -0.0681 -0.1296 -0.7903
 5305SOL    HW119957   5.711   7.748   7.052  0.2121  0.7040 -0.2911
 5305SOL    HW219958   5.637   7.870   7.001 -0.5524  0.7075  0.8163
 5306SOL     OW19959   3.782   5.826   7.133  0.4783 -0.0900  0.3106
 5306SOL    HW119960   3.835   5.790   7.062  1.6789 -0.1969  1.2286
 5306SOL    HW219961   3.827   5.906   7.159  0.2946 -0.2589  1.2014
 5307SOL     OW19962   2.954   8.129   2.669 -0.7093  0.3149 -0.4091
 5307SOL    HW119963   2.998   8.178   2.599  0.0016 -1.5330 -1.3160
 5307SOL    HW219964   2.877   8.182   2.690 -0.0729  1.7184 -1.4641
 5308SOL     OW19965   1.935   3.270  10.182  0.3231  0.0087 -0.4359
 5308SOL    HW119966   2.030   3.264  10.193  0.4828  0.0059 -1.6893
 5308SOL    HW219967   1.902   3.190  10.222  0.6951  0.7066  1.3743
 5309SOL     OW19968   3.825   7.346   0.389 -0.6625 -0.1349  0.0021
 5309SOL    HW119969   3.882   7.354   0.465 -1.2810  3.0910  0.2585
 5309SOL    HW219970   3.741   7.382   0.418 -1.8401 -1.6070 -1.3792
 5310SOL     OW19971   6.864   3.621   1.716  0.0212  0.5740 -0.3221
 5310SOL    HW119972   6.852   3.678   1.792  0.0648  0.9732 -0.6106
 5310SOL    HW219973   6.934   3.664   1.665  0.0979  0.2299 -0.5089
 5311SOL     OW19974   5.127   2.950   0.886  0.5485  0.0085  0.1269
 5311SOL    HW119975   5.052   2.903   0.851 -0.0723  1.2811 -0.3103
 5311SOL    HW219976   5.184   2.882   0.920 -1.5444 -0.9274  2.0059
 5312SOL     OW19977   6.100   6.714   6.401 -0.0639 -0.1398 -0.2279
 5312SOL    HW119978   6.121   6.634   6.450  0.7104 -0.2327 -0.6831
 5312SOL    HW219979   6.097   6.686   6.310 -3.4352 -0.3670 -0.1708
 5313SOL     OW19980   9.019   6.241   5.552  0.1846 -0.0537  0.2292
 5313SOL    HW119981   8.985   6.250   5.463  0.2280 -1.8720 -0.0076
 5313SOL    HW219982   9.114   6.250   5.542  0.3930 -2.2208 -0.2727
 5314SOL     OW19983   0.742   8.353   3.727  0.3367 -0.1242 -0.2689
 5314SOL    HW119984   0.719   8.312   3.811 -0.0626 -1.0517 -0.8230
 5314SOL    HW219985   0.658   8.377   3.688  0.4306 -1.0023 -1.0441
 5315SOL     OW19986   2.382   0.446   7.030  0.3629 -0.5981 -0.1164
 5315SOL    HW119987   2.421   0.526   7.067 -0.6150 -0.2814  0.2583
 5315SOL    HW219988   2.289   0.451   7.054  0.7289 -3.2065  2.4264
 5316SOL     OW19989   3.975   5.062   3.426  0.7849 -0.4360  0.0704
 5316SOL    HW119990   4.025   5.118   3.486  1.0292 -0.7397  0.1518
 5316SOL    HW219991   3.888   5.101   3.424  0.4361 -1.0952  1.5246
 5317SOL     OW19992   7.451   1.047   4.296  0.2621  0.3420 -0.1304
 5317SOL    HW119993   7.529   1.007   4.332  0.3745 -0.1995 -0.9583
 5317SOL    HW219994   7.380   1.018   4.353  0.6376  0.7266  0.5411
 5318SOL     OW19995   9.763   9.934   0.660  0.2212  0.3021  0.1646
 5318SOL    HW119996   9.686   9.962   0.610  0.5393  1.4273  0.2675
 5318SOL    HW219997   9.729   9.870   0.723 -0.4081 -0.1284 -0.5986
 5319SOL     OW19998   4.611   6.542   1.136 -0.3825  0.0342  0.0821
 5319SOL    HW119999   4.579   6.565   1.049  0.5596  1.0346 -0.0293
 5319SOL    HW220000   4.604   6.623   1.186 -0.1002 -0.3060  0.6817
 5320SOL     OW20001   1.698   8.368   4.966  0.4141 -0.0924  0.0561
 5320SOL    HW120002   1.678   8.429   4.895 -2.6022  1.2815  1.8769
 5320SOL    HW220003   1.695   8.422   5.046  1.4648 -1.9704  1.4555
 5321SOL     OW20004   0.305   6.307   3.387  0.4638 -0.1572  0.2706
 5321SOL    HW120005   0.298   6.396   3.352  0.5005 -0.4487 -0.4975
 5321SOL    HW220006   0.237   6.258   3.342  1.6000 -0.9356 -0.6664
 5322SOL     OW20007   0.348   6.775   0.564  0.3321  0.2772 -0.8875
 5322SOL    HW120008   0.255   6.761   0.582  0.0692  3.5912  1.1997
 5322SOL    HW220009   0.350   6.833   0.488  0.6162  0.9489 -0.3781
 5323SOL     OW20010   7.330   4.054   7.518 -0.3838 -0.0385 -0.1936
 5323SOL    HW120011   7.235   4.042   7.521 -0.5522  0.7586 -1.4456
 5323SOL    HW220012   7.364   3.970   7.489 -0.8703  0.1774 -1.4334
 5324SOL     OW20013   0.191   7.004   3.491 -0.7494  0.4914  0.1892
 5324SOL    HW120014   0.279   7.030   3.462 -1.2069 -1.2185 -3.2462
 5324SOL    HW220015   0.206   6.922   3.538 -0.3373  1.5055  1.9206
 5325SOL     OW20016   0.247   5.334   5.140  0.0534  0.0824  0.4782
 5325SOL    HW120017   0.258   5.379   5.225 -0.3648  0.6689  0.2287
 5325SOL    HW220018   0.292   5.391   5.078 -0.2748  0.0297  0.1910
 5326SOL     OW20019   3.905   4.350   8.007 -0.3457  0.0290  0.0497
 5326SOL    HW120020   3.842   4.384   8.070 -1.6404 -1.2765 -0.4970
 5326SOL    HW220021   3.933   4.427   7.958 -0.7597  0.7755  0.9479
 5327SOL     OW20022   7.376   9.268   7.826  0.2086  0.8243  0.7258
 5327SOL    HW120023   7.354   9.279   7.919 -0.3787 -0.8872  0.8303
 5327SOL    HW220024   7.333   9.342   7.783  0.9829  1.9764  1.8586
 5328SOL     OW20025   2.055   2.911   1.939  0.0820 -0.4179  0.6433
 5328SOL    HW120026   2.025   2.822   1.961 -0.5976 -0.2437  0.4433
 5328SOL    HW220027   2.125   2.928   2.002  0.5658 -1.2904  0.3631
 5329SOL     OW20028   9.415   7.646   8.137  0.0522 -0.7655 -0.0548
 5329SOL    HW120029   9.397   7.609   8.223  0.0385 -0.2145  0.1837
 5329SOL    HW220030   9.353   7.603   8.078  0.3448 -1.4481  0.1378
 5330SOL     OW20031   7.105   8.523   5.539  0.1797  0.1134 -0.2801
 5330SOL    HW120032   7.085   8.596   5.598 -2.4572  0.0265 -0.9312
 5330SOL    HW220033   7.116   8.448   5.597 -2.0694  0.0884  0.2214
 5331SOL     OW20034   7.359   5.799   2.703  0.5644  0.0783 -0.1979
 5331SOL    HW120035   7.438   5.840   2.668  0.8208 -0.2152  0.0261
 5331SOL    HW220036   7.314   5.869   2.750 -0.6882  0.9489 -2.5410
 5332SOL     OW20037  10.283   5.511   7.791 -0.0573  0.1300 -0.2752
 5332SOL    HW120038  10.354   5.568   7.821 -0.8330  0.4548  0.9810
 5332SOL    HW220039  10.222   5.506   7.865  0.0316 -2.4418 -0.2899
 5333SOL     OW20040   7.114   6.349   2.062  0.2597  0.7839 -0.0961
 5333SOL    HW120041   7.152   6.261   2.057 -1.3539  0.0377 -0.0519
 5333SOL    HW220042   7.094   6.361   2.155 -1.4551  0.2835 -0.3606
 5334SOL     OW20043   9.617   9.926   7.448  0.2314 -0.1198  0.1331
 5334SOL    HW120044   9.526   9.910   7.473  0.3380 -0.9353  0.0266
 5334SOL    HW220045   9.638  10.011   7.487 -0.8068  0.4410 -0.4633
 5335SOL     OW20046   5.804   8.222   3.708 -0.1264 -0.2238 -0.3685
 5335SOL    HW120047   5.863   8.230   3.633 -1.4863  0.9799 -1.3667
 5335SOL    HW220048   5.769   8.134   3.702 -0.8975  0.1524 -1.7002
 5336SOL     OW20049   8.771   3.259   7.711  0.1758  0.2102 -0.4661
 5336SOL    HW120050   8.706   3.190   7.724  0.2854 -0.3394 -2.4554
 5336SOL    HW220051   8.820   3.231   7.634  1.2582  1.7543 -0.3813
 5337SOL     OW20052   8.639   3.598   9.400  0.2616  0.1309  0.6646
 5337SOL    HW120053   8.639   3.648   9.481  2.0796  0.4864  0.4878
 5337SOL    HW220054   8.691   3.651   9.339 -0.1735 -0.6293 -0.3956
 5338SOL     OW20055   1.884   1.896   0.166  0.5379  0.4261  0.6383
 5338SOL    HW120056   1.868   1.802   0.156  1.2521  0.0507  2.5894
 5338SOL    HW220057   1.974   1.909   0.137  0.8409  0.2608  1.4533
 5339SOL     OW20058   8.201   9.763   0.813 -0.0780 -0.0289  0.2958
 5339SOL    HW120059   8.168   9.852   0.804 -0.1637 -0.1209 -0.2989
 5339SOL    HW220060   8.123   9.710   0.828 -0.0359 -0.0213  0.5527
 5340SOL     OW20061   0.800   9.266   7.044  0.3171 -0.1768  0.1382
 5340SOL    HW120062   0.725   9.308   7.002  0.5143  0.2390  0.1911
 5340SOL    HW220063   0.761   9.203   7.105 -0.0030  0.3113  0.4484
 5341SOL     OW20064   0.596   5.112   7.114  0.8617 -0.0358 -0.0002
 5341SOL    HW120065   0.671   5.171   7.121  0.3601  0.6037  0.0516
 5341SOL    HW220066   0.530   5.148   7.174  0.0209  0.1654 -1.0226
 5342SOL     OW20067   6.871   6.420   2.793  0.0896  0.2717 -0.1183
 5342SOL    HW120068   6.876   6.490   2.729  0.3090  1.3274  1.0085
 5342SOL    HW220069   6.825   6.349   2.749  1.4982  0.4026 -1.9089
 5343SOL     OW20070   1.935   6.419   3.353  0.3316  0.3810 -0.4848
 5343SOL    HW120071   1.986   6.344   3.384 -0.1320  0.2556 -0.0066
 5343SOL    HW220072   1.923   6.402   3.260  1.0509  0.3530 -0.5815
 5344SOL     OW20073   6.360   9.290   3.017 -0.3393  0.0046 -0.3925
 5344SOL    HW120074   6.289   9.234   2.985 -0.9073  1.0400 -0.9824
 5344SOL    HW220075   6.438   9.258   2.972  0.0176 -2.4015  1.6587
 5345SOL     OW20076   0.978   4.775   4.848 -0.5098 -0.0186 -0.0039
 5345SOL    HW120077   0.927   4.857   4.849  0.0732  0.3497  0.1167
 5345SOL    HW220078   1.068   4.804   4.832 -0.4170 -0.7116 -0.7662
 5346SOL     OW20079   8.676   3.873   9.518 -0.3869  1.0464 -0.0802
 5346SOL    HW120080   8.592   3.913   9.496 -0.7551 -0.0795 -0.8100
 5346SOL    HW220081   8.742   3.930   9.478 -0.8725  1.1993 -0.6633
 5347SOL     OW20082   2.195   4.325   7.419 -0.0571  0.2816 -0.3091
 5347SOL    HW120083   2.190   4.241   7.465 -0.4161  1.0983  1.1835
 5347SOL    HW220084   2.104   4.344   7.394 -0.1094  0.6160  0.1121
 5348SOL     OW20085   5.412   6.978   3.653 -0.2202 -0.0553  0.0791
 5348SOL    HW120086   5.340   6.975   3.591 -0.5332  0.3252  0.4232
 5348SOL    HW220087   5.419   6.888   3.685  0.7619 -0.5568 -1.4201
 5349SOL     OW20088   8.168   9.175   1.029 -0.1948  0.1090  0.0635
 5349SOL    HW120089   8.087   9.205   0.987 -0.2311 -1.8736 -1.3934
 5349SOL    HW220090   8.238   9.214   0.976 -0.1792  0.8804  0.6315
 5350SOL     OW20091   7.163   2.408   7.284 -0.3167 -0.3938  0.7369
 5350SOL    HW120092   7.192   2.343   7.220 -0.4302 -1.3865  1.6771
 5350SOL    HW220093   7.130   2.357   7.358 -0.1800  0.7322  1.6043
 5351SOL     OW20094   7.614   0.295   2.378  0.6405  0.1273 -0.2639
 5351SOL    HW120095   7.689   0.236   2.376  0.7313  0.2505 -0.6018
 5351SOL    HW220096   7.644   0.374   2.333  0.2493  0.1076 -0.5696
 5352SOL     OW20097   7.758  10.016   6.485  0.3321  0.2664  0.3404
 5352SOL    HW120098   7.689   9.980   6.429 -0.9710  1.3749  1.1760
 5352SOL    HW220099   7.728  10.104   6.507  2.0651  0.8148  0.6702
 5353SOL     OW20100   4.080   2.672   5.996 -0.0151  0.5124 -0.3193
 5353SOL    HW120101   4.159   2.680   6.050 -0.0757  2.4238 -0.4518
 5353SOL    HW220102   4.077   2.579   5.973  1.2829  0.0852  1.0405
 5354SOL     OW20103   8.038   5.646   2.061 -0.1737  0.2611 -0.2273
 5354SOL    HW120104   7.950   5.651   2.025  0.4016  0.5008 -1.6799
 5354SOL    HW220105   8.066   5.556   2.042 -0.1550  0.1448  0.3497
 5355SOL     OW20106   8.640   5.851   1.340  0.3525 -0.0665  0.3673
 5355SOL    HW120107   8.713   5.856   1.401  0.2108 -0.7426  0.5944
 5355SOL    HW220108   8.563   5.872   1.393  0.3393  0.3394  0.1947
 5356SOL     OW20109   8.516   0.996   5.722  0.5086  0.4857  0.4891
 5356SOL    HW120110   8.571   0.930   5.765 -0.2292 -0.5347 -0.0852
 5356SOL    HW220111   8.432   0.991   5.768 -0.8373 -1.7346 -1.9239
 5357SOL     OW20112   1.334   0.897   7.048  0.7602  0.0576  0.1375
 5357SOL    HW120113   1.249   0.861   7.021  0.0489  0.9384  1.1189
 5357SOL    HW220114   1.388   0.891   6.970 -0.6367  0.7831 -0.9471
 5358SOL     OW20115   2.653   8.786   0.641  0.2662  0.0405 -0.4067
 5358SOL    HW120116   2.559   8.797   0.624  0.2150 -0.7123 -0.6408
 5358SOL    HW220117   2.673   8.852   0.708 -0.5262 -0.0868 -0.0279
 5359SOL     OW20118   0.816   2.006   8.098 -0.1274  0.1291  0.4120
 5359SOL    HW120119   0.770   2.041   8.174 -1.3270 -0.4475 -0.0199
 5359SOL    HW220120   0.748   1.962   8.047  0.5516  0.9492 -1.2654
 5360SOL     OW20121   7.121   6.487   2.361  0.3849  0.6186  0.2040
 5360SOL    HW120122   7.151   6.574   2.335 -0.4917  0.9400  0.2546
 5360SOL    HW220123   7.107   6.493   2.456 -0.4972  0.6814  0.0795
 5361SOL     OW20124   1.926   0.704   3.324  0.1642  0.0313  0.2556
 5361SOL    HW120125   1.838   0.685   3.292 -0.0794  0.7537  0.4897
 5361SOL    HW220126   1.920   0.697   3.419 -0.4352  3.1439  0.5315
 5362SOL     OW20127   9.071   9.742   3.705 -0.2615  0.2445  0.1257
 5362SOL    HW120128   9.085   9.813   3.768  0.9581 -0.1993  0.3796
 5362SOL    HW220129   9.046   9.786   3.624 -1.0623  0.8692  0.7012
 5363SOL     OW20130   1.210   5.782   1.717  0.4966 -0.5184  0.4381
 5363SOL    HW120131   1.175   5.748   1.634  2.1501 -0.2849 -0.4050
 5363SOL    HW220132   1.207   5.707   1.776 -0.4340 -0.7722  0.0919
 5364SOL     OW20133   0.577   8.470   8.331  0.4690 -0.1263 -0.1000
 5364SOL    HW120134   0.530   8.387   8.326  0.5479 -0.1205 -1.0418
 5364SOL    HW220135   0.551   8.518   8.252  0.3835  0.7678  0.4501
 5365SOL     OW20136   7.941   5.881   7.883 -0.4893  0.0450  0.2209
 5365SOL    HW120137   7.967   5.872   7.791  0.5695 -1.8520  0.6703
 5365SOL    HW220138   8.023   5.887   7.931 -1.0359  1.0516  1.0808
 5366SOL     OW20139   7.808   3.560   7.485  0.0044  0.4201  0.2001
 5366SOL    HW120140   7.867   3.485   7.484 -0.5702 -0.0396  0.0327
 5366SOL    HW220141   7.839   3.615   7.557  0.8670  0.3847 -0.1302
 5367SOL     OW20142   1.225   3.331   2.757 -0.4985 -0.0480 -1.0095
 5367SOL    HW120143   1.214   3.361   2.667  0.2109 -1.6269 -1.6559
 5367SOL    HW220144   1.136   3.329   2.793 -0.9967 -1.0839 -2.2499
 5368SOL     OW20145   2.459   8.903   8.312  0.0363  0.5156  0.8155
 5368SOL    HW120146   2.457   8.872   8.222  1.6927  0.7137  0.6852
 5368SOL    HW220147   2.551   8.921   8.330 -0.5616  3.2095  1.6257
 5369SOL     OW20148   5.342   2.760   5.616 -0.3023 -0.4392  0.4302
 5369SOL    HW120149   5.261   2.746   5.665  0.8150  0.1895  2.6018
 5369SOL    HW220150   5.347   2.856   5.605 -0.0953 -0.5109 -0.1615
 5370SOL     OW20151   0.929   0.973   6.499 -0.4847 -0.0560  0.6062
 5370SOL    HW120152   0.847   0.987   6.546 -0.1742 -0.0433  1.1566
 5370SOL    HW220153   0.938   0.878   6.494  0.2836 -0.0815  2.0290
 5371SOL     OW20154   5.823   4.264   8.478  0.3486 -0.1920 -0.0756
 5371SOL    HW120155   5.728   4.267   8.488  0.4287  1.1071  0.5827
 5371SOL    HW220156   5.852   4.203   8.547  0.0377 -0.0751  0.1623
 5372SOL     OW20157   1.436   7.520   1.224 -0.1655 -0.1501  0.1455
 5372SOL    HW120158   1.452   7.584   1.154 -2.8608 -0.0131 -0.4866
 5372SOL    HW220159   1.523   7.489   1.249  1.0729  1.9068 -1.2707
 5373SOL     OW20160   0.942   4.144   7.602 -0.2695 -0.8170 -0.0967
 5373SOL    HW120161   1.014   4.107   7.550 -1.3557 -2.8967 -0.2509
 5373SOL    HW220162   0.952   4.104   7.689 -0.5418 -0.1899  0.2269
 5374SOL     OW20163   5.629   7.774   2.249  0.6863 -0.1880  0.1347
 5374SOL    HW120164   5.575   7.793   2.325  2.1528 -0.3808  1.2625
 5374SOL    HW220165   5.719   7.788   2.278  1.2956 -0.1938 -1.5865
 5375SOL     OW20166   2.538   8.028   2.277 -0.0012 -0.3473  0.6439
 5375SOL    HW120167   2.633   8.027   2.287  0.1640 -0.7653 -0.7705
 5375SOL    HW220168   2.515   8.121   2.279  0.5445 -0.1967  0.0635
 5376SOL     OW20169   2.741   2.335  10.103 -0.2851 -0.2184  0.1888
 5376SOL    HW120170   2.647   2.341  10.123 -0.0967 -0.9733  1.3461
 5376SOL    HW220171   2.764   2.245  10.122  0.4462 -0.3622 -1.2323
 5377SOL     OW20172   3.121   9.585   5.831 -0.0354 -0.4915  0.0938
 5377SOL    HW120173   3.103   9.673   5.800  0.4569 -0.5211 -0.3038
 5377SOL    HW220174   3.114   9.590   5.926  2.4264  0.6069  0.3034
 5378SOL     OW20175   5.914   4.577   3.161 -0.4638 -0.5283 -0.3300
 5378SOL    HW120176   5.893   4.493   3.121  2.2824 -2.9414  2.7462
 5378SOL    HW220177   5.985   4.613   3.107  0.2061 -1.5782 -0.1713
 5379SOL     OW20178   1.316   1.044   6.156 -0.6567  0.8518 -0.0106
 5379SOL    HW120179   1.370   1.051   6.235  0.1969 -1.9563 -0.2248
 5379SOL    HW220180   1.242   0.990   6.183  0.0765 -0.8749 -1.2535
 5380SOL     OW20181   8.319   5.381   0.312  0.2029 -0.2433 -0.1388
 5380SOL    HW120182   8.292   5.471   0.324  1.3030 -0.1294  1.8860
 5380SOL    HW220183   8.415   5.384   0.317  0.3591 -1.3253 -1.6918
 5381SOL     OW20184   4.292   8.983   9.058 -0.5119  0.2175  0.2269
 5381SOL    HW120185   4.227   9.039   9.100 -1.0960  1.1102 -1.7705
 5381SOL    HW220186   4.376   9.014   9.092 -0.9609  0.9548  0.6787
 5382SOL     OW20187   4.748   5.245   8.746  0.2093  0.1684 -0.0708
 5382SOL    HW120188   4.695   5.218   8.671  1.3541  0.8390 -1.1492
 5382SOL    HW220189   4.788   5.164   8.778 -2.9253 -0.7391  2.0497
 5383SOL     OW20190   8.999   5.235   2.215 -0.3033  0.0251 -0.4895
 5383SOL    HW120191   9.078   5.185   2.197 -0.7114 -0.6419 -0.4555
 5383SOL    HW220192   9.022   5.289   2.291  0.5076  0.7615 -1.2275
 5384SOL     OW20193  10.290   1.081   8.530 -0.0355 -0.2769  0.1916
 5384SOL    HW120194  10.253   1.161   8.567 -0.0754 -0.9917  1.7339
 5384SOL    HW220195  10.336   1.039   8.603 -0.0941 -1.7184 -0.5616
 5385SOL     OW20196   6.853   1.229   7.617 -0.0164 -0.4175 -0.5774
 5385SOL    HW120197   6.792   1.217   7.544 -0.7583 -0.7515  0.0871
 5385SOL    HW220198   6.831   1.159   7.679  0.8068 -0.3257 -0.1650
 5386SOL     OW20199   7.970   5.134   3.374 -0.4261 -0.2462 -0.8132
 5386SOL    HW120200   8.002   5.139   3.464 -1.1064 -1.5468 -0.4755
 5386SOL    HW220201   7.875   5.125   3.383 -0.6807  1.1983 -1.7273
 5387SOL     OW20202   6.457   4.559   6.669 -0.0654 -0.7181 -0.2172
 5387SOL    HW120203   6.372   4.523   6.693  0.7733 -1.3036  2.2459
 5387SOL    HW220204   6.456   4.563   6.574 -2.0758 -2.5949 -0.3450
 5388SOL     OW20205   1.439   5.364   8.770 -0.2126  0.3803  0.3491
 5388SOL    HW120206   1.417   5.444   8.816  0.3762  1.0699 -0.5329
 5388SOL    HW220207   1.513   5.328   8.819  1.0056  1.5878 -0.5425
 5389SOL     OW20208   4.752   4.474   1.669 -0.0066  0.9971  0.0318
 5389SOL    HW120209   4.660   4.488   1.649  0.2449  1.2005 -1.0459
 5389SOL    HW220210   4.786   4.426   1.593  0.3286 -0.9432  1.3219
 5390SOL     OW20211   3.148   9.192   8.862 -0.1493  0.4856  0.0338
 5390SOL    HW120212   3.084   9.122   8.868  0.5077 -0.1007  0.3024
 5390SOL    HW220213   3.111   9.262   8.916  0.0193 -0.3085  1.2065
 5391SOL     OW20214   4.085   7.932   5.281 -0.1975  0.0086  0.3437
 5391SOL    HW120215   4.138   7.875   5.337  1.1812 -0.2890 -1.1909
 5391SOL    HW220216   4.140   8.008   5.264 -1.3584  1.0223  0.9535
 5392SOL     OW20217   4.309   9.573   4.481 -0.0370 -0.4084  0.4139
 5392SOL    HW120218   4.241   9.522   4.436 -0.3910  1.3240 -1.1501
 5392SOL    HW220219   4.390   9.552   4.434  0.2410 -1.2559  1.2512
 5393SOL     OW20220   1.047   7.164   0.048 -0.5434  0.0983  0.4328
 5393SOL    HW120221   1.042   7.111   0.128 -0.1480  0.6978  0.8644
 5393SOL    HW220222   1.009   7.248   0.073 -1.0435  0.0689 -0.2116
 5394SOL     OW20223   8.945   7.343   5.225  0.1117 -0.2316 -0.1399
 5394SOL    HW120224   8.883   7.282   5.266  0.6419 -1.2932 -0.8663
 5394SOL    HW220225   9.027   7.330   5.273  0.5450 -0.9722 -1.0588
 5395SOL     OW20226   6.884   1.284   0.887 -0.3580 -0.1868  0.4207
 5395SOL    HW120227   6.874   1.276   0.792  1.1005  1.5634  0.0741
 5395SOL    HW220228   6.961   1.339   0.898  0.9042 -2.2135  2.6651
 5396SOL     OW20229   8.996   5.156   3.802  0.0049  0.0736  0.4720
 5396SOL    HW120230   9.078   5.112   3.782  1.9234  3.1339  0.9485
 5396SOL    HW220231   9.009   5.192   3.889 -1.2640  1.8050 -0.0080
 5397SOL     OW20232   5.616   4.815   8.896 -0.8415  0.2200 -0.5396
 5397SOL    HW120233   5.649   4.779   8.979 -0.2133  0.8834 -0.4914
 5397SOL    HW220234   5.565   4.744   8.858 -1.8475  0.1779  0.8119
 5398SOL     OW20235   9.834   5.217   3.250  0.4216  0.5878 -0.7361
 5398SOL    HW120236   9.858   5.271   3.175  0.7563 -0.6769 -1.5770
 5398SOL    HW220237   9.788   5.142   3.212 -1.2297  0.9227  0.5050
 5399SOL     OW20238   9.871   6.294   5.603 -0.1373 -0.2279 -0.1245
 5399SOL    HW120239   9.860   6.240   5.524  0.6683 -0.2554 -0.2235
 5399SOL    HW220240   9.926   6.366   5.574 -3.0748  2.0233 -0.6418
 5400SOL     OW20241   6.318   5.743   5.934  0.1818  0.0844 -0.2997
 5400SOL    HW120242   6.229   5.755   5.901  0.1703 -1.0246 -0.7193
 5400SOL    HW220243   6.355   5.831   5.936 -0.4073  0.3940 -1.6194
 5401SOL     OW20244   8.261   0.742   1.215  0.0603 -0.9281  0.3969
 5401SOL    HW120245   8.322   0.804   1.253 -1.1736  0.2715  0.4737
 5401SOL    HW220246   8.250   0.771   1.124 -0.7499 -0.8432  0.5125
 5402SOL     OW20247   2.535   2.099   7.328 -0.4399 -0.0297 -0.4864
 5402SOL    HW120248   2.587   2.067   7.254 -0.2395  0.4189 -0.5428
 5402SOL    HW220249   2.533   2.025   7.389 -0.6926 -0.4366 -0.9785
 5403SOL     OW20250   8.780   1.750   5.606  0.3703  0.3591 -0.0056
 5403SOL    HW120251   8.742   1.702   5.533  0.4389 -0.1934  0.3143
 5403SOL    HW220252   8.870   1.717   5.613 -0.0242 -0.5415  1.1298
 5404SOL     OW20253   8.950   2.926   4.050 -0.1684 -0.5698 -0.9837
 5404SOL    HW120254   8.937   2.875   3.970 -1.2872 -0.6163 -0.7856
 5404SOL    HW220255   8.916   2.870   4.120 -1.2451  0.3561 -0.7365
 5405SOL     OW20256   4.576  10.076   0.990 -0.6015  0.0173  0.0768
 5405SOL    HW120257   4.548   9.987   0.971  0.0166 -0.3028  0.5980
 5405SOL    HW220258   4.654  10.089   0.936 -0.4261  0.0710  0.3374
 5406SOL     OW20259   0.073   7.399   1.313 -0.1298  0.2236  0.0053
 5406SOL    HW120260   0.039   7.352   1.389 -1.0076  1.2545  0.2729
 5406SOL    HW220261   0.165   7.372   1.307 -0.7157 -1.8922 -0.1628
 5407SOL     OW20262   7.179   9.892   6.905  0.1679 -0.9420 -0.4466
 5407SOL    HW120263   7.100   9.876   6.853  0.3849 -0.5553 -0.9096
 5407SOL    HW220264   7.146   9.921   6.990 -0.1936 -1.4779 -0.4008
 5408SOL     OW20265   1.249   0.454   0.890  0.1210  0.4926  0.6837
 5408SOL    HW120266   1.257   0.413   0.804 -1.1899 -0.4755  0.9900
 5408SOL    HW220267   1.232   0.547   0.871 -1.2049  0.1128 -0.1587
 5409SOL     OW20268   7.432   5.254   4.629 -0.3878 -0.1941 -0.4176
 5409SOL    HW120269   7.393   5.235   4.715  1.8592 -1.2677  0.4617
 5409SOL    HW220270   7.516   5.296   4.650  0.9338 -1.8825 -2.0008
 5410SOL     OW20271   6.638   5.943   4.958  0.0996  0.1139 -0.4961
 5410SOL    HW120272   6.717   5.983   4.921 -0.7512  1.3792 -1.0183
 5410SOL    HW220273   6.601   5.892   4.886  0.5203 -0.6134 -0.2018
 5411SOL     OW20274   6.435   2.691   2.082  0.3782 -0.7884  0.1618
 5411SOL    HW120275   6.358   2.640   2.107  0.6788 -1.2920  0.0648
 5411SOL    HW220276   6.457   2.741   2.160 -1.1345  0.7686 -0.3424
 5412SOL     OW20277   3.913   1.727   1.393  0.5267 -0.1740  0.4679
 5412SOL    HW120278   3.966   1.759   1.466 -2.0758  1.2251  1.9046
 5412SOL    HW220279   3.856   1.800   1.370 -1.6025 -1.8906 -0.1531
 5413SOL     OW20280   3.375   9.084   4.549  0.4949  0.2681  0.0498
 5413SOL    HW120281   3.315   9.088   4.475  0.7669 -0.4455 -0.2269
 5413SOL    HW220282   3.388   9.175   4.576  0.7285  0.5665 -1.0508
 5414SOL     OW20283   2.942   8.442   0.953 -0.3200  0.3452 -0.0083
 5414SOL    HW120284   3.036   8.443   0.971 -0.0357  2.1892 -1.3605
 5414SOL    HW220285   2.916   8.535   0.956 -2.0873 -0.1188  0.2100
 5415SOL     OW20286   9.764   9.687   3.663  0.1444  0.1450 -0.6497
 5415SOL    HW120287   9.842   9.718   3.710  0.8055 -0.8261 -1.0808
 5415SOL    HW220288   9.795   9.613   3.612 -1.2477 -0.7881 -0.2010
 5416SOL     OW20289   8.287   3.961   4.787  0.1098  0.0436  0.4700
 5416SOL    HW120290   8.307   3.979   4.696 -0.3505 -0.0687  0.3409
 5416SOL    HW220291   8.210   4.014   4.806  2.1370  2.7395  1.7954
 5417SOL     OW20292   0.642   8.520   6.329  0.7835 -0.2394  0.5274
 5417SOL    HW120293   0.558   8.561   6.347  1.7229  2.5034 -0.7832
 5417SOL    HW220294   0.629   8.471   6.248  0.6599  1.0181 -0.2341
 5418SOL     OW20295   6.255   1.333   4.764 -0.5012 -0.0755 -0.1860
 5418SOL    HW120296   6.261   1.422   4.730 -1.5303  0.6099  1.3121
 5418SOL    HW220297   6.287   1.339   4.854 -1.1735 -1.0874  0.1407
 5419SOL     OW20298   9.688   2.837   0.587 -0.2393  0.1229 -0.5637
 5419SOL    HW120299   9.683   2.890   0.667  0.3775  0.8343 -0.9885
 5419SOL    HW220300   9.597   2.828   0.559 -0.3090  1.6028 -0.8969
 5420SOL     OW20301   1.936   3.288   4.272  0.0634 -0.5939 -0.1905
 5420SOL    HW120302   2.018   3.243   4.291  0.4169  0.1687  0.1259
 5420SOL    HW220303   1.960   3.380   4.261 -0.6351 -0.4811 -0.8879
 5421SOL     OW20304   1.754   0.085   9.515 -0.1014 -0.2483  0.5158
 5421SOL    HW120305   1.692   0.021   9.480 -0.0061 -0.0685 -0.0007
 5421SOL    HW220306   1.709   0.124   9.590 -1.3596  1.1081 -0.8602
 5422SOL     OW20307   7.379   2.613   2.479 -0.5874 -0.1016 -0.5428
 5422SOL    HW120308   7.366   2.567   2.396 -1.1509  1.4084 -1.3188
 5422SOL    HW220309   7.295   2.657   2.495 -0.1126  0.5255  0.2490
 5423SOL     OW20310   3.445   8.942   4.984 -0.1363  0.0352 -0.3736
 5423SOL    HW120311   3.383   8.949   5.056  0.1527 -1.4847  0.0521
 5423SOL    HW220312   3.482   9.030   4.976 -1.0803  0.5356  0.4887
 5424SOL     OW20313   1.540   3.905   1.098  0.3816  0.0582 -0.0543
 5424SOL    HW120314   1.571   3.954   1.022  0.3207 -0.8307 -0.6608
 5424SOL    HW220315   1.446   3.923   1.101 -0.0062 -1.5098 -1.4271
 5425SOL     OW20316   6.982   2.806   7.133  0.3539  0.5339 -0.3343
 5425SOL    HW120317   6.979   2.782   7.041 -0.0732 -1.8433  0.2475
 5425SOL    HW220318   7.043   2.744   7.172 -1.7475 -0.5512  1.4792
 5426SOL     OW20319   2.399   0.252   9.832 -0.3326 -0.4614  0.2768
 5426SOL    HW120320   2.362   0.331   9.791  2.0808 -0.1683 -1.6053
 5426SOL    HW220321   2.374   0.259   9.924 -0.4224  2.4150  0.1394
 5427SOL     OW20322   6.937   5.332   5.997  0.0842  0.0152  0.0994
 5427SOL    HW120323   6.939   5.253   5.943  0.2274 -0.1341  0.3218
 5427SOL    HW220324   7.028   5.362   5.999 -0.0058  0.3140 -0.1700
 5428SOL     OW20325   3.659   9.216   1.643 -0.3597 -0.0690 -0.1675
 5428SOL    HW120326   3.587   9.263   1.685  0.5732  0.3621  1.0079
 5428SOL    HW220327   3.738   9.250   1.685  0.4965 -0.9861 -0.9735
 5429SOL     OW20328   8.666   2.519   4.209  0.5097  0.0627  0.1787
 5429SOL    HW120329   8.758   2.492   4.202  0.8636  1.2220  0.0284
 5429SOL    HW220330   8.624   2.479   4.133  0.9336 -0.3186  0.1371
 5430SOL     OW20331   8.975   6.598   8.089 -0.2385 -0.1095  0.0679
 5430SOL    HW120332   8.893   6.551   8.075  0.2845 -1.2477  0.6316
 5430SOL    HW220333   8.949   6.687   8.111 -1.4024 -0.8250  1.7951
 5431SOL     OW20334   6.262   6.598   3.165 -0.1572  0.3181  0.1001
 5431SOL    HW120335   6.267   6.555   3.250  0.4873  0.7303  0.2719
 5431SOL    HW220336   6.347   6.641   3.154  1.2164 -2.6323 -2.2990
 5432SOL     OW20337   3.719   5.857   1.533 -0.6845 -0.7616 -0.5561
 5432SOL    HW120338   3.798   5.816   1.569 -1.0010 -1.0004 -0.1294
 5432SOL    HW220339   3.697   5.803   1.457  0.0974 -0.1385 -1.2547
 5433SOL     OW20340   0.280   9.824   0.462  0.4244 -0.5635 -0.1054
 5433SOL    HW120341   0.348   9.864   0.409 -0.8830  1.4422 -0.3625
 5433SOL    HW220342   0.326   9.791   0.540  1.6014  1.3701  0.0693
 5434SOL     OW20343   2.879   7.101   9.425 -0.2074  0.1870  0.1368
 5434SOL    HW120344   2.865   7.080   9.518 -0.0404  0.3588  0.2029
 5434SOL    HW220345   2.901   7.194   9.425 -0.8138  0.3371 -0.1402
 5435SOL     OW20346   7.041   9.177   3.751 -0.0644 -0.2648  0.3096
 5435SOL    HW120347   7.003   9.178   3.839 -1.6540 -2.0151 -0.2928
 5435SOL    HW220348   6.967   9.155   3.694  0.5289  2.3860 -1.7108
 5436SOL     OW20349   4.082  10.007   1.303 -0.1884  0.7133 -0.5042
 5436SOL    HW120350   4.014   9.949   1.268 -0.2305  1.3225 -1.4990
 5436SOL    HW220351   4.164   9.968   1.273 -0.1830  0.7656 -0.5596
 5437SOL     OW20352  10.175   4.274   1.829 -0.3412  0.6029 -0.2626
 5437SOL    HW120353  10.105   4.220   1.793 -0.0093  0.3009 -0.4692
 5437SOL    HW220354  10.231   4.293   1.754  0.4686 -0.2004  0.1071
 5438SOL     OW20355   5.851  10.251   6.629 -0.4150  0.2524  0.3952
 5438SOL    HW120356   5.911  10.231   6.557 -0.0875  0.8435  0.4919
 5438SOL    HW220357   5.903  10.308   6.687 -0.8169  0.1308  0.8739
 5439SOL     OW20358   7.015   7.879  10.016 -0.2438  0.3193 -0.2339
 5439SOL    HW120359   6.943   7.891  10.078 -2.0248  0.6494 -2.2281
 5439SOL    HW220360   7.006   7.788   9.987  1.8874 -0.5080  1.4419
 5440SOL     OW20361   6.265   0.528   0.089  0.8273  0.0279  0.2095
 5440SOL    HW120362   6.199   0.480   0.139  0.5974 -0.6323 -0.7030
 5440SOL    HW220363   6.337   0.542   0.151 -0.2449  0.9575  1.2751
 5441SOL     OW20364   2.224   0.733   8.523  0.1880  0.5690 -0.2000
 5441SOL    HW120365   2.313   0.768   8.531  0.0322  0.4765  3.7005
 5441SOL    HW220366   2.167   0.807   8.545 -0.3776 -0.5762  2.5452
 5442SOL     OW20367  10.098   5.524   7.271 -0.8354  0.0587 -0.0182
 5442SOL    HW120368  10.173   5.498   7.218 -1.0626 -0.6677  0.0065
 5442SOL    HW220369  10.134   5.536   7.359 -0.8226 -0.7283  0.0895
 5443SOL     OW20370   5.585   0.837   0.872 -0.7967 -0.7950  0.3947
 5443SOL    HW120371   5.568   0.924   0.835 -1.1924 -0.6957  0.8073
 5443SOL    HW220372   5.523   0.829   0.944 -0.6329 -1.3476  0.4769
 5444SOL     OW20373   9.863   5.463   6.686 -0.0810 -0.0885 -0.0561
 5444SOL    HW120374   9.824   5.489   6.770 -0.7945  2.0879 -0.9991
 5444SOL    HW220375   9.939   5.520   6.676 -0.1970 -0.0872 -1.0389
 5445SOL     OW20376   1.208   7.247   0.856  0.1401  0.4955 -0.1797
 5445SOL    HW120377   1.285   7.253   0.913 -0.5896  0.6141  0.8171
 5445SOL    HW220378   1.135   7.276   0.911 -1.0141 -1.9290 -0.3028
 5446SOL     OW20379   1.208   1.876   0.231  0.4887  0.3329  0.3030
 5446SOL    HW120380   1.180   1.907   0.317 -0.5171  1.0005 -0.2612
 5446SOL    HW220381   1.143   1.811   0.206 -0.1259  1.2994 -0.6544
 5447SOL     OW20382   5.791   8.180   5.117 -0.1627  0.3426 -0.0317
 5447SOL    HW120383   5.780   8.268   5.153 -0.2071  0.7507 -1.0236
 5447SOL    HW220384   5.779   8.191   5.023 -0.6665 -0.8103 -0.1204
 5448SOL     OW20385   0.840   0.020   4.174 -0.4854 -0.0674  0.0105
 5448SOL    HW120386   0.876  -0.069   4.167  0.6230  0.3911 -0.2577
 5448SOL    HW220387   0.833   0.035   4.268 -0.1183 -0.2277  0.0685
 5449SOL     OW20388   2.150   3.742   2.204  0.0880 -0.0859  0.0371
 5449SOL    HW120389   2.142   3.679   2.132 -0.4306  1.2268 -1.1022
 5449SOL    HW220390   2.181   3.822   2.162  0.9786  0.3590  1.4947
 5450SOL     OW20391   9.138   8.237   6.676 -0.1189  0.5818  0.3642
 5450SOL    HW120392   9.051   8.251   6.640  0.0097 -0.2304 -0.2860
 5450SOL    HW220393   9.197   8.283   6.616 -0.0943  1.1820  0.8359
 5451SOL     OW20394   6.768   0.308   4.696 -0.1699  0.2420  0.3125
 5451SOL    HW120395   6.797   0.287   4.785 -1.6846  0.6466  0.9356
 5451SOL    HW220396   6.694   0.249   4.681  0.0798  0.1694 -0.6908
 5452SOL     OW20397   2.106   7.659   0.824 -0.4053  0.1434 -0.0158
 5452SOL    HW120398   2.132   7.750   0.815 -0.1931  0.4017  2.4847
 5452SOL    HW220399   2.187   7.613   0.847 -0.5706 -0.6277 -0.9311
 5453SOL     OW20400   2.068   8.463   0.143 -0.3045  0.0275  0.0709
 5453SOL    HW120401   2.005   8.391   0.132 -1.2068  0.6274  1.0265
 5453SOL    HW220402   2.084   8.495   0.055  0.2376 -1.4295 -0.3948
 5454SOL     OW20403   4.110   8.038   9.012  0.2551 -0.2957 -0.3626
 5454SOL    HW120404   4.203   8.014   9.020  1.0892  2.5344 -0.7279
 5454SOL    HW220405   4.109   8.116   8.958 -2.3891 -0.2755 -0.4200
 5455SOL     OW20406   5.825   8.756   1.020  0.4522 -0.0202  0.0817
 5455SOL    HW120407   5.771   8.780   0.944  1.0630 -0.7499 -0.6053
 5455SOL    HW220408   5.767   8.765   1.095 -0.2061  0.5998 -0.4861
 5456SOL     OW20409   8.588   8.993   0.921 -0.1358 -0.5630  0.1120
 5456SOL    HW120410   8.651   8.927   0.950 -0.3435 -0.5617  0.5769
 5456SOL    HW220411   8.642   9.070   0.899 -0.0433 -0.2063  1.5090
 5457SOL     OW20412   1.971   2.345   7.068 -0.2015  0.4759  0.1984
 5457SOL    HW120413   2.046   2.329   7.010  0.5926  1.1960  0.9995
 5457SOL    HW220414   1.905   2.384   7.011 -0.1986 -0.7096 -0.6443
 5458SOL     OW20415   5.989   3.398   4.588  0.2466  0.2296  0.1831
 5458SOL    HW120416   5.937   3.477   4.573 -0.4057  0.1685  1.9245
 5458SOL    HW220417   6.078   3.430   4.603 -0.0078  0.6343  0.8405
 5459SOL     OW20418   4.948   9.672   5.204 -0.0596  0.0714  0.2651
 5459SOL    HW120419   5.033   9.718   5.207 -0.3974  0.7363 -0.1857
 5459SOL    HW220420   4.972   9.579   5.206  0.7222  0.2318 -0.6090
 5460SOL     OW20421  10.156   6.008   3.299  0.1959  0.1528 -0.0420
 5460SOL    HW120422  10.135   5.926   3.254  1.9895 -0.0336 -0.6185
 5460SOL    HW220423  10.072   6.040   3.331 -0.7998 -0.9627 -1.4201
 5461SOL     OW20424   8.430   0.306   5.466 -0.2323 -0.1165 -0.1727
 5461SOL    HW120425   8.456   0.335   5.378 -0.5017 -0.2826 -0.3060
 5461SOL    HW220426   8.483   0.359   5.525  1.0965 -1.0766 -0.4542
 5462SOL     OW20427   7.381   0.746   8.336 -0.1524  0.0908 -0.0890
 5462SOL    HW120428   7.397   0.708   8.250  0.7684  0.4659 -0.0929
 5462SOL    HW220429   7.392   0.673   8.397  0.6337  0.1283 -0.1776
 5463SOL     OW20430   5.941   5.262   9.355 -0.7468  0.8232 -0.2247
 5463SOL    HW120431   5.923   5.316   9.278 -0.2039  1.2114 -0.0878
 5463SOL    HW220432   5.895   5.180   9.339  1.8590 -0.3677 -2.4524
 5464SOL     OW20433   5.642   1.561   1.935 -0.1623 -0.4054 -0.5870
 5464SOL    HW120434   5.700   1.551   1.859 -0.5122  2.9570 -1.4487
 5464SOL    HW220435   5.555   1.571   1.898 -0.2836  1.7077  0.1352
 5465SOL     OW20436   9.059   9.274   9.443  0.2372  0.3702 -0.3776
 5465SOL    HW120437   9.034   9.265   9.535 -3.8004  1.4571 -1.1877
 5465SOL    HW220438   9.050   9.185   9.408 -1.8243  0.5142 -0.3760
 5466SOL     OW20439   6.860   2.077   1.735 -0.0932 -0.6972 -0.4351
 5466SOL    HW120440   6.765   2.075   1.733 -0.1598  1.0818 -0.6789
 5466SOL    HW220441   6.886   2.109   1.649  0.6134  0.5087  0.1904
 5467SOL     OW20442   6.714   1.122   9.808  0.1405  0.1300 -0.3700
 5467SOL    HW120443   6.712   1.187   9.738 -2.0328 -0.5437 -1.0170
 5467SOL    HW220444   6.797   1.138   9.854  0.9648  1.4945 -2.2201
 5468SOL     OW20445   0.656   2.953   5.843 -0.4905  0.5629  0.7308
 5468SOL    HW120446   0.649   3.043   5.876 -1.8581 -0.0595  2.2662
 5468SOL    HW220447   0.719   2.911   5.901  2.6431  1.2418 -1.8710
 5469SOL     OW20448   7.876   1.622   2.657 -0.1831  0.6480 -0.1803
 5469SOL    HW120449   7.940   1.682   2.697  2.2981 -1.8363 -0.0994
 5469SOL    HW220450   7.904   1.535   2.686 -1.7614 -0.8255 -2.7347
 5470SOL     OW20451   2.209   7.697   4.910 -0.3106 -0.3301  0.3923
 5470SOL    HW120452   2.259   7.667   4.986  1.0191 -1.9931 -1.0594
 5470SOL    HW220453   2.273   7.741   4.854 -1.3049  1.0239  0.2647
 5471SOL     OW20454   8.857   5.939   4.465 -0.2581  0.6557 -0.0571
 5471SOL    HW120455   8.762   5.932   4.457 -0.2127  1.0301 -1.0754
 5471SOL    HW220456   8.889   5.850   4.450 -0.3756  0.7952 -1.3126
 5472SOL     OW20457   5.037   8.514  10.175 -0.0384  0.3826 -0.8097
 5472SOL    HW120458   5.122   8.521  10.132  0.2994  1.3105 -0.0055
 5472SOL    HW220459   4.977   8.560  10.116  0.1485  0.3697 -1.0138
 5473SOL     OW20460   1.312   3.861   5.486  0.0362 -0.0799 -0.1082
 5473SOL    HW120461   1.246   3.924   5.458  0.5466  0.7804  0.5937
 5473SOL    HW220462   1.309   3.862   5.581  1.3181  0.2770 -0.0448
 5474SOL     OW20463   6.572   3.899   1.796 -0.5520  0.2752  0.6231
 5474SOL    HW120464   6.649   3.849   1.824 -1.6938 -2.6489 -0.9439
 5474SOL    HW220465   6.498   3.853   1.838 -1.6306  1.1691 -0.2574
 5475SOL     OW20466   1.319   2.186   5.020  0.6741  0.3327 -0.5977
 5475SOL    HW120467   1.264   2.130   5.075  0.0481  1.4653 -0.0381
 5475SOL    HW220468   1.298   2.159   4.931  2.3976 -2.1913 -0.3567
 5476SOL     OW20469   7.193   5.181   7.823 -0.4672 -0.1585 -0.5503
 5476SOL    HW120470   7.213   5.110   7.761  1.1589  1.0116 -1.4258
 5476SOL    HW220471   7.239   5.156   7.903  0.1532 -0.0764 -0.8751
 5477SOL     OW20472   3.894   9.355   2.813  0.0029 -0.0455  0.7594
 5477SOL    HW120473   3.960   9.307   2.863  0.0176  0.4855  1.2631
 5477SOL    HW220474   3.813   9.306   2.825  0.7488 -2.2629 -2.0491
 5478SOL     OW20475   8.045   9.634   7.579  0.0599 -0.4452 -0.1140
 5478SOL    HW120476   8.116   9.698   7.578 -0.6075  0.3226 -1.8913
 5478SOL    HW220477   8.065   9.575   7.506 -0.3649 -1.1156  0.2984
 5479SOL     OW20478   7.377   1.320   5.660 -0.3094 -0.5809 -0.5092
 5479SOL    HW120479   7.371   1.328   5.755  0.5735  3.5033 -0.5917
 5479SOL    HW220480   7.471   1.309   5.644 -0.3332 -0.1583 -0.9368
 5480SOL     OW20481   6.494   9.267   6.755 -0.3470 -0.0847  0.0738
 5480SOL    HW120482   6.492   9.197   6.689  1.7988 -0.4743  0.3576
 5480SOL    HW220483   6.559   9.238   6.819  1.5901  2.7129 -0.4470
 5481SOL     OW20484   5.574   1.912   9.887 -0.1345 -0.3996  0.0317
 5481SOL    HW120485   5.587   1.938   9.795  1.0816  1.5846  0.6942
 5481SOL    HW220486   5.617   1.827   9.894 -0.7624 -0.8716 -1.3486
 5482SOL     OW20487   1.521   6.968   0.340 -0.2933 -0.1171 -0.1375
 5482SOL    HW120488   1.559   6.907   0.403 -0.4926 -0.0456  0.0546
 5482SOL    HW220489   1.436   6.992   0.378 -0.5695 -0.3449 -0.6051
 5483SOL     OW20490   5.162   3.328   3.081 -0.1830  1.1785  0.1533
 5483SOL    HW120491   5.150   3.417   3.113  0.9689  1.7087 -0.8030
 5483SOL    HW220492   5.073   3.291   3.077 -1.0224  3.2347 -2.1069
 5484SOL     OW20493   8.097   4.364   2.045 -0.4648  0.8745  0.1832
 5484SOL    HW120494   8.134   4.435   1.992 -1.8430  3.3112  2.2268
 5484SOL    HW220495   8.004   4.364   2.024 -0.4974 -0.3115  0.2752
 5485SOL     OW20496   3.237   5.058  10.093 -0.5883  0.2437 -0.5593
 5485SOL    HW120497   3.234   5.056   9.998  1.1072  0.5454 -0.6468
 5485SOL    HW220498   3.298   4.987  10.117 -2.6979 -1.3326  0.4392
 5486SOL     OW20499  10.176   9.880   9.320 -0.6162 -0.0816  0.4026
 5486SOL    HW120500  10.156   9.880   9.413 -2.1807  1.0467  0.1002
 5486SOL    HW220501  10.185   9.973   9.297 -2.1625 -0.2203 -0.9193
 5487SOL     OW20502   9.765   8.956   2.485  0.1016  0.1924 -0.5683
 5487SOL    HW120503   9.747   8.934   2.394 -0.3129  1.6968 -0.8715
 5487SOL    HW220504   9.695   8.914   2.534 -0.7939  0.9720 -1.1509
 5488SOL     OW20505   5.239   7.415   1.149 -0.1074  0.0334 -0.1876
 5488SOL    HW120506   5.262   7.334   1.105 -0.3176 -0.3506  0.3937
 5488SOL    HW220507   5.321   7.446   1.187 -0.4509 -1.2108  1.6827
 5489SOL     OW20508  10.222   0.078   6.612 -0.1652 -0.1286  0.5058
 5489SOL    HW120509  10.220   0.042   6.523 -0.0434 -0.2493  0.5521
 5489SOL    HW220510  10.193   0.005   6.667  0.2635 -0.2157  0.6204
 5490SOL     OW20511   4.560   8.245   3.054  0.8605  0.4191  0.6207
 5490SOL    HW120512   4.507   8.188   2.998  0.3362 -0.0916  1.6009
 5490SOL    HW220513   4.563   8.199   3.138  0.4405  1.8336  1.4335
 5491SOL     OW20514   0.695   7.832   5.081 -0.4086 -0.4022 -0.1175
 5491SOL    HW120515   0.601   7.833   5.094 -0.5759  1.0822 -1.1457
 5491SOL    HW220516   0.732   7.844   5.168 -1.0599 -3.1081  0.6149
 5492SOL     OW20517   5.746   5.025   7.469  0.4519  0.0921  0.1921
 5492SOL    HW120518   5.676   5.032   7.403  0.6756  0.5601  0.0014
 5492SOL    HW220519   5.703   4.985   7.544  0.3210 -0.9762 -0.4253
 5493SOL     OW20520   6.419   8.026   6.295  0.3491  0.2966  0.6926
 5493SOL    HW120521   6.329   8.023   6.263  0.1084  1.3108  1.2063
 5493SOL    HW220522   6.414   7.995   6.385  0.6917 -0.6459  0.3933
 5494SOL     OW20523   5.245   6.878   2.245 -0.8723 -0.0391 -0.6726
 5494SOL    HW120524   5.276   6.934   2.315 -0.8191 -0.0086 -0.7206
 5494SOL    HW220525   5.300   6.900   2.170 -0.3782 -0.6633 -0.4989
 5495SOL     OW20526   6.801   3.217   3.042  0.5993 -0.1158  0.5199
 5495SOL    HW120527   6.890   3.203   3.074  0.1065 -2.2078  1.0832
 5495SOL    HW220528   6.813   3.252   2.954  1.9684  0.1436  0.7900
 5496SOL     OW20529   4.033   3.540   5.726  0.4815  0.0488 -0.2392
 5496SOL    HW120530   4.056   3.623   5.767 -2.0184  0.6477  0.0640
 5496SOL    HW220531   4.081   3.474   5.777 -0.7188  0.9575  2.2096
 5497SOL     OW20532   0.257   3.415   5.029 -0.0340  0.8751  0.0025
 5497SOL    HW120533   0.302   3.431   4.946 -0.2328  1.1057 -0.0612
 5497SOL    HW220534   0.179   3.366   5.005  2.5071 -4.0161  0.5275
 5498SOL     OW20535   6.239   1.937   7.624  0.2679 -0.8159 -0.2564
 5498SOL    HW120536   6.186   1.928   7.545  2.1278  0.3468 -1.7319
 5498SOL    HW220537   6.249   1.848   7.657 -1.0990 -1.2461 -0.9452
 5499SOL     OW20538  10.067   2.634   5.562  0.0474  0.0755  0.1787
 5499SOL    HW120539  10.015   2.588   5.496  0.9967 -1.2283  0.3013
 5499SOL    HW220540  10.053   2.727   5.543 -0.6652 -0.2713 -1.0856
 5500SOL     OW20541   0.758   9.102   9.573 -0.3045 -0.3199  0.5856
 5500SOL    HW120542   0.718   9.164   9.512 -0.2475 -1.4401 -0.6391
 5500SOL    HW220543   0.695   9.031   9.581  1.1898 -1.9639 -1.1400
 5501SOL     OW20544   8.661   7.649   7.347  0.2260  0.4388  0.4263
 5501SOL    HW120545   8.709   7.696   7.416 -0.6671  0.0919  1.3113
 5501SOL    HW220546   8.674   7.702   7.268  1.4335  0.7393  0.8060
 5502SOL     OW20547   7.628   2.282  10.261  0.2004  0.5056  0.1571
 5502SOL    HW120548   7.592   2.332  10.335  0.0074 -2.2308  2.0473
 5502SOL    HW220549   7.554   2.273  10.201  0.0533  1.8180  0.0966
 5503SOL     OW20550   0.286   1.556   8.529 -0.1918 -0.2649  0.0846
 5503SOL    HW120551   0.229   1.588   8.598  0.2030 -0.6356  0.5930
 5503SOL    HW220552   0.294   1.462   8.547 -1.0780 -0.6068 -1.1876
 5504SOL     OW20553   1.950   0.649   8.350  0.0349  0.2284 -0.3155
 5504SOL    HW120554   1.856   0.629   8.353 -0.0027 -0.0802 -2.3456
 5504SOL    HW220555   1.966   0.700   8.429 -1.9958  0.8920 -0.2802
 5505SOL     OW20556   8.839   5.629   4.547 -0.1004  0.5896  0.2679
 5505SOL    HW120557   8.893   5.549   4.551 -1.0516 -0.0830  0.0979
 5505SOL    HW220558   8.750   5.597   4.560 -0.5569  1.5617 -0.4356
 5506SOL     OW20559   7.741   7.123   4.875  0.2150 -0.6324  0.1091
 5506SOL    HW120560   7.790   7.203   4.892  0.1062 -0.3775 -0.7229
 5506SOL    HW220561   7.691   7.108   4.955 -1.8955  1.6995 -0.6335
 5507SOL     OW20562   0.918   2.604   3.985 -0.7123  0.1762 -0.0551
 5507SOL    HW120563   0.874   2.558   3.913 -0.0807  0.2775 -0.5185
 5507SOL    HW220564   0.951   2.685   3.945 -1.4124  0.8219  0.6431
 5508SOL     OW20565   6.091   6.688   0.180  0.4551  0.0356  0.1270
 5508SOL    HW120566   6.186   6.702   0.177  0.5097  0.2615  1.9958
 5508SOL    HW220567   6.080   6.593   0.182  0.6930  0.0217  0.8833
 5509SOL     OW20568   5.154   0.678   8.907 -0.5191  0.4642 -0.0597
 5509SOL    HW120569   5.180   0.679   8.999 -1.5085  1.4442  0.2341
 5509SOL    HW220570   5.098   0.755   8.897 -1.3021 -0.2187 -1.2199
 5510SOL     OW20571   0.009   3.368   2.546  0.1989  0.8521 -0.3736
 5510SOL    HW120572   0.067   3.437   2.513  0.0984  0.7510 -0.7606
 5510SOL    HW220573  -0.030   3.405   2.625 -1.2842  1.9513 -1.5758
 5511SOL     OW20574   1.332   7.966   4.570  0.0238  0.0287  0.2154
 5511SOL    HW120575   1.243   7.973   4.537 -0.0033  0.6537  0.4155
 5511SOL    HW220576   1.380   7.921   4.501  0.0311  1.5399 -0.7894
 5512SOL     OW20577   8.135   3.230   0.692 -0.1670  0.1939  0.0163
 5512SOL    HW120578   8.168   3.168   0.626  0.7331  0.2727  0.3793
 5512SOL    HW220579   8.041   3.210   0.698  0.0113 -0.7984 -0.2337
 5513SOL     OW20580   4.831   7.690   2.375 -0.3956 -0.4421  0.5133
 5513SOL    HW120581   4.896   7.707   2.444 -0.6997  1.4782  0.3703
 5513SOL    HW220582   4.758   7.748   2.397  0.1336  1.4597 -2.2589
 5514SOL     OW20583   9.427   6.313   0.950 -0.4076 -0.4109  0.1054
 5514SOL    HW120584   9.332   6.307   0.959 -0.5675 -0.1988 -1.2139
 5514SOL    HW220585   9.443   6.404   0.923 -0.1300 -1.1442 -2.4841
 5515SOL     OW20586   7.259   7.117   3.672 -0.1959  0.0584  0.1116
 5515SOL    HW120587   7.270   7.118   3.767 -0.0861 -0.9869  0.1290
 5515SOL    HW220588   7.326   7.176   3.638  1.2136 -1.2183  0.5767
 5516SOL     OW20589   4.539   7.050   9.793  0.4190  0.0150  0.1154
 5516SOL    HW120590   4.624   7.075   9.829  0.5548 -1.8993  1.2375
 5516SOL    HW220591   4.505   6.985   9.854 -1.3525 -0.1040 -0.9272
 5517SOL     OW20592   1.006   4.323   3.258 -0.0774  0.2688  0.1844
 5517SOL    HW120593   0.978   4.380   3.187  0.5661  0.1035 -0.2029
 5517SOL    HW220594   0.946   4.343   3.330 -1.7130 -0.6552 -0.8776
 5518SOL     OW20595   3.191   4.301   4.602 -0.0979 -0.1235 -0.3806
 5518SOL    HW120596   3.274   4.331   4.638 -0.1273  0.3558 -0.7014
 5518SOL    HW220597   3.146   4.381   4.575 -0.5905 -0.3923 -0.3651
 5519SOL     OW20598   5.024   1.740   6.791  0.4205 -0.4909 -0.4616
 5519SOL    HW120599   5.044   1.685   6.715 -2.2108 -0.4633 -1.2944
 5519SOL    HW220600   5.104   1.789   6.808  2.1418 -2.8882 -1.1120
 5520SOL     OW20601   9.522   9.962   0.584  0.3531  0.1153  0.2118
 5520SOL    HW120602   9.508  10.050   0.550 -0.7857  0.0609  0.5046
 5520SOL    HW220603   9.443   9.943   0.635 -0.7492 -2.1726 -2.1550
 5521SOL     OW20604   8.149   4.579   1.907  0.0785  0.3567  0.0868
 5521SOL    HW120605   8.107   4.665   1.915  0.8501  1.4289 -4.5629
 5521SOL    HW220606   8.234   4.597   1.867  0.4884 -2.5172 -0.5531
 5522SOL     OW20607   0.700   5.038   8.496  0.2053 -0.0254 -0.2415
 5522SOL    HW120608   0.771   4.993   8.449 -1.0901 -0.8903 -1.4446
 5522SOL    HW220609   0.621   5.013   8.448 -0.8897  1.1000  0.9418
 5523SOL     OW20610   2.042   2.123   1.998  0.6933  0.1950  0.8156
 5523SOL    HW120611   2.026   2.090   2.087  0.4604 -0.7055  0.4497
 5523SOL    HW220612   2.137   2.133   1.993  1.0608 -2.5806  0.2486
 5524SOL     OW20613   5.242   9.430   8.886  0.0490 -0.3752  0.3062
 5524SOL    HW120614   5.294   9.397   8.959 -0.0429 -0.7784  0.1907
 5524SOL    HW220615   5.224   9.353   8.832  0.7174  0.0312 -0.5232
 5525SOL     OW20616   8.054   2.496   8.378 -0.2104 -0.0654  0.4857
 5525SOL    HW120617   8.031   2.574   8.429  0.7243 -0.4411  1.5330
 5525SOL    HW220618   8.097   2.439   8.441  0.2056 -0.9240 -0.5497
 5526SOL     OW20619   3.425   1.148   4.705  0.0208  0.1999  0.1661
 5526SOL    HW120620   3.482   1.219   4.676  0.2259  0.9284  2.1769
 5526SOL    HW220621   3.419   1.159   4.800 -1.3709 -1.4330  0.3265
 5527SOL     OW20622   9.647   0.312   2.413 -0.2047  0.2875  0.2051
 5527SOL    HW120623   9.618   0.231   2.371 -0.8656  0.3970  0.4477
 5527SOL    HW220624   9.667   0.286   2.503  2.1462 -0.1567 -0.3705
 5528SOL     OW20625   4.957   5.699   3.830  0.2851  0.6977  0.2575
 5528SOL    HW120626   4.953   5.739   3.917  0.8398 -0.8615  1.0487
 5528SOL    HW220627   5.037   5.646   3.832  0.1124  0.3484 -1.0796
 5529SOL     OW20628   1.895   5.123   2.283 -0.1880  0.0291  0.2468
 5529SOL    HW120629   1.915   5.076   2.202  1.7257  1.2978 -0.0790
 5529SOL    HW220630   1.873   5.212   2.254  2.0990  0.9587  1.1440
 5530SOL     OW20631   1.940   8.161   0.025  0.4598 -0.0784 -0.3926
 5530SOL    HW120632   1.899   8.168   0.111 -0.3570 -0.1387 -0.7679
 5530SOL    HW220633   1.948   8.066   0.009  2.1615 -0.0908  0.3226
 5531SOL     OW20634   8.606   0.827   6.304 -0.4724 -0.3557  0.4565
 5531SOL    HW120635   8.590   0.738   6.336 -2.0769  0.0783  0.9552
 5531SOL    HW220636   8.607   0.881   6.383 -2.2994  0.4242  0.0073
 5532SOL     OW20637   4.021   4.868   7.946  0.3228  0.0420 -0.2016
 5532SOL    HW120638   4.017   4.792   7.889 -0.6393  3.0287 -4.6625
 5532SOL    HW220639   3.930   4.886   7.969  0.2338  1.1869 -1.3417
 5533SOL     OW20640  10.093   9.983   2.234  0.2151  0.0150  0.2740
 5533SOL    HW120641  10.034   9.944   2.169 -0.3076  1.1979  0.0067
 5533SOL    HW220642  10.056   9.958   2.319  0.2599 -0.5956  0.1188
 5534SOL     OW20643   0.308   3.993   7.887  0.3612 -0.4891  0.0289
 5534SOL    HW120644   0.367   3.976   7.961  0.8284 -1.6335 -0.5696
 5534SOL    HW220645   0.267   4.077   7.907  2.4061  0.5095  0.3534
 5535SOL     OW20646   5.775   8.810   0.479  0.3664  0.1814 -0.0571
 5535SOL    HW120647   5.830   8.879   0.516  0.2662  1.3831 -2.0490
 5535SOL    HW220648   5.731   8.850   0.405 -1.1615 -1.5152 -0.1531
 5536SOL     OW20649   1.132   4.768   9.362  0.1124  0.0304  0.3960
 5536SOL    HW120650   1.155   4.769   9.455  1.1481 -1.0770  0.1772
 5536SOL    HW220651   1.178   4.843   9.325 -0.8980  0.9170  0.8839
 5537SOL     OW20652   4.065   9.749   6.327  0.5820 -0.1396 -0.2995
 5537SOL    HW120653   4.058   9.831   6.278 -2.5369  0.7257  1.3490
 5537SOL    HW220654   4.153   9.752   6.364  0.7688  2.2306 -0.7230
 5538SOL     OW20655   5.544   2.456   4.415  0.1858 -0.8955 -0.3071
 5538SOL    HW120656   5.571   2.507   4.339  2.1881 -2.0408 -0.4231
 5538SOL    HW220657   5.540   2.366   4.384 -1.1854 -1.1179  0.4229
 5539SOL     OW20658   9.936   9.679   9.079  0.0496  0.7919  0.0001
 5539SOL    HW120659   9.971   9.652   9.164 -0.1105 -1.3421 -0.5529
 5539SOL    HW220660   9.857   9.729   9.101 -0.7133 -0.8046  1.1131
 5540SOL     OW20661   4.978   8.713   1.122  0.2030 -0.4946 -0.0502
 5540SOL    HW120662   4.930   8.675   1.196 -0.5122 -1.4536 -0.9656
 5540SOL    HW220663   4.909   8.750   1.066  0.6835 -0.2136 -0.4597
 5541SOL     OW20664   3.569   3.083   7.623  0.0886  0.4749  0.1864
 5541SOL    HW120665   3.489   3.136   7.618  0.2578  1.1145  2.7831
 5541SOL    HW220666   3.553   3.021   7.694 -0.1097 -3.1859 -2.7347
 5542SOL     OW20667   5.306   7.246   1.989 -0.5104 -0.1947 -0.1393
 5542SOL    HW120668   5.215   7.275   1.990  0.1406  1.9690  0.5764
 5542SOL    HW220669   5.330   7.247   1.896 -1.3762 -1.4598 -0.4070
 5543SOL     OW20670   7.428   4.590   4.948 -0.2421  0.0915  0.0351
 5543SOL    HW120671   7.459   4.500   4.938 -1.9684 -0.5365 -0.0468
 5543SOL    HW220672   7.479   4.640   4.884  1.5923 -0.5744  0.9013
 5544SOL     OW20673  10.057   0.761   4.168  0.3479  0.3812  0.9994
 5544SOL    HW120674   9.991   0.811   4.119 -0.0464  0.3920  1.5306
 5544SOL    HW220675  10.021   0.755   4.256  0.8737  0.0317  1.1918
 5545SOL     OW20676   7.825   7.437   4.389  0.1180 -0.4791 -0.1314
 5545SOL    HW120677   7.902   7.491   4.368 -0.6803  1.8086  2.2985
 5545SOL    HW220678   7.845   7.399   4.474 -1.9922  1.5768  1.4234
 5546SOL     OW20679   9.310   0.225   4.348 -0.7401 -0.1594 -0.0811
 5546SOL    HW120680   9.321   0.155   4.283 -0.2721 -0.5954  0.4562
 5546SOL    HW220681   9.389   0.279   4.338 -1.5937  0.9372 -1.2365
 5547SOL     OW20682   5.046   8.060   8.498  0.1295  0.1927 -0.4390
 5547SOL    HW120683   5.114   8.124   8.518 -0.1392  0.1387  0.7122
 5547SOL    HW220684   5.048   8.051   8.402  2.5410 -0.7052 -0.3671
 5548SOL     OW20685   5.609   6.808   9.145 -0.0249 -0.5390 -0.6583
 5548SOL    HW120686   5.687   6.855   9.118  0.0600 -0.3211 -0.0590
 5548SOL    HW220687   5.612   6.809   9.241 -0.3452 -1.2246 -0.6297
 5549SOL     OW20688   4.621   4.570   9.678  0.2515 -0.4594 -0.3805
 5549SOL    HW120689   4.571   4.500   9.719 -1.1746  0.3973 -0.5628
 5549SOL    HW220690   4.557   4.641   9.666  1.8730  1.3164  0.8357
 5550SOL     OW20691   3.591   4.069  10.048 -0.5450 -0.0494 -0.4228
 5550SOL    HW120692   3.522   4.018  10.091  1.6056 -1.7000  1.2366
 5550SOL    HW220693   3.597   4.149  10.101  1.0154 -1.3870  1.5711
 5551SOL     OW20694   7.819   4.094   4.382  0.2095  0.5371  0.2116
 5551SOL    HW120695   7.802   4.017   4.438 -0.2287  1.0452  0.7919
 5551SOL    HW220696   7.782   4.167   4.431 -0.9519  0.8890 -1.1311
 5552SOL     OW20697   6.251   8.678   4.642  0.0027  0.2579  0.0064
 5552SOL    HW120698   6.294   8.741   4.584  0.9920 -0.2189  0.1962
 5552SOL    HW220699   6.312   8.604   4.646  0.1719  0.4509  1.9722
 5553SOL     OW20700   0.567   1.558   7.259 -0.1091 -0.2912 -0.0007
 5553SOL    HW120701   0.557   1.478   7.207  0.1061  0.6918 -1.6165
 5553SOL    HW220702   0.623   1.531   7.332 -0.6497 -1.7800 -0.0932
 5554SOL     OW20703   3.441   7.204   9.024  0.4052  0.3366 -0.3487
 5554SOL    HW120704   3.410   7.219   8.935  0.0056  5.9353  0.3813
 5554SOL    HW220705   3.536   7.197   9.015  0.2410 -1.3015 -1.2773
 5555SOL     OW20706   9.308   4.247   8.879  0.6021 -0.3066 -0.0947
 5555SOL    HW120707   9.338   4.158   8.861  0.0195 -0.2865 -1.2979
 5555SOL    HW220708   9.263   4.273   8.799  0.4948  0.9620  0.3605
 5556SOL     OW20709  10.077   2.707   5.128 -0.1608  0.1099 -0.5732
 5556SOL    HW120710  10.124   2.787   5.103  2.3941 -0.7938  0.8846
 5556SOL    HW220711  10.122   2.637   5.080 -0.9895 -0.6773 -0.2390
 5557SOL     OW20712   1.738   1.518   6.977  0.1810  0.3149 -0.0684
 5557SOL    HW120713   1.817   1.466   6.989 -0.6161 -0.6499  1.4992
 5557SOL    HW220714   1.768   1.608   6.974  1.3971 -0.0794 -0.1803
 5558SOL     OW20715   7.761   5.379   1.521 -0.5293 -0.0223 -0.3024
 5558SOL    HW120716   7.690   5.428   1.562  0.6447  1.0084  0.5645
 5558SOL    HW220717   7.789   5.316   1.587  0.8127  1.0752  0.2021
 5559SOL     OW20718   9.289   8.373   1.273 -0.1167 -0.4270  0.4796
 5559SOL    HW120719   9.312   8.282   1.252  1.0380 -0.2206  0.7647
 5559SOL    HW220720   9.265   8.412   1.189  0.4862 -0.7023  0.1732
 5560SOL     OW20721   4.251   1.765   9.489 -0.5678 -0.0051 -0.4296
 5560SOL    HW120722   4.206   1.735   9.410  0.5214  0.9740 -1.4589
 5560SOL    HW220723   4.292   1.847   9.464 -0.8499  0.7467  1.4025
 5561SOL     OW20724   4.515   5.430   0.137  0.2435 -0.4453  0.0413
 5561SOL    HW120725   4.424   5.416   0.162 -0.8676  0.6591 -2.8842
 5561SOL    HW220726   4.526   5.525   0.139  1.1008 -0.5241 -0.3496
 5562SOL     OW20727   9.364   1.738   3.389 -0.1920  0.6858  0.2546
 5562SOL    HW120728   9.299   1.737   3.460 -0.3517  0.0284  0.1023
 5562SOL    HW220729   9.343   1.817   3.339 -0.7853  0.5639  0.2984
 5563SOL     OW20730   2.090   3.016   7.007 -0.4862 -0.0614 -0.3661
 5563SOL    HW120731   2.032   2.972   6.944  1.1934 -1.5177 -0.9763
 5563SOL    HW220732   2.062   2.984   7.092 -0.5282 -0.7977 -0.6557
 5564SOL     OW20733   4.605   0.086   0.550  0.5442  0.7636 -0.6283
 5564SOL    HW120734   4.681   0.103   0.495  1.9361 -2.1577  0.1518
 5564SOL    HW220735   4.565   0.008   0.513 -1.2779  1.4205 -0.1692
 5565SOL     OW20736   0.051   9.390   5.178  0.4820 -0.1530  0.2124
 5565SOL    HW120737   0.075   9.300   5.157  1.2543  0.0225  0.2970
 5565SOL    HW220738   0.008   9.383   5.263  1.8724 -0.2991  0.9483
 5566SOL     OW20739   7.393   8.411   6.841 -0.3952  0.1844  0.3806
 5566SOL    HW120740   7.421   8.486   6.894 -0.1049  0.4711 -0.1722
 5566SOL    HW220741   7.303   8.394   6.871 -0.5069  0.8268  0.4360
 5567SOL     OW20742   1.018   1.615   4.609 -0.0227  0.3219  0.2862
 5567SOL    HW120743   1.014   1.539   4.666  0.7350  1.1003  1.4173
 5567SOL    HW220744   1.097   1.661   4.636  0.3552  0.7293 -1.3935
 5568SOL     OW20745   8.982   4.914   1.345 -0.2505 -0.0617  0.0931
 5568SOL    HW120746   8.919   4.941   1.413  1.3970  2.9523  0.5843
 5568SOL    HW220747   9.033   4.845   1.387 -0.0738  0.8872  1.5056
 5569SOL     OW20748   6.442   5.085   1.088 -0.3645  0.4188 -0.1465
 5569SOL    HW120749   6.436   5.163   1.033  0.1907  0.5046 -0.0993
 5569SOL    HW220750   6.363   5.087   1.142 -0.7030  0.5601 -0.6490
 5570SOL     OW20751   5.182   8.703   1.377  0.1366 -0.2179 -0.8295
 5570SOL    HW120752   5.249   8.641   1.406  2.2114  1.2114 -2.3081
 5570SOL    HW220753   5.124   8.651   1.321  1.8224 -0.8762 -2.0427
 5571SOL     OW20754   0.966   7.826   9.264  0.1957 -0.0213 -0.0937
 5571SOL    HW120755   0.881   7.841   9.225  0.6039  0.3191 -0.8743
 5571SOL    HW220756   0.954   7.749   9.319 -1.1331  1.2037  1.4329
 5572SOL     OW20757   6.624   2.985   4.458  0.5266 -0.5311 -0.3466
 5572SOL    HW120758   6.718   2.968   4.455  0.5542 -0.2551 -2.2564
 5572SOL    HW220759   6.616   3.077   4.431 -0.2409 -0.2453  0.7900
 5573SOL     OW20760   4.592   3.354   7.951 -0.7678  0.5056  0.4851
 5573SOL    HW120761   4.620   3.372   8.041 -0.5934  0.1519  0.5045
 5573SOL    HW220762   4.527   3.284   7.960  0.1125 -0.3664  0.2470
 5574SOL     OW20763   7.396   6.881   2.794 -0.3074  0.2884  0.3443
 5574SOL    HW120764   7.370   6.880   2.702 -0.7598  0.3977  0.4682
 5574SOL    HW220765   7.489   6.901   2.793  0.0535 -1.2401 -0.1782
 5575SOL     OW20766   8.754   3.702   1.376  0.1728 -0.6701 -0.0859
 5575SOL    HW120767   8.729   3.658   1.294  2.1939 -0.8656 -0.6498
 5575SOL    HW220768   8.831   3.654   1.406  1.1227  1.1081  0.4416
 5576SOL     OW20769   9.094   4.319   6.688  0.2843  0.3833  0.0137
 5576SOL    HW120770   9.128   4.402   6.655  0.0268  0.9437  1.1131
 5576SOL    HW220771   9.144   4.303   6.768  1.4133 -1.3163 -0.9637
 5577SOL     OW20772   0.274   6.206   4.584  0.2485  0.4156 -1.0423
 5577SOL    HW120773   0.230   6.182   4.502 -0.7248  0.6027 -0.5830
 5577SOL    HW220774   0.354   6.153   4.583 -0.4333 -0.6569 -1.4475
 5578SOL     OW20775   3.295   0.618   5.697 -0.1472 -0.0918  0.1617
 5578SOL    HW120776   3.362   0.645   5.759 -0.0408 -1.8269  0.8405
 5578SOL    HW220777   3.338   0.555   5.640 -0.9142 -0.4005 -0.0926
 5579SOL     OW20778   6.837   4.404  10.096 -0.7512 -0.1157  0.7754
 5579SOL    HW120779   6.879   4.488  10.078 -0.4578 -0.6718 -1.3326
 5579SOL    HW220780   6.895   4.360  10.158  0.7411 -0.0177 -0.5030
 5580SOL     OW20781   7.087   0.835   4.891  0.2682  0.4605 -0.0351
 5580SOL    HW120782   7.130   0.916   4.918  1.6233  0.1322 -1.0674
 5580SOL    HW220783   7.150   0.766   4.914 -0.4346 -0.2022 -0.0744
 5581SOL     OW20784   9.700   6.670   6.893 -0.2564 -0.6130  0.3027
 5581SOL    HW120785   9.697   6.766   6.893 -0.2425 -0.6117  0.4406
 5581SOL    HW220786   9.727   6.647   6.804 -2.3679 -0.5581 -0.3871
 5582SOL     OW20787   2.044   4.942   4.689 -0.2525  0.1931 -0.7166
 5582SOL    HW120788   1.963   4.896   4.709 -0.4649  0.7211 -0.3384
 5582SOL    HW220789   2.111   4.874   4.689 -0.4657 -0.0337  0.4291
 5583SOL     OW20790   1.027   7.726   2.713  0.0360  0.0453 -0.5134
 5583SOL    HW120791   1.112   7.686   2.697 -0.2817 -0.8200 -0.1428
 5583SOL    HW220792   1.018   7.793   2.645  1.3761  0.7510 -0.0275
 5584SOL     OW20793   4.123   9.239   8.586 -0.1192 -0.3114  0.0167
 5584SOL    HW120794   4.151   9.151   8.610  2.2498  0.0749 -1.0025
 5584SOL    HW220795   4.142   9.246   8.493 -2.0297  0.6992 -0.3585
 5585SOL     OW20796   8.442   9.562   4.521 -0.3908 -0.4787 -0.1586
 5585SOL    HW120797   8.356   9.590   4.489 -0.5783  0.6715  1.2746
 5585SOL    HW220798   8.429   9.471   4.547 -1.4982 -0.0139  1.0437
 5586SOL     OW20799   9.500   8.477   7.488 -0.7282  0.2122 -0.6029
 5586SOL    HW120800   9.567   8.490   7.421  0.3429  0.4693  0.4790
 5586SOL    HW220801   9.548   8.478   7.571 -2.0992  0.6287  0.2249
 5587SOL     OW20802   7.040   4.609   1.056  0.0342 -0.2500  0.3292
 5587SOL    HW120803   6.950   4.633   1.034  0.2788  0.7617  0.3634
 5587SOL    HW220804   7.048   4.517   1.031 -0.7222 -0.0799 -0.5815
 5588SOL     OW20805   2.989   0.367   8.899 -0.2376 -0.1344 -0.0940
 5588SOL    HW120806   2.941   0.294   8.861  2.6434 -2.1723 -0.0707
 5588SOL    HW220807   3.059   0.386   8.836 -0.1144  1.7508  0.5408
 5589SOL     OW20808   0.641   2.753   3.857 -0.0075  0.2251  0.0885
 5589SOL    HW120809   0.644   2.719   3.947  0.1173  2.7586  1.1317
 5589SOL    HW220810   0.557   2.798   3.852  0.3504  0.8081 -0.7881
 5590SOL     OW20811   1.724   8.472   4.588 -0.3456  0.1139 -0.4569
 5590SOL    HW120812   1.630   8.459   4.604 -0.6412  2.8136  0.6437
 5590SOL    HW220813   1.728   8.533   4.514  0.5192  0.2004 -0.3535
 5591SOL     OW20814   1.475   7.361   1.813 -0.2268  0.0835  0.0687
 5591SOL    HW120815   1.482   7.455   1.832  0.9204  0.0556 -0.1577
 5591SOL    HW220816   1.518   7.318   1.887 -0.6327 -0.2622  0.1046
 5592SOL     OW20817   4.470   1.790   4.152  0.3651  0.0451  0.6521
 5592SOL    HW120818   4.452   1.872   4.105  0.0939 -0.3136  0.1139
 5592SOL    HW220819   4.438   1.722   4.093  0.1237 -0.4256  1.3216
 5593SOL     OW20820   3.492   0.930   7.386  0.4615 -0.3917 -0.4000
 5593SOL    HW120821   3.457   0.965   7.468  0.1739 -0.2183 -0.5966
 5593SOL    HW220822   3.587   0.932   7.398  0.4299 -0.0980 -0.1789
 5594SOL     OW20823   4.173   6.022   1.980 -0.4911 -0.2138 -0.2741
 5594SOL    HW120824   4.189   6.115   1.964  0.3657 -0.2684  0.1992
 5594SOL    HW220825   4.092   6.020   2.031 -0.9084  0.2172 -0.8960
 5595SOL     OW20826   3.198   8.751   3.815 -0.2556 -0.0370  0.5954
 5595SOL    HW120827   3.257   8.748   3.890 -1.8523  0.3251  1.9260
 5595SOL    HW220828   3.189   8.660   3.787 -0.9350 -0.4000  1.9296
 5596SOL     OW20829   8.995   7.913   3.633 -0.1718 -0.0410  0.6371
 5596SOL    HW120830   9.061   7.870   3.688  0.0647 -0.5050 -0.0059
 5596SOL    HW220831   9.039   7.928   3.550  0.7613  4.0787  1.6384
 5597SOL     OW20832   3.367   0.688   9.525  0.4131 -0.0658  0.5123
 5597SOL    HW120833   3.459   0.701   9.504  0.8253 -2.1528  0.8081
 5597SOL    HW220834   3.362   0.599   9.561 -1.6805  0.0710  0.7313
 5598SOL     OW20835   8.825   7.476   1.199 -0.4584  0.8246 -0.2393
 5598SOL    HW120836   8.831   7.554   1.144 -1.0078  0.7465 -0.4106
 5598SOL    HW220837   8.827   7.510   1.289  2.9975  0.8304 -0.1618
 5599SOL     OW20838   2.249   1.361   6.194  0.2370 -0.5527  0.2691
 5599SOL    HW120839   2.177   1.405   6.148  0.0529 -1.2428 -0.1178
 5599SOL    HW220840   2.256   1.408   6.277 -1.6202 -1.3626  0.9387
 5600SOL     OW20841   2.553   9.026   6.357  0.8946 -0.2426 -0.6150
 5600SOL    HW120842   2.576   9.103   6.304  1.8130 -0.9609 -1.2849
 5600SOL    HW220843   2.458   9.033   6.368  1.1925  2.1470  1.2095
 5601SOL     OW20844   1.941   9.544   7.461 -0.2468  0.3050  0.2368
 5601SOL    HW120845   1.984   9.578   7.540 -1.5072  2.8768 -0.0773
 5601SOL    HW220846   1.966   9.605   7.392 -0.6137 -0.8849 -0.9909
 5602SOL     OW20847   1.270   1.192   7.497 -0.3422 -0.2858  0.1607
 5602SOL    HW120848   1.282   1.260   7.563 -0.3171 -1.4498  1.3943
 5602SOL    HW220849   1.176   1.194   7.479 -0.6810 -1.1597  1.6245
 5603SOL     OW20850   5.929   9.907   4.958 -0.3751  0.3685 -0.7132
 5603SOL    HW120851   5.965   9.986   5.000 -0.1533 -0.2310  0.2463
 5603SOL    HW220852   5.855   9.882   5.013  0.8324 -1.2918  0.2120
 5604SOL     OW20853   0.211   9.597   9.800  0.0713  0.2330 -0.0433
 5604SOL    HW120854   0.186   9.509   9.828 -0.4023  0.4500  0.2246
 5604SOL    HW220855   0.170   9.656   9.864  1.9688  0.5640  0.9170
 5605SOL     OW20856   3.531   0.238   3.968 -0.2979  0.3089 -0.4899
 5605SOL    HW120857   3.582   0.162   3.998 -0.7027  0.7187  1.3701
 5605SOL    HW220858   3.593   0.288   3.915  0.8557  0.0884  0.5807
 5606SOL     OW20859   4.447   1.320   2.657 -0.6718 -0.1397  0.2170
 5606SOL    HW120860   4.442   1.348   2.566 -0.9946  0.3003  0.3670
 5606SOL    HW220861   4.401   1.236   2.659 -0.2522 -0.3827 -0.1144
 5607SOL     OW20862   6.389   5.392   7.215  0.3673 -0.1264  0.0226
 5607SOL    HW120863   6.456   5.385   7.283  0.5501  0.4509 -0.1011
 5607SOL    HW220864   6.311   5.354   7.256  0.5473 -0.0367  0.4580
 5608SOL     OW20865   0.061   7.883   5.327  0.2396  0.1572  0.3704
 5608SOL    HW120866   0.147   7.847   5.346 -0.8846 -3.0204  0.1131
 5608SOL    HW220867   0.057   7.887   5.231 -0.4870 -1.5752  0.2847
 5609SOL     OW20868   1.571   9.070   6.202 -0.3175  0.1469  0.2456
 5609SOL    HW120869   1.645   9.017   6.171 -0.9407  0.7223 -2.4979
 5609SOL    HW220870   1.503   9.005   6.224 -0.1374 -0.2834 -0.4429
 5610SOL     OW20871   7.731   6.940   7.802  0.5391 -0.0356  0.0558
 5610SOL    HW120872   7.664   7.008   7.799  0.2687 -0.3078 -1.6521
 5610SOL    HW220873   7.810   6.982   7.768  0.6755 -0.2468  0.1058
 5611SOL     OW20874   6.006   9.739   8.759  0.1812  0.3373 -0.0441
 5611SOL    HW120875   6.058   9.809   8.719  0.6006 -0.1546 -0.3756
 5611SOL    HW220876   5.957   9.782   8.829 -0.4476  1.1948 -0.9752
 5612SOL     OW20877   0.996   7.259   5.228 -0.3988 -0.0862 -1.5330
 5612SOL    HW120878   1.090   7.242   5.220  0.0747  1.8997 -0.8561
 5612SOL    HW220879   0.962   7.183   5.275  1.2599  0.0605  0.0106
 5613SOL     OW20880   2.463   1.253   7.512 -0.2134 -0.1460  0.5551
 5613SOL    HW120881   2.481   1.160   7.522 -0.7928 -0.6496 -2.2196
 5613SOL    HW220882   2.540   1.296   7.549  0.2982 -1.7262  1.4216
 5614SOL     OW20883   7.620   6.265   3.249  0.3347 -0.1476  0.0340
 5614SOL    HW120884   7.586   6.175   3.248  0.7372 -0.2997  0.0077
 5614SOL    HW220885   7.554   6.314   3.299  1.6156 -1.0624  2.8417
 5615SOL     OW20886   7.547   3.160   3.907  0.7102 -0.4503  0.3889
 5615SOL    HW120887   7.538   3.253   3.885 -2.4521 -0.2531  1.9728
 5615SOL    HW220888   7.549   3.158   4.003 -0.1677 -2.0595  0.4042
 5616SOL     OW20889   6.857   1.611   2.119  0.4065  0.2116  0.4672
 5616SOL    HW120890   6.845   1.524   2.082 -3.3158  0.6278  0.3419
 5616SOL    HW220891   6.819   1.605   2.207 -0.7480  1.8437  0.1317
 5617SOL     OW20892  10.046   0.547   0.327  0.3408 -0.2573 -0.6657
 5617SOL    HW120893  10.107   0.571   0.258  1.4621 -1.9259 -0.2977
 5617SOL    HW220894   9.980   0.492   0.283 -0.1059  0.3539 -0.7781
 5618SOL     OW20895   7.096   7.853   8.112 -0.9112  0.2269 -0.3167
 5618SOL    HW120896   7.131   7.764   8.107 -0.4029  0.3588  0.8376
 5618SOL    HW220897   7.019   7.850   8.055 -0.7130 -0.8607 -0.5631
 5619SOL     OW20898   4.179  10.228   8.915 -0.2528  0.4534 -0.5848
 5619SOL    HW120899   4.125  10.189   8.846 -0.1552 -0.4381 -0.1803
 5619SOL    HW220900   4.228  10.154   8.951 -1.4842  0.5851  1.5117
 5620SOL     OW20901   7.777   5.966   2.682 -0.0598 -0.1717  0.3899
 5620SOL    HW120902   7.863   5.935   2.709 -0.7388 -1.5166  1.1172
 5620SOL    HW220903   7.794   6.020   2.605  1.5138  0.3490  1.0762
 5621SOL     OW20904   1.267   7.704   2.591 -0.1259  0.4197  0.0844
 5621SOL    HW120905   1.223   7.621   2.572  0.0968  0.3447 -0.1002
 5621SOL    HW220906   1.323   7.685   2.666 -1.2826  0.8067  1.0878
 5622SOL     OW20907   6.014   0.629   1.598 -0.2787 -0.4984  0.5943
 5622SOL    HW120908   5.991   0.680   1.676  2.4681  0.6001  0.7890
 5622SOL    HW220909   6.073   0.561   1.630 -1.5454 -2.0081 -0.1317
 5623SOL     OW20910   9.570   9.952   5.197  0.3177  0.1049 -0.2252
 5623SOL    HW120911   9.574  10.021   5.131 -3.1889 -0.8269 -1.6405
 5623SOL    HW220912   9.554   9.999   5.280 -1.3917  1.1142 -1.0591
 5624SOL     OW20913   5.028   0.208   2.143  0.2436  0.3892  0.1455
 5624SOL    HW120914   4.956   0.158   2.105  0.2316  0.7731 -0.3487
 5624SOL    HW220915   5.064   0.151   2.210  1.4702 -1.0819 -1.6843
 5625SOL     OW20916   3.448   4.995   5.374 -0.0359  0.7863  0.1771
 5625SOL    HW120917   3.510   4.963   5.309  2.0363 -0.3944  2.5815
 5625SOL    HW220918   3.367   4.948   5.355 -0.1321  1.8693 -2.6203
 5626SOL     OW20919   3.718   1.458   0.055  0.1785  0.4256  0.2086
 5626SOL    HW120920   3.782   1.387   0.065 -1.0423 -0.7188  0.1139
 5626SOL    HW220921   3.768   1.538   0.075  0.9498 -0.6475  3.0671
 5627SOL     OW20922   4.703   1.586   1.822 -0.0393 -0.0359  0.1057
 5627SOL    HW120923   4.673   1.625   1.904  0.8648  0.7404  0.0932
 5627SOL    HW220924   4.632   1.528   1.795 -0.1035 -0.7707  1.7376
 5628SOL     OW20925   7.793   8.312   9.452 -0.7081  0.1824  0.5375
 5628SOL    HW120926   7.821   8.362   9.376 -1.5220  0.8372  0.6565
 5628SOL    HW220927   7.844   8.231   9.448  0.8251  1.1263  0.4946
 5629SOL     OW20928   7.351   1.442   7.991 -0.4266  0.3502  0.8490
 5629SOL    HW120929   7.397   1.475   7.914  0.4442  0.0437  1.2226
 5629SOL    HW220930   7.397   1.480   8.065 -2.0251  1.6581  1.2360
 5630SOL     OW20931   9.849  10.049   3.661  0.2629  0.2385  0.3069
 5630SOL    HW120932   9.883  10.129   3.621 -1.5797  0.6384 -0.5786
 5630SOL    HW220933   9.819   9.996   3.587 -1.4900  0.1592  1.0215
 5631SOL     OW20934   5.664   7.340   8.619 -0.1371 -0.0619 -0.2016
 5631SOL    HW120935   5.644   7.294   8.537  2.3554 -1.4190 -0.1555
 5631SOL    HW220936   5.757   7.361   8.613  0.3955 -1.0997  2.6483
 5632SOL     OW20937   3.795   9.336   3.148  0.2633  0.7128 -0.4020
 5632SOL    HW120938   3.707   9.335   3.112  0.1201  2.6352 -0.2176
 5632SOL    HW220939   3.852   9.338   3.071  0.3131 -2.4461 -0.5846
 5633SOL     OW20940   6.395   4.507   3.584  0.2771 -0.0328  0.2556
 5633SOL    HW120941   6.442   4.585   3.553 -0.0859 -1.1982 -3.8268
 5633SOL    HW220942   6.456   4.435   3.570 -0.4411 -0.8235  1.0769
 5634SOL     OW20943   8.388   2.850   6.334  0.0143  0.2105  0.1183
 5634SOL    HW120944   8.295   2.864   6.317 -0.1236 -0.2175  0.4784
 5634SOL    HW220945   8.406   2.900   6.413  0.3781  1.2553 -0.6100
 5635SOL     OW20946   5.621  10.018   0.231 -0.2692 -0.0489  0.0860
 5635SOL    HW120947   5.550  10.073   0.200  0.1455  0.1641 -0.5144
 5635SOL    HW220948   5.623  10.032   0.325 -1.6581 -0.8281  0.2590
 5636SOL     OW20949   9.398   3.228   3.824  0.3234  0.3968  0.4809
 5636SOL    HW120950   9.323   3.172   3.844  0.4282  0.0997  0.0520
 5636SOL    HW220951   9.411   3.219   3.730 -0.4617  2.1581  0.1692
 5637SOL     OW20952   9.725   7.368   2.775  0.1861 -0.2579 -0.2193
 5637SOL    HW120953   9.669   7.429   2.727  0.1110 -1.2668 -1.4740
 5637SOL    HW220954   9.666   7.297   2.801  0.6189 -0.6939 -0.4130
 5638SOL     OW20955   8.701   7.450   5.074  0.4297  0.6808 -0.0724
 5638SOL    HW120956   8.717   7.383   5.007 -1.8845 -1.0762  0.9805
 5638SOL    HW220957   8.719   7.407   5.157 -2.2554  0.8424  0.7097
 5639SOL     OW20958   7.288   1.913   8.979  0.4945  0.3622  0.3443
 5639SOL    HW120959   7.221   1.968   8.938 -0.4282  0.1640  1.5208
 5639SOL    HW220960   7.287   1.832   8.927 -1.0080 -0.0794  1.0004
 5640SOL     OW20961   1.875   9.249  10.192 -0.2180 -0.6646 -0.1784
 5640SOL    HW120962   1.904   9.299  10.115 -1.8413 -0.1193 -0.4695
 5640SOL    HW220963   1.931   9.171  10.192  0.6252 -0.0872 -1.2030
 5641SOL     OW20964   3.848   4.990   6.109  0.2015 -0.6624  0.7980
 5641SOL    HW120965   3.764   4.969   6.150  0.2724 -0.7705  0.8863
 5641SOL    HW220966   3.825   5.008   6.017  0.0246 -0.2699  0.9159
 5642SOL     OW20967   9.564   9.754   8.928 -0.3430 -0.1627 -0.4640
 5642SOL    HW120968   9.633   9.764   8.993 -0.4145 -0.0319 -0.4070
 5642SOL    HW220969   9.502   9.693   8.968 -0.5575  0.1802 -0.2645
 5643SOL     OW20970   1.785   3.378   3.440  0.4096 -1.0715  0.4431
 5643SOL    HW120971   1.786   3.282   3.435  2.1797 -1.0891  0.5955
 5643SOL    HW220972   1.857   3.400   3.500  0.8212  0.3961 -0.5345
 5644SOL     OW20973   2.635   2.195   5.656  0.5643 -0.5042  0.5586
 5644SOL    HW120974   2.709   2.180   5.715  0.5848  0.5250  0.8119
 5644SOL    HW220975   2.639   2.122   5.594  1.6664 -0.5796  0.6944
 5645SOL     OW20976   9.147   7.791   7.223  0.2096 -0.0852 -0.2127
 5645SOL    HW120977   9.186   7.705   7.239 -1.3213 -0.4502  1.9490
 5645SOL    HW220978   9.053   7.774   7.217  0.0731  1.0001 -3.6007
 5646SOL     OW20979   2.786   8.605   3.952 -0.6282 -0.3353  0.4387
 5646SOL    HW120980   2.818   8.594   3.863  0.0779  0.2088  0.6164
 5646SOL    HW220981   2.756   8.696   3.956 -1.8649 -0.7255  0.3904
 5647SOL     OW20982   3.691   2.403   0.493  0.0644 -0.2722 -0.5088
 5647SOL    HW120983   3.730   2.420   0.579  0.3007 -0.4233 -0.5866
 5647SOL    HW220984   3.721   2.476   0.439  0.4108 -0.4952 -0.6233
 5648SOL     OW20985   8.903   6.296  10.183 -0.6346 -0.1716  0.2964
 5648SOL    HW120986   8.859   6.240  10.247 -1.1973 -0.8288 -0.6601
 5648SOL    HW220987   8.975   6.242  10.150 -0.1977  0.2548  0.5330
 5649SOL     OW20988   9.526   7.650   8.809  0.1663 -0.3489  0.8547
 5649SOL    HW120989   9.451   7.594   8.790 -0.2134 -0.2609  1.9953
 5649SOL    HW220990   9.525   7.717   8.741 -0.6012 -0.5327  0.6798
 5650SOL     OW20991  10.290   9.447   1.710 -0.0719 -0.2777  0.1821
 5650SOL    HW120992  10.317   9.402   1.630 -0.8053 -0.4315  0.0141
 5650SOL    HW220993  10.269   9.536   1.682 -0.2389 -0.3047  0.2219
 5651SOL     OW20994   8.541   3.169   9.225 -0.1697  0.3113 -0.1728
 5651SOL    HW120995   8.461   3.209   9.259  0.5555  1.3059  0.4503
 5651SOL    HW220996   8.612   3.221   9.265  0.8899 -2.2929  1.5855
 5652SOL     OW20997   8.294   7.379   7.525  0.0842 -0.4650 -0.4394
 5652SOL    HW120998   8.251   7.333   7.453 -1.2587 -0.1568  0.1240
 5652SOL    HW220999   8.327   7.460   7.486  0.9829 -1.1188 -1.0727
 5653SOL     OW21000   5.097   2.214   9.275  0.2169  0.0770 -0.1617
 5653SOL    HW121001   5.092   2.304   9.242  0.5137  0.3373  0.4969
 5653SOL    HW221002   5.024   2.169   9.232 -1.1579  1.1275  0.9724
 5654SOL     OW21003   8.912   8.046   4.332  0.1644 -0.2100  0.1981
 5654SOL    HW121004   8.917   7.999   4.250 -2.2682  0.8472 -0.6434
 5654SOL    HW221005   8.865   7.988   4.391 -0.2374 -0.0046  0.0810
 5655SOL     OW21006   2.241   4.497   5.090 -0.1488 -0.3363  0.3367
 5655SOL    HW121007   2.276   4.571   5.040  0.3605 -0.9155 -0.1833
 5655SOL    HW221008   2.191   4.538   5.161  1.9827  0.5734  1.4388
 5656SOL     OW21009   8.584   9.924   9.181  0.0570 -0.4637  0.4469
 5656SOL    HW121010   8.649   9.856   9.198  0.6009 -0.4071 -1.2537
 5656SOL    HW221011   8.510   9.877   9.143 -1.1101 -0.5805  2.7255
 5657SOL     OW21012   9.726   0.196   0.194 -0.5348  0.4669 -0.6893
 5657SOL    HW121013   9.705   0.111   0.156 -0.3846  0.1373 -0.0444
 5657SOL    HW221014   9.708   0.186   0.288 -0.4608  1.1269 -0.5965
 5658SOL     OW21015   6.007   1.543   9.217 -0.2581  0.6027 -0.5980
 5658SOL    HW121016   6.070   1.561   9.287 -0.3163  1.0131 -0.6529
 5658SOL    HW221017   6.060   1.511   9.144  0.1245  2.7249 -1.3163
 5659SOL     OW21018   0.195   4.243   7.685 -0.5019  0.6329 -0.3374
 5659SOL    HW121019   0.232   4.321   7.644  1.8631 -0.0017  0.4603
 5659SOL    HW221020   0.198   4.263   7.779  0.7111 -0.6249 -0.0868
 5660SOL     OW21021   8.948   9.829   4.654 -0.2088  0.1745  0.5530
 5660SOL    HW121022   8.880   9.888   4.622 -0.2310 -0.5042 -0.7139
 5660SOL    HW221023   8.901   9.764   4.706 -0.6503 -0.6064 -0.7585
 5661SOL     OW21024   5.611   3.029   1.791 -0.3539  0.2320  0.2052
 5661SOL    HW121025   5.579   3.088   1.723 -0.1804 -1.6901 -1.6850
 5661SOL    HW221026   5.544   2.961   1.796 -0.1166  0.0905  1.6258
 5662SOL     OW21027   4.052   4.731   5.571 -0.4460  0.0295 -0.4559
 5662SOL    HW121028   4.048   4.635   5.579  0.5910 -0.0496 -0.7030
 5662SOL    HW221029   3.972   4.762   5.614 -0.8476 -0.9511 -0.4648
 5663SOL     OW21030   6.887   0.535   0.641  0.3731  0.7099 -0.1381
 5663SOL    HW121031   6.982   0.544   0.633  0.5740 -0.9430  0.0566
 5663SOL    HW221032   6.872   0.518   0.734  0.3394 -2.8014 -0.6183
 5664SOL     OW21033   9.100   9.566   6.433  0.2011 -0.1859  0.3505
 5664SOL    HW121034   9.175   9.509   6.450 -0.1561 -0.2573  1.8860
 5664SOL    HW221035   9.127   9.651   6.467  0.2297  0.2476 -0.7175
 5665SOL     OW21036   7.585   6.710   4.720  0.4787  0.0590  0.1048
 5665SOL    HW121037   7.503   6.670   4.752 -0.5663 -1.9141 -4.3467
 5665SOL    HW221038   7.649   6.691   4.789 -2.7792  2.6914  4.3913
 5666SOL     OW21039   8.107   0.203   6.498  0.3217 -0.5519 -0.3087
 5666SOL    HW121040   8.080   0.294   6.487  0.6513 -0.3550  0.4991
 5666SOL    HW221041   8.025   0.155   6.509  0.1190 -0.4265 -1.1739
 5667SOL     OW21042   8.392   3.451   6.789 -0.0962 -0.5557  0.5219
 5667SOL    HW121043   8.442   3.452   6.708 -2.3126 -1.1329 -0.9298
 5667SOL    HW221044   8.318   3.510   6.773 -0.6078 -0.6881  2.1218
 5668SOL     OW21045   4.123   9.521   0.391 -0.3797  0.0717  0.1269
 5668SOL    HW121046   4.211   9.487   0.378 -0.7504 -0.9996  0.3302
 5668SOL    HW221047   4.120   9.546   0.483 -0.5185 -0.5981  0.3074
 5669SOL     OW21048   1.963   4.364   5.037 -0.1948  0.1476  0.0135
 5669SOL    HW121049   1.963   4.459   5.038  0.9113  0.2253  2.7321
 5669SOL    HW221050   2.055   4.339   5.024 -0.3281 -0.4950  0.2226
 5670SOL     OW21051   6.757   4.191   9.129  0.3033 -0.1015 -0.1371
 5670SOL    HW121052   6.744   4.102   9.159  0.9775 -0.0150  0.4353
 5670SOL    HW221053   6.794   4.237   9.205  1.2686  0.3204 -0.8392
 5671SOL     OW21054   0.509   3.422   3.052 -0.1057  0.3022  0.0310
 5671SOL    HW121055   0.460   3.496   3.018  0.2350  0.5224  0.0141
 5671SOL    HW221056   0.455   3.346   3.031 -0.3744  0.5287 -0.1057
 5672SOL     OW21057   5.852   2.127   4.920  0.1800 -0.1489 -0.3469
 5672SOL    HW121058   5.918   2.065   4.890  1.8795  2.8042 -3.3755
 5672SOL    HW221059   5.898   2.211   4.926 -2.1493  1.1432  2.7956
 5673SOL     OW21060   1.763   4.286   5.193  0.5837  0.0478 -0.2175
 5673SOL    HW121061   1.833   4.327   5.143  1.1694 -0.0127  0.5219
 5673SOL    HW221062   1.693   4.351   5.197  1.1727  0.6598  0.2415
 5674SOL     OW21063   9.899   8.333   2.007 -0.1929  0.0323 -0.3648
 5674SOL    HW121064   9.930   8.243   2.010 -0.7045 -0.3363 -3.2229
 5674SOL    HW221065   9.888   8.352   1.914  0.6851  3.3415  0.0490
 5675SOL     OW21066   3.334   7.918   8.884 -0.5541  0.1671  0.0455
 5675SOL    HW121067   3.243   7.889   8.872 -0.9141  1.8226 -1.7002
 5675SOL    HW221068   3.381   7.839   8.911 -2.4261 -0.7978  0.6824
 5676SOL     OW21069   4.678   0.597   8.915  0.5697  0.2745 -0.6741
 5676SOL    HW121070   4.594   0.603   8.869 -0.0847  2.3719  0.6499
 5676SOL    HW221071   4.701   0.687   8.936  1.5801 -0.4467  1.7246
 5677SOL     OW21072   1.596   2.250   9.197  0.2217  0.6117  0.1604
 5677SOL    HW121073   1.592   2.273   9.290 -0.5638 -0.4652  0.4077
 5677SOL    HW221074   1.609   2.334   9.153  3.5672  0.8900  1.3741
 5678SOL     OW21075   9.409   1.662   7.933 -0.1657 -0.4791  0.5190
 5678SOL    HW121076   9.413   1.572   7.900  3.5558 -0.3247  0.1531
 5678SOL    HW221077   9.473   1.709   7.880 -2.3165  2.5771  0.4052
 5679SOL     OW21078   7.496   0.433   2.624  0.4898 -0.1133 -0.2146
 5679SOL    HW121079   7.573   0.460   2.674  0.3384  1.5459 -0.8193
 5679SOL    HW221080   7.528   0.365   2.565  1.4751  0.4515 -0.3523
 5680SOL     OW21081   2.842   1.377   7.801  0.1665  0.3370  0.2338
 5680SOL    HW121082   2.747   1.381   7.785  0.1864  2.0483  0.2909
 5680SOL    HW221083   2.875   1.458   7.762  1.3987  0.4534  1.4623
 5681SOL     OW21084   1.140   4.230   9.340  0.2518  0.3313  0.1532
 5681SOL    HW121085   1.152   4.313   9.292 -0.6884 -0.4974 -1.6107
 5681SOL    HW221086   1.064   4.246   9.396 -0.0595  0.6054 -0.3387
 5682SOL     OW21087   2.440   4.814   2.193 -0.3144 -0.2813  0.4617
 5682SOL    HW121088   2.522   4.825   2.146 -0.0460 -2.0000  0.4527
 5682SOL    HW221089   2.395   4.742   2.149 -0.8211 -0.8256  1.7828
 5683SOL     OW21090   8.628   4.443   6.687  0.4839 -0.3922 -0.2833
 5683SOL    HW121091   8.705   4.490   6.655  1.5313 -2.1338 -0.4155
 5683SOL    HW221092   8.570   4.438   6.610  1.6428 -1.8306 -1.1120
 5684SOL     OW21093   7.478   1.918   7.851  0.1496  0.1123  0.1931
 5684SOL    HW121094   7.459   1.864   7.928  0.7700 -0.5322 -0.0995
 5684SOL    HW221095   7.569   1.945   7.863 -0.6107  2.5586  1.2111
 5685SOL     OW21096   9.732   1.416   8.367 -0.0986  0.1519 -0.2689
 5685SOL    HW121097   9.727   1.323   8.386 -1.4240  0.1875 -0.3583
 5685SOL    HW221098   9.720   1.458   8.452  0.1073  0.2486 -0.2866
 5686SOL     OW21099   0.329   5.012   3.406 -0.6456 -0.2693 -0.2388
 5686SOL    HW121100   0.271   4.940   3.430 -1.6216  0.3476 -0.7224
 5686SOL    HW221101   0.271   5.081   3.374  0.4374 -0.6564 -3.3983
 5687SOL     OW21102   0.613   1.509   1.573 -0.5238  0.8433 -0.2853
 5687SOL    HW121103   0.595   1.473   1.486  1.7177  0.0175 -0.4631
 5687SOL    HW221104   0.567   1.593   1.575 -1.1499  0.5643 -2.0053
 5688SOL     OW21105   3.833  10.123   9.013 -0.1007  0.3051 -0.8794
 5688SOL    HW121106   3.898  10.165   9.069  0.0747 -0.4764 -0.4811
 5688SOL    HW221107   3.749  10.160   9.041  0.1147  0.9191 -1.0335
 5689SOL     OW21108   4.622   0.368   2.507  0.8353 -0.7489 -0.8907
 5689SOL    HW121109   4.695   0.419   2.543  0.6295 -1.0309 -0.0382
 5689SOL    HW221110   4.575   0.429   2.451 -1.3601  1.1135  2.6549
 5690SOL     OW21111   3.260   2.208   3.410 -0.0971 -0.0937 -0.7186
 5690SOL    HW121112   3.345   2.251   3.393 -0.5642  1.4584  0.6391
 5690SOL    HW221113   3.282   2.116   3.421  1.2144  0.0505 -1.7906
 5691SOL     OW21114   8.887   6.018   1.956  0.3662  0.2704  0.7141
 5691SOL    HW121115   8.972   5.995   1.994  1.5345  0.3791 -1.6652
 5691SOL    HW221116   8.827   5.951   1.989  1.9804 -1.4631  0.2623
 5692SOL     OW21117   4.923   3.989   9.847 -0.3811  0.4203  0.2721
 5692SOL    HW121118   4.952   3.935   9.920 -1.4598  0.6035  0.8615
 5692SOL    HW221119   4.845   3.945   9.813  2.5069 -2.3053 -3.8392
 5693SOL     OW21120   9.553   3.066   6.055 -0.1862 -0.5163 -0.3211
 5693SOL    HW121121   9.595   3.118   6.124 -0.1002 -0.1709 -0.6287
 5693SOL    HW221122   9.489   3.126   6.016 -1.2958 -1.1787  0.4369
 5694SOL     OW21123   9.179   6.035   8.482  0.2727 -0.1206  0.0547
 5694SOL    HW121124   9.171   5.943   8.506  1.7887 -0.0373  1.0330
 5694SOL    HW221125   9.233   6.034   8.403 -1.5748 -0.1698 -1.2591
 5695SOL     OW21126  10.275   6.414   3.194  0.2897  0.5799 -0.4092
 5695SOL    HW121127  10.333   6.373   3.257  0.7030  1.4431 -0.2189
 5695SOL    HW221128  10.296   6.371   3.111  0.4838  0.1836 -0.1588
 5696SOL     OW21129   1.647   7.767   4.699  0.2065 -0.1621  0.0907
 5696SOL    HW121130   1.715   7.745   4.762  0.4616  0.1623 -0.0668
 5696SOL    HW221131   1.570   7.785   4.752  0.3614 -0.1042  0.2956
 5697SOL     OW21132   6.955   7.879   2.735  0.2845  0.2607 -0.1721
 5697SOL    HW121133   6.966   7.899   2.642  2.1441 -2.2545 -0.6029
 5697SOL    HW221134   6.885   7.814   2.738 -0.8221  1.4553  0.3860
 5698SOL     OW21135   6.101   1.317   5.059  0.2713 -0.0151  0.3063
 5698SOL    HW121136   6.117   1.340   5.150  1.2628  1.5048 -0.2154
 5698SOL    HW221137   6.134   1.227   5.050 -0.1274 -0.2984  1.4964
 5699SOL     OW21138   9.320   0.340   0.224 -0.0554  0.6226  0.1434
 5699SOL    HW121139   9.294   0.398   0.296  2.8268  1.4593  0.6718
 5699SOL    HW221140   9.299   0.389   0.145  2.9104  2.8857  0.5754
 5700SOL     OW21141   3.988   0.522   9.007 -0.2493 -0.7299 -0.0168
 5700SOL    HW121142   3.966   0.613   8.986 -0.8405 -1.0643 -0.8999
 5700SOL    HW221143   4.062   0.502   8.950 -0.7156 -1.0794 -0.5171
 5701SOL     OW21144   7.893  10.280   5.212  0.5103 -0.1974 -0.0112
 5701SOL    HW121145   7.965  10.217   5.222 -0.3606 -1.1981  0.1794
 5701SOL    HW221146   7.894  10.302   5.119  0.9460 -0.3487 -0.0466
 5702SOL     OW21147   7.906   4.043   7.034  0.5381 -0.1286 -0.5589
 5702SOL    HW121148   7.956   3.985   6.977 -0.6438 -0.9036 -0.8397
 5702SOL    HW221149   7.852   3.984   7.086  0.7838  0.6310  0.5815
 5703SOL     OW21150   9.487   8.750   5.987  0.2813 -0.2355 -0.4020
 5703SOL    HW121151   9.516   8.840   5.968 -1.5632  0.5018  0.0012
 5703SOL    HW221152   9.396   8.760   6.016  0.5642 -2.0880  1.3186
 5704SOL     OW21153   9.427   1.234   8.419 -0.5157  0.0118  0.0915
 5704SOL    HW121154   9.403   1.145   8.393  0.1377  0.3600 -1.9035
 5704SOL    HW221155   9.517   1.245   8.388 -1.3692  2.1192 -1.9866
 5705SOL     OW21156   9.973   7.649  10.198 -0.0749  0.0198  0.5115
 5705SOL    HW121157   9.986   7.618  10.287 -0.0182 -0.2268  0.4181
 5705SOL    HW221158  10.041   7.715  10.185 -0.5233  0.5654  0.8865
 5706SOL     OW21159   7.462   9.533   4.981  0.1821 -0.0545 -0.0918
 5706SOL    HW121160   7.431   9.491   4.900  1.9409  0.8871 -1.3077
 5706SOL    HW221161   7.532   9.476   5.012 -0.7537 -0.6321  1.0489
 5707SOL     OW21162   9.572   3.068   8.666 -0.7150 -0.7038  0.0216
 5707SOL    HW121163   9.658   3.098   8.637 -0.4071 -1.1932  0.4370
 5707SOL    HW221164   9.577   2.973   8.665 -1.2294 -0.7379  0.1252
 5708SOL     OW21165   7.397   9.593   5.388  0.2835 -0.8845  0.1342
 5708SOL    HW121166   7.450   9.520   5.420  1.8243 -0.5673 -1.5196
 5708SOL    HW221167   7.357   9.561   5.307 -0.7277 -0.5684  0.4984
 5709SOL     OW21168   6.984   0.540   2.194  0.3749  0.5164  0.1045
 5709SOL    HW121169   6.939   0.624   2.201 -1.6878 -0.4637 -0.4601
 5709SOL    HW221170   6.934   0.491   2.129  1.1682 -1.3490  0.8132
 5710SOL     OW21171  10.255   5.358   3.079 -0.4151  0.5887  0.0555
 5710SOL    HW121172  10.249   5.436   3.133  0.4300  0.8374 -0.1908
 5710SOL    HW221173  10.311   5.384   3.006  0.1742 -0.3435  0.1571
 5711SOL     OW21174   2.109   8.974   4.588  0.0162 -0.3553 -0.0978
 5711SOL    HW121175   2.197   8.977   4.551 -0.3600 -0.7115 -1.0521
 5711SOL    HW221176   2.061   9.044   4.543  0.9162  2.9141  3.5346
 5712SOL     OW21177   7.043   5.968   9.554  0.3892  0.4746 -0.7230
 5712SOL    HW121178   7.085   5.950   9.639 -0.9363 -1.4249 -0.4001
 5712SOL    HW221179   7.107   5.937   9.489 -0.0832 -1.6388 -0.2646
 5713SOL     OW21180   7.927   9.618   4.408 -0.0263 -0.4527  0.5694
 5713SOL    HW121181   8.021   9.630   4.408 -0.0247 -0.3371  1.6127
 5713SOL    HW221182   7.904   9.601   4.317  0.9742 -0.3043  0.2846
 5714SOL     OW21183   3.120   5.268   5.167 -0.2513 -0.1972 -0.2092
 5714SOL    HW121184   3.177   5.291   5.094  1.2405 -0.4939  0.8079
 5714SOL    HW221185   3.095   5.178   5.151  5.3685 -2.7979  2.6285
 5715SOL     OW21186   4.526   9.260   1.591 -0.4862 -0.0537  0.3921
 5715SOL    HW121187   4.598   9.263   1.528  0.1651 -2.2160  0.9385
 5715SOL    HW221188   4.547   9.328   1.655  0.0654  0.6102 -0.4772
 5716SOL     OW21189   7.873   9.383   9.353  0.1871  0.3384 -0.6423
 5716SOL    HW121190   7.863   9.404   9.260 -1.2225  0.3347 -0.5072
 5716SOL    HW221191   7.893   9.290   9.355  0.5114  0.3961 -0.9402
 5717SOL     OW21192   3.305   4.436   2.672 -0.4283  0.2471  0.0297
 5717SOL    HW121193   3.257   4.504   2.719  0.6472 -0.1001  1.6846
 5717SOL    HW221194   3.351   4.387   2.740  0.1845 -1.0652 -1.2825
 5718SOL     OW21195   0.190   5.019   9.847  0.7680  0.1415  0.2787
 5718SOL    HW121196   0.236   4.971   9.916  1.2055  2.2839  1.5792
 5718SOL    HW221197   0.251   5.022   9.774  0.8057 -1.0457  0.2418
 5719SOL     OW21198   9.318   8.334   5.169  0.0717  0.0389  0.2573
 5719SOL    HW121199   9.343   8.409   5.223  0.3178 -0.1695  0.4427
 5719SOL    HW221200   9.231   8.310   5.200 -0.1656  0.4824 -0.0664
 5720SOL     OW21201   3.578   1.024   5.508 -0.1176 -0.2458 -0.1425
 5720SOL    HW121202   3.488   0.992   5.505  0.1094 -1.0478  0.9954
 5720SOL    HW221203   3.625   0.959   5.560  0.4622  1.6456  1.8476
 5721SOL     OW21204   0.958   5.301   6.613 -0.1500 -0.4692  0.3315
 5721SOL    HW121205   0.942   5.301   6.518 -1.7839 -1.4944  0.5711
 5721SOL    HW221206   0.871   5.295   6.652  0.5544 -1.1455  1.8849
 5722SOL     OW21207   7.096   7.592   1.443 -1.0355 -0.0716  0.5524
 5722SOL    HW121208   7.145   7.578   1.524  0.1498 -2.2462 -0.4693
 5722SOL    HW221209   7.068   7.684   1.448 -0.7429 -0.0342  3.2452
 5723SOL     OW21210   3.947   3.741  10.129  0.0176 -0.6653 -0.6309
 5723SOL    HW121211   3.979   3.787  10.051  0.4649  0.2323  0.0658
 5723SOL    HW221212   3.855   3.724  10.111 -0.1689  0.5486 -0.8887
 5724SOL     OW21213   2.870   8.490   1.813 -0.2284 -0.5594  0.4242
 5724SOL    HW121214   2.878   8.582   1.837 -1.3385  0.5443 -2.9059
 5724SOL    HW221215   2.960   8.462   1.795 -0.0244  0.3547 -0.0184
 5725SOL     OW21216   9.534   9.013   2.278 -0.5261 -0.5293 -0.3434
 5725SOL    HW121217   9.446   8.991   2.310 -1.7125  0.2946 -2.7880
 5725SOL    HW221218   9.535   9.109   2.274  1.1737 -0.4159  1.2780
 5726SOL     OW21219   5.999   0.333   3.699 -0.2248 -0.7503 -0.6344
 5726SOL    HW121220   5.963   0.409   3.744  2.6956  1.4329 -1.6641
 5726SOL    HW221221   5.952   0.331   3.615 -2.2685 -1.8883  0.4677
 5727SOL     OW21222   7.000   6.028   5.153  0.4679  0.1386 -0.0301
 5727SOL    HW121223   6.999   6.000   5.061  1.1284  0.4302 -0.1317
 5727SOL    HW221224   7.020   6.121   5.149  2.3900 -0.2259  0.4863
 5728SOL     OW21225   3.174   3.304   0.368 -0.0729 -0.1157  0.3635
 5728SOL    HW121226   3.163   3.396   0.344  0.9075  0.6418  2.5316
 5728SOL    HW221227   3.126   3.295   0.450  1.7595 -0.9045  1.4062
 5729SOL     OW21228   4.071   1.725   6.035  0.1206 -0.3513 -0.5114
 5729SOL    HW121229   3.995   1.714   6.092 -1.3642 -0.1226 -2.3249
 5729SOL    HW221230   4.062   1.814   6.000  1.1058 -0.3979 -0.9193
 5730SOL     OW21231   7.588   2.645   7.496  0.6733  0.0886  0.0135
 5730SOL    HW121232   7.641   2.594   7.557 -0.6936 -1.0461  0.2995
 5730SOL    HW221233   7.529   2.581   7.456 -0.1743  1.2340 -0.6290
 5731SOL     OW21234   4.321   4.982   1.381 -0.2391 -0.2164  0.1137
 5731SOL    HW121235   4.293   5.074   1.383 -0.4319 -0.2790  0.3846
 5731SOL    HW221236   4.390   4.979   1.314  0.4994  0.3429  0.8213
 5732SOL     OW21237  10.018   4.872   8.626  0.0792 -0.3101 -0.3274
 5732SOL    HW121238   9.929   4.837   8.628 -0.6862  1.5185  1.6192
 5732SOL    HW221239  10.010   4.956   8.581  1.1587 -0.8623 -1.5977
 5733SOL     OW21240   9.067   1.819   1.778  0.2580  0.2033 -0.1708
 5733SOL    HW121241   9.096   1.875   1.850 -0.8694 -0.1548  0.5841
 5733SOL    HW221242   9.090   1.730   1.807  1.9427  0.2065 -1.3117
 5734SOL     OW21243   1.778   7.270   3.233 -0.1259 -0.3769  0.0509
 5734SOL    HW121244   1.802   7.298   3.145 -0.0959 -0.6691 -0.0343
 5734SOL    HW221245   1.842   7.313   3.290  0.2663 -0.7174 -0.1283
 5735SOL     OW21246   6.184   7.592   3.151  0.7573 -0.3627  0.1607
 5735SOL    HW121247   6.202   7.679   3.185 -0.0270  0.1427 -0.7025
 5735SOL    HW221248   6.116   7.604   3.085  2.4210 -1.2432 -1.8474
 5736SOL     OW21249   3.827   1.208   0.302  0.5481 -0.0348  0.0190
 5736SOL    HW121250   3.816   1.115   0.322  0.4914  0.0885  0.5723
 5736SOL    HW221251   3.863   1.245   0.383 -1.5377  0.8482  0.5963
 5737SOL     OW21252   7.364   9.838   3.834 -0.3061 -0.1257  0.1550
 5737SOL    HW121253   7.376   9.932   3.848 -0.1560  0.2184 -1.9624
 5737SOL    HW221254   7.433   9.814   3.772 -0.2151 -1.6973  0.8145
 5738SOL     OW21255   5.940   9.138   3.064 -0.0919 -0.5919  0.1750
 5738SOL    HW121256   5.848   9.121   3.041  0.1454 -2.7400  0.5744
 5738SOL    HW221257   5.989   9.069   3.020  1.1746 -0.3651  1.1705
 5739SOL     OW21258   8.247   2.597   9.815 -0.5518 -0.3637  0.1902
 5739SOL    HW121259   8.229   2.685   9.848 -0.5113 -0.8507  1.5726
 5739SOL    HW221260   8.327   2.570   9.860  0.9484 -0.1547 -2.1563
 5740SOL     OW21261   7.940   7.724   9.680 -0.1515  0.2003  0.0346
 5740SOL    HW121262   8.024   7.758   9.651  0.2752  0.0070  1.0227
 5740SOL    HW221263   7.906   7.792   9.739 -0.2712 -0.1189  0.3386
 5741SOL     OW21264   0.373   9.210   5.290 -0.2703 -0.3331 -0.1943
 5741SOL    HW121265   0.361   9.287   5.233  2.0237 -0.5122 -1.0387
 5741SOL    HW221266   0.414   9.246   5.369 -2.9161 -0.1720  1.1899
 5742SOL     OW21267   0.262   2.806   1.983 -0.5098  0.4499  0.1440
 5742SOL    HW121268   0.322   2.766   2.046 -0.0984 -0.4466 -0.7935
 5742SOL    HW221269   0.267   2.900   2.002  1.8121  0.5006 -0.3963
 5743SOL     OW21270   5.934   8.507   9.274 -0.1142  0.4753  0.1214
 5743SOL    HW121271   5.950   8.430   9.220  0.0786 -0.3494  1.3060
 5743SOL    HW221272   6.021   8.536   9.301 -0.0870  2.0217 -1.5055
 5744SOL     OW21273   7.852   8.957   1.750  0.0312  0.1636  0.2650
 5744SOL    HW121274   7.840   8.935   1.657  2.5850 -0.6263  0.0278
 5744SOL    HW221275   7.825   8.878   1.797  1.3237 -0.4856 -0.0343
 5745SOL     OW21276   7.352   9.763   9.431  0.3123 -0.4206 -0.1535
 5745SOL    HW121277   7.275   9.765   9.488  0.9963  1.4698  0.8017
 5745SOL    HW221278   7.417   9.816   9.477  1.4951 -0.2435 -1.9231
 5746SOL     OW21279   1.528   0.676   1.665 -0.0191  0.0108  0.0509
 5746SOL    HW121280   1.462   0.708   1.605  0.3493  2.5324  0.8664
 5746SOL    HW221281   1.610   0.681   1.616 -0.2839 -2.6892 -0.8109
 5747SOL     OW21282   7.906   1.826   9.486  0.6817 -0.0017 -0.0268
 5747SOL    HW121283   7.895   1.888   9.415  0.4732 -0.5014 -0.4378
 5747SOL    HW221284   7.914   1.741   9.443  1.3973 -0.2184  0.5007
 5748SOL     OW21285   9.934   9.451   2.396  0.2019 -0.0038  0.1253
 5748SOL    HW121286   9.883   9.453   2.315  1.5584 -2.2186 -0.8602
 5748SOL    HW221287   9.879   9.402   2.458  0.3715 -0.7901 -0.3488
 5749SOL     OW21288   7.286   3.371   7.319 -0.3271 -0.2483 -0.4720
 5749SOL    HW121289   7.376   3.395   7.340 -0.5302  0.2662 -0.1742
 5749SOL    HW221290   7.293   3.284   7.279  0.0996 -1.2127  1.5630
 5750SOL     OW21291   2.669   2.500   2.686  0.8623 -0.1614 -0.0300
 5750SOL    HW121292   2.702   2.430   2.742 -3.3044 -0.5628  2.3558
 5750SOL    HW221293   2.618   2.455   2.618 -0.2201  0.4473  0.3506
 5751SOL     OW21294   9.624  10.220   6.989  0.2421 -0.3986  0.6051
 5751SOL    HW121295   9.553  10.183   6.936  0.4031 -1.7277  1.2933
 5751SOL    HW221296   9.701  10.169   6.965  0.4090 -0.7311  1.7862
 5752SOL     OW21297   5.179   3.415   0.551  0.2450 -0.1886 -0.5174
 5752SOL    HW121298   5.243   3.467   0.598  3.6321 -2.4823 -2.1843
 5752SOL    HW221299   5.137   3.361   0.618 -0.2772  1.5722  0.6407
 5753SOL     OW21300   1.655   4.525   2.112 -0.3850  0.4117  0.1762
 5753SOL    HW121301   1.583   4.482   2.159 -0.3121  0.9419  0.8000
 5753SOL    HW221302   1.652   4.489   2.024 -0.8956 -0.1851  0.4326
 5754SOL     OW21303   6.520  10.091   4.107  0.1884  0.0783 -0.3344
 5754SOL    HW121304   6.490  10.045   4.185  0.2681  0.1778 -0.2445
 5754SOL    HW221305   6.584  10.033   4.067 -0.6303 -0.4448 -0.9071
 5755SOL     OW21306   1.854   0.693   0.542  0.5633  0.2658  0.4632
 5755SOL    HW121307   1.932   0.663   0.495 -0.8197 -1.0472 -1.0584
 5755SOL    HW221308   1.838   0.625   0.608 -1.2078 -1.2759 -1.4529
 5756SOL     OW21309   9.325   5.555   0.698  0.3469 -0.0836 -0.2066
 5756SOL    HW121310   9.391   5.510   0.646  1.2104  0.2077  0.6020
 5756SOL    HW221311   9.368   5.572   0.782 -1.5713 -2.1866  1.3369
 5757SOL     OW21312   6.324   7.127   8.772 -0.0412 -0.1407  0.2901
 5757SOL    HW121313   6.283   7.133   8.686  0.8971 -1.3340 -0.2644
 5757SOL    HW221314   6.396   7.190   8.769  1.2856 -1.6281 -0.5855
 5758SOL     OW21315   7.280   1.949   2.078 -0.2221 -0.1694 -0.2321
 5758SOL    HW121316   7.332   1.882   2.034  0.8025 -1.0147  2.1055
 5758SOL    HW221317   7.193   1.910   2.086 -0.8576  0.5840 -2.6825
 5759SOL     OW21318   4.820   1.907   0.523 -0.8034 -0.8155 -0.3779
 5759SOL    HW121319   4.891   1.877   0.580  0.3306  2.1994  0.0005
 5759SOL    HW221320   4.764   1.959   0.580 -0.6145  0.8134 -1.5853
 5760SOL     OW21321   0.275   8.884   0.749 -0.0066  0.0766  0.6529
 5760SOL    HW121322   0.240   8.826   0.816 -1.5157 -1.1534 -1.0953
 5760SOL    HW221323   0.369   8.866   0.748 -0.3971 -2.2477  0.3165
 5761SOL     OW21324   3.171   4.371   6.916  0.4268  0.5116 -0.3947
 5761SOL    HW121325   3.185   4.276   6.916 -0.8668  0.2648  1.6196
 5761SOL    HW221326   3.260   4.407   6.917  1.0865 -0.8095  3.0476
 5762SOL     OW21327   3.102   1.086   3.515 -0.5723  0.0222  0.6087
 5762SOL    HW121328   3.149   1.031   3.452 -1.7555 -0.7446  0.3692
 5762SOL    HW221329   3.172   1.128   3.565  0.3874 -1.4463  0.5951
 5763SOL     OW21330   6.363   6.281   3.171  0.5925  0.4892  0.2270
 5763SOL    HW121331   6.291   6.304   3.231  0.6639 -1.4458  1.1160
 5763SOL    HW221332   6.350   6.188   3.153  2.8511  0.0976  0.3694
 5764SOL     OW21333   6.073   9.926   3.075  0.1993  0.4554 -0.6417
 5764SOL    HW121334   6.146   9.976   3.110  0.7497 -1.2193  0.7221
 5764SOL    HW221335   5.998   9.986   3.082  0.6377  0.8329  1.7964
 5765SOL     OW21336   9.767   1.445   0.499  0.3328  0.5098 -0.1677
 5765SOL    HW121337   9.722   1.378   0.447  0.2721 -0.1093  0.6514
 5765SOL    HW221338   9.801   1.507   0.435  0.9067 -0.6265 -0.9954
 5766SOL     OW21339   2.938   8.773   5.482 -0.9388 -0.0583  0.0695
 5766SOL    HW121340   2.927   8.863   5.452  2.1163  0.5127  0.2855
 5766SOL    HW221341   3.000   8.734   5.420  0.8841 -0.6984  2.1575
 5767SOL     OW21342   6.349   7.557   4.188 -0.3083  0.3218 -0.6558
 5767SOL    HW121343   6.392   7.639   4.213  1.8134 -1.1543  0.8643
 5767SOL    HW221344   6.338   7.509   4.270 -2.0676 -0.7066 -1.4324
 5768SOL     OW21345   6.060   1.209   0.319 -0.1297  0.8141 -0.2897
 5768SOL    HW121346   5.989   1.216   0.383  0.9177  0.6584  0.9340
 5768SOL    HW221347   6.040   1.130   0.269 -1.7972  1.7788 -1.2586
 5769SOL     OW21348   8.603   4.791   0.949 -0.4421 -0.1935  0.4629
 5769SOL    HW121349   8.677   4.742   0.914 -0.6475  0.5954 -1.1351
 5769SOL    HW221350   8.641   4.873   0.981 -0.8133  1.1546 -2.2863
 5770SOL     OW21351   4.071   1.533   3.648 -0.0271  0.1953 -0.4790
 5770SOL    HW121352   4.135   1.500   3.585  1.1926 -2.9540  2.0864
 5770SOL    HW221353   3.994   1.479   3.635 -0.4218  0.7283 -0.4035
 5771SOL     OW21354   1.079   7.047   1.184 -0.1674  0.2983 -0.3424
 5771SOL    HW121355   1.174   7.036   1.194  0.0234  1.6135 -0.4913
 5771SOL    HW221356   1.069   7.083   1.096 -0.9788 -1.5234 -1.0428
 5772SOL     OW21357   8.377   8.524   9.970  0.6321  0.1005  0.2689
 5772SOL    HW121358   8.328   8.506  10.050 -0.5103  0.7931 -0.2623
 5772SOL    HW221359   8.315   8.507   9.899  1.4802 -0.0166 -0.4622
 5773SOL     OW21360   6.222   8.224   2.585  0.0108 -0.1658 -0.1603
 5773SOL    HW121361   6.143   8.176   2.561 -0.3138  0.2590  0.0426
 5773SOL    HW221362   6.190   8.307   2.621  0.5808  0.9874 -2.1619
 5774SOL     OW21363   7.393   4.319   4.286 -0.5803  0.4710 -0.4643
 5774SOL    HW121364   7.344   4.269   4.221 -0.0516  0.7692 -1.1033
 5774SOL    HW221365   7.446   4.253   4.331 -1.0181  0.2496 -0.2663
 5775SOL     OW21366   7.766   3.546   2.108  0.1889 -0.1252  0.4109
 5775SOL    HW121367   7.818   3.479   2.152  0.3137 -0.3044 -0.0057
 5775SOL    HW221368   7.755   3.615   2.174  0.2468 -0.4566  0.7673
 5776SOL     OW21369   0.692   9.415   0.972  0.1936 -0.0640 -0.2258
 5776SOL    HW121370   0.608   9.373   0.987  0.8665 -1.2363  0.3564
 5776SOL    HW221371   0.756   9.359   1.015  1.4736 -0.0708 -1.9870
 5777SOL     OW21372   9.084   2.387   4.862 -0.4054 -0.3913 -0.1255
 5777SOL    HW121373   9.177   2.377   4.881 -0.3890  1.8782  1.3791
 5777SOL    HW221374   9.039   2.360   4.941 -0.8289  1.0688  0.1745
 5778SOL     OW21375   7.252   5.674   5.334 -0.2287  0.3277 -0.6720
 5778SOL    HW121376   7.158   5.664   5.349 -0.4062 -0.9185 -2.3111
 5778SOL    HW221377   7.260   5.755   5.284 -0.2269  1.3033  0.8387
 5779SOL     OW21378   8.017   6.318   4.550  0.1401 -0.1344  0.9690
 5779SOL    HW121379   8.096   6.369   4.570 -0.0963  0.8580 -0.4020
 5779SOL    HW221380   8.040   6.228   4.570  2.7920 -0.3602 -2.2593
 5780SOL     OW21381   6.768   0.073   6.264  0.1584  0.0537  0.0728
 5780SOL    HW121382   6.686   0.024   6.274 -1.4017  2.4291 -0.3891
 5780SOL    HW221383   6.787   0.070   6.171  0.7394 -0.6650  0.2054
 5781SOL     OW21384   3.894   6.261   2.640 -0.3827 -0.6227 -0.8163
 5781SOL    HW121385   3.820   6.300   2.687  2.4798  2.9304  1.2316
 5781SOL    HW221386   3.935   6.203   2.704  0.8801  0.6201 -0.4635
 5782SOL     OW21387   8.003   5.780   4.529  0.4301 -0.3775  0.2060
 5782SOL    HW121388   8.082   5.753   4.482 -0.5892  0.5969 -2.2110
 5782SOL    HW221389   7.931   5.740   4.480 -0.7327  1.2629  0.5085
 5783SOL     OW21390   7.233   4.924   6.299 -0.3757 -0.1654 -0.6342
 5783SOL    HW121391   7.317   4.967   6.284 -1.1912  1.4251 -0.8810
 5783SOL    HW221392   7.233   4.848   6.240  1.0530 -0.4670 -0.2772
 5784SOL     OW21393   0.749   9.136   5.435  0.3151  0.4009  0.0644
 5784SOL    HW121394   0.843   9.151   5.424  0.5047 -1.0896 -0.5425
 5784SOL    HW221395   0.735   9.140   5.530  1.5140 -1.9908  0.4253
 5785SOL     OW21396   3.834   1.991   4.714  0.2645 -0.4539  0.4638
 5785SOL    HW121397   3.753   2.009   4.666  0.2741 -1.2123  0.1531
 5785SOL    HW221398   3.871   1.914   4.672  1.6003  0.3743  0.0369
 5786SOL     OW21399   5.509   4.802   7.055 -0.0367  0.1378  0.2280
 5786SOL    HW121400   5.521   4.890   7.091  0.5878  0.0370  0.2762
 5786SOL    HW221401   5.557   4.745   7.115  1.8452  0.0733 -1.2773
 5787SOL     OW21402   0.749   2.399   3.823 -0.4191 -0.2807  0.4469
 5787SOL    HW121403   0.701   2.386   3.904 -0.5445  1.1931  0.6442
 5787SOL    HW221404   0.684   2.386   3.754 -0.1372 -2.2990  0.5134
 5788SOL     OW21405   7.908   1.357   4.671 -0.3316 -0.1504  0.2260
 5788SOL    HW121406   7.982   1.417   4.656  1.0571 -1.6299  0.9393
 5788SOL    HW221407   7.904   1.348   4.766 -1.5239 -0.0086  0.1978
 5789SOL     OW21408   6.217   9.661   4.223  0.5711 -0.3276  0.1790
 5789SOL    HW121409   6.210   9.567   4.207  1.2386 -0.3586  0.0411
 5789SOL    HW221410   6.231   9.700   4.137  0.3462 -0.1041  0.2402
 5790SOL     OW21411   9.170   1.360   9.219  1.0317  0.3337 -1.0373
 5790SOL    HW121412   9.159   1.455   9.225  0.1055  0.1516  1.5648
 5790SOL    HW221413   9.259   1.345   9.252  1.8352  0.3632 -3.0601
 5791SOL     OW21414   3.285   7.865   0.416 -0.5073  0.1473  0.4390
 5791SOL    HW121415   3.279   7.870   0.511 -0.6488  3.7266  0.3930
 5791SOL    HW221416   3.204   7.821   0.389 -0.2394 -1.3664  1.9251
 5792SOL     OW21417   9.293   8.654   7.491 -0.4261  0.3575  0.4890
 5792SOL    HW121418   9.327   8.744   7.494 -0.5631  0.4196  0.2324
 5792SOL    HW221419   9.371   8.599   7.489 -0.3214  0.5153 -0.6455
 5793SOL     OW21420   2.393   7.030   9.662 -0.0414 -0.8424  0.1992
 5793SOL    HW121421   2.314   7.079   9.641  1.6951  2.3674  0.4562
 5793SOL    HW221422   2.446   7.035   9.582  1.4772  0.6198  1.2262
 5794SOL     OW21423   2.690   1.388   1.841 -0.0368  0.2426 -0.9504
 5794SOL    HW121424   2.621   1.359   1.901  0.4760  1.1546  0.1350
 5794SOL    HW221425   2.700   1.317   1.778 -2.9974  0.7124 -2.0697
 5795SOL     OW21426   9.508   1.474   1.048  0.3730 -0.2999  0.2043
 5795SOL    HW121427   9.415   1.481   1.071  0.8608  1.3590  1.9481
 5795SOL    HW221428   9.525   1.380   1.046 -1.5541 -0.6805 -1.2019
 5796SOL     OW21429   9.528   2.782   2.937 -0.2726 -0.0286 -0.3892
 5796SOL    HW121430   9.499   2.849   2.876 -1.8421 -0.9900 -0.7685
 5796SOL    HW221431   9.546   2.829   3.018 -0.1527  0.9943 -0.9997
 5797SOL     OW21432   7.975   3.158   7.075  0.2210 -1.0228  0.0397
 5797SOL    HW121433   8.016   3.208   7.005 -1.1392  0.2491  0.1058
 5797SOL    HW221434   8.040   3.092   7.098  2.5560  1.3476  0.7015
 5798SOL     OW21435   2.922   5.710   6.626  0.2604  0.2393  0.3251
 5798SOL    HW121436   2.975   5.774   6.579  0.4916 -1.0125 -1.1925
 5798SOL    HW221437   2.984   5.661   6.679  0.2846  0.3043  0.3576
 5799SOL     OW21438   6.542   3.988   4.387 -0.7719 -0.3183 -0.2280
 5799SOL    HW121439   6.588   3.918   4.434  2.1068  0.0715 -2.1780
 5799SOL    HW221440   6.514   4.049   4.455  2.7962  0.0187  1.1338
 5800SOL     OW21441   6.584   8.629   2.526  0.2546  0.3770 -0.0210
 5800SOL    HW121442   6.639   8.703   2.502  1.5594  0.0059  1.6259
 5800SOL    HW221443   6.573   8.580   2.445  0.3510  1.7131 -0.8788
 5801SOL     OW21444   6.960   9.302   1.609 -0.3295 -0.1802  0.3629
 5801SOL    HW121445   6.866   9.286   1.604 -1.0442  2.2448  3.4811
 5801SOL    HW221446   6.997   9.218   1.636 -1.7894 -0.7554  0.6753
 5802SOL     OW21447   1.434   7.626   8.054 -0.7783  0.1855  0.1787
 5802SOL    HW121448   1.382   7.669   7.985 -1.3814 -1.1828 -0.2565
 5802SOL    HW221449   1.417   7.533   8.042  1.7539 -0.3322  0.0747
 5803SOL     OW21450   6.048   9.043   9.795 -0.9633  0.1703  0.4020
 5803SOL    HW121451   6.014   9.085   9.874  1.2349  1.6581  0.6407
 5803SOL    HW221452   6.063   9.115   9.734 -0.6280 -0.7173 -0.5950
 5804SOL     OW21453   8.929   2.615   8.498 -0.5256 -0.4871 -0.0196
 5804SOL    HW121454   9.022   2.597   8.480 -0.5404  1.0375 -2.0929
 5804SOL    HW221455   8.897   2.537   8.542  1.7667 -1.0051  0.8667
 5805SOL     OW21456   2.606   2.575   9.430  0.1132 -0.3464 -0.5169
 5805SOL    HW121457   2.519   2.592   9.393 -1.3290 -0.7513  2.4390
 5805SOL    HW221458   2.634   2.659   9.466 -0.1758 -0.7314  0.6540
 5806SOL     OW21459   6.283   8.946   7.609 -0.1973  0.0023  0.4045
 5806SOL    HW121460   6.336   9.023   7.628 -2.2003  1.3995  0.7487
 5806SOL    HW221461   6.319   8.910   7.529  3.1987 -1.0274  2.1935
 5807SOL     OW21462   0.624   7.392   4.181  0.0730  0.5173 -0.4557
 5807SOL    HW121463   0.656   7.432   4.262  1.7246  1.1278 -1.3394
 5807SOL    HW221464   0.529   7.387   4.191  0.2935 -0.1500  1.8112
 5808SOL     OW21465   2.060   3.019   3.989  0.2526  0.2029  0.5084
 5808SOL    HW121466   2.151   3.011   3.960 -0.0158 -2.3659  0.0817
 5808SOL    HW221467   2.027   3.097   3.946  2.0258  0.7175  0.0139
 5809SOL     OW21468   9.409   6.777   6.405 -0.1211  0.6602  0.1005
 5809SOL    HW121469   9.361   6.847   6.361  0.3038  1.6347  1.1262
 5809SOL    HW221470   9.446   6.819   6.483  1.2980 -0.3799  0.0238
 5810SOL     OW21471   9.560   5.620   6.636 -0.4256  0.1193 -0.2649
 5810SOL    HW121472   9.525   5.545   6.682 -0.0589 -0.7791 -1.4019
 5810SOL    HW221473   9.483   5.666   6.601 -0.7227  0.9565  1.3939
 5811SOL     OW21474   9.833   1.733   9.691  0.3853 -0.7266  0.3380
 5811SOL    HW121475   9.901   1.682   9.647 -2.2821 -4.0309 -0.3698
 5811SOL    HW221476   9.761   1.738   9.628 -0.3689  2.1096  1.2456
 5812SOL     OW21477   6.207   4.240   1.999  0.7265 -0.6366 -0.2170
 5812SOL    HW121478   6.169   4.255   1.912 -2.0543  0.8266  1.1525
 5812SOL    HW221479   6.158   4.166   2.034  0.2260  0.2635  0.9982
 5813SOL     OW21480   7.169   2.521   5.771 -0.0210  0.1523 -0.1335
 5813SOL    HW121481   7.202   2.435   5.747  0.9158  0.8229 -1.3518
 5813SOL    HW221482   7.181   2.575   5.693 -1.8986  1.0535  0.1286
 5814SOL     OW21483   3.471   1.924   3.152 -0.3068  0.0102  0.1810
 5814SOL    HW121484   3.515   1.861   3.209 -0.7633 -0.5828 -0.1069
 5814SOL    HW221485   3.520   2.005   3.163  0.4575 -0.4643  0.3572
 5815SOL     OW21486   3.583   2.158   3.199 -0.0606 -0.2966 -0.3559
 5815SOL    HW121487   3.534   2.235   3.228 -1.8246 -1.7331  0.6903
 5815SOL    HW221488   3.637   2.135   3.273  1.6482  0.7683 -1.2065
 5816SOL     OW21489   1.926   4.517   4.226  0.0763  0.3594  0.0778
 5816SOL    HW121490   1.958   4.595   4.181 -0.0598  0.8692  0.8473
 5816SOL    HW221491   1.840   4.542   4.261  0.0676 -0.1001  0.4017
 5817SOL     OW21492   5.344   7.367   2.239  0.6089 -0.3793 -0.0842
 5817SOL    HW121493   5.299   7.450   2.226  0.8272 -0.4721 -1.5620
 5817SOL    HW221494   5.354   7.331   2.151  0.6884 -1.8857  0.5164
 5818SOL     OW21495   5.341   1.635   3.954 -0.2541  0.3675  0.0035
 5818SOL    HW121496   5.258   1.596   3.979 -1.3407  1.0966 -2.1809
 5818SOL    HW221497   5.380   1.570   3.895 -1.2245  1.6669 -2.1903
 5819SOL     OW21498   4.079   4.527   1.537  0.4635 -0.3237  0.3467
 5819SOL    HW121499   4.022   4.505   1.463 -0.3092 -0.2794  0.9273
 5819SOL    HW221500   4.136   4.596   1.502  1.0454 -1.2644 -0.6316
 5820SOL     OW21501   3.095   1.957   3.264  0.0261 -0.2965  0.0773
 5820SOL    HW121502   3.133   1.931   3.348 -1.2667  1.6584  1.3258
 5820SOL    HW221503   3.056   1.876   3.230 -0.5019 -0.8689  1.9473
 5821SOL     OW21504   6.910   0.759   4.144 -0.1408 -0.1230  0.3339
 5821SOL    HW121505   6.844   0.827   4.157 -1.4568 -1.0744 -1.0478
 5821SOL    HW221506   6.934   0.767   4.051  2.0833  0.5059  0.9011
 5822SOL     OW21507   2.552   2.880   8.234 -0.0848 -0.4987 -0.1483
 5822SOL    HW121508   2.574   2.962   8.190 -0.9816  0.2802  0.7898
 5822SOL    HW221509   2.632   2.855   8.280  0.3844 -0.4884 -0.9462
 5823SOL     OW21510   6.943   9.137   1.332 -0.1195  0.0264  0.1688
 5823SOL    HW121511   6.999   9.094   1.396 -2.0819 -0.2933  1.7955
 5823SOL    HW221512   6.880   9.070   1.305  0.6355  0.1565 -2.1738
 5824SOL     OW21513   3.209   9.056   2.473 -0.1553 -0.1173  0.1538
 5824SOL    HW121514   3.269   8.982   2.466 -2.3131 -1.8964 -1.3259
 5824SOL    HW221515   3.136   9.023   2.525 -1.3908  0.7712 -0.9345
 5825SOL     OW21516   4.761  10.204   0.792  0.2809 -0.1284  0.1281
 5825SOL    HW121517   4.843  10.247   0.771 -0.0908  0.5188 -0.0315
 5825SOL    HW221518   4.704  10.274   0.824 -0.9215 -0.1430 -1.8024
 5826SOL     OW21519   2.640   3.974   3.135 -0.1586  0.0329 -0.3959
 5826SOL    HW121520   2.593   3.934   3.062  2.4412 -1.7964 -1.2066
 5826SOL    HW221521   2.707   4.028   3.094  0.4956  0.0619  0.6700
 5827SOL     OW21522   3.477  10.035   7.395  0.0622 -0.2348 -0.1333
 5827SOL    HW121523   3.548  10.007   7.338  0.3968 -0.5713  0.4414
 5827SOL    HW221524   3.472  10.129   7.383  1.0251 -0.1179  0.2860
 5828SOL     OW21525   1.041   1.492   1.896  0.2777  0.3089 -0.0587
 5828SOL    HW121526   0.946   1.494   1.887  0.2140  0.0389  0.5067
 5828SOL    HW221527   1.068   1.584   1.897  0.4920  0.5181 -4.5892
 5829SOL     OW21528   6.005   9.410   6.749 -0.6088 -0.1149 -0.2308
 5829SOL    HW121529   6.071   9.430   6.684  0.9394 -0.6168  1.1327
 5829SOL    HW221530   6.037   9.450   6.830 -1.4160 -1.3008  0.7182
 5830SOL     OW21531   2.266   5.216   5.030 -0.3626 -0.0958 -0.2833
 5830SOL    HW121532   2.212   5.194   4.954 -2.1692  2.2660  0.1720
 5830SOL    HW221533   2.206   5.262   5.089  1.8923  1.6748  0.8015
 5831SOL     OW21534   0.673   0.902   7.890  0.6131  0.1760 -0.2367
 5831SOL    HW121535   0.593   0.901   7.838  0.3348  1.8073  0.0959
 5831SOL    HW221536   0.743   0.888   7.827  0.0808 -1.7523 -0.4730
 5832SOL     OW21537   6.218   8.577   9.575  0.3223 -0.3636 -0.5297
 5832SOL    HW121538   6.295   8.630   9.595  0.8012 -0.4703 -1.9916
 5832SOL    HW221539   6.144   8.634   9.598  0.8199  0.0853  0.0147
 5833SOL     OW21540   5.177   5.079   4.175 -0.2905  0.0281  0.0416
 5833SOL    HW121541   5.120   5.078   4.252 -0.7316 -0.3771 -0.2857
 5833SOL    HW221542   5.264   5.095   4.211 -0.6506  1.0091  0.5091
 5834SOL     OW21543   9.584   0.797   5.105  0.1042 -0.1947  0.3804
 5834SOL    HW121544   9.518   0.862   5.127 -0.4262 -0.8448  0.7635
 5834SOL    HW221545   9.561   0.768   5.017  0.5247  0.3601  0.0896
 5835SOL     OW21546   9.254   7.296   1.379  1.0384 -0.3758 -0.1147
 5835SOL    HW121547   9.169   7.266   1.347  1.0400 -1.7288  1.0316
 5835SOL    HW221548   9.313   7.283   1.304  0.4189 -0.2541 -0.6393
 5836SOL     OW21549   7.557   5.422   2.404  0.1281  0.6377  0.6217
 5836SOL    HW121550   7.600   5.372   2.473  1.2664  0.9724  0.1807
 5836SOL    HW221551   7.618   5.493   2.384 -0.7543  1.2900  0.1523
 5837SOL     OW21552   4.201   2.432   0.759  1.1209 -0.1495 -0.1295
 5837SOL    HW121553   4.224   2.506   0.814 -1.4355  0.9306 -0.3791
 5837SOL    HW221554   4.179   2.362   0.821 -0.1258  0.5407  0.2576
 5838SOL     OW21555   4.568   2.187   5.807 -0.3763 -0.6895  0.0545
 5838SOL    HW121556   4.533   2.104   5.838 -0.0528  0.0893  2.7808
 5838SOL    HW221557   4.656   2.192   5.845 -0.3566  0.8559 -0.1170
 5839SOL     OW21558   8.390   7.594   7.353 -0.6208 -0.4796 -0.4158
 5839SOL    HW121559   8.472   7.640   7.335 -2.5488  4.4608  1.5664
 5839SOL    HW221560   8.334   7.616   7.279 -0.8793 -1.8498 -0.6412
 5840SOL     OW21561   6.144   9.342   1.183  1.4050 -0.4061  0.1549
 5840SOL    HW121562   6.182   9.258   1.210 -0.7402 -1.2528  0.8041
 5840SOL    HW221563   6.059   9.318   1.147  0.9012  1.4790  0.0097
 5841SOL     OW21564   3.824   8.882   8.071  0.4914 -0.1865 -0.1993
 5841SOL    HW121565   3.917   8.898   8.059  0.4167  0.5346  0.1496
 5841SOL    HW221566   3.819   8.833   8.153  0.6309 -1.0481 -0.6967
 5842SOL     OW21567   8.371   2.834   8.113  0.2222 -1.1311 -0.1029
 5842SOL    HW121568   8.456   2.791   8.100 -0.0434 -1.5707 -0.4189
 5842SOL    HW221569   8.389   2.906   8.173  0.4911 -2.3450  1.3212
 5843SOL     OW21570   8.988   6.891   1.191  0.1353  0.0987 -0.0836
 5843SOL    HW121571   9.064   6.905   1.248  0.1466 -0.3856  0.0262
 5843SOL    HW221572   8.919   6.946   1.229  0.6400  1.1331 -0.6229
 5844SOL     OW21573   2.902   4.100   7.801 -0.1073 -0.3580  0.1690
 5844SOL    HW121574   2.821   4.129   7.843 -1.1848 -2.1118 -0.6188
 5844SOL    HW221575   2.949   4.051   7.869  1.2812  2.2086  1.2166
 5845SOL     OW21576   3.532   7.889   3.352 -0.1008 -0.1388  0.6765
 5845SOL    HW121577   3.500   7.911   3.264 -0.8080  0.2529  1.0199
 5845SOL    HW221578   3.585   7.810   3.340 -0.8019 -0.5142  0.0154
 5846SOL     OW21579   0.270   6.747   9.906  0.0095  0.2642  0.0391
 5846SOL    HW121580   0.332   6.808   9.866  0.0636  0.9561  1.1542
 5846SOL    HW221581   0.317   6.663   9.906  0.3915  0.4713 -0.4257
 5847SOL     OW21582   8.355   8.614   9.082 -0.2004 -0.6156  0.6092
 5847SOL    HW121583   8.347   8.655   9.168  0.8371  1.0977 -0.0592
 5847SOL    HW221584   8.284   8.653   9.030  0.0260 -0.6104  0.3033
 5848SOL     OW21585   4.550   9.814   3.583 -0.1768 -0.0588  0.2218
 5848SOL    HW121586   4.576   9.871   3.656 -1.2484  0.8438 -0.0629
 5848SOL    HW221587   4.494   9.870   3.529 -0.1293 -0.9900 -0.8180
 5849SOL     OW21588   2.658   1.103   0.300 -0.0728 -0.0717 -0.3464
 5849SOL    HW121589   2.661   1.197   0.284 -2.8378  0.3260  0.8711
 5849SOL    HW221590   2.746   1.081   0.331  0.9091  1.8812 -1.5500
 5850SOL     OW21591   6.523   7.693   6.783 -0.1036  0.2695  0.1709
 5850SOL    HW121592   6.461   7.707   6.711  0.8572 -0.3582 -0.7992
 5850SOL    HW221593   6.604   7.735   6.754  0.0638  0.7023  1.2403
 5851SOL     OW21594   9.061  10.133   1.121 -0.5281 -0.1806 -0.0862
 5851SOL    HW121595   9.047  10.128   1.216 -0.5402 -0.8445 -0.1155
 5851SOL    HW221596   9.137  10.078   1.105 -1.0112 -0.7250 -0.5578
 5852SOL     OW21597   4.680   0.874   1.781  0.2367  0.6262  0.0378
 5852SOL    HW121598   4.714   0.827   1.704  0.0079  0.5567 -0.0207
 5852SOL    HW221599   4.594   0.837   1.796  0.2492  0.6926  0.2855
 5853SOL     OW21600   4.780   8.078   1.028  0.2265  0.0908  0.2024
 5853SOL    HW121601   4.785   8.128   0.947 -0.4423 -1.0414 -0.5612
 5853SOL    HW221602   4.753   8.142   1.094 -0.0315  0.8592 -0.6263
 5854SOL     OW21603   4.216   4.011   3.650  0.2354 -0.5310 -0.3335
 5854SOL    HW121604   4.210   4.075   3.579  1.1828 -0.3451 -0.2678
 5854SOL    HW221605   4.146   4.034   3.710  0.9271  0.8352 -0.0110
 5855SOL     OW21606   1.910   3.208   8.781  0.2801  0.0241  0.1287
 5855SOL    HW121607   1.818   3.185   8.772  0.5022 -0.3802 -1.5950
 5855SOL    HW221608   1.933   3.183   8.870 -0.6545 -2.3054 -0.1980
 5856SOL     OW21609   9.171   6.942   9.354  0.1232  0.3150 -0.3329
 5856SOL    HW121610   9.162   7.013   9.290 -1.8797 -1.4846 -2.1880
 5856SOL    HW221611   9.254   6.900   9.331  0.2447  0.7119 -0.6397
 5857SOL     OW21612   5.008   6.046   1.672  0.6011 -0.0184 -0.5536
 5857SOL    HW121613   5.083   6.104   1.661  0.2212  0.7607  0.6835
 5857SOL    HW221614   4.935   6.094   1.633  0.1714  0.6373  0.9935
 5858SOL     OW21615   2.884   1.024   1.080 -0.2523  0.1445 -0.4785
 5858SOL    HW121616   2.914   0.972   1.005 -2.5662  0.2070 -1.5276
 5858SOL    HW221617   2.830   0.963   1.131  0.3180  0.4352  0.4968
 5859SOL     OW21618   7.366   2.163  10.151 -0.4585  0.3771 -0.3936
 5859SOL    HW121619   7.304   2.236  10.140 -0.8825 -0.2115 -2.2265
 5859SOL    HW221620   7.341   2.124  10.235 -0.0302  2.4745  0.7931
 5860SOL     OW21621   3.423   6.304   0.769 -0.1162  0.1006 -0.2749
 5860SOL    HW121622   3.357   6.256   0.719  0.2007 -0.7533  0.1121
 5860SOL    HW221623   3.459   6.368   0.706 -0.8053  0.0955 -0.6849
 5861SOL     OW21624   1.925   6.637  10.022 -1.1056  0.5802  0.4989
 5861SOL    HW121625   1.956   6.682   9.943 -0.8449 -2.3696 -1.2161
 5861SOL    HW221626   1.835   6.666  10.032 -0.2099  3.4934  1.1349
 5862SOL     OW21627   9.810   1.774   6.831 -0.0873  0.1841 -0.5504
 5862SOL    HW121628   9.815   1.865   6.803 -1.5644  0.4516 -0.0230
 5862SOL    HW221629   9.854   1.772   6.916  1.3338  0.0681 -1.2680
 5863SOL     OW21630   3.233   8.910   1.027  0.2799 -0.0629 -0.0313
 5863SOL    HW121631   3.322   8.940   1.011  1.0266 -0.7871  2.3470
 5863SOL    HW221632   3.236   8.815   1.016 -1.0388  0.1256 -3.1241
 5864SOL     OW21633   6.278   4.789   6.820  0.0311  0.0259  0.3672
 5864SOL    HW121634   6.258   4.882   6.804  0.5500  0.5383  2.3537
 5864SOL    HW221635   6.241   4.743   6.745  0.2375  1.8912 -0.9577
 5865SOL     OW21636   4.551   4.785   5.030 -0.4506  0.4641  0.4100
 5865SOL    HW121637   4.513   4.734   4.958 -0.1894  0.4641  0.2742
 5865SOL    HW221638   4.645   4.770   5.024 -0.5035 -0.3496  1.3710
 5866SOL     OW21639   1.560   3.422   2.975  0.0907 -0.4153 -0.7294
 5866SOL    HW121640   1.648   3.386   2.986 -0.2252 -1.1232 -0.4393
 5866SOL    HW221641   1.532   3.391   2.889  0.3983  0.4159 -1.1346
 5867SOL     OW21642   7.173   2.218   4.620 -0.3985 -0.3561  0.2493
 5867SOL    HW121643   7.148   2.153   4.555 -0.0852  0.5686 -0.8350
 5867SOL    HW221644   7.160   2.302   4.576 -0.3030  0.3021  1.4347
 5868SOL     OW21645   8.713   1.803   8.248 -0.2072  0.2363  0.0725
 5868SOL    HW121646   8.663   1.731   8.284  0.2996  0.0296  0.3795
 5868SOL    HW221647   8.796   1.801   8.297  1.4491 -1.4585 -2.5697
 5869SOL     OW21648   5.597   0.482   5.304  0.2884  0.5134  0.0118
 5869SOL    HW121649   5.684   0.502   5.269  0.3727  0.7829  0.3647
 5869SOL    HW221650   5.602   0.509   5.396 -0.5856  1.7894 -0.2916
 5870SOL     OW21651   3.158   1.085   8.193  0.5629 -0.2929  0.2599
 5870SOL    HW121652   3.069   1.089   8.228  0.2964 -0.0791 -0.4359
 5870SOL    HW221653   3.204   1.155   8.240  0.5339 -0.7904  1.0597
 5871SOL     OW21654   3.643   1.147   3.195  0.1034  0.4381  0.2280
 5871SOL    HW121655   3.622   1.195   3.115 -0.3488  1.9950  1.2390
 5871SOL    HW221656   3.560   1.108   3.223  0.3342 -0.4119 -0.2292
 5872SOL     OW21657   5.915   2.450   5.300 -0.1031  0.0630 -0.2864
 5872SOL    HW121658   5.952   2.538   5.299 -2.5425  1.3072  2.7689
 5872SOL    HW221659   5.987   2.394   5.329  0.6323  1.6248  1.0310
 5873SOL     OW21660   4.835   8.007   3.078 -0.6418 -0.1082 -0.2469
 5873SOL    HW121661   4.893   7.976   3.008 -0.8745  1.3495 -1.1296
 5873SOL    HW221662   4.772   8.063   3.034  0.9225  3.2473  1.3895
 5874SOL     OW21663   1.286   9.306   6.235  0.9487  0.0590  0.4133
 5874SOL    HW121664   1.292   9.336   6.144  0.4862 -0.2131  0.2896
 5874SOL    HW221665   1.194   9.320   6.258  0.4521 -2.1828  0.0257
 5875SOL     OW21666   0.942   3.998   9.254 -0.4138 -0.9996 -0.3081
 5875SOL    HW121667   0.987   3.967   9.176 -0.1853  0.1210 -0.6329
 5875SOL    HW221668   0.926   4.091   9.238  0.6805 -0.4655  1.4444
 5876SOL     OW21669   6.435   4.415   2.035 -0.2160 -0.3453 -0.4205
 5876SOL    HW121670   6.419   4.495   1.986  1.3325 -0.4041 -1.0864
 5876SOL    HW221671   6.354   4.364   2.027 -1.7092  1.6269  1.0395
 5877SOL     OW21672   1.441   0.733   9.709 -0.8814 -0.2500 -0.5128
 5877SOL    HW121673   1.436   0.669   9.638 -0.0312 -0.8511 -0.0491
 5877SOL    HW221674   1.367   0.791   9.694 -1.1095 -0.7732 -1.4977
 5878SOL     OW21675   0.386   8.250   9.096  0.0383 -0.2486  0.5681
 5878SOL    HW121676   0.369   8.291   9.011  0.1696 -0.7222  0.3144
 5878SOL    HW221677   0.406   8.159   9.076 -0.8334 -0.5893  1.1770
 5879SOL     OW21678   4.758   4.372  10.132  0.1373 -0.5421 -0.1626
 5879SOL    HW121679   4.842   4.374  10.087 -0.2923 -1.5342 -1.0300
 5879SOL    HW221680   4.738   4.279  10.143 -1.4334 -0.3415 -1.0945
 5880SOL     OW21681   3.891   3.967   0.062  0.0959  0.0354 -0.0816
 5880SOL    HW121682   3.902   3.895   0.001  2.1862  0.5653 -0.4096
 5880SOL    HW221683   3.948   3.946   0.136  0.3506  1.0861  0.0480
 5881SOL     OW21684   8.421   9.597   0.158 -0.4311  0.3258  0.2156
 5881SOL    HW121685   8.401   9.687   0.185  2.0088  0.2062  2.9423
 5881SOL    HW221686   8.515   9.596   0.144 -0.4783 -1.7038 -0.3267
 5882SOL     OW21687   8.394   8.600   0.364  0.0117  0.0693  0.4952
 5882SOL    HW121688   8.342   8.596   0.444 -0.7086  2.2994  0.2103
 5882SOL    HW221689   8.478   8.638   0.392 -0.5912  1.7954  0.1080
 5883SOL     OW21690   9.500   7.116   0.875  0.6521  0.2372 -0.7025
 5883SOL    HW121691   9.528   7.054   0.809 -0.2832  0.1176 -0.9971
 5883SOL    HW221692   9.581   7.153   0.910  1.4272 -3.1175  1.4369
 5884SOL     OW21693   5.881   8.084   5.991 -0.0576 -0.3533  0.5632
 5884SOL    HW121694   5.843   7.996   5.986  0.1271 -0.3721 -1.4791
 5884SOL    HW221695   5.969   8.074   5.955 -0.5912  0.9059 -1.2405
 5885SOL     OW21696   8.581   9.084   5.609  0.1800 -0.8619 -0.6396
 5885SOL    HW121697   8.502   9.048   5.568 -2.3463  2.0800  1.2539
 5885SOL    HW221698   8.589   9.172   5.574 -1.2673  1.2694  3.6735
 5886SOL     OW21699   1.238   0.396   1.910 -0.0082  0.0143  0.0769
 5886SOL    HW121700   1.266   0.396   1.818  1.2987 -2.7383  0.3823
 5886SOL    HW221701   1.294   0.461   1.952  1.9590 -1.2558 -0.4540
 5887SOL     OW21702   9.662   8.495   0.858 -0.3299  0.1749  0.5611
 5887SOL    HW121703   9.739   8.451   0.893  0.2334 -0.2213 -1.0515
 5887SOL    HW221704   9.686   8.518   0.768 -2.3944 -0.8015 -0.3216
 5888SOL     OW21705   1.231   2.906   8.629 -0.0036 -0.2751 -0.0536
 5888SOL    HW121706   1.151   2.923   8.679  0.4435 -0.6064  0.7999
 5888SOL    HW221707   1.284   2.985   8.641 -0.5531  0.3156 -1.3534
 5889SOL     OW21708   5.924   7.196   7.292  0.2760 -0.2127 -0.2057
 5889SOL    HW121709   5.916   7.135   7.365  0.2000  0.5168  0.4057
 5889SOL    HW221710   5.845   7.180   7.239 -0.8466  0.8094  1.0848
 5890SOL     OW21711   4.737   6.571   0.286 -0.0080 -0.3463 -0.1977
 5890SOL    HW121712   4.703   6.516   0.215 -2.8224  0.1141  0.6991
 5890SOL    HW221713   4.666   6.576   0.349  0.9181  2.5865  0.7789
 5891SOL     OW21714   4.866   8.640   0.681 -0.5214  0.4134 -0.1706
 5891SOL    HW121715   4.777   8.612   0.659 -0.5496 -1.2673  1.7297
 5891SOL    HW221716   4.866   8.645   0.777  2.0269 -2.0793  0.0908
 5892SOL     OW21717   6.129   1.702   2.436  0.4336 -0.0392  0.2025
 5892SOL    HW121718   6.218   1.691   2.403  0.7609 -0.2245  1.1185
 5892SOL    HW221719   6.112   1.796   2.428  0.4323 -0.1018 -0.6434
 5893SOL     OW21720   7.821   3.744   6.435 -0.3958  0.7793 -0.1689
 5893SOL    HW121721   7.876   3.815   6.470  1.0576  0.4877 -1.7117
 5893SOL    HW221722   7.883   3.688   6.387 -1.6055 -1.1996  0.4645
 5894SOL     OW21723   2.941   2.800   5.449 -0.0654 -0.2388  0.5123
 5894SOL    HW121724   2.940   2.725   5.390 -0.0419 -0.0402  0.2573
 5894SOL    HW221725   2.866   2.854   5.421 -0.9536 -0.8687  1.6098
 5895SOL     OW21726   4.871   2.682   9.378 -0.1161 -0.4559  0.9490
 5895SOL    HW121727   4.809   2.681   9.451  0.9883 -1.0975  1.9016
 5895SOL    HW221728   4.873   2.591   9.348  0.2252 -0.3944  0.7877
 5896SOL     OW21729   7.938   1.377   9.100 -0.2129  0.1741  0.3009
 5896SOL    HW121730   7.934   1.283   9.081  0.0951  0.0846  0.6700
 5896SOL    HW221731   7.861   1.413   9.056 -0.2207 -0.2188 -0.0219
 5897SOL     OW21732   6.601   6.197   8.329 -0.5266 -0.6491  0.3717
 5897SOL    HW121733   6.549   6.217   8.407  1.4606  3.2387  0.9815
 5897SOL    HW221734   6.546   6.223   8.256 -0.8223 -0.0696  0.7913
 5898SOL     OW21735   7.698   9.887   0.008 -0.4461 -0.8738 -0.1139
 5898SOL    HW121736   7.663   9.818   0.064 -0.4190 -0.4897  0.3883
 5898SOL    HW221737   7.783   9.853  -0.022  0.2938 -0.4566  1.3814
 5899SOL     OW21738   0.644   3.889   8.969 -0.5630  0.2739  0.0177
 5899SOL    HW121739   0.560   3.935   8.960 -0.0599  1.0245 -1.1309
 5899SOL    HW221740   0.692   3.912   8.889  1.1416  0.7266  1.1271
 5900SOL     OW21741   4.822   5.798   3.598 -0.0251  0.6000 -0.2585
 5900SOL    HW121742   4.879   5.859   3.552 -0.9365  2.1003  0.5549
 5900SOL    HW221743   4.880   5.753   3.659  0.7973  0.0477 -1.4062
 5901SOL     OW21744   3.745   2.674   4.331 -0.5549 -0.5480 -1.0550
 5901SOL    HW121745   3.759   2.643   4.420 -0.0043 -2.5842 -1.7887
 5901SOL    HW221746   3.795   2.755   4.326 -1.7984  0.4057  0.8856
 5902SOL     OW21747   6.557   9.771   2.539 -0.7683  0.4579 -0.3246
 5902SOL    HW121748   6.472   9.770   2.584  0.1572  1.5244  1.5343
 5902SOL    HW221749   6.583   9.679   2.536 -1.5401  0.2173 -0.0351
 5903SOL     OW21750   4.593   8.665   5.439  0.0055  0.1559  0.2352
 5903SOL    HW121751   4.643   8.641   5.516  1.4848 -0.9405 -0.9921
 5903SOL    HW221752   4.603   8.760   5.432  0.1720  0.2132  1.1736
 5904SOL     OW21753   4.705   3.058   2.034 -0.0860 -0.0231  0.1950
 5904SOL    HW121754   4.706   3.139   2.085 -0.8729  0.9160 -1.2316
 5904SOL    HW221755   4.629   3.066   1.977  0.1372 -1.5383 -0.3604
 5905SOL     OW21756   5.736   5.768   5.071  0.1805 -0.3967  0.0541
 5905SOL    HW121757   5.802   5.778   5.140  1.1590 -0.1763 -0.8805
 5905SOL    HW221758   5.708   5.677   5.078 -0.2865 -0.1918  1.2017
 5906SOL     OW21759   9.329   5.613   3.282  0.4231  0.2182 -0.0258
 5906SOL    HW121760   9.340   5.523   3.312 -4.6358 -0.6771  0.1725
 5906SOL    HW221761   9.323   5.606   3.187 -0.4714  0.1600  0.0185
 5907SOL     OW21762   6.644  10.207   1.670  0.0863 -0.6533 -0.1786
 5907SOL    HW121763   6.734  10.228   1.693 -0.0031  4.1544 -2.9652
 5907SOL    HW221764   6.651  10.157   1.589  0.1758 -1.1722  0.1388
 5908SOL     OW21765   1.842   4.786   8.208 -0.0020 -0.0725 -0.0268
 5908SOL    HW121766   1.770   4.773   8.270 -0.6423  0.2164 -0.6908
 5908SOL    HW221767   1.799   4.820   8.130  0.8448 -0.0808 -0.4977
 5909SOL     OW21768   3.332   1.568   2.434  0.3156  0.3839 -0.0021
 5909SOL    HW121769   3.417   1.597   2.401  0.0147  1.3238  0.0210
 5909SOL    HW221770   3.324   1.611   2.519  0.8674 -1.6189  1.1270
 5910SOL     OW21771   0.810   3.675   0.393  0.5198  0.1604 -0.3194
 5910SOL    HW121772   0.890   3.712   0.358  0.2550 -0.1321 -1.2465
 5910SOL    HW221773   0.826   3.668   0.487  1.6434 -0.0704 -0.5203
 5911SOL     OW21774   8.756   1.681   2.367 -0.0913  0.1760 -0.7084
 5911SOL    HW121775   8.686   1.642   2.315  0.3846 -0.6425 -0.7614
 5911SOL    HW221776   8.836   1.661   2.318  0.4270 -1.1008  0.5853
 5912SOL     OW21777   0.208   0.119   0.497  0.2429  0.2229  0.7433
 5912SOL    HW121778   0.179   0.201   0.458 -0.3603 -0.3353 -0.0172
 5912SOL    HW221779   0.231   0.064   0.423 -2.7716 -1.5555  0.9568
 5913SOL     OW21780   3.334   8.269   9.142  0.1983 -0.7261  0.1691
 5913SOL    HW121781   3.378   8.353   9.149  1.7014 -1.4542 -0.2448
 5913SOL    HW221782   3.267   8.272   9.211  1.7701 -0.1099  1.7391
 5914SOL     OW21783   8.329   9.332   1.482  0.9209 -0.2706 -0.0525
 5914SOL    HW121784   8.273   9.348   1.558  1.6566  0.9904  0.2422
 5914SOL    HW221785   8.302   9.246   1.451 -1.5133  0.4522 -0.1884
 5915SOL     OW21786   9.874   1.965   3.559 -0.4102  0.3760  0.2040
 5915SOL    HW121787   9.894   1.996   3.647  0.2042  0.4104  0.0572
 5915SOL    HW221788   9.787   1.926   3.566  0.3998 -1.3338  1.2546
 5916SOL     OW21789   2.133   4.655   8.712 -0.1208 -0.1177 -0.1695
 5916SOL    HW121790   2.134   4.649   8.807  1.9230  0.4004 -0.1016
 5916SOL    HW221791   2.164   4.744   8.693  2.1065 -1.0432 -1.2837
 5917SOL     OW21792   3.503   0.490   6.667  0.5038  0.4700 -0.6377
 5917SOL    HW121793   3.487   0.395   6.662  2.7744  0.0582 -1.2135
 5917SOL    HW221794   3.433   0.528   6.615 -1.6607 -0.6898  1.2520
 5918SOL     OW21795   9.097   4.063   0.611 -0.4774  0.2394 -0.3139
 5918SOL    HW121796   9.115   4.083   0.703 -0.7555  0.2692 -0.2665
 5918SOL    HW221797   9.179   4.025   0.579 -0.8573 -1.1963  0.3558
 5919SOL     OW21798   5.127   8.652   0.416  0.2879  0.2948 -0.2897
 5919SOL    HW121799   5.204   8.597   0.422  0.7972  0.9951 -0.2188
 5919SOL    HW221800   5.094   8.639   0.327  0.8925  0.5098 -0.5509
 5920SOL     OW21801   0.156   9.960   4.432  0.1019  0.1989 -0.7348
 5920SOL    HW121802   0.068   9.924   4.447  0.2069 -0.4112 -1.5333
 5920SOL    HW221803   0.215   9.890   4.457  0.5782  1.7972  3.4199
 5921SOL     OW21804   1.228   8.571   1.428 -0.0754  0.1541  1.3348
 5921SOL    HW121805   1.189   8.496   1.472  0.1080 -0.7137  0.0698
 5921SOL    HW221806   1.212   8.556   1.335  0.4846  1.3909  1.0112
 5922SOL     OW21807   6.406   3.598   1.766  0.0068  0.6071 -0.2389
 5922SOL    HW121808   6.449   3.536   1.825  0.8418  0.6265 -0.8072
 5922SOL    HW221809   6.313   3.586   1.782  0.1302 -1.0152 -0.5495
 5923SOL     OW21810   0.246   9.205   9.507 -0.2897  0.7669  0.1111
 5923SOL    HW121811   0.296   9.284   9.528 -0.2926  0.4359  1.4412
 5923SOL    HW221812   0.260   9.147   9.582  1.0067 -1.1516 -1.5139
 5924SOL     OW21813  10.081   9.603   2.559  0.2899  0.1595 -0.3362
 5924SOL    HW121814  10.031   9.560   2.489 -1.2902  0.9404  0.2560
 5924SOL    HW221815  10.163   9.629   2.518 -0.6753  0.7861 -1.9655
 5925SOL     OW21816  10.208   1.571   9.788  0.1966 -0.3059 -0.4437
 5925SOL    HW121817  10.254   1.604   9.865  0.9488  0.2115 -1.1014
 5925SOL    HW221818  10.219   1.475   9.794 -0.8479 -0.3725  0.7528
 5926SOL     OW21819   0.619   9.520   0.633  0.2817 -0.4925 -0.1059
 5926SOL    HW121820   0.640   9.542   0.542 -0.3760  0.6237 -0.0125
 5926SOL    HW221821   0.633   9.426   0.639  1.6648 -0.3669 -0.9918
 5927SOL     OW21822   2.001   5.888   2.787 -0.5458  0.4653 -0.5996
 5927SOL    HW121823   2.033   5.898   2.698 -0.7600  0.4312 -0.6802
 5927SOL    HW221824   2.075   5.851   2.835 -0.4760  0.3547 -0.7930
 5928SOL     OW21825   1.984   8.339   8.116  0.2139 -0.1784  0.3050
 5928SOL    HW121826   2.030   8.281   8.177  0.0460 -4.3030 -2.9639
 5928SOL    HW221827   1.894   8.341   8.148  0.0710 -2.4937  0.2442
 5929SOL     OW21828   9.831   3.941   6.469  0.2959 -0.3904  0.0662
 5929SOL    HW121829   9.738   3.927   6.490 -0.2059 -0.5103 -1.9894
 5929SOL    HW221830   9.854   4.022   6.514 -1.1796  0.3148 -0.3943
 5930SOL     OW21831   0.428   0.708   7.462  0.0536 -0.2684  0.0765
 5930SOL    HW121832   0.511   0.708   7.415  0.2354 -1.1447  0.3709
 5930SOL    HW221833   0.376   0.640   7.419 -1.2950  1.5794 -1.3927
 5931SOL     OW21834   1.787   8.613   8.637 -0.2519  0.0382  0.0846
 5931SOL    HW121835   1.791   8.574   8.724 -1.9729 -0.2620  0.0631
 5931SOL    HW221836   1.877   8.610   8.605  0.2574 -0.6270  1.5035
 5932SOL     OW21837   5.985   8.977   0.598  0.3217 -0.2359  0.2312
 5932SOL    HW121838   6.039   8.970   0.676 -0.8368 -2.2380  0.9318
 5932SOL    HW221839   6.044   8.951   0.526  0.7142 -0.9216  0.7850
 5933SOL     OW21840   1.941   3.344   8.137 -0.1091  0.2372  0.7165
 5933SOL    HW121841   1.988   3.370   8.216  1.0442  0.6509 -0.0602
 5933SOL    HW221842   1.900   3.261   8.159  1.2393 -0.2886  1.3808
 5934SOL     OW21843   3.421   5.194   6.814  0.4666 -0.0040 -0.2080
 5934SOL    HW121844   3.396   5.112   6.771 -0.2262 -0.1563  0.4650
 5934SOL    HW221845   3.366   5.260   6.773  1.0098  0.1245 -0.7354
 5935SOL     OW21846   3.563   8.503   6.891  0.3869 -0.4530  0.3016
 5935SOL    HW121847   3.570   8.483   6.797 -1.0908 -0.8230  0.2552
 5935SOL    HW221848   3.565   8.418   6.934 -0.3031 -0.3666  0.5073
 5936SOL     OW21849   2.221   8.760   9.368 -0.3922 -0.2532  0.4963
 5936SOL    HW121850   2.175   8.834   9.328 -0.4146 -0.6288 -0.2018
 5936SOL    HW221851   2.174   8.743   9.449 -0.7243  0.1504  0.3915
 5937SOL     OW21852  10.261   6.394   7.000  0.1731 -0.1485 -0.1214
 5937SOL    HW121853  10.330   6.454   7.029  1.1487 -1.4984  0.4388
 5937SOL    HW221854  10.282   6.376   6.909  1.1921 -1.3736  0.3404
 5938SOL     OW21855   6.420   0.054   2.427 -0.2173 -0.4035 -0.7044
 5938SOL    HW121856   6.474  -0.025   2.418 -1.7646 -1.6424  0.4199
 5938SOL    HW221857   6.478   0.125   2.400  1.6211 -1.7861 -0.6196
 5939SOL     OW21858   9.458   7.019   5.774  0.4909  0.5440 -0.0722
 5939SOL    HW121859   9.487   7.000   5.684  0.8523  0.3892  0.0759
 5939SOL    HW221860   9.404   7.097   5.765 -1.4019 -0.7812 -0.7545
 5940SOL     OW21861   3.299   7.122   8.675 -0.4196 -0.3420  0.1087
 5940SOL    HW121862   3.347   7.196   8.711 -0.4425 -0.6566  0.7961
 5940SOL    HW221863   3.289   7.062   8.748 -1.3494 -0.5426 -0.1742
 5941SOL     OW21864   1.144   9.966   2.807 -0.2458  0.2784 -0.3637
 5941SOL    HW121865   1.177   9.876   2.806 -0.5031  0.1799 -2.0343
 5941SOL    HW221866   1.136   9.990   2.715 -3.0737  0.9287 -0.0550
 5942SOL     OW21867   1.471   8.064   6.989  0.2457 -0.0694 -0.0288
 5942SOL    HW121868   1.561   8.043   6.965  0.3953  0.4450  0.0595
 5942SOL    HW221869   1.429   7.979   7.002  0.1301 -0.3816 -2.1474
 5943SOL     OW21870   0.098   7.061   3.842  0.8759 -0.5071 -0.3487
 5943SOL    HW121871   0.131   6.980   3.802  1.0114 -0.0284 -1.2266
 5943SOL    HW221872   0.007   7.066   3.813  0.8060 -0.4380 -0.1225
 5944SOL     OW21873   9.125   1.566   7.444  0.1860  0.4079  0.6255
 5944SOL    HW121874   9.088   1.618   7.372  1.0345 -0.6897 -0.6472
 5944SOL    HW221875   9.055   1.564   7.509 -2.3631 -2.0148 -1.8665
 5945SOL     OW21876   3.517   5.150   0.474  0.1846 -0.0629  0.1417
 5945SOL    HW121877   3.504   5.209   0.549  1.8429  0.6309 -0.0720
 5945SOL    HW221878   3.491   5.064   0.506  0.9549  0.2070  1.5637
 5946SOL     OW21879   7.274   0.220   7.986  0.3290 -0.0082 -0.0957
 5946SOL    HW121880   7.184   0.201   7.962  0.7057 -3.2843  0.6910
 5946SOL    HW221881   7.269   0.252   8.076 -0.0463 -0.4956  0.0589
 5947SOL     OW21882   0.700   0.201   8.697 -0.3103  0.4109 -0.4102
 5947SOL    HW121883   0.604   0.201   8.687 -0.5822  0.1100  1.7971
 5947SOL    HW221884   0.723   0.110   8.712  0.3867  0.4455 -1.1840
 5948SOL     OW21885   7.155   5.529   6.124  0.3126 -0.0476 -0.0818
 5948SOL    HW121886   7.190   5.489   6.204  0.4339  1.4579  0.6552
 5948SOL    HW221887   7.232   5.561   6.077  0.2019 -0.4164 -0.5176
 5949SOL     OW21888   1.866   4.526   9.097  0.2976  0.1167  0.0444
 5949SOL    HW121889   1.808   4.509   9.171 -0.6406  1.1917 -0.4266
 5949SOL    HW221890   1.883   4.439   9.060 -1.6688 -0.1581 -0.2848
 5950SOL     OW21891   7.305   7.515   5.296  0.1285 -0.3814 -0.0004
 5950SOL    HW121892   7.238   7.557   5.242 -1.9045 -0.4964  2.2750
 5950SOL    HW221893   7.362   7.587   5.324  0.4996 -0.1584 -1.2547
 5951SOL     OW21894   4.734   6.188  10.048 -0.2304 -0.1534 -0.0520
 5951SOL    HW121895   4.784   6.239  10.112  1.4521 -1.1554 -0.4837
 5951SOL    HW221896   4.763   6.220   9.963 -1.0132 -0.1381 -0.3164
 5952SOL     OW21897   2.655   1.079   7.023  0.5822 -0.2436 -0.1426
 5952SOL    HW121898   2.662   0.987   7.049 -1.1771 -0.2652  0.3646
 5952SOL    HW221899   2.569   1.086   6.982  0.4907  1.2665  0.2486
 5953SOL     OW21900   5.900   0.596   9.688  0.3390 -0.2757  0.2316
 5953SOL    HW121901   5.843   0.654   9.739  1.6374  1.4399 -0.1800
 5953SOL    HW221902   5.986   0.638   9.691  1.0296 -1.4961 -1.2153
 5954SOL     OW21903   7.655   8.565   8.970  0.3957  0.0603  0.9251
 5954SOL    HW121904   7.650   8.658   8.993  0.8250  0.5674 -0.8384
 5954SOL    HW221905   7.732   8.558   8.915 -0.5481 -1.0005 -0.3367
 5955SOL     OW21906   8.089   5.773   3.968 -0.2386  0.2016 -0.3818
 5955SOL    HW121907   8.031   5.825   4.023  0.8753 -0.7068  1.8074
 5955SOL    HW221908   8.171   5.822   3.966 -0.3947  0.4358 -1.6428
 5956SOL     OW21909   6.695   0.097   3.536 -0.2108  0.5686  0.0144
 5956SOL    HW121910   6.726   0.011   3.563 -0.8921  0.0448 -0.7995
 5956SOL    HW221911   6.756   0.159   3.575  1.1277 -0.3545 -0.5556
 5957SOL     OW21912   5.800   1.753   7.787 -0.1725 -0.2173 -0.3743
 5957SOL    HW121913   5.894   1.750   7.801 -0.0560 -0.2790 -1.1265
 5957SOL    HW221914   5.772   1.662   7.794 -0.4963 -0.0149  1.7875
 5958SOL     OW21915   0.034   9.779   5.267 -0.0747  0.5974  0.1431
 5958SOL    HW121916   0.009   9.869   5.285 -4.1572 -0.3595  0.2767
 5958SOL    HW221917   0.020   9.768   5.173 -2.0917 -0.4068  0.4903
 5959SOL     OW21918   2.137   7.245  10.210  0.6305 -0.1676  0.0004
 5959SOL    HW121919   2.058   7.191  10.203  0.1930  0.2741  1.1716
 5959SOL    HW221920   2.174   7.246  10.122  0.4409 -2.0531 -0.1345
 5960SOL     OW21921   9.870   3.361   1.948 -0.4134 -0.3616 -0.2039
 5960SOL    HW121922   9.931   3.417   1.898 -0.8256  0.6740  0.4143
 5960SOL    HW221923   9.927   3.298   1.992  0.1944  0.3970  0.1210
 5961SOL     OW21924  10.144   6.002   4.337 -0.0060 -0.5683 -0.9202
 5961SOL    HW121925  10.202   5.926   4.347  2.6207  0.9588 -3.2931
 5961SOL    HW221926  10.101   5.988   4.253 -0.3838  0.0671 -0.8355
 5962SOL     OW21927   7.432   9.464   4.354  0.2507  0.3075  0.2797
 5962SOL    HW121928   7.453   9.406   4.281  0.3180 -1.9238  1.9619
 5962SOL    HW221929   7.355   9.512   4.325 -2.9534 -4.1210  0.3917
 5963SOL     OW21930   2.669   4.093   7.216 -0.1739 -0.0868  0.7714
 5963SOL    HW121931   2.715   4.021   7.259  1.3698 -0.6471 -1.6057
 5963SOL    HW221932   2.674   4.166   7.278  1.4965 -0.9565  1.7234
 5964SOL     OW21933   8.898   5.462   5.072  0.1070  0.3030  0.3943
 5964SOL    HW121934   8.888   5.367   5.084  1.2788 -0.1266 -1.5541
 5964SOL    HW221935   8.952   5.489   5.146 -1.1024 -0.3281  1.5579
 5965SOL     OW21936   9.311   1.969   9.894 -0.1444 -0.1243  0.1196
 5965SOL    HW121937   9.386   2.018   9.858  0.4077  0.0384  1.4594
 5965SOL    HW221938   9.348   1.888   9.927 -0.6295 -0.2308  0.4147
 5966SOL     OW21939   2.333   8.054   5.896 -0.0152 -0.5233  0.2475
 5966SOL    HW121940   2.274   8.122   5.929 -1.9030 -1.9238 -0.0947
 5966SOL    HW221941   2.281   8.004   5.833  2.0948 -0.7744 -1.4275
 5967SOL     OW21942   6.503   6.327   2.637 -0.2183  0.2220  0.0757
 5967SOL    HW121943   6.563   6.254   2.647 -2.2103 -1.5359 -0.1626
 5967SOL    HW221944   6.464   6.340   2.723 -1.6843 -0.6977 -0.4128
 5968SOL     OW21945   8.661   3.034   8.988  0.0787  0.6918  0.0638
 5968SOL    HW121946   8.602   3.059   9.060 -0.3475  0.4345 -0.1884
 5968SOL    HW221947   8.710   3.113   8.967  0.2232  0.7627  0.6548
 5969SOL     OW21948   8.432   7.658   1.861  0.0284 -0.1850  0.3357
 5969SOL    HW121949   8.403   7.719   1.792  0.6501  2.0479  1.9260
 5969SOL    HW221950   8.357   7.652   1.920  1.6316  3.8210  3.2536
 5970SOL     OW21951   0.370   6.207   6.380  0.2054 -0.1494  0.1267
 5970SOL    HW121952   0.392   6.270   6.448 -0.9577  1.1892 -0.6908
 5970SOL    HW221953   0.307   6.148   6.422  0.3258 -0.0100  0.5132
 5971SOL     OW21954   6.205   5.398   7.519  0.3066  0.6255  0.0007
 5971SOL    HW121955   6.258   5.394   7.599  0.6084  0.4045 -0.2093
 5971SOL    HW221956   6.150   5.476   7.531  0.2149  0.4895  0.5066
 5972SOL     OW21957   0.454   8.910   3.913 -0.0445 -0.0932 -0.1257
 5972SOL    HW121958   0.498   8.827   3.932 -0.4651 -0.2313  0.2539
 5972SOL    HW221959   0.520   8.977   3.929  0.4676 -0.3812 -0.9558
 5973SOL     OW21960  10.239   9.129   6.051 -0.1809 -0.1484  0.0205
 5973SOL    HW121961  10.241   9.100   5.960  1.4602 -0.1756  0.0411
 5973SOL    HW221962  10.164   9.188   6.055  2.0008  3.2183 -2.4694
 5974SOL     OW21963   9.487   9.149   5.410  0.2048 -0.6214 -0.6363
 5974SOL    HW121964   9.580   9.156   5.386  0.2208  0.2246 -0.3554
 5974SOL    HW221965   9.441   9.178   5.331  0.2017 -0.3135 -0.5237
 5975SOL     OW21966   0.598   4.233   8.913  0.1607  0.2163 -0.8235
 5975SOL    HW121967   0.673   4.291   8.915  0.4167 -0.1139 -0.6413
 5975SOL    HW221968   0.536   4.272   8.975  1.4311 -1.1331  1.4449
 5976SOL     OW21969   5.903   7.121   6.217 -0.1380 -0.3748 -0.0708
 5976SOL    HW121970   5.955   7.069   6.278 -0.6697 -0.2159  0.5295
 5976SOL    HW221971   5.920   7.212   6.242 -2.0205 -0.3502  1.2766
 5977SOL     OW21972   2.420   4.986   4.187  0.0552 -0.0030  0.1555
 5977SOL    HW121973   2.409   5.072   4.147 -0.2637 -0.2319 -0.2548
 5977SOL    HW221974   2.463   4.933   4.120  1.6511  0.2438  0.9317
 5978SOL     OW21975   5.400   0.686   3.234 -0.1834  0.0374 -0.4940
 5978SOL    HW121976   5.421   0.742   3.309 -0.2290  0.3225 -0.6898
 5978SOL    HW221977   5.331   0.734   3.187  0.1964  0.1046 -0.9929
 5979SOL     OW21978   1.933   1.155   5.004 -0.6303  0.8753 -0.0798
 5979SOL    HW121979   1.852   1.105   5.018 -0.1358 -0.1253 -0.6588
 5979SOL    HW221980   2.000   1.088   4.989  0.1957  1.7080 -0.2062
 5980SOL     OW21981   3.958   1.645   5.525 -0.5140 -0.0773  0.1668
 5980SOL    HW121982   3.998   1.563   5.556  2.8819  1.4745  0.4116
 5980SOL    HW221983   3.894   1.617   5.460 -0.5622 -2.9704  1.2968
 5981SOL     OW21984   9.392   4.260   7.459 -0.0537  0.2838  0.7756
 5981SOL    HW121985   9.485   4.235   7.458 -0.2338 -0.4275 -0.7404
 5981SOL    HW221986   9.357   4.224   7.378 -1.9028 -0.2999  1.7883
 5982SOL     OW21987   8.020   5.262   7.853  0.1060  0.1753 -0.2949
 5982SOL    HW121988   8.085   5.193   7.865  1.2698  0.9822 -1.7665
 5982SOL    HW221989   7.936   5.218   7.871  0.7868 -1.6690 -1.3270
 5983SOL     OW21990   4.046   3.633   7.776  0.0328  0.3531 -0.0980
 5983SOL    HW121991   4.096   3.637   7.695  0.6858  1.7009  0.3398
 5983SOL    HW221992   4.010   3.720   7.786  0.0191  0.2248  1.0944
 5984SOL     OW21993   4.111   7.680   6.347  0.4265 -0.2445  0.2920
 5984SOL    HW121994   4.028   7.696   6.393  0.5020 -0.0679  0.3674
 5984SOL    HW221995   4.125   7.586   6.355 -0.3265 -0.4470 -0.6734
 5985SOL     OW21996   7.889   5.110   8.815  0.3895 -0.3849  0.6642
 5985SOL    HW121997   7.824   5.127   8.747 -0.9122  0.1617  1.9680
 5985SOL    HW221998   7.880   5.017   8.833 -1.4003 -0.0155  2.0604
 5986SOL     OW21999   3.489   2.979   5.304 -0.0267 -0.3683 -0.5372
 5986SOL    HW122000   3.524   2.894   5.328 -0.3901  0.0352  1.6760
 5986SOL    HW222001   3.397   2.963   5.283  0.0804 -0.6028 -0.8386
 5987SOL     OW22002   7.826   9.052   9.003  0.0019 -0.6788  0.1635
 5987SOL    HW122003   7.869   8.985   9.056 -0.7768 -0.6408  0.8627
 5987SOL    HW222004   7.773   9.004   8.940 -0.3753 -0.7245  0.5137
 5988SOL     OW22005   4.201   2.860   0.502 -0.3026 -0.5471 -0.0507
 5988SOL    HW122006   4.149   2.837   0.425 -0.2037 -1.9795  0.2921
 5988SOL    HW222007   4.138   2.896   0.564 -0.6863 -1.0850 -0.1208
 5989SOL     OW22008   8.469   4.000   3.160 -0.0202  0.3274 -0.2007
 5989SOL    HW122009   8.531   4.008   3.232 -0.2996  1.7001 -0.0741
 5989SOL    HW222010   8.384   3.992   3.203  0.1097 -2.6676 -0.3538
 5990SOL     OW22011   9.308   5.224   5.478  0.2433 -0.4242  0.0069
 5990SOL    HW122012   9.309   5.276   5.398  0.9770 -1.0040 -0.3693
 5990SOL    HW222013   9.246   5.154   5.461  0.2080 -0.4022  0.0426
 5991SOL     OW22014   6.230   0.251   2.419 -0.0087  0.2682 -0.4133
 5991SOL    HW122015   6.285   0.176   2.440 -0.8847 -0.4809 -0.7799
 5991SOL    HW222016   6.183   0.226   2.340 -1.7228  0.4444  0.5008
 5992SOL     OW22017   7.852   9.247   5.236  0.3503  0.4381  0.1281
 5992SOL    HW122018   7.929   9.223   5.184  0.4609 -0.2513  0.5833
 5992SOL    HW222019   7.836   9.170   5.291 -0.2963  0.8106  0.4754
 5993SOL     OW22020   2.075   9.027   9.330 -0.4375  0.1804 -0.1354
 5993SOL    HW122021   2.002   9.090   9.333 -0.8588 -0.2780 -0.5321
 5993SOL    HW222022   2.152   9.081   9.316 -0.9927  0.5169 -2.3152
 5994SOL     OW22023   0.060   8.375   9.146 -0.1196  0.3645 -0.0023
 5994SOL    HW122024  -0.014   8.337   9.194  0.5675 -0.4268  0.4779
 5994SOL    HW222025   0.135   8.360   9.204  0.4882  0.7322 -0.6859
 5995SOL     OW22026  10.118   1.301   6.001 -0.1567 -0.4430 -0.1511
 5995SOL    HW122027  10.033   1.315   5.959 -0.2315 -0.6096 -0.0594
 5995SOL    HW222028  10.177   1.280   5.929  0.1921  1.3259 -0.4133
 5996SOL     OW22029   1.232   3.528   4.521  0.4124  0.1576  0.2509
 5996SOL    HW122030   1.189   3.606   4.557 -1.4380 -0.7128  0.0516
 5996SOL    HW222031   1.218   3.536   4.426  0.3094 -0.3527  0.2210
 5997SOL     OW22032   4.953   6.214   0.166 -0.0887  0.1368  0.0690
 5997SOL    HW122033   4.900   6.223   0.245 -0.9155 -0.3185 -0.4163
 5997SOL    HW222034   5.026   6.156   0.192 -0.8547 -0.7668  0.2659
 5998SOL     OW22035   3.394   0.313   6.920 -0.4459 -0.1284  0.5649
 5998SOL    HW122036   3.330   0.268   6.974 -1.3977  0.8173  0.2700
 5998SOL    HW222037   3.466   0.334   6.979 -2.1701  2.3668  1.9862
 5999SOL     OW22038   0.867   3.414   5.294  0.0003 -0.0189 -0.4317
 5999SOL    HW122039   0.818   3.352   5.348 -1.2757  1.1969 -0.1300
 5999SOL    HW222040   0.892   3.364   5.216  0.1982 -1.2705  0.4020
 6000SOL     OW22041   1.245   9.149   6.836  0.3313 -0.2763 -0.0391
 6000SOL    HW122042   1.273   9.237   6.812  0.4740 -0.4349 -0.4653
 6000SOL    HW222043   1.150   9.150   6.826  0.4333 -0.5084 -1.2194
 6001SOL     OW22044   7.134   8.091   1.045 -0.7445 -0.2373 -1.1914
 6001SOL    HW122045   7.165   8.181   1.045 -1.9282  0.2074 -2.3287
 6001SOL    HW222046   7.211   8.039   1.021  0.7870  0.0510  2.5333
 6002SOL     OW22047   7.367   7.053   8.947 -0.0046  0.0509 -0.2195
 6002SOL    HW122048   7.288   7.089   8.988  0.1186  0.3486 -0.2347
 6002SOL    HW222049   7.424   7.029   9.020 -0.3081 -0.6165 -0.2051
 6003SOL     OW22050   8.505   7.766   6.314  0.1102 -0.1134 -0.1712
 6003SOL    HW122051   8.462   7.685   6.286 -0.6792  0.3415 -0.2924
 6003SOL    HW222052   8.535   7.747   6.403  0.2616 -0.6594 -0.3333
 6004SOL     OW22053   4.017   8.322   0.432  0.5955  0.2658 -0.2412
 6004SOL    HW122054   4.051   8.236   0.457  1.9073  0.5139 -1.0499
 6004SOL    HW222055   3.930   8.326   0.471 -0.3808 -2.2846 -1.8878
 6005SOL     OW22056   5.275   3.551   5.809 -0.2913  0.1674 -0.1563
 6005SOL    HW122057   5.216   3.507   5.869  0.1731 -0.0588  0.1410
 6005SOL    HW222058   5.307   3.482   5.750 -0.4906  0.3273 -0.4557
 6006SOL     OW22059   6.751   7.010   0.367  0.3045  0.0792 -0.1687
 6006SOL    HW122060   6.810   7.039   0.436 -1.0024 -0.8226  1.3802
 6006SOL    HW222061   6.670   7.057   0.383  0.6931  1.8044 -2.6582
 6007SOL     OW22062   0.529   5.991   1.715  0.1267  0.0038  0.7677
 6007SOL    HW122063   0.515   5.960   1.804  0.7071  2.0547  1.6167
 6007SOL    HW222064   0.461   6.057   1.701  0.4456  0.1683 -0.0902
 6008SOL     OW22065   0.238   1.862   1.681 -0.5353  0.5889 -0.3284
 6008SOL    HW122066   0.204   1.925   1.744 -0.2491  0.9778 -0.5615
 6008SOL    HW222067   0.173   1.861   1.610 -1.2196 -0.3699  0.2827
 6009SOL     OW22068   1.278   8.236   5.319 -0.6707 -0.1271 -0.2988
 6009SOL    HW122069   1.283   8.234   5.223 -1.2369 -1.5774 -0.3212
 6009SOL    HW222070   1.329   8.160   5.346  0.2825  0.8068  0.6184
 6010SOL     OW22071   4.604  10.168   7.917  0.1817 -0.5247  0.1043
 6010SOL    HW122072   4.526  10.158   7.972  0.3574  0.5128  0.5615
 6010SOL    HW222073   4.677  10.176   7.979  0.4791 -0.1031 -0.2924
 6011SOL     OW22074   4.323   1.074   9.288  0.3610  0.5584 -0.2781
 6011SOL    HW122075   4.367   1.028   9.359 -0.3910 -2.8864 -1.8131
 6011SOL    HW222076   4.394   1.110   9.235  1.0375  0.4061  0.4962
 6012SOL     OW22077   1.080   8.017   4.249  0.0443  0.8592  0.4562
 6012SOL    HW122078   1.045   7.983   4.331 -1.3568  0.9266 -0.0758
 6012SOL    HW222079   1.032   8.099   4.235  0.7532  1.1900 -0.0826
 6013SOL     OW22080   1.208   3.029   0.341  0.4221  0.0192 -0.0162
 6013SOL    HW122081   1.271   3.006   0.272  1.1290  3.5424 -0.7585
 6013SOL    HW222082   1.217   2.960   0.407  1.8060 -1.9431 -2.1188
 6014SOL     OW22083   9.619   1.932   9.748  0.3025 -0.2003 -0.5776
 6014SOL    HW122084   9.712   1.919   9.769 -0.7969 -2.4495  4.2975
 6014SOL    HW222085   9.606   2.026   9.758  2.1673  0.4007 -2.7877
 6015SOL     OW22086   0.101   6.634   9.641  0.0985  0.2643 -0.0528
 6015SOL    HW122087   0.147   6.708   9.600  1.3896 -0.9362 -0.8744
 6015SOL    HW222088   0.117   6.645   9.735 -0.6469  1.5964 -0.0608
 6016SOL     OW22089   7.182   1.843   4.376 -0.1479  0.6431 -0.2335
 6016SOL    HW122090   7.134   1.830   4.294 -0.7684 -2.4105  0.4793
 6016SOL    HW222091   7.264   1.795   4.363  0.1250  0.8471  0.6359
 6017SOL     OW22092   7.788   0.029   7.516  0.1474 -0.1766 -0.2839
 6017SOL    HW122093   7.863   0.085   7.496 -0.0510 -0.1228 -0.9245
 6017SOL    HW222094   7.761   0.054   7.604  1.3132 -0.6900  0.2394
 6018SOL     OW22095   2.781   3.760   1.737  0.4060 -0.1478  0.0160
 6018SOL    HW122096   2.852   3.740   1.797 -0.3962 -1.3208  0.5882
 6018SOL    HW222097   2.744   3.842   1.770 -0.2237 -0.9318  1.3345
 6019SOL     OW22098   7.618   2.895   9.456 -0.4540  0.0672 -0.3121
 6019SOL    HW122099   7.647   2.814   9.499 -0.8522 -0.2577 -0.6531
 6019SOL    HW222100   7.622   2.961   9.525  0.6321 -0.0740 -0.2275
 6020SOL     OW22101  10.236   0.335   3.983  0.1355  0.0784 -0.0613
 6020SOL    HW122102  10.308   0.357   3.924  0.7028 -1.0979  0.1724
 6020SOL    HW222103  10.174   0.407   3.972  0.3533  0.0278 -1.8698
 6021SOL     OW22104   9.504   1.502   1.410 -0.5101  0.3571 -0.1928
 6021SOL    HW122105   9.452   1.520   1.489  1.4715  0.8601  1.0890
 6021SOL    HW222106   9.478   1.414   1.384 -2.6402  0.9255 -0.1818
 6022SOL     OW22107   1.232   5.377   5.325 -0.6562 -0.0109 -0.3346
 6022SOL    HW122108   1.204   5.309   5.264  1.0700 -1.6996  0.6356
 6022SOL    HW222109   1.151   5.410   5.363 -1.8460  1.5163 -3.8323
 6023SOL     OW22110   9.791   6.682   0.460  0.0834 -0.6908 -0.2821
 6023SOL    HW122111   9.822   6.663   0.371 -0.2519 -1.2414 -0.2868
 6023SOL    HW222112   9.829   6.612   0.514 -0.9821 -1.2663 -0.2582
 6024SOL     OW22113   5.204   3.368   6.980  0.5888  0.3077  0.1468
 6024SOL    HW122114   5.232   3.421   7.054  1.2002  0.2057 -0.0095
 6024SOL    HW222115   5.217   3.278   7.008 -1.5482  0.1574  0.8595
 6025SOL     OW22116   6.581   1.162   4.567  0.0707 -0.0689  0.0756
 6025SOL    HW122117   6.500   1.121   4.595 -0.4859  1.1327  0.2879
 6025SOL    HW222118   6.639   1.155   4.642  0.6201 -2.0071 -0.4743
 6026SOL     OW22119   5.087   1.738   2.419  0.8373 -0.6334  0.4527
 6026SOL    HW122120   5.093   1.643   2.408  2.2329 -0.6679  1.3285
 6026SOL    HW222121   5.029   1.750   2.494 -0.5722 -0.7169 -0.5853
 6027SOL     OW22122   0.657   0.497   4.890  0.6362  0.4392 -0.8198
 6027SOL    HW122123   0.739   0.451   4.911  0.7702  1.2847  0.6832
 6027SOL    HW222124   0.684   0.588   4.879 -0.1568  0.8124  0.2105
 6028SOL     OW22125   2.640   5.630   7.122  0.0633  0.0269  0.2494
 6028SOL    HW122126   2.565   5.592   7.168 -0.4049 -0.2467 -0.7301
 6028SOL    HW222127   2.636   5.593   7.034  1.0680  0.3924  0.0368
 6029SOL     OW22128   1.988   7.470   1.259 -0.3066  0.4886 -0.3946
 6029SOL    HW122129   1.985   7.483   1.164 -0.0430 -0.9599 -0.6215
 6029SOL    HW222130   2.042   7.392   1.271 -2.6647 -1.0731  0.7612
 6030SOL     OW22131   9.149   0.066   3.707 -0.5155 -0.5634  0.1649
 6030SOL    HW122132   9.130   0.084   3.615 -1.0494 -0.6885  0.2501
 6030SOL    HW222133   9.137   0.150   3.751 -1.7406 -0.8332  0.3577
 6031SOL     OW22134   5.764   4.694   2.615 -0.3467  0.1225  0.6299
 6031SOL    HW122135   5.749   4.610   2.572 -0.1029  0.4834 -0.1791
 6031SOL    HW222136   5.859   4.706   2.614 -0.3757  0.3909  0.7673
 6032SOL     OW22137   7.129   3.899   7.262 -0.1355 -0.1474 -0.4135
 6032SOL    HW122138   7.217   3.866   7.282  0.1125 -0.6859 -2.2718
 6032SOL    HW222139   7.144   3.982   7.218 -0.5417 -0.4139 -1.0621
 6033SOL     OW22140   5.961   1.111   5.833 -0.5354 -0.7538  0.2674
 6033SOL    HW122141   5.974   1.199   5.869 -1.3288  0.0716 -1.3813
 6033SOL    HW222142   5.866   1.098   5.835 -0.7826 -0.0966 -2.7094
 6034SOL     OW22143   5.572   7.651   1.571  0.0147  0.5323 -0.4109
 6034SOL    HW122144   5.545   7.582   1.510 -0.7330  0.3843  0.0734
 6034SOL    HW222145   5.634   7.704   1.521  0.9417 -0.7279 -0.6703
 6035SOL     OW22146   9.693   9.069   9.359  0.2611 -0.5398  0.4941
 6035SOL    HW122147   9.649   9.147   9.393  0.6900  0.3531 -0.9129
 6035SOL    HW222148   9.623   9.006   9.343 -0.3630  0.3316 -0.3147
 6036SOL     OW22149   5.013   6.905   8.366 -0.3901  0.1408 -0.0209
 6036SOL    HW122150   5.077   6.974   8.350  0.3391 -0.8979 -1.8439
 6036SOL    HW222151   4.991   6.872   8.278 -1.2140 -1.4980  0.7634
 6037SOL     OW22152   5.468   1.672   1.128  0.2103  0.1480 -0.0993
 6037SOL    HW122153   5.547   1.620   1.113  0.3682  0.2745  0.2883
 6037SOL    HW222154   5.396   1.610   1.116  0.1048  0.7336 -4.0736
 6038SOL     OW22155   7.743   1.310   2.969  0.1502  0.0155 -0.1367
 6038SOL    HW122156   7.792   1.290   3.049  0.2371 -4.1066 -1.0014
 6038SOL    HW222157   7.810   1.327   2.903  0.3066 -1.2710 -0.3335
 6039SOL     OW22158   5.805   9.839   3.248  0.0445  0.5712 -0.2243
 6039SOL    HW122159   5.884   9.799   3.210  1.6681  3.7837 -0.6197
 6039SOL    HW222160   5.794   9.921   3.199 -2.4889  1.0889  1.0597
 6040SOL     OW22161   0.164   1.741   3.219 -0.3696  0.2414  0.6821
 6040SOL    HW122162   0.255   1.712   3.218 -0.5312 -0.3234  1.6637
 6040SOL    HW222163   0.163   1.817   3.277 -0.4320  0.6041  0.2178
 6041SOL     OW22164   8.770   5.492   3.893  0.0966  0.3338  0.0331
 6041SOL    HW122165   8.748   5.455   3.808  0.0192  0.0754  0.1655
 6041SOL    HW222166   8.859   5.526   3.881 -0.0173  0.5516 -0.2290
 6042SOL     OW22167   3.418   1.656   3.830 -0.3545  0.2858  0.6753
 6042SOL    HW122168   3.470   1.577   3.820 -2.4602 -1.0228 -0.9929
 6042SOL    HW222169   3.478   1.721   3.866  1.5903 -1.8927  1.5801
 6043SOL     OW22170   5.495   0.416   9.004 -0.4515  0.0723  0.2411
 6043SOL    HW122171   5.575   0.448   8.963 -0.8559  1.1366  0.2489
 6043SOL    HW222172   5.490   0.324   8.978  0.5166  0.1218 -0.1541
 6044SOL     OW22173   4.668   2.334   3.315 -0.1817 -0.0224  0.2723
 6044SOL    HW122174   4.762   2.345   3.331  0.4225 -0.7150 -2.3028
 6044SOL    HW222175   4.646   2.406   3.256 -0.9365 -0.6643 -0.2489
 6045SOL     OW22176   8.354   4.887   0.862 -0.1710 -0.1556  0.3036
 6045SOL    HW122177   8.448   4.870   0.858  0.0204  1.0284 -0.9759
 6045SOL    HW222178   8.330   4.867   0.953  1.0117 -1.8330  0.2987
 6046SOL     OW22179   8.288   8.164   6.705  0.3124  0.7364  0.4011
 6046SOL    HW122180   8.250   8.079   6.727  0.4466  0.0229 -1.8525
 6046SOL    HW222181   8.373   8.165   6.749  0.9331 -0.9407 -0.6453
 6047SOL     OW22182   2.948   0.742   2.642  0.5287 -0.3976  0.0174
 6047SOL    HW122183   2.897   0.799   2.584 -0.9484 -0.8474  0.8406
 6047SOL    HW222184   2.973   0.668   2.587 -0.8683 -0.8291 -0.0555
 6048SOL     OW22185   1.980   2.917   6.766 -0.1907  0.2963  0.1480
 6048SOL    HW122186   1.907   2.964   6.726 -0.3998  0.8125  1.0937
 6048SOL    HW222187   2.058   2.957   6.727 -0.3775 -0.9027 -1.5823
 6049SOL     OW22188   4.078   0.996   4.528  0.4806  0.1398 -0.2305
 6049SOL    HW122189   4.164   1.029   4.501  0.2563 -0.2640 -1.5087
 6049SOL    HW222190   4.045   0.950   4.451 -0.6094 -0.2685  0.4597
 6050SOL     OW22191   2.869   6.489   5.241  0.2469  0.3364  0.1428
 6050SOL    HW122192   2.826   6.477   5.325  0.5681 -1.8458  0.0696
 6050SOL    HW222193   2.809   6.451   5.177  1.0312 -0.2379 -0.2845
 6051SOL     OW22194   5.368   5.213   6.665 -0.3458 -0.7110 -0.1781
 6051SOL    HW122195   5.345   5.304   6.649  0.4080 -0.6080 -0.7605
 6051SOL    HW222196   5.366   5.204   6.760  1.2424  0.3919 -0.0040
 6052SOL     OW22197   4.698   7.230   2.732  0.5230  0.1145  0.2385
 6052SOL    HW122198   4.701   7.234   2.637  0.8892 -1.6524  0.1520
 6052SOL    HW222199   4.778   7.184   2.757 -0.3212 -0.8451  1.2799
 6053SOL     OW22200   1.469   7.898   7.489 -0.1638 -0.4350  0.5842
 6053SOL    HW122201   1.552   7.945   7.486 -0.2820 -0.2876 -0.5497
 6053SOL    HW222202   1.459   7.861   7.402 -3.2286  2.9005 -0.7111
 6054SOL     OW22203   7.409   1.397   2.121 -0.4706  0.2978 -1.0454
 6054SOL    HW122204   7.359   1.477   2.105  0.7475  1.2053 -0.4248
 6054SOL    HW222205   7.500   1.422   2.110 -0.1322 -1.7311 -3.8852
 6055SOL     OW22206   9.157   8.320   8.473  0.3300  0.0949  0.1338
 6055SOL    HW122207   9.180   8.265   8.398 -0.7630  0.5621 -0.5791
 6055SOL    HW222208   9.079   8.279   8.510 -0.9332  1.4959 -0.8453
 6056SOL     OW22209   2.674   0.445   2.615 -0.0252 -0.0947 -0.1008
 6056SOL    HW122210   2.623   0.365   2.629 -0.0387  0.1638  1.4339
 6056SOL    HW222211   2.611   0.507   2.578 -0.3433 -0.3805 -0.0443
 6057SOL     OW22212   3.725   9.962   3.468 -0.3789  0.1093  0.0299
 6057SOL    HW122213   3.667  10.019   3.418  0.7919  2.9698  1.7310
 6057SOL    HW222214   3.768   9.907   3.402 -0.7147  2.0077 -1.8454
 6058SOL     OW22215   1.987   0.394   3.196  0.4213  0.2567 -0.2180
 6058SOL    HW122216   2.011   0.443   3.274  0.5053 -0.4395  0.2042
 6058SOL    HW222217   1.898   0.363   3.213  0.0323  1.0009 -0.8557
 6059SOL     OW22218   0.185   5.071   5.128 -0.2649  0.1279 -0.0518
 6059SOL    HW122219   0.146   5.037   5.047  2.4739 -0.8133 -1.0938
 6059SOL    HW222220   0.186   5.166   5.115  0.3067 -0.0131 -1.2644
 6060SOL     OW22221   8.088   4.370   2.514  0.5524  0.4920  0.2196
 6060SOL    HW122222   8.170   4.355   2.563  0.7973  0.7613 -0.1015
 6060SOL    HW222223   8.116   4.417   2.436 -0.3147  4.1193  1.9044
 6061SOL     OW22224   1.952   9.402   2.810  0.5655  0.3903  0.1591
 6061SOL    HW122225   2.003   9.341   2.756 -0.6687  0.0936 -0.7058
 6061SOL    HW222226   1.988   9.391   2.898  2.5613  0.8032 -0.5467
 6062SOL     OW22227   3.686   2.956   0.132 -0.2083  0.0445  0.2066
 6062SOL    HW122228   3.750   2.962   0.203  0.4528 -1.1285 -0.2782
 6062SOL    HW222229   3.604   2.930   0.176 -1.0148  3.5229  1.1507
 6063SOL     OW22230   0.228   5.455   8.290  0.0716  0.3232  0.3452
 6063SOL    HW122231   0.214   5.517   8.362  2.0849  0.1543  0.9342
 6063SOL    HW222232   0.261   5.508   8.218 -0.2508  0.2319  0.1281
 6064SOL     OW22233   4.622   8.495   4.668  0.2458  0.0587  0.2784
 6064SOL    HW122234   4.538   8.494   4.714  0.5894 -0.3230  0.9001
 6064SOL    HW222235   4.599   8.521   4.578 -0.7285 -1.3052  0.0915
 6065SOL     OW22236   8.780   3.886   7.343  0.1142  0.0699 -0.1282
 6065SOL    HW122237   8.859   3.912   7.390  0.4604 -0.6361 -0.3022
 6065SOL    HW222238   8.736   3.825   7.401 -0.2893  0.4348 -0.0474
 6066SOL     OW22239   7.676   2.890   6.601  0.3956  0.0149  0.5475
 6066SOL    HW122240   7.634   2.879   6.515  1.0408  1.1837  0.0617
 6066SOL    HW222241   7.751   2.831   6.598  1.0938  0.9209 -0.1638
 6067SOL     OW22242   8.578   1.176   6.465 -0.1917 -0.3294 -0.1127
 6067SOL    HW122243   8.658   1.219   6.436 -0.4334  0.9801  1.0494
 6067SOL    HW222244   8.607   1.096   6.509  0.4838  0.0761  0.1897
 6068SOL     OW22245   1.021   6.075   8.837 -0.1136 -0.2322  0.3015
 6068SOL    HW122246   0.966   6.001   8.860  1.8726 -1.8885  0.0354
 6068SOL    HW222247   1.055   6.107   8.920 -1.3212  0.7141  0.4545
 6069SOL     OW22248   0.253   0.134   2.909  0.3259 -0.2141  0.6084
 6069SOL    HW122249   0.309   0.058   2.892  0.6697  0.4126 -1.3233
 6069SOL    HW222250   0.203   0.110   2.987  2.1876 -1.4058  1.5130
 6070SOL     OW22251   3.103   7.899   7.981 -0.2627  0.3016  0.0580
 6070SOL    HW122252   3.112   7.973   8.042 -2.0559  0.9107 -0.3613
 6070SOL    HW222253   3.083   7.824   8.036  2.0904 -0.0396  0.5401
 6071SOL     OW22254   6.670   5.953   1.048 -0.1962  0.5138 -0.0468
 6071SOL    HW122255   6.584   5.994   1.050  0.5279  2.1564  2.3480
 6071SOL    HW222256   6.728   6.020   1.010  0.0790 -0.5427 -1.5717
 6072SOL     OW22257   0.968   5.483   1.549 -0.0968  0.5043 -0.0973
 6072SOL    HW122258   0.949   5.474   1.642  0.7729  0.1199  0.0571
 6072SOL    HW222259   1.063   5.499   1.545 -0.0071 -0.1426 -0.9512
 6073SOL     OW22260   8.716   3.285   4.462  0.2344 -0.5765 -0.1549
 6073SOL    HW122261   8.642   3.298   4.522  2.1623  0.8940  2.0917
 6073SOL    HW222262   8.790   3.266   4.519  2.1117  0.4878 -2.0825
 6074SOL     OW22263   9.773   7.193   0.924  0.0961  0.0941  0.3566
 6074SOL    HW122264   9.778   7.149   0.840  0.2846 -2.5540  1.6575
 6074SOL    HW222265   9.843   7.155   0.977  1.9564  3.7925  0.9112
 6075SOL     OW22266   4.007   5.710   8.268 -0.1021  0.3275  0.1610
 6075SOL    HW122267   3.941   5.644   8.290  0.7199  0.0503  1.9173
 6075SOL    HW222268   4.079   5.659   8.230  0.6695  0.1366  1.8222
 6076SOL     OW22269   9.579   2.708   1.960  0.4971 -0.3376  0.0310
 6076SOL    HW122270   9.575   2.739   2.051  1.2551 -0.4371  0.1030
 6076SOL    HW222271   9.493   2.669   1.945 -0.0949  0.8034  0.2918
 6077SOL     OW22272   5.019   8.299   7.086 -0.4345  0.1742  0.0172
 6077SOL    HW122273   4.990   8.261   7.002  0.7235 -0.4122 -0.1367
 6077SOL    HW222274   5.092   8.243   7.113 -1.0246  0.1319  1.6109
 6078SOL     OW22275   5.762   6.962   1.025  0.5850  0.6348  0.0452
 6078SOL    HW122276   5.797   6.998   0.944  0.0449  0.0032 -0.4801
 6078SOL    HW222277   5.729   7.037   1.073 -2.4350  0.7245 -1.9416
 6079SOL     OW22278   4.417   0.747   6.923  0.0496 -0.0662 -0.2096
 6079SOL    HW122279   4.371   0.808   6.865 -0.5707 -0.3572 -0.0341
 6079SOL    HW222280   4.353   0.726   6.991  0.7761  0.3081  0.6140
 6080SOL     OW22281   8.526   5.333   5.688 -0.5932  0.0673  0.0241
 6080SOL    HW122282   8.577   5.258   5.657 -0.4321  0.7602 -1.4945
 6080SOL    HW222283   8.593   5.397   5.713 -0.7068  0.5674 -0.9248
 6081SOL     OW22284   2.376   9.445   1.903  0.6070  0.4401  0.9587
 6081SOL    HW122285   2.450   9.385   1.905 -0.5629 -1.1093  0.0813
 6081SOL    HW222286   2.343   9.439   1.813  0.0522  1.9141  1.0457
 6082SOL     OW22287   7.417   5.754   3.328 -0.0513 -0.5618 -0.4705
 6082SOL    HW122288   7.446   5.676   3.282  2.3412  0.6481 -1.1711
 6082SOL    HW222289   7.401   5.725   3.418  0.0894 -1.9576 -0.8702
 6083SOL     OW22290   9.156   3.520   9.044 -0.3693 -0.5715 -0.4475
 6083SOL    HW122291   9.189   3.436   9.013 -2.0970 -2.0839  1.5740
 6083SOL    HW222292   9.065   3.522   9.017 -0.4807  0.4571 -0.0509
 6084SOL     OW22293   2.119   2.745   6.519 -0.2273 -0.1472  0.6021
 6084SOL    HW122294   2.165   2.734   6.436  0.1659  0.2699  0.7638
 6084SOL    HW222295   2.030   2.715   6.501 -0.6714  1.7165 -0.4871
 6085SOL     OW22296   8.232   0.219   6.089 -0.2848 -0.2996 -0.0587
 6085SOL    HW122297   8.139   0.197   6.083 -0.3708 -0.2482  0.9529
 6085SOL    HW222298   8.253   0.213   6.182  0.4503  0.8228 -0.1236
 6086SOL     OW22299   4.860   6.804   1.321 -0.6281 -0.3822  0.1380
 6086SOL    HW122300   4.891   6.887   1.357  0.1492 -0.9774  0.8796
 6086SOL    HW222301   4.937   6.765   1.280 -1.1238 -0.4788 -0.7251
 6087SOL     OW22302   6.338   1.270   8.516 -0.0723 -0.0486 -0.2391
 6087SOL    HW122303   6.385   1.304   8.439  0.9461 -0.4049  0.2118
 6087SOL    HW222304   6.356   1.333   8.585 -0.9772  0.2610 -0.2602
 6088SOL     OW22305   9.059   5.828   6.235 -0.2387 -0.0904 -1.2260
 6088SOL    HW122306   9.064   5.921   6.214  0.5915  0.1932  0.0789
 6088SOL    HW222307   8.982   5.821   6.292  1.1371  0.3061  0.8084
 6089SOL     OW22308   6.632   1.129  10.193  0.1129 -0.1472  0.2547
 6089SOL    HW122309   6.714   1.085  10.214  0.5685  0.5307 -0.0762
 6089SOL    HW222310   6.656   1.196  10.129 -0.9625 -0.9871 -1.0768
 6090SOL     OW22311   3.130   3.465  10.131 -0.1275  0.0537  0.7770
 6090SOL    HW122312   3.067   3.450  10.201 -0.6089 -0.5911  0.2081
 6090SOL    HW222313   3.193   3.394  10.140  0.7121  0.8473  1.5182
 6091SOL     OW22314   0.977  10.169   9.991 -0.8198 -0.3810 -0.7146
 6091SOL    HW122315   0.981  10.263  10.007  1.7267 -0.5492  0.0265
 6091SOL    HW222316   0.953  10.161   9.899 -1.9731  0.9353 -0.5603
 6092SOL     OW22317   5.806   7.999   2.716 -0.0864  0.1286  0.2535
 6092SOL    HW122318   5.824   8.074   2.773 -0.5600 -1.4159  2.6077
 6092SOL    HW222319   5.839   7.924   2.766  0.1980 -1.2727 -1.9280
 6093SOL     OW22320   7.354   0.588   8.808 -0.2380  0.6186 -0.2998
 6093SOL    HW122321   7.267   0.548   8.813 -0.4395  1.1109  0.2471
 6093SOL    HW222322   7.376   0.608   8.899 -0.3308  2.1177 -0.5819
 6094SOL     OW22323   1.773   2.346   0.138 -0.3784 -0.2592  0.1475
 6094SOL    HW122324   1.860   2.345   0.179  0.8731  0.7331 -2.2366
 6094SOL    HW222325   1.753   2.253   0.122 -0.8635 -0.6672  2.7023
 6095SOL     OW22326   5.670   0.779   8.404  0.3007 -0.5419 -0.1843
 6095SOL    HW122327   5.698   0.857   8.452 -1.5120  0.7829 -1.1398
 6095SOL    HW222328   5.717   0.783   8.321  0.1128 -0.3889 -0.2839
 6096SOL     OW22329   1.879   1.794   5.188 -0.5043  0.2512 -0.6233
 6096SOL    HW122330   1.885   1.700   5.206 -0.9141  0.1251 -1.1278
 6096SOL    HW222331   1.970   1.824   5.188 -0.3208 -0.2943 -1.2172
 6097SOL     OW22332   7.472   9.439   9.047 -0.1760 -0.6754 -0.5016
 6097SOL    HW122333   7.378   9.454   9.047 -0.4428 -2.0241  0.9800
 6097SOL    HW222334   7.506   9.502   9.110 -0.2794 -1.1213  0.0038
 6098SOL     OW22335   5.796   2.017   2.955  0.0016 -0.1270  0.1292
 6098SOL    HW122336   5.843   2.014   3.038 -1.2268  2.4342  1.0015
 6098SOL    HW222337   5.705   2.001   2.977 -0.6114  2.3138 -0.4079
 6099SOL     OW22338   3.007   5.141   6.209  0.2958 -0.0578 -0.7992
 6099SOL    HW122339   3.053   5.220   6.238  0.6209 -0.9065  1.1784
 6099SOL    HW222340   3.075   5.087   6.170  0.9768 -1.0250  1.5192
 6100SOL     OW22341   6.241   9.973   1.839 -0.1027 -0.1060 -0.2274
 6100SOL    HW122342   6.292   9.936   1.910  0.1539  3.4005  1.6456
 6100SOL    HW222343   6.302  10.031   1.793 -1.2717  0.7916 -0.7059
 6101SOL     OW22344   9.052   3.068   0.656  0.7706 -0.2234  0.3085
 6101SOL    HW122345   9.047   3.069   0.751 -0.9143 -0.7784  0.2536
 6101SOL    HW222346   9.082   2.979   0.634  1.8147  0.1131  0.3250
 6102SOL     OW22347   1.209   8.850   1.953 -0.0637 -0.3870  0.3666
 6102SOL    HW122348   1.247   8.776   1.906 -0.1683 -0.0048 -0.3316
 6102SOL    HW222349   1.270   8.922   1.939 -0.7411  0.0735 -0.2749
 6103SOL     OW22350   2.085   8.538   0.877  0.5586 -0.6895  0.0533
 6103SOL    HW122351   2.159   8.555   0.936  0.6593  0.5784 -0.4221
 6103SOL    HW222352   2.011   8.583   0.917  0.1783 -1.4378  0.2033
 6104SOL     OW22353   9.158   9.760   5.239  0.0666  0.6715 -0.0663
 6104SOL    HW122354   9.090   9.714   5.288  2.1272 -3.7761 -0.9037
 6104SOL    HW222355   9.132   9.750   5.147  1.4781 -0.6244 -0.3603
 6105SOL     OW22356   0.709   5.106   5.391 -0.7131  0.1967 -0.4180
 6105SOL    HW122357   0.692   5.195   5.360 -0.1949  0.3215 -0.3523
 6105SOL    HW222358   0.670   5.103   5.478  0.0632  0.6567 -0.0396
 6106SOL     OW22359   7.305   8.451   9.814  0.3432 -0.2219 -0.1047
 6106SOL    HW122360   7.345   8.538   9.818  1.5256 -0.7954  1.3253
 6106SOL    HW222361   7.212   8.466   9.828  0.2820  0.9495 -1.5226
 6107SOL     OW22362   5.023   9.085   1.133 -0.5103  0.5761  0.4340
 6107SOL    HW122363   5.079   9.022   1.088  0.7405  2.0629 -0.2086
 6107SOL    HW222364   5.037   9.068   1.226  1.3112  1.1091  0.2943
 6108SOL     OW22365   3.072   7.095   8.198 -0.5547  0.0366 -0.1921
 6108SOL    HW122366   2.996   7.147   8.222  1.3179  1.8543  2.2030
 6108SOL    HW222367   3.040   7.004   8.200 -2.4612  0.6657  1.5375
 6109SOL     OW22368   7.578   9.379   9.422 -0.3505  0.1402  0.0481
 6109SOL    HW122369   7.673   9.395   9.423 -0.6384  1.9906  0.4732
 6109SOL    HW222370   7.569   9.290   9.457  1.1474  0.3836  1.1668
 6110SOL     OW22371   1.498   0.160   4.173 -0.0760  0.4501 -0.0353
 6110SOL    HW122372   1.475   0.069   4.192 -1.7681  0.7462 -0.5134
 6110SOL    HW222373   1.466   0.209   4.249  1.4610  0.5992  0.5526
 6111SOL     OW22374   3.071   0.749   2.929  0.7577  0.5147 -0.6945
 6111SOL    HW122375   3.036   0.768   2.842 -1.4039 -0.8928 -0.2042
 6111SOL    HW222376   3.017   0.800   2.989  0.4609 -0.5749 -0.0041
 6112SOL     OW22377   0.756   4.848   9.871 -0.0074  0.1992  0.2393
 6112SOL    HW122378   0.695   4.855   9.798 -0.5472  0.0810  0.6713
 6112SOL    HW222379   0.802   4.765   9.857  0.5159  0.5939 -0.4306
 6113SOL     OW22380   0.179   4.874   6.896  0.1040 -0.2734 -0.3871
 6113SOL    HW122381   0.188   4.812   6.823 -1.2869  0.1712 -0.9797
 6113SOL    HW222382   0.151   4.820   6.970 -1.3445 -0.3659 -0.9645
 6114SOL     OW22383   0.469   0.797   7.721 -0.4512 -0.6919  0.6070
 6114SOL    HW122384   0.460   0.762   7.632 -1.6575  2.3430 -0.6201
 6114SOL    HW222385   0.380   0.794   7.757 -0.2971 -0.3003  1.0264
 6115SOL     OW22386   8.189   4.268   4.221 -0.2556 -0.0211 -0.2247
 6115SOL    HW122387   8.236   4.301   4.296 -1.2810  1.5286 -0.2306
 6115SOL    HW222388   8.255   4.262   4.151  0.4757 -0.5086  0.4913
 6116SOL     OW22389   7.286   9.848   0.256 -0.6263  0.0478 -0.3210
 6116SOL    HW122390   7.284   9.752   0.266 -0.7665 -0.1404 -1.9085
 6116SOL    HW222391   7.303   9.881   0.345 -1.1539 -1.4163  0.3569
 6117SOL     OW22392   5.867   9.445   0.095 -0.3651 -0.3085 -0.4677
 6117SOL    HW122393   5.867   9.530   0.139  0.8225 -0.4195 -0.2211
 6117SOL    HW222394   5.873   9.381   0.166 -0.2438 -0.5595 -0.7010
 6118SOL     OW22395   6.679   3.201   7.813 -0.0582 -0.7112  0.0816
 6118SOL    HW122396   6.619   3.184   7.740  0.5514 -0.1041 -0.5837
 6118SOL    HW222397   6.724   3.118   7.828 -0.2036 -0.8445 -0.2202
 6119SOL     OW22398   4.112   0.135   6.343 -0.7111 -0.0379 -0.2079
 6119SOL    HW122399   4.079   0.203   6.402 -1.2220  1.3633 -1.9694
 6119SOL    HW222400   4.202   0.121   6.369 -2.0936 -2.9961  3.9114
 6120SOL     OW22401   4.900   9.434   8.855 -0.0419  0.0398 -0.0328
 6120SOL    HW122402   4.871   9.464   8.769 -0.8180  0.4586  0.3590
 6120SOL    HW222403   4.995   9.431   8.849 -0.1233 -1.0542 -1.2615
 6121SOL     OW22404   3.912   0.674   3.359 -0.1053  0.2622 -0.0134
 6121SOL    HW122405   3.931   0.648   3.449  0.1085 -1.5765 -0.5557
 6121SOL    HW222406   3.837   0.621   3.333  1.7391 -1.6606 -1.9063
 6122SOL     OW22407   5.010   1.350   5.995  0.4076 -0.0047  0.6494
 6122SOL    HW122408   4.952   1.411   6.043  1.7860  0.0017  2.4011
 6122SOL    HW222409   5.069   1.407   5.946 -0.4981 -0.0075 -0.4942
 6123SOL     OW22410   8.751   2.207   1.112  0.4859 -0.3031 -0.1873
 6123SOL    HW122411   8.819   2.218   1.047  1.0227 -1.9661  0.0532
 6123SOL    HW222412   8.699   2.132   1.081 -0.3073 -0.0218  0.4071
 6124SOL     OW22413   2.944   2.357   7.937 -0.0387 -0.0322  0.4717
 6124SOL    HW122414   2.888   2.301   7.991  0.0731 -1.4893 -0.8516
 6124SOL    HW222415   2.914   2.341   7.848 -0.1994  2.2883  0.0489
 6125SOL     OW22416   7.769   9.700   9.630 -0.0805  0.1162 -0.3897
 6125SOL    HW122417   7.691   9.645   9.627 -0.6647  0.8050  1.1668
 6125SOL    HW222418   7.842   9.640   9.616 -0.6919 -1.0907  1.3160
 6126SOL     OW22419   6.132   0.386   1.720  0.0339 -0.1866 -0.5356
 6126SOL    HW122420   6.148   0.435   1.801 -0.8130  1.6145 -1.3898
 6126SOL    HW222421   6.210   0.333   1.708  0.3051 -0.2609  1.2895
 6127SOL     OW22422   4.824   5.411   8.218  0.1436 -0.1834 -0.3495
 6127SOL    HW122423   4.854   5.431   8.307  0.3603  1.4117 -0.7550
 6127SOL    HW222424   4.755   5.475   8.202 -0.2888 -0.8343 -1.1400
 6128SOL     OW22425   8.237   3.080   7.223 -0.1007 -0.1999  0.3307
 6128SOL    HW122426   8.257   3.166   7.186 -1.1063 -0.0511  0.1123
 6128SOL    HW222427   8.317   3.029   7.209 -0.5849 -0.3220 -2.5402
 6129SOL     OW22428   0.124   3.698   2.226 -0.9233  0.0521  0.8246
 6129SOL    HW122429   0.050   3.759   2.216 -2.5655 -1.2418  3.6362
 6129SOL    HW222430   0.094   3.617   2.186  0.4828  0.4434 -1.1662
 6130SOL     OW22431   0.280   4.318   0.676 -0.0278 -0.2457 -0.3754
 6130SOL    HW122432   0.221   4.369   0.733 -1.0872 -2.7250  0.8974
 6130SOL    HW222433   0.342   4.278   0.737  0.1427 -1.2753 -1.2063
 6131SOL     OW22434   6.089   6.842  10.232  0.0530 -0.0833 -0.5906
 6131SOL    HW122435   6.121   6.776  10.170 -1.6464 -1.1033 -0.4433
 6131SOL    HW222436   6.077   6.794  10.314  2.1526  1.2153  0.5825
 6132SOL     OW22437   1.585   7.070   9.163  0.1040  0.1247  0.6048
 6132SOL    HW122438   1.558   7.035   9.078  0.3698  0.9079  0.1913
 6132SOL    HW222439   1.587   6.993   9.220 -0.0468 -0.4204 -0.1004
 6133SOL     OW22440   0.269   3.305   6.448 -0.2648 -0.6649 -0.2827
 6133SOL    HW122441   0.225   3.370   6.392  2.3026  1.6287  0.1436
 6133SOL    HW222442   0.287   3.232   6.389 -1.7333 -0.2915 -1.2445
 6134SOL     OW22443   9.203   6.885   9.887 -0.1934 -0.1400 -0.0813
 6134SOL    HW122444   9.118   6.880   9.844 -0.9007  1.2764  1.0285
 6134SOL    HW222445   9.191   6.836   9.969 -0.2344  0.7822  0.4774
 6135SOL     OW22446   9.280   3.935   7.378 -0.1543  0.0989 -0.3057
 6135SOL    HW122447   9.243   4.015   7.341 -1.1821  0.3253  1.1149
 6135SOL    HW222448   9.217   3.867   7.357 -1.8422  0.5781  2.5707
 6136SOL     OW22449   8.032   6.610   5.995  0.1638 -0.3278  0.4103
 6136SOL    HW122450   8.116   6.565   5.999  1.9097  2.6625 -0.1891
 6136SOL    HW222451   8.024   6.653   6.081 -0.0329  0.5742 -0.0515
 6137SOL     OW22452   4.150   9.004   4.043  0.2457 -0.0189  0.3907
 6137SOL    HW122453   4.213   9.037   4.108  0.0721 -1.8380  1.5567
 6137SOL    HW222454   4.150   8.909   4.056 -1.7845 -0.1807 -0.4805
 6138SOL     OW22455   2.586   7.515   1.160 -0.1507 -0.5631 -0.0411
 6138SOL    HW122456   2.493   7.496   1.150 -0.6261  1.2536  0.5019
 6138SOL    HW222457   2.617   7.450   1.222 -1.2092 -0.8224  0.2409
 6139SOL     OW22458   5.004   1.856   3.845 -0.0579  0.2281 -0.5054
 6139SOL    HW122459   4.922   1.899   3.821  0.1306  0.1033 -1.4381
 6139SOL    HW222460   5.051   1.849   3.762 -0.2275 -2.0891 -0.4511
 6140SOL     OW22461   2.781   0.417   3.309  0.3472 -1.0958  0.7246
 6140SOL    HW122462   2.799   0.503   3.349  0.6320 -0.5815 -0.4646
 6140SOL    HW222463   2.850   0.360   3.344 -1.4008 -1.5970  3.6636
 6141SOL     OW22464   8.985   3.261   2.159 -0.1081  0.4425 -0.5933
 6141SOL    HW122465   8.995   3.349   2.196  0.6568  0.3888 -0.6520
 6141SOL    HW222466   9.016   3.202   2.228  0.0532  0.2628 -0.8167
 6142SOL     OW22467   8.581   9.438   7.455 -0.4020  0.0376  0.1432
 6142SOL    HW122468   8.603   9.484   7.536 -0.0148  1.6813 -0.8584
 6142SOL    HW222469   8.521   9.497   7.409 -0.5032 -0.8038 -0.8421
 6143SOL     OW22470   7.920   1.627   4.876 -0.2301  0.0030 -0.0486
 6143SOL    HW122471   7.828   1.638   4.852 -0.9406  0.6201  2.6472
 6143SOL    HW222472   7.921   1.548   4.930  0.8083  0.1564  0.1712
 6144SOL     OW22473   5.088   3.321   7.504 -0.2906 -0.3841 -0.2748
 6144SOL    HW122474   5.044   3.295   7.424 -1.0779  1.1983 -0.4015
 6144SOL    HW222475   5.180   3.328   7.480 -0.1199 -2.3162 -0.3712
 6145SOL     OW22476   5.512   6.334   9.068 -0.0692  0.1874 -0.1986
 6145SOL    HW122477   5.497   6.304   9.158  2.1439  0.4543  0.3233
 6145SOL    HW222478   5.491   6.427   9.070 -2.7461 -0.3265 -0.7310
 6146SOL     OW22479   9.810   0.040   8.094 -0.2462 -0.1364 -0.0538
 6146SOL    HW122480   9.814   0.091   8.013  1.4338 -1.7675 -1.0570
 6146SOL    HW222481   9.743  -0.026   8.077 -1.2759  0.6709  0.6629
 6147SOL     OW22482   5.073   6.189   0.529  0.1154  0.3319 -0.6922
 6147SOL    HW122483   5.158   6.193   0.485  1.2680  0.7012  1.4275
 6147SOL    HW222484   5.068   6.100   0.563  0.3712  0.7508  0.4799
 6148SOL     OW22485   3.925   6.862   2.648  0.7365  0.0631 -0.0770
 6148SOL    HW122486   3.979   6.902   2.580  1.3918 -0.4110  0.1529
 6148SOL    HW222487   3.935   6.768   2.633  0.9851 -0.0443  0.7511
 6149SOL     OW22488   9.375   5.265   1.419  0.3046  0.3984 -0.0813
 6149SOL    HW122489   9.307   5.254   1.486 -0.5327 -1.0398 -1.1194
 6149SOL    HW222490   9.328   5.297   1.342  0.9986  0.5089 -0.4636
 6150SOL     OW22491   4.907   3.629   1.642 -0.0831 -0.2548 -0.0890
 6150SOL    HW122492   4.986   3.630   1.696 -0.4970 -2.0535  0.6296
 6150SOL    HW222493   4.902   3.717   1.605  1.5886  0.2614  0.8102
 6151SOL     OW22494   6.475   4.362  10.210 -0.4395 -0.3343  0.3637
 6151SOL    HW122495   6.522   4.415  10.146  0.2365 -0.0413  1.0862
 6151SOL    HW222496   6.507   4.393  10.295  0.2423 -2.1365  0.8093
 6152SOL     OW22497   5.165   0.147   6.570 -0.2845  0.1452  0.3871
 6152SOL    HW122498   5.156   0.164   6.476  2.9333  1.8462  0.2376
 6152SOL    HW222499   5.118   0.219   6.613  2.0005  2.0728 -0.1050
 6153SOL     OW22500  10.153   8.414   7.460 -0.0420  0.4929 -0.2202
 6153SOL    HW122501  10.111   8.474   7.522  1.1854  0.5008  0.6301
 6153SOL    HW222502  10.198   8.472   7.398 -0.9235  0.4750 -0.9013
 6154SOL     OW22503   8.743   7.791   6.135  0.6823 -0.1802  0.3358
 6154SOL    HW122504   8.749   7.731   6.060 -2.3214 -0.5544  0.2713
 6154SOL    HW222505   8.668   7.759   6.184  1.1188  1.5275  2.2157
 6155SOL     OW22506   9.638   2.143   5.412  0.0807 -0.3532  1.0539
 6155SOL    HW122507   9.728   2.112   5.414  0.4691  0.0494 -2.6855
 6155SOL    HW222508   9.645   2.238   5.415  0.3812  0.0045 -3.6061
 6156SOL     OW22509   6.871   0.368   1.069 -0.2352 -0.1236 -0.2211
 6156SOL    HW122510   6.782   0.334   1.065  0.3034 -1.6094 -0.1365
 6156SOL    HW222511   6.861   0.463   1.061 -1.9905 -0.0436  2.0087
 6157SOL     OW22512   5.443   9.942   2.941  0.1321 -0.4758 -0.6225
 6157SOL    HW122513   5.418   9.871   3.001 -0.2340  0.1496 -0.0100
 6157SOL    HW222514   5.463  10.016   2.999  2.4447 -0.6347 -1.1370
 6158SOL     OW22515   4.139   1.417   1.891  0.2715  0.3288 -0.0295
 6158SOL    HW122516   4.180   1.503   1.906  2.0238 -0.6545  1.1897
 6158SOL    HW222517   4.195   1.375   1.826 -0.0639 -0.2347  0.0468
 6159SOL     OW22518   2.924   9.976   3.728  0.5232 -0.6176 -0.1588
 6159SOL    HW122519   2.963  10.056   3.692  0.5155 -0.6210 -0.1762
 6159SOL    HW222520   2.977   9.905   3.692 -0.0927 -0.6819 -0.9750
 6160SOL     OW22521  10.274   9.813   9.045  0.4498 -0.2281  0.0211
 6160SOL    HW122522  10.242   9.725   9.026  0.5119  0.0612 -1.5914
 6160SOL    HW222523  10.266   9.822   9.140  2.7165 -2.8569  0.5866
 6161SOL     OW22524   8.697   9.413   0.486  0.0474  0.1480 -0.3404
 6161SOL    HW122525   8.602   9.409   0.497  0.0013 -1.8089 -1.0831
 6161SOL    HW222526   8.711   9.404   0.391  0.9834  0.3969 -0.2398
 6162SOL     OW22527   6.771   5.156   9.372 -0.0356  0.0950 -0.5198
 6162SOL    HW122528   6.826   5.144   9.295 -0.7418 -0.1356 -0.9991
 6162SOL    HW222529   6.684   5.176   9.337 -0.5132 -0.6266  0.1953
 6163SOL     OW22530   0.765   9.064  10.011 -0.0554  0.4571  0.1381
 6163SOL    HW122531   0.796   9.152  10.028  0.5185  0.3254 -0.2096
 6163SOL    HW222532   0.684   9.076   9.961 -1.0667  0.8155  1.7898
 6164SOL     OW22533   9.896   6.381  10.075  0.6401  0.7664 -0.4440
 6164SOL    HW122534   9.982   6.421  10.062  0.8740  1.1059  1.7262
 6164SOL    HW222535   9.899   6.300  10.025  2.0790  0.9511 -0.6881
 6165SOL     OW22536   5.571   0.195  10.259 -0.1161 -0.0240 -0.0541
 6165SOL    HW122537   5.554   0.209  10.352  0.0853  0.0222 -0.0232
 6165SOL    HW222538   5.633   0.264  10.235 -1.9209  1.4281 -0.7669
 6166SOL     OW22539   6.637   9.783   7.151 -0.4488 -0.7483  0.0234
 6166SOL    HW122540   6.642   9.848   7.082 -0.7062 -0.1256  0.5791
 6166SOL    HW222541   6.728   9.763   7.174 -0.3666 -0.8905 -0.4323
 6167SOL     OW22542   3.126   9.209   7.002 -0.4529  0.4335 -0.0674
 6167SOL    HW122543   3.105   9.301   7.013 -1.2368  0.1273  1.2783
 6167SOL    HW222544   3.092   9.186   6.916 -0.2942  1.3863 -0.3850
 6168SOL     OW22545   1.455   3.099   8.596 -0.2988 -0.1804  0.3375
 6168SOL    HW122546   1.549   3.117   8.595 -0.0431 -1.3957  0.6654
 6168SOL    HW222547   1.426   3.128   8.682 -0.1442 -0.1407  0.3775
 6169SOL     OW22548   0.334   6.060   5.715 -0.1330 -0.1219 -0.5142
 6169SOL    HW122549   0.375   6.146   5.722 -1.2253  0.3405  0.3411
 6169SOL    HW222550   0.245   6.077   5.686 -2.1779 -0.3981  4.6885
 6170SOL     OW22551   3.516   4.490   5.316  0.1142  0.1706  0.1223
 6170SOL    HW122552   3.467   4.473   5.235 -1.4276 -2.5080  1.4910
 6170SOL    HW222553   3.449   4.497   5.384  1.4526 -1.9628  1.8027
 6171SOL     OW22554   6.093   6.880   5.582 -0.0057  0.4254  0.2733
 6171SOL    HW122555   6.056   6.959   5.619  0.1652  1.3251 -1.3702
 6171SOL    HW222556   6.021   6.817   5.582  0.1236  0.1856  2.5250
 6172SOL     OW22557   4.541   8.734   6.693 -0.0376 -0.0432 -0.4505
 6172SOL    HW122558   4.506   8.807   6.745 -0.9637  0.7207 -2.0931
 6172SOL    HW222559   4.620   8.707   6.740  0.6878  2.4437 -0.1354
 6173SOL     OW22560  10.238   9.760   0.112  0.0916 -0.0312  0.1977
 6173SOL    HW122561  10.236   9.847   0.072 -0.1885 -0.6886 -1.2887
 6173SOL    HW222562  10.272   9.775   0.200  1.1356  1.4335 -0.4145
 6174SOL     OW22563   9.419   0.482   9.147  0.4320  0.5261  0.1998
 6174SOL    HW122564   9.448   0.538   9.219 -0.4411  2.8775 -1.1485
 6174SOL    HW222565   9.482   0.498   9.076  0.5921 -0.8166  0.0077
 6175SOL     OW22566   0.776   9.362   5.887 -0.2895 -0.2770  0.5946
 6175SOL    HW122567   0.724   9.368   5.968 -1.8436  0.1364 -0.3925
 6175SOL    HW222568   0.785   9.453   5.858  1.5872 -0.2676  1.0660
 6176SOL     OW22569   3.226   1.992   8.275  0.4123  0.2825  0.3773
 6176SOL    HW122570   3.214   2.056   8.205 -0.9013  0.8665  1.1145
 6176SOL    HW222571   3.319   1.970   8.271  0.7902  1.8478 -0.2133
 6177SOL     OW22572   6.303   9.132   6.090 -0.2124 -0.5276  0.3324
 6177SOL    HW122573   6.286   9.190   6.165  0.4339 -1.0743  0.9059
 6177SOL    HW222574   6.221   9.133   6.041 -0.1026  1.1884  0.1111
 6178SOL     OW22575   5.435   7.454   8.199  0.0259  0.8342  0.1013
 6178SOL    HW122576   5.451   7.403   8.119  1.1483 -0.5514  1.1699
 6178SOL    HW222577   5.345   7.430   8.224  0.0503  0.4539 -0.1602
 6179SOL     OW22578   2.497   5.630   2.182  0.3926  0.4374 -0.0071
 6179SOL    HW122579   2.435   5.658   2.250  0.4022 -1.4864  0.8800
 6179SOL    HW222580   2.445   5.575   2.124  0.9340  0.0712 -0.1515
 6180SOL     OW22581   4.946   2.486   8.716  1.0853 -0.2861  0.0513
 6180SOL    HW122582   4.851   2.497   8.722  1.0662  1.6413 -2.1604
 6180SOL    HW222583   4.958   2.411   8.658  0.8630  0.5205 -1.0585
 6181SOL     OW22584   4.256   1.866   0.246 -0.1520 -0.3062  0.1583
 6181SOL    HW122585   4.173   1.836   0.282  0.5053 -1.5605  0.6825
 6181SOL    HW222586   4.258   1.960   0.266 -1.9684  0.0347 -0.9587
 6182SOL     OW22587   3.578   6.877   7.236 -0.3482 -0.2522  0.1284
 6182SOL    HW122588   3.563   6.937   7.310 -2.4955 -0.1073 -0.3560
 6182SOL    HW222589   3.505   6.893   7.177 -0.0680 -2.1964 -0.8164
 6183SOL     OW22590   0.481   4.925   0.896  0.0896  0.2493 -0.6671
 6183SOL    HW122591   0.454   5.016   0.883  2.4446  1.0268 -0.4331
 6183SOL    HW222592   0.427   4.895   0.970 -0.9154  1.3333 -0.9217
 6184SOL     OW22593   0.054   8.921  10.294  0.1932 -0.3208  0.1997
 6184SOL    HW122594   0.025   8.987  10.356  1.8140 -0.7968  1.5520
 6184SOL    HW222595   0.140   8.895  10.325  1.0634 -0.6566 -2.2372
 6185SOL     OW22596   4.129   7.376   8.931 -0.5232 -0.3065 -0.1104
 6185SOL    HW122597   4.120   7.281   8.924 -0.9477 -0.3197  0.5312
 6185SOL    HW222598   4.055   7.403   8.986 -1.1186  0.5454 -1.2886
 6186SOL     OW22599   4.762   4.266   5.125  0.0363  0.0699 -0.0646
 6186SOL    HW122600   4.810   4.345   5.153  1.3719 -0.3907 -0.9675
 6186SOL    HW222601   4.817   4.228   5.057 -1.0584 -1.1515 -0.2891
 6187SOL     OW22602   5.405   0.576   7.465  0.0130 -0.1746 -0.5388
 6187SOL    HW122603   5.380   0.590   7.556  0.5746 -1.2202 -0.2126
 6187SOL    HW222604   5.389   0.661   7.423 -1.9296 -0.1731  0.1103
 6188SOL     OW22605   9.380   1.445   8.592  0.4676 -0.6878  0.2639
 6188SOL    HW122606   9.409   1.374   8.534 -0.1475  0.3492 -1.3784
 6188SOL    HW222607   9.296   1.414   8.626  0.3301 -0.8752 -0.2335
 6189SOL     OW22608   7.384   6.286   5.898 -0.1835  0.0726  0.0522
 6189SOL    HW122609   7.343   6.310   5.815  0.0085 -0.5433 -0.2272
 6189SOL    HW222610   7.454   6.226   5.874  0.4775  0.6154  0.5856
 6190SOL     OW22611   3.722   2.999   5.555 -0.0697 -0.1463 -0.1831
 6190SOL    HW122612   3.704   2.909   5.527 -0.9673  0.2653 -1.0143
 6190SOL    HW222613   3.807   2.994   5.599  0.5783 -1.1584 -1.4714
 6191SOL     OW22614   3.508   2.997   1.730  0.3871  0.4147  0.0795
 6191SOL    HW122615   3.464   2.923   1.687  0.9641  0.5623 -0.7871
 6191SOL    HW222616   3.525   2.965   1.819 -0.6453  0.0323  0.1642
 6192SOL     OW22617   9.399   4.294   6.126 -1.0261 -0.0412 -0.1585
 6192SOL    HW122618   9.337   4.361   6.097 -1.6141 -0.3077  0.4628
 6192SOL    HW222619   9.346   4.216   6.140 -0.4610 -0.4346 -0.1679
 6193SOL     OW22620   3.839   9.377   5.594  0.3920  0.1857 -0.2474
 6193SOL    HW122621   3.865   9.343   5.680  1.0176  0.1737 -0.4429
 6193SOL    HW222622   3.886   9.460   5.586 -0.5869  0.7755 -0.0719
 6194SOL     OW22623   5.756   0.497   8.981 -0.0796 -0.1672  0.4173
 6194SOL    HW122624   5.812   0.574   8.977 -2.0251  1.2714 -0.4935
 6194SOL    HW222625   5.817   0.424   8.992  1.8739  1.4028  0.5423
 6195SOL     OW22626   8.015   7.267   7.005 -0.0058  0.6045  0.4097
 6195SOL    HW122627   8.003   7.354   7.042 -1.9460 -0.2653  2.0873
 6195SOL    HW222628   7.927   7.229   7.004  0.7318 -1.2322 -0.5514
 6196SOL     OW22629   7.987   0.081   1.174 -0.1322  0.0590 -0.1001
 6196SOL    HW122630   7.956   0.145   1.238 -0.0629 -0.3714  0.3669
 6196SOL    HW222631   7.921   0.083   1.104 -2.6062 -2.5049  1.9021
 6197SOL     OW22632  10.109   8.413   5.325  0.4652 -0.3460  0.0444
 6197SOL    HW122633  10.026   8.426   5.280  0.9406 -1.4135 -1.2051
 6197SOL    HW222634  10.170   8.388   5.256  1.4029 -1.3125  1.1764
 6198SOL     OW22635   9.941   7.005   9.905 -0.0394 -0.3373  0.1855
 6198SOL    HW122636   9.955   7.020   9.998  2.8274 -0.1505 -0.2047
 6198SOL    HW222637  10.020   6.961   9.875 -0.9445 -0.5113 -2.1484
 6199SOL     OW22638   8.841  10.179   8.120 -0.3583  0.5131  0.3267
 6199SOL    HW122639   8.803  10.234   8.052  2.3129 -0.2073 -1.9406
 6199SOL    HW222640   8.784  10.102   8.124 -0.7563  0.7420 -0.8498
 6200SOL     OW22641   4.207   7.706   9.204 -0.1988  0.3498 -0.0413
 6200SOL    HW122642   4.247   7.751   9.278  1.5427 -0.8093 -0.2057
 6200SOL    HW222643   4.260   7.733   9.128  1.2163 -2.2453 -0.0699
 6201SOL     OW22644   2.661   4.951   1.531 -0.6509 -0.1050 -0.1398
 6201SOL    HW122645   2.572   4.941   1.565 -0.3791  0.4897  0.7785
 6201SOL    HW222646   2.702   4.866   1.547 -1.2349 -0.5878 -1.1441
 6202SOL     OW22647   5.048   2.108   5.761 -0.2245 -0.6121 -0.7140
 6202SOL    HW122648   4.972   2.053   5.740 -0.8872 -0.1815  0.4856
 6202SOL    HW222649   5.040   2.183   5.702 -1.0170 -0.3353 -0.2768
 6203SOL     OW22650   7.554   2.080   9.977 -0.1491 -0.2428 -0.1779
 6203SOL    HW122651   7.482   2.109  10.033  2.0606  1.9691  1.7963
 6203SOL    HW222652   7.551   2.139   9.902 -1.4362 -1.3898 -1.0790
 6204SOL     OW22653   5.448   9.344   6.614  0.7354 -0.3194 -0.3802
 6204SOL    HW122654   5.521   9.361   6.554  0.2239 -2.6015 -1.7625
 6204SOL    HW222655   5.481   9.274   6.671  0.3939  0.2183  0.4857
 6205SOL     OW22656   6.832   2.525   3.950  0.2898  0.0716 -0.2598
 6205SOL    HW122657   6.927   2.530   3.943  0.2034  0.7006 -1.1372
 6205SOL    HW222658   6.808   2.450   3.895  0.3389 -0.6800  0.7110
 6206SOL     OW22659   6.746   5.068   0.820 -0.2571 -0.0035 -0.0615
 6206SOL    HW122660   6.682   4.997   0.823 -0.4429  0.1691  2.3454
 6206SOL    HW222661   6.772   5.081   0.912  2.9575  0.2112 -0.8702
 6207SOL     OW22662   7.497   3.144   1.011  0.1222  0.1100  0.2036
 6207SOL    HW122663   7.495   3.140   1.107 -1.0421 -1.8641  0.1402
 6207SOL    HW222664   7.410   3.176   0.987  0.1339 -0.1870 -0.2279
 6208SOL     OW22665   5.483   2.778   4.349  0.3237 -0.3196 -0.1283
 6208SOL    HW122666   5.564   2.729   4.334 -0.1804 -1.2582  0.1471
 6208SOL    HW222667   5.493   2.816   4.436 -0.0212 -1.4632  0.4343
 6209SOL     OW22668   8.917   0.191   5.977 -0.1802  0.0910 -0.2238
 6209SOL    HW122669   8.982   0.168   5.911  0.4489 -1.9159  1.0080
 6209SOL    HW222670   8.839   0.140   5.954 -0.4392  0.4672 -0.1988
 6210SOL     OW22671   9.880   9.920   9.350  0.1878 -0.6059 -0.1424
 6210SOL    HW122672   9.969   9.915   9.384  0.0588  0.6795  0.4449
 6210SOL    HW222673   9.874  10.008   9.312 -0.7175 -0.8182 -0.5137
 6211SOL     OW22674   5.992   8.902   3.587 -0.0993 -0.2350 -0.1406
 6211SOL    HW122675   5.918   8.854   3.550  1.1643 -1.4223 -1.2257
 6211SOL    HW222676   6.068   8.875   3.535  0.8386  2.3628 -0.2899
 6212SOL     OW22677   8.621   5.942   3.758 -0.8031 -0.4581 -1.1651
 6212SOL    HW122678   8.526   5.932   3.761 -0.7992 -0.5382 -1.2792
 6212SOL    HW222679   8.654   5.853   3.745 -0.6788 -0.5116 -0.5129
 6213SOL     OW22680   8.402   6.722   0.813  0.3628  0.2104 -0.0767
 6213SOL    HW122681   8.411   6.628   0.796 -0.1825  0.2657 -0.7503
 6213SOL    HW222682   8.392   6.761   0.726  1.6505  1.0324  0.1157
 6214SOL     OW22683   6.928   4.147   4.879 -0.1730  0.0215 -0.3624
 6214SOL    HW122684   6.910   4.059   4.910  0.9784 -0.7920 -1.8864
 6214SOL    HW222685   6.879   4.154   4.796 -0.4403  0.8977 -0.1432
 6215SOL     OW22686   6.917   3.033   7.906 -0.0461 -0.6985 -0.5842
 6215SOL    HW122687   6.924   3.125   7.931 -0.4794 -0.2285 -2.0685
 6215SOL    HW222688   6.983   3.022   7.837  0.0915 -1.5421 -0.3302
 6216SOL     OW22689   4.696   8.513   8.346  0.0817  0.2809 -0.2462
 6216SOL    HW122690   4.785   8.485   8.370  0.7333  2.6230  0.2941
 6216SOL    HW222691   4.676   8.583   8.408 -1.3294  1.1866 -1.6614
 6217SOL     OW22692  10.177   9.470   3.231  0.6589  0.1650 -0.2967
 6217SOL    HW122693  10.116   9.406   3.269  1.1830 -0.6912 -0.8852
 6217SOL    HW222694  10.257   9.460   3.281  0.4388  1.0923  0.2815
 6218SOL     OW22695   6.998   2.486   9.735 -0.5420  0.0404 -0.0638
 6218SOL    HW122696   6.917   2.493   9.684 -2.2600 -0.2858  2.4430
 6218SOL    HW222697   7.047   2.565   9.712 -3.1091  2.0369  0.7349
 6219SOL     OW22698   0.529   7.168   5.359 -0.4846 -0.2590  0.5389
 6219SOL    HW122699   0.465   7.158   5.289 -1.1760 -1.4464  1.3028
 6219SOL    HW222700   0.607   7.122   5.327  0.0992  1.3559 -0.4735
 6220SOL     OW22701   8.026   2.191   4.446 -0.5554 -0.1842  0.2902
 6220SOL    HW122702   7.972   2.124   4.487 -0.0940  0.4826  2.0948
 6220SOL    HW222703   8.107   2.145   4.422 -0.1019 -0.2567  1.8276
 6221SOL     OW22704   5.820   2.995   3.661 -0.5111 -0.4246  0.2341
 6221SOL    HW122705   5.847   3.063   3.599  1.1981  1.0013  2.3848
 6221SOL    HW222706   5.749   3.035   3.711 -0.7303 -0.9265  0.3323
 6222SOL     OW22707   1.961   1.519   0.367  0.1971  0.4568 -0.4306
 6222SOL    HW122708   1.875   1.479   0.356  0.1464  0.1781  0.8470
 6222SOL    HW222709   2.010   1.493   0.289 -0.2285 -1.0841 -0.2068
 6223SOL     OW22710   2.200   8.620   0.318 -0.1742  0.1017 -0.2453
 6223SOL    HW122711   2.149   8.558   0.266 -0.2306 -1.0390  1.1210
 6223SOL    HW222712   2.197   8.701   0.267 -2.5571 -0.1832 -0.6853
 6224SOL     OW22713   6.485   8.328   7.788  0.3908 -0.2394 -0.0629
 6224SOL    HW122714   6.580   8.317   7.797  0.4338  0.0978 -0.0931
 6224SOL    HW222715   6.471   8.423   7.796 -0.0681 -0.3917  1.0785
 6225SOL     OW22716   6.532   6.617   0.345 -0.0456 -0.4408  0.0890
 6225SOL    HW122717   6.500   6.555   0.411  1.2328 -0.6214  0.5539
 6225SOL    HW222718   6.599   6.668   0.390 -0.2401  0.4783 -0.6406
 6226SOL     OW22719   0.023   7.920   1.589 -0.5795 -0.1603  0.3754
 6226SOL    HW122720  -0.054   7.967   1.558 -0.0581  0.1076 -0.5338
 6226SOL    HW222721   0.039   7.956   1.676 -2.6918 -1.6827  1.4774
 6227SOL     OW22722   5.337   5.298   9.509 -0.3106  0.0073  0.3862
 6227SOL    HW122723   5.413   5.246   9.536 -1.1839 -1.7509 -0.3831
 6227SOL    HW222724   5.356   5.323   9.419  0.8107  2.4465  1.2383
 6228SOL     OW22725   9.174   7.167   5.800  0.0795  0.1302  0.3302
 6228SOL    HW122726   9.205   7.107   5.867 -0.2730  1.2665  1.5471
 6228SOL    HW222727   9.187   7.254   5.837 -2.1441  0.7250 -0.1342
 6229SOL     OW22728   4.823   5.044   5.158  0.1828  0.1724  0.1650
 6229SOL    HW122729   4.820   5.005   5.071  0.1936 -1.6551  0.9402
 6229SOL    HW222730   4.858   4.975   5.214  1.5231  1.7526  1.4036
 6230SOL     OW22731   0.077   2.773   5.251 -0.2128  0.3778  0.2439
 6230SOL    HW122732   0.049   2.860   5.225  1.8028  0.3146 -2.5570
 6230SOL    HW222733   0.026   2.713   5.197 -0.0121 -0.0774  0.5486
 6231SOL     OW22734   2.594   8.390   8.990  0.0093 -0.3787 -0.1319
 6231SOL    HW122735   2.581   8.417   8.899 -0.4162 -1.5169 -0.4250
 6231SOL    HW222736   2.512   8.413   9.034  0.2998  0.3858  0.0384
 6232SOL     OW22737   0.443   7.933   2.982 -0.1371 -0.5091 -0.1708
 6232SOL    HW122738   0.435   7.993   2.907  1.3694 -0.3711 -0.2569
 6232SOL    HW222739   0.365   7.951   3.035 -2.0438 -1.6461 -2.3932
 6233SOL     OW22740  10.052   3.137   2.456  0.1048  0.6593  0.5505
 6233SOL    HW122741   9.963   3.115   2.482 -0.0734  1.0557  0.2809
 6233SOL    HW222742  10.108   3.084   2.513 -0.3144 -1.9120 -1.2355
 6234SOL     OW22743   6.229   8.974   6.812  0.4559  0.6599 -0.0620
 6234SOL    HW122744   6.154   9.025   6.781  0.2593 -0.6734 -2.0198
 6234SOL    HW222745   6.265   8.934   6.732  1.2447 -1.3703  1.2169
 6235SOL     OW22746   8.673   0.002   7.942  0.0153  0.2000 -0.2933
 6235SOL    HW122747   8.593  -0.049   7.950  0.3145 -0.0161  4.4511
 6235SOL    HW222748   8.643   0.093   7.937 -0.4859  0.0143 -0.7368
 6236SOL     OW22749   1.662   5.480   1.424  0.6349 -0.0903 -0.2934
 6236SOL    HW122750   1.731   5.442   1.479 -1.4212 -1.1295  1.7718
 6236SOL    HW222751   1.614   5.539   1.483 -0.3853  0.4260 -1.5860
 6237SOL     OW22752   8.365   1.618  10.216  0.3488 -0.1577  0.0683
 6237SOL    HW122753   8.422   1.543  10.202 -0.0713 -0.5473  0.3941
 6237SOL    HW222754   8.400   1.687  10.159  0.9924 -0.4639  0.0866
 6238SOL     OW22755   5.905   3.629   7.784 -0.1751  0.2248 -0.0249
 6238SOL    HW122756   5.947   3.543   7.778  0.5985  0.5299  0.7749
 6238SOL    HW222757   5.967   3.688   7.741 -0.7449  0.3849 -0.6477
 6239SOL     OW22758   2.952   9.008   8.980  0.5044  0.3056 -0.2119
 6239SOL    HW122759   2.952   8.982   9.072  0.8994  1.3879  0.1199
 6239SOL    HW222760   2.867   9.050   8.967  0.9797  1.3897  0.0562
 6240SOL     OW22761   9.477   9.309   0.545  0.0976  0.1636 -0.3690
 6240SOL    HW122762   9.461   9.243   0.612 -0.0862  0.7049  0.1226
 6240SOL    HW222763   9.550   9.361   0.579  0.8537 -0.3329 -1.1659
 6241SOL     OW22764   9.955   5.056   1.267  0.5643 -0.1630  0.7574
 6241SOL    HW122765   9.952   5.041   1.361  0.6996  1.4791  1.0495
 6241SOL    HW222766  10.036   5.105   1.252  0.1960  0.2081 -0.1172
 6242SOL     OW22767   7.903   8.986   6.152 -0.2853 -0.6798  0.0656
 6242SOL    HW122768   7.823   8.961   6.107 -0.8699 -1.1570  1.3053
 6242SOL    HW222769   7.935   8.905   6.193 -0.2400 -0.1330  1.1655
 6243SOL     OW22770   3.077   6.810   0.336  0.3520 -0.1910 -0.2913
 6243SOL    HW122771   3.020   6.761   0.395 -0.4311 -0.2807 -1.0903
 6243SOL    HW222772   3.055   6.777   0.249  0.0144  1.3464 -0.8276
 6244SOL     OW22773   9.078   6.076   6.169 -0.9893  0.4701  0.0114
 6244SOL    HW122774   9.004   6.129   6.138 -0.5130  1.2194  0.1288
 6244SOL    HW222775   9.137   6.139   6.209 -1.1930 -0.3721  1.7251
 6245SOL     OW22776   9.147   1.151   7.941  0.0257  0.1892 -0.5043
 6245SOL    HW122777   9.159   1.243   7.964 -0.5551 -0.1842  1.4509
 6245SOL    HW222778   9.052   1.139   7.937  0.0187 -0.8046  1.5308
 6246SOL     OW22779   5.694   5.186   2.961 -0.0576 -0.5488  0.1279
 6246SOL    HW122780   5.628   5.232   2.909  0.5304  1.4045  1.0202
 6246SOL    HW222781   5.777   5.209   2.920  0.3406  0.2634  1.3361
 6247SOL     OW22782  10.181   9.474   8.970  0.4408  0.1172 -0.7607
 6247SOL    HW122783  10.163   9.433   9.055  1.3119  2.9823  0.9490
 6247SOL    HW222784  10.098   9.469   8.923 -0.5640 -0.0405  0.9500
 6248SOL     OW22785   1.393   9.349   0.680 -0.5626 -0.2387 -0.5862
 6248SOL    HW122786   1.301   9.367   0.701 -0.1117  1.6681 -0.0322
 6248SOL    HW222787   1.434   9.327   0.763 -0.2168  0.4409 -0.5656
 6249SOL     OW22788   2.627   7.093   6.506 -0.0013 -0.0005  0.1099
 6249SOL    HW122789   2.655   7.003   6.492 -1.9526 -0.6533  0.0985
 6249SOL    HW222790   2.616   7.100   6.601 -0.0959  0.1352  0.0894
 6250SOL     OW22791   9.592   0.724   6.439  0.9695  0.0237  0.3311
 6250SOL    HW122792   9.669   0.731   6.495  0.7603  1.0943  0.4958
 6250SOL    HW222793   9.542   0.804   6.456 -0.9292 -1.2907  1.3169
 6251SOL     OW22794   7.887   8.154   1.157 -0.3081 -0.7506 -0.0469
 6251SOL    HW122795   7.806   8.180   1.114 -1.6492  1.9844  3.6810
 6251SOL    HW222796   7.952   8.218   1.128 -0.6696 -0.1956  0.3555
 6252SOL     OW22797   0.217   6.506   4.939  0.6069 -0.0691  0.4094
 6252SOL    HW122798   0.253   6.419   4.924 -0.7157 -0.9783  2.2326
 6252SOL    HW222799   0.124   6.497   4.921  0.3205  0.7484  1.4003
 6253SOL     OW22800   1.612  10.086   8.920 -0.6998  0.1085  0.4336
 6253SOL    HW122801   1.599   9.991   8.923  0.1530  0.0071  1.0661
 6253SOL    HW222802   1.672  10.105   8.992 -0.5860  1.0891  0.0957
 6254SOL     OW22803   0.752   3.242   9.394 -0.1780  0.0613 -0.4498
 6254SOL    HW122804   0.791   3.226   9.308 -2.7480 -1.6868 -1.4098
 6254SOL    HW222805   0.764   3.336   9.409 -0.7927  0.6923 -3.3307
 6255SOL     OW22806   3.437   1.864   6.422 -0.3111 -0.1439 -0.2573
 6255SOL    HW122807   3.525   1.827   6.421 -1.3073 -2.7858 -2.4586
 6255SOL    HW222808   3.433   1.922   6.346 -0.0591  1.2933  0.7715
 6256SOL     OW22809   5.263   3.074   9.829  0.1201 -0.0853  0.5425
 6256SOL    HW122810   5.287   3.052   9.919 -0.5987 -0.5821  0.6202
 6256SOL    HW222811   5.179   3.030   9.815 -0.3841  1.0042  0.0299
 6257SOL     OW22812   4.310   0.617   8.441 -0.3605  0.6343  0.2854
 6257SOL    HW122813   4.257   0.672   8.498  0.9275  0.0045  2.2079
 6257SOL    HW222814   4.256   0.604   8.363 -2.4220  1.1191  1.5504
 6258SOL     OW22815   7.704   0.004   4.319  0.2891 -0.1374  0.1021
 6258SOL    HW122816   7.787  -0.006   4.272  0.3721 -1.2012  0.4621
 6258SOL    HW222817   7.669  -0.084   4.326 -1.6381  0.4471 -1.3702
 6259SOL     OW22818   7.194   5.065   5.558  0.2938 -0.5028  0.1739
 6259SOL    HW122819   7.185   5.085   5.652 -1.8886 -0.7821  0.0865
 6259SOL    HW222820   7.235   4.978   5.557 -1.8771 -1.6358  1.0398
 6260SOL     OW22821   5.604   4.777   2.975 -1.0893 -0.6792  0.0796
 6260SOL    HW122822   5.595   4.744   3.064  0.3711 -0.7705  0.2285
 6260SOL    HW222823   5.684   4.735   2.942 -0.3747  1.0115 -0.4793
 6261SOL     OW22824   7.269   0.612   5.822  0.1796 -0.0594  0.1908
 6261SOL    HW122825   7.354   0.568   5.814  0.1783 -0.2708  1.1941
 6261SOL    HW222826   7.238   0.587   5.909 -0.7769  0.2599 -0.0543
 6262SOL     OW22827   6.375   4.090   4.578 -0.3582  0.0623 -0.0288
 6262SOL    HW122828   6.408   4.137   4.655 -0.0038 -0.1683 -0.0379
 6262SOL    HW222829   6.355   4.002   4.609 -0.7922  0.1436 -0.0670
 6263SOL     OW22830   8.087   8.330   1.516 -0.2152  0.2940 -0.4450
 6263SOL    HW122831   8.164   8.308   1.569 -0.3082  0.5994 -0.1751
 6263SOL    HW222832   8.023   8.263   1.538 -0.0000 -0.0092 -0.7331
 6264SOL     OW22833   0.515   6.462   1.265  0.3924  0.6185 -0.2551
 6264SOL    HW122834   0.484   6.396   1.203  2.1431 -0.5927  0.1031
 6264SOL    HW222835   0.563   6.524   1.211 -2.0607  2.2435 -0.7411
 6265SOL     OW22836   5.725   1.417   9.037 -0.6067  0.1534  0.5600
 6265SOL    HW122837   5.656   1.482   9.024 -0.5146  0.3524  1.0709
 6265SOL    HW222838   5.806   1.463   9.015 -0.5363  0.2271  0.9744
 6266SOL     OW22839   0.197   9.205   8.004 -0.3490 -0.0661  0.6255
 6266SOL    HW122840   0.201   9.147   8.080  2.2984  0.2486  0.8231
 6266SOL    HW222841   0.161   9.287   8.038 -1.4774 -0.6691  0.9501
 6267SOL     OW22842   2.771   8.496   3.234  0.3300  0.3442 -0.5550
 6267SOL    HW122843   2.840   8.433   3.254  1.5181  1.6347 -0.4355
 6267SOL    HW222844   2.693   8.458   3.273  1.4253 -0.0345  1.4157
 6268SOL     OW22845   9.558   8.802   8.380  0.2276 -0.1220 -0.3011
 6268SOL    HW122846   9.626   8.762   8.434  0.1652 -1.1346 -0.9448
 6268SOL    HW222847   9.555   8.893   8.409  1.9797  0.0049 -0.3716
 6269SOL     OW22848   2.715   6.744   7.806  0.2466 -0.0416  0.9396
 6269SOL    HW122849   2.769   6.714   7.879  1.3733  0.1722  0.2149
 6269SOL    HW222850   2.729   6.839   7.803  1.6447 -0.2499 -0.6424
 6270SOL     OW22851   9.006   8.476   7.118 -0.2084  0.4310  0.2272
 6270SOL    HW122852   8.913   8.467   7.099 -0.3248  0.6780  0.6488
 6270SOL    HW222853   9.010   8.481   7.214  0.3359 -0.6727  0.2841
 6271SOL     OW22854   9.532   9.947   2.118 -0.0277  0.3935 -0.2162
 6271SOL    HW122855   9.530   9.956   2.214 -0.8633  1.9643 -0.3411
 6271SOL    HW222856   9.529   9.852   2.103 -2.7771  0.1036  1.3200
 6272SOL     OW22857   5.732   0.754   0.099 -0.8251  0.0026 -0.0999
 6272SOL    HW122858   5.695   0.713   0.021  0.2519  1.7231 -1.5927
 6272SOL    HW222859   5.805   0.697   0.124 -0.6140 -0.0969 -0.9181
 6273SOL     OW22860   3.899   4.370   5.072 -0.3129  0.5046  0.1531
 6273SOL    HW122861   3.948   4.342   4.995  0.0430 -0.6226  0.7737
 6273SOL    HW222862   3.873   4.460   5.052  0.4737  0.5090 -0.9363
 6274SOL     OW22863   2.681  10.085   8.078 -1.0234 -0.8220  1.4458
 6274SOL    HW122864   2.595  10.046   8.061 -0.5796 -2.3038  2.3599
 6274SOL    HW222865   2.742  10.032   8.026 -0.7314  0.8318  0.0293
 6275SOL     OW22866   2.538   9.623   0.979 -0.3939 -0.3115 -0.4674
 6275SOL    HW122867   2.489   9.627   0.896  0.3230 -1.3450 -0.9587
 6275SOL    HW222868   2.499   9.692   1.033 -0.2138  1.0740 -2.0182
 6276SOL     OW22869   0.789   7.510   0.967 -0.2304  0.1972 -0.5922
 6276SOL    HW122870   0.762   7.541   0.881 -0.7978 -0.4430 -0.6544
 6276SOL    HW222871   0.708   7.512   1.019 -0.2556 -0.9963 -0.5543
 6277SOL     OW22872   1.139   5.920  10.288 -0.2819  0.0375 -0.5019
 6277SOL    HW122873   1.048   5.927  10.319  0.0061  0.6543  0.2499
 6277SOL    HW222874   1.166   6.010  10.273  0.8992  0.0580  1.4203
 6278SOL     OW22875   4.711   3.004   8.662 -0.0458  0.2553 -0.5052
 6278SOL    HW122876   4.783   2.943   8.682 -0.3877 -0.2532 -0.7911
 6278SOL    HW222877   4.750   3.068   8.603  1.1967  2.2397  2.2466
 6279SOL     OW22878   8.151   8.337   7.554  0.3649  0.1556 -0.0648
 6279SOL    HW122879   8.147   8.244   7.530  1.5174  0.4047 -1.4023
 6279SOL    HW222880   8.091   8.346   7.628  1.0119 -1.8527  0.7754
 6280SOL     OW22881   5.208   8.825   6.651 -0.3287  0.3013  0.1093
 6280SOL    HW122882   5.123   8.824   6.606  1.0593 -1.5637 -2.8218
 6280SOL    HW222883   5.215   8.739   6.692 -0.6288  1.1857  2.1029
 6281SOL     OW22884   6.573   6.055   2.009 -0.1963  0.2071 -0.7760
 6281SOL    HW122885   6.630   6.100   2.071 -0.6559 -0.0458 -0.1556
 6281SOL    HW222886   6.520   6.125   1.971 -0.9974  0.2096  0.2790
 6282SOL     OW22887   4.938   8.884   2.006  0.4742 -0.3469  0.9845
 6282SOL    HW122888   4.928   8.807   2.061 -1.5709 -0.1065  1.0049
 6282SOL    HW222889   4.907   8.857   1.920 -1.0477  0.6316  1.1816
 6283SOL     OW22890   9.748   3.357   2.922  1.0328  0.4943 -0.3906
 6283SOL    HW122891   9.747   3.410   2.842  1.1330 -0.9469 -1.3927
 6283SOL    HW222892   9.841   3.345   2.942  1.0172  2.1630  0.8959
 6284SOL     OW22893   3.934   5.435   0.269  0.4079 -0.0505  0.4429
 6284SOL    HW122894   3.856   5.463   0.221  0.6766  0.1972  0.1391
 6284SOL    HW222895   3.919   5.343   0.289 -0.2678  0.1801  1.0074
 6285SOL     OW22896   6.677   7.133   6.948  0.6457 -0.5986 -0.3802
 6285SOL    HW122897   6.619   7.162   6.877  0.6793  1.5173  0.3840
 6285SOL    HW222898   6.761   7.174   6.929  1.3999 -2.1033 -0.4474
 6286SOL     OW22899   1.184   6.015   0.434  0.1124 -0.0525  0.0449
 6286SOL    HW122900   1.275   6.040   0.453 -0.6279  0.8975  2.8293
 6286SOL    HW222901   1.157   6.075   0.365  1.5829 -0.3298 -0.7994
 6287SOL     OW22902   3.115   5.893   6.534  0.0174  0.1401  0.0081
 6287SOL    HW122903   3.114   5.874   6.440  2.6668  0.7985 -0.2545
 6287SOL    HW222904   3.081   5.982   6.540  1.5531  0.8148 -0.6195
 6288SOL     OW22905   3.286   9.892   1.817 -0.0315  0.3287  0.2601
 6288SOL    HW122906   3.201   9.892   1.771 -0.7197 -2.3219  1.3609
 6288SOL    HW222907   3.273   9.952   1.890 -0.3996  1.1575 -0.4537
 6289SOL     OW22908   3.832   6.620   1.919 -0.6999 -0.2191  0.1298
 6289SOL    HW122909   3.863   6.707   1.897  0.1038 -0.1354  1.4933
 6289SOL    HW222910   3.897   6.561   1.879 -0.2796 -0.1284  0.6663
 6290SOL     OW22911   2.345   5.618   4.075 -0.2398  0.2951 -0.5357
 6290SOL    HW122912   2.435   5.642   4.052 -0.6801  2.4139 -0.2792
 6290SOL    HW222913   2.331   5.535   4.031  1.7639  0.0253 -0.7756
 6291SOL     OW22914   5.814   5.101   0.838  0.5419 -0.5700  0.1411
 6291SOL    HW122915   5.801   5.189   0.873  0.1954 -0.4118 -0.3662
 6291SOL    HW222916   5.902   5.077   0.865  1.2327  0.5547 -1.0016
 6292SOL     OW22917   2.584   4.557   9.895 -0.2280 -0.3997 -0.1608
 6292SOL    HW122918   2.491   4.561   9.872  0.0549 -1.7103 -1.7088
 6292SOL    HW222919   2.614   4.475   9.857  1.6200  0.0941  0.1545
 6293SOL     OW22920   5.537   7.966   9.163 -0.5594 -0.1174  0.2709
 6293SOL    HW122921   5.528   7.973   9.258 -1.2488  1.2168  0.1268
 6293SOL    HW222922   5.619   8.012   9.143 -0.9907  0.6203  0.1302
 6294SOL     OW22923   6.737   0.140   0.385  0.4198 -0.0010  0.9332
 6294SOL    HW122924   6.812   0.184   0.426  0.7924 -1.1448  1.5263
 6294SOL    HW222925   6.758   0.138   0.292 -1.3761  4.5201  0.1792
 6295SOL     OW22926   2.633   8.086   7.093 -0.1247  0.6570 -0.0171
 6295SOL    HW122927   2.705   8.057   7.150  0.5963  0.8708 -0.7982
 6295SOL    HW222928   2.602   8.006   7.051 -0.4228  0.5496  0.3983
 6296SOL     OW22929   9.179   4.732   2.989 -0.4251 -0.0406  0.3848
 6296SOL    HW122930   9.264   4.754   2.952 -0.9226  0.2211 -0.6668
 6296SOL    HW222931   9.119   4.797   2.950 -1.3652 -1.1777 -0.1375
 6297SOL     OW22932   5.715   6.718   6.784  0.4745 -0.0251  0.3636
 6297SOL    HW122933   5.777   6.674   6.727  0.2426  0.2057 -0.0713
 6297SOL    HW222934   5.629   6.696   6.748  0.3003 -0.3347  0.9544
 6298SOL     OW22935   6.477   7.025   7.587 -0.0222  0.0939  0.0575
 6298SOL    HW122936   6.508   6.950   7.536  0.4593  0.5273 -0.2886
 6298SOL    HW222937   6.451   6.987   7.671 -3.9780 -1.1817 -1.5215
 6299SOL     OW22938   6.595   6.695   4.007  0.2833  0.5133  0.1040
 6299SOL    HW122939   6.616   6.686   3.914 -0.5416  2.2755 -0.2996
 6299SOL    HW222940   6.505   6.664   4.014 -0.1467  1.6838  0.0152
 6300SOL     OW22941   3.980   0.212   4.496 -0.0657  0.3431  0.3760
 6300SOL    HW122942   4.061   0.237   4.541  0.4632 -0.3164 -0.1853
 6300SOL    HW222943   3.913   0.214   4.564  0.3198  1.4124  0.7390
 6301SOL     OW22944   0.064   6.125   8.671  0.0926  0.1079  0.2656
 6301SOL    HW122945   0.052   6.209   8.717  0.5474  0.3449 -0.0345
 6301SOL    HW222946   0.159   6.117   8.662  0.0413  1.9196 -3.9493
 6302SOL     OW22947   7.895   4.618   2.690 -0.8286 -0.0754  0.0762
 6302SOL    HW122948   7.919   4.661   2.608  0.0784  2.0350  1.3668
 6302SOL    HW222949   7.889   4.525   2.668 -1.1327  0.4838 -2.4743
 6303SOL     OW22950   6.309   1.928   5.902 -0.7053  0.3822 -0.0132
 6303SOL    HW122951   6.265   1.963   5.980 -2.2677 -0.7405 -0.3457
 6303SOL    HW222952   6.402   1.946   5.917 -0.9334  0.0160  2.2109
 6304SOL     OW22953   2.809   7.911   1.728  0.1589  0.4023 -0.1090
 6304SOL    HW122954   2.843   7.833   1.684  0.1937  1.3182 -1.7520
 6304SOL    HW222955   2.886   7.958   1.758  0.2313  0.8252 -0.9370
 6305SOL     OW22956   5.778   5.701   0.031 -0.9057 -0.0838 -0.4892
 6305SOL    HW122957   5.847   5.761   0.001 -1.3267 -0.0557 -1.4367
 6305SOL    HW222958   5.810   5.668   0.115 -0.1834  0.6654 -0.4571
 6306SOL     OW22959   6.262   6.437   4.902  0.4061  0.2268 -0.2721
 6306SOL    HW122960   6.274   6.353   4.858 -0.6670  0.5538 -1.2430
 6306SOL    HW222961   6.200   6.485   4.846  0.7710  1.5525  0.4098
 6307SOL     OW22962   8.081   4.089   1.018 -0.8061 -0.4279 -0.1858
 6307SOL    HW122963   8.029   4.039   0.954 -0.3721 -0.3584 -0.5968
 6307SOL    HW222964   8.123   4.157   0.966 -1.5496  0.5118  0.4015
 6308SOL     OW22965   4.547   1.007   8.336 -0.6189  0.1971  0.3695
 6308SOL    HW122966   4.606   0.994   8.410  0.6740  0.8082 -0.5189
 6308SOL    HW222967   4.562   1.098   8.310 -1.5380  0.1821 -0.2548
 6309SOL     OW22968   0.624   6.600   8.594  0.0691 -0.5770 -0.1741
 6309SOL    HW122969   0.567   6.648   8.654 -0.1691 -0.6182 -0.3636
 6309SOL    HW222970   0.632   6.658   8.518 -0.6502 -1.0599 -0.6257
 6310SOL     OW22971   7.137   8.022   2.242  0.0706 -0.0346 -0.5704
 6310SOL    HW122972   7.145   7.937   2.198 -0.2218  0.1018 -0.8915
 6310SOL    HW222973   7.190   8.081   2.189  2.0277 -0.4363  0.8226
 6311SOL     OW22974   9.713   7.500   6.124  0.3984 -0.3700  0.5883
 6311SOL    HW122975   9.677   7.412   6.115  0.1061 -0.2404  0.4767
 6311SOL    HW222976   9.675   7.534   6.205 -0.2157 -0.0068  0.1550
 6312SOL     OW22977   9.172   0.140   9.807  0.3913 -0.5701 -0.0391
 6312SOL    HW122978   9.186   0.197   9.882 -2.0130  0.5456 -0.3250
 6312SOL    HW222979   9.233   0.172   9.740  1.0780 -0.2200  0.7448
 6313SOL     OW22980   3.945   3.904   6.141  0.7503 -0.1074  0.3448
 6313SOL    HW122981   3.909   3.951   6.216 -2.2067 -0.0820 -0.9626
 6313SOL    HW222982   4.021   3.957   6.115 -0.4410  2.0738  0.9996
 6314SOL     OW22983   0.809   7.219   7.106  0.0677 -0.1476  0.0437
 6314SOL    HW122984   0.765   7.148   7.153 -1.2328  0.6017  0.0062
 6314SOL    HW222985   0.766   7.221   7.020  1.4476 -0.5764 -0.7028
 6315SOL     OW22986   1.483   3.075   4.688 -0.5237 -0.4477 -0.3334
 6315SOL    HW122987   1.519   3.144   4.634  0.6405 -0.3970  0.4544
 6315SOL    HW222988   1.471   3.115   4.774  0.3243 -1.2491  0.1786
 6316SOL     OW22989   4.643   4.285   2.385 -0.7268 -0.1487  0.0305
 6316SOL    HW122990   4.571   4.243   2.338 -0.1319 -0.7781 -0.3398
 6316SOL    HW222991   4.603   4.360   2.429 -1.5401 -0.2990 -0.4388
 6317SOL     OW22992   9.777   4.229   9.877  0.5804 -0.3077  0.0588
 6317SOL    HW122993   9.707   4.232   9.812  0.8976  1.8420 -0.2398
 6317SOL    HW222994   9.772   4.140   9.913 -2.2724 -0.2468  0.0196
 6318SOL     OW22995   3.295   7.265   6.657  0.5017 -0.1738 -0.7453
 6318SOL    HW122996   3.332   7.328   6.720 -0.6606 -0.5200  0.3190
 6318SOL    HW222997   3.203   7.292   6.648  0.5544 -0.3572 -2.0420
 6319SOL     OW22998   9.656   5.303   3.498  0.0551  0.2035  0.3892
 6319SOL    HW122999   9.623   5.392   3.487  0.2474  0.4696  1.8366
 6319SOL    HW223000   9.717   5.291   3.425 -0.9448  0.7589 -0.5870
 6320SOL     OW23001   6.737   9.618   4.303 -0.3465  0.7520 -0.3247
 6320SOL    HW123002   6.757   9.709   4.323 -0.7658  1.0681 -1.2992
 6320SOL    HW223003   6.664   9.597   4.361  0.1890  0.8166  0.3872
 6321SOL     OW23004   1.729   9.635   0.563 -0.8033  0.2403  0.0027
 6321SOL    HW123005   1.712   9.541   0.556  0.6035 -0.0749  0.6099
 6321SOL    HW223006   1.821   9.642   0.588 -0.4842  1.8210 -1.4099
 6322SOL     OW23007   1.688   7.760   5.947 -0.3416  0.1894 -0.5218
 6322SOL    HW123008   1.694   7.755   5.851 -1.2729  1.2290 -0.6546
 6322SOL    HW223009   1.778   7.748   5.977 -0.2834 -2.0851 -1.4063
 6323SOL     OW23010   1.005   9.089   4.252  0.4620 -0.5195 -0.3942
 6323SOL    HW123011   0.970   9.007   4.287  0.3057  0.8939  3.1519
 6323SOL    HW223012   0.944   9.157   4.283  1.0040  1.0848 -2.5665
 6324SOL     OW23013   1.832   2.066   2.748 -0.1082  0.2283  0.3661
 6324SOL    HW123014   1.907   2.122   2.771 -0.6437  0.8844  0.5360
 6324SOL    HW223015   1.776   2.122   2.695  0.1196 -0.6483 -0.8351
 6325SOL     OW23016   1.667   7.583   6.338  0.4208  1.0629  0.2638
 6325SOL    HW123017   1.630   7.565   6.425  1.9424 -3.1903  0.3018
 6325SOL    HW223018   1.735   7.648   6.353 -1.0071  2.2937  1.7436
 6326SOL     OW23019   9.342   7.234   6.829 -0.1573  0.5073  0.1819
 6326SOL    HW123020   9.263   7.246   6.775  0.7595  0.9510 -1.1069
 6326SOL    HW223021   9.392   7.315   6.816 -0.5301  1.2714  2.8495
 6327SOL     OW23022   1.644   5.696   2.374  0.2795 -0.4837 -0.1336
 6327SOL    HW123023   1.589   5.646   2.435 -0.5496  1.9482  1.2341
 6327SOL    HW223024   1.595   5.693   2.291 -0.8566 -0.1774  0.4969
 6328SOL     OW23025   4.940   3.750   0.481  0.0331 -0.1371 -0.1694
 6328SOL    HW123026   5.016   3.720   0.530  0.7967  0.7189 -0.7988
 6328SOL    HW223027   4.869   3.692   0.508  1.5804 -3.0600 -1.9536
 6329SOL     OW23028   0.132   0.648   0.694 -0.5647  0.1937 -0.3042
 6329SOL    HW123029   0.150   0.559   0.724  1.8028  0.9696  0.7939
 6329SOL    HW223030   0.116   0.640   0.600  0.3204 -1.3071 -0.3488
 6330SOL     OW23031   1.066   8.384   4.603 -0.0670  0.0528  0.5663
 6330SOL    HW123032   1.121   8.317   4.644  0.2771  0.6342  1.0839
 6330SOL    HW223033   1.085   8.464   4.653  0.7652  0.9338 -1.0500
 6331SOL     OW23034   5.251   1.331   0.220  0.2180 -0.2343  0.0988
 6331SOL    HW123035   5.279   1.257   0.273  0.6385 -0.4283 -0.3926
 6331SOL    HW223036   5.156   1.321   0.213  0.1397 -0.1201  0.9418
 6332SOL     OW23037   1.683   0.693   4.432  0.2904  0.1642  0.3203
 6332SOL    HW123038   1.775   0.721   4.427  0.0393  0.8464 -1.0671
 6332SOL    HW223039   1.686   0.608   4.476  1.4624  0.6769  1.2986
 6333SOL     OW23040  10.224   0.619   6.922  0.0270 -0.5922  0.5274
 6333SOL    HW123041  10.256   0.709   6.924 -0.4553 -0.3607 -0.8819
 6333SOL    HW223042  10.203   0.598   7.013  0.7625  0.4886  0.9566
 6334SOL     OW23043   4.907   9.045   3.509 -0.2600 -0.5670  0.2278
 6334SOL    HW123044   4.845   9.083   3.447  0.6158 -0.4539 -0.5900
 6334SOL    HW223045   4.855   8.981   3.559 -1.1078 -0.2235 -0.2020
 6335SOL     OW23046   8.238   2.800   0.574  0.1047 -0.4270 -0.2089
 6335SOL    HW123047   8.229   2.718   0.525  3.0770 -0.6310 -0.5677
 6335SOL    HW223048   8.324   2.794   0.616 -0.2803  1.8372  1.0658
 6336SOL     OW23049   7.446   4.618   7.954 -0.1229  0.4787 -0.1316
 6336SOL    HW123050   7.391   4.580   8.023  1.3089 -0.5423  0.5067
 6336SOL    HW223051   7.526   4.564   7.954  0.7357  1.6677 -1.2680
 6337SOL     OW23052   6.785   6.817   1.226 -0.0128 -0.1226 -0.4153
 6337SOL    HW123053   6.844   6.890   1.244  0.3549 -0.3081 -0.8491
 6337SOL    HW223054   6.721   6.820   1.297 -0.1049  0.7250 -0.5128
 6338SOL     OW23055   1.996   1.032   9.730 -0.1978  0.0905  0.3261
 6338SOL    HW123056   2.006   0.946   9.691  1.7345  1.0505 -1.5260
 6338SOL    HW223057   2.084   1.070   9.726 -1.0035  2.1588  1.0057
 6339SOL     OW23058   5.876   9.272   0.918 -0.2294 -0.3370  0.1541
 6339SOL    HW123059   5.803   9.239   0.865 -0.5545 -1.5597  1.3103
 6339SOL    HW223060   5.954   9.232   0.879 -0.4485 -1.0906  0.4748
 6340SOL     OW23061   8.595   3.295   2.615  0.8508 -0.0646  0.3745
 6340SOL    HW123062   8.546   3.214   2.630  1.3869 -0.6662 -0.9365
 6340SOL    HW223063   8.593   3.341   2.699 -0.7023 -0.7508  0.7462
 6341SOL     OW23064   9.657   8.632   1.737  0.7813  0.0468 -0.0575
 6341SOL    HW123065   9.569   8.667   1.754  0.2862 -0.9918 -0.3967
 6341SOL    HW223066   9.670   8.647   1.643  0.5738 -0.6271 -0.2016
 6342SOL     OW23067   9.162   7.311   4.627  1.0203 -0.0921 -0.9497
 6342SOL    HW123068   9.115   7.393   4.638  2.4270  0.7201 -0.7599
 6342SOL    HW223069   9.151   7.289   4.534 -1.8858 -1.3261 -0.4089
 6343SOL     OW23070   6.663   6.529   0.120  0.2134  0.1247 -0.5514
 6343SOL    HW123071   6.706   6.600   0.073 -1.0082  0.2744 -1.4780
 6343SOL    HW223072   6.610   6.573   0.187 -0.1395  0.0552 -0.7858
 6344SOL     OW23073   0.270   9.804   4.655 -0.5241  0.6008  0.1213
 6344SOL    HW123074   0.207   9.792   4.726  0.0632  0.2290  0.5754
 6344SOL    HW223075   0.317   9.884   4.677  0.1186  0.1246  0.5013
 6345SOL     OW23076   4.959   7.961   3.450 -0.5376  0.4996 -0.4977
 6345SOL    HW123077   4.958   8.036   3.510 -2.2225  0.9911 -1.0923
 6345SOL    HW223078   5.052   7.945   3.434 -0.1324  2.6267 -0.5379
 6346SOL     OW23079   1.743   0.186   5.245 -0.7903 -0.3623  0.5149
 6346SOL    HW123080   1.756   0.279   5.229  1.8179 -0.5265  1.2020
 6346SOL    HW223081   1.664   0.164   5.196  0.1521  1.6005 -2.1560
 6347SOL     OW23082   5.407   9.237   2.561 -0.1649  0.0021 -0.1469
 6347SOL    HW123083   5.443   9.272   2.643 -0.0503  0.5370 -0.4177
 6347SOL    HW223084   5.315   9.264   2.562  0.2337  1.5201 -0.9766
 6348SOL     OW23085   2.992   2.897   6.172 -0.3443  0.8735  0.6467
 6348SOL    HW123086   2.954   2.983   6.185  1.4177  1.7097  0.6296
 6348SOL    HW223087   3.077   2.915   6.132  0.5801 -0.7948  1.7502
 6349SOL     OW23088   5.499   3.715   1.297 -0.0871  0.3979  0.0274
 6349SOL    HW123089   5.457   3.771   1.362 -1.1071  1.6315 -1.6163
 6349SOL    HW223090   5.448   3.728   1.217  0.1560 -2.2474 -0.6749
 6350SOL     OW23091   7.442   2.663   1.023  0.2163 -0.2027  0.5763
 6350SOL    HW123092   7.489   2.677   1.105 -0.9295  0.4556  1.1446
 6350SOL    HW223093   7.399   2.747   1.006 -0.0612 -0.5285 -0.3706
 6351SOL     OW23094   2.609   0.500   8.125  1.0150  0.0524 -0.6858
 6351SOL    HW123095   2.603   0.500   8.221  1.2885  0.2191 -0.6661
 6351SOL    HW223096   2.542   0.562   8.097  1.0359  0.1172 -0.5932
 6352SOL     OW23097   1.244   9.649   5.285  0.8330  0.5193  0.0266
 6352SOL    HW123098   1.260   9.573   5.230  1.2684  0.5858  0.0604
 6352SOL    HW223099   1.170   9.624   5.340  1.1030  0.0452  0.1783
 6353SOL     OW23100   1.715   7.877   8.824  0.5600  0.1555  0.4445
 6353SOL    HW123101   1.656   7.945   8.857  0.5811  0.8153 -0.8061
 6353SOL    HW223102   1.767   7.921   8.756  1.9086 -0.6289  0.9174
 6354SOL     OW23103   7.668   5.434   9.906 -0.0769 -0.0430 -0.2245
 6354SOL    HW123104   7.576   5.432   9.881  0.6136 -0.3621 -3.0355
 6354SOL    HW223105   7.693   5.526   9.899 -0.1134  0.0087  0.3019
 6355SOL     OW23106   2.661   0.113   1.575 -0.4316 -0.0960  0.4753
 6355SOL    HW123107   2.617   0.184   1.622 -0.0214  1.2328 -1.0720
 6355SOL    HW223108   2.681   0.149   1.489 -0.6876 -2.2828 -0.5785
 6356SOL     OW23109   6.234   3.001   2.170  0.3683 -0.0681 -0.1158
 6356SOL    HW123110   6.165   3.060   2.201 -0.9234 -1.3886 -0.3576
 6356SOL    HW223111   6.284   3.054   2.108 -0.4012  0.9494  0.0924
 6357SOL     OW23112   6.806   5.480   3.301  0.1865 -0.0085  0.3286
 6357SOL    HW123113   6.762   5.541   3.359  0.4963  0.5757 -0.0438
 6357SOL    HW223114   6.742   5.460   3.233 -0.6532 -1.7203  1.5502
 6358SOL     OW23115   2.620   7.406   8.028  0.3699 -0.0855 -0.0550
 6358SOL    HW123116   2.709   7.370   8.037  0.9905  1.0254 -1.3273
 6358SOL    HW223117   2.633   7.501   8.028 -1.0034  0.1398  1.1625
 6359SOL     OW23118   6.034   4.899   2.417 -0.3562 -0.3108 -0.1114
 6359SOL    HW123119   6.122   4.866   2.437 -0.5729 -0.1988  1.0930
 6359SOL    HW223120   6.007   4.848   2.340 -0.3357 -2.3390  1.1556
 6360SOL     OW23121   4.805   9.466   2.564 -0.2793  0.2473 -0.1223
 6360SOL    HW123122   4.733   9.505   2.614 -0.7067 -0.7739  0.0778
 6360SOL    HW223123   4.864   9.430   2.631  0.4540  1.1114 -0.2819
 6361SOL     OW23124   7.474   9.946   5.209 -0.3951  0.0696  0.8128
 6361SOL    HW123125   7.461   9.897   5.128 -1.9295  0.6898  0.6355
 6361SOL    HW223126   7.426   9.897   5.275 -0.1427  0.1883  1.0868
 6362SOL     OW23127   4.604   2.057   1.299 -0.3181 -0.4669 -0.3093
 6362SOL    HW123128   4.565   2.095   1.378  1.4114  2.2278 -0.6293
 6362SOL    HW223129   4.668   1.993   1.332 -1.6828 -1.5827  0.3123
 6363SOL     OW23130   6.707   4.842   7.043  0.4134  0.0978 -0.4473
 6363SOL    HW123131   6.787   4.791   7.051  1.1402  1.2343 -0.1708
 6363SOL    HW223132   6.667   4.812   6.961  1.0327 -0.6076 -0.4989
 6364SOL     OW23133   8.958   8.928   3.732 -0.6362  0.7148 -0.1958
 6364SOL    HW123134   8.866   8.950   3.717 -0.4002  1.0799 -1.1995
 6364SOL    HW223135   9.006   9.002   3.695  0.1368 -0.6269 -2.0354
 6365SOL     OW23136   5.546   9.052   8.923  0.2591 -0.1927 -0.0900
 6365SOL    HW123137   5.539   9.037   9.017  0.2123  0.1874 -0.0310
 6365SOL    HW223138   5.586   9.139   8.915 -0.6478  0.2070 -0.4237
 6366SOL     OW23139   8.042   2.469   8.822  0.3727 -0.6589 -0.3317
 6366SOL    HW123140   7.956   2.510   8.830 -1.1404 -3.8461  1.6825
 6366SOL    HW223141   8.033   2.406   8.751  2.1201  1.0017 -2.1855
 6367SOL     OW23142   5.651   9.903   6.829  0.1516  0.3177 -0.0457
 6367SOL    HW123143   5.600   9.971   6.784 -0.3203  0.0726  0.1145
 6367SOL    HW223144   5.734   9.947   6.851 -0.3367  0.9949  0.4953
 6368SOL     OW23145   1.493   4.467   5.275 -0.0578 -0.0324  0.1714
 6368SOL    HW123146   1.499   4.494   5.367  0.8465 -0.2127  0.1815
 6368SOL    HW223147   1.404   4.487   5.249  0.1340  1.4912  0.6357
 6369SOL     OW23148   2.202   1.627   1.377  0.2479 -0.2956 -0.0118
 6369SOL    HW123149   2.257   1.549   1.385  0.2095 -0.3285 -0.0625
 6369SOL    HW223150   2.211   1.672   1.461  0.5391 -0.1766 -0.1066
 6370SOL     OW23151   1.983   5.901   5.185 -0.0204 -0.7114  0.1815
 6370SOL    HW123152   1.975   5.947   5.269  0.4599 -0.4959  0.1146
 6370SOL    HW223153   1.896   5.908   5.145 -0.2167 -0.7095  0.6074
 6371SOL     OW23154   1.708   9.528   8.431 -0.6426  1.1836 -0.0911
 6371SOL    HW123155   1.744   9.472   8.500 -0.6931  0.9093 -0.2838
 6371SOL    HW223156   1.630   9.482   8.401 -1.5324  2.0960  0.7687
 6372SOL     OW23157   7.753   6.434   4.549 -0.0449  0.0739 -0.0446
 6372SOL    HW123158   7.761   6.507   4.610  0.0222 -0.5579  0.7131
 6372SOL    HW223159   7.844   6.409   4.529 -0.0614  0.4832 -0.6621
 6373SOL     OW23160   9.470  10.157   2.763 -0.1619 -0.6721 -0.3980
 6373SOL    HW123161   9.430  10.243   2.773  1.0030 -0.1737  0.2807
 6373SOL    HW223162   9.399  10.094   2.777 -0.8408  0.1734  0.0039
 6374SOL     OW23163   5.001   0.829   2.633  0.2815  0.1318  0.4234
 6374SOL    HW123164   5.062   0.756   2.635 -0.3650 -0.4048  1.0011
 6374SOL    HW223165   4.997   0.860   2.724 -0.7319 -0.2184  0.5163
 6375SOL     OW23166   3.252   2.549   1.655 -0.2836 -0.6008 -0.5360
 6375SOL    HW123167   3.310   2.565   1.730 -1.6934 -0.4397  0.5756
 6375SOL    HW223168   3.237   2.454   1.657 -2.5548 -0.2988  1.2109
 6376SOL     OW23169   0.030   4.878   1.614 -0.5187  0.3371 -0.0440
 6376SOL    HW123170  -0.045   4.883   1.554 -0.0507 -0.2914 -0.7001
 6376SOL    HW223171   0.050   4.784   1.619 -1.0102  0.2954  1.6856
 6377SOL     OW23172   3.187   0.704   4.107  0.0660  0.6588 -0.2074
 6377SOL    HW123173   3.279   0.725   4.090  0.4577  0.1437  1.1458
 6377SOL    HW223174   3.189   0.621   4.154 -1.0636  0.8445  0.2116
 6378SOL     OW23175   0.183   6.893   2.928 -0.0121 -0.2330 -0.1242
 6378SOL    HW123176   0.225   6.862   3.008  0.3098 -0.2314 -0.2890
 6378SOL    HW223177   0.255   6.907   2.867 -0.1637  0.6670 -0.1179
 6379SOL     OW23178   2.048   8.747   7.567 -0.5781  0.2233 -0.2376
 6379SOL    HW123179   2.101   8.814   7.610 -0.9990 -0.0043  0.6576
 6379SOL    HW223180   2.110   8.677   7.547 -0.4898  0.0562  0.5953
 6380SOL     OW23181   1.469   1.327   5.472 -0.2189 -0.2542  0.4912
 6380SOL    HW123182   1.524   1.397   5.505 -0.1208 -0.6122  1.1194
 6380SOL    HW223183   1.461   1.343   5.378  2.5546 -1.2833  0.0046
 6381SOL     OW23184   6.974   1.337   3.562  0.3308  0.9388 -0.0502
 6381SOL    HW123185   6.886   1.355   3.529 -0.2192 -0.5137  0.5438
 6381SOL    HW223186   6.979   1.241   3.566  1.9213  0.9928 -0.0128
 6382SOL     OW23187   8.892   0.214   9.958 -0.2433  0.1803  0.2631
 6382SOL    HW123188   8.901   0.248   9.869 -0.1479  0.3325  0.3299
 6382SOL    HW223189   8.834   0.276  10.002  1.5362  1.4425  0.9850
 6383SOL     OW23190   1.535   4.983   0.853  0.3622 -0.9742  0.0645
 6383SOL    HW123191   1.529   5.008   0.945 -0.3624  0.7810 -0.4182
 6383SOL    HW223192   1.551   5.065   0.807 -1.0981 -1.5276 -1.5375
 6384SOL     OW23193   5.936   5.939   0.858  0.3432 -0.2689  0.6833
 6384SOL    HW123194   5.985   5.876   0.911  3.1771  0.8600 -0.4521
 6384SOL    HW223195   5.989   6.018   0.859 -2.6273  1.9103  1.2717
 6385SOL     OW23196   5.383   9.414   1.011  0.6724  0.3030 -0.4068
 6385SOL    HW123197   5.395   9.410   1.106  1.4377  1.9661 -0.4020
 6385SOL    HW223198   5.383   9.507   0.990  1.5246 -0.0363 -2.1563
 6386SOL     OW23199   1.813   7.170   9.331 -0.6237  0.0702  0.0107
 6386SOL    HW123200   1.776   7.104   9.273  0.8532 -1.2380  0.4999
 6386SOL    HW223201   1.825   7.124   9.414 -1.3732  1.5133  0.9563
 6387SOL     OW23202   9.103   5.887   2.056 -0.1203 -0.4082 -0.0521
 6387SOL    HW123203   9.094   5.808   2.110  1.4997 -0.1996  0.5977
 6387SOL    HW223204   9.198   5.900   2.050 -0.3577  2.2574  0.9973
 6388SOL     OW23205   8.457   5.464   1.215  0.2141 -0.1921  0.2528
 6388SOL    HW123206   8.531   5.524   1.208  0.8299 -0.8300  1.0088
 6388SOL    HW223207   8.393   5.510   1.269 -0.3013  0.6860 -1.0617
 6389SOL     OW23208   5.477   5.059   0.501  0.6002 -0.0036  0.2716
 6389SOL    HW123209   5.427   5.097   0.428 -1.3635 -1.0078  1.0159
 6389SOL    HW223210   5.445   4.969   0.508  4.1154 -1.4589 -0.5465
 6390SOL     OW23211   0.758   1.866   7.681  0.2232  0.2261  0.4768
 6390SOL    HW123212   0.781   1.814   7.757  0.1607 -1.8426 -0.8279
 6390SOL    HW223213   0.809   1.828   7.609  0.5540  2.3293 -0.4644
 6391SOL     OW23214   1.807   6.517   5.061  0.2911 -0.0454  0.2312
 6391SOL    HW123215   1.872   6.587   5.070 -0.8502  1.0980 -0.1761
 6391SOL    HW223216   1.723   6.559   5.079 -0.3689 -1.4727  0.6347
 6392SOL     OW23217  10.176   0.597   2.535 -0.0116  0.5301 -0.3707
 6392SOL    HW123218  10.245   0.655   2.504 -0.4110  1.9229  1.1991
 6392SOL    HW223219  10.145   0.638   2.616 -1.8485 -0.7038 -0.3927
 6393SOL     OW23220   8.646   0.973   6.596  0.4231  0.1267 -0.4360
 6393SOL    HW123221   8.733   1.005   6.622  0.5131  0.5470 -1.2308
 6393SOL    HW223222   8.635   0.892   6.646  1.5203 -0.2419 -0.7464
 6394SOL     OW23223   8.223   4.884   2.208 -0.5525  0.3746 -0.1493
 6394SOL    HW123224   8.199   4.976   2.207 -0.8943  0.2918 -1.5400
 6394SOL    HW223225   8.316   4.883   2.185 -0.5293  0.3619 -0.0596
 6395SOL     OW23226   3.532   2.825   9.948 -0.3758  0.2554 -0.2085
 6395SOL    HW123227   3.624   2.807   9.965 -0.5985 -1.6226 -0.7496
 6395SOL    HW223228   3.486   2.787  10.023 -0.8769 -1.7930 -1.4672
 6396SOL     OW23229   9.431   8.718   0.427  0.4330 -0.2260 -0.3161
 6396SOL    HW123230   9.395   8.730   0.340 -0.2389  1.0146  0.1156
 6396SOL    HW223231   9.518   8.680   0.412  0.4655  0.2905 -1.5248
 6397SOL     OW23232   3.509   6.023   7.558  0.9477  0.4961 -0.2147
 6397SOL    HW123233   3.452   6.087   7.601  1.3206 -0.7630  2.3407
 6397SOL    HW223234   3.449   5.968   7.508 -0.5398 -1.8511  3.7324
 6398SOL     OW23235   6.168   4.569   5.812 -0.4697  0.2403 -0.3138
 6398SOL    HW123236   6.233   4.504   5.784 -1.2482 -0.3646 -0.7697
 6398SOL    HW223237   6.220   4.644   5.840  0.5414 -1.1861  1.8846
 6399SOL     OW23238   8.096   6.878  10.286 -0.0044  0.1200  0.1977
 6399SOL    HW123239   8.016   6.919  10.320  0.0509  0.2933  0.1194
 6399SOL    HW223240   8.167   6.929  10.324  0.1426 -1.2256  1.8632
 6400SOL     OW23241   3.595   5.331   6.536  0.3701 -0.2567  0.4518
 6400SOL    HW123242   3.613   5.237   6.543 -2.4813 -0.9281  0.2745
 6400SOL    HW223243   3.500   5.337   6.545  0.1673  2.3678 -2.1606
 6401SOL     OW23244   0.767   6.490   9.032  0.2472  0.0868 -0.8633
 6401SOL    HW123245   0.745   6.397   9.025 -0.4056  0.2099 -0.5013
 6401SOL    HW223246   0.688   6.532   9.065  0.7639  0.6708 -0.3185
 6402SOL     OW23247   0.627   6.200   8.224  0.5625  0.0263  1.0663
 6402SOL    HW123248   0.678   6.121   8.209  2.7667  1.4585  0.5774
 6402SOL    HW223249   0.611   6.201   8.319  0.1381 -1.1696  1.0269
 6403SOL     OW23250   1.375   0.765   4.653 -0.0739 -0.7145 -0.0970
 6403SOL    HW123251   1.438   0.828   4.616 -1.7586  1.5339  0.6632
 6403SOL    HW223252   1.369   0.696   4.587  4.0163 -1.7125  0.3013
 6404SOL     OW23253   2.052   6.583   1.527 -0.1939  0.1210 -0.3064
 6404SOL    HW123254   1.976   6.562   1.582  1.7923  0.6536  2.9258
 6404SOL    HW223255   2.109   6.507   1.534 -0.0031  0.0634 -2.0186
 6405SOL     OW23256   8.922   9.765   0.578  0.0298  0.7045  0.1586
 6405SOL    HW123257   8.871   9.802   0.650  1.0730  1.7948  0.3640
 6405SOL    HW223258   8.951   9.679   0.611 -0.7934  0.5245  0.4277
 6406SOL     OW23259   9.090   5.800   8.574  0.5769  0.4741  0.3572
 6406SOL    HW123260   9.148   5.741   8.623  0.5307  1.2178  1.3455
 6406SOL    HW223261   9.010   5.803   8.626  0.7783  1.8194  0.6201
 6407SOL     OW23262   1.941  10.273   7.972 -0.4346  0.1884  0.0301
 6407SOL    HW123263   1.978  10.185   7.975 -0.6219  0.1171  0.4547
 6407SOL    HW223264   1.887  10.274   7.893 -2.1370 -0.8032  1.1212
 6408SOL     OW23265   9.887   8.055   6.671  1.0500 -0.0178 -0.4250
 6408SOL    HW123266   9.840   8.137   6.660  1.6843  0.3534 -0.4694
 6408SOL    HW223267   9.913   8.030   6.583  1.7308  0.2754 -0.3185
 6409SOL     OW23268   0.470   9.403   5.057  0.3885  0.3818 -0.1390
 6409SOL    HW123269   0.543   9.443   5.105 -0.2125 -0.1540  1.2901
 6409SOL    HW223270   0.452   9.463   4.985  1.7741  0.8782 -0.1006
 6410SOL     OW23271   2.567   6.956   5.666 -0.0076  0.0304  0.4033
 6410SOL    HW123272   2.535   7.046   5.677 -0.3195 -0.1523  1.0597
 6410SOL    HW223273   2.487   6.904   5.652  0.0928 -0.2669  0.9185
 6411SOL     OW23274   9.187   6.091   0.076  0.3791  0.4609 -0.0416
 6411SOL    HW123275   9.150   6.179   0.071  0.8857  0.7330  0.7865
 6411SOL    HW223276   9.125   6.041   0.128  0.3034  0.4464 -0.1458
 6412SOL     OW23277   7.268   1.685   2.235 -0.2211 -0.2965  0.2988
 6412SOL    HW123278   7.351   1.730   2.254 -0.7431  0.3890  1.0547
 6412SOL    HW223279   7.292   1.594   2.222  0.5484 -0.2877  1.4822
 6413SOL     OW23280   3.396   1.777   0.735  0.3619 -0.1745  0.2864
 6413SOL    HW123281   3.369   1.779   0.827  0.5699  0.5728  0.3380
 6413SOL    HW223282   3.473   1.834   0.732  0.9624 -0.9995 -0.1624
 6414SOL     OW23283   2.366   2.771   3.765 -0.0932  0.1680  0.0060
 6414SOL    HW123284   2.384   2.859   3.796 -0.2355 -0.0240  0.6359
 6414SOL    HW223285   2.306   2.783   3.692 -0.3618  0.5717  0.2944
 6415SOL     OW23286   1.348   7.676   1.442  0.1520  0.4240 -0.9443
 6415SOL    HW123287   1.385   7.626   1.369 -2.0403 -0.7843 -1.3117
 6415SOL    HW223288   1.277   7.726   1.402 -0.9693 -0.1162  0.3212
 6416SOL     OW23289   0.656   0.419   7.808 -0.3282  0.3970 -0.4448
 6416SOL    HW123290   0.674   0.352   7.873 -2.2383 -0.2341 -0.5206
 6416SOL    HW223291   0.717   0.400   7.737  0.3132 -0.1995  0.2518
 6417SOL     OW23292   1.251   9.409   8.448  0.2813 -0.2058  0.4037
 6417SOL    HW123293   1.268   9.397   8.541  0.2665  1.6713  0.6894
 6417SOL    HW223294   1.181   9.474   8.444 -1.3135 -1.8649 -0.9156
 6418SOL     OW23295   2.769   0.540   5.118  0.5814 -0.3863 -0.4732
 6418SOL    HW123296   2.758   0.517   5.025  0.7557 -0.9155 -0.3631
 6418SOL    HW223297   2.800   0.631   5.116 -3.1100  1.0767 -0.8412
 6419SOL     OW23298   1.155   4.883   3.187  0.6871 -0.0785 -0.5240
 6419SOL    HW123299   1.199   4.887   3.102 -1.0261  0.1708 -1.4510
 6419SOL    HW223300   1.161   4.792   3.214  0.9354 -0.2311 -1.0859
 6420SOL     OW23301   9.729   4.136   0.433 -0.4092  0.3629  0.5181
 6420SOL    HW123302   9.718   4.214   0.488  0.6745  1.0220 -0.1537
 6420SOL    HW223303   9.720   4.169   0.344 -0.7028 -0.4279  0.2524
 6421SOL     OW23304   4.609   2.087   6.798  0.4440 -0.6001  0.2818
 6421SOL    HW123305   4.615   1.994   6.822  0.9982 -0.3217  1.2738
 6421SOL    HW223306   4.672   2.096   6.726  0.1104 -1.0710 -0.0733
 6422SOL     OW23307   6.407   0.844   8.353 -0.0868  0.0082 -0.4168
 6422SOL    HW123308   6.349   0.775   8.321 -0.7148  1.0250 -1.5511
 6422SOL    HW223309   6.442   0.885   8.273  2.2388 -0.5826  0.2242
 6423SOL     OW23310   8.596   4.769   7.165  0.2712  0.1838  0.0333
 6423SOL    HW123311   8.686   4.738   7.154  0.4311  1.0390 -1.3020
 6423SOL    HW223312   8.543   4.689   7.159  0.7762 -0.0783 -1.9514
 6424SOL     OW23313   7.097   3.294   6.760 -0.6105  0.6867  0.0814
 6424SOL    HW123314   7.133   3.379   6.786  0.9879 -0.1745  0.8610
 6424SOL    HW223315   7.173   3.242   6.734 -1.4952 -0.6538  0.0468
 6425SOL     OW23316   7.332   3.316   2.656  0.0848  0.2829  0.3833
 6425SOL    HW123317   7.413   3.323   2.707 -0.5219 -0.8364  1.5971
 6425SOL    HW223318   7.355   3.259   2.582  0.0975 -1.3132  1.5475
 6426SOL     OW23319  10.169   8.445   2.003 -0.0797 -0.3299  0.2574
 6426SOL    HW123320  10.125   8.423   2.085 -0.7202 -0.1741 -0.0379
 6426SOL    HW223321  10.104   8.427   1.935 -0.9274  2.9384 -0.0028
 6427SOL     OW23322   5.761   1.158   9.045 -0.1555  0.1530  0.1613
 6427SOL    HW123323   5.856   1.143   9.052  0.2678  0.8866 -2.6178
 6427SOL    HW223324   5.751   1.252   9.052 -0.4264  0.2527 -1.2926
 6428SOL     OW23325   5.915   0.520   3.018  0.5318 -0.5746 -0.0182
 6428SOL    HW123326   5.972   0.493   2.946  0.2993 -0.4433 -0.2518
 6428SOL    HW223327   5.949   0.605   3.045 -0.1775 -0.0088 -0.8429
 6429SOL     OW23328   1.940   7.367   7.544 -0.0563 -0.3685  0.3675
 6429SOL    HW123329   1.987   7.286   7.523  0.4249  0.5279 -2.5691
 6429SOL    HW223330   1.863   7.366   7.486 -0.0673  1.2111  0.3021
 6430SOL     OW23331   2.907   1.857   6.982  0.7691  0.3515 -0.1037
 6430SOL    HW123332   2.949   1.918   7.043 -0.9483  0.9031  0.5612
 6430SOL    HW223333   2.978   1.832   6.922  2.3327  0.3641  1.6330
 6431SOL     OW23334   1.211   2.752   1.782  0.3197 -0.3460 -0.3391
 6431SOL    HW123335   1.293   2.801   1.790  0.7986 -1.1309 -0.3855
 6431SOL    HW223336   1.167   2.763   1.866  0.3073  0.3615 -0.4337
 6432SOL     OW23337   6.483   7.965   7.492 -0.4979  0.6512 -0.1895
 6432SOL    HW123338   6.402   7.937   7.535 -0.4549 -0.1547 -0.6093
 6432SOL    HW223339   6.503   7.894   7.431  0.3251  1.0164 -0.3554
 6433SOL     OW23340   6.918   2.460   1.553 -0.2792  0.5007 -0.2281
 6433SOL    HW123341   6.873   2.504   1.625  0.1514 -0.1533  0.4630
 6433SOL    HW223342   6.986   2.408   1.596 -0.1187 -0.0293 -1.1017
 6434SOL     OW23343   6.473   2.865   3.905  0.2748  0.3262  0.3413
 6434SOL    HW123344   6.539   2.815   3.857 -2.2347 -2.3396 -0.6035
 6434SOL    HW223345   6.419   2.905   3.838  0.4734  1.9563  1.0949
 6435SOL     OW23346   8.536   1.123   7.090  0.2571  0.2679 -0.7570
 6435SOL    HW123347   8.508   1.083   7.172 -0.0688 -0.6692 -1.3065
 6435SOL    HW223348   8.472   1.093   7.025  0.0105  1.6887 -1.1936
 6436SOL     OW23349   1.958   2.825   4.834  0.1701 -0.0025 -0.2543
 6436SOL    HW123350   1.880   2.796   4.786 -0.1683  0.1886  0.1725
 6436SOL    HW223351   1.988   2.903   4.786 -0.4361  0.4615  0.1075
 6437SOL     OW23352   8.764   0.349   9.424 -0.0360 -0.1310 -0.0639
 6437SOL    HW123353   8.755   0.293   9.347 -0.2379 -0.5589  0.2722
 6437SOL    HW223354   8.707   0.310   9.490 -0.4441  0.6577  0.0655
 6438SOL     OW23355   8.147   5.274   0.496  0.4162 -0.1423  0.1410
 6438SOL    HW123356   8.214   5.273   0.428  0.9070 -1.5455  0.6104
 6438SOL    HW223357   8.172   5.346   0.554  2.0648 -1.1796  0.7949
 6439SOL     OW23358  10.253   1.894   7.131  0.2808  0.3189  0.0954
 6439SOL    HW123359  10.244   1.804   7.102 -1.2262  0.8547 -1.2922
 6439SOL    HW223360  10.209   1.945   7.063 -1.5935  1.8602  2.2903
 6440SOL     OW23361   4.845   1.790   1.630 -0.0716 -0.2506 -0.0102
 6440SOL    HW123362   4.863   1.852   1.701  0.3977 -0.4813  0.0758
 6440SOL    HW223363   4.827   1.845   1.554  0.9255 -0.0017 -0.0826
 6441SOL     OW23364   6.627   1.644   4.012  0.2640  0.2695  0.8619
 6441SOL    HW123365   6.662   1.711   3.952  0.6326 -1.1953 -0.6353
 6441SOL    HW223366   6.696   1.577   4.014 -0.4240 -0.4188  1.7098
 6442SOL     OW23367   9.947   8.198   3.637 -0.3872  0.2321 -0.4286
 6442SOL    HW123368   9.889   8.261   3.593 -1.6537 -0.5281  0.1157
 6442SOL    HW223369   9.889   8.145   3.690  0.8621 -0.3860  0.3564
 6443SOL     OW23370   0.968   4.905   4.108 -0.4598  0.4477  0.1345
 6443SOL    HW123371   0.906   4.858   4.053  2.1104 -0.0487 -2.5994
 6443SOL    HW223372   0.976   4.852   4.187 -1.7028 -0.7202 -0.4880
 6444SOL     OW23373   7.622   1.330   0.401  0.3533 -0.4607  0.2326
 6444SOL    HW123374   7.636   1.359   0.310  1.5226 -2.8314 -0.4057
 6444SOL    HW223375   7.595   1.410   0.447 -2.1671  0.5008 -2.5505
 6445SOL     OW23376   6.579   8.955   2.392  0.4232 -0.6616 -0.1320
 6445SOL    HW123377   6.527   8.909   2.458 -0.3533  1.4285  0.8184
 6445SOL    HW223378   6.525   9.029   2.367  2.8763  1.6794  0.9514
 6446SOL     OW23379   3.869   7.861   6.983  0.1296 -0.0703  0.2233
 6446SOL    HW123380   3.929   7.795   7.018  1.6135  0.7656 -0.6805
 6446SOL    HW223381   3.872   7.932   7.047 -0.0265 -0.0968  0.2603
 6447SOL     OW23382   7.588   9.917   7.259 -0.2539  0.2419  0.6182
 6447SOL    HW123383   7.664   9.867   7.289 -0.6247 -0.4558  0.4209
 6447SOL    HW223384   7.586   9.903   7.164  0.9284  2.4578  0.1967
 6448SOL     OW23385   9.655   7.657   7.045  0.8804  0.0185  0.3376
 6448SOL    HW123386   9.745   7.686   7.028  1.1511 -0.0917  1.4968
 6448SOL    HW223387   9.615   7.728   7.094  0.5540 -0.2285  0.4356
 6449SOL     OW23388   7.922   4.538   3.899 -0.4324  0.1455 -0.0931
 6449SOL    HW123389   7.976   4.487   3.838  0.0834 -0.2110  0.6369
 6449SOL    HW223390   7.945   4.503   3.985 -1.7626  0.0675  0.2459
 6450SOL     OW23391   2.437   8.755   3.934  0.2987 -0.1215 -0.5626
 6450SOL    HW123392   2.473   8.784   3.850  0.1731  0.4813 -0.4134
 6450SOL    HW223393   2.343   8.746   3.918  0.3616 -0.6497 -0.6610
 6451SOL     OW23394   0.373   1.640   1.204  0.3895 -0.0183  0.4881
 6451SOL    HW123395   0.394   1.732   1.218  0.7084 -0.1370  0.7838
 6451SOL    HW223396   0.289   1.642   1.157  0.3812  0.4194  0.5164
 6452SOL     OW23397   9.825   6.404   4.964  0.0756  0.4281 -0.0978
 6452SOL    HW123398   9.810   6.491   4.928  0.3667  0.0985 -1.0553
 6452SOL    HW223399   9.884   6.419   5.038  0.6617  0.9830 -0.6617
 6453SOL     OW23400   8.434   2.396   2.065 -0.4278 -0.2360 -0.5770
 6453SOL    HW123401   8.516   2.430   2.101  0.0219  0.2718 -2.0073
 6453SOL    HW223402   8.367   2.423   2.129  0.2057  1.4640 -0.5691
 6454SOL     OW23403   9.409   6.500   0.356 -0.1274 -0.0821  0.1557
 6454SOL    HW123404   9.475   6.445   0.398  0.5299  0.4848 -0.0958
 6454SOL    HW223405   9.457   6.545   0.286 -1.0976 -0.6810 -0.9276
 6455SOL     OW23406   4.009   3.989   6.771 -0.1479  0.1875  0.2135
 6455SOL    HW123407   3.952   4.012   6.697 -0.0269 -0.4310 -0.0728
 6455SOL    HW223408   4.053   3.909   6.744  0.2237  0.1926  0.7855
 6456SOL     OW23409   1.093   2.631   9.528 -0.1174  0.0374  0.1849
 6456SOL    HW123410   1.079   2.601   9.618 -3.2965  0.0086 -0.2106
 6456SOL    HW223411   1.189   2.636   9.520  0.4192 -2.8776  2.5735
 6457SOL     OW23412   7.153   7.166   0.822  0.2643 -0.1771  0.3229
 6457SOL    HW123413   7.084   7.176   0.756 -0.1166 -0.1889  0.7180
 6457SOL    HW223414   7.164   7.253   0.860  0.2653 -0.2382  0.4635
 6458SOL     OW23415   3.494   5.420   8.311 -0.1698  0.1238 -0.2560
 6458SOL    HW123416   3.424   5.451   8.369 -0.3773 -0.0691 -0.4019
 6458SOL    HW223417   3.527   5.499   8.269 -1.2742  0.0655 -1.2746
 6459SOL     OW23418   6.610   5.242   2.687 -0.1482  0.4445 -0.0803
 6459SOL    HW123419   6.580   5.314   2.632  0.6720  0.2361 -0.8122
 6459SOL    HW223420   6.641   5.175   2.626 -0.6460 -0.4253  0.5958
 6460SOL     OW23421   2.043   7.538  10.029  0.0787 -0.1501 -0.2827
 6460SOL    HW123422   2.045   7.550  10.124  1.2556 -1.6321 -0.0883
 6460SOL    HW223423   2.109   7.600   9.996  0.4855 -0.4506 -0.0317
 6461SOL     OW23424   6.483  10.187   2.710 -0.8194 -0.1058  0.2975
 6461SOL    HW123425   6.512  10.253   2.648  0.5695 -2.7440 -2.0720
 6461SOL    HW223426   6.561  10.164   2.761 -1.2704 -0.0024  1.0577
 6462SOL     OW23427   6.322   8.342   5.919  0.2335 -1.2224  0.1237
 6462SOL    HW123428   6.245   8.380   5.962  0.3454 -1.1462  0.2598
 6462SOL    HW223429   6.381   8.417   5.908  0.2916 -1.2829  0.0250
 6463SOL     OW23430   3.143   5.777   6.284  0.4424 -0.0891 -0.4876
 6463SOL    HW123431   3.159   5.831   6.206 -0.7071  0.7232 -0.1888
 6463SOL    HW223432   3.104   5.697   6.250 -0.2957  0.3677 -0.7470
 6464SOL     OW23433   3.579   1.289   0.647  0.2045 -0.8224  0.1160
 6464SOL    HW123434   3.620   1.210   0.611  0.9653 -0.8410  0.9986
 6464SOL    HW223435   3.543   1.334   0.570  0.5385 -1.5771 -0.4992
 6465SOL     OW23436   2.014   5.392   5.123  0.0092  0.3887  0.0730
 6465SOL    HW123437   2.024   5.481   5.157  0.0039  0.1217  0.7872
 6465SOL    HW223438   1.938   5.397   5.065 -0.8342  0.5478  1.1756
 6466SOL     OW23439   5.985   3.703   9.048  0.1119 -0.0662  0.0110
 6466SOL    HW123440   5.894   3.714   9.075  0.6326  0.1161  1.7663
 6466SOL    HW223441   6.037   3.742   9.118  1.5925 -1.3506 -0.2989
 6467SOL     OW23442   6.650   5.781   6.075 -0.8028  0.3141 -0.2262
 6467SOL    HW123443   6.611   5.827   6.001 -1.8270 -1.4741 -0.8732
 6467SOL    HW223444   6.720   5.839   6.105  0.2595  0.7328 -3.1511
 6468SOL     OW23445   1.450   0.050   4.541 -0.2766 -0.3727 -0.1983
 6468SOL    HW123446   1.399   0.130   4.549  0.6474  0.4307 -1.6648
 6468SOL    HW223447   1.396  -0.008   4.487  0.1176  0.3043 -1.3684
 6469SOL     OW23448  10.152   1.001   7.222 -0.3090 -0.3021  0.0287
 6469SOL    HW123449  10.177   0.995   7.130 -0.3722 -1.0768  0.0614
 6469SOL    HW223450  10.070   0.953   7.228 -0.7915  0.5373  0.3151
 6470SOL     OW23451   1.995   9.870   6.493 -0.1646  0.1788  0.3664
 6470SOL    HW123452   1.965   9.959   6.511 -2.8717 -0.0041 -2.4588
 6470SOL    HW223453   1.944   9.816   6.553 -0.4653  0.3396  0.2562
 6471SOL     OW23454   2.153   2.864   4.506  0.0989  0.7635  0.9702
 6471SOL    HW123455   2.096   2.833   4.576 -0.2159  0.4711  0.5866
 6471SOL    HW223456   2.225   2.800   4.505  0.0242  0.6800  0.9225
 6472SOL     OW23457   6.876   5.713   4.081  0.0349  0.4933  0.1558
 6472SOL    HW123458   6.939   5.649   4.048 -0.5642 -0.0013 -0.0578
 6472SOL    HW223459   6.898   5.794   4.036  0.2644  0.2257 -0.2165
 6473SOL     OW23460   2.818   2.992   0.008 -0.1133  0.2758  0.2150
 6473SOL    HW123461   2.848   2.901   0.010  0.2792  0.4121  0.6003
 6473SOL    HW223462   2.885   3.041   0.056  1.6880  1.3746 -3.0627
 6474SOL     OW23463   6.555   1.954   4.182  0.0305  0.3542  0.0758
 6474SOL    HW123464   6.490   1.962   4.252 -1.7697  0.1300 -1.5201
 6474SOL    HW223465   6.621   2.019   4.204 -1.0704  1.0931  1.3695
 6475SOL     OW23466   3.824   5.861   7.981  0.2705  0.4611 -0.2787
 6475SOL    HW123467   3.808   5.794   8.048 -1.6778  1.2612  0.1088
 6475SOL    HW223468   3.801   5.818   7.898 -0.8532  0.5804 -0.0432
 6476SOL     OW23469   3.957   0.614   6.763 -0.1284  0.1053 -0.1487
 6476SOL    HW123470   3.999   0.534   6.793 -1.2105 -0.6961 -0.7395
 6476SOL    HW223471   4.028   0.665   6.724  0.4134 -0.9246 -0.5326
 6477SOL     OW23472   6.550   2.543   1.843  0.1054  0.1525 -0.2132
 6477SOL    HW123473   6.514   2.628   1.817 -0.0493 -0.0862 -0.8013
 6477SOL    HW223474   6.527   2.534   1.936 -1.5057 -0.0546 -0.5874
 6478SOL     OW23475   9.717   5.859   2.618  0.1114 -0.4010  0.2358
 6478SOL    HW123476   9.749   5.833   2.532 -0.6416 -0.1082 -0.1409
 6478SOL    HW223477   9.769   5.936   2.640  0.8419 -0.9222  0.3993
 6479SOL     OW23478   4.831   6.819   1.703 -0.2154 -0.2560 -0.0858
 6479SOL    HW123479   4.913   6.780   1.672  0.5295  1.1928  0.0072
 6479SOL    HW223480   4.858   6.900   1.746 -1.5753 -0.4364  1.1680
 6480SOL     OW23481   0.555   5.770   4.927  0.1008 -0.4880 -0.2408
 6480SOL    HW123482   0.524   5.741   5.013  0.5531  0.4694  0.2591
 6480SOL    HW223483   0.575   5.688   4.881 -0.8827 -1.0388  0.2715
 6481SOL     OW23484   8.063   3.297   5.209  0.4535 -0.2305 -0.1204
 6481SOL    HW123485   8.022   3.311   5.123 -1.7824 -0.5043  0.8299
 6481SOL    HW223486   8.098   3.208   5.204  0.9090 -0.0186 -0.9428
 6482SOL     OW23487   7.787   2.030   6.832  0.3553 -0.5648  0.1391
 6482SOL    HW123488   7.755   1.940   6.839  0.9535 -0.9467 -1.6125
 6482SOL    HW223489   7.731   2.070   6.766 -0.0165  0.4157  1.0379
 6483SOL     OW23490   9.722   3.202   2.194 -0.3996 -0.3593  0.0792
 6483SOL    HW123491   9.731   3.286   2.148  1.0333 -0.4374  0.1641
 6483SOL    HW223492   9.787   3.146   2.153 -0.0235 -0.8440  1.2984
 6484SOL     OW23493   9.826   5.410   6.250  0.5392  0.5868 -0.2818
 6484SOL    HW123494   9.866   5.466   6.183  0.6709 -1.1205 -1.7253
 6484SOL    HW223495   9.734   5.405   6.225  0.0521  1.8876  1.1309
 6485SOL     OW23496   2.683   2.630  10.164  0.2257 -0.0400  0.5338
 6485SOL    HW123497   2.721   2.542  10.154 -0.7727 -0.4804  0.5755
 6485SOL    HW223498   2.759   2.688  10.160  0.7604 -0.7733 -1.1775
 6486SOL     OW23499   6.074   4.006   4.939  0.2038  0.6281 -0.0931
 6486SOL    HW123500   6.088   4.038   5.028  1.9601 -1.4457  0.4528
 6486SOL    HW223501   5.991   3.960   4.943 -0.4022  1.7008  0.0907
 6487SOL     OW23502   6.978   3.630   9.920 -0.1238  0.1968  0.0377
 6487SOL    HW123503   6.980   3.630  10.015 -1.7909  0.5195  0.1154
 6487SOL    HW223504   6.965   3.721   9.895 -1.8921 -0.1206 -0.3620
 6488SOL     OW23505   0.519   2.784   9.636 -0.1958  0.4641  0.4339
 6488SOL    HW123506   0.440   2.838   9.641 -0.8264 -0.3189 -0.5224
 6488SOL    HW223507   0.587   2.844   9.605 -0.6871  0.8954  0.1790
 6489SOL     OW23508   9.980   8.078   3.915  0.6059 -0.4665  0.0317
 6489SOL    HW123509  10.057   8.097   3.861  0.0039 -1.4841 -1.2494
 6489SOL    HW223510  10.015   8.069   4.004  1.5895  1.5620 -0.0866
 6490SOL     OW23511   6.101   7.771   0.325  0.4012  0.1124 -0.0908
 6490SOL    HW123512   6.013   7.737   0.310  0.5868 -0.5567  0.3046
 6490SOL    HW223513   6.157   7.694   0.321  1.0753  0.6459 -1.1711
 6491SOL     OW23514   4.840   8.206   9.338 -0.0656  0.1672 -0.5620
 6491SOL    HW123515   4.874   8.261   9.267 -0.4867 -0.0023 -0.8955
 6491SOL    HW223516   4.760   8.168   9.303  0.0096 -0.3460 -0.1888
 6492SOL     OW23517   8.057   0.877   6.785  0.4418  0.1551 -0.9892
 6492SOL    HW123518   7.973   0.842   6.815  0.2124  0.4073 -1.3164
 6492SOL    HW223519   8.122   0.815   6.816  0.1878  0.2620 -0.2253
 6493SOL     OW23520   6.913   8.173   6.202  0.2529 -0.5230 -0.4586
 6493SOL    HW123521   6.824   8.160   6.234 -0.1193  1.0758 -0.7578
 6493SOL    HW223522   6.931   8.096   6.149 -0.9029 -0.9236 -0.2943
 6494SOL     OW23523   8.881   0.641   0.968 -0.1357  0.1487 -0.3872
 6494SOL    HW123524   8.840   0.723   0.943  2.3612  1.5929 -0.0707
 6494SOL    HW223525   8.884   0.643   1.064  0.3568 -0.0962 -0.3934
 6495SOL     OW23526   8.259   9.626   1.321 -0.0051 -0.3529 -0.2620
 6495SOL    HW123527   8.332   9.687   1.310 -0.6044  0.1098 -2.0456
 6495SOL    HW223528   8.283   9.549   1.271 -0.7121 -0.2042 -0.8476
 6496SOL     OW23529   3.289   0.991   3.904  0.1758  0.2167 -0.4734
 6496SOL    HW123530   3.204   0.991   3.859  0.3726  0.6102 -0.8665
 6496SOL    HW223531   3.342   0.929   3.854  0.0370 -0.2503 -0.0507
 6497SOL     OW23532  10.029   2.981   4.132 -0.5068 -0.1952 -0.8954
 6497SOL    HW123533   9.966   3.053   4.129 -0.5815 -0.1896  0.2937
 6497SOL    HW223534   9.975   2.902   4.117 -0.8072 -0.1831  0.0337
 6498SOL     OW23535   0.892   7.641   0.163  0.4402 -0.4364 -0.2916
 6498SOL    HW123536   0.819   7.610   0.109 -0.0327 -2.1499  1.2222
 6498SOL    HW223537   0.852   7.696   0.229  0.5263 -1.1530  0.3747
 6499SOL     OW23538   1.946   2.941   1.342  0.4241 -0.8180  0.4366
 6499SOL    HW123539   1.906   2.987   1.268  0.0240 -0.8070  0.6559
 6499SOL    HW223540   1.918   2.990   1.419  0.6762 -0.9469  0.6109
 6500SOL     OW23541   7.687   0.283   4.441 -0.2639 -0.3196 -0.2669
 6500SOL    HW123542   7.625   0.338   4.393  0.9498  1.3171 -0.0275
 6500SOL    HW223543   7.667   0.194   4.412 -2.0584  0.2539 -0.9294
 6501SOL     OW23544   4.797   0.843   8.450 -0.0279 -0.4626 -0.1149
 6501SOL    HW123545   4.723   0.783   8.453  0.5459 -1.2012 -0.5831
 6501SOL    HW223546   4.873   0.791   8.478 -0.0596  0.9467  3.0767
 6502SOL     OW23547   6.020   9.897   4.269 -0.0321 -0.6671 -0.2810
 6502SOL    HW123548   5.949   9.951   4.303 -0.3735 -1.4651  0.3074
 6502SOL    HW223549   6.034   9.929   4.180  0.7425  1.3392  0.4983
 6503SOL     OW23550   4.176  10.078   6.694  0.0183  0.2003 -0.7772
 6503SOL    HW123551   4.147  10.140   6.627  0.0098  0.2754 -0.7035
 6503SOL    HW223552   4.260  10.114   6.725 -0.0092  0.1995 -0.7017
 6504SOL     OW23553   3.255   6.477   7.307  0.0224 -0.1105  0.2649
 6504SOL    HW123554   3.221   6.392   7.279  2.0264 -0.7407 -0.4240
 6504SOL    HW223555   3.285   6.463   7.397 -0.2585  0.0687  0.3896
 6505SOL     OW23556   0.403   2.223   5.875  0.0339 -0.0566 -0.3957
 6505SOL    HW123557   0.476   2.216   5.935 -0.2099 -1.9422 -0.2600
 6505SOL    HW223558   0.418   2.154   5.810 -0.4825  0.9653 -1.6526
 6506SOL     OW23559   7.927   8.107   3.056  0.6524  0.0804  0.4716
 6506SOL    HW123560   7.835   8.094   3.077 -0.0540 -0.8998 -2.6401
 6506SOL    HW223561   7.934   8.199   3.030  0.4462  0.0631  0.3554
 6507SOL     OW23562   0.679   6.320   8.595 -0.2413 -0.0477 -0.3184
 6507SOL    HW123563   0.622   6.288   8.665  0.0670  0.0856  0.0016
 6507SOL    HW223564   0.646   6.408   8.575 -1.5438 -0.8081 -1.7059
 6508SOL     OW23565   3.059   4.509   4.535  0.6152 -0.5598 -0.3026
 6508SOL    HW123566   3.060   4.572   4.463 -0.8248  0.4566  0.5202
 6508SOL    HW223567   2.999   4.546   4.599 -0.6563 -2.9534  0.0355
 6509SOL     OW23568   6.149   7.723   7.886  0.3709 -0.4501 -0.2613
 6509SOL    HW123569   6.239   7.689   7.881  0.6341  0.2444 -0.3459
 6509SOL    HW223570   6.153   7.791   7.954  0.9112  2.4854 -2.9781
 6510SOL     OW23571   5.776   2.535   9.824  0.2887  0.2285  0.2185
 6510SOL    HW123572   5.807   2.597   9.889 -1.4513  1.5796 -0.1705
 6510SOL    HW223573   5.761   2.587   9.745  1.4386 -1.2016 -1.0187
 6511SOL     OW23574   0.856   4.181   4.531  0.1968  0.0519 -0.0864
 6511SOL    HW123575   0.886   4.224   4.451 -2.2125  0.5864 -0.8073
 6511SOL    HW223576   0.916   4.212   4.598  1.2531  0.9821 -1.3878
 6512SOL     OW23577   2.864   8.034   3.112  0.5563  0.4115  0.3070
 6512SOL    HW123578   2.859   8.012   3.019 -1.2566  1.3419  0.1353
 6512SOL    HW223579   2.877   7.949   3.155  1.4905 -0.0243 -0.7782
 6513SOL     OW23580   7.216   5.017  10.248 -0.1317  0.5299  0.1150
 6513SOL    HW123581   7.286   5.081  10.236  1.2656 -1.3866 -3.3754
 6513SOL    HW223582   7.149   5.043  10.185 -1.2219  0.5469  1.2397
 6514SOL     OW23583   4.175   5.655   7.364 -0.3178 -0.1225 -0.1619
 6514SOL    HW123584   4.188   5.576   7.311 -0.9052  0.4413 -1.2041
 6514SOL    HW223585   4.258   5.701   7.360 -0.0968 -0.4917  0.1182
 6515SOL     OW23586   5.659   2.147   8.283  0.1570  0.1533  0.7191
 6515SOL    HW123587   5.723   2.116   8.219 -0.0089 -0.0843  0.6682
 6515SOL    HW223588   5.611   2.069   8.310  1.0435  0.0324  2.0654
 6516SOL     OW23589   0.380   4.994   2.189  0.2601 -0.1926  0.5952
 6516SOL    HW123590   0.379   5.050   2.111 -1.8755  1.1578  1.4821
 6516SOL    HW223591   0.303   4.937   2.179 -0.8801  0.9461  2.2611
 6517SOL     OW23592   7.129   7.141   2.205  0.2649 -0.0231 -0.0028
 6517SOL    HW123593   7.105   7.205   2.138  0.4594 -1.7178 -1.7993
 6517SOL    HW223594   7.105   7.181   2.288 -0.9410  1.7486 -1.1663
 6518SOL     OW23595   9.720   8.907   2.116  0.6477  0.0331 -0.5350
 6518SOL    HW123596   9.713   8.813   2.133  1.5306 -0.9898 -4.7273
 6518SOL    HW223597   9.644   8.945   2.161 -1.0454 -3.0228 -0.5315
 6519SOL     OW23598   6.133   1.161  10.252  0.6352 -0.8848 -0.0914
 6519SOL    HW123599   6.052   1.156  10.201  0.7221 -0.4648 -0.2808
 6519SOL    HW223600   6.114   1.112  10.332 -0.2986  0.3815  0.4999
 6520SOL     OW23601   0.265   7.785   3.352  0.2542 -0.0337  0.0812
 6520SOL    HW123602   0.194   7.838   3.389 -0.0406 -0.0190 -0.4911
 6520SOL    HW223603   0.326   7.849   3.314  1.0893  0.0055  1.4474
 6521SOL     OW23604   7.326   6.650   4.312 -0.3170 -0.1420 -0.4745
 6521SOL    HW123605   7.386   6.706   4.261 -1.2956  1.1964 -0.2138
 6521SOL    HW223606   7.248   6.644   4.257 -0.5057 -0.6401 -0.1516
 6522SOL     OW23607   0.374  10.217   3.784 -0.5543  0.4231  0.0525
 6522SOL    HW123608   0.342  10.202   3.695 -4.9485 -0.4778  1.5753
 6522SOL    HW223609   0.438  10.147   3.798  0.4967  0.7753 -2.3797
 6523SOL     OW23610  10.235   3.043   7.125  0.2042  0.1353  0.1647
 6523SOL    HW123611  10.321   3.052   7.084 -0.1886 -0.8469 -0.9431
 6523SOL    HW223612  10.178   3.012   7.055 -0.9784  0.4069  0.9698
 6524SOL     OW23613   9.295   2.922   1.227 -0.0458  0.2755  0.2620
 6524SOL    HW123614   9.202   2.925   1.249 -0.0395  0.2679  0.2914
 6524SOL    HW223615   9.298   2.936   1.133 -0.1594 -1.0550  0.0530
 6525SOL     OW23616   3.365   2.029   2.357 -0.0881 -0.2343  0.3805
 6525SOL    HW123617   3.403   1.956   2.406 -0.1948  0.2145  1.1493
 6525SOL    HW223618   3.406   2.024   2.270  1.7471  0.2256  1.1713
 6526SOL     OW23619   6.978   5.384   5.471  0.3055  0.1871  0.1633
 6526SOL    HW123620   6.971   5.476   5.445  0.5686  0.1762  0.0498
 6526SOL    HW223621   6.994   5.387   5.566 -0.5122  0.2315  0.3089
 6527SOL     OW23622   1.678   1.169   7.692  0.6463 -0.0513 -0.0873
 6527SOL    HW123623   1.684   1.132   7.604 -0.4358 -1.2756  0.3206
 6527SOL    HW223624   1.607   1.234   7.686  1.1074  0.4428 -0.2919
 6528SOL     OW23625   1.753   9.937   5.360 -0.1516 -0.1365  0.3553
 6528SOL    HW123626   1.779   9.871   5.425  0.8163 -1.0219 -0.8627
 6528SOL    HW223627   1.826   9.938   5.298 -0.9564  0.8228 -0.6029
 6529SOL     OW23628   3.840   0.324   2.551 -0.0105  0.0080  0.1312
 6529SOL    HW123629   3.929   0.312   2.583  0.0931 -0.7905 -0.4406
 6529SOL    HW223630   3.790   0.253   2.590 -0.2116 -0.0525 -0.2280
 6530SOL     OW23631   5.301   4.451   8.571 -0.6659  0.0554 -0.3128
 6530SOL    HW123632   5.273   4.523   8.515  0.1346  0.3735 -0.3144
 6530SOL    HW223633   5.236   4.382   8.556 -1.8492  1.0181  0.2107
 6531SOL     OW23634   2.713   2.514   5.682  0.1325  0.6151 -0.3167
 6531SOL    HW123635   2.799   2.480   5.708 -0.7953  0.2686  2.6306
 6531SOL    HW223636   2.654   2.486   5.751 -2.4202  0.8412 -2.2511
 6532SOL     OW23637   2.702   1.057   1.804 -0.2447 -0.0295  0.2223
 6532SOL    HW123638   2.773   1.079   1.864 -1.7022  0.8415  1.7442
 6532SOL    HW223639   2.731   1.090   1.719  1.1612  0.2955  0.7996
 6533SOL     OW23640   6.571   2.172   9.524 -0.5485 -0.2400 -0.4297
 6533SOL    HW123641   6.497   2.114   9.544 -0.0627 -0.6103  0.3564
 6533SOL    HW223642   6.648   2.115   9.525 -0.1261  0.3167 -0.1788
 6534SOL     OW23643   3.431   5.965   5.465  0.1172  0.0932 -0.2026
 6534SOL    HW123644   3.477   5.962   5.381  0.9348  0.1396  0.2307
 6534SOL    HW223645   3.344   5.998   5.444  0.0851 -0.5343 -1.1285
 6535SOL     OW23646   4.770   0.027   4.831 -0.6123 -0.2310  0.0117
 6535SOL    HW123647   4.729   0.066   4.909  0.6716  3.9311 -1.1222
 6535SOL    HW223648   4.705   0.035   4.762 -0.9577 -1.8558  0.1231
 6536SOL     OW23649   4.612   3.358   0.138 -0.5213  0.0801 -0.5006
 6536SOL    HW123650   4.657   3.435   0.103  0.7229  0.1244  1.0872
 6536SOL    HW223651   4.682   3.294   0.151 -1.0680 -0.2408  0.9987
 6537SOL     OW23652   1.666   4.661   8.396  0.2479  0.2403  0.2111
 6537SOL    HW123653   1.701   4.574   8.377 -2.0966 -0.8667  0.7078
 6537SOL    HW223654   1.688   4.676   8.488  0.9931  0.3845  0.0232
 6538SOL     OW23655   6.770   3.497   3.953  0.0533 -0.2284 -0.2485
 6538SOL    HW123656   6.802   3.466   3.869 -2.5854 -0.5146 -1.2417
 6538SOL    HW223657   6.779   3.422   4.012  1.2653 -0.2420 -0.4294
 6539SOL     OW23658   9.837   0.573   2.485 -0.1614  0.4288  0.3024
 6539SOL    HW123659   9.910   0.605   2.433  0.3042 -2.1764 -0.8038
 6539SOL    HW223660   9.786   0.519   2.424 -1.5046  0.0115  1.7316
 6540SOL     OW23661   3.314  10.119   9.959 -0.1042  0.3221 -0.8771
 6540SOL    HW123662   3.373  10.158  10.024  0.1807  0.6697 -1.3391
 6540SOL    HW223663   3.371  10.063   9.906 -0.4061 -0.2680 -0.5912
 6541SOL     OW23664   4.606   8.883   2.411  0.4782  0.0336  0.0072
 6541SOL    HW123665   4.605   8.828   2.333  0.5742 -0.0317  0.0511
 6541SOL    HW223666   4.634   8.825   2.482  3.1236  0.6909 -0.3892
 6542SOL     OW23667   0.455   4.138   0.818  0.0212 -0.4059 -0.2356
 6542SOL    HW123668   0.453   4.159   0.911  0.7929  0.5676 -0.4115
 6542SOL    HW223669   0.545   4.158   0.791 -0.2196 -0.5739 -1.2038
 6543SOL     OW23670   4.640   6.151   4.457  0.0292 -0.1276 -0.0523
 6543SOL    HW123671   4.712   6.181   4.513  0.5374 -2.1709  0.5025
 6543SOL    HW223672   4.667   6.175   4.369  0.6928  0.4515  0.3004
 6544SOL     OW23673   3.277   0.624  10.062 -0.2610  0.0709  0.4925
 6544SOL    HW123674   3.369   0.610  10.081 -0.2295  0.6318  0.7517
 6544SOL    HW223675   3.255   0.555   9.999  0.8682  1.2150 -1.2405
 6545SOL     OW23676  10.285   9.278   0.851 -0.3113  0.0200 -0.1878
 6545SOL    HW123677  10.339   9.325   0.913 -2.0491  2.8952 -0.6480
 6545SOL    HW223678  10.224   9.227   0.905 -0.8546  1.3372  0.4859
 6546SOL     OW23679   0.975   2.893   1.616  0.2020  0.4079 -0.7880
 6546SOL    HW123680   1.043   2.850   1.668  2.2066  0.3346 -3.2985
 6546SOL    HW223681   0.979   2.985   1.643 -1.3298 -0.1485  1.6900
 6547SOL     OW23682   1.924   3.404   9.509  0.6260  0.5745 -0.3958
 6547SOL    HW123683   1.973   3.408   9.427  0.8451  1.6297 -0.2320
 6547SOL    HW223684   1.989   3.378   9.574  0.4439 -0.2983 -0.5617
 6548SOL     OW23685   8.834   1.532   9.699 -0.0500  0.3353 -0.1865
 6548SOL    HW123686   8.871   1.459   9.650 -1.0260  1.3011 -2.4982
 6548SOL    HW223687   8.850   1.608   9.644 -1.0545  1.5401  1.1126
 6549SOL     OW23688   0.732   6.199  10.200 -0.3091  0.2099 -0.0899
 6549SOL    HW123689   0.674   6.124  10.203 -0.8801  0.5466 -1.7760
 6549SOL    HW223690   0.680   6.271  10.236  0.2766 -0.1702  1.6352
 6550SOL     OW23691   1.707   8.021   7.444  0.4753  0.0324  0.3607
 6550SOL    HW123692   1.732   8.085   7.511 -1.0354 -1.4774  2.5335
 6550SOL    HW223693   1.655   8.071   7.381  1.1740  1.3561  0.7906
 6551SOL     OW23694   8.018   9.366   7.022 -0.3169 -0.0857  0.1057
 6551SOL    HW123695   8.009   9.428   6.950  0.8180  0.4309  0.3731
 6551SOL    HW223696   8.106   9.329   7.010 -0.2113 -0.1791  1.0569
 6552SOL     OW23697   2.960   5.520   1.500  0.2642  0.3227 -0.3439
 6552SOL    HW123698   3.052   5.494   1.495 -0.0298 -0.8241 -0.0418
 6552SOL    HW223699   2.937   5.544   1.410  0.4584 -0.8675 -0.7365
 6553SOL     OW23700   7.052   2.942  10.087 -0.2158 -0.7305  0.2351
 6553SOL    HW123701   7.128   2.891  10.060  0.1100 -0.3040  0.3349
 6553SOL    HW223702   6.994   2.939  10.011  0.1535 -0.5742 -0.0580
 6554SOL     OW23703   9.309   1.951   5.641 -0.0550 -0.0068 -0.2201
 6554SOL    HW123704   9.236   1.945   5.702  1.5182  1.6546  1.9824
 6554SOL    HW223705   9.354   1.867   5.650  0.8659  0.6406  2.0038
 6555SOL     OW23706   8.023   3.717   1.030 -0.5613 -0.1310 -0.2591
 6555SOL    HW123707   8.060   3.672   0.954 -0.8276 -0.0858 -0.4168
 6555SOL    HW223708   8.100   3.751   1.077 -0.3425 -0.9970  0.0252
 6556SOL     OW23709   1.390   4.972   0.264 -0.1930 -0.1817  0.2971
 6556SOL    HW123710   1.484   4.966   0.281  0.6331 -0.9521 -3.5141
 6556SOL    HW223711   1.382   5.048   0.206 -2.3300  1.2689  2.3472
 6557SOL     OW23712  10.144   8.008   8.592  0.3512  0.0409  0.0177
 6557SOL    HW123713  10.091   7.939   8.631 -0.1112  0.2420 -0.2451
 6557SOL    HW223714  10.136   7.994   8.497  1.4947 -0.4661 -0.0194
 6558SOL     OW23715   9.636   5.837   3.224 -0.2025  0.5907 -0.2992
 6558SOL    HW123716   9.627   5.844   3.129 -0.9411  0.6933 -0.2247
 6558SOL    HW223717   9.624   5.743   3.242  1.9050  0.2298 -0.4927
 6559SOL     OW23718   2.214   7.308   4.940  0.0433 -0.5893 -0.0797
 6559SOL    HW123719   2.155   7.370   4.982  0.3337  0.4157 -1.1162
 6559SOL    HW223720   2.206   7.327   4.846  2.0680 -0.3516 -0.2467
 6560SOL     OW23721   5.837   7.969   3.043  0.3061 -0.1892  0.1460
 6560SOL    HW123722   5.761   8.027   3.050 -0.4869 -0.3231 -4.5846
 6560SOL    HW223723   5.912   8.028   3.035  0.2910 -0.0023  1.2092
 6561SOL     OW23724   9.143   1.905   2.016 -0.1236 -0.1450 -0.1410
 6561SOL    HW123725   9.219   1.868   2.061 -0.9080  0.1038  1.4612
 6561SOL    HW223726   9.101   1.961   2.082 -1.4457  0.0624 -1.1215
 6562SOL     OW23727   8.773   1.230   7.107 -0.1538  0.0478  0.0184
 6562SOL    HW123728   8.821   1.206   7.187 -0.7147  0.4468  0.4841
 6562SOL    HW223729   8.693   1.177   7.111 -0.2817  0.2282 -0.1754
 6563SOL     OW23730   1.250   2.579   2.402  0.3550  0.5991 -0.3298
 6563SOL    HW123731   1.238   2.671   2.379 -0.0482  0.7423  0.4088
 6563SOL    HW223732   1.236   2.531   2.321  1.6681  1.2564 -0.9821
 6564SOL     OW23733   3.240   2.689   4.222  0.6073 -0.0718 -0.2741
 6564SOL    HW123734   3.279   2.610   4.184  1.0843 -0.0488  0.1592
 6564SOL    HW223735   3.255   2.680   4.316  0.4733  0.4331 -0.2023
 6565SOL     OW23736   1.288   7.441   1.646  0.0421  0.5022 -0.2410
 6565SOL    HW123737   1.326   7.503   1.583 -1.6801 -0.9902 -2.9470
 6565SOL    HW223738   1.363   7.408   1.695  1.8567  0.2011 -2.9830
 6566SOL     OW23739   2.218   3.657   4.535 -0.3416 -0.2015 -0.0936
 6566SOL    HW123740   2.266   3.582   4.572 -1.7661 -0.7280  0.7593
 6566SOL    HW223741   2.235   3.728   4.597  0.0589 -0.1272 -0.2816
 6567SOL     OW23742   4.923   6.380   7.663  0.0754  0.2945 -0.1488
 6567SOL    HW123743   4.863   6.392   7.589  0.0177  1.2034  0.0338
 6567SOL    HW223744   4.911   6.459   7.717 -2.7142 -1.9254  2.9018
 6568SOL     OW23745   9.162   1.289   2.743 -0.1688  0.4863  0.5184
 6568SOL    HW123746   9.156   1.341   2.663  1.5218  0.6473  0.4559
 6568SOL    HW223747   9.200   1.349   2.807 -1.0502  0.2070  1.3127
 6569SOL     OW23748   9.723   3.781   7.426 -0.5430 -0.0267 -0.4792
 6569SOL    HW123749   9.787   3.826   7.482  0.1754 -0.4434 -0.9502
 6569SOL    HW223750   9.657   3.848   7.406  0.4450  0.7926 -1.0703
 6570SOL     OW23751   2.285   6.050   6.030  0.4205 -0.2723  0.1872
 6570SOL    HW123752   2.331   6.087   5.955  1.0203  0.7604  1.0307
 6570SOL    HW223753   2.209   6.108   6.043 -0.1504 -0.9317 -0.1094
 6571SOL     OW23754   3.087   6.995   1.779  0.1236  0.5510 -0.1278
 6571SOL    HW123755   3.167   7.031   1.741  0.6453 -1.5630 -1.2046
 6571SOL    HW223756   3.024   7.067   1.777  1.1191  1.4264 -2.0437
 6572SOL     OW23757  10.169   8.696   3.510  0.5893  0.1527 -0.7236
 6572SOL    HW123758  10.213   8.699   3.595  0.2796 -1.0137 -0.5108
 6572SOL    HW223759  10.127   8.610   3.507  2.9070 -1.0218 -3.2127
 6573SOL     OW23760   6.329   9.260   5.528  0.3786 -0.6513 -0.1433
 6573SOL    HW123761   6.394   9.328   5.510 -1.2824  0.8787 -0.7799
 6573SOL    HW223762   6.311   9.268   5.622  0.9098 -0.9054 -0.0179
 6574SOL     OW23763   0.165   4.253   1.383 -0.5046 -0.2988  0.0945
 6574SOL    HW123764   0.165   4.349   1.389  1.8814 -0.1701 -0.7663
 6574SOL    HW223765   0.111   4.234   1.307 -1.3472  0.3095  0.5175
 6575SOL     OW23766   1.424   8.071   6.330  0.2961  0.1984  0.4066
 6575SOL    HW123767   1.376   8.140   6.284 -1.3466 -2.0798 -1.5697
 6575SOL    HW223768   1.385   8.068   6.417 -0.9373  0.5101 -0.1162
 6576SOL     OW23769   1.892   7.218   8.409  0.1270  0.9823 -0.1817
 6576SOL    HW123770   1.817   7.277   8.411  0.4278  1.4433 -1.7647
 6576SOL    HW223771   1.967   7.273   8.386  0.3066 -0.0511 -2.3353
 6577SOL     OW23772   4.513   8.466   0.400  0.0661 -0.2072  0.5692
 6577SOL    HW123773   4.420   8.472   0.420 -0.1339 -0.1924 -0.3486
 6577SOL    HW223774   4.520   8.396   0.335  0.2365  2.0562 -2.0054
 6578SOL     OW23775   9.978   1.836   7.607 -0.0319  0.0019  0.1483
 6578SOL    HW123776  10.037   1.866   7.538 -0.6384 -0.5111 -0.6106
 6578SOL    HW223777   9.916   1.908   7.617 -0.4298 -0.2558 -0.4227
 6579SOL     OW23778   5.971   1.782   7.172 -0.2168 -0.6041  0.6955
 6579SOL    HW123779   6.022   1.720   7.119  0.9857  0.3663  0.6627
 6579SOL    HW223780   5.896   1.731   7.203  0.4345 -1.9138  0.2091
 6580SOL     OW23781   6.238   7.347   4.867  0.0634 -0.6005 -0.3779
 6580SOL    HW123782   6.214   7.308   4.783  1.3285 -1.1699 -0.5005
 6580SOL    HW223783   6.307   7.410   4.845 -2.3457  2.3235 -0.2933
 6581SOL     OW23784   7.509   9.093   3.464 -0.3164 -0.1762 -0.0395
 6581SOL    HW123785   7.528   9.123   3.375 -0.3138 -0.2036 -0.0483
 6581SOL    HW223786   7.566   9.145   3.520 -1.2276  0.7473  0.0571
 6582SOL     OW23787   9.861   4.147   4.990 -0.2386 -0.6567 -0.1167
 6582SOL    HW123788   9.914   4.086   5.042 -0.5357 -1.0356 -0.2496
 6582SOL    HW223789   9.796   4.091   4.947 -1.1028 -0.1264  0.4890
 6583SOL     OW23790   8.302  10.071   0.675 -0.5110  0.2867 -0.0784
 6583SOL    HW123791   8.330  10.145   0.730 -0.6330 -0.5836  1.2061
 6583SOL    HW223792   8.230  10.032   0.724  0.3362 -1.4064 -0.1027
 6584SOL     OW23793   3.026   2.369  10.079 -0.5535  0.5577  0.0016
 6584SOL    HW123794   3.051   2.315  10.004 -0.4445  0.2910  0.2296
 6584SOL    HW223795   2.933   2.351  10.092 -0.5025  0.3802  0.1161
 6585SOL     OW23796  10.166   9.404   5.391  0.1472 -0.0250  0.1426
 6585SOL    HW123797  10.117   9.480   5.360  2.0352  1.1038 -0.2786
 6585SOL    HW223798  10.125   9.329   5.347 -1.2616  0.8243 -0.0470
 6586SOL     OW23799   0.969   4.723   6.570  0.0808  0.1444 -0.3755
 6586SOL    HW123800   0.874   4.722   6.581  0.3259  0.0584  2.7898
 6586SOL    HW223801   0.991   4.815   6.560 -0.2230  0.3352  0.6401
 6587SOL     OW23802   1.857   4.969   8.895 -0.6130 -0.1867 -0.0114
 6587SOL    HW123803   1.931   4.990   8.838 -0.4444 -0.3970  0.1280
 6587SOL    HW223804   1.891   4.982   8.984  0.0798 -2.7852  0.1811
 6588SOL     OW23805   0.693   1.267   9.423 -0.0549  0.4619  0.1048
 6588SOL    HW123806   0.682   1.230   9.335 -0.0331  0.2688  0.1829
 6588SOL    HW223807   0.609   1.254   9.466  0.5897 -1.5785  0.9126
 6589SOL     OW23808   3.909  10.270   8.271 -0.2248 -0.2171 -0.5978
 6589SOL    HW123809   3.985  10.308   8.317 -0.3458  0.5211 -0.9927
 6589SOL    HW223810   3.944  10.242   8.186  0.1057 -2.0236  0.0855
 6590SOL     OW23811   8.708   4.901   5.160 -0.1597  0.3398 -0.5890
 6590SOL    HW123812   8.737   4.816   5.193  0.6144  1.0580  0.6348
 6590SOL    HW223813   8.616   4.906   5.187  0.4034  0.8268  1.3595
 6591SOL     OW23814   6.717   6.978   5.058  0.3038 -0.0778  0.3293
 6591SOL    HW123815   6.736   7.072   5.052 -1.5947  0.3059 -0.6148
 6591SOL    HW223816   6.799   6.935   5.036  2.4960  1.2058  4.8895
 6592SOL     OW23817   0.145   7.285   0.218  0.1427 -0.0655 -0.4999
 6592SOL    HW123818   0.187   7.213   0.171  3.4409  1.7127 -0.5761
 6592SOL    HW223819   0.151   7.359   0.158  0.8562  1.2872  1.1699
 6593SOL     OW23820   5.937   1.365   4.851 -0.1502  0.0760 -0.0691
 6593SOL    HW123821   5.962   1.439   4.796 -0.4290  0.8904  0.8717
 6593SOL    HW223822   5.999   1.367   4.923 -0.8620  0.0865  0.5510
 6594SOL     OW23823   6.656   6.812   2.724 -0.2984  0.3542 -0.3407
 6594SOL    HW123824   6.749   6.798   2.743 -0.4590 -1.9533 -0.9695
 6594SOL    HW223825   6.653   6.826   2.629 -0.6372 -0.0820 -0.3958
 6595SOL     OW23826  10.116   5.108   8.259  0.0110  0.1537  0.5460
 6595SOL    HW123827  10.055   5.044   8.222 -1.5714  1.1184  1.3863
 6595SOL    HW223828  10.195   5.098   8.206 -0.5374 -1.7574 -0.0134
 6596SOL     OW23829   2.142   5.165   2.463 -0.3025  0.3817 -0.6559
 6596SOL    HW123830   2.178   5.084   2.498 -0.5668  0.1991 -0.8012
 6596SOL    HW223831   2.204   5.232   2.489 -0.2924  0.1924 -0.1813
 6597SOL     OW23832   8.174   0.082   8.778  0.5093 -0.0124  0.4501
 6597SOL    HW123833   8.226   0.068   8.857 -0.0463  3.2136  1.5203
 6597SOL    HW223834   8.229   0.137   8.722 -0.5897  1.0603  0.3685
 6598SOL     OW23835   6.185   2.994   0.862 -0.1483  0.3884 -0.2546
 6598SOL    HW123836   6.093   3.021   0.861  0.0515  1.1759  0.9161
 6598SOL    HW223837   6.228   3.058   0.919  1.0199 -0.3301 -0.3044
 6599SOL     OW23838   3.956   6.009   3.090 -0.6079 -0.1699  0.3642
 6599SOL    HW123839   3.962   5.918   3.120 -0.7069 -0.4387 -0.4247
 6599SOL    HW223840   4.001   6.059   3.158  1.4568 -1.0366 -0.2804
 6600SOL     OW23841   1.898   1.660   8.318  0.3890 -0.0424  0.1147
 6600SOL    HW123842   1.810   1.656   8.356  1.2082 -1.0104  2.1162
 6600SOL    HW223843   1.900   1.741   8.268 -1.3238  0.5055  0.8670
 6601SOL     OW23844   0.419   6.391   5.306 -0.2327 -0.2903  0.1870
 6601SOL    HW123845   0.440   6.311   5.354 -0.7942 -0.5271  0.0502
 6601SOL    HW223846   0.501   6.439   5.302 -0.0313 -0.5773  0.8022
 6602SOL     OW23847   3.076   1.094   4.384 -0.5390 -0.3336  0.0358
 6602SOL    HW123848   3.148   1.065   4.440  1.1729  0.4524 -1.6344
 6602SOL    HW223849   3.046   1.013   4.342  0.5929 -0.4669 -0.5690
 6603SOL     OW23850   0.325   9.630   6.446 -0.1500  0.6000  0.4779
 6603SOL    HW123851   0.365   9.603   6.528 -1.0006 -2.5023  0.0356
 6603SOL    HW223852   0.349   9.561   6.384 -2.6863  0.7593 -0.8375
 6604SOL     OW23853   2.123   9.284   7.381  0.2094  0.3554  0.0624
 6604SOL    HW123854   2.138   9.365   7.429 -0.8630  0.1814  0.7041
 6604SOL    HW223855   2.129   9.310   7.289  1.3388  0.8614  0.2509
 6605SOL     OW23856   2.670   7.430   7.632 -0.1698 -0.3153 -0.3566
 6605SOL    HW123857   2.673   7.521   7.664 -0.1792 -0.8713  1.3416
 6605SOL    HW223858   2.684   7.438   7.538  3.4769  1.2287  0.1325
 6606SOL     OW23859   5.745   9.716   8.583 -0.2684  0.0690  0.0181
 6606SOL    HW123860   5.813   9.755   8.638 -1.0888  1.9314 -0.2387
 6606SOL    HW223861   5.792   9.690   8.503  0.3715  0.1197  0.3646
 6607SOL     OW23862   7.204   1.636   8.298 -0.1061  0.0755  0.4450
 6607SOL    HW123863   7.259   1.671   8.368 -1.7876  0.3922  1.6700
 6607SOL    HW223864   7.139   1.705   8.282 -1.5107 -1.1701  0.6300
 6608SOL     OW23865   7.017   2.031  10.197 -0.1575  0.1748 -0.1640
 6608SOL    HW123866   7.021   1.937  10.216 -0.0558  0.5203  1.7901
 6608SOL    HW223867   7.077   2.043  10.124 -0.2436 -1.2912 -0.5066
 6609SOL     OW23868   2.345   8.934   1.527 -0.5664  0.1325 -0.3705
 6609SOL    HW123869   2.383   9.003   1.582  0.1149 -0.9400  0.5456
 6609SOL    HW223870   2.308   8.871   1.589  0.7902 -1.4432 -1.0688
 6610SOL     OW23871   8.887   9.510   0.655 -0.2926  0.5176  0.3420
 6610SOL    HW123872   8.813   9.490   0.598  0.7513 -0.2218 -0.8047
 6610SOL    HW223873   8.955   9.447   0.629  1.6369  2.7435 -0.4097
 6611SOL     OW23874   9.612   3.258   6.708 -0.1447 -0.3271  0.0253
 6611SOL    HW123875   9.682   3.297   6.656 -0.0365  1.3390  1.3144
 6611SOL    HW223876   9.650   3.178   6.743  0.7113 -0.0543 -0.2566
 6612SOL     OW23877   3.922   6.177   0.896 -0.2522 -0.1661  0.3842
 6612SOL    HW123878   3.962   6.090   0.905 -2.3909 -1.0885  2.0133
 6612SOL    HW223879   3.960   6.229   0.966  2.2720  0.8577 -1.5779
 6613SOL     OW23880   0.016   8.209   7.232 -0.3366  0.5253 -0.0972
 6613SOL    HW123881  -0.075   8.183   7.248 -0.0796 -0.9050 -0.8006
 6613SOL    HW223882   0.051   8.140   7.175  1.5805  0.2939  1.2515
 6614SOL     OW23883   7.413   6.962   8.075 -0.1071 -0.0165 -0.8879
 6614SOL    HW123884   7.382   7.018   8.146  0.6230 -0.7089  0.0074
 6614SOL    HW223885   7.391   6.873   8.103  2.6221 -0.5642 -0.1601
 6615SOL     OW23886   2.146   6.926   3.519 -0.0720  0.5627 -0.0274
 6615SOL    HW123887   2.157   6.891   3.608  0.1649  1.8693  0.4921
 6615SOL    HW223888   2.052   6.919   3.502 -0.3027  1.3746  0.8133
 6616SOL     OW23889   4.341   9.988   5.957 -0.3121 -1.0035 -0.0880
 6616SOL    HW123890   4.321   9.979   5.864  1.4220  1.0287 -0.7514
 6616SOL    HW223891   4.261   9.961   6.002 -0.9289 -2.7993 -2.1006
 6617SOL     OW23892   3.815   9.695   2.603 -0.3757 -0.0599 -0.4875
 6617SOL    HW123893   3.774   9.673   2.519 -0.3915 -0.5354 -0.3552
 6617SOL    HW223894   3.888   9.754   2.579 -1.2404  0.9506 -0.7026
 6618SOL     OW23895   5.971   5.475   3.078  0.2625 -0.5407  0.2495
 6618SOL    HW123896   6.005   5.434   2.999 -1.7298 -2.3026  0.2301
 6618SOL    HW223897   5.892   5.522   3.049  1.6702  2.2283  0.5430
 6619SOL     OW23898   6.744   0.209   0.728  0.0646  0.2379 -0.6265
 6619SOL    HW123899   6.700   0.138   0.680 -1.1554  1.4914 -1.4295
 6619SOL    HW223900   6.791   0.164   0.799 -2.2681 -1.2169  0.1104
 6620SOL     OW23901   3.994   8.689   3.905 -0.0536 -0.0989  0.0753
 6620SOL    HW123902   4.081   8.694   3.943  1.0525 -0.5926 -2.2373
 6620SOL    HW223903   3.976   8.596   3.896 -0.0233 -0.0032 -1.1259
 6621SOL     OW23904   6.781   4.746   3.799 -0.2014  0.4963 -0.1472
 6621SOL    HW123905   6.689   4.745   3.773 -0.3457 -0.8477  0.3718
 6621SOL    HW223906   6.800   4.657   3.829  0.8133  1.1426  1.3094
 6622SOL     OW23907   2.007   8.950   8.248 -0.1551  0.7783 -0.1087
 6622SOL    HW123908   2.082   9.001   8.277 -0.8924  0.8325  1.9284
 6622SOL    HW223909   2.038   8.860   8.247  0.4189  0.9759 -1.0903
 6623SOL     OW23910   4.627   2.044   6.210 -0.1244 -0.7502 -0.3019
 6623SOL    HW123911   4.653   1.988   6.284  1.0519 -0.5975 -0.5849
 6623SOL    HW223912   4.710   2.075   6.173 -0.7411  0.7023 -0.5189
 6624SOL     OW23913   6.539   3.013   6.686 -0.3390 -0.0687  0.6963
 6624SOL    HW123914   6.556   3.106   6.695 -0.1398  0.0466 -0.6299
 6624SOL    HW223915   6.526   3.000   6.592  0.2355 -1.4764  0.7881
 6625SOL     OW23916   3.490   9.200   5.179  0.3557  0.0912 -0.3074
 6625SOL    HW123917   3.433   9.131   5.215  0.8495 -0.3195 -0.2916
 6625SOL    HW223918   3.535   9.236   5.256 -0.6780  1.1605 -0.1933
 6626SOL     OW23919   1.284   0.487   7.144  0.2960  0.2464  0.0369
 6626SOL    HW123920   1.327   0.554   7.197  0.1128 -0.3932  1.0251
 6626SOL    HW223921   1.208   0.531   7.107  2.2368  1.7040 -2.5833
 6627SOL     OW23922   9.376   5.366   3.356 -0.0795  0.0726  0.3602
 6627SOL    HW123923   9.432   5.325   3.289  0.5454  3.0072 -1.0643
 6627SOL    HW223924   9.287   5.349   3.327  0.1815  0.5302 -0.7614
 6628SOL     OW23925   4.685   5.282   5.788  0.3296  0.5318 -0.8544
 6628SOL    HW123926   4.615   5.262   5.726 -0.7649  0.5135  0.3476
 6628SOL    HW223927   4.714   5.196   5.819 -0.8555  0.5669  0.4832
 6629SOL     OW23928   3.144   2.060  10.055  0.0388  0.4146  0.5172
 6629SOL    HW123929   3.203   2.003  10.005 -2.5343 -1.8945 -0.1155
 6629SOL    HW223930   3.098   2.111   9.988  0.3570  1.2674  0.9291
 6630SOL     OW23931   7.860   7.382   1.621 -0.1346 -0.1454  0.2614
 6630SOL    HW123932   7.892   7.385   1.711  2.6593 -1.5761 -0.5503
 6630SOL    HW223933   7.825   7.293   1.612 -0.1319 -0.1039 -0.1532
 6631SOL     OW23934   6.082   2.965   5.216  0.1064 -0.2459 -0.1953
 6631SOL    HW123935   6.139   3.028   5.259  1.2028 -1.0376 -0.4513
 6631SOL    HW223936   6.096   2.980   5.122  1.7265 -1.9974 -0.2873
 6632SOL     OW23937   1.257   0.478   9.665 -0.2195 -0.2520 -0.0023
 6632SOL    HW123938   1.163   0.493   9.674 -0.0835  0.1992  0.7230
 6632SOL    HW223939   1.293   0.498   9.751  0.7619  1.2661 -0.7209
 6633SOL     OW23940   4.893   1.544   4.618 -0.4231  0.5468  0.1819
 6633SOL    HW123941   4.957   1.606   4.654  0.1544  1.3966 -2.1458
 6633SOL    HW223942   4.848   1.510   4.695  1.4542  1.4227  1.7663
 6634SOL     OW23943   7.917   9.620   3.722  0.5462  0.0608  0.6215
 6634SOL    HW123944   7.932   9.529   3.696  0.0051 -0.3013  1.5530
 6634SOL    HW223945   7.828   9.640   3.692  0.6496  0.2808  0.4522
 6635SOL     OW23946   5.872   4.559   4.541  0.0802  0.2174 -0.0994
 6635SOL    HW123947   5.880   4.496   4.469 -0.2039  0.3632 -0.2602
 6635SOL    HW223948   5.912   4.514   4.616 -1.2701 -0.6957  0.1176
 6636SOL     OW23949   4.352   5.119   9.862 -0.0615 -0.1542 -0.7989
 6636SOL    HW123950   4.365   5.082   9.949  1.7630 -0.3091 -1.1067
 6636SOL    HW223951   4.257   5.135   9.856 -0.3585 -1.1970  0.7661
 6637SOL     OW23952   9.269   3.770   1.099 -0.3329 -0.4264 -0.3332
 6637SOL    HW123953   9.326   3.843   1.077  0.9472 -0.7229  1.7369
 6637SOL    HW223954   9.246   3.784   1.191 -0.2689 -2.4796  0.0363
 6638SOL     OW23955   3.094   8.735   5.710  0.7337  0.5281 -0.2821
 6638SOL    HW123956   3.049   8.729   5.625  1.2134 -2.0842 -0.4334
 6638SOL    HW223957   3.030   8.700   5.773  1.1460  0.4398  0.0881
 6639SOL     OW23958   0.710   7.253   9.438 -0.1173 -0.3578 -0.0059
 6639SOL    HW123959   0.634   7.225   9.389 -1.9426 -2.1340  3.4276
 6639SOL    HW223960   0.703   7.348   9.441 -0.8835 -0.3294 -1.6205
 6640SOL     OW23961   3.906   2.752   7.901 -0.2161  0.3048  0.0394
 6640SOL    HW123962   3.908   2.665   7.939  0.0941  0.1038 -0.4199
 6640SOL    HW223963   3.814   2.777   7.901 -0.1168  0.8273  2.0513
 6641SOL     OW23964   3.455   9.782   0.730  0.1497 -0.6757  0.0116
 6641SOL    HW123965   3.440   9.762   0.638  0.3712  0.7003 -0.3430
 6641SOL    HW223966   3.502   9.705   0.764  0.5580 -0.9522 -1.1487
 6642SOL     OW23967   5.917   2.396   4.424  0.1511 -0.3234  0.0411
 6642SOL    HW123968   5.822   2.406   4.421  0.2025 -0.0278 -1.7960
 6642SOL    HW223969   5.950   2.486   4.419  0.5147 -0.4735 -0.2879
 6643SOL     OW23970   0.937   4.736   0.029  0.4140  0.3598 -0.0462
 6643SOL    HW123971   0.886   4.774  -0.043  0.8278 -0.4433 -0.7759
 6643SOL    HW223972   0.963   4.812   0.082 -1.2637  0.8181  0.1841
 6644SOL     OW23973   8.866   7.434   0.831  0.4460  0.5362 -0.9297
 6644SOL    HW123974   8.878   7.389   0.747 -0.0327  0.2003 -0.8247
 6644SOL    HW223975   8.955   7.457   0.859  0.7835 -1.0558 -0.6055
 6645SOL     OW23976   3.018   9.328   9.733  0.1326  0.7150  0.3844
 6645SOL    HW123977   2.970   9.402   9.697 -0.1491 -0.1464 -1.1252
 6645SOL    HW223978   3.096   9.320   9.678  0.1193 -0.1322  0.4618
 6646SOL     OW23979   4.839   5.913   9.993  0.3342 -0.3710  0.3951
 6646SOL    HW123980   4.829   5.989  10.050 -0.3417  0.7894 -1.1791
 6646SOL    HW223981   4.758   5.863  10.004 -0.5948  0.7841 -0.7820
 6647SOL     OW23982   9.631   6.041   4.859  0.0864  0.1992 -0.1156
 6647SOL    HW123983   9.695   6.036   4.930 -0.5939 -1.3757  0.4199
 6647SOL    HW223984   9.547   6.050   4.903 -0.2797 -0.0752 -0.7486
 6648SOL     OW23985   0.038   1.155   3.465  0.1516 -0.1215  0.3396
 6648SOL    HW123986   0.040   1.190   3.376  1.4848  0.8638  0.7212
 6648SOL    HW223987  -0.042   1.191   3.503 -0.0984 -0.0247 -0.2595
 6649SOL     OW23988   5.111   7.228   5.764 -0.1466 -0.0235  0.4559
 6649SOL    HW123989   5.111   7.138   5.733 -1.0306  0.5189 -1.2429
 6649SOL    HW223990   5.138   7.222   5.856  0.8277 -1.8902  0.0927
 6650SOL     OW23991   2.838   0.926   3.940 -0.2343 -0.1802  0.4827
 6650SOL    HW123992   2.804   0.960   3.857 -1.1937  3.3626  2.1420
 6650SOL    HW223993   2.764   0.878   3.978 -0.6652  0.4581  0.4567
 6651SOL     OW23994   7.695   2.688   7.827  0.0376  0.4554  0.2653
 6651SOL    HW123995   7.603   2.673   7.803  0.3751 -1.3220 -0.0529
 6651SOL    HW223996   7.690   2.739   7.908 -1.2098  1.2891 -0.3019
 6652SOL     OW23997   1.363   5.280   7.815  0.2031 -0.3983  0.6879
 6652SOL    HW123998   1.363   5.189   7.845  2.0700 -0.4497  0.6325
 6652SOL    HW223999   1.271   5.298   7.795 -0.0811 -2.6558 -0.4460
 6653SOL     OW24000   5.053   8.835   8.422 -0.4697  0.2921  0.1847
 6653SOL    HW124001   4.986   8.826   8.489 -0.0911  1.5314  0.7596
 6653SOL    HW224002   5.132   8.799   8.462  0.1010  2.3164  0.9947
 6654SOL     OW24003   9.824   8.706   3.197  0.3932 -0.4490 -0.1485
 6654SOL    HW124004   9.819   8.688   3.103 -1.0222 -1.2940  0.0488
 6654SOL    HW224005   9.914   8.735   3.212  0.8405 -0.9830 -1.6425
 6655SOL     OW24006   5.143   3.325  10.251  0.1269  0.4340  0.4834
 6655SOL    HW124007   5.154   3.336  10.157 -0.1218  1.0810  0.5221
 6655SOL    HW224008   5.230   3.298  10.282  0.5348  1.3741  0.2187
 6656SOL     OW24009   6.220   7.652   1.287 -0.4365  0.2887 -0.1791
 6656SOL    HW124010   6.202   7.560   1.308  0.0004  0.1628 -0.3494
 6656SOL    HW224011   6.177   7.666   1.203  1.6102 -0.4854 -1.4305
 6657SOL     OW24012   6.613   5.180  10.295  0.0218  0.0442 -0.2315
 6657SOL    HW124013   6.552   5.250  10.270 -1.3430 -0.6552  0.9496
 6657SOL    HW224014   6.693   5.226  10.320 -0.4768  1.1064 -0.5055
 6658SOL     OW24015   0.900   3.957  10.130 -0.2844  0.0448  0.1269
 6658SOL    HW124016   0.958   3.917  10.194 -0.5907  0.3420  0.5936
 6658SOL    HW224017   0.840   3.887  10.104 -0.2023 -0.0567  0.2103
 6659SOL     OW24018   5.677  10.069   1.658 -0.4710 -0.4405  0.1926
 6659SOL    HW124019   5.716  10.105   1.579 -2.4627 -0.0409 -0.6748
 6659SOL    HW224020   5.718   9.983   1.668 -0.2853 -0.5569 -1.3638
 6660SOL     OW24021   1.869   9.469   4.427 -0.2859 -0.0806  0.1011
 6660SOL    HW124022   1.932   9.451   4.357 -0.4473 -1.7346  0.3189
 6660SOL    HW224023   1.788   9.493   4.382 -0.2215 -0.5469 -0.2758
 6661SOL     OW24024   8.228   6.091   5.640  0.1483  0.8294 -0.1376
 6661SOL    HW124025   8.178   6.145   5.579 -0.7886  0.6639  0.4669
 6661SOL    HW224026   8.319   6.121   5.630  0.1878  0.1439 -2.3145
 6662SOL     OW24027   2.653   2.413   8.421  0.1604  0.1153 -0.2228
 6662SOL    HW124028   2.711   2.392   8.493 -0.4743 -0.0261  0.2526
 6662SOL    HW224029   2.602   2.488   8.452 -1.1388 -0.8564  0.0543
 6663SOL     OW24030   4.641   3.977   2.077  0.5277  0.0554 -0.1582
 6663SOL    HW124031   4.674   3.991   1.988 -0.7720  0.5843 -0.5846
 6663SOL    HW224032   4.550   3.951   2.065  0.3518  0.0726  1.0228
 6664SOL     OW24033   8.633  10.032   3.585  0.2937  0.6444 -0.0243
 6664SOL    HW124034   8.560  10.072   3.537 -1.8656 -1.2321  1.4713
 6664SOL    HW224035   8.590   9.976   3.650  3.1150 -0.4712  0.9975
 6665SOL     OW24036   0.340   3.406   2.330  0.2966  0.1643 -0.3650
 6665SOL    HW124037   0.427   3.396   2.369  0.3718 -0.6291 -0.7151
 6665SOL    HW224038   0.282   3.420   2.405  0.6912  0.5238 -0.1152
 6666SOL     OW24039   1.082   3.066   3.915  0.7068 -0.2967 -0.4307
 6666SOL    HW124040   0.998   3.100   3.947  0.1942 -0.6769 -1.3285
 6666SOL    HW224041   1.145   3.134   3.935  0.5201 -0.7073  1.8151
 6667SOL     OW24042   2.987   1.704   2.514 -0.1125  0.2768  0.2505
 6667SOL    HW124043   2.983   1.644   2.588  0.0595 -0.8504 -0.6310
 6667SOL    HW224044   3.000   1.648   2.438 -0.0253  1.4285 -0.6140
 6668SOL     OW24045  10.132   5.404   6.945  0.1126  0.1549  0.4649
 6668SOL    HW124046  10.131   5.388   6.851 -1.2156 -0.0348  0.4866
 6668SOL    HW224047  10.051   5.363   6.977  1.1537 -0.9090  1.8777
 6669SOL     OW24048   8.188   4.423   5.790 -0.3310  0.1700  0.2349
 6669SOL    HW124049   8.216   4.402   5.879  1.1967  1.7048  0.1721
 6669SOL    HW224050   8.164   4.339   5.752  1.9869 -0.9671  1.0997
 6670SOL     OW24051   6.689   0.502   0.070  0.1345  0.0598  0.5203
 6670SOL    HW124052   6.690   0.584   0.021  0.9718 -1.2559 -1.8340
 6670SOL    HW224053   6.622   0.515   0.137 -2.2290  1.4985 -1.9070
 6671SOL     OW24054   9.999   9.290   6.086  0.5271  0.8210 -0.4566
 6671SOL    HW124055   9.932   9.260   6.025  0.4902  1.6970 -0.8643
 6671SOL    HW224056   9.960   9.279   6.173  0.8545 -1.1212 -0.5203
 6672SOL     OW24057   8.675   7.863   1.732 -0.3878 -0.2391  0.2070
 6672SOL    HW124058   8.580   7.856   1.728 -0.7060  2.8538  0.2465
 6672SOL    HW224059   8.693   7.902   1.818  1.1059 -2.3093  0.9141
 6673SOL     OW24060   4.105   7.848   1.994  0.4440 -0.3185 -0.5674
 6673SOL    HW124061   4.109   7.838   1.899  1.3614  2.5061 -0.9131
 6673SOL    HW224062   4.191   7.880   2.019 -0.0576 -0.1715  1.0993
 6674SOL     OW24063   6.024   6.938   4.797 -0.3484  0.5361  0.0739
 6674SOL    HW124064   6.023   6.895   4.712  3.2982  0.2564  0.0087
 6674SOL    HW224065   5.990   6.872   4.857 -1.1983  0.0630 -0.8971
 6675SOL     OW24066   6.505   7.457   4.800  0.1595  0.3195 -0.1884
 6675SOL    HW124067   6.579   7.397   4.791 -0.0133  0.2495 -1.3024
 6675SOL    HW224068   6.544   7.538   4.833  1.3061  1.2782 -3.4963
 6676SOL     OW24069   9.237   6.602   2.104 -0.4631  0.2307  0.1555
 6676SOL    HW124070   9.144   6.600   2.084 -0.3015  0.2320 -0.6433
 6676SOL    HW224071   9.242   6.601   2.200 -1.2183 -3.7827  0.3086
 6677SOL     OW24072   9.908   6.172   3.682 -0.2299 -0.1555 -0.6423
 6677SOL    HW124073   9.849   6.248   3.679 -0.4210 -0.2842 -0.2200
 6677SOL    HW224074   9.906   6.137   3.593  0.1055  0.5212 -0.9227
 6678SOL     OW24075   2.543   1.206   3.326 -0.3686 -0.4892  0.2112
 6678SOL    HW124076   2.525   1.222   3.419  0.6314 -2.4795  0.7944
 6678SOL    HW224077   2.470   1.152   3.297 -0.3018 -0.4868  0.0405
 6679SOL     OW24078   4.558   9.403   7.458 -0.7129 -0.0111  0.1840
 6679SOL    HW124079   4.540   9.381   7.367  0.3650 -2.1354  0.4085
 6679SOL    HW224080   4.652   9.420   7.460 -0.6766 -0.2706  0.9377
 6680SOL     OW24081   0.702   8.242   9.441  0.2711 -0.0830  0.1651
 6680SOL    HW124082   0.771   8.247   9.375 -0.6327  2.2977 -0.7226
 6680SOL    HW224083   0.724   8.311   9.504 -1.4246  0.9491 -0.3168
 6681SOL     OW24084   5.967   1.328   3.434 -0.4279 -0.4339  0.3583
 6681SOL    HW124085   5.996   1.320   3.344  0.9174  0.7061  0.6536
 6681SOL    HW224086   6.046   1.352   3.483 -1.7203  2.4694  1.2672
 6682SOL     OW24087   2.620   3.618   7.573 -0.2493 -0.2897 -0.0307
 6682SOL    HW124088   2.630   3.592   7.482  0.4373 -1.2972  0.3082
 6682SOL    HW224089   2.671   3.699   7.581  0.5727 -0.7638 -0.3163
 6683SOL     OW24090   6.443   7.948   2.943  0.7552 -0.5248  0.1464
 6683SOL    HW124091   6.528   7.952   2.898 -0.0632  1.1716 -1.3749
 6683SOL    HW224092   6.463   7.916   3.030  2.9643 -0.1698 -0.1833
 6684SOL     OW24093   0.474   7.607   2.734 -0.0417 -0.1447 -0.2060
 6684SOL    HW124094   0.457   7.566   2.819 -2.0156 -1.0650 -0.9992
 6684SOL    HW224095   0.409   7.676   2.727  0.6279  0.4574 -0.6658
 6685SOL     OW24096   3.009   0.888   4.190  0.0480  0.1841 -0.0843
 6685SOL    HW124097   2.968   0.903   4.104  0.4975  0.8593 -0.1880
 6685SOL    HW224098   3.081   0.827   4.171 -0.1773 -0.0755 -0.1017
 6686SOL     OW24099   9.939   7.551   8.935 -0.3715 -0.0195 -0.3523
 6686SOL    HW124100   9.994   7.492   8.987  0.0715  0.2081 -0.5539
 6686SOL    HW224101   9.987   7.634   8.934 -0.9876  0.3419 -0.0828
 6687SOL     OW24102   7.131   3.313   7.676 -0.3095  0.2360  0.1505
 6687SOL    HW124103   7.141   3.223   7.646  2.6254  0.9791 -1.4250
 6687SOL    HW224104   7.039   3.334   7.657 -0.1089 -1.2193 -3.1476
 6688SOL     OW24105   1.207   3.225   1.952 -0.0241 -0.6072  0.3942
 6688SOL    HW124106   1.135   3.171   1.984 -0.9019  0.1741 -0.2056
 6688SOL    HW224107   1.166   3.309   1.929  1.0677 -0.1638 -0.0050
 6689SOL     OW24108  10.153   2.377   1.763 -0.0634 -0.0128  0.4692
 6689SOL    HW124109  10.195   2.375   1.677 -1.0120 -1.4200  0.0092
 6689SOL    HW224110  10.203   2.314   1.815 -0.0705  0.1578  0.6848
 6690SOL     OW24111   5.582   9.974   0.725 -0.2012  0.6206 -0.0411
 6690SOL    HW124112   5.639   9.899   0.707 -0.6604  0.9661 -3.6577
 6690SOL    HW224113   5.618  10.044   0.671 -2.0397  1.8350  0.2383
 6691SOL     OW24114   7.814   8.324   4.984 -0.1673  0.2003  0.1014
 6691SOL    HW124115   7.757   8.303   5.059  0.3215  1.2584  0.7899
 6691SOL    HW224116   7.891   8.365   5.023 -0.0540  1.0921 -1.0024
 6692SOL     OW24117   9.823   2.756   7.269 -0.6213  0.3315  0.6384
 6692SOL    HW124118   9.778   2.689   7.322  1.1251 -1.3134  0.1455
 6692SOL    HW224119   9.853   2.821   7.333 -0.0684 -0.7249  1.4823
 6693SOL     OW24120   6.734   5.242   7.911  0.5482 -0.0128  0.2036
 6693SOL    HW124121   6.807   5.296   7.883  0.8486 -0.6320 -0.2231
 6693SOL    HW224122   6.772   5.156   7.929 -0.0440 -0.2997  0.1261
 6694SOL     OW24123   4.539   0.859   7.872  0.3520 -0.4634  0.7890
 6694SOL    HW124124   4.458   0.903   7.846  1.8563  0.7370 -2.5102
 6694SOL    HW224125   4.512   0.771   7.895 -2.0618  0.3572  1.3873
 6695SOL     OW24126   1.641   2.475   6.433 -0.2483  0.4149 -0.4950
 6695SOL    HW124127   1.559   2.478   6.482  0.6370  1.2959  1.0147
 6695SOL    HW224128   1.697   2.415   6.483  0.2228  0.2614 -1.1880
 6696SOL     OW24129   1.392   8.070  10.212  0.0592 -0.0464 -0.5802
 6696SOL    HW124130   1.455   7.999  10.198  0.9424  0.6934 -0.5032
 6696SOL    HW224131   1.383   8.076  10.307 -0.0952 -0.1187 -0.5897
 6697SOL     OW24132   6.827   3.659   3.623 -0.1623 -0.1730  0.5063
 6697SOL    HW124133   6.793   3.748   3.632  0.1709  0.3517 -2.3569
 6697SOL    HW224134   6.921   3.671   3.611 -0.0364 -0.9684  0.6727
 6698SOL     OW24135   5.200   4.835   1.932  0.1122 -0.4558  0.4838
 6698SOL    HW124136   5.151   4.883   2.000  1.4664  2.2851 -0.3072
 6698SOL    HW224137   5.171   4.874   1.850 -0.5568 -2.8456 -0.4769
 6699SOL     OW24138   6.811  10.162   3.607 -0.6603 -0.6014 -0.1758
 6699SOL    HW124139   6.836  10.100   3.538  0.8598  0.1309 -0.3406
 6699SOL    HW224140   6.786  10.106   3.681  0.4045 -1.4342 -0.4044
 6700SOL     OW24141   1.239   3.072   7.060 -0.2847  0.1039 -0.1706
 6700SOL    HW124142   1.172   3.108   7.118 -0.4007  0.9189 -0.7952
 6700SOL    HW224143   1.300   3.029   7.119 -1.8520 -1.5294  0.3535
 6701SOL     OW24144   0.176   9.009   9.320  0.3201  0.0413 -0.1506
 6701SOL    HW124145   0.175   8.937   9.383  0.6235  0.6075  0.5141
 6701SOL    HW224146   0.214   9.082   9.368 -0.8177  0.9064 -0.5415
 6702SOL     OW24147   7.970   3.210   1.941 -0.7739 -0.0108  0.2495
 6702SOL    HW124148   7.896   3.162   1.978 -0.7579 -0.8791 -0.8063
 6702SOL    HW224149   8.029   3.142   1.909 -1.6324  0.6357 -3.0512
 6703SOL     OW24150   5.131   2.736   0.637 -0.6654  0.0056 -0.3603
 6703SOL    HW124151   5.186   2.665   0.672  0.8871  1.8709  1.2445
 6703SOL    HW224152   5.190   2.787   0.582 -1.5806  0.4633 -0.9380
 6704SOL     OW24153   4.764   7.116   4.655  0.1780 -0.5026 -0.5170
 6704SOL    HW124154   4.772   7.043   4.717  1.1349 -1.8625 -2.1597
 6704SOL    HW224155   4.670   7.132   4.650  0.1072 -0.0192  1.6281
 6705SOL     OW24156   2.617   8.995   8.036 -0.1738  0.1500 -0.4850
 6705SOL    HW124157   2.688   8.940   8.068 -1.2255 -1.0932 -0.2007
 6705SOL    HW224158   2.596   8.960   7.949 -1.6852 -0.7504  0.2109
 6706SOL     OW24159   1.078   1.727   3.212  0.5670  0.2231  0.2869
 6706SOL    HW124160   1.030   1.646   3.232 -0.9499  0.4364 -2.0553
 6706SOL    HW224161   1.167   1.710   3.242 -0.3340 -1.2350  2.3722
 6707SOL     OW24162   8.754   1.975   3.197 -0.2990 -0.0703 -0.0800
 6707SOL    HW124163   8.692   2.044   3.175 -0.1387 -0.0098 -0.3457
 6707SOL    HW224164   8.765   1.925   3.117 -2.1551 -1.8268  0.6729
 6708SOL     OW24165   5.465   6.435   9.578 -0.3203 -0.7864 -0.8575
 6708SOL    HW124166   5.398   6.502   9.594  1.7431  1.1874  0.0447
 6708SOL    HW224167   5.516   6.433   9.659  1.2237 -1.6189 -1.8127
 6709SOL     OW24168   7.047   8.587   7.947 -0.4074  0.3656  0.6147
 6709SOL    HW124169   7.131   8.612   7.986 -0.4192 -1.4358  1.9274
 6709SOL    HW224170   6.982   8.639   7.994 -0.2399 -0.2418  1.5327
 6710SOL     OW24171   5.183   2.564   6.861  0.1334  0.1599 -0.4254
 6710SOL    HW124172   5.092   2.539   6.880  0.0137  1.0317  0.1986
 6710SOL    HW224173   5.235   2.494   6.900 -0.2590 -0.1613 -0.4676
 6711SOL     OW24174   6.043   5.987   5.640 -0.6660 -0.4280 -0.3004
 6711SOL    HW124175   6.135   5.980   5.668 -0.9747  0.0362  0.8926
 6711SOL    HW224176   5.994   5.995   5.722 -1.4317  3.0293 -0.9354
 6712SOL     OW24177   7.087   9.084   0.349  0.3464 -0.2305  0.5731
 6712SOL    HW124178   7.009   9.122   0.388 -0.8672 -1.9262 -0.0759
 6712SOL    HW224179   7.058   9.053   0.263  1.7891 -0.7522  0.2460
 6713SOL     OW24180   7.524   6.278   4.518  0.2470  0.4406  0.0158
 6713SOL    HW124181   7.607   6.319   4.542  0.8659 -0.3522 -0.6785
 6713SOL    HW224182   7.458   6.347   4.529  0.9785  1.0406  0.6994
 6714SOL     OW24183   4.512   5.755   0.894 -0.3318 -0.0174 -0.4528
 6714SOL    HW124184   4.432   5.803   0.917 -1.3831 -1.2172 -1.5034
 6714SOL    HW224185   4.487   5.699   0.820  1.9704  0.9574 -2.0831
 6715SOL     OW24186   8.657   0.672   1.186 -0.9351  0.7526 -0.1627
 6715SOL    HW124187   8.745   0.693   1.217 -1.0887  0.3486  0.5808
 6715SOL    HW224188   8.599   0.718   1.246 -1.2752 -1.4657  1.3603
 6716SOL     OW24189   9.871   4.223  10.267 -0.5885 -0.3975 -0.1189
 6716SOL    HW124190   9.829   4.304  10.296 -2.1635 -1.1150 -0.3057
 6716SOL    HW224191   9.853   4.220  10.173  0.7389 -0.2533 -0.3939
 6717SOL     OW24192  10.237   5.759   6.973  0.0509 -0.2492 -0.3404
 6717SOL    HW124193  10.190   5.676   6.964  0.7733 -0.4787 -2.5341
 6717SOL    HW224194  10.213   5.809   6.895 -0.6181  1.7933  1.0784
 6718SOL     OW24195   1.085   6.153   5.015  0.0317 -0.7464  0.6283
 6718SOL    HW124196   1.020   6.147   5.086 -0.6553 -0.1015  0.0660
 6718SOL    HW224197   1.043   6.205   4.948  1.5112  0.5688  0.6641
 6719SOL     OW24198   2.813   4.888   6.612  0.4544 -0.4071 -0.3452
 6719SOL    HW124199   2.805   4.963   6.552 -2.2565 -0.0296  0.3456
 6719SOL    HW224200   2.847   4.925   6.693  0.8049 -0.2632 -0.5565
 6720SOL     OW24201  10.275   4.049   7.108 -0.4281  0.2261 -0.2253
 6720SOL    HW124202  10.287   4.080   7.198 -0.4806  0.3847 -0.2717
 6720SOL    HW224203  10.217   4.114   7.069  0.0955  0.4958 -0.5605
 6721SOL     OW24204   2.363   3.604   2.317  0.3542 -0.0509 -0.4181
 6721SOL    HW124205   2.281   3.644   2.288  0.0265 -0.6617 -0.3350
 6721SOL    HW224206   2.400   3.668   2.378 -0.2119  0.0846 -0.2140
 6722SOL     OW24207  10.022   3.590   5.324  0.3174  0.2093 -0.3164
 6722SOL    HW124208  10.043   3.562   5.413  0.5116 -0.4604 -0.5604
 6722SOL    HW224209   9.927   3.590   5.320  0.2180  2.8174  0.6638
 6723SOL     OW24210   5.927   5.163   1.825  0.0570 -0.1941  0.3010
 6723SOL    HW124211   5.883   5.089   1.867 -0.5739  0.4607  0.8146
 6723SOL    HW224212   6.019   5.152   1.848 -0.0073 -0.8950  0.2504
 6724SOL     OW24213   6.864   7.154   5.890  0.0420  0.7806 -0.4753
 6724SOL    HW124214   6.834   7.073   5.932 -0.8342  0.9049 -0.8412
 6724SOL    HW224215   6.955   7.137   5.866  0.2819  0.3857  0.6610
 6725SOL     OW24216   3.867   4.894   6.923  0.2488  0.1779  0.4183
 6725SOL    HW124217   3.823   4.978   6.934 -0.7182 -0.3500  0.7404
 6725SOL    HW224218   3.833   4.839   6.994 -0.5160 -1.0290 -0.8119
 6726SOL     OW24219   5.885   2.973   5.811 -0.6886  0.1342 -0.0996
 6726SOL    HW124220   5.924   2.998   5.895  1.7567 -1.4488 -0.6615
 6726SOL    HW224221   5.955   2.988   5.747 -1.4332 -1.6374 -1.3809
 6727SOL     OW24222   0.636   9.140   3.933 -0.2059  0.4422 -0.3980
 6727SOL    HW124223   0.563   9.193   3.964  0.4864 -0.4004  3.0406
 6727SOL    HW224224   0.713   9.177   3.977  0.8474 -1.1045 -0.8435
 6728SOL     OW24225   9.165   6.911   3.378 -0.2375  0.0187 -0.0759
 6728SOL    HW124226   9.200   6.850   3.313  0.8161 -1.8764  2.1276
 6728SOL    HW224227   9.071   6.890   3.382 -0.3460  0.2538 -1.0262
 6729SOL     OW24228   4.556   6.906   3.080  0.1828 -0.2800 -0.2108
 6729SOL    HW124229   4.524   6.988   3.042 -0.1403 -0.8806 -1.2760
 6729SOL    HW224230   4.513   6.837   3.030 -1.6663 -1.1866  2.4182
 6730SOL     OW24231   4.673   0.190   5.086 -0.0301 -0.3832 -0.5783
 6730SOL    HW124232   4.734   0.216   5.155 -2.2432  0.0817  1.3198
 6730SOL    HW224233   4.654   0.272   5.039 -0.0980 -0.3057 -0.4161
 6731SOL     OW24234   2.441   6.813   6.661  0.0442 -0.3187 -0.1601
 6731SOL    HW124235   2.466   6.756   6.734  1.1092  1.2926  0.8145
 6731SOL    HW224236   2.370   6.867   6.697  0.5856  0.4967 -0.2869
 6732SOL     OW24237   4.007   0.786   4.026  0.0943 -0.0938  0.3130
 6732SOL    HW124238   4.088   0.740   4.005 -0.5845 -0.4596 -1.6816
 6732SOL    HW224239   3.982   0.830   3.945 -2.8510 -1.7925  0.1490
 6733SOL     OW24240   0.965   4.895   0.993 -0.0353  0.2163  0.1124
 6733SOL    HW124241   0.989   4.824   0.933  0.4359  1.7043 -1.5493
 6733SOL    HW224242   1.044   4.910   1.045 -0.3491 -0.8794  0.9516
 6734SOL     OW24243   0.332   8.391  10.126  0.7101  0.3555 -0.5286
 6734SOL    HW124244   0.328   8.295  10.122  3.0014  0.1713  0.0986
 6734SOL    HW224245   0.282   8.413  10.205  1.5391 -0.4930  0.2678
 6735SOL     OW24246   8.847   4.437   8.443 -0.4996  0.0195 -0.0728
 6735SOL    HW124247   8.943   4.440   8.441 -0.4601 -0.6418  0.5454
 6735SOL    HW224248   8.823   4.362   8.389 -0.6320 -0.2611  0.3683
 6736SOL     OW24249   6.600   0.492   8.327  0.3138 -0.0971  0.6768
 6736SOL    HW124250   6.540   0.417   8.319  1.6387 -1.0389 -1.2457
 6736SOL    HW224251   6.606   0.527   8.238  1.6310  0.7402  1.0714
 6737SOL     OW24252   9.472   4.688   4.470 -0.4269 -0.6461 -0.0105
 6737SOL    HW124253   9.378   4.686   4.488 -0.6382  1.4158 -0.5856
 6737SOL    HW224254   9.487   4.775   4.432  1.6777 -1.0235 -0.1617
 6738SOL     OW24255   8.086   1.602   1.510 -0.2836 -0.0950  0.4361
 6738SOL    HW124256   8.014   1.539   1.521 -0.2781  0.0381  1.3524
 6738SOL    HW224257   8.096   1.611   1.416  1.1564 -3.0990  0.1911
 6739SOL     OW24258   2.728   8.527   6.375 -0.4086 -0.3653  0.1098
 6739SOL    HW124259   2.811   8.487   6.402 -0.3544  0.7506  1.7068
 6739SOL    HW224260   2.687   8.554   6.456 -1.7806  0.2291 -0.7486
 6740SOL     OW24261   1.840   7.633  10.282  0.2901 -0.1256 -0.0700
 6740SOL    HW124262   1.892   7.565  10.326 -3.4069 -0.7777  4.0344
 6740SOL    HW224263   1.780   7.585  10.225 -1.6076 -0.4317  2.0323
 6741SOL     OW24264   7.723   6.731   6.668 -0.5826 -0.3455 -0.2526
 6741SOL    HW124265   7.631   6.749   6.688 -0.9191 -2.5144  0.3522
 6741SOL    HW224266   7.728   6.636   6.657  0.9617 -0.0033 -3.7320
 6742SOL     OW24267   3.050   8.227   1.236 -0.3581  0.2115  0.4636
 6742SOL    HW124268   3.051   8.320   1.258 -1.7828  0.2895  0.2942
 6742SOL    HW224269   3.053   8.224   1.140  0.2393  0.0674  0.4871
 6743SOL     OW24270   7.401   0.511   0.247 -0.1093  0.1306 -0.1098
 6743SOL    HW124271   7.349   0.490   0.325  0.6436 -0.1625  0.3285
 6743SOL    HW224272   7.437   0.427   0.220  1.0639  0.4901  0.2853
 6744SOL     OW24273   7.247   2.103   6.377  0.2211 -0.1332 -0.4099
 6744SOL    HW124274   7.164   2.065   6.350 -0.5861  1.1766  0.1260
 6744SOL    HW224275   7.255   2.184   6.327  0.1828  0.7657  0.9659
 6745SOL     OW24276   2.115   6.985   9.329 -0.2379 -0.3730  0.0436
 6745SOL    HW124277   2.160   6.999   9.412 -0.6347 -1.0661  0.3849
 6745SOL    HW224278   2.137   6.895   9.305  1.8446  0.5167 -1.8317
 6746SOL     OW24279   3.757  10.010   6.029 -0.0504  0.1139 -0.2059
 6746SOL    HW124280   3.682  10.038   6.082 -0.4997 -2.3053  0.5818
 6746SOL    HW224281   3.786  10.089   5.985 -1.0848  1.7767  1.9137
 6747SOL     OW24282   1.466   6.153   8.985  0.6699  0.2780  0.4636
 6747SOL    HW124283   1.371   6.167   8.988  0.6831  0.3030  0.7706
 6747SOL    HW224284   1.503   6.241   8.998  0.7271  0.7069 -2.1113
 6748SOL     OW24285   7.143   9.115   7.725 -0.5674 -0.4435  0.2691
 6748SOL    HW124286   7.169   9.044   7.784 -1.0256 -0.8355  0.0106
 6748SOL    HW224287   7.197   9.189   7.752  0.9595 -1.2663 -0.3803
 6749SOL     OW24288   8.059  10.131   5.445  0.3138 -0.4349  0.5166
 6749SOL    HW124289   8.044  10.041   5.417 -0.6370  0.4039 -1.9536
 6749SOL    HW224290   7.971  10.166   5.460  0.7048 -0.0652  2.0749
 6750SOL     OW24291   5.221   8.419   9.073 -0.4089  0.3138  0.0406
 6750SOL    HW124292   5.260   8.353   9.016 -0.2933  1.1226 -0.8458
 6750SOL    HW224293   5.233   8.386   9.161  1.0882 -0.0819 -0.2929
 6751SOL     OW24294   3.911   2.467   1.731  0.4435  0.1557 -0.2607
 6751SOL    HW124295   3.910   2.396   1.667  0.0243  1.1882 -1.4172
 6751SOL    HW224296   3.841   2.444   1.793 -0.5214  0.1727 -1.3160
 6752SOL     OW24297   3.392   5.901   3.807 -0.4463  0.0416 -0.3050
 6752SOL    HW124298   3.351   5.818   3.832  0.8610 -0.1402  1.4055
 6752SOL    HW224299   3.485   5.880   3.800 -0.1439  1.2979 -0.1399
 6753SOL     OW24300   9.432   0.541   7.995 -0.7215  0.6777 -0.4465
 6753SOL    HW124301   9.469   0.498   7.918 -0.0526 -1.3712  0.9230
 6753SOL    HW224302   9.508   0.580   8.038 -0.4879 -1.0638  0.8569
 6754SOL     OW24303   8.688   6.167   2.231  0.3202 -0.7940 -0.5815
 6754SOL    HW124304   8.703   6.081   2.193  0.0846 -1.0614 -0.0842
 6754SOL    HW224305   8.598   6.164   2.262  0.1781 -0.2223 -0.9332
 6755SOL     OW24306   4.527   8.298   6.745  0.0053  0.4162  0.1648
 6755SOL    HW124307   4.451   8.286   6.803  0.4553 -1.1115  0.4998
 6755SOL    HW224308   4.490   8.292   6.657 -0.2280 -0.8017  0.3242
 6756SOL     OW24309   6.727   2.469   2.737  0.0860  0.0357 -0.4454
 6756SOL    HW124310   6.648   2.414   2.746 -0.0876  0.5873  1.9861
 6756SOL    HW224311   6.785   2.439   2.807  1.7170  0.2408 -1.6498
 6757SOL     OW24312   4.339   8.831   3.756  0.4677  0.5764  0.0304
 6757SOL    HW124313   4.325   8.749   3.708 -0.1193 -0.2422  1.5411
 6757SOL    HW224314   4.410   8.812   3.817  2.1502  2.0210 -1.3651
 6758SOL     OW24315   3.525   5.568   1.997 -0.3796 -0.1672  0.0026
 6758SOL    HW124316   3.580   5.503   1.953 -0.0959  0.5321 -0.6984
 6758SOL    HW224317   3.588   5.626   2.042 -0.5197  0.7161 -0.9134
 6759SOL     OW24318   9.493   8.875   9.294 -0.1202 -0.4019  0.2939
 6759SOL    HW124319   9.533   8.804   9.243  1.0493  1.3949 -1.4100
 6759SOL    HW224320   9.418   8.902   9.242 -0.0200  0.2194  0.4715
 6760SOL     OW24321   5.293   4.162   4.319  0.2192  0.1966  0.8072
 6760SOL    HW124322   5.242   4.196   4.393  0.1733 -0.4146  1.0636
 6760SOL    HW224323   5.271   4.069   4.316 -0.1964  0.3201 -0.3227
 6761SOL     OW24324   9.019   8.341   2.314 -0.3599 -0.1471  0.0256
 6761SOL    HW124325   9.029   8.371   2.224  0.0316 -0.7984 -0.1486
 6761SOL    HW224326   9.108   8.339   2.350 -0.5919  1.0057  0.7292
 6762SOL     OW24327   5.050   1.481   7.739 -0.5850 -0.6307 -0.5070
 6762SOL    HW124328   5.099   1.465   7.658 -2.3113 -0.4872 -1.6296
 6762SOL    HW224329   5.117   1.500   7.805  0.7983  1.9835 -2.4995
 6763SOL     OW24330   1.181   1.817   0.819  0.4564 -0.2769 -0.3072
 6763SOL    HW124331   1.141   1.794   0.735 -0.5524 -0.1760  0.1363
 6763SOL    HW224332   1.147   1.904   0.838  0.6653 -0.3114  0.2261
 6764SOL     OW24333   4.612   6.465   6.753  0.8038 -0.0029 -0.0344
 6764SOL    HW124334   4.588   6.495   6.840 -0.0702 -0.5854 -0.0615
 6764SOL    HW224335   4.531   6.470   6.703  1.6931  2.3504 -1.4280
 6765SOL     OW24336   2.552   4.683   7.758 -0.4325 -0.0627 -0.0437
 6765SOL    HW124337   2.587   4.593   7.753  0.9012  0.4782 -1.4502
 6765SOL    HW224338   2.565   4.708   7.849  1.2059 -0.5668 -0.1007
 6766SOL     OW24339   4.024   1.987   2.766 -0.1542  0.3555 -0.3712
 6766SOL    HW124340   4.116   1.987   2.792 -0.3069  0.3182  0.1731
 6766SOL    HW224341   3.976   2.004   2.847 -0.5717  1.4847 -0.8287
 6767SOL     OW24342   1.788   4.687   2.421 -0.6380  0.2524  0.0802
 6767SOL    HW124343   1.724   4.725   2.360 -0.5875 -0.6138 -0.5401
 6767SOL    HW224344   1.743   4.612   2.459  0.6538 -1.6865 -1.9663
 6768SOL     OW24345   3.365   0.879   9.274 -0.0992 -0.8116 -0.6111
 6768SOL    HW124346   3.435   0.914   9.219  0.6112 -1.4660 -0.1422
 6768SOL    HW224347   3.386   0.909   9.362 -0.4651 -0.9385 -0.4784
 6769SOL     OW24348   0.405   3.977   7.644 -0.0003  0.4304 -0.0227
 6769SOL    HW124349   0.361   3.986   7.729  1.1218  1.0563  0.5036
 6769SOL    HW224350   0.480   3.921   7.662 -0.3074 -0.2589 -0.8247
 6770SOL     OW24351   0.912   3.864   6.052  0.1327  0.0471  0.4174
 6770SOL    HW124352   0.871   3.848   6.138  0.5629 -2.8265  0.1710
 6770SOL    HW224353   0.990   3.809   6.052 -0.2132 -0.5452 -2.0808
 6771SOL     OW24354   5.202   6.089   9.658  0.1273  0.5057 -0.1793
 6771SOL    HW124355   5.152   6.156   9.612 -2.0426 -0.9537 -0.0619
 6771SOL    HW224356   5.175   6.007   9.617  0.8339 -0.5195  1.3346
 6772SOL     OW24357   6.910   1.825   7.706 -0.1964 -0.1532 -0.1620
 6772SOL    HW124358   6.971   1.763   7.746 -1.3859 -1.3859 -0.1719
 6772SOL    HW224359   6.919   1.809   7.612 -0.3866 -0.2033 -0.1723
 6773SOL     OW24360   6.813   9.487   4.780 -0.5073 -0.1830  0.1631
 6773SOL    HW124361   6.878   9.421   4.802  0.9920  1.2964  0.3235
 6773SOL    HW224362   6.852   9.536   4.708 -1.4808  0.6925  0.2097
 6774SOL     OW24363   1.167   6.044   7.598  0.7176  0.3749  0.1711
 6774SOL    HW124364   1.198   6.044   7.507  0.0186  0.3408 -0.0705
 6774SOL    HW224365   1.093   5.984   7.599 -0.2658  1.5503  0.4105
 6775SOL     OW24366   0.283   7.273   2.163 -0.2829 -0.0563 -1.0016
 6775SOL    HW124367   0.213   7.334   2.188 -0.7299 -1.2042  0.7366
 6775SOL    HW224368   0.237   7.198   2.126  0.2497  0.4824 -2.8720
 6776SOL     OW24369   4.662   8.377   2.064  0.5487 -0.7939  0.6022
 6776SOL    HW124370   4.678   8.333   1.981  1.2184 -0.0573  0.3296
 6776SOL    HW224371   4.750   8.389   2.102  0.2329 -1.4717  1.6063
 6777SOL     OW24372   8.770   4.015   0.741  0.6092 -0.4235 -0.5760
 6777SOL    HW124373   8.817   3.939   0.708  0.9174 -1.2458  1.5590
 6777SOL    HW224374   8.801   4.025   0.831 -2.2736 -0.1933  0.4976
 6778SOL     OW24375   1.674   6.775   7.485 -0.4425  0.2576  0.8995
 6778SOL    HW124376   1.644   6.710   7.548 -0.8857  0.3102  0.7497
 6778SOL    HW224377   1.599   6.834   7.475  0.0652  0.9900  1.2913
 6779SOL     OW24378   9.951   0.781   7.254 -0.6307  0.0728  0.0377
 6779SOL    HW124379  10.027   0.725   7.237  0.0265  0.3870  1.7264
 6779SOL    HW224380   9.885   0.721   7.288 -0.1238  0.1923  1.2960
 6780SOL     OW24381   5.854   0.472   0.740  0.2894  0.3113  0.1065
 6780SOL    HW124382   5.804   0.401   0.783 -1.0566  1.3473  0.3314
 6780SOL    HW224383   5.842   0.456   0.647 -1.4640  1.1559  0.1393
 6781SOL     OW24384   2.872   2.841   4.474  0.4063  0.3001 -0.6086
 6781SOL    HW124385   2.914   2.916   4.432  3.4554 -0.1478  1.3452
 6781SOL    HW224386   2.868   2.775   4.405  1.0145  1.0638 -1.4124
 6782SOL     OW24387   3.166   1.262   7.567  0.2882 -0.2262  0.3976
 6782SOL    HW124388   3.153   1.348   7.608  0.7821  0.1105 -0.1338
 6782SOL    HW224389   3.081   1.219   7.573  0.4163 -0.3075  2.0424
 6783SOL     OW24390   3.415   0.509   7.799  0.5964 -0.8035  0.0018
 6783SOL    HW124391   3.363   0.589   7.806  0.0406 -1.1987  0.5183
 6783SOL    HW224392   3.505   0.537   7.816  0.9095  0.2519 -2.9465
 6784SOL     OW24393   5.392   9.030   3.979 -0.4208  0.2100  0.3867
 6784SOL    HW124394   5.431   9.103   3.930  0.3560 -0.5028 -0.0911
 6784SOL    HW224395   5.424   8.952   3.934 -2.6787 -0.4409 -0.2498
 6785SOL     OW24396   0.333   3.754   1.256  0.4422 -0.9429  0.1794
 6785SOL    HW124397   0.351   3.812   1.330  0.0298 -0.0798 -0.3775
 6785SOL    HW224398   0.250   3.711   1.279  0.8429 -1.4513  0.6765
 6786SOL     OW24399   3.243   3.828   9.584  0.1791  0.1233 -0.1595
 6786SOL    HW124400   3.219   3.919   9.567  2.1547  0.8930  0.7802
 6786SOL    HW224401   3.339   3.828   9.583  0.2311 -1.8189  0.4936
 6787SOL     OW24402   1.220   9.425   8.732  0.1775  0.1423 -0.3336
 6787SOL    HW124403   1.141   9.372   8.744  0.2400  0.2484  0.6413
 6787SOL    HW224404   1.190   9.515   8.742  0.2767  0.2316 -0.8145
 6788SOL     OW24405   0.411   5.482  10.255  0.4464 -0.8026  0.3868
 6788SOL    HW124406   0.455   5.517  10.177  0.8685  1.2395  1.4785
 6788SOL    HW224407   0.473   5.418  10.290  1.1763 -0.2423  0.1570
 6789SOL     OW24408   4.881   1.928   8.610 -0.6148  0.0048 -0.1339
 6789SOL    HW124409   4.797   1.909   8.569 -0.9853 -0.6652  0.8927
 6789SOL    HW224410   4.943   1.871   8.563 -1.5589 -3.3383  2.2573
 6790SOL     OW24411   3.434   7.500  10.288  0.4453  0.7421  0.2616
 6790SOL    HW124412   3.493   7.575  10.294  0.0336  1.0199  0.7652
 6790SOL    HW224413   3.464   7.440  10.356  0.0491  0.9470  0.6142
 6791SOL     OW24414   8.980   8.819   1.270 -0.5276 -0.4255  0.1182
 6791SOL    HW124415   8.954   8.796   1.359 -1.6340  0.9753  0.1915
 6791SOL    HW224416   8.958   8.741   1.219  0.3157 -1.3196  1.0864
 6792SOL     OW24417   5.532   2.405   2.411  0.9240  0.3038  0.0720
 6792SOL    HW124418   5.491   2.394   2.497  0.3834 -1.5203 -0.3782
 6792SOL    HW224419   5.611   2.352   2.414  0.0889 -1.1097 -1.0222
 6793SOL     OW24420   4.716   9.002   7.089 -0.1468  0.6174  0.2602
 6793SOL    HW124421   4.682   9.065   7.152 -1.0282  1.4820 -1.0238
 6793SOL    HW224422   4.639   8.953   7.060  0.4571 -0.7119  0.8608
 6794SOL     OW24423   4.108   4.369   3.829  0.5059  0.0128 -0.5783
 6794SOL    HW124424   4.069   4.285   3.805  0.0253  0.2996 -0.8192
 6794SOL    HW224425   4.154   4.351   3.911  0.2697 -0.4472 -0.5400
 6795SOL     OW24426   9.707   4.336   5.083  0.1519 -0.0071 -0.0123
 6795SOL    HW124427   9.650   4.331   5.006  1.0053  1.1798 -0.7474
 6795SOL    HW224428   9.775   4.270   5.067 -0.6135 -0.9578  0.5532
 6796SOL     OW24429   5.575   6.883   5.856  0.2486 -0.2184  0.3951
 6796SOL    HW124430   5.595   6.943   5.784  1.4159 -1.5772 -0.4761
 6796SOL    HW224431   5.524   6.813   5.815 -0.2859 -0.3058  1.1954
 6797SOL     OW24432   1.483   1.755   2.862 -0.2468 -0.4288 -0.1821
 6797SOL    HW124433   1.564   1.767   2.812 -0.2343 -0.8533 -0.2685
 6797SOL    HW224434   1.420   1.814   2.821  0.4919  1.2536  0.9980
 6798SOL     OW24435   5.611   7.271   8.334 -0.3015  0.2370 -0.0868
 6798SOL    HW124436   5.555   7.340   8.297 -0.4555  0.0458 -0.2114
 6798SOL    HW224437   5.697   7.287   8.295 -0.0598  1.0397  0.7438
 6799SOL     OW24438  10.033   5.324   4.656 -0.0407  0.1730  0.0186
 6799SOL    HW124439  10.053   5.364   4.571  0.1254 -1.4584 -0.7511
 6799SOL    HW224440  10.117   5.323   4.702 -0.3396  2.0187  0.6479
 6800SOL     OW24441   7.361   0.359   7.333  0.1371 -0.0424 -0.6624
 6800SOL    HW124442   7.268   0.370   7.316 -0.0571 -2.3711 -1.4508
 6800SOL    HW224443   7.366   0.332   7.425 -0.0570 -0.5759 -0.8024
 6801SOL     OW24444   6.391   0.304   8.336  0.0494  0.1039  0.5344
 6801SOL    HW124445   6.440   0.259   8.405  0.5633 -2.4122 -1.3349
 6801SOL    HW224446   6.341   0.371   8.382  2.8901  0.7989  2.9349
 6802SOL     OW24447   3.974   8.766   1.161  0.3095  0.0837 -0.4856
 6802SOL    HW124448   4.038   8.824   1.121  0.0891  0.5217 -0.2104
 6802SOL    HW224449   4.026   8.692   1.194  0.6037  0.1767 -0.7389
 6803SOL     OW24450   5.829   7.917   7.557 -0.4373  0.0523  0.1410
 6803SOL    HW124451   5.749   7.865   7.556 -0.6688  0.3827  0.7782
 6803SOL    HW224452   5.886   7.871   7.620  0.3772 -0.8975 -1.2384
 6804SOL     OW24453   3.842   7.834   2.027 -0.1251 -0.3047 -0.5520
 6804SOL    HW124454   3.823   7.776   2.100 -0.4143 -0.3484 -0.6602
 6804SOL    HW224455   3.938   7.841   2.026 -0.1593  0.5196  0.4580
 6805SOL     OW24456   9.993   0.532   6.794  0.3691 -0.1289 -0.9356
 6805SOL    HW124457  10.072   0.567   6.835 -0.0907  0.1661 -0.2940
 6805SOL    HW224458  10.017   0.442   6.769  0.3649 -0.6792  0.8819
 6806SOL     OW24459   6.006   4.174   0.912  0.0742  0.0530  0.2692
 6806SOL    HW124460   5.998   4.265   0.883 -0.2918  0.3274  1.1892
 6806SOL    HW224461   6.051   4.130   0.840 -1.9036  0.4143 -1.2676
 6807SOL     OW24462   1.134   7.414   5.480 -0.1142 -0.2576  0.1097
 6807SOL    HW124463   1.050   7.432   5.522 -0.0985 -1.1562  0.5674
 6807SOL    HW224464   1.129   7.457   5.395 -1.3167 -0.8820 -0.1510
 6808SOL     OW24465   2.628   9.037   8.629 -0.4640 -0.1560  0.0712
 6808SOL    HW124466   2.666   9.035   8.541 -0.4554  0.5515  0.0478
 6808SOL    HW224467   2.552   9.096   8.620 -0.6135 -0.2857  0.4782
 6809SOL     OW24468   9.940   1.009   6.989 -0.0208 -0.0050 -0.1035
 6809SOL    HW124469   9.960   1.074   7.056  1.5038  1.5521 -1.9373
 6809SOL    HW224470   9.851   0.979   7.009  0.9560 -0.9312  3.5578
 6810SOL     OW24471   6.201   1.582   6.556  0.4890 -0.1777 -0.3763
 6810SOL    HW124472   6.164   1.501   6.521 -2.0065 -0.7008  2.9744
 6810SOL    HW224473   6.135   1.649   6.536 -0.2501 -0.2031  1.6726
 6811SOL     OW24474   2.996   1.720   2.093  0.7002  0.2401  0.0976
 6811SOL    HW124475   3.067   1.783   2.086  0.5328  0.2905 -1.3263
 6811SOL    HW224476   3.030   1.651   2.150  1.7594  0.4267 -0.3013
 6812SOL     OW24477   3.382   9.565   9.287  0.5371 -0.1314 -0.1187
 6812SOL    HW124478   3.307   9.605   9.332  1.3679  0.5696  0.6636
 6812SOL    HW224479   3.437   9.639   9.261  2.2254 -0.7353  1.5603
 6813SOL     OW24480   0.227   5.505   6.006  0.4241  0.5217  0.3388
 6813SOL    HW124481   0.280   5.427   5.988  0.9172  0.8923  0.1601
 6813SOL    HW224482   0.137   5.473   6.006  0.6129 -0.0265  0.1429
 6814SOL     OW24483   4.636   3.212   4.636 -0.2377 -0.8280 -0.6214
 6814SOL    HW124484   4.713   3.162   4.607  0.5714 -0.5928  1.0035
 6814SOL    HW224485   4.570   3.145   4.653  0.1044 -1.1678 -0.5983
 6815SOL     OW24486   5.536   8.885   3.218  0.1357 -0.4158  0.6695
 6815SOL    HW124487   5.455   8.914   3.175  0.6638  1.9559  1.1575
 6815SOL    HW224488   5.506   8.841   3.297 -0.7101  1.1680  1.2755
 6816SOL     OW24489  10.205   7.998   5.617 -0.1854  0.0723 -0.3397
 6816SOL    HW124490  10.295   8.011   5.645  0.0086 -1.2654 -0.2907
 6816SOL    HW224491  10.175   8.086   5.591  0.9906  0.5943  0.0056
 6817SOL     OW24492   2.597   8.150   0.568  0.0450 -0.1665 -0.4350
 6817SOL    HW124493   2.554   8.122   0.487 -0.3481  1.6027 -0.8916
 6817SOL    HW224494   2.590   8.246   0.566 -0.9927 -0.1108  2.2404
 6818SOL     OW24495   4.140   1.684   3.856 -0.3828  0.3192  0.1311
 6818SOL    HW124496   4.123   1.773   3.827  0.9343  0.3726 -0.5819
 6818SOL    HW224497   4.107   1.629   3.785 -1.5212  0.2009  0.7307
 6819SOL     OW24498   5.106   8.145   0.705  0.5412 -0.1967 -0.2850
 6819SOL    HW124499   5.065   8.231   0.696  1.1091  0.1929  0.6501
 6819SOL    HW224500   5.036   8.088   0.737  0.1675 -0.0828 -0.8915
 6820SOL     OW24501   2.349   7.523  10.155 -0.0967 -0.2314  0.0755
 6820SOL    HW124502   2.399   7.459  10.104 -1.0110 -0.9314  0.0290
 6820SOL    HW224503   2.309   7.580  10.089 -0.7504 -0.7330  0.0384
 6821SOL     OW24504   7.673   3.043   1.681 -0.0053 -0.0685  0.7304
 6821SOL    HW124505   7.701   3.128   1.645 -0.4518  0.4189  1.5132
 6821SOL    HW224506   7.581   3.056   1.704  0.0570 -0.6197  1.3075
 6822SOL     OW24507   8.257   7.897   6.803 -0.2415  0.0522 -0.8037
 6822SOL    HW124508   8.340   7.873   6.763  0.9877  1.3368  0.8636
 6822SOL    HW224509   8.240   7.828   6.867  0.2971  0.5114 -0.1481
 6823SOL     OW24510   9.542  10.119   1.801  0.2768  0.3826  0.3469
 6823SOL    HW124511   9.568  10.191   1.744 -0.1717  1.0267  0.9324
 6823SOL    HW224512   9.466  10.153   1.849 -0.0547 -0.5492  0.5036
 6824SOL     OW24513   0.396   1.168   7.690  0.8514 -0.4980  0.1188
 6824SOL    HW124514   0.329   1.102   7.671 -1.5858  1.6472  0.6642
 6824SOL    HW224515   0.424   1.149   7.779 -2.0462  0.8147  1.4414
 6825SOL     OW24516   7.900  10.238   9.924 -0.3144  0.4020  0.4796
 6825SOL    HW124517   7.873  10.322   9.960 -0.0908  0.7191 -0.0758
 6825SOL    HW224518   7.875  10.174   9.991  0.9592  1.0591  1.6328
 6826SOL     OW24519   2.273   7.283   8.626  0.1179 -0.1489 -0.4908
 6826SOL    HW124520   2.272   7.283   8.722  0.2699  5.7032 -0.1740
 6826SOL    HW224521   2.365   7.294   8.603  0.1908 -2.2927 -1.5146
 6827SOL     OW24522   7.458   8.001   8.908 -0.4790 -0.0715  0.6129
 6827SOL    HW124523   7.540   7.952   8.899 -0.5690 -0.3607  1.3098
 6827SOL    HW224524   7.445   8.007   9.002 -1.0248  0.3720  0.5073
 6828SOL     OW24525   2.575   1.023   2.218  0.0591  0.1268  0.0879
 6828SOL    HW124526   2.504   0.962   2.198 -1.4074  0.9443  2.3855
 6828SOL    HW224527   2.655   0.973   2.201 -1.0591 -1.8885  0.3875
 6829SOL     OW24528   1.433   3.044   9.729  0.2659 -0.3226 -0.3347
 6829SOL    HW124529   1.375   3.119   9.745 -0.6562 -1.1902  0.5447
 6829SOL    HW224530   1.373   2.971   9.711  0.9053 -1.8276  2.9567
 6830SOL     OW24531   8.695   5.706   3.650 -0.6352  0.6695  0.0277
 6830SOL    HW124532   8.686   5.765   3.576  0.4895  1.6526  0.6386
 6830SOL    HW224533   8.775   5.657   3.633 -0.5392  0.6781  0.4424
 6831SOL     OW24534   6.743   9.054   6.342  0.0142 -0.5928  0.4125
 6831SOL    HW124535   6.831   9.030   6.370  0.8160  0.2651 -1.2210
 6831SOL    HW224536   6.755   9.135   6.292 -1.8731  0.1990  1.1430
 6832SOL     OW24537   5.841   3.642   8.060  0.0376  0.0736 -0.0549
 6832SOL    HW124538   5.844   3.651   7.965  1.6128 -1.0444 -0.1537
 6832SOL    HW224539   5.749   3.657   8.083 -0.4866 -0.2102 -1.8137
 6833SOL     OW24540   9.098   3.872   8.481 -0.8424 -0.2350 -0.3171
 6833SOL    HW124541   9.160   3.816   8.528 -1.6992 -0.3357  0.7558
 6833SOL    HW224542   9.149   3.912   8.411  0.5366 -0.0119  0.7667
 6834SOL     OW24543   5.387   8.497   1.351 -0.3163 -0.3262  0.5267
 6834SOL    HW124544   5.447   8.461   1.417 -0.1408 -0.9018  0.0672
 6834SOL    HW224545   5.326   8.426   1.332  1.2512 -1.1670 -1.8657
 6835SOL     OW24546   2.300   6.806   9.489  0.4668  0.1963 -0.2336
 6835SOL    HW124547   2.338   6.839   9.570 -1.4308 -1.1561  1.2976
 6835SOL    HW224548   2.291   6.711   9.503 -0.3155 -0.0177 -1.8610
 6836SOL     OW24549   8.258   7.369   3.710  0.3378  0.7331 -0.1042
 6836SOL    HW124550   8.190   7.305   3.694  0.9542  0.1492 -0.4446
 6836SOL    HW224551   8.211   7.452   3.723 -0.4499  0.2448  0.2004
 6837SOL     OW24552   1.562   9.655   6.243  0.1302 -0.3788  0.2150
 6837SOL    HW124553   1.521   9.609   6.316  0.8224  2.2930  2.4483
 6837SOL    HW224554   1.627   9.712   6.283  1.3485  0.4415 -2.6208
 6838SOL     OW24555  10.259   1.139   8.176 -0.6545  0.3394  0.0721
 6838SOL    HW124556  10.272   1.204   8.245 -0.4324  0.6402 -0.2475
 6838SOL    HW224557  10.200   1.182   8.113 -0.8267  0.0825  0.0564
 6839SOL     OW24558   1.918   6.678   3.960  0.0940 -0.0572 -0.5464
 6839SOL    HW124559   1.990   6.707   3.904 -1.1209 -1.1160 -2.7979
 6839SOL    HW224560   1.857   6.752   3.961  0.0486 -0.0909 -0.7644
 6840SOL     OW24561   4.556   5.621   9.138 -0.0795  0.3998  0.5741
 6840SOL    HW124562   4.486   5.585   9.083  0.5610  0.4605 -0.3138
 6840SOL    HW224563   4.535   5.591   9.226 -0.1685 -1.2329  0.0332
 6841SOL     OW24564   7.099   7.196   8.081  1.0168  0.2013  0.1007
 6841SOL    HW124565   7.053   7.271   8.045 -0.5597 -0.9907 -0.4714
 6841SOL    HW224566   7.038   7.123   8.072  3.1771 -1.5783 -1.1412
 6842SOL     OW24567   8.334   8.642   0.974  0.3283 -0.1681  0.4330
 6842SOL    HW124568   8.377   8.622   1.058 -1.4816 -0.4267  1.3572
 6842SOL    HW224569   8.372   8.725   0.947 -0.3143  0.8731  2.4739
 6843SOL     OW24570   2.104   9.763   8.600 -0.2769  0.1685 -0.3207
 6843SOL    HW124571   2.085   9.725   8.686  0.3089 -0.3426 -0.4042
 6843SOL    HW224572   2.162   9.699   8.559  1.5187  1.5951 -0.1047
 6844SOL     OW24573  10.247   5.423   4.870 -0.0173  0.0407  0.7420
 6844SOL    HW124574  10.166   5.429   4.921 -1.8809 -2.2281 -1.6619
 6844SOL    HW224575  10.243   5.497   4.810  0.1940  0.4773  1.2608
 6845SOL     OW24576   2.605   9.659   8.261 -0.0189  0.5970 -0.2928
 6845SOL    HW124577   2.517   9.625   8.278 -0.0245 -0.8604 -2.7693
 6845SOL    HW224578   2.594   9.719   8.187  0.6903  2.7748  1.2523
 6846SOL     OW24579   5.446   2.605   9.387 -0.5548 -0.2645 -0.3370
 6846SOL    HW124580   5.541   2.593   9.386 -0.3987  0.8729  0.0830
 6846SOL    HW224581   5.433   2.690   9.428 -1.6670  0.5038 -2.1842
 6847SOL     OW24582   7.219   2.988   1.497  0.1853  0.2309 -0.1423
 6847SOL    HW124583   7.277   2.913   1.496 -1.5472 -1.1852  0.0677
 6847SOL    HW224584   7.212   3.012   1.589  1.1130  0.9769 -0.2569
 6848SOL     OW24585   3.012  10.056   4.374  0.1150 -0.1239 -0.2145
 6848SOL    HW124586   3.095  10.018   4.404  0.3124 -1.0987 -1.8265
 6848SOL    HW224587   3.032  10.087   4.285 -0.8578  1.0248 -0.0468
 6849SOL     OW24588   6.588   1.737   6.266  0.7209 -0.5387  0.0012
 6849SOL    HW124589   6.533   1.743   6.187  0.6836 -0.5030  0.0297
 6849SOL    HW224590   6.666   1.689   6.237  1.9395  1.7469 -0.7353
 6850SOL     OW24591   8.842   8.343  10.061 -0.0909 -0.1453  0.2900
 6850SOL    HW124592   8.833   8.274  10.126 -0.0740 -1.1146 -0.7001
 6850SOL    HW224593   8.757   8.387  10.060 -0.7482 -1.4013 -0.4190
 6851SOL     OW24594   3.767   8.787   9.334 -0.4638  0.0528  0.0713
 6851SOL    HW124595   3.734   8.842   9.264 -0.7744  0.6273  0.6611
 6851SOL    HW224596   3.861   8.803   9.336 -0.5665  0.6367  0.3002
 6852SOL     OW24597   1.326   6.422   9.043 -0.2758 -0.4242  0.2103
 6852SOL    HW124598   1.411   6.456   9.015  0.7294 -1.3006  2.0236
 6852SOL    HW224599   1.262   6.479   9.000  1.2478  1.0418 -0.2111
 6853SOL     OW24600   6.804   4.979   3.510 -0.4467 -0.7467 -0.0299
 6853SOL    HW124601   6.748   4.909   3.476 -1.2581 -0.0698 -0.1254
 6853SOL    HW224602   6.798   5.049   3.445  0.2198 -0.5151  0.1476
 6854SOL     OW24603   5.252   1.564   7.893 -0.3560 -0.4274  0.2529
 6854SOL    HW124604   5.225   1.652   7.918  0.5096  0.4039 -1.5428
 6854SOL    HW224605   5.300   1.530   7.968  0.8412  1.3430  0.3432
 6855SOL     OW24606   1.554   8.920   6.704  0.6805 -0.0069 -0.2390
 6855SOL    HW124607   1.632   8.974   6.703  0.6691  0.0121 -0.0694
 6855SOL    HW224608   1.516   8.933   6.791  0.6635 -0.2659 -0.2073
 6856SOL     OW24609   1.509  10.047   5.082  0.2579  0.3349  0.2422
 6856SOL    HW124610   1.456  10.115   5.040 -0.0111  0.0821  0.1678
 6856SOL    HW224611   1.569  10.095   5.139 -0.5132  0.5930  0.8609
 6857SOL     OW24612   3.149   4.501   0.263 -0.1199 -0.2579  0.2214
 6857SOL    HW124613   3.180   4.417   0.229  0.6111 -0.0409  0.3476
 6857SOL    HW224614   3.220   4.534   0.317 -0.5440  0.2777  0.4698
 6858SOL     OW24615   0.010   1.144   4.987  0.5246 -0.5601  0.3872
 6858SOL    HW124616   0.028   1.163   5.079  0.4138 -2.4153  0.8471
 6858SOL    HW224617   0.096   1.140   4.946  0.7050 -1.5491  0.8332
 6859SOL     OW24618   2.369   2.392   3.161  0.5466 -0.1734 -0.1826
 6859SOL    HW124619   2.373   2.342   3.242 -0.0773  1.8340  1.1506
 6859SOL    HW224620   2.444   2.360   3.110  0.9488 -1.4778  1.1509
 6860SOL     OW24621   9.745   9.434   4.399 -0.4024 -1.0841 -0.5421
 6860SOL    HW124622   9.813   9.486   4.441  0.8868 -0.9091 -2.6477
 6860SOL    HW224623   9.693   9.398   4.471  0.0784  1.1947  1.0407
 6861SOL     OW24624   7.165   6.849   9.741 -0.5343  0.0251 -0.2949
 6861SOL    HW124625   7.157   6.892   9.656 -0.3982 -1.2026 -0.9513
 6861SOL    HW224626   7.170   6.921   9.804 -1.0706  0.9485 -1.2781
 6862SOL     OW24627   5.818   5.441   2.200 -0.3487 -0.1421  0.3356
 6862SOL    HW124628   5.871   5.391   2.262  0.2770  1.9507  1.6042
 6862SOL    HW224629   5.877   5.508   2.166 -1.1003 -0.3118 -1.4307
 6863SOL     OW24630   5.534   0.081   1.883  0.6121  0.2189 -0.2582
 6863SOL    HW124631   5.601   0.149   1.887 -0.0566  0.8431  1.1460
 6863SOL    HW224632   5.493   0.083   1.970 -1.1209 -0.2321 -1.0179
 6864SOL     OW24633   2.358   9.679  10.024  0.1063 -0.2033 -0.0812
 6864SOL    HW124634   2.270   9.712  10.042 -0.4378 -1.5159 -0.1657
 6864SOL    HW224635   2.348   9.629   9.942  1.2236  0.7135 -0.7996
 6865SOL     OW24636   9.258   7.360   7.141  0.5570  0.6401 -0.1697
 6865SOL    HW124637   9.305   7.369   7.058  0.6203 -0.9746 -0.3440
 6865SOL    HW224638   9.232   7.449   7.164  1.9393  1.3102 -1.0973
 6866SOL     OW24639   1.021   2.008   0.932 -0.1150  0.0880  0.4595
 6866SOL    HW124640   1.097   2.057   0.963 -0.2759 -0.0347  1.0592
 6866SOL    HW224641   0.956   2.017   1.002 -1.1855  1.3928 -0.6361
 6867SOL     OW24642   0.209   1.823   6.543 -0.1951 -0.3418 -0.4304
 6867SOL    HW124643   0.170   1.900   6.503 -4.1226 -0.8153  1.8941
 6867SOL    HW224644   0.149   1.751   6.520  0.1306 -1.5217  2.0538
 6868SOL     OW24645   1.408   7.832   5.752  0.3214 -0.1246  0.0510
 6868SOL    HW124646   1.344   7.761   5.747  0.2921 -0.2170  1.3706
 6868SOL    HW224647   1.490   7.794   5.719  0.7210 -1.3223  2.2588
 6869SOL     OW24648   9.563   7.756   7.905 -0.1583 -0.4216  0.6971
 6869SOL    HW124649   9.528   7.682   7.856  1.3365 -0.6523 -0.0714
 6869SOL    HW224650   9.524   7.748   7.992 -1.0696 -1.3245  0.2169
 6870SOL     OW24651   5.442   8.718   0.087  0.0824  0.0296 -0.0138
 6870SOL    HW124652   5.519   8.713   0.031 -1.4318 -1.8883 -2.1196
 6870SOL    HW224653   5.472   8.686   0.173  1.9050  0.6450 -0.3859
 6871SOL     OW24654   5.172   1.899   4.032  0.2873  0.1190  0.2529
 6871SOL    HW124655   5.263   1.875   4.017  1.0050  2.2423  0.8565
 6871SOL    HW224656   5.128   1.881   3.949  1.1125 -1.4192  0.1156
 6872SOL     OW24657   9.939   0.341   4.165  0.0078  0.3473  0.3500
 6872SOL    HW124658   9.967   0.366   4.076 -1.1383  1.4852  0.2732
 6872SOL    HW224659  10.018   0.308   4.206  1.0154  1.5680 -0.5014
 6873SOL     OW24660   5.743   0.368  10.136 -0.0294 -0.4100  0.1454
 6873SOL    HW124661   5.673   0.395  10.076  0.0245  0.0990  0.3042
 6873SOL    HW224662   5.821   0.360  10.081  0.2888  1.1693  0.2980
 6874SOL     OW24663   6.420   1.096   0.581  0.2208  0.1048  0.1003
 6874SOL    HW124664   6.487   1.161   0.560  1.2080 -1.5000 -2.1382
 6874SOL    HW224665   6.395   1.059   0.496 -1.5315 -1.2673  1.1346
 6875SOL     OW24666   5.996   2.043   1.363  0.5345 -0.0436 -0.0780
 6875SOL    HW124667   5.964   1.970   1.309 -0.4140 -0.4480  0.9990
 6875SOL    HW224668   5.917   2.085   1.396  1.0828  1.2177 -0.3184
 6876SOL     OW24669   4.266   0.225   7.096 -0.0586 -0.3850 -0.0373
 6876SOL    HW124670   4.268   0.314   7.130  1.9379 -0.5980  0.5557
 6876SOL    HW224671   4.192   0.184   7.141  1.5165 -0.1962  3.0054
 6877SOL     OW24672   8.335   8.943   5.031 -0.1972  0.1310  0.3307
 6877SOL    HW124673   8.261   8.960   4.973  1.3282 -0.0615 -1.7463
 6877SOL    HW224674   8.351   8.849   5.024  1.2564  0.4199 -0.5527
 6878SOL     OW24675   8.090   0.258   9.263  0.3449 -0.0851  0.4327
 6878SOL    HW124676   8.085   0.217   9.177  0.5303 -0.3160  0.5327
 6878SOL    HW224677   8.118   0.187   9.322 -0.5669 -0.1380  0.8229
 6879SOL     OW24678   6.698   8.023   8.172 -0.3877  0.5854 -0.2946
 6879SOL    HW124679   6.732   7.948   8.124 -1.7826 -1.6569  1.9902
 6879SOL    HW224680   6.603   8.019   8.161 -0.5858  1.1673  0.9712
 6880SOL     OW24681   2.212   0.173   6.333  1.4607 -0.4204  0.1829
 6880SOL    HW124682   2.251   0.201   6.416  0.4139  1.4458  0.1080
 6880SOL    HW224683   2.189   0.255   6.289  0.2845 -1.4002 -1.1217
 6881SOL     OW24684   4.579   2.242   1.072  0.1649 -0.2247  0.1583
 6881SOL    HW124685   4.580   2.165   1.129 -0.2503 -1.0953 -0.9670
 6881SOL    HW224686   4.501   2.291   1.098  0.0365 -0.5618  0.4063
 6882SOL     OW24687   8.814   8.079   7.055  0.3786  0.1049  0.1435
 6882SOL    HW124688   8.873   8.113   6.988 -0.9682  0.6491 -0.8182
 6882SOL    HW224689   8.737   8.136   7.050 -1.3703 -2.1765 -0.5130
 6883SOL     OW24690   0.975   1.508   6.302  0.2848 -0.2479  0.0931
 6883SOL    HW124691   0.935   1.581   6.350 -0.9574 -0.0806 -1.1375
 6883SOL    HW224692   1.020   1.456   6.369  1.0643  1.5396  1.0160
 6884SOL     OW24693   4.452   0.158   3.301  0.0335 -0.6573 -0.1135
 6884SOL    HW124694   4.472   0.144   3.394 -0.1588 -1.0989 -0.1345
 6884SOL    HW224695   4.414   0.246   3.297 -0.2725 -0.7683  0.2774
 6885SOL     OW24696   2.789   3.216   2.209 -0.0084 -0.0312  0.5025
 6885SOL    HW124697   2.841   3.219   2.290  0.4652 -2.1119  0.3465
 6885SOL    HW224698   2.772   3.122   2.196 -1.3598  0.3893 -1.0158
 6886SOL     OW24699   2.171   3.988   9.204  0.1816 -0.4769  0.0079
 6886SOL    HW124700   2.207   4.013   9.289 -0.2424 -0.3834  0.1639
 6886SOL    HW224701   2.121   3.908   9.221 -1.3400  0.4718  0.2113
 6887SOL     OW24702   5.026   8.297   8.163  0.0583 -0.1017 -0.1834
 6887SOL    HW124703   5.068   8.384   8.165  0.7310 -0.4203  1.3301
 6887SOL    HW224704   4.933   8.316   8.168  0.2380  0.5430  1.3003
 6888SOL     OW24705   8.892   9.169   6.125 -0.0422 -0.2360  0.0878
 6888SOL    HW124706   8.927   9.224   6.195 -1.7372  2.2135 -0.8504
 6888SOL    HW224707   8.966   9.160   6.064  0.1927  1.4422  0.0557
 6889SOL     OW24708   4.413   7.678   3.652 -0.1749 -0.3671 -0.1536
 6889SOL    HW124709   4.425   7.770   3.628 -1.2415  0.1844  1.2939
 6889SOL    HW224710   4.381   7.637   3.572 -0.1682  0.6163 -0.6820
 6890SOL     OW24711   4.056   2.580   1.529 -1.0945  0.3224 -0.0040
 6890SOL    HW124712   4.107   2.637   1.586 -0.0171 -0.8762  0.2682
 6890SOL    HW224713   4.004   2.526   1.589  0.6986 -1.5532 -0.0512
 6891SOL     OW24714   9.955   3.682   9.481 -0.0961  0.3729  0.3643
 6891SOL    HW124715   9.922   3.636   9.404 -0.2684  1.9716 -0.5751
 6891SOL    HW224716   9.958   3.616   9.550 -0.5197 -0.9609 -0.8513
 6892SOL     OW24717   4.869   7.738   1.029 -0.2619 -0.8477 -0.3974
 6892SOL    HW124718   4.779   7.752   0.998  0.7002 -0.5943 -3.4094
 6892SOL    HW224719   4.924   7.770   0.957  2.2144 -2.8562  0.4775
 6893SOL     OW24720   7.656   8.936   6.431 -0.5226 -0.6132  0.0532
 6893SOL    HW124721   7.574   8.907   6.392 -0.4098  0.6051 -1.1530
 6893SOL    HW224722   7.724   8.905   6.371 -0.4050  2.1013 -1.3694
 6894SOL     OW24723   4.046   1.027   8.530  0.6130  0.1276  0.3844
 6894SOL    HW124724   4.057   1.119   8.556  0.3161  0.3710 -0.3151
 6894SOL    HW224725   3.957   1.023   8.494  1.0277 -0.1599 -0.6651
 6895SOL     OW24726   7.905   3.567   5.098  0.3459 -0.2832 -0.4682
 6895SOL    HW124727   7.974   3.630   5.119  0.4698 -0.7165  0.4413
 6895SOL    HW224728   7.951   3.485   5.079  0.0750 -0.7310  0.7020
 6896SOL     OW24729   2.133   6.115   1.015 -0.3735  0.5514  0.0093
 6896SOL    HW124730   2.092   6.037   0.980  2.4792 -1.9145  1.7218
 6896SOL    HW224731   2.200   6.138   0.951 -0.1607  0.6371  0.2606
 6897SOL     OW24732   8.769   4.625   1.368 -0.4486  0.2154 -0.1206
 6897SOL    HW124733   8.761   4.627   1.463 -1.5255 -1.8108 -0.1216
 6897SOL    HW224734   8.863   4.612   1.352 -0.3762 -0.2814  0.6750
 6898SOL     OW24735   4.916   1.090   5.934  0.2650  0.6978 -0.0496
 6898SOL    HW124736   4.994   1.035   5.929  0.2010  0.4353  1.3802
 6898SOL    HW224737   4.947   1.173   5.971 -0.2917  0.1850  1.6596
 6899SOL     OW24738   6.786   7.088   1.516 -0.5544  0.4043 -0.2076
 6899SOL    HW124739   6.848   7.077   1.443  1.2503 -0.2075  1.3298
 6899SOL    HW224740   6.795   7.008   1.567 -0.1897  1.6489  1.8031
 6900SOL     OW24741   3.790   5.984   4.835  0.6720  0.0290  0.3790
 6900SOL    HW124742   3.844   5.966   4.911  3.8125 -1.1775 -1.9026
 6900SOL    HW224743   3.843   6.043   4.781 -0.4309 -0.8167 -1.7929
 6901SOL     OW24744   0.202   3.401   8.153  0.2402  0.1142  0.0079
 6901SOL    HW124745   0.224   3.459   8.080 -0.4555 -0.3578 -0.6017
 6901SOL    HW224746   0.223   3.451   8.231  1.3500  0.4992 -0.5107
 6902SOL     OW24747   1.011   7.149   2.812  0.5187 -0.0216  0.4423
 6902SOL    HW124748   1.017   7.238   2.846 -0.7828  0.1661  0.2348
 6902SOL    HW224749   0.917   7.131   2.807  0.6742 -2.5773  3.4465
 6903SOL     OW24750   3.213   8.852   9.629  0.1618 -0.9943  0.1961
 6903SOL    HW124751   3.126   8.863   9.665 -0.6438 -0.4309 -1.7895
 6903SOL    HW224752   3.262   8.928   9.662 -1.3668  1.1189 -2.0673
 6904SOL     OW24753   9.532   2.105   1.955  0.2885 -0.5631  0.2825
 6904SOL    HW124754   9.448   2.151   1.961  0.5493 -0.0087 -0.2444
 6904SOL    HW224755   9.586   2.162   1.901  1.3373 -0.4177  1.4491
 6905SOL     OW24756   1.856   1.832   2.118  0.1465  0.3099  0.4129
 6905SOL    HW124757   1.827   1.853   2.030  0.8453 -1.4891 -0.2873
 6905SOL    HW224758   1.914   1.905   2.143  0.5726  0.4453 -0.9220
 6906SOL     OW24759   4.952   4.869   6.227  0.3661  0.0366  0.7296
 6906SOL    HW124760   4.897   4.854   6.304 -2.6588 -2.2975 -1.6147
 6906SOL    HW224761   4.987   4.957   6.239  0.7460 -0.5047  5.0572
 6907SOL     OW24762   8.045   5.330   7.467 -0.3550  0.5794 -0.7802
 6907SOL    HW124763   8.089   5.318   7.383 -0.7844  1.8450 -1.2072
 6907SOL    HW224764   8.080   5.260   7.523  2.1849  1.4926 -1.1001
 6908SOL     OW24765   4.604   3.489   9.738  0.8384 -0.9160  0.0542
 6908SOL    HW124766   4.606   3.416   9.676  0.4498 -2.0618  1.3376
 6908SOL    HW224767   4.640   3.453   9.819 -0.4506 -0.0443  1.0693
 6909SOL     OW24768   9.138   0.289   1.989  0.3701  0.0880  0.5000
 6909SOL    HW124769   9.226   0.282   2.025  1.3315  0.8452 -1.5536
 6909SOL    HW224770   9.109   0.377   2.011  1.1964  0.7655 -0.9959
 6910SOL     OW24771  10.075   3.319   9.424 -0.3501  0.0541 -0.0129
 6910SOL    HW124772  10.096   3.399   9.375  0.2039  0.4785  0.8935
 6910SOL    HW224773   9.982   3.327   9.444 -0.2242  0.6231  0.3456
 6911SOL     OW24774   7.299  10.120   7.649 -0.3314 -0.4703 -0.0332
 6911SOL    HW124775   7.299  10.039   7.598  1.6798  0.1333 -1.0986
 6911SOL    HW224776   7.376  10.114   7.704 -0.2752  0.6197  0.0364
 6912SOL     OW24777   5.436   8.578   4.487  0.0230  0.0315 -0.5804
 6912SOL    HW124778   5.374   8.650   4.497  0.1825  0.3923 -1.9749
 6912SOL    HW224779   5.493   8.584   4.564 -1.2949  0.0373  0.4254
 6913SOL     OW24780  10.111   4.875   0.728  0.2219 -0.8269  0.3135
 6913SOL    HW124781  10.179   4.845   0.668  0.9096 -0.5317  0.9237
 6913SOL    HW224782  10.086   4.961   0.696 -1.7866 -1.9927 -1.4678
 6914SOL     OW24783   9.687   1.356   2.292  0.4604 -0.0792 -0.1410
 6914SOL    HW124784   9.611   1.332   2.239  0.0755 -1.0011  0.7812
 6914SOL    HW224785   9.716   1.273   2.330  1.9426  0.2510 -0.4787
 6915SOL     OW24786   2.646   1.455   9.046  0.1528 -0.8495  0.2005
 6915SOL    HW124787   2.620   1.383   9.103  0.0784 -1.3636 -0.4721
 6915SOL    HW224788   2.723   1.493   9.088  0.4046 -1.5492  0.3693
 6916SOL     OW24789   5.183   6.323  10.042  0.3697  0.1305  0.1263
 6916SOL    HW124790   5.226   6.290  10.121  0.2306  0.7523  0.4684
 6916SOL    HW224791   5.159   6.244   9.993  1.9108 -0.2507 -0.0916
 6917SOL     OW24792   4.724   4.238   9.287 -0.2248  0.2246 -0.3489
 6917SOL    HW124793   4.807   4.195   9.307 -1.4747 -1.7562  0.9984
 6917SOL    HW224794   4.742   4.331   9.300  1.6459 -0.1840  0.4509
 6918SOL     OW24795   0.928   0.274   8.334 -0.6686  0.4182 -0.0504
 6918SOL    HW124796   1.004   0.240   8.382 -0.7051  1.5586  0.8874
 6918SOL    HW224797   0.964   0.303   8.250 -0.2608  0.0244 -0.0186
 6919SOL     OW24798   6.217   9.029   7.934 -0.5453 -0.3322  0.6281
 6919SOL    HW124799   6.226   9.045   7.840 -0.7721  0.3753  0.7224
 6919SOL    HW224800   6.238   9.113   7.975 -1.8285 -0.2358  1.1356
 6920SOL     OW24801   2.665   2.463   6.002 -0.2687  0.0823 -0.2828
 6920SOL    HW124802   2.727   2.445   6.073 -0.5090 -1.3170 -0.4064
 6920SOL    HW224803   2.615   2.382   5.993 -2.0190  1.1172 -0.3109
 6921SOL     OW24804   7.517   5.164   8.462 -0.6085  0.3860  0.9769
 6921SOL    HW124805   7.452   5.124   8.521  0.2786 -0.4879  1.4060
 6921SOL    HW224806   7.589   5.100   8.460 -0.4265  0.5989 -0.7293
 6922SOL     OW24807   2.205   9.205   0.477 -0.3564 -0.0922 -1.0482
 6922SOL    HW124808   2.264   9.144   0.434 -0.5096  0.1306 -1.5906
 6922SOL    HW224809   2.135   9.150   0.513  0.8613 -0.5005  0.7971
 6923SOL     OW24810   9.102   5.004   4.939  0.1139  0.0821  0.0640
 6923SOL    HW124811   9.195   5.025   4.949 -0.1970  1.1447  0.8312
 6923SOL    HW224812   9.076   4.970   5.024  0.0787 -1.4456 -0.5195
 6924SOL     OW24813   3.810   4.368   2.333 -0.9779 -0.2535 -0.1800
 6924SOL    HW124814   3.778   4.378   2.422 -0.1190  1.9480 -0.0487
 6924SOL    HW224815   3.781   4.281   2.306 -1.8804 -0.6721  1.9705
 6925SOL     OW24816   1.151   7.390   4.163 -0.5726  0.1404 -0.3045
 6925SOL    HW124817   1.187   7.306   4.191 -0.7358  0.3261  0.4760
 6925SOL    HW224818   1.057   7.377   4.161 -0.7307  0.7645  1.4474
 6926SOL     OW24819  10.075   5.506   4.427  0.1233 -0.0290  0.0247
 6926SOL    HW124820  10.081   5.437   4.362 -2.1892 -0.9984  0.7210
 6926SOL    HW224821  10.122   5.580   4.388  0.8905 -1.3238 -1.6361
 6927SOL     OW24822   9.643   8.871   2.914  0.3903 -0.5675 -0.0108
 6927SOL    HW124823   9.561   8.880   2.864  0.5914  0.0611 -0.2337
 6927SOL    HW224824   9.669   8.780   2.900 -0.8255 -1.0842  0.9323
 6928SOL     OW24825   6.243   0.945   7.018 -0.5869 -0.8373  0.1511
 6928SOL    HW124826   6.223   1.039   7.021  1.0947 -0.4456  0.3401
 6928SOL    HW224827   6.163   0.904   6.986 -1.0754  0.7542 -0.7870
 6929SOL     OW24828   1.558   1.269   8.757  0.5545 -0.2813  0.6209
 6929SOL    HW124829   1.588   1.341   8.813  0.2168 -0.4930  1.0916
 6929SOL    HW224830   1.627   1.203   8.764  0.1050 -0.6828  1.5351
 6930SOL     OW24831   6.092   9.377   4.536  0.4751 -0.9029  0.1351
 6930SOL    HW124832   6.011   9.412   4.501  0.8871 -1.2873 -1.2812
 6930SOL    HW224833   6.157   9.395   4.468  1.1672 -2.3341  0.3852
 6931SOL     OW24834   6.744   1.235   1.384 -0.4975 -0.0327  0.0446
 6931SOL    HW124835   6.774   1.204   1.470  1.1303  0.8553 -0.1529
 6931SOL    HW224836   6.681   1.305   1.405  0.5072  0.7555  0.5613
 6932SOL     OW24837   7.093   0.531   1.745 -0.3667 -0.2089  0.0165
 6932SOL    HW124838   7.119   0.493   1.661 -0.3739 -1.5141  0.5766
 6932SOL    HW224839   7.151   0.607   1.756 -0.0951 -0.2583 -0.9760
 6933SOL     OW24840   2.998  10.112   2.192  0.1076  0.2199 -0.4000
 6933SOL    HW124841   2.908  10.145   2.191  0.4014  1.1298  0.8112
 6933SOL    HW224842   3.016  10.088   2.101 -1.1915  0.4729 -0.7417
 6934SOL     OW24843   2.245   2.937   8.774 -0.1422 -0.4757 -0.0806
 6934SOL    HW124844   2.239   2.843   8.794 -3.7723 -0.7021 -1.6134
 6934SOL    HW224845   2.184   2.978   8.834 -1.0111  0.4732 -1.5719
 6935SOL     OW24846   6.971   6.633   5.947  0.3150 -0.8365 -0.3891
 6935SOL    HW124847   7.041   6.665   5.890  0.2857 -1.5447 -0.8359
 6935SOL    HW224848   7.013   6.623   6.032  0.3751  0.1729 -0.2887
 6936SOL     OW24849   2.972   0.786   5.902 -0.1892  0.3560  0.1574
 6936SOL    HW124850   2.942   0.742   5.823 -0.4539 -0.2474  0.5816
 6936SOL    HW224851   3.028   0.722   5.946 -1.2226  0.1166  1.1886
 6937SOL     OW24852   1.147   8.362   8.202 -0.2309  0.0376 -0.2727
 6937SOL    HW124853   1.242   8.354   8.199 -0.4118 -2.6344 -0.6393
 6937SOL    HW224854   1.118   8.294   8.262 -1.9529  0.6972 -0.2829
 6938SOL     OW24855   1.131   4.262   8.441 -0.3920 -0.5007 -0.0139
 6938SOL    HW124856   1.109   4.347   8.479  1.5388 -0.1420  0.4258
 6938SOL    HW224857   1.215   4.239   8.480 -1.6926 -3.5414  1.3518
 6939SOL     OW24858   5.420   7.513   5.674 -0.2447  0.1320 -0.0184
 6939SOL    HW124859   5.481   7.573   5.716  0.5988 -0.3968 -0.4528
 6939SOL    HW224860   5.405   7.445   5.740  3.3132 -2.2756 -1.3386
 6940SOL     OW24861   4.609   4.473   6.637 -0.5813 -0.0827  0.2738
 6940SOL    HW124862   4.542   4.435   6.695 -0.6530  0.3637  0.4812
 6940SOL    HW224863   4.662   4.398   6.610 -1.9179 -0.6573 -0.8887
 6941SOL     OW24864   1.980   9.233   7.801 -0.2958 -0.6068  0.8927
 6941SOL    HW124865   1.927   9.310   7.782  0.2507 -0.7488 -1.4511
 6941SOL    HW224866   2.069   9.258   7.778 -0.2638 -2.2337 -1.0487
 6942SOL     OW24867   7.134   3.110   8.356  0.2027  0.2236  0.6038
 6942SOL    HW124868   7.132   3.062   8.439  0.8661  0.7436  0.9309
 6942SOL    HW224869   7.101   3.197   8.377  0.7376  0.4802  0.4157
 6943SOL     OW24870   2.072   6.740   7.730  0.3078 -0.6348  0.2674
 6943SOL    HW124871   2.028   6.825   7.735 -0.3817 -0.9138 -0.7549
 6943SOL    HW224872   2.160   6.761   7.697 -0.4584 -0.4468 -1.8766
 6944SOL     OW24873   3.038   7.373   5.905  0.4835 -0.1553  0.3551
 6944SOL    HW124874   3.130   7.353   5.886  0.5876 -0.4369  1.1147
 6944SOL    HW224875   2.988   7.306   5.858  0.6377  0.3022 -0.4751
 6945SOL     OW24876  10.276   0.025   4.686 -0.0262  0.1631 -0.3602
 6945SOL    HW124877  10.360   0.053   4.651  0.6117 -0.8728  0.2951
 6945SOL    HW224878  10.239  -0.030   4.616 -0.3569  0.9439 -0.8121
 6946SOL     OW24879   7.858   5.283   1.249 -0.4625 -0.2822  0.1642
 6946SOL    HW124880   7.767   5.258   1.232 -0.5882  0.2285  0.0917
 6946SOL    HW224881   7.856   5.321   1.337 -0.1384 -1.2009  0.5861
 6947SOL     OW24882   7.394   0.053   3.282 -0.0250 -0.1311 -0.0665
 6947SOL    HW124883   7.325   0.120   3.283 -0.1594 -0.2681  1.4691
 6947SOL    HW224884   7.409   0.032   3.374  0.8456 -1.3766 -0.4661
 6948SOL     OW24885   6.708   6.079   4.616 -0.2174 -0.5707 -0.1654
 6948SOL    HW124886   6.752   6.107   4.697 -0.3131 -0.3801 -0.1771
 6948SOL    HW224887   6.683   5.988   4.632  1.7819 -1.3020 -0.8238
 6949SOL     OW24888   1.564   6.616   5.130 -0.0824  0.5419 -0.5849
 6949SOL    HW124889   1.547   6.678   5.201  0.4509  1.2551 -1.0693
 6949SOL    HW224890   1.487   6.623   5.073  0.0661  0.8922 -0.7386
 6950SOL     OW24891   9.372   6.915   4.096 -0.4244  0.6751 -0.3305
 6950SOL    HW124892   9.414   7.001   4.094  1.5554 -0.2655 -1.4672
 6950SOL    HW224893   9.315   6.914   4.019  1.5997  0.0589 -1.9066
 6951SOL     OW24894   9.108   9.068   9.954  0.4947  0.0743 -0.8035
 6951SOL    HW124895   9.022   9.027   9.944  0.4790  0.3227 -1.7435
 6951SOL    HW224896   9.159   9.004  10.004 -0.7544  0.6852  1.3862
 6952SOL     OW24897   6.679   5.004   7.263  0.1134 -0.1532  0.3064
 6952SOL    HW124898   6.585   5.017   7.252  0.2722  0.0974 -0.9038
 6952SOL    HW224899   6.703   4.939   7.197  1.0610  1.0700 -0.6159
 6953SOL     OW24900   0.808   0.982   5.223 -0.6961  0.5769 -0.3279
 6953SOL    HW124901   0.883   1.022   5.180  0.5676 -0.0097  1.2226
 6953SOL    HW224902   0.824   0.888   5.218 -0.9614  0.4709  0.6108
 6954SOL     OW24903   3.324   9.019  10.170 -0.4938 -0.4038  0.0509
 6954SOL    HW124904   3.317   8.974  10.254 -1.5687  1.8764  1.2808
 6954SOL    HW224905   3.234   9.028  10.140 -0.2345  0.1441 -0.5783
 6955SOL     OW24906   0.994   1.803   0.611 -0.4805 -0.4098 -0.0796
 6955SOL    HW124907   0.908   1.786   0.650  0.1043  0.3839  1.6887
 6955SOL    HW224908   0.999   1.899   0.606  0.9368 -0.3642  1.4617
 6956SOL     OW24909   7.819   7.943   8.398  0.2057  0.2064 -0.3244
 6956SOL    HW124910   7.785   7.856   8.420  1.0554  0.1289  0.7303
 6956SOL    HW224911   7.772   8.002   8.456  0.0865  0.3890 -0.6025
 6957SOL     OW24912   8.242   1.461   9.562 -0.5487  0.1623 -0.3441
 6957SOL    HW124913   8.272   1.517   9.633 -0.3810  1.2732 -1.2771
 6957SOL    HW224914   8.264   1.508   9.482 -1.6658 -0.5801 -1.1249
 6958SOL     OW24915   0.063   1.702   4.841  0.4909  0.2357 -1.0701
 6958SOL    HW124916   0.043   1.695   4.934 -0.7824  0.7214 -1.2924
 6958SOL    HW224917   0.008   1.635   4.799 -0.5024  1.3873 -1.6630
 6959SOL     OW24918   7.806   5.942   6.720  0.2922  0.2919  0.1295
 6959SOL    HW124919   7.722   5.897   6.725  0.4962 -0.0947  0.1401
 6959SOL    HW224920   7.819   5.980   6.807 -0.6520  1.8012 -0.3408
 6960SOL     OW24921   5.258   5.560   6.153  0.1850 -0.3524  0.0686
 6960SOL    HW124922   5.204   5.591   6.081  0.2488 -1.9552 -0.7061
 6960SOL    HW224923   5.315   5.494   6.114 -0.6758 -2.2321  1.8198
 6961SOL     OW24924   8.614   0.432   0.579  0.3986 -0.6344 -0.1648
 6961SOL    HW124925   8.538   0.383   0.611 -0.6858  1.2573  0.2535
 6961SOL    HW224926   8.589   0.459   0.490 -0.0311  1.1363  0.4516
 6962SOL     OW24927   1.783   4.279   7.028  0.2371 -0.5957 -0.1643
 6962SOL    HW124928   1.837   4.213   6.985  1.0086 -0.4614  0.5700
 6962SOL    HW224929   1.746   4.331   6.956  2.8485  0.7004 -0.6822
 6963SOL     OW24930   9.201   9.484   7.032  0.5513  0.4602 -0.6563
 6963SOL    HW124931   9.267   9.478   7.101 -0.1878  0.7445  0.0829
 6963SOL    HW224932   9.146   9.407   7.045 -0.1303  0.9886 -0.3516
 6964SOL     OW24933   5.479  10.046   1.868  0.1585 -0.3148 -0.4990
 6964SOL    HW124934   5.536  10.047   1.791  1.0222  0.6619  0.1390
 6964SOL    HW224935   5.400  10.092   1.840  0.0221 -0.9048 -1.1155
 6965SOL     OW24936   9.048   6.041   8.933 -0.8715 -0.8382  0.2630
 6965SOL    HW124937   9.123   6.069   8.881 -0.7502  1.9937  1.7558
 6965SOL    HW224938   8.974   6.088   8.896 -1.2261 -0.7739  1.0259
 6966SOL     OW24939   7.644   8.846   9.178 -0.6652  0.6672 -0.0532
 6966SOL    HW124940   7.633   8.846   9.273 -0.1496 -1.7710  0.0564
 6966SOL    HW224941   7.701   8.921   9.161  0.6170  0.1688  1.7665
 6967SOL     OW24942   9.100   1.449   8.875 -0.0425 -0.5617  0.2812
 6967SOL    HW124943   9.011   1.476   8.898  0.8713  1.4873  1.6964
 6967SOL    HW224944   9.129   1.396   8.949  0.4551  0.0840  0.5488
 6968SOL     OW24945   3.428   9.267   8.193  0.1044 -0.4718  0.8599
 6968SOL    HW124946   3.430   9.244   8.100 -3.0709 -0.7584  0.7526
 6968SOL    HW224947   3.465   9.355   8.196 -0.2192 -0.2450 -0.7672
 6969SOL     OW24948   7.088   8.101   4.755  0.3214  0.3766  0.3055
 6969SOL    HW124949   7.117   8.149   4.678 -0.3555  1.3190  0.6239
 6969SOL    HW224950   7.045   8.167   4.810  0.7049 -0.2935  1.4413
 6970SOL     OW24951   5.020   9.451   3.652 -0.1473  0.4478 -0.0536
 6970SOL    HW124952   4.924   9.452   3.655 -0.2043  0.8463 -1.5478
 6970SOL    HW224953   5.041   9.437   3.560  1.2377  0.9811  0.1699
 6971SOL     OW24954   2.138   6.247   3.476  0.1406  0.0167 -0.2536
 6971SOL    HW124955   2.086   6.254   3.556 -1.9551 -2.9064 -1.1982
 6971SOL    HW224956   2.224   6.217   3.506 -0.6362 -1.1129  0.9493
 6972SOL     OW24957   3.783   4.177   7.865  0.0027  0.2162  0.1024
 6972SOL    HW124958   3.693   4.200   7.888 -0.0976  0.2899 -0.3720
 6972SOL    HW224959   3.837   4.233   7.921 -0.2430  0.2495  0.3094
 6973SOL     OW24960   6.816   2.353   9.343 -0.1204 -0.1308 -0.0610
 6973SOL    HW124961   6.890   2.413   9.338 -0.4492  0.3796  0.9735
 6973SOL    HW224962   6.782   2.363   9.432 -0.0770 -1.9836  0.1967
 6974SOL     OW24963   2.058   9.908   5.576 -0.0557 -0.8324 -0.2144
 6974SOL    HW124964   2.073   9.956   5.494 -1.0198  0.1435  0.1495
 6974SOL    HW224965   2.128   9.939   5.635 -1.7050  1.6433  0.6163
 6975SOL     OW24966   5.454   9.733   7.429 -0.2328  0.0198 -0.6604
 6975SOL    HW124967   5.441   9.773   7.515 -1.2178 -0.0924 -0.7514
 6975SOL    HW224968   5.549   9.721   7.423 -0.1283  0.2496  0.3068
 6976SOL     OW24969   3.008   3.090   1.464  0.2395  0.2987 -0.1175
 6976SOL    HW124970   3.063   3.021   1.501 -0.2556  1.2220  2.5467
 6976SOL    HW224971   3.067   3.165   1.453  0.0695  0.4898  0.2612
 6977SOL     OW24972   5.139   5.008   3.912  0.6779 -0.1951  0.3861
 6977SOL    HW124973   5.154   5.015   4.006 -0.4956  0.0271  0.5634
 6977SOL    HW224974   5.060   4.955   3.903  0.7721 -0.2098 -0.4778
 6978SOL     OW24975   4.568   8.700   9.485 -0.3447 -0.0900 -0.2960
 6978SOL    HW124976   4.486   8.717   9.439  0.5880  0.3680 -1.8270
 6978SOL    HW224977   4.562   8.755   9.564 -1.5508 -0.1749 -0.2982
 6979SOL     OW24978   0.860   1.678   3.544  0.4460  0.2534 -0.1054
 6979SOL    HW124979   0.778   1.678   3.497  0.3570 -0.3177  0.0451
 6979SOL    HW224980   0.837   1.651   3.633  0.9932 -1.3962 -0.4330
 6980SOL     OW24981   3.326   0.884   2.550 -0.2785  0.3804 -0.0862
 6980SOL    HW124982   3.336   0.955   2.487 -1.3284  1.4737  0.9324
 6980SOL    HW224983   3.411   0.878   2.594  0.2238  0.0984 -1.0633
 6981SOL     OW24984   6.982   1.607   3.730 -0.1991  0.0722 -0.0129
 6981SOL    HW124985   6.982   1.552   3.651 -2.5321  1.0763 -0.8148
 6981SOL    HW224986   7.052   1.669   3.716  0.2783 -0.5926 -0.6754
 6982SOL     OW24987   6.066   3.966   3.453  0.2815 -0.2406  0.1790
 6982SOL    HW124988   5.998   3.945   3.388 -1.4466  2.5960  0.8916
 6982SOL    HW224989   6.148   3.960   3.404 -0.6350 -1.6669 -1.3032
 6983SOL     OW24990   2.216   0.667   4.221  0.1659  0.8381 -0.0492
 6983SOL    HW124991   2.243   0.707   4.303 -0.2105  0.4162  0.2888
 6983SOL    HW224992   2.241   0.575   4.230 -1.1940  0.4653  0.2096
 6984SOL     OW24993   0.096   9.350   3.846  0.5055  0.1271  0.1079
 6984SOL    HW124994   0.042   9.325   3.921 -1.8144  0.0657 -1.4470
 6984SOL    HW224995   0.185   9.351   3.879 -0.4489  0.4580  2.9269
 6985SOL     OW24996   1.210   3.660  10.219 -0.0567  0.1989  0.0198
 6985SOL    HW124997   1.292   3.612  10.232  1.0251  1.4501 -1.6762
 6985SOL    HW224998   1.169   3.616  10.145 -0.4709  0.1441  0.2822
 6986SOL     OW24999   8.062   8.794   7.267  0.1523 -0.0947  0.0734
 6986SOL    HW125000   8.053   8.889   7.262 -1.5532 -0.2736 -0.7884
 6986SOL    HW225001   8.094   8.768   7.181 -0.4867 -0.4108 -0.0693
 6987SOL     OW25002   1.821   7.048   9.587 -0.1925 -0.0605 -0.1951
 6987SOL    HW125003   1.747   7.011   9.636 -1.4451  0.0457 -1.8842
 6987SOL    HW225004   1.832   7.136   9.623  0.0615 -0.5833  1.0395
 6988SOL     OW25005   2.324   9.204   5.582 -0.5671  0.1993  0.2018
 6988SOL    HW125006   2.329   9.294   5.613 -1.6550  0.3520 -0.0233
 6988SOL    HW225007   2.237   9.174   5.609 -0.7603 -0.3239 -0.9324
 6989SOL     OW25008   0.723   3.586   7.329  0.7762 -1.2459  0.5371
 6989SOL    HW125009   0.631   3.597   7.355  0.9879 -1.9767  1.6846
 6989SOL    HW225010   0.772   3.593   7.411  1.7536 -0.8687 -0.0673
 6990SOL     OW25011   9.726   0.421   6.356  0.1905 -0.1063  1.0390
 6990SOL    HW125012   9.820   0.413   6.343  0.0649  0.1375 -0.1190
 6990SOL    HW225013   9.717   0.482   6.430  0.9494  1.9690 -0.4684
 6991SOL     OW25014   0.464   5.563   9.985 -0.0664  0.3523  0.3475
 6991SOL    HW125015   0.454   5.502   9.912 -1.2275 -1.0045  1.5763
 6991SOL    HW225016   0.411   5.638   9.960  1.6227  1.0752 -1.3287
 6992SOL     OW25017   7.898   6.861   3.203 -0.2306 -0.0453  0.4494
 6992SOL    HW125018   7.851   6.836   3.283 -1.1086 -1.2766 -0.4124
 6992SOL    HW225019   7.986   6.826   3.215 -0.5251 -0.7496  0.6474
 6993SOL     OW25020   9.077   2.008   0.784  0.3159  0.0634 -0.0670
 6993SOL    HW125021   9.171   2.009   0.765  0.5115 -2.7407  0.3443
 6993SOL    HW225022   9.071   2.024   0.878  0.0426  3.6450 -0.5534
 6994SOL     OW25023   4.071   1.729   2.153 -0.3605 -0.3621  0.5141
 6994SOL    HW125024   4.162   1.754   2.141 -0.6489  1.0209  0.9935
 6994SOL    HW225025   4.060   1.721   2.248 -1.0808  1.0000  0.5785
 6995SOL     OW25026   3.471   7.754   7.761  0.2809  0.1680  0.3467
 6995SOL    HW125027   3.563   7.776   7.769 -0.0572  2.6974 -1.6114
 6995SOL    HW225028   3.432   7.787   7.842  0.8749  0.3164  0.5763
 6996SOL     OW25029   1.223   5.329   4.194 -0.3337 -0.0632 -0.1973
 6996SOL    HW125030   1.176   5.330   4.278 -0.5761 -1.7241 -0.2713
 6996SOL    HW225031   1.157   5.306   4.130  0.1188 -0.0869 -0.6584
 6997SOL     OW25032   5.453   4.361   4.480  0.0521 -0.0998 -0.0553
 6997SOL    HW125033   5.539   4.392   4.508 -0.4081  1.3395 -0.1599
 6997SOL    HW225034   5.464   4.267   4.468  0.9010 -0.4044  2.6048
 6998SOL     OW25035   9.866   9.240   6.352 -0.5312 -0.0841 -0.3885
 6998SOL    HW125036   9.785   9.262   6.304 -0.7649  2.3247  0.9711
 6998SOL    HW225037   9.836   9.216   6.439  0.1261 -1.1044 -0.4285
 6999SOL     OW25038   7.688   2.882   0.595 -1.0474 -0.5201  0.3312
 6999SOL    HW125039   7.773   2.870   0.638 -0.9991 -1.1133  0.0898
 6999SOL    HW225040   7.628   2.902   0.667 -0.4937  1.1150  0.3682
 7000SOL     OW25041   9.167   2.166   5.966  0.1587 -0.1092 -0.4046
 7000SOL    HW125042   9.133   2.239   6.018  1.8819  1.9727 -1.9878
 7000SOL    HW225043   9.262   2.174   5.974  0.3953 -1.8666 -1.0748
 7001SOL     OW25044   0.331   0.277   5.868 -0.0067  0.6470  0.1770
 7001SOL    HW125045   0.384   0.342   5.823  0.0934  1.2100  1.0723
 7001SOL    HW225046   0.393   0.212   5.900  0.0491  0.8351  0.4552
 7002SOL     OW25047   0.142   2.357   9.958 -0.2277 -0.6704  0.0356
 7002SOL    HW125048   0.212   2.294   9.943  0.7833  0.1260  1.2393
 7002SOL    HW225049   0.177   2.440   9.926 -0.2020 -0.0647  1.5796
 7003SOL     OW25050   1.016   4.574   6.062  0.1149  0.2052  0.2098
 7003SOL    HW125051   0.998   4.490   6.104  0.3964  0.0521  0.0272
 7003SOL    HW225052   0.930   4.617   6.057  0.0074  0.0297  0.5163
 7004SOL     OW25053   2.062   5.768   0.498  0.0422 -0.1987 -0.7878
 7004SOL    HW125054   2.141   5.807   0.462 -0.6799  1.4837 -0.6583
 7004SOL    HW225055   2.036   5.702   0.434  0.6965  0.3118 -1.6019
 7005SOL     OW25056   7.572   0.898   7.461 -0.1917 -0.1225 -0.2873
 7005SOL    HW125057   7.556   0.992   7.473 -0.6657 -0.4450  2.0484
 7005SOL    HW225058   7.667   0.891   7.449 -0.2460  0.6936 -1.4268
 7006SOL     OW25059   3.276   8.071   9.928 -0.0348 -0.0482 -0.5971
 7006SOL    HW125060   3.291   8.144   9.869 -1.3751  0.7924  0.0538
 7006SOL    HW225061   3.232   8.005   9.874  1.2391 -0.4278 -1.2020
 7007SOL     OW25062   0.971   5.143   9.539  0.0549 -0.3591  0.2498
 7007SOL    HW125063   1.066   5.135   9.537  0.2031  1.2238 -0.1612
 7007SOL    HW225064   0.950   5.161   9.630  0.7035  4.2934 -0.2929
 7008SOL     OW25065   9.860   8.541   5.256  0.0921 -0.3327 -0.0232
 7008SOL    HW125066   9.851   8.495   5.172  1.6183 -2.2224  0.7931
 7008SOL    HW225067   9.774   8.531   5.298 -0.4529 -0.0068 -1.0230
 7009SOL     OW25068   3.111   3.730   1.845 -0.2247  0.3407  0.3655
 7009SOL    HW125069   3.175   3.697   1.908 -1.9852  1.4566  2.9021
 7009SOL    HW225070   3.031   3.681   1.863 -0.6993  0.4474 -1.2862
 7010SOL     OW25071   5.484   0.157   8.894 -0.8599 -0.6383 -0.1383
 7010SOL    HW125072   5.492   0.073   8.850  0.2683 -0.1701 -0.8776
 7010SOL    HW225073   5.452   0.217   8.826 -1.5355 -0.4350  0.3450
 7011SOL     OW25074   4.349   5.461   0.894 -0.0830 -0.5274 -0.4838
 7011SOL    HW125075   4.271   5.512   0.919  0.2936 -0.4688  0.6460
 7011SOL    HW225076   4.376   5.499   0.811 -1.7048 -1.0595 -1.3023
 7012SOL     OW25077   7.296   9.958   7.417  0.3153 -0.0733 -1.1281
 7012SOL    HW125078   7.236   9.884   7.429  2.0659 -1.4691 -0.5802
 7012SOL    HW225079   7.239  10.030   7.391 -1.6959 -1.1277  0.0338
 7013SOL     OW25080   1.965   0.283   6.824 -0.1192 -0.0908 -0.0680
 7013SOL    HW125081   2.049   0.250   6.857 -0.3123 -0.0444  0.4750
 7013SOL    HW225082   1.935   0.343   6.891  0.1225  1.0597 -0.9555
 7014SOL     OW25083   8.749   7.837   3.675 -0.6768 -0.1352  0.1518
 7014SOL    HW125084   8.766   7.743   3.668  3.3305  0.4159 -0.4247
 7014SOL    HW225085   8.836   7.877   3.668 -2.2477  3.6746 -0.1329
 7015SOL     OW25086   6.217   3.240   8.926 -0.0440  0.0811 -0.5796
 7015SOL    HW125087   6.285   3.206   8.867  0.0614  0.9735 -0.9818
 7015SOL    HW225088   6.178   3.312   8.878  0.2134  0.9952  0.5479
 7016SOL     OW25089   0.641   7.907   2.535 -0.4239 -0.4410 -0.0829
 7016SOL    HW125090   0.717   7.873   2.487 -1.2151 -1.2533 -0.8007
 7016SOL    HW225091   0.645   7.864   2.620  0.6219  0.5062  0.3825
 7017SOL     OW25092   0.674   3.925   3.928 -0.1457 -0.9379 -0.4397
 7017SOL    HW125093   0.656   3.832   3.939 -1.8048 -0.4991  1.2162
 7017SOL    HW225094   0.750   3.942   3.984 -0.0340 -1.2461 -0.4985
 7018SOL     OW25095   0.620   8.987   1.510 -0.2252  0.5132  0.1380
 7018SOL    HW125096   0.678   8.975   1.585  0.8194 -2.4345 -0.9692
 7018SOL    HW225097   0.533   8.962   1.543  0.0681  0.0468  0.5742
 7019SOL     OW25098   5.614   1.847   6.340  0.1034 -0.1562 -0.2015
 7019SOL    HW125099   5.525   1.845   6.376  0.6844  2.0780  1.5582
 7019SOL    HW225100   5.656   1.768   6.374 -1.4351 -1.8701 -1.9795
 7020SOL     OW25101   2.016   5.425   3.369 -0.0709  0.3837  0.2165
 7020SOL    HW125102   2.052   5.412   3.457 -0.2482  0.7436  0.3458
 7020SOL    HW225103   1.997   5.519   3.365  0.1901  0.4187 -0.3044
 7021SOL     OW25104   4.883   6.008   6.027  0.3665 -0.3305  0.7351
 7021SOL    HW125105   4.855   6.069   6.095  0.3701  0.5075  0.0074
 7021SOL    HW225106   4.889   5.923   6.071 -0.2497  0.0755  1.6201
 7022SOL     OW25107   9.777   5.108   1.798  0.4704 -0.4130  0.0131
 7022SOL    HW125108   9.755   5.149   1.881  2.5036 -1.1377  0.9764
 7022SOL    HW225109   9.740   5.020   1.804 -0.5896 -0.0154 -0.4631
 7023SOL     OW25110   9.618   6.797   9.395 -0.3008  0.1121  0.0418
 7023SOL    HW125111   9.702   6.841   9.411 -0.1177 -0.0592 -0.4508
 7023SOL    HW225112   9.616   6.726   9.459  0.5969 -0.7920 -0.8931
 7024SOL     OW25113   8.879   9.978   0.961  0.6463  0.1543 -0.1748
 7024SOL    HW125114   8.920  10.029   0.892  1.0820 -1.5347 -1.2067
 7024SOL    HW225115   8.943   9.978   1.032  0.5790  1.1260 -0.0941
 7025SOL     OW25116   7.782   7.651   6.910 -0.3329  0.4635  0.5078
 7025SOL    HW125117   7.778   7.745   6.895 -1.5046  0.4645  0.7257
 7025SOL    HW225118   7.751   7.639   7.000  2.2698  0.0714  1.4224
 7026SOL     OW25119   2.410   0.425   5.213  0.2378 -0.1646  0.0423
 7026SOL    HW125120   2.410   0.448   5.120  0.4514  2.2711  0.5862
 7026SOL    HW225121   2.499   0.441   5.242 -0.0377 -0.0677  0.8678
 7027SOL     OW25122   3.583   1.227   8.549 -0.0537  0.5644 -0.3161
 7027SOL    HW125123   3.583   1.315   8.512  0.2589  1.1236  0.9619
 7027SOL    HW225124   3.529   1.234   8.627 -2.0858 -0.9893 -1.4902
 7028SOL     OW25125   4.256   9.638   9.289  0.4696 -0.0166 -0.0685
 7028SOL    HW125126   4.334   9.593   9.258  0.5958  0.2899 -0.2101
 7028SOL    HW225127   4.211   9.575   9.344  1.7883  0.4039  1.5817
 7029SOL     OW25128   6.101   7.020   2.074  0.1645  0.0807  0.4318
 7029SOL    HW125129   6.133   6.964   2.145 -1.2525 -0.3255  0.7930
 7029SOL    HW225130   6.009   7.034   2.096  0.1188  1.2874 -0.4863
 7030SOL     OW25131   6.357   2.151   1.794 -0.0090 -0.1042 -0.4416
 7030SOL    HW125132   6.282   2.208   1.805  0.0758 -0.0633 -0.0671
 7030SOL    HW225133   6.320   2.069   1.760 -0.3835 -0.5240  0.9444
 7031SOL     OW25134   2.859   8.761   2.353  0.2075  0.1186  0.0604
 7031SOL    HW125135   2.778   8.807   2.329 -0.7583 -1.5188  0.0090
 7031SOL    HW225136   2.887   8.719   2.272  0.4545 -0.2711  0.3467
 7032SOL     OW25137   0.303  10.269   5.140  0.2454  0.1903 -0.3971
 7032SOL    HW125138   0.220  10.255   5.185  0.3675  1.2250  0.1809
 7032SOL    HW225139   0.280  10.316   5.060  0.1696 -0.4308 -0.7405
 7033SOL     OW25140   1.470   7.702   2.788 -0.3984 -0.0299 -0.3724
 7033SOL    HW125141   1.455   7.756   2.866 -1.4721 -1.5905  0.5474
 7033SOL    HW225142   1.538   7.749   2.739 -1.9397  2.6771 -0.1463
 7034SOL     OW25143   2.784   2.208   4.237  0.2296 -0.3359 -0.1427
 7034SOL    HW125144   2.764   2.254   4.156 -1.2638 -1.1800 -0.2973
 7034SOL    HW225145   2.849   2.142   4.213  0.4890  0.0266 -0.4400
 7035SOL     OW25146   7.752   5.260   6.089 -0.1319  0.2292 -0.1525
 7035SOL    HW125147   7.738   5.166   6.105 -0.9652  0.3797  0.0897
 7035SOL    HW225148   7.674   5.287   6.041  0.4360  0.6588 -0.8460
 7036SOL     OW25149   7.114   4.562   4.448  0.5780  0.3705 -0.1445
 7036SOL    HW125150   7.206   4.586   4.456  1.0482 -1.5875  1.0743
 7036SOL    HW225151   7.115   4.468   4.430 -1.1748  0.0085  1.2789
 7037SOL     OW25152   0.616   1.856   8.522 -0.7605 -0.2788 -0.1431
 7037SOL    HW125153   0.527   1.891   8.529 -0.7395  0.2466 -2.0806
 7037SOL    HW225154   0.660   1.915   8.461  0.8396 -0.7183  0.5503
 7038SOL     OW25155   3.833   2.733   9.171  0.3750 -0.1606  0.1524
 7038SOL    HW125156   3.910   2.730   9.114  0.5609  0.9764  0.3143
 7038SOL    HW225157   3.860   2.689   9.251  0.5841 -0.4920 -0.0987
 7039SOL     OW25158   9.849   6.370   6.639  0.0610  0.4222 -0.0549
 7039SOL    HW125159   9.792   6.357   6.715 -0.1065 -0.7002 -0.3636
 7039SOL    HW225160   9.868   6.282   6.607  1.2291  0.8148 -0.5151
 7040SOL     OW25161   0.744   2.717   2.179 -0.0892  0.5452  0.6734
 7040SOL    HW125162   0.776   2.779   2.244  1.2901 -1.2746  1.8320
 7040SOL    HW225163   0.711   2.643   2.230 -0.0477 -0.4348 -0.6639
 7041SOL     OW25164   5.558   1.110  10.013  0.4938  0.1570 -0.0433
 7041SOL    HW125165   5.537   1.063   9.932  2.1406 -0.8258  0.0686
 7041SOL    HW225166   5.497   1.074  10.077 -1.2910  1.4261 -0.9582
 7042SOL     OW25167   0.836   7.013   7.894  0.0863 -0.6173  0.3010
 7042SOL    HW125168   0.883   7.038   7.815 -0.6233  0.1144  0.1015
 7042SOL    HW225169   0.902   6.970   7.949  0.6873 -0.7169 -0.4861
 7043SOL     OW25170   9.457   0.999   3.659  0.2594 -0.1610  0.0722
 7043SOL    HW125171   9.517   1.072   3.644 -1.0765  0.9964  0.1816
 7043SOL    HW225172   9.456   0.989   3.754 -0.1712  0.2213  0.1106
 7044SOL     OW25173   0.400   4.581   2.306 -0.1447 -0.0229  0.5995
 7044SOL    HW125174   0.389   4.529   2.227 -1.2233 -1.5886  1.7330
 7044SOL    HW225175   0.441   4.521   2.369 -2.7547 -0.0348  2.4137
 7045SOL     OW25176   7.827   2.252   7.035 -0.3946 -0.6722  0.1258
 7045SOL    HW125177   7.892   2.199   6.989  0.4706  0.5432 -0.0865
 7045SOL    HW225178   7.840   2.231   7.127 -1.7822 -2.7181 -0.0666
 7046SOL     OW25179   6.357   2.144  10.092 -0.2680 -0.4354 -0.0937
 7046SOL    HW125180   6.323   2.105  10.173  0.0569  0.4295  0.4775
 7046SOL    HW225181   6.364   2.237  10.112  1.5684 -0.4479 -0.5062
 7047SOL     OW25182   2.612   4.918   8.294  0.1967  0.1758  0.3002
 7047SOL    HW125183   2.537   4.977   8.283 -1.2205 -1.5399  0.1067
 7047SOL    HW225184   2.614   4.867   8.213  2.3484  0.9625 -0.1911
 7048SOL     OW25185   9.725   5.500   3.038 -0.6177  0.4999 -0.3579
 7048SOL    HW125186   9.754   5.495   3.130  3.3150 -2.2760 -1.4618
 7048SOL    HW225187   9.752   5.586   3.009 -1.8566  1.3971  0.9763
 7049SOL     OW25188   3.157   3.906   0.782 -0.0404  0.1012 -0.8319
 7049SOL    HW125189   3.180   3.994   0.813  0.0989  0.6244 -2.3220
 7049SOL    HW225190   3.171   3.910   0.687  1.0654 -1.8675 -0.8024
 7050SOL     OW25191   7.206   2.680   5.564  0.3118 -0.6382  0.0357
 7050SOL    HW125192   7.255   2.694   5.483  0.6176  2.7116  0.6555
 7050SOL    HW225193   7.184   2.768   5.594 -3.6784 -1.8834  1.3218
 7051SOL     OW25194   0.750   1.287   1.596  0.6829  0.3203  0.0738
 7051SOL    HW125195   0.841   1.299   1.568  0.0801  1.0582 -1.6659
 7051SOL    HW225196   0.709   1.373   1.582 -0.8918 -0.6397 -1.6278
 7052SOL     OW25197   1.417   6.570   1.667  0.4965  0.1020  0.2044
 7052SOL    HW125198   1.427   6.479   1.695 -0.1887 -0.2077 -0.5347
 7052SOL    HW225199   1.384   6.565   1.577  0.1494  1.0747  0.2596
 7053SOL     OW25200   2.801   9.357   9.418 -0.5760  0.5025 -0.1788
 7053SOL    HW125201   2.792   9.429   9.480 -0.4807 -1.3131  2.0412
 7053SOL    HW225202   2.896   9.344   9.411 -0.6255 -0.1786  0.3739
 7054SOL     OW25203   0.766   9.881   9.795  0.0344  0.2200 -0.6026
 7054SOL    HW125204   0.692   9.940   9.782  1.5751  2.4424  0.1631
 7054SOL    HW225205   0.738   9.823   9.866 -0.6727  1.5713  0.2557
 7055SOL     OW25206   3.375   9.646   2.890 -0.3313 -0.2305  0.5428
 7055SOL    HW125207   3.296   9.662   2.838 -0.1688  0.6199  0.5406
 7055SOL    HW225208   3.403   9.558   2.864 -0.9812 -0.3337  0.1572
 7056SOL     OW25209   7.850   5.988   6.408 -0.7093 -0.3981  0.2231
 7056SOL    HW125210   7.888   6.026   6.487 -2.2369 -2.6313  2.1957
 7056SOL    HW225211   7.773   6.042   6.390 -0.7870 -0.3224  0.7480
 7057SOL     OW25212  10.032  10.000   7.989 -0.4777  0.1599  0.2708
 7057SOL    HW125213   9.986  10.030   8.067 -0.6710  0.4581  0.0453
 7057SOL    HW225214  10.094  10.069   7.968 -0.6375  0.2213 -0.0122
 7058SOL     OW25215   4.012   3.316   6.406  0.3401 -0.3880  0.0917
 7058SOL    HW125216   4.069   3.386   6.438 -0.9623  1.2813 -1.0529
 7058SOL    HW225217   3.959   3.292   6.482  0.8059 -0.1622  0.4970
 7059SOL     OW25218   5.292   6.335   2.003  0.0727 -0.2140  0.2003
 7059SOL    HW125219   5.350   6.411   2.001  0.0380 -0.2035 -0.7380
 7059SOL    HW225220   5.349   6.261   1.979 -0.5489 -0.0113 -2.1524
 7060SOL     OW25221   3.270   0.104   7.372 -0.0023 -0.0953  0.6340
 7060SOL    HW125222   3.356   0.065   7.362  0.3978  0.7193  0.7732
 7060SOL    HW225223   3.217   0.037   7.416  0.6214 -0.5143  0.7526
 7061SOL     OW25224   9.241   1.958   7.146 -0.0321  0.7304  0.2654
 7061SOL    HW125225   9.177   1.979   7.078  1.9934  0.0856 -1.9520
 7061SOL    HW225226   9.324   1.989   7.111  1.0879  0.4066  2.5074
 7062SOL     OW25227   8.306   4.727   9.805 -0.1190  0.2886 -0.5522
 7062SOL    HW125228   8.376   4.754   9.865  0.4128 -2.1306  0.0338
 7062SOL    HW225229   8.274   4.808   9.767  2.0209  1.6030  0.2776
 7063SOL     OW25230   0.461   1.305   6.006 -1.0222 -0.0866  0.3508
 7063SOL    HW125231   0.483   1.325   5.915 -1.4457 -2.3546 -0.3156
 7063SOL    HW225232   0.517   1.363   6.057  0.8154 -0.2454 -1.3406
 7064SOL     OW25233   7.539   8.029   1.792  0.0696 -0.0354  0.0985
 7064SOL    HW125234   7.524   8.006   1.884  2.7583  0.0000  0.6339
 7064SOL    HW225235   7.619   7.982   1.768 -0.4504  0.1353 -2.1832
 7065SOL     OW25236   0.448   7.384   8.569 -0.0302  0.0199 -0.0453
 7065SOL    HW125237   0.533   7.382   8.614  0.0485  3.2435  0.2216
 7065SOL    HW225238   0.459   7.449   8.500 -1.7171 -1.0146 -1.3763
 7066SOL     OW25239   6.468   5.284   9.384 -0.6742  0.1517  0.4233
 7066SOL    HW125240   6.379   5.270   9.417 -0.6494  2.0518  1.4505
 7066SOL    HW225241   6.462   5.264   9.290 -2.1294  0.0123  0.5187
 7067SOL     OW25242   2.689  10.179   1.107 -0.1543  0.3068  0.0709
 7067SOL    HW125243   2.659  10.088   1.107 -1.4953  0.7190 -0.0777
 7067SOL    HW225244   2.778  10.175   1.071  0.5018 -1.1234  1.7381
 7068SOL     OW25245   0.831  10.101   1.027  0.0338 -0.6554 -0.3138
 7068SOL    HW125246   0.802  10.059   0.945 -0.8744  0.3894 -0.5646
 7068SOL    HW225247   0.756  10.156   1.052  0.5244 -0.5426  0.9289
 7069SOL     OW25248   2.604   4.937   4.381  0.4318  0.2674  0.3013
 7069SOL    HW125249   2.524   4.965   4.338 -0.2385  1.9107  2.4442
 7069SOL    HW225250   2.674   4.969   4.325 -0.3827  0.1195 -0.8316
 7070SOL     OW25251   8.794   6.696   0.957  0.2944  0.0725 -0.5171
 7070SOL    HW125252   8.792   6.617   0.903 -1.3027 -1.5825  1.7784
 7070SOL    HW225253   8.855   6.675   1.028 -0.7588  0.5519  0.5647
 7071SOL     OW25254   1.618   9.593   9.990  0.0779 -0.4335 -0.1927
 7071SOL    HW125255   1.652   9.662  10.047  1.3127  0.0671 -1.4881
 7071SOL    HW225256   1.531   9.574  10.025  1.1173 -0.8163  2.4263
 7072SOL     OW25257   0.949   8.417   2.509 -0.3871  0.3445 -0.0438
 7072SOL    HW125258   1.020   8.361   2.541  0.1037  0.1109 -1.4342
 7072SOL    HW225259   0.969   8.504   2.543 -0.0886  0.0446  0.5553
 7073SOL     OW25260   2.112   7.677   2.864 -0.8262  0.6582 -0.0636
 7073SOL    HW125261   2.111   7.703   2.772  0.2646 -0.1391 -0.3114
 7073SOL    HW225262   2.162   7.746   2.908 -1.5076  1.1376 -0.0231
 7074SOL     OW25263   9.307   4.911   1.014 -0.2494  1.1665 -0.5830
 7074SOL    HW125264   9.343   4.928   0.927 -0.8973  2.7613 -0.5620
 7074SOL    HW225265   9.348   4.976   1.070  1.0345 -0.5485  0.5872
 7075SOL     OW25266   8.850   2.778   7.102  0.1353 -0.9265 -0.0222
 7075SOL    HW125267   8.853   2.873   7.112 -0.0506 -0.7072 -1.6585
 7075SOL    HW225268   8.764   2.753   7.134  0.1048 -0.5091  0.2227
 7076SOL     OW25269   9.884   1.132   7.502  0.2431  0.7789 -0.2104
 7076SOL    HW125270   9.897   1.227   7.513  0.4332  0.6690  0.6150
 7076SOL    HW225271   9.794   1.117   7.529 -0.2955  0.9311 -1.8354
 7077SOL     OW25272   8.740   1.003   7.469  0.3668 -0.4780  0.2824
 7077SOL    HW125273   8.704   0.918   7.492 -0.4521 -1.0534 -2.7122
 7077SOL    HW225274   8.673   1.066   7.495  0.1309 -0.9214  0.7641
 7078SOL     OW25275   6.580   7.398   1.520  0.1244 -0.2364 -0.1035
 7078SOL    HW125276   6.597   7.442   1.604  0.3485  1.0968 -0.8181
 7078SOL    HW225277   6.667   7.373   1.488 -0.0462 -1.9980  0.6688
 7079SOL     OW25278   2.591   6.401   8.810 -0.2147 -0.2616 -0.0040
 7079SOL    HW125279   2.596   6.310   8.781  0.2261 -0.5036  0.8068
 7079SOL    HW225280   2.667   6.443   8.769  0.8607 -0.7869  1.3817
 7080SOL     OW25281   9.492   9.610   0.827 -0.1995  0.2296 -0.1284
 7080SOL    HW125282   9.497   9.573   0.915  0.1579  1.6932  0.5061
 7080SOL    HW225283   9.575   9.657   0.816 -0.2178  0.0307 -1.2771
 7081SOL     OW25284   3.398   0.467   2.920 -0.0595 -0.2256 -0.1639
 7081SOL    HW125285   3.375   0.554   2.887  0.5773  0.0753  0.1591
 7081SOL    HW225286   3.489   0.455   2.892 -0.1969 -0.8612 -0.3473
 7082SOL     OW25287   8.601   3.618   7.256  0.2377 -0.2201  0.6030
 7082SOL    HW125288   8.540   3.562   7.208  0.1495  0.2855  0.1125
 7082SOL    HW225289   8.687   3.578   7.243  0.6304  1.2245 -2.1110
 7083SOL     OW25290   7.039  10.283   5.880 -0.1148 -0.1467 -0.3649
 7083SOL    HW125291   7.069  10.193   5.867  1.1883 -0.2236  2.5207
 7083SOL    HW225292   7.088  10.334   5.814  0.9155 -1.2511 -0.4953
 7084SOL     OW25293   8.273  10.083   6.838 -0.7976 -0.0218 -0.0774
 7084SOL    HW125294   8.209  10.055   6.772 -1.5370  2.8619 -0.7303
 7084SOL    HW225295   8.355  10.043   6.810 -1.2664  0.4464 -2.3050
 7085SOL     OW25296   5.651   9.487   9.306 -0.0266 -0.7019 -0.1642
 7085SOL    HW125297   5.655   9.526   9.393 -0.5053 -0.1366 -0.3809
 7085SOL    HW225298   5.587   9.416   9.314  0.1371 -0.8272  0.0132
 7086SOL     OW25299   2.791   1.670   3.042 -0.1068 -0.4125 -0.1458
 7086SOL    HW125300   2.862   1.721   3.002  0.9000 -2.1805 -0.7605
 7086SOL    HW225301   2.724   1.666   2.975  0.0625 -0.3951 -0.3171
 7087SOL     OW25302   4.175   1.065   3.800  0.3105 -0.3494 -0.6908
 7087SOL    HW125303   4.200   1.145   3.752  0.7832 -0.8588 -1.3060
 7087SOL    HW225304   4.212   1.079   3.888  0.8305 -0.1070 -0.9397
 7088SOL     OW25305   8.059   9.117   5.941 -0.4998 -0.3066  0.0307
 7088SOL    HW125306   8.029   9.056   6.009 -1.3607  2.8336  2.7651
 7088SOL    HW225307   8.150   9.093   5.926 -0.6279 -1.8882  1.4416
 7089SOL     OW25308   2.133   1.518   0.725  0.1454 -0.2982 -0.1792
 7089SOL    HW125309   2.200   1.564   0.674 -0.2675 -0.6635 -1.0816
 7089SOL    HW225310   2.156   1.534   0.816  0.7522  0.6008 -0.4800
 7090SOL     OW25311   8.530   3.311   3.641  0.4122  0.1656 -0.3281
 7090SOL    HW125312   8.453   3.367   3.637  0.4041  0.4980  2.6602
 7090SOL    HW225313   8.499   3.225   3.612 -1.3516  0.0759  1.6530
 7091SOL     OW25314   8.083   9.380   3.941 -0.0057  0.2916  0.9844
 7091SOL    HW125315   8.099   9.383   4.035  0.1312  1.7661  0.9334
 7091SOL    HW225316   8.166   9.406   3.902 -0.6489  1.7832  0.5334
 7092SOL     OW25317   8.090   5.109   9.755  0.5181  0.3740 -0.8395
 7092SOL    HW125318   8.124   5.171   9.690  1.0645 -1.0128 -1.9019
 7092SOL    HW225319   8.149   5.120   9.830 -0.4370  2.3653 -0.3070
 7093SOL     OW25320   7.948   1.697   3.242 -0.3461  0.0662 -0.3246
 7093SOL    HW125321   7.946   1.624   3.303 -1.1119 -1.1518 -1.7434
 7093SOL    HW225322   8.028   1.745   3.264 -0.7783 -0.1041  1.8281
 7094SOL     OW25323   5.406   9.130   1.362  0.9405  0.0820  0.0778
 7094SOL    HW125324   5.440   9.049   1.325 -0.2296 -0.0038 -0.8522
 7094SOL    HW225325   5.450   9.200   1.312  1.0613  0.0098  0.0821
 7095SOL     OW25326   4.552   0.530   2.306  0.2650 -0.1039 -0.0194
 7095SOL    HW125327   4.626   0.491   2.258  2.8450  0.5191  3.0921
 7095SOL    HW225328   4.552   0.621   2.279 -0.2677 -0.3810 -1.0041
 7096SOL     OW25329   6.144  10.286   0.516  0.0379  0.0518 -0.2425
 7096SOL    HW125330   6.219  10.229   0.502 -2.4394 -3.7012  0.0833
 7096SOL    HW225331   6.137  10.295   0.611  0.1816  0.6008 -0.2788
 7097SOL     OW25332   8.007   6.542   6.419 -0.2501 -0.4857  0.1773
 7097SOL    HW125333   7.989   6.615   6.360  2.1526  0.9531  1.0595
 7097SOL    HW225334   8.086   6.500   6.383 -0.3806 -1.3198  0.8265
 7098SOL     OW25335   6.516   0.844   4.705 -0.4478  0.5143  0.4243
 7098SOL    HW125336   6.465   0.864   4.627  0.9269 -1.2520 -1.0004
 7098SOL    HW225337   6.473   0.768   4.743 -0.4388  0.6725  0.7565
 7099SOL     OW25338   3.710   4.581   1.577 -0.5786 -0.0338  0.3425
 7099SOL    HW125339   3.758   4.662   1.562 -3.0210  1.5457  0.5731
 7099SOL    HW225340   3.736   4.525   1.503 -0.0020  1.5316 -0.7055
 7100SOL     OW25341   8.893   9.980   1.959 -0.3748 -0.3719  0.2341
 7100SOL    HW125342   8.956   9.910   1.942 -0.2347  0.2947 -2.2973
 7100SOL    HW225343   8.916  10.012   2.047  3.1044  0.0768 -0.6840
 7101SOL     OW25344   5.419   4.122   5.467 -0.4602  0.3993 -0.1115
 7101SOL    HW125345   5.431   4.142   5.559 -2.2760  2.7620 -0.2764
 7101SOL    HW225346   5.334   4.161   5.445 -0.3906 -0.6757 -2.6254
 7102SOL     OW25347   8.152   4.051   5.131  0.1130 -0.0174  0.2119
 7102SOL    HW125348   8.122   3.985   5.068  0.8738  0.1447 -0.3408
 7102SOL    HW225349   8.103   4.032   5.211  0.3590 -1.3109  0.0870
 7103SOL     OW25350   6.535   5.446   2.529 -0.4097 -0.4200  0.2109
 7103SOL    HW125351   6.503   5.431   2.440 -0.4735  0.0219  0.1600
 7103SOL    HW225352   6.550   5.540   2.534  1.4514 -0.6864  0.0462
 7104SOL     OW25353   4.962   9.410   7.876 -0.0654 -0.2334 -0.2395
 7104SOL    HW125354   4.982   9.399   7.783  0.0906  0.0103 -0.2357
 7104SOL    HW225355   5.035   9.462   7.910  0.1161 -0.7241  0.1203
 7105SOL     OW25356   1.168   2.374   4.289  0.0253  0.3545 -0.3403
 7105SOL    HW125357   1.165   2.413   4.201 -2.1741 -1.7897 -1.3392
 7105SOL    HW225358   1.190   2.282   4.275  0.0201  0.0426  1.4075
 7106SOL     OW25359   4.920   7.107  10.107 -0.4177 -0.0626  0.6015
 7106SOL    HW125360   4.904   7.073  10.195  0.1751 -0.8792  0.4044
 7106SOL    HW225361   4.999   7.062  10.078 -0.7757 -0.0308 -0.4700
 7107SOL     OW25362   5.905   2.424  10.122  0.1953 -0.4717  0.1329
 7107SOL    HW125363   5.899   2.429  10.217 -0.1948  0.7007  0.0620
 7107SOL    HW225364   5.874   2.336  10.100  1.0251 -1.0370  1.1291
 7108SOL     OW25365   7.631   7.827   4.330  0.1179  0.2680 -0.1731
 7108SOL    HW125366   7.595   7.817   4.242  0.4870 -0.7756 -0.2150
 7108SOL    HW225367   7.726   7.827   4.317  0.2011 -1.0714  0.3278
 7109SOL     OW25368   6.311   8.497   7.115  0.7504  0.0569 -0.3252
 7109SOL    HW125369   6.285   8.539   7.197  0.4533 -1.2871  0.3093
 7109SOL    HW225370   6.245   8.429   7.101  1.0409 -0.0155 -1.4653
 7110SOL     OW25371   6.781   2.721   2.363 -0.3626  0.6564 -0.4121
 7110SOL    HW125372   6.781   2.776   2.284 -1.3091 -0.6526 -1.3789
 7110SOL    HW225373   6.766   2.632   2.329  1.5257 -0.2725  1.0481
 7111SOL     OW25374   9.443   5.406   9.801 -0.3541  0.1911 -0.6978
 7111SOL    HW125375   9.445   5.414   9.896  0.3761  0.4521 -0.7323
 7111SOL    HW225376   9.529   5.371   9.778 -0.4324  0.3704 -1.2838
 7112SOL     OW25377   6.967  10.091   1.842 -0.0864  0.4253  0.0509
 7112SOL    HW125378   6.960  10.086   1.747 -0.5406 -0.6144  0.1267
 7112SOL    HW225379   6.995  10.004   1.869 -2.7828 -0.2419  1.0670
 7113SOL     OW25380   4.234   3.893   9.254  0.1452 -0.1886  0.0705
 7113SOL    HW125381   4.239   3.972   9.200  1.1636 -0.8165 -0.8092
 7113SOL    HW225382   4.204   3.825   9.193  2.0876 -1.0882  0.0380
 7114SOL     OW25383   1.955   7.621   9.361  0.2243 -0.4307 -0.5526
 7114SOL    HW125384   1.995   7.649   9.278 -0.2968  2.0778 -0.0322
 7114SOL    HW225385   1.886   7.561   9.335  0.5876 -0.3024 -1.8791
 7115SOL     OW25386   1.626   0.334   8.843 -0.3515 -0.3120  0.0943
 7115SOL    HW125387   1.602   0.293   8.760 -0.0923  0.6517 -0.4827
 7115SOL    HW225388   1.710   0.295   8.867 -0.4007 -0.5544 -0.1325
 7116SOL     OW25389   6.383   5.037   2.640 -0.3008  0.0775  0.1012
 7116SOL    HW125390   6.360   4.954   2.597 -0.5596 -0.3952  1.0965
 7116SOL    HW225391   6.470   5.058   2.607 -0.9444  0.3437 -1.5045
 7117SOL     OW25392   3.869   6.715   7.964  0.1353 -0.6068  0.1743
 7117SOL    HW125393   3.799   6.776   7.986  1.9892  1.9881 -0.5994
 7117SOL    HW225394   3.878   6.660   8.042 -0.4231  1.3579  1.7099
 7118SOL     OW25395   8.038  10.103   6.369  0.1200 -0.3706 -0.3504
 7118SOL    HW125396   7.993  10.115   6.286  0.4467 -0.6324 -0.5674
 7118SOL    HW225397   7.975  10.057   6.424 -1.4063  2.6958  0.6998
 7119SOL     OW25398   5.666   1.668   9.960  0.2077  0.6362  0.0665
 7119SOL    HW125399   5.739   1.674  10.022 -0.2597 -0.7555  0.8039
 7119SOL    HW225400   5.705   1.635   9.880  0.4336  0.0749  0.4009
 7120SOL     OW25401   1.975   9.937   4.916  0.3030 -0.2374 -0.5113
 7120SOL    HW125402   1.951   9.845   4.918  0.1895 -0.2847 -2.5963
 7120SOL    HW225403   1.949   9.967   4.829 -0.5643  2.0231  0.4556
 7121SOL     OW25404   5.932   2.223   6.985 -0.1645 -0.1393 -0.1729
 7121SOL    HW125405   5.846   2.245   7.021  0.1782  0.1346  0.5077
 7121SOL    HW225406   5.926   2.129   6.965  0.3085 -0.9103  2.7416
 7122SOL     OW25407   4.139   6.114   1.466 -0.2035 -0.1847 -0.2181
 7122SOL    HW125408   4.127   6.090   1.374 -0.4517 -0.0483 -0.2245
 7122SOL    HW225409   4.115   6.035   1.514 -0.4693 -0.1333 -0.2593
 7123SOL     OW25410   1.798   7.200   8.934  0.2815  0.0885  0.1182
 7123SOL    HW125411   1.758   7.272   8.984 -0.9998  0.2280 -1.0641
 7123SOL    HW225412   1.776   7.121   8.983 -0.1731  0.3048  0.2638
 7124SOL     OW25413   0.921   6.839   1.142  0.1057 -0.5991 -0.5828
 7124SOL    HW125414   0.839   6.885   1.122  0.5387  0.2440 -0.4490
 7124SOL    HW225415   0.983   6.908   1.165  0.9688 -1.1999 -1.0404
 7125SOL     OW25416   9.042   1.060   0.758 -0.0103  0.0967 -0.3467
 7125SOL    HW125417   9.108   1.128   0.744  0.0808 -0.0377 -0.5687
 7125SOL    HW225418   9.073   1.011   0.834  0.3720 -0.2394 -0.7160
 7126SOL     OW25419   7.500   7.828   6.679 -0.1360 -0.1531  0.0559
 7126SOL    HW125420   7.508   7.915   6.640 -0.5994  0.2397  0.8210
 7126SOL    HW225421   7.426   7.835   6.739 -1.2333 -1.5131 -1.0326
 7127SOL     OW25422   9.649   1.379   5.699  0.3619  0.5279 -0.5452
 7127SOL    HW125423   9.738   1.381   5.735  0.1156  2.4981  0.0769
 7127SOL    HW225424   9.599   1.329   5.763 -0.0418  3.8361  2.0318
 7128SOL     OW25425   2.017   6.632   2.596 -0.0338  0.7951 -0.1647
 7128SOL    HW125426   2.084   6.655   2.531  0.7023 -0.5206  0.1039
 7128SOL    HW225427   1.935   6.638   2.547  0.2788  2.0406 -0.6069
 7129SOL     OW25428   9.793   4.392   3.539  0.5932 -0.3430  0.0286
 7129SOL    HW125429   9.793   4.438   3.455 -2.0882 -0.2316 -0.0098
 7129SOL    HW225430   9.822   4.457   3.602 -2.7726  1.5246 -0.0720
 7130SOL     OW25431   9.244   9.943   1.670  0.7892 -0.3531  0.0546
 7130SOL    HW125432   9.263   9.911   1.758 -1.4953 -0.5984  0.5321
 7130SOL    HW225433   9.179   9.882   1.636  0.5917  0.5425 -1.2510
 7131SOL     OW25434   9.540   0.212   7.837 -0.5739  0.1526 -0.3207
 7131SOL    HW125435   9.544   0.235   7.930 -1.9320  0.1091 -0.2273
 7131SOL    HW225436   9.471   0.147   7.832 -0.8450  0.5057 -1.4332
 7132SOL     OW25437   7.177   7.590   8.073  0.0744  0.0690 -0.2897
 7132SOL    HW125438   7.189   7.580   7.979  3.7690  2.0928 -0.2024
 7132SOL    HW225439   7.256   7.551   8.112 -1.5560 -1.1357  2.0724
 7133SOL     OW25440   4.594   4.292   3.480  0.3125 -0.0557  1.3004
 7133SOL    HW125441   4.500   4.274   3.478  0.5749 -1.4820  0.8190
 7133SOL    HW225442   4.634   4.213   3.442  1.7422  0.2178  2.2006
 7134SOL     OW25443   9.523   5.832   9.290  0.0302 -0.0534 -0.2918
 7134SOL    HW125444   9.499   5.918   9.326  0.2294 -0.2123  0.2169
 7134SOL    HW225445   9.489   5.769   9.353  1.1488 -0.3094  0.0753
 7135SOL     OW25446   3.835   3.386   2.405 -0.4124  0.1825  0.3988
 7135SOL    HW125447   3.906   3.447   2.428 -0.6382  0.4997  0.2529
 7135SOL    HW225448   3.879   3.301   2.397 -0.0477  0.3747  0.3242
 7136SOL     OW25449  10.152   3.600   1.368  0.2484  0.0171 -0.8953
 7136SOL    HW125450  10.072   3.628   1.322  0.4637 -1.3443 -2.1850
 7136SOL    HW225451  10.120   3.563   1.450 -0.3655  0.2978 -0.9983
 7137SOL     OW25452   8.497   3.786   3.544  0.1154 -0.7536  0.6042
 7137SOL    HW125453   8.436   3.762   3.474  0.5453 -1.6292  0.5158
 7137SOL    HW225454   8.563   3.717   3.543  0.1414 -0.7736  1.8743
 7138SOL     OW25455   5.149   7.954   3.942  0.2932 -0.0721  0.1704
 7138SOL    HW125456   5.164   7.997   4.026 -0.5425 -0.2019  0.3924
 7138SOL    HW225457   5.173   8.020   3.877 -0.9495  0.7448  0.5097
 7139SOL     OW25458   5.291   6.822   5.149  0.2670  0.4163  0.0062
 7139SOL    HW125459   5.307   6.733   5.181  0.2563  0.6062  0.5559
 7139SOL    HW225460   5.212   6.851   5.196 -0.7129  0.1165 -1.4067
 7140SOL     OW25461   4.877   1.950   4.847 -0.0012 -0.1870 -0.1396
 7140SOL    HW125462   4.960   1.998   4.838 -0.5975  1.1105  0.8651
 7140SOL    HW225463   4.827   1.973   4.769  0.1756 -0.1232 -0.2342
 7141SOL     OW25464   2.809   8.267   7.304 -0.3478  0.1848  0.4606
 7141SOL    HW125465   2.866   8.335   7.340  1.6424 -0.3945 -1.3499
 7141SOL    HW225466   2.857   8.234   7.227 -3.0786 -0.4832 -1.0937
 7142SOL     OW25467   2.894   0.639   8.828 -0.0318 -0.5899 -0.2815
 7142SOL    HW125468   2.977   0.638   8.782  0.6597 -0.1092  0.8959
 7142SOL    HW225469   2.883   0.550   8.862  0.7619 -0.2867  0.8221
 7143SOL     OW25470   9.772   1.405   1.546 -0.6515  0.2251  0.3803
 7143SOL    HW125471   9.831   1.347   1.499 -0.3760  0.0657  0.9119
 7143SOL    HW225472   9.738   1.464   1.479 -0.5056 -0.1943 -0.0659
 7144SOL     OW25473   7.452   7.422   2.276  0.1985 -0.4064 -0.4388
 7144SOL    HW125474   7.451   7.428   2.180 -1.5924  2.2095 -0.3676
 7144SOL    HW225475   7.361   7.404   2.300  0.6132 -0.9873  0.7748
 7145SOL     OW25476   8.052   2.856   4.993  0.2329 -0.2427 -0.0952
 7145SOL    HW125477   8.143   2.835   4.973  0.7473  0.7443  1.1324
 7145SOL    HW225478   8.048   2.861   5.088 -1.3970 -1.4483 -0.0412
 7146SOL     OW25479   2.646   4.779   5.187 -0.7007 -0.2606 -0.1669
 7146SOL    HW125480   2.607   4.747   5.268 -1.3207  2.5424  0.7497
 7146SOL    HW225481   2.740   4.782   5.205 -0.7617 -0.3384  0.1699
 7147SOL     OW25482   5.283   6.516   0.475  0.3349 -0.1670 -0.6624
 7147SOL    HW125483   5.336   6.594   0.457  1.3750 -0.9609 -1.2176
 7147SOL    HW225484   5.213   6.547   0.532  1.5700  0.8966  0.3606
 7148SOL     OW25485   6.254   1.107   6.261  0.1634 -0.3359 -0.4941
 7148SOL    HW125486   6.214   1.108   6.348 -0.4523  0.4249 -0.7775
 7148SOL    HW225487   6.221   1.186   6.218 -0.2750 -1.1609 -1.7462
 7149SOL     OW25488   6.429   2.901   7.383 -0.3001 -0.0338 -0.4530
 7149SOL    HW125489   6.398   2.960   7.452  0.2459  0.7515 -0.8553
 7149SOL    HW225490   6.474   2.831   7.430  2.3723  1.8030  0.0088
 7150SOL     OW25491   1.798   3.290   2.736  0.2127 -0.5308 -0.1431
 7150SOL    HW125492   1.710   3.310   2.705  0.3798  0.7393  0.1276
 7150SOL    HW225493   1.793   3.199   2.767 -1.2976 -0.1303  0.9040
 7151SOL     OW25494   7.442   0.568   1.359  0.8765  0.2330  0.1611
 7151SOL    HW125495   7.477   0.479   1.358 -0.3481 -0.3060  1.5495
 7151SOL    HW225496   7.440   0.591   1.451  0.1733  1.2970 -0.1103
 7152SOL     OW25497   6.651   1.681   9.474 -0.2677 -0.3895  0.5962
 7152SOL    HW125498   6.732   1.690   9.525 -1.6791 -0.1860  2.9284
 7152SOL    HW225499   6.644   1.763   9.426  0.9251 -0.4339  0.3190
 7153SOL     OW25500   3.583   0.819   2.668  0.2851 -0.4679 -0.6078
 7153SOL    HW125501   3.574   0.835   2.762  0.4641 -0.6365 -0.5631
 7153SOL    HW225502   3.566   0.725   2.658  1.9112 -0.7956 -0.5337
 7154SOL     OW25503   8.233   9.520   3.085  0.2376  0.2780  0.8488
 7154SOL    HW125504   8.311   9.571   3.063  0.5617 -0.0363  1.2410
 7154SOL    HW225505   8.268   9.437   3.119 -0.2736 -0.0062  0.6853
 7155SOL     OW25506   5.492   2.046   8.691  0.0916 -0.2590  0.2250
 7155SOL    HW125507   5.465   2.136   8.706 -1.0676 -0.2087 -1.8329
 7155SOL    HW225508   5.452   1.997   8.763 -1.5718  0.4963 -0.1383
 7156SOL     OW25509   2.639   6.285   9.203 -0.3064 -0.3382 -0.1506
 7156SOL    HW125510   2.637   6.326   9.289 -0.4903 -0.3775 -0.1351
 7156SOL    HW225511   2.671   6.354   9.144  0.4697 -0.5151  0.0543
 7157SOL     OW25512   0.060   7.552   4.775 -0.1823  0.0272  0.0744
 7157SOL    HW125513  -0.020   7.600   4.754 -0.2780 -0.3711 -0.5086
 7157SOL    HW225514   0.030   7.464   4.797  0.1253 -0.2744 -0.6682
 7158SOL     OW25515   1.839   5.984   0.244  0.0708  0.4912  0.3509
 7158SOL    HW125516   1.870   5.919   0.181 -1.3055  1.0551 -0.9675
 7158SOL    HW225517   1.803   5.932   0.316 -0.3790 -0.2174 -0.3692
 7159SOL     OW25518   0.960  10.125   9.479  0.5028 -0.1477  0.0217
 7159SOL    HW125519   0.905  10.060   9.435 -1.2979  0.4502  1.2729
 7159SOL    HW225520   0.961  10.200   9.418  1.4605 -0.8011 -0.8036
 7160SOL     OW25521   7.972   1.792   9.126 -0.3052  0.8734  0.0188
 7160SOL    HW125522   7.906   1.832   9.183  0.2803 -0.8653  2.0580
 7160SOL    HW225523   8.055   1.804   9.172  0.3254  0.1101 -0.8719
 7161SOL     OW25524   8.690   7.780  10.181  0.0836  0.2992 -0.5273
 7161SOL    HW125525   8.699   7.699  10.232  0.8004  0.6582 -0.0776
 7161SOL    HW225526   8.768   7.783  10.127  1.4614  2.0387  1.4066
 7162SOL     OW25527   7.486   5.638   9.400 -0.6942 -0.1909  1.1449
 7162SOL    HW125528   7.467   5.708   9.463  0.2124  2.0072 -0.8397
 7162SOL    HW225529   7.423   5.652   9.329 -0.0753 -0.9695  0.4129
 7163SOL     OW25530   6.680   7.784   1.951 -0.2327  0.1611  1.1454
 7163SOL    HW125531   6.676   7.692   1.927 -1.0514 -0.2856  2.8897
 7163SOL    HW225532   6.660   7.831   1.870 -1.1008 -1.2164  0.5386
 7164SOL     OW25533   0.211   6.903   8.043 -0.2459  0.4506 -0.1473
 7164SOL    HW125534   0.191   6.950   8.124  0.2674  0.9762 -0.3200
 7164SOL    HW225535   0.259   6.967   7.989  0.7729 -0.3728 -0.2464
 7165SOL     OW25536   1.430   0.882   6.803 -0.2952 -0.2753  0.3597
 7165SOL    HW125537   1.386   0.955   6.759 -3.0044 -0.8448  1.8944
 7165SOL    HW225538   1.457   0.825   6.731  1.5109  1.9373 -0.8537
 7166SOL     OW25539  10.293   3.120   4.896  0.1255  0.0014 -0.0955
 7166SOL    HW125540  10.380   3.135   4.858  0.0321 -1.4711 -0.9671
 7166SOL    HW225541  10.268   3.033   4.864 -1.8445  0.5701 -0.1867
 7167SOL     OW25542   8.881   2.247   3.679 -0.1133  0.2944 -0.5211
 7167SOL    HW125543   8.973   2.271   3.670  0.2727 -0.8691  0.1747
 7167SOL    HW225544   8.833   2.321   3.641  0.8667  3.6127  3.9533
 7168SOL     OW25545   4.412   9.398   3.143  0.0351 -0.1108  0.3840
 7168SOL    HW125546   4.501   9.410   3.175  0.2860  0.3126 -0.4389
 7168SOL    HW225547   4.404   9.304   3.127  0.3375 -0.1494  0.4574
 7169SOL     OW25548   0.634   8.476   1.443 -0.5485 -0.2215  0.4072
 7169SOL    HW125549   0.591   8.402   1.487  0.6616 -1.2573 -0.1071
 7169SOL    HW225550   0.625   8.457   1.350  0.6298 -0.2434  0.2863
 7170SOL     OW25551   4.235   7.366   9.210  0.3264  0.3996 -0.3443
 7170SOL    HW125552   4.160   7.307   9.218 -0.5343  1.3766 -0.9105
 7170SOL    HW225553   4.216   7.437   9.272  0.5540  0.8828 -0.8220
 7171SOL     OW25554   0.870   4.440   9.620  0.2578 -0.1718  0.1311
 7171SOL    HW125555   0.930   4.514   9.609 -0.5152  0.6578  1.2720
 7171SOL    HW225556   0.841   4.446   9.711 -1.9719 -0.2096 -0.5198
 7172SOL     OW25557  10.275   8.982   6.832  0.6342 -0.3127 -0.2758
 7172SOL    HW125558  10.275   8.898   6.879 -0.7419 -0.4185 -0.4287
 7172SOL    HW225559  10.316   9.043   6.893 -0.4952 -0.5921  0.8031
 7173SOL     OW25560   5.959   8.252   8.621  0.2757  0.2954 -0.3774
 7173SOL    HW125561   5.971   8.185   8.689  0.2471  0.9176  0.2473
 7173SOL    HW225562   5.983   8.207   8.539  1.2043 -0.1978  0.1425
 7174SOL     OW25563   6.409   6.635   4.642 -0.2299 -0.0253 -0.3908
 7174SOL    HW125564   6.383   6.726   4.656 -0.4727 -0.4320  2.3769
 7174SOL    HW225565   6.334   6.584   4.673  0.3274 -1.2013 -0.9224
 7175SOL     OW25566   9.960   7.216   2.741  0.1743 -0.0684 -0.2909
 7175SOL    HW125567   9.888   7.278   2.753 -2.2253 -3.0650  3.2165
 7175SOL    HW225568  10.033   7.255   2.789 -1.0933  0.4129  1.3511
 7176SOL     OW25569  10.294   4.260   6.707 -0.1433  0.1648  1.0058
 7176SOL    HW125570  10.379   4.268   6.749  0.6377 -0.6558 -0.3373
 7176SOL    HW225571  10.295   4.325   6.637 -0.0692 -0.7052  0.1661
 7177SOL     OW25572   4.480   2.780   1.569 -0.2758  0.2774  0.4324
 7177SOL    HW125573   4.551   2.761   1.508 -0.5137  0.6212  0.0419
 7177SOL    HW225574   4.506   2.737   1.650 -0.8106 -1.7418 -0.4002
 7178SOL     OW25575   5.260   1.894   1.723  0.4217 -0.1953  0.5192
 7178SOL    HW125576   5.230   1.826   1.663 -0.7505  0.3389  0.4804
 7178SOL    HW225577   5.183   1.949   1.738  1.2182  0.8380  0.9391
 7179SOL     OW25578   2.642   3.905   7.813 -0.2116  0.3073 -0.1096
 7179SOL    HW125579   2.610   3.979   7.865 -0.0983  1.2239 -1.3178
 7179SOL    HW225580   2.635   3.934   7.722  2.6198 -0.0031 -0.5272
 7180SOL     OW25581   4.950   4.474   5.815 -0.0970 -0.3561  0.0522
 7180SOL    HW125582   4.862   4.444   5.792  1.0527 -1.9940 -2.6915
 7180SOL    HW225583   4.972   4.426   5.894 -1.4307 -0.3318  0.4636
 7181SOL     OW25584   6.217   1.115   4.027 -0.3354  0.3999 -0.2004
 7181SOL    HW125585   6.152   1.045   4.024 -1.4227  1.3578  0.3841
 7181SOL    HW225586   6.258   1.106   4.112  2.2181 -1.8177 -1.5027
 7182SOL     OW25587   7.072   2.510   4.838 -0.1289  0.0649 -0.0924
 7182SOL    HW125588   7.163   2.530   4.860  0.6842 -3.8752  0.9505
 7182SOL    HW225589   7.077   2.437   4.776 -2.5368 -0.6868  0.4591
 7183SOL     OW25590   6.241   1.638   1.798  0.2306  0.4005 -0.7944
 7183SOL    HW125591   6.218   1.647   1.706  1.0495  1.0532 -0.9482
 7183SOL    HW225592   6.194   1.560   1.827 -1.2101  1.0264 -1.3797
 7184SOL     OW25593   0.087   8.893   9.590  0.0229 -0.4583  0.3825
 7184SOL    HW125594   0.012   8.847   9.628 -0.3938  0.6651  0.9970
 7184SOL    HW225595   0.047   8.967   9.543  0.7367  0.1415  0.7042
 7185SOL     OW25596   5.708   3.556   8.485 -0.5680 -0.2836  0.0382
 7185SOL    HW125597   5.638   3.621   8.485 -0.2661  0.0468  0.4736
 7185SOL    HW225598   5.702   3.514   8.570  0.9700  1.0780  0.8670
 7186SOL     OW25599   1.926   1.745   3.093  0.0118  0.1437 -0.1686
 7186SOL    HW125600   1.850   1.747   3.152  1.2802 -0.3265  1.5828
 7186SOL    HW225601   1.914   1.664   3.043  0.8378 -1.6408  2.3058
 7187SOL     OW25602   0.686   8.807   7.808  0.2482 -0.2964  0.0512
 7187SOL    HW125603   0.595   8.825   7.831  0.7285  1.2444  0.9492
 7187SOL    HW225604   0.720   8.757   7.882  0.4911  0.3768  0.4059
 7188SOL     OW25605   0.572   6.441   7.824 -0.1452 -0.3914  0.0925
 7188SOL    HW125606   0.575   6.525   7.778 -1.3370  0.4590  1.4987
 7188SOL    HW225607   0.555   6.377   7.756  2.0774  0.3015 -1.2110
 7189SOL     OW25608   9.002   4.651   2.466  0.1543  0.6408 -0.4150
 7189SOL    HW125609   8.914   4.654   2.503 -0.0527 -0.4226 -0.7971
 7189SOL    HW225610   9.054   4.708   2.524  0.2315 -2.2174  2.5997
 7190SOL     OW25611   8.264   6.962   5.088  0.3447  0.2111  0.0158
 7190SOL    HW125612   8.259   6.906   5.165 -0.1537 -3.2339 -2.2794
 7190SOL    HW225613   8.175   6.992   5.074  0.1282 -0.4155 -0.0071
 7191SOL     OW25614   0.868   9.272   0.486 -0.0055 -0.3878  0.1541
 7191SOL    HW125615   0.954   9.308   0.468 -0.3785  1.5056  1.7567
 7191SOL    HW225616   0.878   9.226   0.569 -0.5253 -0.1336  0.3664
 7192SOL     OW25617   6.949   5.755   4.366  0.6132 -0.0266  0.3398
 7192SOL    HW125618   7.039   5.772   4.336  0.2948 -0.3541 -0.8604
 7192SOL    HW225619   6.894   5.798   4.301 -0.1179 -1.0852  0.2398
 7193SOL     OW25620   7.580   6.904   0.954 -0.6411 -0.1266 -0.0731
 7193SOL    HW125621   7.622   6.916   1.039 -0.3065 -0.1450 -0.2358
 7193SOL    HW225622   7.562   6.993   0.923  0.6773 -0.0466 -0.6966
 7194SOL     OW25623   8.611   4.423   7.624 -0.1731  0.2967 -0.0700
 7194SOL    HW125624   8.679   4.478   7.661  0.0884  0.3739 -0.6490
 7194SOL    HW225625   8.554   4.484   7.577  0.5784  0.0063 -1.4143
 7195SOL     OW25626   9.676   9.270   8.086  0.1579  0.3127  0.4207
 7195SOL    HW125627   9.626   9.216   8.147  1.0336 -1.3110 -0.2341
 7195SOL    HW225628   9.766   9.235   8.091  1.0291  2.4519  0.7944
 7196SOL     OW25629   3.689   2.119   2.435 -0.4199 -1.0215 -0.0160
 7196SOL    HW125630   3.608   2.136   2.385 -0.0397  0.5928 -0.1516
 7196SOL    HW225631   3.704   2.025   2.425 -0.7556 -0.8841 -2.3633
 7197SOL     OW25632  10.179   3.977   8.825 -0.2673  0.9298  0.5344
 7197SOL    HW125633  10.084   3.986   8.815 -0.8835 -2.4479  2.1760
 7197SOL    HW225634  10.197   4.008   8.914 -0.5439 -1.9388  1.6797
 7198SOL     OW25635   1.460   0.204   5.082 -0.3808 -0.4161  0.2138
 7198SOL    HW125636   1.528   0.231   5.020 -0.7276 -0.1591 -0.0576
 7198SOL    HW225637   1.442   0.282   5.134  0.7453 -0.9463  1.4391
 7199SOL     OW25638   8.809   4.338   2.116  0.6749  0.1889  0.0234
 7199SOL    HW125639   8.846   4.382   2.040  0.3291  0.7361  0.1654
 7199SOL    HW225640   8.792   4.409   2.179  0.1648 -0.1544  0.2799
 7200SOL     OW25641   6.186   0.252   6.124 -0.1903 -0.1665 -0.0585
 7200SOL    HW125642   6.099   0.258   6.085 -1.0920 -0.2660  1.8001
 7200SOL    HW225643   6.234   0.327   6.089 -1.6730  1.0327  0.3646
 7201SOL     OW25644   0.249   4.692   3.382 -0.1631 -0.3430 -0.3847
 7201SOL    HW125645   0.301   4.613   3.400 -0.5264 -0.4822  0.0934
 7201SOL    HW225646   0.238   4.692   3.287  0.4626 -0.4659 -0.4629
 7202SOL     OW25647   0.197   5.426   4.384 -0.0697  0.0543 -0.4056
 7202SOL    HW125648   0.179   5.339   4.347  0.2441 -0.2347  0.1183
 7202SOL    HW225649   0.252   5.468   4.318  0.0642 -0.2726 -0.5050
 7203SOL     OW25650   9.252   7.390   5.947 -0.0771 -0.1814  0.1795
 7203SOL    HW125651   9.257   7.429   6.035  0.8175 -0.4657  0.2635
 7203SOL    HW225652   9.339   7.405   5.910 -0.9188  1.3921 -1.3015
 7204SOL     OW25653   3.502   5.142   5.642  0.0901  0.1909  0.0637
 7204SOL    HW125654   3.468   5.085   5.574  2.9934 -0.4293 -1.0242
 7204SOL    HW225655   3.543   5.214   5.595 -0.3397  1.2884  1.2972
 7205SOL     OW25656   3.939   6.034   2.136  0.6953  0.2868 -0.3071
 7205SOL    HW125657   3.902   6.120   2.115  1.6589  0.3359 -1.9069
 7205SOL    HW225658   3.891   5.972   2.081 -1.4365 -0.5692  2.2951
 7206SOL     OW25659   7.901   0.375   6.960  0.1928 -0.4107 -0.3843
 7206SOL    HW125660   7.936   0.286   6.968  0.2909 -0.4920 -1.6446
 7206SOL    HW225661   7.826   0.367   6.901  1.3571  0.6213 -2.0874
 7207SOL     OW25662   5.645   6.613   8.485 -0.1038  0.0266 -0.0920
 7207SOL    HW125663   5.636   6.524   8.521  0.0427  0.1147  0.1654
 7207SOL    HW225664   5.600   6.669   8.548 -0.0694  0.1531 -0.1802
 7208SOL     OW25665   4.372   5.541   2.963 -0.1438  0.6288 -0.0359
 7208SOL    HW125666   4.338   5.547   2.874  2.3311 -0.0901 -1.1230
 7208SOL    HW225667   4.367   5.448   2.985  0.8047  0.5421 -0.1282
 7209SOL     OW25668   2.953   7.610   5.549 -0.0049 -0.5582 -0.1126
 7209SOL    HW125669   3.037   7.597   5.592  0.5453 -2.3674 -1.6089
 7209SOL    HW225670   2.972   7.663   5.472 -0.5777  0.6018  0.5167
 7210SOL     OW25671   5.228   0.733   2.825 -0.0390 -0.2575  0.0159
 7210SOL    HW125672   5.205   0.688   2.906  0.8677  0.3999  0.6575
 7210SOL    HW225673   5.200   0.823   2.839  2.7279  0.5812  0.8250
 7211SOL     OW25674   7.164   0.563   8.474  0.0422 -0.4063 -0.5701
 7211SOL    HW125675   7.247   0.569   8.520 -0.3942  0.5687  0.1241
 7211SOL    HW225676   7.173   0.485   8.418  0.8626 -1.1689  0.5798
 7212SOL     OW25677   2.168   6.829   1.595  0.0312  0.1279  0.5215
 7212SOL    HW125678   2.105   6.760   1.578 -1.8491  1.4833  1.5483
 7212SOL    HW225679   2.115   6.909   1.600  2.0796  1.6376 -0.4265
 7213SOL     OW25680   9.865   1.826   1.893 -0.6079 -0.3614 -0.0244
 7213SOL    HW125681   9.827   1.866   1.971 -0.3222 -0.7399  0.3137
 7213SOL    HW225682   9.827   1.875   1.820  0.5399  1.2556  0.4043
 7214SOL     OW25683   9.395   4.370   7.961 -0.6191 -0.4743 -0.3545
 7214SOL    HW125684   9.433   4.457   7.972 -0.2013 -0.7987  1.0676
 7214SOL    HW225685   9.374   4.364   7.868 -0.2703  0.9802 -0.5537
 7215SOL     OW25686   1.510   7.718   1.019  0.0739  0.0011 -0.5680
 7215SOL    HW125687   1.476   7.807   1.029 -3.1741 -1.3440  2.5323
 7215SOL    HW225688   1.464   7.683   0.942  0.5084  0.5793 -1.1074
 7216SOL     OW25689   0.827   0.088   4.475  0.0246 -0.5565  0.5020
 7216SOL    HW125690   0.921   0.072   4.482  0.0041 -1.0146 -0.1892
 7216SOL    HW225691   0.818   0.183   4.485  0.8168 -0.1687 -1.8202
 7217SOL     OW25692  10.107   1.514   1.949  0.1176 -0.1307  0.0105
 7217SOL    HW125693  10.036   1.508   2.013 -1.1314 -0.8145 -1.3895
 7217SOL    HW225694  10.147   1.427   1.949 -0.3212 -0.3323 -0.6244
 7218SOL     OW25695   8.917   6.856   6.868 -0.5790 -0.2162 -0.0755
 7218SOL    HW125696   8.854   6.906   6.816  0.6561  0.5704 -0.8855
 7218SOL    HW225697   8.964   6.802   6.804  0.5059  0.2702  0.2739
 7219SOL     OW25698   1.434   1.570   2.555  0.0213 -0.2327 -0.3959
 7219SOL    HW125699   1.470   1.532   2.636  1.8394 -0.5001 -1.2790
 7219SOL    HW225700   1.348   1.528   2.545  0.0315 -0.6589  1.0631
 7220SOL     OW25701   1.357   2.545   3.801  0.2981  0.4824 -0.0175
 7220SOL    HW125702   1.436   2.576   3.844  0.9682 -0.1752 -0.7270
 7220SOL    HW225703   1.372   2.451   3.789  0.8866  0.8492 -3.0821
 7221SOL     OW25704   4.580   0.700   8.513 -0.6004 -0.2808 -0.0160
 7221SOL    HW125705   4.490   0.713   8.484 -0.2574  0.4880 -0.8028
 7221SOL    HW225706   4.575   0.634   8.581 -1.9003  0.5660  0.7436
 7222SOL     OW25707   4.237   8.793   3.260 -0.5407  0.0558 -0.5499
 7222SOL    HW125708   4.181   8.747   3.198 -1.4956 -0.3317  0.5578
 7222SOL    HW225709   4.324   8.754   3.249 -0.3610  0.9124 -2.5422
 7223SOL     OW25710   9.888   4.217   6.329  0.0444  0.4776  0.5499
 7223SOL    HW125711   9.800   4.250   6.311  0.7938  1.8806 -0.8323
 7223SOL    HW225712   9.891   4.206   6.424 -1.4068  0.9918  0.6809
 7224SOL     OW25713   1.827   3.288   6.090 -0.0033  0.5664  0.2447
 7224SOL    HW125714   1.897   3.272   6.026  0.9319  1.0121  1.1232
 7224SOL    HW225715   1.855   3.366   6.138 -1.5744  1.3107  0.0123
 7225SOL     OW25716   1.915   1.732   2.609 -0.1138  0.1623 -0.0284
 7225SOL    HW125717   1.911   1.645   2.572  0.0828 -0.0064  0.3395
 7225SOL    HW225718   1.906   1.791   2.535  0.6735 -0.1617 -0.3906
 7226SOL     OW25719   7.575   3.047   7.271  0.2093  0.2678 -0.0246
 7226SOL    HW125720   7.577   3.029   7.365  0.1779 -0.2274 -0.1140
 7226SOL    HW225721   7.629   3.125   7.260 -0.7378  1.0150  0.5482
 7227SOL     OW25722   1.587   7.332   5.996  0.1293 -0.2120 -0.2579
 7227SOL    HW125723   1.654   7.392   6.027 -0.0288 -1.1191  2.0177
 7227SOL    HW225724   1.548   7.376   5.920  0.4291  2.2380  0.9220
 7228SOL     OW25725   4.573   4.705   4.460  0.0899 -0.2384 -0.1074
 7228SOL    HW125726   4.655   4.708   4.509  0.4589 -0.3760 -0.6965
 7228SOL    HW225727   4.528   4.627   4.492 -1.0682  1.2578  2.1353
 7229SOL     OW25728   4.890   6.911   4.894 -0.1434 -0.5713  0.5088
 7229SOL    HW125729   4.864   6.898   4.985  0.0141  3.0104  1.2427
 7229SOL    HW225730   4.985   6.917   4.897 -0.0838 -1.1606 -0.0363
 7230SOL     OW25731  10.181   4.592  10.111  0.6498  0.5168  0.2808
 7230SOL    HW125732  10.220   4.589  10.198  0.7031  0.3616  0.2517
 7230SOL    HW225733  10.106   4.651  10.120 -0.3217 -0.7413  0.8335
 7231SOL     OW25734   0.704   3.212   5.362 -0.3978  0.0138 -0.2335
 7231SOL    HW125735   0.637   3.243   5.301 -1.4164 -0.6573  0.5095
 7231SOL    HW225736   0.657   3.198   5.445  1.4496  3.8067  1.7103
 7232SOL     OW25737   1.402   0.542   4.469  0.0502  0.5246 -0.3479
 7232SOL    HW125738   1.493   0.521   4.448 -0.4702 -0.9124 -1.3188
 7232SOL    HW225739   1.367   0.460   4.506 -1.3183  0.4719 -1.6651
 7233SOL     OW25740   5.628   4.552   3.597  0.2060 -0.3110 -0.0052
 7233SOL    HW125741   5.556   4.512   3.647 -1.6209 -0.5578 -2.6085
 7233SOL    HW225742   5.641   4.493   3.523  2.6142  0.1639 -0.0367
 7234SOL     OW25743   7.041   1.759   0.943  0.1447 -0.1009 -0.4227
 7234SOL    HW125744   7.037   1.840   0.893 -2.0168  0.7920  1.0424
 7234SOL    HW225745   6.967   1.764   1.003  1.3337 -2.0905  1.3760
 7235SOL     OW25746   6.563   9.574   0.062  0.1201 -0.0792 -0.3614
 7235SOL    HW125747   6.539   9.522  -0.014 -0.1183 -0.5265  0.0150
 7235SOL    HW225748   6.533   9.522   0.137 -2.0190  1.4843 -0.0091
 7236SOL     OW25749   3.583   5.868   4.066 -0.4802  0.4755  0.1832
 7236SOL    HW125750   3.518   5.865   3.996 -1.3332  0.9127  0.9296
 7236SOL    HW225751   3.664   5.894   4.023 -1.2584  1.9602 -0.4492
 7237SOL     OW25752   4.585   5.417   6.867  0.4211  0.1059  0.6107
 7237SOL    HW125753   4.587   5.340   6.924 -0.3415 -0.6203 -0.3300
 7237SOL    HW225754   4.560   5.384   6.781  3.0924  0.9206 -0.5913
 7238SOL     OW25755   8.651   6.164   6.612 -0.4049 -0.1326 -0.0529
 7238SOL    HW125756   8.583   6.168   6.545  0.0264  0.0140 -0.4917
 7238SOL    HW225757   8.627   6.232   6.675 -0.5012  0.1204 -0.3610
 7239SOL     OW25758   3.685   2.087   1.740 -0.1815 -0.1234  0.3855
 7239SOL    HW125759   3.691   2.116   1.649 -0.5562 -0.7867  0.1455
 7239SOL    HW225760   3.697   2.167   1.791  0.4746  0.1855 -0.2347
 7240SOL     OW25761   4.374   0.435   3.234  0.1970 -0.0268 -0.5838
 7240SOL    HW125762   4.343   0.510   3.183 -0.3831 -0.2160 -0.5190
 7240SOL    HW225763   4.439   0.393   3.177  1.6807  1.3816 -0.0082
 7241SOL     OW25764   6.380   2.979   0.529  0.0363  0.4596 -0.5693
 7241SOL    HW125765   6.447   2.910   0.534  0.3667  0.6627 -1.8076
 7241SOL    HW225766   6.421   3.049   0.478 -0.4719  1.3856  0.2428
 7242SOL     OW25767   6.643   6.761  10.020 -0.0089  0.3445 -0.3854
 7242SOL    HW125768   6.670   6.737   9.932  0.6017  1.6973 -0.5780
 7242SOL    HW225769   6.548   6.750  10.020 -0.0765  0.8952 -1.3841
 7243SOL     OW25770   2.806   9.800   0.386 -0.0418  0.0443 -0.1065
 7243SOL    HW125771   2.830   9.739   0.457 -2.3445 -0.6446  0.1741
 7243SOL    HW225772   2.889   9.820   0.342  0.9451 -2.4892  0.4411
 7244SOL     OW25773   5.317   6.560   2.277  0.1743  0.3809 -0.0997
 7244SOL    HW125774   5.238   6.529   2.233 -0.1785  1.0077  0.0812
 7244SOL    HW225775   5.373   6.590   2.206  0.3078 -0.1790 -0.2380
 7245SOL     OW25776   1.841   9.876   8.549 -0.1691  0.2792 -0.6272
 7245SOL    HW125777   1.929   9.841   8.533 -0.5216  0.0511 -2.1704
 7245SOL    HW225778   1.784   9.800   8.551 -0.1699  0.2276  2.1626
 7246SOL     OW25779   4.471   7.253   9.270  0.2575 -0.0217 -0.2838
 7246SOL    HW125780   4.478   7.242   9.365  1.3694 -1.9012 -0.5437
 7246SOL    HW225781   4.390   7.302   9.258  1.0144  1.8844  1.7213
 7247SOL     OW25782   4.603   2.045   1.844  0.1867 -0.6057  0.1471
 7247SOL    HW125783   4.578   2.134   1.869  2.3333  0.8570 -2.3668
 7247SOL    HW225784   4.669   2.019   1.909  0.0915 -0.0434  0.4737
 7248SOL     OW25785   3.556   6.314   2.047  0.4982 -0.0464  0.3791
 7248SOL    HW125786   3.593   6.393   2.086  1.1045  0.4814 -1.2146
 7248SOL    HW225787   3.630   6.254   2.039  0.1969 -0.4918  0.8253
 7249SOL     OW25788   4.512   8.938   0.496 -0.6755  0.3806  0.2123
 7249SOL    HW125789   4.496   8.848   0.467 -0.2801  0.6716 -1.0058
 7249SOL    HW225790   4.606   8.940   0.517  0.1164  1.2287 -2.8441
 7250SOL     OW25791   9.840   7.820   1.306 -0.5071 -0.0846  0.1497
 7250SOL    HW125792   9.913   7.865   1.263 -1.4673 -0.3304 -1.8560
 7250SOL    HW225793   9.852   7.728   1.285 -0.1017 -0.4540  1.8650
 7251SOL     OW25794   5.743   9.681   3.711 -0.7286  0.5072  0.3928
 7251SOL    HW125795   5.749   9.755   3.651 -1.7618 -1.3116 -2.1285
 7251SOL    HW225796   5.783   9.608   3.664 -2.0603 -1.1500  1.6569
 7252SOL     OW25797   8.828   0.657   7.643  0.0948 -0.0799  0.2261
 7252SOL    HW125798   8.840   0.676   7.736 -2.2131 -0.8177  0.7449
 7252SOL    HW225799   8.870   0.573   7.629  0.2067 -0.0979  0.6659
 7253SOL     OW25800   2.721   4.969   0.154 -0.1877  0.6727 -0.4999
 7253SOL    HW125801   2.759   5.025   0.222 -0.0185  0.5024 -0.4542
 7253SOL    HW225802   2.643   5.017   0.124  0.2280  1.1697 -0.8095
 7254SOL     OW25803   6.663   9.131   8.883  0.3792  0.1217  0.3040
 7254SOL    HW125804   6.589   9.083   8.848 -1.3265  1.6838  1.5776
 7254SOL    HW225805   6.631   9.170   8.965  2.6863  0.6269  1.0498
 7255SOL     OW25806   2.378   2.328   9.345  0.2361 -0.5395 -0.0155
 7255SOL    HW125807   2.471   2.335   9.366  0.1599 -0.5461  0.3335
 7255SOL    HW225808   2.355   2.414   9.309  0.3183 -0.4537  0.1360
 7256SOL     OW25809   2.242   9.588   5.446 -0.4577 -0.3102 -0.3958
 7256SOL    HW125810   2.213   9.667   5.401  1.4462  0.5492 -0.2016
 7256SOL    HW225811   2.281   9.534   5.376 -0.3954 -0.4099 -0.2856
 7257SOL     OW25812   6.251   9.304   1.457  0.2083  0.3871 -0.3762
 7257SOL    HW125813   6.230   9.211   1.466 -1.4792  0.8665  1.4328
 7257SOL    HW225814   6.188   9.337   1.393 -0.3858  0.6007  0.3047
 7258SOL     OW25815   7.659   5.701   2.956 -0.5190  0.6033 -0.6177
 7258SOL    HW125816   7.718   5.645   2.905 -0.6029 -0.9319  0.8649
 7258SOL    HW225817   7.572   5.670   2.933 -0.6946  1.6374 -1.4240
 7259SOL     OW25818   9.522   4.147   1.861 -0.4477 -0.5229 -0.2854
 7259SOL    HW125819   9.506   4.098   1.942 -2.7329 -0.1254 -0.4284
 7259SOL    HW225820   9.515   4.081   1.792  1.9940 -0.9581 -0.2048
 7260SOL     OW25821   2.710   0.658   3.056  0.0781  0.0881  0.0200
 7260SOL    HW125822   2.680   0.567   3.062  0.9642 -0.1761  0.7355
 7260SOL    HW225823   2.662   0.704   3.124  0.2701 -0.0424  0.2479
 7261SOL     OW25824   3.496   6.537   8.577  0.6609 -0.1561 -0.1993
 7261SOL    HW125825   3.526   6.486   8.652 -0.1351  1.1342  1.0370
 7261SOL    HW225826   3.573   6.544   8.521  1.5183 -0.4257  0.9003
 7262SOL     OW25827   5.625   1.512   7.453 -0.0392  0.5943 -0.1717
 7262SOL    HW125828   5.583   1.437   7.411  0.7462 -0.2858  0.5386
 7262SOL    HW225829   5.581   1.519   7.538 -0.4774  1.2810 -0.4582
 7263SOL     OW25830   7.050   1.830   2.050  0.0992  0.3057  0.0543
 7263SOL    HW125831   7.040   1.743   2.089  1.7349 -0.5052 -1.2378
 7263SOL    HW225832   7.015   1.821   1.962 -0.8857  1.3468  0.3098
 7264SOL     OW25833   4.839   6.326   4.029 -0.1347  0.2539 -0.4423
 7264SOL    HW125834   4.784   6.394   3.990  0.2937  0.4907 -0.6342
 7264SOL    HW225835   4.826   6.250   3.972 -1.6252 -0.2464  0.4947
 7265SOL     OW25836   4.238   0.730   7.134  0.4234 -0.0043  0.3817
 7265SOL    HW125837   4.232   0.753   7.227  0.4858  1.8196 -0.0316
 7265SOL    HW225838   4.191   0.800   7.089  1.2247 -0.3362 -1.0262
 7266SOL     OW25839   1.880   2.806   1.654  0.0147 -0.1179 -0.1564
 7266SOL    HW125840   1.968   2.808   1.618  0.3348  0.0220  0.6010
 7266SOL    HW225841   1.890   2.838   1.744 -0.5502 -1.5714  0.4720
 7267SOL     OW25842   8.262   6.364   2.981  0.4758  0.3022 -0.2684
 7267SOL    HW125843   8.300   6.331   2.899 -2.1105  0.7484 -1.7354
 7267SOL    HW225844   8.237   6.454   2.961 -0.7799  0.2093  0.7918
 7268SOL     OW25845   5.863   1.302   1.035  0.3554  0.1505  0.2977
 7268SOL    HW125846   5.952   1.302   1.070  0.1120  1.0909  0.9697
 7268SOL    HW225847   5.875   1.299   0.940  1.0384 -1.9410  0.3881
 7269SOL     OW25848   8.456   0.964   2.191  0.3886 -0.4926 -0.4379
 7269SOL    HW125849   8.379   0.915   2.220  0.4987 -0.6441 -0.4013
 7269SOL    HW225850   8.456   1.043   2.246  0.0951 -0.3516 -0.6398
 7270SOL     OW25851   2.762   8.259   3.466  0.9202 -0.2129  0.0627
 7270SOL    HW125852   2.826   8.242   3.397  1.3317 -2.3615  0.9049
 7270SOL    HW225853   2.804   8.323   3.523  1.2595  0.2950 -0.7388
 7271SOL     OW25854   0.119   8.900   3.485 -0.9143 -0.0883 -0.5234
 7271SOL    HW125855   0.197   8.851   3.511 -0.2020  0.8124 -0.9116
 7271SOL    HW225856   0.047   8.855   3.529 -0.1231 -0.5976  0.2949
 7272SOL     OW25857   4.504   7.434   9.553  0.3640 -0.5740  0.6931
 7272SOL    HW125858   4.573   7.376   9.521 -0.4758 -1.6969  0.8509
 7272SOL    HW225859   4.520   7.517   9.508  2.2205 -0.5824  1.2558
 7273SOL     OW25860   9.439   0.457   3.002 -0.0832 -0.1589 -0.7907
 7273SOL    HW125861   9.472   0.497   3.082 -1.2536  1.5296 -1.0874
 7273SOL    HW225862   9.365   0.404   3.030  0.6796 -1.1360 -0.5551
 7274SOL     OW25863   8.514   2.933   4.525 -0.3855 -0.2520 -0.2241
 7274SOL    HW125864   8.592   2.921   4.580 -0.1375  1.2108 -0.2154
 7274SOL    HW225865   8.524   2.869   4.455  0.4531 -0.5802  0.1755
 7275SOL     OW25866   2.741   6.069   5.512  0.3455 -0.5324 -0.5559
 7275SOL    HW125867   2.793   6.149   5.515  0.7177 -0.7366 -1.2613
 7275SOL    HW225868   2.806   5.998   5.510  0.1171 -0.7616 -2.4028
 7276SOL     OW25869   5.259   6.931   1.147 -0.0100 -0.6340 -0.3591
 7276SOL    HW125870   5.175   6.967   1.118  0.0653  0.0530  0.2454
 7276SOL    HW225871   5.240   6.840   1.170 -1.1105  0.0845  1.8589
 7277SOL     OW25872   9.288   1.615   4.562 -0.3914 -0.2134 -0.0225
 7277SOL    HW125873   9.237   1.687   4.522 -0.1947  0.0823  0.2551
 7277SOL    HW225874   9.335   1.657   4.634 -0.5576 -0.6996  0.3703
 7278SOL     OW25875   9.439   8.841   9.769  0.2520 -0.7518  0.2612
 7278SOL    HW125876   9.392   8.839   9.686  0.2061  0.6856  0.2274
 7278SOL    HW225877   9.513   8.901   9.754 -0.8945  1.1533  1.7927
 7279SOL     OW25878   5.709   7.994   0.622  0.5871  0.9116 -0.0127
 7279SOL    HW125879   5.765   7.920   0.644 -1.9390 -0.6912  1.4508
 7279SOL    HW225880   5.728   8.060   0.689 -2.3073 -1.3751  3.3585
 7280SOL     OW25881   4.688   9.347   0.741 -0.4101  0.0064 -0.7374
 7280SOL    HW125882   4.730   9.419   0.694 -1.2896  0.7243 -0.4481
 7280SOL    HW225883   4.705   9.366   0.833 -0.4912 -0.2577 -0.6670
 7281SOL     OW25884   1.975   6.042   7.771  0.0556  0.3190 -0.5504
 7281SOL    HW125885   1.976   6.138   7.767 -0.3266  0.3266 -0.4467
 7281SOL    HW225886   1.883   6.018   7.763  0.1201 -0.0292 -0.2495
 7282SOL     OW25887   2.203   4.775   7.144  0.3123 -0.8413  0.2994
 7282SOL    HW125888   2.110   4.778   7.168  0.3337  0.1555  0.3087
 7282SOL    HW225889   2.234   4.864   7.159  0.7321 -0.5764 -1.7735
 7283SOL     OW25890   8.961   3.062   4.432 -0.2388 -0.0969  0.0644
 7283SOL    HW125891   8.998   3.077   4.519  0.5945  0.5042 -0.3811
 7283SOL    HW225892   8.919   2.976   4.437  0.5324 -0.4294  0.8118
 7284SOL     OW25893   9.168   9.087   9.663  0.1437 -0.5558  0.9950
 7284SOL    HW125894   9.146   9.104   9.754 -0.1764  2.1120  0.5087
 7284SOL    HW225895   9.249   9.136   9.648 -0.9403  0.8532 -0.6475
 7285SOL     OW25896   1.204   1.048   8.650 -0.9048  0.2927  0.3226
 7285SOL    HW125897   1.181   0.960   8.680  0.6307 -0.5145 -0.7576
 7285SOL    HW225898   1.173   1.051   8.559  1.6180 -0.2353 -0.6192
 7286SOL     OW25899   0.132   2.083   7.756  0.2948 -0.0534 -0.1929
 7286SOL    HW125900   0.178   2.115   7.833 -0.1268 -1.9903  0.9120
 7286SOL    HW225901   0.201   2.057   7.695  0.7343 -2.5196  1.2712
 7287SOL     OW25902   0.860   0.577   4.075 -0.5971  0.0591  0.2243
 7287SOL    HW125903   0.848   0.653   4.018  0.7134 -0.8266 -1.2918
 7287SOL    HW225904   0.889   0.507   4.017  2.0864 -0.5560  2.1297
 7288SOL     OW25905   4.187   4.435   0.395  0.2914  0.5689 -0.7052
 7288SOL    HW125906   4.224   4.350   0.372 -0.4996 -0.2161  0.7260
 7288SOL    HW225907   4.255   4.477   0.448 -0.4489 -0.5288  1.2283
 7289SOL     OW25908   7.976   1.149   2.287  0.2011  0.1058  0.7350
 7289SOL    HW125909   7.894   1.131   2.242  1.0845 -0.7382 -0.6320
 7289SOL    HW225910   8.025   1.066   2.282  1.8306  1.0615 -0.0775
 7290SOL     OW25911   4.731   0.133   4.472  0.4353 -0.1291 -0.6410
 7290SOL    HW125912   4.657   0.128   4.412  0.4011  1.0370 -0.7263
 7290SOL    HW225913   4.775   0.049   4.464 -1.6601 -1.4187  0.4540
 7291SOL     OW25914   7.423   4.673   1.509 -0.0149 -0.6015 -0.2471
 7291SOL    HW125915   7.488   4.626   1.560  0.4322  2.1096  1.8932
 7291SOL    HW225916   7.341   4.661   1.558 -0.2969 -0.6804 -0.7289
 7292SOL     OW25917   3.509   1.101   7.814  0.4229  0.0087 -0.2244
 7292SOL    HW125918   3.597   1.135   7.831  0.1671  0.2468  0.6954
 7292SOL    HW225919   3.454   1.141   7.881  0.0775 -2.0647  0.8258
 7293SOL     OW25920   1.641   0.645   3.420  0.1284 -0.5056  0.4341
 7293SOL    HW125921   1.546   0.653   3.431  0.0657  0.0285 -0.3807
 7293SOL    HW225922   1.655   0.652   3.326  1.1844  2.2590  0.6795
 7294SOL     OW25923   8.382   6.014   1.574 -0.5986  0.0102 -0.0375
 7294SOL    HW125924   8.429   6.087   1.615  0.9006  0.1401 -1.8472
 7294SOL    HW225925   8.419   5.936   1.615  0.2769  0.1684 -0.5018
 7295SOL     OW25926   9.116   2.678   9.317 -0.2174  0.1304 -0.2290
 7295SOL    HW125927   9.039   2.621   9.310 -0.2517  0.0989  0.3909
 7295SOL    HW225928   9.131   2.709   9.227 -1.2075  0.4830 -0.2817
 7296SOL     OW25929   7.163   2.461   6.872  0.5240 -0.3073 -0.2713
 7296SOL    HW125930   7.249   2.436   6.905  0.1777  0.5063  1.3466
 7296SOL    HW225931   7.140   2.539   6.922  0.3110  1.5823 -3.0691
 7297SOL     OW25932   1.206  10.252   7.396 -0.1673 -0.0606  0.0764
 7297SOL    HW125933   1.165  10.337   7.383 -0.9930 -0.5791 -0.8484
 7297SOL    HW225934   1.287  10.271   7.443  0.1699  1.3484 -1.0188
 7298SOL     OW25935   8.364   1.555   7.748  0.1966 -0.4946 -0.6508
 7298SOL    HW125936   8.456   1.550   7.776 -0.2950  0.7715  1.3584
 7298SOL    HW225937   8.328   1.469   7.770 -0.0042  0.2264  2.2562
 7299SOL     OW25938   6.821   5.012   3.830 -0.0043 -0.1503 -0.4342
 7299SOL    HW125939   6.818   4.922   3.798  0.7090 -1.0423  1.7934
 7299SOL    HW225940   6.732   5.045   3.818 -0.9438 -2.0096  0.8836
 7300SOL     OW25941   6.885   5.904   2.287  0.0597 -0.1164  0.2895
 7300SOL    HW125942   6.805   5.932   2.332  0.7310 -0.1916  1.5532
 7300SOL    HW225943   6.951   5.968   2.313  0.5723 -0.4272 -0.2258
 7301SOL     OW25944   4.020   6.727   1.476 -0.0459  0.0814 -0.7831
 7301SOL    HW125945   3.991   6.808   1.519 -1.5915 -1.4840  1.3263
 7301SOL    HW225946   4.103   6.750   1.435 -0.0208  2.5134  0.4464
 7302SOL     OW25947   9.560   7.562   3.432 -0.0270  0.4529 -0.1078
 7302SOL    HW125948   9.654   7.578   3.439  0.1057  0.1543 -1.1167
 7302SOL    HW225949   9.549   7.470   3.455  0.1424  0.0476 -1.5881
 7303SOL     OW25950   7.768   7.776   9.209 -0.1317  0.2676 -0.0471
 7303SOL    HW125951   7.861   7.798   9.222 -0.3852  0.3580  1.8212
 7303SOL    HW225952   7.757   7.779   9.114  2.0036 -0.6805 -0.4002
 7304SOL     OW25953   9.694   7.031   5.930  0.0975  0.7939  0.0390
 7304SOL    HW125954   9.623   7.002   5.873 -1.4439 -0.4680  2.4584
 7304SOL    HW225955   9.748   6.953   5.942  1.5207  1.5461 -1.1524
 7305SOL     OW25956   6.124   2.304   0.416 -0.4730  0.0893  0.1297
 7305SOL    HW125957   6.068   2.278   0.489 -0.3145  0.3296  0.3378
 7305SOL    HW225958   6.142   2.223   0.369  0.7170 -0.3403  1.2545
 7306SOL     OW25959   3.698   4.156   7.527  0.2892  0.2490 -0.5538
 7306SOL    HW125960   3.731   4.151   7.616 -0.3339 -1.3567 -0.3752
 7306SOL    HW225961   3.748   4.226   7.486  2.5805 -0.8680  0.2190
 7307SOL     OW25962   4.770   7.250   2.454  0.7974  0.1965  0.0089
 7307SOL    HW125963   4.842   7.307   2.426  0.1106  1.6402  1.0300
 7307SOL    HW225964   4.719   7.234   2.375  1.7818 -0.1719 -0.5632
 7308SOL     OW25965   6.898   2.638   3.292 -0.3728  0.5102  0.6769
 7308SOL    HW125966   6.990   2.615   3.278 -0.7624  0.2003 -1.6740
 7308SOL    HW225967   6.889   2.727   3.258 -1.2350 -0.0272 -0.5923
 7309SOL     OW25968   3.393   7.043  10.294 -0.4978 -0.8746  0.3633
 7309SOL    HW125969   3.384   7.044  10.199  1.0510 -0.3855  0.1865
 7309SOL    HW225970   3.315   7.089  10.326 -0.0330  0.7972 -0.7930
 7310SOL     OW25971   6.041   9.093   4.091 -0.0415 -0.0165  0.1177
 7310SOL    HW125972   6.036   9.179   4.133 -0.5139 -0.2492  0.5560
 7310SOL    HW225973   5.964   9.046   4.123 -0.1471 -0.3778 -0.6317
 7311SOL     OW25974   1.648   3.933   1.848  0.1736  0.1510  0.0123
 7311SOL    HW125975   1.641   3.944   1.753 -0.4340  0.6698  0.1088
 7311SOL    HW225976   1.615   3.845   1.864  0.6456 -0.0840 -0.2987
 7312SOL     OW25977  10.050   8.588   5.522  0.3461 -0.1381 -0.1960
 7312SOL    HW125978  10.132   8.635   5.503 -0.0286  1.1134  1.1330
 7312SOL    HW225979  10.057   8.507   5.471  1.0558  1.3061 -2.5488
 7313SOL     OW25980   9.065   9.919   7.136  0.3055 -0.2075  0.0839
 7313SOL    HW125981   9.085   9.854   7.068  0.6458 -0.6294  0.5742
 7313SOL    HW225982   9.047   9.866   7.214  0.6791  0.2933  0.5128
 7314SOL     OW25983   6.143   1.264   4.321  0.3844 -0.4159 -0.0713
 7314SOL    HW125984   6.077   1.221   4.267 -0.0717  0.4515 -0.2347
 7314SOL    HW225985   6.210   1.292   4.258  1.2462 -1.8530  0.1696
 7315SOL     OW25986   3.421   8.049   1.445  0.0220  0.1588 -0.6597
 7315SOL    HW125987   3.441   8.134   1.484  0.5261  0.0438 -0.6616
 7315SOL    HW225988   3.387   8.069   1.358 -2.0892  0.4819  0.1604
 7316SOL     OW25989   4.868   2.278   3.721  0.7007  0.1079 -0.5321
 7316SOL    HW125990   4.849   2.218   3.793 -0.6267 -0.0849 -1.0152
 7316SOL    HW225991   4.879   2.364   3.763  1.2973 -0.2385  0.0269
 7317SOL     OW25992   3.190   1.774   8.931 -0.5967  0.6501  0.3130
 7317SOL    HW125993   3.116   1.803   8.878 -0.9316 -0.6614  0.0114
 7317SOL    HW225994   3.179   1.679   8.937  0.5960  0.5318  0.9801
 7318SOL     OW25995   1.359   1.182   4.514  0.4664 -0.1282  0.1574
 7318SOL    HW125996   1.300   1.211   4.584  0.0862  0.4188 -0.3641
 7318SOL    HW225997   1.306   1.191   4.434  1.1693  0.1022 -0.2928
 7319SOL     OW25998   1.123   3.881   0.797 -0.0225  0.4050  0.3533
 7319SOL    HW125999   1.174   3.891   0.717  0.8603  0.5502  0.9180
 7319SOL    HW226000   1.131   3.789   0.820  0.3782  0.5230  0.6947
 7320SOL     OW26001   3.575   5.377   5.094 -0.5965 -0.0060  0.1245
 7320SOL    HW126002   3.549   5.423   5.014 -0.8383 -0.7955 -0.2563
 7320SOL    HW226003   3.568   5.444   5.162  0.0363  0.7946 -0.5693
 7321SOL     OW26004   5.258   0.511   4.290 -1.4152 -0.0762 -0.2131
 7321SOL    HW126005   5.285   0.461   4.367 -1.5361 -1.7786 -1.2242
 7321SOL    HW226006   5.302   0.596   4.300 -0.3065 -0.7560  1.0176
 7322SOL     OW26007   1.888   5.951   2.224  0.3985  0.4343 -0.1022
 7322SOL    HW126008   1.807   5.973   2.179 -0.0257 -0.5030  0.1925
 7322SOL    HW226009   1.939   6.032   2.222 -1.5333  1.8133  1.9035
 7323SOL     OW26010   1.415   8.405   8.156 -0.7013  0.7556  0.2381
 7323SOL    HW126011   1.488   8.425   8.214  0.4869 -0.1435 -0.8731
 7323SOL    HW226012   1.385   8.490   8.125  0.7246  1.0988 -0.2689
 7324SOL     OW26013   5.657   7.537   5.497 -0.3597 -0.4571 -0.5692
 7324SOL    HW126014   5.630   7.589   5.573  1.6546 -1.0223  0.6044
 7324SOL    HW226015   5.630   7.447   5.520 -0.7793 -0.4614 -1.0617
 7325SOL     OW26016   9.941   1.151  10.236  0.5746 -0.2375  0.5854
 7325SOL    HW126017  10.006   1.192  10.294  1.1839  1.2162 -1.0386
 7325SOL    HW226018   9.993   1.095  10.179  0.1863 -0.3856  0.3785
 7326SOL     OW26019   8.635   6.746   2.955  0.7874  0.4079 -0.2474
 7326SOL    HW126020   8.621   6.683   3.025  0.1005  0.6513 -0.1568
 7326SOL    HW226021   8.617   6.697   2.875 -0.9215  0.7584 -0.1300
 7327SOL     OW26022   7.444   5.848   1.022 -0.3105  0.1097  0.1309
 7327SOL    HW126023   7.485   5.913   1.079 -0.8857  0.0961  0.5709
 7327SOL    HW226024   7.509   5.832   0.954  0.1185  0.6261  0.4066
 7328SOL     OW26025   6.281   1.747   7.805  0.2580  0.1492 -0.2392
 7328SOL    HW126026   6.250   1.762   7.894  2.1629 -1.6835  0.7897
 7328SOL    HW226027   6.234   1.669   7.775  1.8823 -1.1132  0.3797
 7329SOL     OW26028   5.032   6.996   1.039 -0.2530 -0.3499 -0.3032
 7329SOL    HW126029   5.041   7.035   0.952  1.6799  1.0181  0.4258
 7329SOL    HW226030   4.968   6.926   1.027 -0.4372  0.1164 -2.7019
 7330SOL     OW26031   9.911   3.636   6.049 -0.2274 -0.2351 -0.0296
 7330SOL    HW126032   9.877   3.695   6.116 -1.5447 -0.3060 -0.6130
 7330SOL    HW226033   9.987   3.682   6.013 -0.4103  0.4772  0.4726
 7331SOL     OW26034   8.114   2.984   6.458 -0.3738 -0.2550 -0.2613
 7331SOL    HW126035   8.119   2.953   6.368 -0.2218 -1.9113  0.2869
 7331SOL    HW226036   8.204   3.006   6.481 -0.2886 -0.6265 -0.2434
 7332SOL     OW26037   9.817   3.639   0.968 -0.1619 -0.2527  0.1777
 7332SOL    HW126038   9.865   3.559   0.992  0.3349 -0.2576 -0.7963
 7332SOL    HW226039   9.882   3.709   0.978 -0.4252 -0.0425  0.4371
 7333SOL     OW26040   5.216   5.201   0.018  0.2994 -0.1707  0.2429
 7333SOL    HW126041   5.121   5.194   0.016  0.3617 -1.2288  0.2311
 7333SOL    HW226042   5.240   5.177   0.107  0.5991 -0.7534  0.0136
 7334SOL     OW26043   8.174   3.101   8.807 -0.3658  0.0590  0.3876
 7334SOL    HW126044   8.116   3.025   8.809  0.0670 -0.3087 -0.4397
 7334SOL    HW226045   8.181   3.128   8.898 -0.6060 -0.8405  0.6876
 7335SOL     OW26046  10.211   6.003   9.067  0.4727  0.1114  0.3321
 7335SOL    HW126047  10.212   6.081   9.123  1.8812  1.2476 -1.1552
 7335SOL    HW226048  10.304   5.983   9.054  0.1660 -2.9367  2.0765
 7336SOL     OW26049   0.557   2.412   3.618 -0.0782  0.2889  0.2095
 7336SOL    HW126050   0.588   2.408   3.527 -0.0041 -0.3588  0.2605
 7336SOL    HW226051   0.465   2.437   3.611 -0.1673 -0.1113 -0.0653
 7337SOL     OW26052   3.732   2.607   4.601 -0.2920 -0.8432  0.1557
 7337SOL    HW126053   3.717   2.513   4.610 -1.8750 -0.6581 -0.2504
 7337SOL    HW226054   3.710   2.643   4.687 -0.6834 -0.7332  0.0097
 7338SOL     OW26055   5.338   9.347   3.611 -0.1715  0.0092 -0.2658
 7338SOL    HW126056   5.249   9.367   3.582 -0.3624 -0.8767 -0.3257
 7338SOL    HW226057   5.329   9.327   3.704 -0.1940 -0.9479 -0.4594
 7339SOL     OW26058   9.169   5.358   3.574  0.2189 -0.1005 -0.1830
 7339SOL    HW126059   9.218   5.278   3.557 -0.1101 -0.1686 -0.8588
 7339SOL    HW226060   9.128   5.380   3.490 -1.6124 -0.5382  0.5315
 7340SOL     OW26061   3.329   5.152   7.797 -0.6227 -0.1638 -0.2151
 7340SOL    HW126062   3.401   5.215   7.799 -0.2264 -0.6255  0.6713
 7340SOL    HW226063   3.250   5.206   7.803 -0.3411  0.3247 -0.8255
 7341SOL     OW26064   1.800   0.405   8.261  0.4652  0.7415 -0.0227
 7341SOL    HW126065   1.812   0.460   8.184  2.1027  0.6584  0.1305
 7341SOL    HW226066   1.713   0.367   8.250  0.4762  1.0898 -1.5936
 7342SOL     OW26067   5.154   5.686   4.996 -0.0429  0.1379  0.3039
 7342SOL    HW126068   5.080   5.713   4.942 -0.7283 -1.3760  0.4442
 7342SOL    HW226069   5.217   5.649   4.933  0.8933  1.9813  0.1109
 7343SOL     OW26070   2.834   9.204   6.446 -0.6521 -0.6501 -0.3553
 7343SOL    HW126071   2.783   9.243   6.376 -1.1903  1.2149  1.0110
 7343SOL    HW226072   2.802   9.246   6.526 -0.4697 -3.1155  1.1142
 7344SOL     OW26073   4.259   5.575   3.281  0.4555  0.5425  0.4907
 7344SOL    HW126074   4.294   5.538   3.200  1.4720  0.4047  0.9757
 7344SOL    HW226075   4.334   5.615   3.324 -0.3292  1.8527  0.7206
 7345SOL     OW26076   5.798   1.007   3.814  0.4240  0.0137  0.3964
 7345SOL    HW126077   5.785   0.958   3.895 -0.0303  0.9746  0.9183
 7345SOL    HW226078   5.795   0.940   3.745 -3.1781 -0.3969  0.7974
 7346SOL     OW26079   7.569   5.314   1.187 -0.1054  0.0470  1.0522
 7346SOL    HW126080   7.576   5.407   1.207 -2.4423  0.1996  1.4090
 7346SOL    HW226081   7.476   5.300   1.168  0.3802 -1.9876 -0.2167
 7347SOL     OW26082   5.554   0.552   0.238  0.5335 -0.4946  0.5210
 7347SOL    HW126083   5.645   0.577   0.220  0.6917 -1.5151 -0.1735
 7347SOL    HW226084   5.506   0.578   0.160  0.4030 -0.8043  0.4964
 7348SOL     OW26085   2.853   9.586   7.730  0.1402  0.2076  0.0739
 7348SOL    HW126086   2.915   9.658   7.717  1.5160 -0.9086  0.1540
 7348SOL    HW226087   2.881   9.545   7.812 -0.5331 -0.4936 -0.0357
 7349SOL     OW26088   6.386   5.985   8.607 -0.2079  0.3879 -0.6675
 7349SOL    HW126089   6.478   5.985   8.579 -0.1741  0.2913 -0.5585
 7349SOL    HW226090   6.391   5.982   8.703 -0.3343 -3.0026 -0.6542
 7350SOL     OW26091   2.016   1.456   9.066 -0.2673  0.8896  0.0814
 7350SOL    HW126092   1.924   1.434   9.079 -0.2148  0.9603  0.5866
 7350SOL    HW226093   2.044   1.494   9.149  0.3175  0.5324  0.0561
 7351SOL     OW26094   2.235   0.917   9.595 -0.5067  0.3909  0.1256
 7351SOL    HW126095   2.273   1.004   9.586  0.8060 -0.2361 -0.6404
 7351SOL    HW226096   2.308   0.857   9.579 -1.3301 -0.8586  0.8613
 7352SOL     OW26097   8.528   5.482   3.707  0.2301  0.1542 -0.0917
 7352SOL    HW126098   8.552   5.440   3.624  0.6587  2.0910 -0.9924
 7352SOL    HW226099   8.540   5.575   3.691 -1.8785  0.7456  1.4517
 7353SOL     OW26100   1.965   6.763   2.839  0.0333 -0.1078 -0.8169
 7353SOL    HW126101   2.021   6.739   2.764  0.9904 -0.1979 -0.0902
 7353SOL    HW226102   1.977   6.692   2.902  1.9375  1.5364  0.8395
 7354SOL     OW26103   9.021   4.112   5.167  0.0157  0.5265 -0.7023
 7354SOL    HW126104   9.082   4.056   5.118  0.8808  1.1296 -0.3348
 7354SOL    HW226105   8.984   4.170   5.101 -0.3020  0.0375 -0.9595
 7355SOL     OW26106   6.080   7.649   1.044 -0.2346  0.1125 -0.1010
 7355SOL    HW126107   6.127   7.729   1.020 -0.8363  0.0512 -1.6364
 7355SOL    HW226108   6.068   7.603   0.961 -1.4151 -0.7361  0.5076
 7356SOL     OW26109   2.983   5.190   0.120 -0.0204  0.2812  0.3166
 7356SOL    HW126110   2.919   5.261   0.109  1.1660  1.2481 -0.6571
 7356SOL    HW226111   2.958   5.148   0.203 -2.6806 -0.2329 -0.6362
 7357SOL     OW26112   9.912   8.522   8.834 -0.6574  0.2663 -0.4211
 7357SOL    HW126113   9.996   8.515   8.881 -1.4630 -0.1599  1.0182
 7357SOL    HW226114   9.892   8.615   8.836 -0.4910  0.3008 -0.2581
 7358SOL     OW26115   8.020   0.235   0.475  0.4256 -0.1988  0.1691
 7358SOL    HW126116   7.990   0.145   0.462  0.5308  0.0149 -1.8506
 7358SOL    HW226117   7.941   0.288   0.471  0.5824 -0.0232 -0.8158
 7359SOL     OW26118   7.894   2.122   6.090  0.4101 -0.2765 -0.2696
 7359SOL    HW126119   7.905   2.211   6.124  2.2954  0.0930 -1.7053
 7359SOL    HW226120   7.896   2.066   6.168  0.2386  0.8395  0.5642
 7360SOL     OW26121   6.520   2.753   7.582 -0.1692 -0.0992  0.8631
 7360SOL    HW126122   6.607   2.722   7.609 -0.7494 -1.7489  0.9402
 7360SOL    HW226123   6.470   2.757   7.663 -0.4026  0.0192  0.7114
 7361SOL     OW26124   0.038   4.947   8.196  0.0734  0.8324 -0.0016
 7361SOL    HW126125   0.104   5.016   8.192  1.7265 -0.5983  1.0370
 7361SOL    HW226126   0.039   4.918   8.288 -0.0963 -0.9844 -0.5319
 7362SOL     OW26127   9.826   7.439   8.245  0.1298 -0.1972  0.7267
 7362SOL    HW126128   9.818   7.515   8.186  0.5514 -0.3841  0.4197
 7362SOL    HW226129   9.742   7.394   8.237  0.0249  0.0191  0.5954
 7363SOL     OW26130   9.054   9.902   8.537  0.0621  0.0214 -0.1683
 7363SOL    HW126131   9.121   9.869   8.597  0.7172  4.0605  1.6511
 7363SOL    HW226132   9.078   9.864   8.452  1.0607 -3.3113  1.4201
 7364SOL     OW26133   9.709  10.050   6.415  0.0929  0.0922 -0.1884
 7364SOL    HW126134   9.699  10.144   6.403 -1.9073  0.1819  1.5769
 7364SOL    HW226135   9.793  10.040   6.459  0.4335  1.0236 -0.6064
 7365SOL     OW26136   8.884   8.320   6.600  0.2253  0.1037 -0.3659
 7365SOL    HW126137   8.884   8.399   6.654 -1.2198  0.0367 -0.2261
 7365SOL    HW226138   8.866   8.352   6.511  2.0992  0.1614 -0.7661
 7366SOL     OW26139   0.930   6.850   5.781 -0.1625  0.5301  0.0521
 7366SOL    HW126140   1.017   6.812   5.777 -0.0715  0.8761 -2.1607
 7366SOL    HW226141   0.901   6.855   5.690 -0.9790  3.8884  0.3852
 7367SOL     OW26142   2.278   6.170   1.228  0.2356 -0.1983  0.3250
 7367SOL    HW126143   2.215   6.130   1.169 -2.1999  0.7473  2.0875
 7367SOL    HW226144   2.361   6.126   1.210 -0.6004 -0.6103 -3.0045
 7368SOL     OW26145   2.711   1.358   8.619 -0.4135 -0.1570  0.0268
 7368SOL    HW126146   2.762   1.408   8.555 -0.2924  0.3099  0.4899
 7368SOL    HW226147   2.633   1.411   8.635 -0.6480 -0.4749 -0.0494
 7369SOL     OW26148   1.904   9.792   3.802  0.1905  0.1215  0.2729
 7369SOL    HW126149   1.962   9.807   3.728  1.3619  1.2818  1.3812
 7369SOL    HW226150   1.877   9.879   3.830 -2.4158 -0.3817 -0.3983
 7370SOL     OW26151   0.034   0.126   8.734  0.1844  0.1737 -0.1785
 7370SOL    HW126152   0.051   0.053   8.793 -1.1990 -0.5728 -0.6597
 7370SOL    HW226153  -0.053   0.107   8.697  0.6983  0.9932 -1.8948
 7371SOL     OW26154   2.761   9.734   5.967  0.4239  0.5169  0.4186
 7371SOL    HW126155   2.803   9.691   5.893  1.2299  0.8307  0.6805
 7371SOL    HW226156   2.672   9.753   5.936  0.0056 -1.3929  0.3360
 7372SOL     OW26157   1.475   3.840   0.146  0.6561  0.2209  0.8656
 7372SOL    HW126158   1.514   3.781   0.081  1.9255 -0.0373  1.8241
 7372SOL    HW226159   1.543   3.851   0.213 -0.7701  0.0834  2.4090
 7373SOL     OW26160   4.735   7.136   5.515  0.2218  0.0148  0.2098
 7373SOL    HW126161   4.680   7.059   5.529  0.0594 -0.0557 -0.7467
 7373SOL    HW226162   4.701   7.175   5.435 -0.1456  1.4922  1.0635
 7374SOL     OW26163   3.253  10.056   8.428  0.3642 -0.0384 -0.0519
 7374SOL    HW126164   3.278  10.019   8.513  0.3543 -2.9793 -1.1957
 7374SOL    HW226165   3.193  10.127   8.449 -2.6910 -3.0245  2.4447
 7375SOL     OW26166   1.684   0.793   3.182  0.1791  0.2883 -0.0108
 7375SOL    HW126167   1.706   0.867   3.239  0.9296  0.7874 -0.9235
 7375SOL    HW226168   1.695   0.827   3.093  1.2212 -1.1223 -0.4522
 7376SOL     OW26169   0.657   6.477   1.818 -0.0072  0.0719 -0.2210
 7376SOL    HW126170   0.697   6.500   1.903  2.1278 -1.9364 -0.5754
 7376SOL    HW226171   0.674   6.383   1.809 -0.3345  0.2043 -2.7974
 7377SOL     OW26172   8.250   2.961   4.054 -0.0516  0.2665 -0.0456
 7377SOL    HW126173   8.233   3.036   4.110 -0.8830  0.1453 -0.1143
 7377SOL    HW226174   8.204   2.888   4.096  0.8940 -0.2573  0.1216
 7378SOL     OW26175   0.804   4.326   3.763  0.2304  0.1445  0.0843
 7378SOL    HW126176   0.719   4.282   3.769  0.2269  0.2972  1.7239
 7378SOL    HW226177   0.868   4.255   3.764  0.1408  0.0629 -0.0672
 7379SOL     OW26178   8.816   2.103   1.867  0.2156  0.0236 -0.2978
 7379SOL    HW126179   8.821   2.191   1.830 -1.2166 -0.8182 -2.7521
 7379SOL    HW226180   8.856   2.047   1.800 -2.9144 -1.6627 -0.9539
 7380SOL     OW26181   5.888   5.834   9.457 -0.0090 -0.1838 -0.0390
 7380SOL    HW126182   5.906   5.833   9.363 -0.1278  0.0174 -0.0648
 7380SOL    HW226183   5.850   5.748   9.475 -1.1230  0.2028 -0.4092
 7381SOL     OW26184   6.022   4.250   6.785  0.3622 -0.0956  0.0961
 7381SOL    HW126185   5.988   4.168   6.748 -0.1463  0.8993 -1.7419
 7381SOL    HW226186   5.943   4.302   6.802  0.4545 -0.8211  3.6365
 7382SOL     OW26187   2.838   3.127   6.052 -0.1602  0.1188 -0.3075
 7382SOL    HW126188   2.901   3.174   5.997 -0.5564  1.7944  0.5764
 7382SOL    HW226189   2.772   3.095   5.991  0.8137 -0.4699 -1.0865
 7383SOL     OW26190   7.948   9.314   3.523  0.0520 -0.2314  0.1982
 7383SOL    HW126191   7.988   9.231   3.552  1.4987  0.5064  0.4279
 7383SOL    HW226192   7.914   9.295   3.436 -1.3539 -1.5802  1.0065
 7384SOL     OW26193   8.680   8.541   4.335  0.3197 -0.4536  0.1054
 7384SOL    HW126194   8.598   8.495   4.315 -0.2187  0.1677  0.8311
 7384SOL    HW226195   8.745   8.471   4.343 -0.0303 -0.9185 -0.9510
 7385SOL     OW26196   2.750   5.860   4.157 -0.2039 -0.7543 -0.4579
 7385SOL    HW126197   2.822   5.872   4.219 -2.1197 -0.8410  1.9680
 7385SOL    HW226198   2.729   5.949   4.127  0.8003 -0.7148 -1.0517
 7386SOL     OW26199   1.168   6.854   0.815 -0.1438  0.1711  0.0478
 7386SOL    HW126200   1.142   6.946   0.828 -1.2556  0.0684 -1.2426
 7386SOL    HW226201   1.096   6.803   0.852  1.5288 -0.3145  2.9999
 7387SOL     OW26202   9.005   6.082   3.447 -0.4885  0.4867  0.5698
 7387SOL    HW126203   8.939   6.112   3.509  0.1814  0.1398  1.4740
 7387SOL    HW226204   9.040   6.002   3.486  0.7876  0.9140  0.3514
 7388SOL     OW26205   9.066   3.897   9.403 -0.4092  0.1284  0.0186
 7388SOL    HW126206   9.141   3.955   9.413 -1.3786  1.8061 -1.7365
 7388SOL    HW226207   9.096   3.829   9.343 -0.1030  0.4767 -0.2244
 7389SOL     OW26208   2.185   4.671   2.854  0.5749 -0.2024  0.4676
 7389SOL    HW126209   2.209   4.594   2.803  0.6713  0.5191 -0.6225
 7389SOL    HW226210   2.090   4.663   2.868  0.4618 -0.1712 -0.2553
 7390SOL     OW26211   7.555   5.236   2.184 -0.5166 -0.5303  0.4820
 7390SOL    HW126212   7.613   5.170   2.223 -0.0184 -0.3424  0.0717
 7390SOL    HW226213   7.536   5.297   2.255 -0.0744 -0.5035  0.5822
 7391SOL     OW26214   7.682   4.677   9.035  0.0863 -0.4852 -0.3694
 7391SOL    HW126215   7.728   4.757   9.011 -0.2605  0.6383  2.3856
 7391SOL    HW226216   7.626   4.658   8.960  3.0713 -0.4989 -2.7904
 7392SOL     OW26217   7.536   0.175   0.827  0.3108  0.2003  0.1282
 7392SOL    HW126218   7.627   0.192   0.854  1.3871 -0.2457 -2.8364
 7392SOL    HW226219   7.544   0.108   0.759 -2.2973  0.0184 -0.0801
 7393SOL     OW26220   2.186  10.296   5.618 -0.3539 -0.1992 -0.4665
 7393SOL    HW126221   2.214  10.283   5.527  1.6159 -0.4156  0.1311
 7393SOL    HW226222   2.092  10.282   5.616 -0.7622  2.0323 -2.9137
 7394SOL     OW26223   6.569   0.410   0.662  0.4827 -0.6189 -0.2236
 7394SOL    HW126224   6.629   0.337   0.675  0.4655 -0.3056  1.9620
 7394SOL    HW226225   6.521   0.418   0.745 -1.9546 -0.2765 -1.5579
 7395SOL     OW26226   6.159   7.266   9.704  0.7187  0.1226  0.3316
 7395SOL    HW126227   6.153   7.362   9.698 -0.1023 -0.0198 -2.5556
 7395SOL    HW226228   6.094   7.242   9.770 -0.9781  1.4248 -0.7854
 7396SOL     OW26229   1.509   5.242   4.983 -0.2566  0.1130 -0.4636
 7396SOL    HW126230   1.471   5.305   4.922 -2.2854  0.4884  1.0714
 7396SOL    HW226231   1.477   5.157   4.952  2.2960 -0.2680 -2.3993
 7397SOL     OW26232   4.263   3.076   7.803 -0.0514  0.2739  0.9201
 7397SOL    HW126233   4.190   3.135   7.785 -1.0348 -1.5359 -1.7574
 7397SOL    HW226234   4.320   3.084   7.727 -0.1491 -2.0046  0.5190
 7398SOL     OW26235   6.332   4.120  10.161 -0.1912  0.2238 -0.2045
 7398SOL    HW126236   6.354   4.046  10.218 -0.1107 -0.1906 -0.7645
 7398SOL    HW226237   6.373   4.196  10.201 -1.6211  0.2698  1.2870
 7399SOL     OW26238   5.829   6.988   9.040 -0.1941  0.2765 -0.2910
 7399SOL    HW126239   5.895   7.027   9.097  0.0440  1.1027 -1.1229
 7399SOL    HW226240   5.834   7.038   8.959  0.0105 -1.3544 -1.3469
 7400SOL     OW26241   0.012   5.357   6.696  0.7551 -0.2902 -0.5383
 7400SOL    HW126242   0.020   5.288   6.762  0.0718 -0.3604 -0.5233
 7400SOL    HW226243  -0.037   5.316   6.624 -2.8108  1.1062  0.8816
 7401SOL     OW26244   4.086   6.368   1.356 -0.0572 -0.4229  0.3596
 7401SOL    HW126245   4.096   6.315   1.435 -0.1804  0.8935  1.2770
 7401SOL    HW226246   4.059   6.454   1.387 -2.6150 -0.5303 -1.2681
 7402SOL     OW26247   9.572   5.142   4.398  0.4613  0.5350 -0.7172
 7402SOL    HW126248   9.493   5.195   4.391 -0.1689 -0.4924 -1.8050
 7402SOL    HW226249   9.604   5.157   4.487 -2.0566 -0.5364  0.4639
 7403SOL     OW26250   6.911   0.402   8.067  1.1261  0.2478 -0.0983
 7403SOL    HW126251   6.968   0.473   8.036  0.2533  1.5195  1.1053
 7403SOL    HW226252   6.970   0.346   8.117  1.2196  2.1990  2.1848
 7404SOL     OW26253   3.452   6.207   9.602  0.2307  0.3861 -0.1107
 7404SOL    HW126254   3.364   6.169   9.607 -0.3515  1.7894  1.2796
 7404SOL    HW226255   3.510   6.135   9.625 -0.6666 -0.2352  0.2713
 7405SOL     OW26256   1.555   3.819   2.720 -0.8387  0.0999  0.2363
 7405SOL    HW126257   1.543   3.724   2.712 -1.4799  0.2824 -1.1976
 7405SOL    HW226258   1.572   3.849   2.631  0.1623  1.2437  0.7871
 7406SOL     OW26259   1.121   7.296   1.841 -0.8953  0.4496 -0.2682
 7406SOL    HW126260   1.050   7.359   1.847  0.1626  1.5570  1.6104
 7406SOL    HW226261   1.187   7.338   1.785 -0.1506  1.1282  1.0581
 7407SOL     OW26262   0.005   9.890   3.381  0.1715  0.1719 -0.1432
 7407SOL    HW126263   0.100   9.896   3.376  0.4678 -1.7302  1.6693
 7407SOL    HW226264  -0.024   9.874   3.291  1.5138  0.9116 -0.7349
 7408SOL     OW26265   2.899   0.883   3.469 -0.2525  0.3099  0.3662
 7408SOL    HW126266   2.870   0.962   3.425  0.6046  0.1251 -0.5786
 7408SOL    HW226267   2.989   0.902   3.496  0.1710 -0.5359 -0.3987
 7409SOL     OW26268   7.135   0.348  10.137  0.5888  0.2689 -0.3793
 7409SOL    HW126269   7.158   0.379  10.224 -1.0994 -0.1904  0.2741
 7409SOL    HW226270   7.186   0.403  10.077  1.1633  1.1231  0.8555
 7410SOL     OW26271   7.937   9.881   3.818 -0.0840  0.1535  0.7577
 7410SOL    HW126272   7.955   9.787   3.815 -0.1115  0.1528  0.6397
 7410SOL    HW226273   7.925   9.907   3.727  0.7181  0.4285  0.7201
 7411SOL     OW26274   2.095   2.340   0.942  0.0567 -0.0426 -0.3091
 7411SOL    HW126275   2.161   2.408   0.951  0.5703 -0.5680 -0.0223
 7411SOL    HW226276   2.032   2.375   0.880 -0.3347  1.1970  0.7428
 7412SOL     OW26277   7.589   7.371   2.952 -0.0701 -0.2207 -0.4959
 7412SOL    HW126278   7.548   7.451   2.983 -0.9514 -0.3243 -1.3529
 7412SOL    HW226279   7.524   7.303   2.969  0.9458 -0.8861  0.8724
 7413SOL     OW26280   1.573   5.577   0.345 -0.4540 -0.1912  0.6600
 7413SOL    HW126281   1.480   5.560   0.360 -1.5408  1.6515 -2.7932
 7413SOL    HW226282   1.582   5.672   0.349  0.8995 -0.2223 -0.6564
 7414SOL     OW26283   0.359   7.289   7.021 -0.0610  0.2710 -0.3791
 7414SOL    HW126284   0.373   7.229   7.094 -1.1635 -0.0020 -0.3652
 7414SOL    HW226285   0.361   7.376   7.061 -0.3727  0.1358 -0.0574
 7415SOL     OW26286   5.790   8.369   8.893  0.4062 -0.1433 -0.2077
 7415SOL    HW126287   5.839   8.355   8.812  1.1413  1.1663 -0.0226
 7415SOL    HW226288   5.698   8.374   8.865  0.7337  1.2501 -1.1218
 7416SOL     OW26289   6.614   5.669   3.422 -0.0528  0.0820  0.1159
 7416SOL    HW126290   6.628   5.741   3.484 -0.4163  0.4304 -0.1990
 7416SOL    HW226291   6.641   5.704   3.338  0.9051 -0.5531  0.1450
 7417SOL     OW26292   8.836   4.775   6.274  0.4215  0.6473 -0.3047
 7417SOL    HW126293   8.895   4.828   6.327  0.2433 -0.2383  0.8157
 7417SOL    HW226294   8.858   4.798   6.184  2.0725  0.7815  0.0932
 7418SOL     OW26295   1.777   8.070   9.269  0.5903 -0.4079 -0.2467
 7418SOL    HW126296   1.834   8.037   9.338 -2.2034 -1.0275  1.9536
 7418SOL    HW226297   1.729   7.994   9.238  0.4141  0.1927 -1.5140
 7419SOL     OW26298   9.825   3.717   3.341 -0.0618  0.3369 -0.1997
 7419SOL    HW126299   9.823   3.653   3.269 -1.5112  0.9862 -0.7731
 7419SOL    HW226300   9.767   3.679   3.408  0.4691  0.2300  0.2114
 7420SOL     OW26301   9.725   7.408   4.137  0.2199 -0.0598 -0.0508
 7420SOL    HW126302   9.684   7.480   4.184  0.1169 -0.6926  0.8434
 7420SOL    HW226303   9.811   7.397   4.177  0.0992 -0.6593  0.0598
 7421SOL     OW26304   3.718   2.460   5.391 -0.1243 -0.2140 -0.3316
 7421SOL    HW126305   3.702   2.463   5.297 -0.9946 -3.9816 -0.4813
 7421SOL    HW226306   3.754   2.372   5.406 -1.2308 -0.2362  2.9825
 7422SOL     OW26307   3.839   2.076   4.430 -0.2499 -0.3923 -0.5890
 7422SOL    HW126308   3.849   2.167   4.458 -0.6890 -0.5108 -0.0315
 7422SOL    HW226309   3.745   2.059   4.437 -0.2234 -0.7678 -1.0817
 7423SOL     OW26310   6.138   2.422   6.757 -0.5552 -0.3108  0.0741
 7423SOL    HW126311   6.169   2.333   6.741  1.7432  0.1235  1.5836
 7423SOL    HW226312   6.193   2.477   6.702  0.6310  0.4006  1.8702
 7424SOL     OW26313   4.250   6.138   7.066  0.1689  0.2339 -0.0022
 7424SOL    HW126314   4.292   6.155   6.982 -0.1382 -0.2080 -0.2485
 7424SOL    HW226315   4.260   6.220   7.115  1.9369 -0.0652  0.2226
 7425SOL     OW26316   5.576   7.156   8.949 -0.2386 -0.1807  0.4568
 7425SOL    HW126317   5.573   7.240   8.903  0.9616  0.6073  1.7448
 7425SOL    HW226318   5.667   7.127   8.941 -0.2783 -0.5902  1.3400
 7426SOL     OW26319   6.928   8.466   8.376 -0.6182  0.0191  0.4616
 7426SOL    HW126320   6.856   8.528   8.384  0.6843  1.5473  0.7842
 7426SOL    HW226321   6.991   8.509   8.318 -1.0100 -2.3452 -1.8918
 7427SOL     OW26322   8.100   5.168   8.499 -0.3814  0.1661  0.0955
 7427SOL    HW126323   8.060   5.208   8.576 -0.9977 -0.2298 -0.0141
 7427SOL    HW226324   8.137   5.085   8.532 -0.4629  0.0947  0.0058
 7428SOL     OW26325   3.532   9.424   3.682  1.0065  0.4827  0.4641
 7428SOL    HW126326   3.535   9.492   3.749  0.0216  2.2965 -1.2120
 7428SOL    HW226327   3.441   9.423   3.652  1.3930 -0.3010 -0.7699
 7429SOL     OW26328   6.730   8.592   2.806  0.2760 -0.1786  0.1836
 7429SOL    HW126329   6.677   8.556   2.735  0.0479 -0.6213  0.5790
 7429SOL    HW226330   6.710   8.538   2.882 -1.0234  1.5244  1.1243
 7430SOL     OW26331   0.276   2.468   1.752 -0.3531 -0.0122  0.8045
 7430SOL    HW126332   0.258   2.387   1.705  1.0279  1.1651 -2.0162
 7430SOL    HW226333   0.369   2.463   1.774  0.7126  2.0741 -2.4950
 7431SOL     OW26334   5.504   2.314   8.689  0.1095  0.2294 -0.1055
 7431SOL    HW126335   5.471   2.305   8.600 -1.2848  0.2500  0.3949
 7431SOL    HW226336   5.442   2.372   8.732  1.1568  0.7987  0.6953
 7432SOL     OW26337   6.058   6.656   6.803  0.2535 -0.1944  0.7207
 7432SOL    HW126338   6.077   6.743   6.839  1.1447  0.8528 -2.0361
 7432SOL    HW226339   6.060   6.598   6.879  0.5757  2.0341  2.5216
 7433SOL     OW26340   1.297  10.268   6.418  0.3044 -0.0672 -0.7222
 7433SOL    HW126341   1.241  10.280   6.495  1.5422  1.3269  0.0241
 7433SOL    HW226342   1.363  10.337   6.426  2.1407 -1.6316 -1.5634
 7434SOL     OW26343   7.363  10.133   6.994  0.6462  0.2469  0.2364
 7434SOL    HW126344   7.334  10.077   6.922  0.0864  0.0918  0.5735
 7434SOL    HW226345   7.457  10.119   6.999  0.9580  1.4142 -1.4443
 7435SOL     OW26346   5.319   7.116   8.940 -0.0356 -0.0350  0.3156
 7435SOL    HW126347   5.413   7.104   8.931  0.1136  0.0832  1.5153
 7435SOL    HW226348   5.294   7.056   9.011 -0.9452 -0.3839 -0.2699
 7436SOL     OW26349   3.412   2.371   1.386  0.1655  0.6821  0.6519
 7436SOL    HW126350   3.362   2.338   1.461 -0.9131  1.4149  0.2763
 7436SOL    HW226351   3.420   2.296   1.327 -0.1179  0.4478  0.9070
 7437SOL     OW26352   8.670   0.980   8.084 -0.1498  0.0579  0.0547
 7437SOL    HW126353   8.705   0.921   8.151 -2.6961 -0.0330  1.4302
 7437SOL    HW226354   8.599   0.930   8.043 -1.2528  1.5438  0.0786
 7438SOL     OW26355   1.910   3.088   9.064 -0.2689  0.0645  0.4217
 7438SOL    HW126356   1.903   2.996   9.038  0.8540  0.5067 -1.7380
 7438SOL    HW226357   1.991   3.092   9.115 -0.1809 -0.1163  0.3016
 7439SOL     OW26358   5.157   8.532   3.709  0.5730  0.3777 -0.1045
 7439SOL    HW126359   5.131   8.617   3.746 -0.1270 -0.3578  1.1578
 7439SOL    HW226360   5.084   8.506   3.653  0.7009  0.5077 -0.3336
 7440SOL     OW26361   2.407   4.493   4.818 -0.0641  0.1445 -0.1489
 7440SOL    HW126362   2.475   4.458   4.761  0.0594 -0.9083  0.6253
 7440SOL    HW226363   2.452   4.511   4.901 -0.8837 -1.4119  0.6660
 7441SOL     OW26364   9.403   6.485   2.458 -0.2573  0.6925 -0.2030
 7441SOL    HW126365   9.375   6.564   2.411  1.3440 -0.9161 -4.3233
 7441SOL    HW226366   9.355   6.414   2.416 -0.0878 -0.7847  1.9501
 7442SOL     OW26367   6.392   8.346   3.667 -0.1002  0.0566  0.4785
 7442SOL    HW126368   6.449   8.386   3.601  0.5147 -0.5776  0.6153
 7442SOL    HW226369   6.303   8.361   3.635  0.1492  0.8068  0.1173
 7443SOL     OW26370   4.578   6.566   7.811 -0.3364 -0.0677 -0.1094
 7443SOL    HW126371   4.531   6.557   7.894  1.3144 -0.6430  0.8005
 7443SOL    HW226372   4.660   6.609   7.834  0.1436 -0.2120 -1.4520
 7444SOL     OW26373   1.476   4.434   4.372  0.5838 -0.0075 -0.3677
 7444SOL    HW126374   1.488   4.416   4.465  1.5182  2.1242 -0.0117
 7444SOL    HW226375   1.382   4.448   4.361  0.6163  1.0904  0.5682
 7445SOL     OW26376   6.859   7.118   6.401  0.4694  0.2702  0.4166
 7445SOL    HW126377   6.941   7.167   6.391  1.4488 -1.5248 -1.1235
 7445SOL    HW226378   6.808   7.142   6.324  0.2024  0.2020  0.5728
 7446SOL     OW26379   9.562   4.192   9.696 -0.1579  0.1934 -0.3434
 7446SOL    HW126380   9.523   4.105   9.693 -1.3062  0.7047 -1.6378
 7446SOL    HW226381   9.551   4.226   9.607  0.4078  1.5991  0.0963
 7447SOL     OW26382   1.055   8.452   9.387  0.3464 -0.3878  0.2130
 7447SOL    HW126383   1.122   8.416   9.329  1.1476 -4.3158  3.1448
 7447SOL    HW226384   1.096   8.529   9.426  1.1297  0.2071 -1.6620
 7448SOL     OW26385   3.460   7.212   5.590  0.3865  0.1330 -0.3700
 7448SOL    HW126386   3.489   7.290   5.543 -0.3927 -0.5683 -2.1222
 7448SOL    HW226387   3.410   7.245   5.664  0.1602  1.3082 -1.0253
 7449SOL     OW26388   5.387  10.264   1.292  0.5664  0.5509 -0.5077
 7449SOL    HW126389   5.381  10.241   1.385 -0.1135  1.2527 -0.3678
 7449SOL    HW226390   5.424  10.186   1.251 -0.0581 -0.1368  0.1990
 7450SOL     OW26391   6.279   2.098   0.853  0.9416  0.0681  0.5212
 7450SOL    HW126392   6.360   2.146   0.833  2.0901 -1.2873  1.6754
 7450SOL    HW226393   6.266   2.042   0.776  0.0472  1.5478 -0.4672
 7451SOL     OW26394   8.656   6.269   3.068 -0.4728  0.7583  0.0908
 7451SOL    HW126395   8.667   6.202   3.001 -0.3420  2.8992 -2.1480
 7451SOL    HW226396   8.723   6.249   3.133  0.6406 -0.3476 -1.3352
 7452SOL     OW26397   5.406   4.940   1.031  0.0780 -0.7228  0.0069
 7452SOL    HW126398   5.499   4.923   1.015  0.7561 -0.0861  2.6331
 7452SOL    HW226399   5.402   5.034   1.049 -0.9174 -0.8728  0.6593
 7453SOL     OW26400   3.334   0.127   6.435  0.0486  0.2557 -0.1689
 7453SOL    HW126401   3.387   0.124   6.515  0.7666  0.7039 -0.6214
 7453SOL    HW226402   3.254   0.172   6.461  0.6018  1.0992  0.1225
 7454SOL     OW26403   4.711   9.326   9.509 -0.5570  0.1651 -0.6032
 7454SOL    HW126404   4.765   9.329   9.430 -0.2872  0.2372 -0.4181
 7454SOL    HW226405   4.711   9.234   9.534  0.7459  0.3668  0.2513
 7455SOL     OW26406   7.274   6.876   0.366  0.4656 -0.2762 -0.2824
 7455SOL    HW126407   7.276   6.853   0.273  2.3162 -1.7674  0.0775
 7455SOL    HW226408   7.361   6.855   0.398 -0.0991  0.3295  1.7910
 7456SOL     OW26409   6.690   2.279   3.156 -0.2891  0.0081 -0.3225
 7456SOL    HW126410   6.651   2.193   3.173  0.5587  0.0755  2.4588
 7456SOL    HW226411   6.784   2.263   3.156 -0.1544  0.7709 -0.9801
 7457SOL     OW26412   3.943   0.888   4.280 -0.4818 -0.0760  0.0481
 7457SOL    HW126413   4.000   0.842   4.218 -2.2590 -0.2356 -1.5611
 7457SOL    HW226414   3.856   0.886   4.239 -1.6499  0.2530  2.3424
 7458SOL     OW26415   9.984   9.871  10.099 -0.1808  0.2364  0.2328
 7458SOL    HW126416   9.984   9.785  10.141 -3.3191  0.2837  0.5890
 7458SOL    HW226417  10.062   9.914  10.133 -0.8291 -0.9110  3.5589
 7459SOL     OW26418   1.742   1.352   0.350  0.4131  0.1942  0.0687
 7459SOL    HW126419   1.662   1.342   0.402 -0.4999  2.6060 -0.7422
 7459SOL    HW226420   1.806   1.296   0.394 -0.3695  1.8163  3.6641
 7460SOL     OW26421   9.230   5.522   9.649  0.4822 -0.2536 -0.2245
 7460SOL    HW126422   9.263   5.501   9.561  1.8083 -0.6862  0.3589
 7460SOL    HW226423   9.294   5.484   9.709 -0.7035 -0.4737  0.9606
 7461SOL     OW26424   7.645   6.435   7.394  0.0342 -0.1195  0.0742
 7461SOL    HW126425   7.676   6.419   7.305 -2.0760  1.1389 -0.9416
 7461SOL    HW226426   7.655   6.529   7.407  0.1084 -0.2566  1.1083
 7462SOL     OW26427   3.524   3.427  10.048 -0.5582 -0.5382  0.7538
 7462SOL    HW126428   3.526   3.399   9.956  0.4368  1.2987  0.1714
 7462SOL    HW226429   3.437   3.402  10.078 -0.4253 -2.4089 -0.2599
 7463SOL     OW26430   4.410   8.320   1.839 -0.5613  0.3884 -0.0908
 7463SOL    HW126431   4.397   8.293   1.930 -1.0122 -0.2046 -0.3235
 7463SOL    HW226432   4.327   8.360   1.813 -0.9879 -0.8442 -0.7054
 7464SOL     OW26433   5.711   0.113   3.872 -0.4441  0.2721  0.2888
 7464SOL    HW126434   5.744   0.106   3.782 -1.9158 -1.1817 -0.2014
 7464SOL    HW226435   5.698   0.206   3.886 -0.7224  0.4934 -1.2367
 7465SOL     OW26436   4.231   6.932   7.761 -0.4698 -0.4522 -0.1115
 7465SOL    HW126437   4.157   6.991   7.748  0.2258  0.1434 -1.7119
 7465SOL    HW226438   4.198   6.864   7.819 -2.1331  0.0401 -0.4307
 7466SOL     OW26439   3.684   2.618   1.219  0.4127 -0.0416  0.4574
 7466SOL    HW126440   3.767   2.571   1.214 -0.2899 -1.4027  1.0309
 7466SOL    HW226441   3.685   2.661   1.305  0.2353 -0.6450  0.7661
 7467SOL     OW26442   9.247   2.078   1.022 -0.4261 -0.4330  0.1137
 7467SOL    HW126443   9.207   2.163   1.043  1.5510  0.4261  0.6111
 7467SOL    HW226444   9.306   2.097   0.949  0.2945 -1.2858  0.4599
 7468SOL     OW26445   1.311   9.368  10.225  0.3588 -0.0794 -0.3081
 7468SOL    HW126446   1.394   9.352  10.270  0.9804 -1.9087 -1.9276
 7468SOL    HW226447   1.335   9.416  10.146 -0.4594  1.4406  0.3414
 7469SOL     OW26448   4.046   7.188   0.285 -0.1825 -0.3059 -0.2104
 7469SOL    HW126449   4.007   7.174   0.199 -2.8066 -2.8223  1.1861
 7469SOL    HW226450   3.988   7.251   0.327  0.5417  0.2058  0.0270
 7470SOL     OW26451   5.834   2.379   0.114 -0.6633 -0.2044  0.0744
 7470SOL    HW126452   5.822   2.302   0.170  1.1103 -0.6992 -0.1805
 7470SOL    HW226453   5.895   2.435   0.161  0.2466 -0.2632 -0.9861
 7471SOL     OW26454   9.717   4.991   3.120 -0.0605  0.2526 -0.1270
 7471SOL    HW126455   9.768   4.934   3.177  0.0634 -0.4720 -0.9392
 7471SOL    HW226456   9.773   5.006   3.044 -0.2973  1.0464 -0.1564
 7472SOL     OW26457   8.050   7.338   3.456  0.9032  0.3919 -0.8248
 7472SOL    HW126458   7.968   7.295   3.433 -0.0097  1.1278  0.8876
 7472SOL    HW226459   8.099   7.342   3.374 -0.7008 -0.1973 -1.8499
 7473SOL     OW26460   8.834   8.212   9.109  0.3100 -0.0726  0.0533
 7473SOL    HW126461   8.858   8.140   9.166  2.4471 -1.6441 -2.5901
 7473SOL    HW226462   8.813   8.284   9.168 -0.5008 -2.3745  2.7931
 7474SOL     OW26463   3.501   5.981   0.113  0.2950  0.1489  0.0782
 7474SOL    HW126464   3.549   5.900   0.094  2.3679  1.4934 -0.7161
 7474SOL    HW226465   3.489   5.979   0.208  1.6772 -0.3779  0.2612
 7475SOL     OW26466   7.788   9.089   4.548 -0.1733 -0.5405  0.2558
 7475SOL    HW126467   7.882   9.081   4.566  0.2592  2.8613  0.1632
 7475SOL    HW226468   7.769   9.016   4.489  2.7184 -0.6189 -0.7366
 7476SOL     OW26469   5.974   9.889   1.833 -0.2110 -0.2320  0.3867
 7476SOL    HW126470   6.053   9.935   1.860 -0.0305 -1.0294  1.2499
 7476SOL    HW226471   5.973   9.897   1.737  1.3076 -0.8412  0.2942
 7477SOL     OW26472   1.640   9.071   0.182  0.7157 -0.5255  0.1421
 7477SOL    HW126473   1.699   9.146   0.192 -0.0210 -0.0319  0.9420
 7477SOL    HW226474   1.663   9.013   0.255 -0.0412 -0.1455  0.6940
 7478SOL     OW26475   1.902   6.135   6.266 -0.1694 -0.4895  0.0248
 7478SOL    HW126476   1.965   6.165   6.200 -1.7752  1.1331 -0.8681
 7478SOL    HW226477   1.956   6.107   6.340  1.6391 -0.9934 -1.4130
 7479SOL     OW26478   1.225   3.059   3.070 -0.0709  0.3709  0.2247
 7479SOL    HW126479   1.306   3.010   3.086 -1.1940 -1.7853 -0.1998
 7479SOL    HW226480   1.171   3.043   3.148 -0.2000  1.5684  0.3934
 7480SOL     OW26481   2.527   5.963   9.533  0.0442  0.5299 -0.3428
 7480SOL    HW126482   2.461   6.017   9.576  0.1399  1.7673 -1.6605
 7480SOL    HW226483   2.489   5.944   9.447  0.4680 -0.6374 -0.2835
 7481SOL     OW26484   7.374   5.020   7.272  0.1538  0.2716 -0.1789
 7481SOL    HW126485   7.435   5.025   7.345  0.5342  1.3601 -0.5512
 7481SOL    HW226486   7.420   4.972   7.204  0.4857  0.8155 -0.3437
 7482SOL     OW26487   4.559   9.763   5.585  0.1321  0.3537  0.1653
 7482SOL    HW126488   4.627   9.738   5.647  0.3681 -1.9444 -0.9340
 7482SOL    HW226489   4.602   9.762   5.500 -1.2906 -1.7071 -0.6236
 7483SOL     OW26490   3.343   6.866   5.142 -0.3963 -0.5540  0.3415
 7483SOL    HW126491   3.281   6.938   5.157 -1.1093 -0.9057 -0.7898
 7483SOL    HW226492   3.344   6.817   5.224 -0.1995  0.5110  0.9940
 7484SOL     OW26493   1.924   6.103   4.064 -0.1926 -0.5811 -0.3919
 7484SOL    HW126494   1.975   6.166   4.115  0.1992 -0.7577 -0.5608
 7484SOL    HW226495   1.860   6.069   4.126 -1.3720  1.0227 -0.6500
 7485SOL     OW26496   7.108   7.026   9.059  0.0985  0.2959  0.2200
 7485SOL    HW126497   7.074   7.083   9.127  0.2768  0.5082  0.1328
 7485SOL    HW226498   7.033   7.009   9.002  0.0398  0.4255  0.2591
 7486SOL     OW26499   5.324   5.743   2.881 -0.1298  0.2127  0.1475
 7486SOL    HW126500   5.286   5.736   2.793  0.6121  1.5221 -0.3164
 7486SOL    HW226501   5.417   5.761   2.865 -0.1411  1.2912  1.1723
 7487SOL     OW26502   7.298   7.734   3.870 -0.6497 -0.4970 -0.0114
 7487SOL    HW126503   7.364   7.732   3.801 -3.1619  0.3166 -2.6498
 7487SOL    HW226504   7.320   7.812   3.922  0.2722 -0.0291 -1.0581
 7488SOL     OW26505   3.295   9.872   7.558  0.1924  0.2062  0.0744
 7488SOL    HW126506   3.364   9.901   7.498  0.1349 -0.8693 -0.5319
 7488SOL    HW226507   3.339   9.863   7.642  0.3768  1.2855  0.1057
 7489SOL     OW26508   4.257   6.175   4.842  0.7503 -0.5093 -0.5002
 7489SOL    HW126509   4.299   6.221   4.768 -0.6344  1.0175 -0.4009
 7489SOL    HW226510   4.263   6.237   4.915  1.0087 -1.5095  0.3498
 7490SOL     OW26511   9.661   6.405   2.470 -0.0100  0.7481  0.2024
 7490SOL    HW126512   9.566   6.411   2.468 -0.1206 -0.4026 -2.5330
 7490SOL    HW226513   9.679   6.312   2.474  0.9231  0.8169 -1.4508
 7491SOL     OW26514  10.037   4.197   4.573  0.6961 -0.0780  0.0152
 7491SOL    HW126515  10.064   4.285   4.598  1.0339 -0.2268  0.1763
 7491SOL    HW226516  10.054   4.193   4.479 -0.8351  0.5764 -0.3180
 7492SOL     OW26517   0.311   5.104   4.289 -0.0625 -0.1049  0.7526
 7492SOL    HW126518   0.304   5.018   4.331 -0.3183 -0.6491 -0.3708
 7492SOL    HW226519   0.266   5.094   4.205 -0.7988  1.3674  0.9378
 7493SOL     OW26520   6.434   2.024   4.936  0.4751 -0.8893 -0.2650
 7493SOL    HW126521   6.427   1.956   5.004 -1.9287  0.5072  1.0247
 7493SOL    HW226522   6.376   2.094   4.967  1.9589  1.2708 -2.1195
 7494SOL     OW26523   1.214   1.360   9.131 -0.1645  0.0202  0.3947
 7494SOL    HW126524   1.192   1.272   9.100 -0.3110  0.2978 -0.3035
 7494SOL    HW226525   1.149   1.417   9.090  1.3262  0.7595 -1.0659
 7495SOL     OW26526   1.558   5.990   9.189  0.1190  0.0881 -0.2627
 7495SOL    HW126527   1.513   6.037   9.119 -0.5955  0.5850  0.5196
 7495SOL    HW226528   1.642   6.036   9.198  0.7134 -0.6707 -1.5307
 7496SOL     OW26529   8.897   5.171   4.332 -0.1557 -0.2409  0.1731
 7496SOL    HW126530   8.886   5.077   4.346  0.2587 -0.1548  1.0657
 7496SOL    HW226531   8.840   5.212   4.397 -1.6347  0.1451 -1.2686
 7497SOL     OW26532   8.303   0.097   5.356  0.3208  0.2451  0.0149
 7497SOL    HW126533   8.372   0.151   5.395 -0.2277 -0.3588  1.9336
 7497SOL    HW226534   8.233   0.159   5.337 -0.0280  0.3518  1.5366
 7498SOL     OW26535   7.044   7.515   0.384  0.0758  0.1245 -0.7890
 7498SOL    HW126536   7.019   7.533   0.293  0.5206 -0.5675 -1.0504
 7498SOL    HW226537   7.061   7.421   0.387 -0.0615  0.1162  0.0437
 7499SOL     OW26538   5.005   7.629   1.253 -0.1269 -0.0178 -0.0746
 7499SOL    HW126539   4.966   7.671   1.176 -1.5939 -1.9579 -0.4749
 7499SOL    HW226540   4.945   7.649   1.325 -0.7915 -1.2765 -0.2510
 7500SOL     OW26541   7.562   5.613   7.257 -0.0712  0.5068 -0.4067
 7500SOL    HW126542   7.518   5.543   7.304  0.4700 -0.2792 -1.0328
 7500SOL    HW226543   7.558   5.688   7.316 -2.9713  0.7435 -0.7604
 7501SOL     OW26544   0.823   5.097   3.297 -0.0748  0.4548 -0.4142
 7501SOL    HW126545   0.891   5.105   3.230  1.5856 -1.4729  0.8982
 7501SOL    HW226546   0.844   5.015   3.342 -3.6582 -0.5473 -0.2874
 7502SOL     OW26547   9.197   2.174  10.075  0.1722 -0.0219  0.1287
 7502SOL    HW126548   9.217   2.100  10.018  1.8493 -0.0017  0.6363
 7502SOL    HW226549   9.215   2.252  10.022 -1.2364  0.0542 -0.2832
 7503SOL     OW26550   8.387   0.442   9.555 -0.2252  0.0164 -0.5141
 7503SOL    HW126551   8.452   0.512   9.553  0.0750 -0.0856  2.0941
 7503SOL    HW226552   8.314   0.476   9.504 -0.4388  2.6691  1.3249
 7504SOL     OW26553   5.237  10.040   9.178 -0.4868 -0.5581  0.3092
 7504SOL    HW126554   5.233  10.129   9.142  0.3779 -0.3553  0.6885
 7504SOL    HW226555   5.281  10.051   9.262  1.6474 -1.6213 -0.5978
 7505SOL     OW26556   6.099   1.224   7.525  0.5352  0.3990 -0.1905
 7505SOL    HW126557   6.065   1.266   7.604  1.5435 -0.1141  0.5409
 7505SOL    HW226558   6.022   1.185   7.484 -0.0305  0.7923  0.4708
 7506SOL     OW26559  10.162   1.919   8.123 -0.3436  0.7233  0.2163
 7506SOL    HW126560  10.145   1.956   8.036 -0.9515 -2.5759 -1.2184
 7506SOL    HW226561  10.255   1.896   8.121 -0.1400  1.4467  0.8251
 7507SOL     OW26562   0.436   0.676   5.934  0.7334 -0.1451 -0.2526
 7507SOL    HW126563   0.531   0.680   5.932  0.7446 -0.4350 -2.1336
 7507SOL    HW226564   0.407   0.765   5.911  0.5637 -0.1493 -0.0584
 7508SOL     OW26565  10.244   6.209   8.407 -0.1180  0.1711 -0.0228
 7508SOL    HW126566  10.318   6.206   8.466 -0.9562 -0.7312  1.0216
 7508SOL    HW226567  10.269   6.153   8.333  0.7455  0.9379 -0.3337
 7509SOL     OW26568   9.980   7.669   7.824 -0.1019  0.3913 -0.1398
 7509SOL    HW126569   9.969   7.600   7.889 -4.1891 -0.5029 -1.4549
 7509SOL    HW226570   9.949   7.748   7.868  0.8360  0.6070  0.1507
 7510SOL     OW26571   6.593   9.297   2.658  0.1564 -0.4704 -0.1678
 7510SOL    HW126572   6.641   9.282   2.577 -0.3780 -1.2668 -0.3452
 7510SOL    HW226573   6.590   9.211   2.700 -1.2269 -0.4704 -0.2286
 7511SOL     OW26574   7.010   5.975   3.146  0.1620  0.1278 -0.2953
 7511SOL    HW126575   7.075   5.911   3.117 -0.7096  0.1016 -2.3402
 7511SOL    HW226576   7.034   5.994   3.237  1.7641 -1.4195 -0.3445
 7512SOL     OW26577   3.047   1.759   1.202  0.0485 -0.1651  0.4234
 7512SOL    HW126578   3.013   1.789   1.117 -1.2973  0.1971  1.0616
 7512SOL    HW226579   3.087   1.674   1.183  1.0340  0.5318 -0.8175
 7513SOL     OW26580   7.415   5.072   6.544  0.8001 -0.2881 -0.0274
 7513SOL    HW126581   7.461   5.019   6.478 -0.6621 -0.9899 -0.5242
 7513SOL    HW226582   7.358   5.130   6.494  0.5835  0.0492  0.5918
 7514SOL     OW26583   2.518   9.098   7.328 -0.2600 -0.3581 -0.3106
 7514SOL    HW126584   2.539   9.053   7.247  1.3674  1.0518 -0.7336
 7514SOL    HW226585   2.546   9.188   7.313 -3.4852  0.9028  0.4377
 7515SOL     OW26586   5.256   3.557   8.228  0.2862 -0.1797 -0.6902
 7515SOL    HW126587   5.221   3.474   8.197  0.6420  0.0551 -1.7412
 7515SOL    HW226588   5.185   3.620   8.214  0.5288 -0.0290 -1.2410
 7516SOL     OW26589   8.871   4.650   0.417  0.2541 -0.0085  0.3746
 7516SOL    HW126590   8.878   4.740   0.384 -0.3107  0.1443  0.6468
 7516SOL    HW226591   8.781   4.624   0.396  0.8824 -1.1013 -1.1271
 7517SOL     OW26592   8.928   6.417   4.808 -0.6812 -0.3663  0.1949
 7517SOL    HW126593   9.020   6.409   4.830 -0.4729  1.1399 -0.0144
 7517SOL    HW226594   8.909   6.340   4.755  0.7083 -0.2270 -0.5543
 7518SOL     OW26595   8.507   0.107   8.453 -0.3212  0.5185 -0.4111
 7518SOL    HW126596   8.482   0.095   8.361 -0.9848  0.4605 -0.2233
 7518SOL    HW226597   8.596   0.070   8.458  0.1728  1.5334 -1.2696
 7519SOL     OW26598   5.598   6.820   9.508 -0.0368 -0.3058 -0.6879
 7519SOL    HW126599   5.687   6.844   9.481  0.6881 -1.6228  0.3991
 7519SOL    HW226600   5.549   6.902   9.505  1.1834  0.4284 -1.3922
 7520SOL     OW26601   0.300   6.748   6.001 -0.2680  0.2317 -0.1156
 7520SOL    HW126602   0.219   6.713   6.038  0.0717 -0.5819 -0.1242
 7520SOL    HW226603   0.301   6.840   6.029 -1.4148  0.3782 -0.5012
 7521SOL     OW26604   5.326   3.468   0.317  0.2179 -0.3846  0.4069
 7521SOL    HW126605   5.282   3.442   0.399  0.1918 -1.1637  0.1550
 7521SOL    HW226606   5.256   3.469   0.252  0.1874  0.5132  0.4416
 7522SOL     OW26607   1.054   5.082   8.672  0.4452  0.1358 -0.6372
 7522SOL    HW126608   0.977   5.125   8.636  0.2497 -0.0942 -0.4926
 7522SOL    HW226609   1.062   5.117   8.761 -0.6806 -1.3488  0.0804
 7523SOL     OW26610   6.132   1.475   9.916 -0.0309 -0.6746 -0.1792
 7523SOL    HW126611   6.157   1.556   9.872 -0.5516 -0.1259  0.5197
 7523SOL    HW226612   6.189   1.471   9.993 -0.0857 -0.9075 -0.1506
 7524SOL     OW26613   4.291   4.297   1.713 -0.2152 -0.1006  0.1481
 7524SOL    HW126614   4.275   4.204   1.730 -0.5004 -0.3374 -1.2687
 7524SOL    HW226615   4.219   4.343   1.757 -1.1941 -0.7043 -0.7868
 7525SOL     OW26616   1.371   4.708   0.979 -0.1479 -0.0512  0.3269
 7525SOL    HW126617   1.406   4.784   1.026  0.8591  0.3824 -1.0387
 7525SOL    HW226618   1.356   4.740   0.890 -2.3803 -0.7375  0.3987
 7526SOL     OW26619   3.808   1.735  10.293 -0.4504  0.2567 -0.0777
 7526SOL    HW126620   3.890   1.744  10.341  0.1415 -0.4068 -0.9448
 7526SOL    HW226621   3.834   1.715  10.204 -1.5732 -1.8482  0.0168
 7527SOL     OW26622   0.925   9.448   2.076 -0.1814  0.2915 -0.0852
 7527SOL    HW126623   0.843   9.450   2.027  0.0248  0.7088 -0.4230
 7527SOL    HW226624   0.937   9.538   2.107  0.3785  0.3499 -0.4401
 7528SOL     OW26625   9.666   4.516   6.002 -0.0412  0.5395 -0.6307
 7528SOL    HW126626   9.757   4.487   5.994 -0.5374 -2.1123  1.8320
 7528SOL    HW226627   9.625   4.489   5.920  0.6493 -1.5506 -0.3577
 7529SOL     OW26628   8.406   0.011   1.878 -0.1805  0.2099 -0.3633
 7529SOL    HW126629   8.450   0.055   1.951 -0.5060 -1.0623  0.6511
 7529SOL    HW226630   8.445   0.049   1.799  0.9264  0.8929  0.4866
 7530SOL     OW26631   0.488   6.381   7.389  0.0818 -0.2872  0.1521
 7530SOL    HW126632   0.432   6.323   7.440 -1.1625  0.5775 -0.1837
 7530SOL    HW226633   0.471   6.468   7.424  1.4673 -0.0281  0.2492
 7531SOL     OW26634   2.768   3.020   5.397  0.7609  0.0603  0.3032
 7531SOL    HW126635   2.695   3.070   5.433  0.8412 -0.1945  0.8144
 7531SOL    HW226636   2.788   3.064   5.314  1.0560  1.0958  0.9108
 7532SOL     OW26637   7.214   1.077   7.793 -0.0191 -0.5596  0.2430
 7532SOL    HW126638   7.151   1.095   7.724 -0.2536 -1.1193  0.3025
 7532SOL    HW226639   7.260   0.998   7.764  0.6165 -0.1799  0.2240
 7533SOL     OW26640   5.205  10.194   1.895  0.0843 -0.5374 -0.4167
 7533SOL    HW126641   5.207  10.289   1.908  1.4216 -0.4372 -1.1373
 7533SOL    HW226642   5.129  10.179   1.839 -1.2973 -0.1398  1.2747
 7534SOL     OW26643   9.824  10.203   7.757  0.1857  0.3918 -0.3870
 7534SOL    HW126644   9.860  10.206   7.668 -0.2643  2.4071 -0.5501
 7534SOL    HW226645   9.826  10.294   7.787 -0.6154 -0.1008  1.2972
 7535SOL     OW26646   0.003   0.523   6.612 -0.2200  0.2285  0.1903
 7535SOL    HW126647  -0.060   0.529   6.540  0.7214  0.6680 -0.6132
 7535SOL    HW226648  -0.031   0.583   6.679 -0.0522  1.3691 -0.7205
 7536SOL     OW26649   4.339   7.862   4.663 -0.5336  0.3334 -0.2347
 7536SOL    HW126650   4.385   7.859   4.747 -0.6340  1.8631 -0.1099
 7536SOL    HW226651   4.256   7.904   4.683 -1.5600 -1.3890 -0.6773
 7537SOL     OW26652   9.417   2.840   6.137  0.1582 -0.7217  0.3541
 7537SOL    HW126653   9.454   2.915   6.090  0.6141 -0.8485  0.5065
 7537SOL    HW226654   9.490   2.779   6.146  0.6299  0.1377  2.9853
 7538SOL     OW26655  10.242   3.974   6.657 -0.3646  0.1094 -0.4118
 7538SOL    HW126656  10.257   3.955   6.749  1.8828 -1.4146 -1.0292
 7538SOL    HW226657  10.257   4.069   6.650  1.7416 -0.1097  0.4295
 7539SOL     OW26658   6.562   3.454   5.862 -0.1474  0.2393  0.5629
 7539SOL    HW126659   6.566   3.529   5.802 -0.3438  0.5460  0.9293
 7539SOL    HW226660   6.640   3.463   5.917  0.0640 -0.0753  0.3181
 7540SOL     OW26661   1.149   5.025   5.591 -0.2507  0.6135 -0.0081
 7540SOL    HW126662   1.117   4.988   5.673 -0.4470  0.5957 -0.0899
 7540SOL    HW226663   1.083   4.998   5.526  1.7276 -2.5844 -0.9152
 7541SOL     OW26664   5.759   0.217   7.180 -0.2719  0.7000 -0.1055
 7541SOL    HW126665   5.843   0.187   7.145 -0.4736 -0.5030  0.3833
 7541SOL    HW226666   5.716   0.259   7.106  0.3240  0.3890 -0.6418
 7542SOL     OW26667   5.365   3.744   5.402  0.2394 -0.2789  0.3453
 7542SOL    HW126668   5.341   3.780   5.488  1.7949  1.1420  0.2456
 7542SOL    HW226669   5.385   3.652   5.419 -0.1063 -0.1771  1.3766
 7543SOL     OW26670   1.851   9.920   9.891  0.1272 -0.2535  0.3668
 7543SOL    HW126671   1.785   9.902   9.824 -0.3416  0.7288  0.5589
 7543SOL    HW226672   1.808   9.898   9.974 -1.2562  3.5455  0.8439
 7544SOL     OW26673   2.633  10.044   8.330 -0.0590 -0.1975 -0.3415
 7544SOL    HW126674   2.574   9.974   8.304  1.0832 -1.3825  0.1371
 7544SOL    HW226675   2.669  10.077   8.248 -2.2143  1.3782 -0.7466
 7545SOL     OW26676   3.791   6.844   8.354 -0.8917 -0.4500 -0.2364
 7545SOL    HW126677   3.749   6.843   8.268 -0.4381 -0.2883 -0.4652
 7545SOL    HW226678   3.751   6.920   8.399 -0.3564  0.1183 -0.7051
 7546SOL     OW26679   4.809   7.318   1.648  0.1506  0.4417  0.0661
 7546SOL    HW126680   4.747   7.384   1.678  0.0460  0.2456  0.2905
 7546SOL    HW226681   4.866   7.364   1.586 -0.1481  0.6485 -0.0547
 7547SOL     OW26682   6.922   8.474   7.696 -0.2545 -0.5683  0.0685
 7547SOL    HW126683   6.940   8.533   7.769 -0.3802 -1.5773  0.9426
 7547SOL    HW226684   6.879   8.529   7.630  0.9272  0.6265  0.2490
 7548SOL     OW26685   3.679   9.609   3.488  0.1733 -0.3510 -0.4311
 7548SOL    HW126686   3.652   9.530   3.535  1.2510  0.2908  1.3703
 7548SOL    HW226687   3.615   9.675   3.514  1.5722  0.3747  1.3813
 7549SOL     OW26688   8.416   3.356   3.136 -0.4040  0.3027  0.2361
 7549SOL    HW126689   8.398   3.299   3.211 -0.3115 -1.5478 -1.0770
 7549SOL    HW226690   8.434   3.441   3.175  2.0187 -1.0883  2.5081
 7550SOL     OW26691   4.569   4.568   6.405 -0.0699 -0.1850  0.0584
 7550SOL    HW126692   4.599   4.542   6.492 -1.2969  0.6736  0.7816
 7550SOL    HW226693   4.485   4.522   6.394 -0.9011  1.2232  0.2001
 7551SOL     OW26694   4.672   6.778   2.076  0.0928 -0.2495 -0.8588
 7551SOL    HW126695   4.676   6.729   1.994  0.6319 -0.7440 -0.5464
 7551SOL    HW226696   4.588   6.753   2.115 -0.0714 -0.1711 -1.1622
 7552SOL     OW26697   5.446   1.059   7.646 -0.0431  0.1522  0.4499
 7552SOL    HW126698   5.475   1.010   7.722 -2.4998 -3.4292 -0.6606
 7552SOL    HW226699   5.392   1.130   7.682  1.9525  0.9546  2.0556
 7553SOL     OW26700   6.669   4.153   6.912  0.7172  0.3961  0.0973
 7553SOL    HW126701   6.649   4.238   6.874  0.8236  0.1472 -0.5234
 7553SOL    HW226702   6.735   4.172   6.979  0.3630  0.8652  0.3196
 7554SOL     OW26703   6.979  10.104   9.677 -0.2430 -0.0123 -0.3957
 7554SOL    HW126704   7.005  10.141   9.761 -1.7005 -0.4100  0.2774
 7554SOL    HW226705   7.050  10.045   9.652  1.3140  1.8981 -0.6491
 7555SOL     OW26706   6.357   0.313   7.584 -0.2599 -0.3976 -0.2625
 7555SOL    HW126707   6.311   0.293   7.502 -0.1382  0.0583 -0.4443
 7555SOL    HW226708   6.332   0.403   7.604  0.2091 -0.2983 -0.1265
 7556SOL     OW26709   8.746   3.011   2.195 -0.4753 -0.0972  0.3337
 7556SOL    HW126710   8.692   2.932   2.199  0.8116 -1.0963 -0.9986
 7556SOL    HW226711   8.763   3.024   2.102 -1.6011  2.4628  0.4186
 7557SOL     OW26712   8.032   0.875   3.150  0.2529  0.2649 -0.0270
 7557SOL    HW126713   7.966   0.914   3.207 -0.9162  0.8035 -1.6808
 7557SOL    HW226714   8.055   0.944   3.088  0.3838 -0.7208 -1.1232
 7558SOL     OW26715   6.407   4.995   4.202  0.4077  0.5521  0.3937
 7558SOL    HW126716   6.354   5.043   4.267  1.8022  1.3669  0.9718
 7558SOL    HW226717   6.413   5.056   4.128  2.4286  1.4553  1.2448
 7559SOL     OW26718   4.335   2.382   9.691  0.0668 -0.0455 -0.6887
 7559SOL    HW126719   4.254   2.343   9.658 -0.4672 -0.1713  0.7141
 7559SOL    HW226720   4.309   2.427   9.770  1.4804 -0.6558  0.1542
 7560SOL     OW26721   7.281   3.942  10.143 -0.1065 -0.9227 -0.2274
 7560SOL    HW126722   7.210   3.879  10.155  0.1570 -1.2986 -0.6265
 7560SOL    HW226723   7.315   3.924  10.055 -0.3913  0.1443 -0.5691
 7561SOL     OW26724   3.992   8.424   0.173  0.3097 -0.0906 -0.2850
 7561SOL    HW126725   4.053   8.498   0.171 -0.4973  0.6299  0.7400
 7561SOL    HW226726   3.989   8.397   0.264 -1.5440  0.4678 -0.1367
 7562SOL     OW26727   7.512   1.571   5.914 -0.5305 -0.0234  0.1581
 7562SOL    HW126728   7.523   1.667   5.920 -2.9289  0.2590  0.8088
 7562SOL    HW226729   7.466   1.557   5.832 -1.9026 -0.4256  0.9774
 7563SOL     OW26730   6.862   5.623   0.066  0.2799  0.5908  0.3020
 7563SOL    HW126731   6.956   5.643   0.060  0.4980 -0.6523 -0.9092
 7563SOL    HW226732   6.822   5.707   0.089  1.6900  1.1290  0.9261
 7564SOL     OW26733   6.810   5.368   3.978  0.4868  0.3845 -0.1131
 7564SOL    HW126734   6.905   5.383   3.971  0.4456  0.6154 -0.1869
 7564SOL    HW226735   6.786   5.409   4.061  0.1607  1.8601 -0.8872
 7565SOL     OW26736   0.271   2.563   6.168  0.5078 -0.2025  0.4322
 7565SOL    HW126737   0.333   2.624   6.128  0.4968 -0.8129 -0.5410
 7565SOL    HW226738   0.295   2.563   6.261 -0.7252  2.7639  0.8890
 7566SOL     OW26739   2.592   9.378   5.990  0.0427 -0.2446  0.1111
 7566SOL    HW126740   2.671   9.381   5.935  0.5321 -0.9955  0.7478
 7566SOL    HW226741   2.543   9.457   5.966  0.9337  0.1778 -0.3742
 7567SOL     OW26742   4.453   1.447   4.467  0.1104  0.6787  0.5592
 7567SOL    HW126743   4.502   1.383   4.415 -0.0245  0.0853  1.1522
 7567SOL    HW226744   4.442   1.405   4.552 -1.3848  0.8157  0.4545
 7568SOL     OW26745   0.596   2.589   8.026  0.6383  0.4488  0.1587
 7568SOL    HW126746   0.660   2.519   8.038  0.8116  0.8518  1.8069
 7568SOL    HW226747   0.613   2.650   8.097  0.4648  2.1752 -1.2100
 7569SOL     OW26748   1.162   2.532   0.451  0.4700  0.1161  0.2237
 7569SOL    HW126749   1.169   2.586   0.530 -0.9677  2.0408 -0.8675
 7569SOL    HW226750   1.235   2.562   0.396  0.2427  0.2765  0.0063
 7570SOL     OW26751   1.074   2.070   1.776 -0.4644  0.3486 -0.1774
 7570SOL    HW126752   1.011   2.052   1.706 -1.5998  1.0206  0.6408
 7570SOL    HW226753   1.036   2.143   1.824  0.7761  0.5287  0.5630
 7571SOL     OW26754   5.916   5.700   1.828 -0.1527  0.5169  0.7903
 7571SOL    HW126755   6.001   5.721   1.788 -0.5207 -0.2132 -0.4181
 7571SOL    HW226756   5.862   5.669   1.755 -0.9539 -0.5838  1.8122
 7572SOL     OW26757   7.917   1.804   6.644 -0.4069 -0.5721  0.3146
 7572SOL    HW126758   7.927   1.721   6.599  0.7898 -0.6152  0.6445
 7572SOL    HW226759   7.837   1.793   6.696 -0.9226 -1.0741 -0.5684
 7573SOL     OW26760   0.326   0.988   8.329 -0.3802  0.2585 -0.4224
 7573SOL    HW126761   0.420   0.971   8.322 -0.6251 -1.5441  0.1392
 7573SOL    HW226762   0.318   1.082   8.312  1.7606  0.9401  1.6207
 7574SOL     OW26763   7.278   5.405   8.568  0.2423 -0.0551 -0.0831
 7574SOL    HW126764   7.370   5.424   8.549 -0.0999  1.1904 -0.6127
 7574SOL    HW226765   7.234   5.490   8.561 -0.8400 -0.5081  0.8553
 7575SOL     OW26766   1.171   8.609   4.124  0.2296 -0.2951 -0.4251
 7575SOL    HW126767   1.159   8.547   4.196 -0.7458 -1.3994 -1.4942
 7575SOL    HW226768   1.124   8.687   4.151  2.0232  0.2968  1.2386
 7576SOL     OW26769   5.990   2.117   8.910 -0.0976 -0.2883 -0.2496
 7576SOL    HW126770   5.927   2.104   8.839  1.0786 -2.0384 -1.0496
 7576SOL    HW226771   5.975   2.206   8.940 -2.2686 -0.3110 -1.0669
 7577SOL     OW26772  10.145   9.236   2.471  0.3257 -0.3568  0.6170
 7577SOL    HW126773  10.124   9.314   2.420 -1.4888 -0.6450  0.8689
 7577SOL    HW226774  10.229   9.207   2.436 -0.9253 -0.6713 -2.3975
 7578SOL     OW26775   6.492   6.770   7.485  0.0430 -0.6959 -0.5441
 7578SOL    HW126776   6.493   6.760   7.390  0.2397 -0.2547 -0.5935
 7578SOL    HW226777   6.566   6.718   7.515  1.2263  0.7460 -0.8194
 7579SOL     OW26778   3.848   4.854   4.513  0.3293  0.4382  0.5838
 7579SOL    HW126779   3.886   4.918   4.453 -1.7759  0.6817 -0.5653
 7579SOL    HW226780   3.872   4.886   4.600  2.6933  0.5558 -0.0374
 7580SOL     OW26781   3.960   7.569   2.772 -0.1570  0.0686 -0.2845
 7580SOL    HW126782   4.025   7.634   2.745 -0.2048  0.6029  0.8511
 7580SOL    HW226783   3.877   7.617   2.775  0.0102  0.3282  1.8243
 7581SOL     OW26784   4.386   0.142   7.396 -0.4419 -0.4991 -0.2596
 7581SOL    HW126785   4.455   0.087   7.361 -2.9106 -3.3928 -0.9598
 7581SOL    HW226786   4.316   0.137   7.332 -1.8225  1.2465  1.0107
 7582SOL     OW26787   6.753   7.237   6.197 -0.1229  0.1958  0.1185
 7582SOL    HW126788   6.823   7.300   6.181 -1.4900  1.4813 -1.1966
 7582SOL    HW226789   6.732   7.202   6.110 -1.0490 -0.1942  0.4888
 7583SOL     OW26790   0.391   2.909   3.160  0.3658 -0.1014 -0.2135
 7583SOL    HW126791   0.313   2.865   3.195  0.2985 -0.8093 -1.2163
 7583SOL    HW226792   0.416   2.971   3.229  1.8162 -3.2537  2.4393
 7584SOL     OW26793   8.198   6.281   6.307 -0.2710 -0.0360  0.1010
 7584SOL    HW126794   8.266   6.245   6.250 -0.5132 -1.5597  0.7323
 7584SOL    HW226795   8.205   6.376   6.295  1.2548 -0.2086 -0.6412
 7585SOL     OW26796   9.129   9.631   3.276  0.2131  0.7865  0.0221
 7585SOL    HW126797   9.144   9.699   3.211  0.4685 -0.3835 -1.1940
 7585SOL    HW226798   9.214   9.618   3.317  0.2428  0.9779  0.0194
 7586SOL     OW26799   8.926   0.105   0.812 -0.6637 -0.2265  0.1732
 7586SOL    HW126800   8.982   0.139   0.742  0.9884 -1.0117  1.0572
 7586SOL    HW226801   8.864   0.176   0.830  0.9749  1.2863  0.1373
 7587SOL     OW26802  10.122   6.419   2.167 -0.1502 -0.2998 -0.0800
 7587SOL    HW126803  10.212   6.387   2.168 -0.2537 -0.6263  1.2916
 7587SOL    HW226804  10.097   6.423   2.260 -1.4657  0.0035 -0.4228
 7588SOL     OW26805   0.815   0.687   5.154  0.2308 -0.4688  0.0481
 7588SOL    HW126806   0.847   0.641   5.076 -1.0711 -1.3972  0.0108
 7588SOL    HW226807   0.823   0.624   5.225  3.0900  0.9574  1.1297
 7589SOL     OW26808   3.810   0.207   6.114 -0.2047 -0.4797  0.2933
 7589SOL    HW126809   3.883   0.267   6.121 -0.0404 -0.3590 -1.9347
 7589SOL    HW226810   3.747   0.238   6.180  1.8729 -0.9026  2.6361
 7590SOL     OW26811   7.846   6.259   4.920 -0.2173 -0.7031 -0.4900
 7590SOL    HW126812   7.867   6.171   4.889  2.2811 -0.5506  0.5045
 7590SOL    HW226813   7.795   6.245   5.000 -1.1735 -1.1943 -1.1735
 7591SOL     OW26814   2.126   9.305   3.761  0.0549 -0.2287 -0.9288
 7591SOL    HW126815   2.069   9.243   3.714  0.7272 -0.3510 -1.6054
 7591SOL    HW226816   2.181   9.249   3.817 -1.4616 -0.0210  0.8615
 7592SOL     OW26817   6.077   9.847   3.646 -0.3360 -0.0086 -0.2721
 7592SOL    HW126818   6.085   9.799   3.728 -2.6777  0.3865  0.2759
 7592SOL    HW226819   6.062   9.780   3.580 -0.5657 -0.2144 -0.0131
 7593SOL     OW26820   4.103   3.411   1.963  0.6056  0.3691  0.0909
 7593SOL    HW126821   4.061   3.489   2.000 -0.2351 -0.0672  0.0719
 7593SOL    HW226822   4.059   3.338   2.006 -1.2830 -0.2220 -2.6227
 7594SOL     OW26823   5.431   4.415   3.751 -0.1353  0.3494 -0.1840
 7594SOL    HW126824   5.430   4.426   3.846  0.5524  0.2643 -0.1601
 7594SOL    HW226825   5.380   4.335   3.736  1.1447 -0.5870  0.2656
 7595SOL     OW26826   4.344   3.075   7.552 -0.3149 -0.4748  0.1235
 7595SOL    HW126827   4.377   3.011   7.489  2.3086  0.0451  0.8365
 7595SOL    HW226828   4.336   3.156   7.502  0.4193 -0.3954  0.1196
 7596SOL     OW26829   4.339   9.574   8.873  0.0573  0.3490 -0.2776
 7596SOL    HW126830   4.333   9.479   8.883  0.1647  0.4658  0.9857
 7596SOL    HW226831   4.272   9.608   8.933 -0.9290  1.0513 -1.7089
 7597SOL     OW26832   5.272   7.472   3.317 -0.6072 -0.1579 -0.1135
 7597SOL    HW126833   5.325   7.393   3.311 -0.5069 -0.0442 -0.7112
 7597SOL    HW226834   5.335   7.543   3.322 -0.6987 -0.0959  0.1906
 7598SOL     OW26835   6.584   0.772   6.699 -0.2913  0.4549 -0.1448
 7598SOL    HW126836   6.504   0.719   6.701 -2.0544  2.9484  0.0427
 7598SOL    HW226837   6.645   0.720   6.646 -0.9248 -2.8588  2.0234
 7599SOL     OW26838   9.170   3.088   3.900 -0.2604 -0.0435 -0.0239
 7599SOL    HW126839   9.100   3.151   3.918  0.6602  0.2314  3.1839
 7599SOL    HW226840   9.124   3.007   3.881 -1.4439  0.8484 -1.1237
 7600SOL     OW26841   9.280   5.148   2.105  0.5030 -0.2034  0.0377
 7600SOL    HW126842   9.220   5.158   2.031  1.1351  1.1119 -0.3217
 7600SOL    HW226843   9.312   5.058   2.097 -0.7567 -0.6606 -0.2503
 7601SOL     OW26844   8.904   2.538   9.004 -0.1728 -0.2239  0.1103
 7601SOL    HW126845   8.846   2.532   8.928  1.8758 -2.1672 -1.4467
 7601SOL    HW226846   8.938   2.628   9.002  0.0335 -0.3051 -1.4886
 7602SOL     OW26847   5.367   9.962   2.096 -0.3476 -0.0674  0.1110
 7602SOL    HW126848   5.414   9.979   2.015 -0.2122  1.0122  0.3952
 7602SOL    HW226849   5.367  10.047   2.142  1.2904 -1.0679  2.1502
 7603SOL     OW26850   0.179   8.047   3.666 -0.0916  0.2862 -0.1090
 7603SOL    HW126851   0.175   8.137   3.634  0.2182 -0.3564 -2.0832
 7603SOL    HW226852   0.264   8.040   3.709  0.4996  0.5620 -1.2085
 7604SOL     OW26853   9.674   4.664   0.956  0.4699 -0.0038  0.1173
 7604SOL    HW126854   9.722   4.746   0.972 -1.4373  1.6962 -2.1807
 7604SOL    HW226855   9.584   4.684   0.980  0.0874 -1.7477  0.2593
 7605SOL     OW26856   9.769   7.630   5.590 -0.5015  0.2030  0.1428
 7605SOL    HW126857   9.804   7.719   5.597  0.1735 -0.0847  0.6128
 7605SOL    HW226858   9.794   7.588   5.673  1.5086 -1.2039 -1.0739
 7606SOL     OW26859   6.869   8.909   9.009 -0.0330  0.0254 -0.5761
 7606SOL    HW126860   6.840   8.996   8.985 -0.9307  0.4839  1.8506
 7606SOL    HW226861   6.825   8.851   8.947 -0.1637  1.2253 -1.6397
 7607SOL     OW26862   8.677  10.050   1.360  0.2011  0.3141 -0.2538
 7607SOL    HW126863   8.623  10.007   1.293  1.3497 -0.1360 -0.9045
 7607SOL    HW226864   8.623  10.046   1.440 -1.0232  0.5186 -1.0386
 7608SOL     OW26865   0.783   1.792   5.284  0.1080  0.5313  0.0812
 7608SOL    HW126866   0.697   1.785   5.243  0.4829 -0.3733 -0.5947
 7608SOL    HW226867   0.831   1.715   5.252  1.1844  1.0491  0.3938
 7609SOL     OW26868   7.614   1.983   6.371 -0.4864 -0.3431 -0.2755
 7609SOL    HW126869   7.587   2.059   6.319 -0.5649 -0.8645 -1.0263
 7609SOL    HW226870   7.533   1.937   6.389 -0.3056 -1.0001 -1.0605
 7610SOL     OW26871   0.895   0.935   7.724  0.0741 -0.1671  0.2173
 7610SOL    HW126872   0.925   0.985   7.800 -0.2255  0.0425  0.1967
 7610SOL    HW226873   0.880   1.001   7.657  0.0586 -0.3253  0.0657
 7611SOL     OW26874   1.821   1.534   3.344  0.0323  0.3538 -0.0718
 7611SOL    HW126875   1.899   1.516   3.396  0.1048 -1.3520 -0.7115
 7611SOL    HW226876   1.748   1.512   3.402  0.1169 -2.7569 -0.9682
 7612SOL     OW26877   8.653  10.048   6.382 -0.2531 -0.3249  0.3608
 7612SOL    HW126878   8.642  10.127   6.435 -0.9256  0.0005 -0.2531
 7612SOL    HW226879   8.581  10.051   6.319  1.2573 -0.0190 -1.4515
 7613SOL     OW26880   8.565   9.356   5.802 -0.0239 -0.1027 -0.3240
 7613SOL    HW126881   8.658   9.378   5.796  0.0323 -0.0221  0.6479
 7613SOL    HW226882   8.524   9.404   5.730  0.7591 -0.5627 -1.0850
 7614SOL     OW26883   2.618   9.216   7.009  0.1743  0.1776  0.6512
 7614SOL    HW126884   2.589   9.191   6.921  0.1255 -0.0528  0.7314
 7614SOL    HW226885   2.636   9.133   7.053 -0.6088  0.2496  1.1282
 7615SOL     OW26886   6.880   5.913   0.627 -0.7145 -0.0148  0.2742
 7615SOL    HW126887   6.968   5.915   0.666 -0.3255  1.6922 -0.5514
 7615SOL    HW226888   6.823   5.883   0.698  0.8116 -3.9613  0.0655
 7616SOL     OW26889   5.043   7.382   9.677 -0.2584  0.7002 -0.4132
 7616SOL    HW126890   4.991   7.441   9.732  1.0998  2.7408 -1.1663
 7616SOL    HW226891   5.052   7.429   9.594  1.1584 -0.4509 -0.9548
 7617SOL     OW26892   2.510   8.525   1.154  0.1294  0.0142  0.1951
 7617SOL    HW126893   2.439   8.474   1.193 -0.3414  0.9423  0.5951
 7617SOL    HW226894   2.582   8.518   1.217  0.3590 -0.8217 -0.1476
 7618SOL     OW26895   2.479   4.160   9.367  0.7220  0.0968  0.0388
 7618SOL    HW126896   2.438   4.151   9.281 -1.2486 -1.5840  1.0756
 7618SOL    HW226897   2.526   4.078   9.380 -0.7036 -0.5649  1.3623
 7619SOL     OW26898   0.164   4.125   6.152 -0.3733 -0.0744  0.0852
 7619SOL    HW126899   0.096   4.191   6.158 -0.1529  0.1306  0.3640
 7619SOL    HW226900   0.132   4.052   6.204  0.6234  0.9076  2.2085
 7620SOL     OW26901   8.669   7.565   3.666  0.1794 -0.0482  0.1771
 7620SOL    HW126902   8.711   7.482   3.688 -0.5473 -1.0451 -1.9066
 7620SOL    HW226903   8.615   7.586   3.743  0.3564 -1.5204  0.7327
 7621SOL     OW26904   6.645   6.989   9.619  0.3556  0.2936  0.1010
 7621SOL    HW126905   6.586   6.921   9.653 -0.8046  2.2783  2.3348
 7621SOL    HW226906   6.587   7.060   9.592  1.5329  0.4663 -2.2531
 7622SOL     OW26907   7.888  10.141   0.500 -0.1844  0.2236  0.6216
 7622SOL    HW126908   7.907  10.157   0.407  0.0018  0.5435  0.7104
 7622SOL    HW226909   7.924  10.055   0.518  1.3311  0.8679  0.8178
 7623SOL     OW26910   3.282   6.739   4.645  0.0144  0.1887 -0.0964
 7623SOL    HW126911   3.205   6.789   4.617  0.2938 -0.6562 -2.6209
 7623SOL    HW226912   3.279   6.742   4.741 -2.6926  0.8433 -0.1227
 7624SOL     OW26913   5.682   4.287   9.468 -0.3713  0.1440 -0.3472
 7624SOL    HW126914   5.592   4.289   9.501  0.2803  1.3426  1.5283
 7624SOL    HW226915   5.726   4.222   9.523  0.0001 -0.2247 -1.0601
 7625SOL     OW26916   8.926   8.660   3.798  0.1928 -0.2037 -0.4433
 7625SOL    HW126917   8.871   8.703   3.863  1.3615  0.3309  0.2389
 7625SOL    HW226918   8.953   8.731   3.739 -0.1412 -0.5279 -0.9951
 7626SOL     OW26919   4.433   7.034   8.547  0.1298  0.2080  0.6352
 7626SOL    HW126920   4.492   7.107   8.524  1.6500 -0.9345  0.7211
 7626SOL    HW226921   4.474   6.958   8.505 -0.4465 -0.8887  2.0237
 7627SOL     OW26922   4.139   3.316   8.128 -0.5964 -0.1398  0.4434
 7627SOL    HW126923   4.097   3.343   8.046  0.4004 -0.3837 -0.1640
 7627SOL    HW226924   4.081   3.249   8.164 -1.4815  0.5747  0.3844
 7628SOL     OW26925   6.887   1.712   0.015 -0.2477 -0.1007  0.1958
 7628SOL    HW126926   6.836   1.731  -0.064 -0.8153 -1.8089  0.1139
 7628SOL    HW226927   6.916   1.621   0.004  1.4675  0.2948  0.9955
 7629SOL     OW26928   9.365   4.458   3.095  0.3764 -0.1111  0.0010
 7629SOL    HW126929   9.365   4.501   3.009  0.6805 -0.4232 -0.1570
 7629SOL    HW226930   9.285   4.406   3.096  0.6164 -0.4917 -0.2904
 7630SOL     OW26931   5.537   4.863   9.735  0.0774  0.5552  0.0360
 7630SOL    HW126932   5.602   4.827   9.796  1.9180  2.3497 -0.7149
 7630SOL    HW226933   5.511   4.946   9.775  1.0263  1.5721 -1.3390
 7631SOL     OW26934   2.901   3.092   4.782 -0.2820  0.0754 -0.4545
 7631SOL    HW126935   2.963   3.026   4.749 -1.2436 -1.1589  0.1133
 7631SOL    HW226936   2.849   3.044   4.847 -0.8693  1.4749  0.1312
 7632SOL     OW26937   8.798   1.475   2.867 -0.4558 -0.0115 -0.9439
 7632SOL    HW126938   8.795   1.445   2.776  0.9308 -1.5019 -0.5386
 7632SOL    HW226939   8.872   1.535   2.870 -0.3153 -0.1946 -0.7411
 7633SOL     OW26940   8.989   2.393   1.437  0.6562 -0.4058  0.6363
 7633SOL    HW126941   8.971   2.454   1.366 -0.6163 -0.8093  0.5950
 7633SOL    HW226942   9.084   2.379   1.433  0.6632 -0.1143 -0.7183
 7634SOL     OW26943   0.023   0.328  10.136  0.0831  0.1672  0.2259
 7634SOL    HW126944   0.041   0.421  10.150 -0.4287  0.6007 -1.7726
 7634SOL    HW226945   0.059   0.308  10.050  0.7293 -1.6617  0.8706
 7635SOL     OW26946   3.519   3.098  10.020  0.4101 -0.5077 -0.4360
 7635SOL    HW126947   3.477   3.033   9.963  0.5290 -0.7521 -0.2483
 7635SOL    HW226948   3.594   3.052  10.057  0.5473 -0.2320 -0.3728
 7636SOL     OW26949   0.214   7.349   3.582 -0.6429 -0.5121  0.6380
 7636SOL    HW126950   0.136   7.373   3.532 -0.2379 -0.3119  0.0798
 7636SOL    HW226951   0.260   7.287   3.525 -1.7402 -2.7984  2.1170
 7637SOL     OW26952   6.410   1.328   8.908  0.2265  0.1498  0.2988
 7637SOL    HW126953   6.444   1.239   8.899 -0.2921  0.0060 -0.3893
 7637SOL    HW226954   6.401   1.359   8.817  0.7767  1.0535  0.5352
 7638SOL     OW26955   0.901   2.155   0.006  0.4041 -0.0954 -0.2185
 7638SOL    HW126956   0.916   2.093   0.078  2.5401 -1.2077 -1.5366
 7638SOL    HW226957   0.939   2.113  -0.071 -0.3328  1.7847 -1.6903
 7639SOL     OW26958   0.466   4.658   9.551 -0.3925 -0.4996 -0.7053
 7639SOL    HW126959   0.407   4.698   9.616  0.6596  0.8072 -0.5149
 7639SOL    HW226960   0.409   4.639   9.476 -1.2620 -0.2748 -0.1233
 7640SOL     OW26961   2.710   6.660   0.674  0.3795  0.5541 -1.0751
 7640SOL    HW126962   2.708   6.744   0.719 -1.2378  0.5835 -1.1437
 7640SOL    HW226963   2.648   6.605   0.722  0.7664 -0.3207 -1.5551
 7641SOL     OW26964   1.598   9.729   8.592  0.1211 -0.2232 -0.0280
 7641SOL    HW126965   1.666   9.709   8.656 -1.3098 -1.3934  1.2063
 7641SOL    HW226966   1.625   9.684   8.512  0.9718 -0.3468  0.3194
 7642SOL     OW26967   4.260   8.362   5.343 -0.4701 -0.5002 -0.7468
 7642SOL    HW126968   4.287   8.367   5.435 -1.4814 -0.6128 -0.4291
 7642SOL    HW226969   4.309   8.433   5.300 -0.6538  0.1278  0.0481
 7643SOL     OW26970   2.167   0.309   5.312  0.0547  0.1794 -0.2455
 7643SOL    HW126971   2.106   0.383   5.316 -0.8766 -0.5206 -0.9425
 7643SOL    HW226972   2.250   0.348   5.284 -0.3918  0.9729 -0.5183
 7644SOL     OW26973   9.020   0.074   7.220  0.2502  0.0280 -0.2433
 7644SOL    HW126974   8.925   0.061   7.227  0.3071 -0.3799 -0.2271
 7644SOL    HW226975   9.058  -0.011   7.242  0.7212  0.7809  2.1708
 7645SOL     OW26976   9.261   5.321   4.831  0.1123 -0.4675 -0.3737
 7645SOL    HW126977   9.291   5.331   4.921 -1.7666  1.8756  0.0884
 7645SOL    HW226978   9.317   5.381   4.780  0.6973 -1.2472 -0.6584
 7646SOL     OW26979   7.544   5.365   4.373  0.1221  0.2223  0.1772
 7646SOL    HW126980   7.510   5.319   4.450  1.0165  1.4761  1.3733
 7646SOL    HW226981   7.612   5.422   4.408  1.0754  0.2909 -1.6639
 7647SOL     OW26982   9.361   2.634   2.783  0.4455 -0.1840 -0.0253
 7647SOL    HW126983   9.309   2.633   2.863 -2.5459 -1.8904 -1.8309
 7647SOL    HW226984   9.404   2.720   2.784 -1.7626  1.0328  2.0086
 7648SOL     OW26985  10.294   4.474   8.363 -0.0675 -0.3711  0.3294
 7648SOL    HW126986  10.280   4.551   8.418 -1.8831 -0.4461  0.0273
 7648SOL    HW226987  10.229   4.482   8.294  0.2431 -1.7782 -0.1530
 7649SOL     OW26988   5.400   0.421   3.265 -0.3554  0.4401 -0.3680
 7649SOL    HW126989   5.307   0.399   3.260 -0.8550  2.3045 -0.2923
 7649SOL    HW226990   5.402   0.517   3.259  1.6049  0.4127 -0.8968
 7650SOL     OW26991   8.353   7.366   6.078  0.2491  0.0387  0.1559
 7650SOL    HW126992   8.313   7.320   6.151  0.5451 -1.2265 -0.4451
 7650SOL    HW226993   8.326   7.457   6.089 -2.0340 -0.5906  0.2782
 7651SOL     OW26994   2.569   2.548   9.052  0.0506 -0.2984  0.6191
 7651SOL    HW126995   2.625   2.613   9.094  0.2243 -0.1557  0.1644
 7651SOL    HW226996   2.488   2.550   9.103  0.6520 -0.9216  1.6495
 7652SOL     OW26997   5.169   8.568   0.845  0.0884  0.2446 -0.2907
 7652SOL    HW126998   5.199   8.483   0.814  1.1858  0.5673 -0.1812
 7652SOL    HW226999   5.105   8.549   0.913  1.0147 -0.5142  0.3908
 7653SOL     OW27000   3.534   9.955   5.451  0.2696 -0.3242  0.0763
 7653SOL    HW127001   3.603   9.977   5.388 -0.0163 -0.9717 -0.4783
 7653SOL    HW227002   3.454   9.990   5.413  0.3676  0.9461  1.0097
 7654SOL     OW27003   8.752   3.195   0.617 -0.0849 -0.1392 -0.1103
 7654SOL    HW127004   8.740   3.276   0.667  1.9665  0.3417 -0.2761
 7654SOL    HW227005   8.847   3.187   0.609 -0.3013 -1.3495 -2.0858
 7655SOL     OW27006   6.785   4.894   1.837 -0.3243 -0.3971  0.0168
 7655SOL    HW127007   6.875   4.860   1.831  0.3479  0.7407  2.4442
 7655SOL    HW227008   6.776   4.922   1.928 -2.9429  0.1550 -0.3356
 7656SOL     OW27009   4.143   2.619   9.580 -0.2042  0.3769  0.1934
 7656SOL    HW127010   4.123   2.668   9.660  1.2037  1.7791 -0.2649
 7656SOL    HW227011   4.148   2.528   9.609 -0.1551  0.8010  1.6230
 7657SOL     OW27012   3.069   1.003   3.160 -0.6436 -0.4605 -0.5401
 7657SOL    HW127013   3.045   1.089   3.196 -0.8697 -0.6991 -0.0958
 7657SOL    HW227014   2.986   0.967   3.129 -0.6047 -0.6480 -0.4297
 7658SOL     OW27015   1.000   4.494   3.918  0.2192  0.0265  0.0488
 7658SOL    HW127016   0.952   4.478   3.999 -0.7203  3.1927  0.2531
 7658SOL    HW227017   0.935   4.484   3.849  0.2846  0.2220 -0.0414
 7659SOL     OW27018   0.182   4.970   7.700  0.2726  0.2252 -0.1976
 7659SOL    HW127019   0.203   4.907   7.768  2.2259  1.9167  0.8948
 7659SOL    HW227020   0.258   4.969   7.642 -0.6655 -0.0372 -1.4567
 7660SOL     OW27021   3.210   6.086   3.837 -0.2464  0.0051 -0.3150
 7660SOL    HW127022   3.155   6.018   3.875 -1.7442  1.4912  0.3167
 7660SOL    HW227023   3.289   6.041   3.810 -0.7285 -1.7913  1.0804
 7661SOL     OW27024   2.062   5.156   1.138  0.5285 -0.3163 -0.4711
 7661SOL    HW127025   2.033   5.106   1.215 -0.5164  0.9299 -0.0150
 7661SOL    HW227026   2.129   5.215   1.172  0.0430  0.2592 -0.5043
 7662SOL     OW27027   7.842   0.942   9.901  0.6319 -0.2011  0.1411
 7662SOL    HW127028   7.830   0.958   9.995 -0.0741 -1.5899  0.3170
 7662SOL    HW227029   7.782   0.870   9.881 -0.9568  1.5668 -1.8948
 7663SOL     OW27030   1.469   2.344   4.338  0.2621 -0.5323  0.4504
 7663SOL    HW127031   1.378   2.372   4.330 -0.0539 -1.7464 -0.5849
 7663SOL    HW227032   1.467   2.272   4.400  0.4302 -0.9141  0.0180
 7664SOL     OW27033   1.041   7.375   0.993 -0.0701 -0.0539 -0.4157
 7664SOL    HW127034   1.086   7.400   1.074 -1.1708 -0.9005  0.4950
 7664SOL    HW227035   0.964   7.432   0.990 -0.7871 -0.9722 -0.0985
 7665SOL     OW27036   2.390   6.187   3.519  0.2764  1.0383 -0.1664
 7665SOL    HW127037   2.470   6.236   3.536  1.2071 -0.4065 -0.1344
 7665SOL    HW227038   2.404   6.145   3.434  0.1355 -0.3076  0.4493
 7666SOL     OW27039   6.464   1.278   9.290  0.3771 -0.3982  0.1660
 7666SOL    HW127040   6.549   1.314   9.314  0.7845 -1.0236 -0.3075
 7666SOL    HW227041   6.404   1.352   9.294  1.2778  0.4572 -1.2388
 7667SOL     OW27042   7.293   1.382   9.828 -0.1351  0.0455 -0.4877
 7667SOL    HW127043   7.363   1.316   9.823 -3.4704 -3.9006 -0.8567
 7667SOL    HW227044   7.292   1.422   9.741  0.6162 -1.0873 -1.0431
 7668SOL     OW27045   7.316   1.706  10.139  0.2681  0.1893 -0.5978
 7668SOL    HW127046   7.353   1.623  10.109 -0.7337  0.0746 -1.5961
 7668SOL    HW227047   7.385   1.771  10.122  1.7014 -0.6385  1.7273
 7669SOL     OW27048   1.502   2.307   5.734  0.0330 -0.4938 -0.3878
 7669SOL    HW127049   1.532   2.366   5.665  1.6599 -3.0479 -2.0175
 7669SOL    HW227050   1.456   2.237   5.688  1.0958 -2.2424  1.0502
 7670SOL     OW27051   6.515   3.239   5.551 -0.3559  0.5004  0.4250
 7670SOL    HW127052   6.544   3.203   5.635 -1.6343 -0.3982  0.4917
 7670SOL    HW227053   6.586   3.218   5.490  0.6676  1.3099  1.2781
 7671SOL     OW27054   4.992   4.281   5.541 -0.1226  0.4363  0.1887
 7671SOL    HW127055   5.034   4.366   5.557 -0.2463  0.3911  0.7454
 7671SOL    HW227056   5.036   4.221   5.601  1.3800 -0.3407 -1.5691
 7672SOL     OW27057   2.892   6.125   0.769 -0.3649  0.2796  0.6671
 7672SOL    HW127058   2.978   6.141   0.807 -0.1942 -0.2555  0.5212
 7672SOL    HW227059   2.895   6.166   0.683  0.0399 -0.4435  0.3258
 7673SOL     OW27060   0.853  10.068   4.598 -0.2013  0.0261 -0.3150
 7673SOL    HW127061   0.931  10.095   4.646 -0.0315  0.0104 -0.5804
 7673SOL    HW227062   0.870  10.094   4.507 -1.4006  1.9643 -0.0303
 7674SOL     OW27063   3.924   7.281   9.305 -0.2735  0.0560 -0.2311
 7674SOL    HW127064   3.960   7.192   9.304  0.1585  0.2240  0.1265
 7674SOL    HW227065   3.960   7.320   9.385 -1.6921  0.0512  0.4470
 7675SOL     OW27066   3.094   4.882   2.139  0.2233  0.7068 -0.2654
 7675SOL    HW127067   3.110   4.912   2.229 -0.0576 -1.0429  0.4126
 7675SOL    HW227068   3.083   4.787   2.147  0.2615  0.5033 -2.1732
 7676SOL     OW27069   7.735   6.473   9.681  0.2756  0.0448  0.0246
 7676SOL    HW127070   7.735   6.461   9.586 -0.7928 -0.5178  0.0839
 7676SOL    HW227071   7.743   6.567   9.693 -0.1221  0.1727 -0.6447
 7677SOL     OW27072  10.216   2.529   4.942 -0.4279 -0.3639 -0.1146
 7677SOL    HW127073  10.256   2.566   4.863 -0.1498  0.7340  0.5376
 7677SOL    HW227074  10.169   2.452   4.909 -0.4444  0.1515 -1.3836
 7678SOL     OW27075   3.855   8.337  10.247 -0.3642  0.1380  0.2647
 7678SOL    HW127076   3.868   8.243  10.241  1.6515  0.4381 -1.1184
 7678SOL    HW227077   3.904   8.363  10.325  0.0058  0.1850  0.0148
 7679SOL     OW27078   8.580   5.374   0.306 -0.1535 -0.5078 -0.0050
 7679SOL    HW127079   8.632   5.326   0.370  1.9402 -0.3765 -1.4745
 7679SOL    HW227080   8.635   5.375   0.227 -2.4144 -0.2939 -1.6681
 7680SOL     OW27081   2.383   4.168   0.862 -0.7644 -0.2356  0.0182
 7680SOL    HW127082   2.351   4.232   0.925 -0.3382 -0.3373  0.3449
 7680SOL    HW227083   2.308   4.111   0.845 -1.2740  0.6070 -0.6113
 7681SOL     OW27084  10.096   1.630   0.844 -0.1809 -0.0087  0.1331
 7681SOL    HW127085  10.134   1.565   0.785 -0.4175 -0.6459  0.6768
 7681SOL    HW227086  10.107   1.593   0.931  1.4009  1.5290  0.6510
 7682SOL     OW27087   1.679   9.165   2.610 -0.0558  0.9340  0.3466
 7682SOL    HW127088   1.612   9.223   2.646  0.0162  1.3222 -0.1246
 7682SOL    HW227089   1.744   9.225   2.573  1.6935  0.6597  2.7157
 7683SOL     OW27090   5.034   8.934   5.232  0.0899 -0.3437  0.0110
 7683SOL    HW127091   5.120   8.898   5.250  0.9096  1.1565 -0.6840
 7683SOL    HW227092   5.009   8.979   5.313  1.1197  1.3420 -0.5505
 7684SOL     OW27093   1.901   9.679   3.354 -0.3101  1.2298 -0.4673
 7684SOL    HW127094   1.888   9.732   3.275 -0.6058  2.2950  0.2676
 7684SOL    HW227095   1.889   9.741   3.426  0.9749  0.5096  0.4043
 7685SOL     OW27096   2.911   0.479   6.220 -1.2806  0.0000 -0.5580
 7685SOL    HW127097   2.870   0.421   6.285  1.1715 -1.2232  0.0107
 7685SOL    HW227098   2.950   0.419   6.157 -0.0209  1.0740 -0.8277
 7686SOL     OW27099   6.365   1.932   9.734  0.5813  0.1065 -0.0096
 7686SOL    HW127100   6.439   1.894   9.781 -0.1646 -0.8804  0.4138
 7686SOL    HW227101   6.372   2.026   9.749  0.5255 -0.1438  1.8769
 7687SOL     OW27102   6.001   5.010   8.840  0.3126 -0.1977  0.1436
 7687SOL    HW127103   5.960   5.094   8.816  1.8272  0.7994  0.8842
 7687SOL    HW227104   6.095   5.028   8.836  0.6846 -2.1059 -0.4275
 7688SOL     OW27105   1.694   2.538   9.784 -0.2605  0.4749 -0.2726
 7688SOL    HW127106   1.765   2.478   9.806  0.3444  1.2110 -0.1868
 7688SOL    HW227107   1.729   2.593   9.715 -0.5408  1.2283  0.1672
 7689SOL     OW27108   6.979   2.461  10.059  0.0998 -0.0891 -0.2871
 7689SOL    HW127109   6.924   2.441   9.984  2.3932  2.6396 -2.9554
 7689SOL    HW227110   6.978   2.556  10.066  0.3400 -0.2095  2.9468
 7690SOL     OW27111   6.322   2.543   8.568  0.3114  0.2709 -0.0152
 7690SOL    HW127112   6.324   2.485   8.644 -1.1044  0.4869  0.2145
 7690SOL    HW227113   6.284   2.624   8.600 -2.6491 -0.4149 -1.3726
 7691SOL     OW27114   2.558  10.019   4.605 -0.3752  0.2626 -0.2976
 7691SOL    HW127115   2.620  10.024   4.532 -1.0221 -0.1667 -0.8935
 7691SOL    HW227116   2.517  10.105   4.608  1.7170  1.3105  1.4761
 7692SOL     OW27117   9.023   0.484   9.445 -0.3117 -0.0033  0.0672
 7692SOL    HW127118   9.014   0.515   9.354 -0.5913 -0.8111 -0.1910
 7692SOL    HW227119   8.958   0.414   9.453 -0.4362  0.2042  0.9620
 7693SOL     OW27120   7.325   8.541   3.250  0.4602 -0.5062  0.4455
 7693SOL    HW127121   7.282   8.614   3.205  0.1544 -0.8772  0.1357
 7693SOL    HW227122   7.254   8.482   3.275  0.7202 -0.7759  0.5550
 7694SOL     OW27123   7.114   1.056   0.301  0.0865 -0.2274 -0.1007
 7694SOL    HW127124   7.204   1.029   0.317  0.2006 -0.7232 -1.4887
 7694SOL    HW227125   7.086   1.095   0.384  0.9210 -1.8178  0.9820
 7695SOL     OW27126   5.800   5.519   4.767 -0.2188  0.0023  0.1923
 7695SOL    HW127127   5.750   5.520   4.849  0.5419  2.3662  0.6839
 7695SOL    HW227128   5.737   5.486   4.702 -1.6925  0.6295  1.2361
 7696SOL     OW27129   6.126   9.731   5.077 -0.5433  0.1567  0.1045
 7696SOL    HW127130   6.082   9.790   5.016  0.5619  1.6625  0.7131
 7696SOL    HW227131   6.189   9.786   5.123  0.8185 -1.5854  0.4317
 7697SOL     OW27132   6.270   0.159   6.782  0.1310  0.1070  0.2580
 7697SOL    HW127133   6.243   0.069   6.763 -2.2719  0.9965 -0.9783
 7697SOL    HW227134   6.336   0.179   6.716  1.8276 -1.1837  1.4888
 7698SOL     OW27135   3.216   2.707   9.904  0.0164  0.6697 -0.0895
 7698SOL    HW127136   3.251   2.696   9.815 -0.6103 -2.2125 -0.0851
 7698SOL    HW227137   3.284   2.671   9.961 -0.9820 -0.7574  0.2652
 7699SOL     OW27138   1.272   1.487   5.676  0.2808 -0.0631 -0.4125
 7699SOL    HW127139   1.340   1.506   5.741  0.4406 -2.1278  0.0988
 7699SOL    HW227140   1.208   1.434   5.724  0.9906 -2.6788 -2.1506
 7700SOL     OW27141  10.176   0.068   9.029  0.4618  0.0502 -0.1090
 7700SOL    HW127142  10.100   0.022   8.993  0.6133 -0.3533  0.0890
 7700SOL    HW227143  10.140   0.125   9.096  0.0655  1.4083 -1.4121
 7701SOL     OW27144   2.563   3.817   9.130 -0.4620 -0.4008  0.5962
 7701SOL    HW127145   2.486   3.846   9.082 -0.8483 -2.2942 -0.0120
 7701SOL    HW227146   2.542   3.834   9.222 -1.2438 -0.1174  0.3757
 7702SOL     OW27147   0.995   2.989   8.737  0.2920 -0.2243 -0.1086
 7702SOL    HW127148   0.952   3.032   8.811 -1.5265 -0.3951 -1.0142
 7702SOL    HW227149   0.946   3.018   8.661  1.5475 -0.7887 -1.1662
 7703SOL     OW27150   0.249   3.916   6.720 -0.2043 -0.2662 -0.8704
 7703SOL    HW127151   0.281   3.826   6.718 -2.1845 -1.0632 -0.0040
 7703SOL    HW227152   0.153   3.907   6.720 -0.4538  1.8526 -0.9140
 7704SOL     OW27153   3.618   2.911   5.844 -0.0103 -0.4711 -0.3155
 7704SOL    HW127154   3.628   2.894   5.750 -0.6780 -0.9107 -0.3072
 7704SOL    HW227155   3.529   2.944   5.854 -0.0299 -0.6668  0.2004
 7705SOL     OW27156   5.425   8.151   1.813 -0.1908 -0.5089 -0.0014
 7705SOL    HW127157   5.347   8.176   1.763 -0.8554 -0.8422  0.8354
 7705SOL    HW227158   5.390   8.114   1.894  0.8508  0.4060  0.9029
 7706SOL     OW27159   0.540   8.036   9.366  0.3301 -0.6113 -0.4422
 7706SOL    HW127160   0.525   8.031   9.272  1.9787  0.3550 -0.8063
 7706SOL    HW227161   0.587   8.119   9.378  0.4274 -0.8719  1.1846
 7707SOL     OW27162   1.694   3.270   4.829  0.3664  0.5844 -0.0201
 7707SOL    HW127163   1.789   3.281   4.834  0.6087 -1.3642  0.2727
 7707SOL    HW227164   1.674   3.200   4.890 -0.9815 -0.4469 -1.5454
 7708SOL     OW27165   9.088   2.124   9.799  0.1287  0.1210 -0.1151
 7708SOL    HW127166   8.997   2.125   9.826  0.3388  0.4807  0.6124
 7708SOL    HW227167   9.130   2.058   9.855  0.7241  1.4190  1.0496
 7709SOL     OW27168   7.989   5.814   0.483  0.2333 -0.2061 -0.5469
 7709SOL    HW127169   7.982   5.718   0.479 -1.8008 -0.0833 -0.9243
 7709SOL    HW227170   8.026   5.839   0.398  2.8737 -0.7455  0.3593
 7710SOL     OW27171   5.625   3.980   8.236  0.2433  0.2330  0.4418
 7710SOL    HW127172   5.714   3.959   8.208  0.4913 -0.5360  1.7381
 7710SOL    HW227173   5.626   3.970   8.331 -0.5199  3.0201  0.8294
 7711SOL     OW27174   0.649   2.582   5.249  0.5420  0.4310 -0.0700
 7711SOL    HW127175   0.652   2.565   5.155 -0.9380  1.9919 -0.4591
 7711SOL    HW227176   0.672   2.675   5.257  1.4015  0.1291  1.2007
 7712SOL     OW27177   9.794   6.014   5.090  0.8069 -0.0101 -0.0365
 7712SOL    HW127178   9.773   6.048   5.177  0.0965 -0.5936  0.0289
 7712SOL    HW227179   9.786   5.919   5.099  2.0373 -0.1691 -0.4079
 7713SOL     OW27180   2.009   1.583  10.033 -0.3539  0.0706 -0.1121
 7713SOL    HW127181   1.995   1.597  10.127  3.9468  0.9545  0.6005
 7713SOL    HW227182   2.089   1.531  10.028  0.8865  2.0023 -3.2858
 7714SOL     OW27183   0.258   9.308   4.678 -0.0969  0.1871  0.1300
 7714SOL    HW127184   0.269   9.224   4.633  0.8496 -0.6635  1.8725
 7714SOL    HW227185   0.280   9.373   4.611  1.7878 -1.0517 -0.5436
 7715SOL     OW27186   2.276   7.182   7.630 -0.0761  0.1472  0.1556
 7715SOL    HW127187   2.298   7.183   7.537  0.1391 -1.4644  0.1665
 7715SOL    HW227188   2.342   7.240   7.670  1.7955 -1.5337 -0.3293
 7716SOL     OW27189   0.133  10.161   6.493  0.1610  0.6857 -0.1486
 7716SOL    HW127190   0.193  10.197   6.559  1.5697 -2.6487  0.6052
 7716SOL    HW227191   0.190  10.136   6.420 -0.6249 -0.4261 -0.4089
 7717SOL     OW27192   0.197  10.226   7.696 -0.6830  0.1331 -0.3309
 7717SOL    HW127193   0.116  10.176   7.698 -0.2699 -0.5213  0.4405
 7717SOL    HW227194   0.219  10.240   7.788  1.9840 -2.8385 -0.3513
 7718SOL     OW27195   3.824   8.135   9.733  0.1156  0.4874  0.6696
 7718SOL    HW127196   3.761   8.139   9.805 -0.2119  0.0177  0.4144
 7718SOL    HW227197   3.900   8.090   9.770 -0.5256 -0.8818  0.3953
 7719SOL     OW27198   0.832   9.265   4.360 -0.0248 -0.5542 -0.3395
 7719SOL    HW127199   0.750   9.252   4.407 -1.8662 -0.2619 -3.2683
 7719SOL    HW227200   0.853   9.358   4.374 -0.5182 -0.4814 -0.0608
 7720SOL     OW27201   1.351   4.123   3.436 -0.2715 -0.5360 -0.7998
 7720SOL    HW127202   1.330   4.078   3.518 -1.1047 -1.2731 -1.4024
 7720SOL    HW227203   1.303   4.075   3.369 -0.0668  0.4107 -1.6521
 7721SOL     OW27204   3.889   1.218   7.383  0.4894 -0.1596  0.2517
 7721SOL    HW127205   3.947   1.154   7.425  3.6850  2.4332  0.1824
 7721SOL    HW227206   3.866   1.178   7.299  0.3672 -2.1537  1.1686
 7722SOL     OW27207   6.941   2.491   7.073  0.1517 -0.0750 -0.0303
 7722SOL    HW127208   6.969   2.438   6.998  0.1758 -0.6726  0.3867
 7722SOL    HW227209   6.881   2.434   7.121  2.3579 -0.8890  1.9940
 7723SOL     OW27210   6.508   0.475   1.989 -0.3945  0.0627  0.3035
 7723SOL    HW127211   6.517   0.532   1.912  1.1196 -0.2989  0.1723
 7723SOL    HW227212   6.419   0.441   1.984  0.0636 -0.9439 -2.0094
 7724SOL     OW27213   2.216   7.532   1.646 -0.1565  0.0216  0.3887
 7724SOL    HW127214   2.137   7.478   1.647 -1.3911  1.6167 -1.5431
 7724SOL    HW227215   2.216   7.572   1.559  2.1124  1.0652  0.7929
 7725SOL     OW27216   7.208   0.861   5.774 -0.0482  0.3354 -0.2594
 7725SOL    HW127217   7.281   0.914   5.742  1.5401 -1.1594  0.7347
 7725SOL    HW227218   7.243   0.773   5.783 -1.6567 -0.2137  1.3398
 7726SOL     OW27219   4.133   6.720   4.958 -0.2380 -0.5660  0.5449
 7726SOL    HW127220   4.182   6.760   4.886 -1.0178 -1.8442 -0.7387
 7726SOL    HW227221   4.201   6.691   5.020  0.4098  1.2074  0.7437
 7727SOL     OW27222   1.394   3.948   2.296 -0.0760  0.1137 -0.0105
 7727SOL    HW127223   1.454   3.925   2.225  0.1373  2.7663 -0.7831
 7727SOL    HW227224   1.443   4.010   2.350 -1.4702  0.9105  0.3832
 7728SOL     OW27225   9.064   9.767   1.951 -0.0090  0.6619  0.2422
 7728SOL    HW127226   9.148   9.723   1.965 -0.7154 -0.5904  0.6977
 7728SOL    HW227227   9.003   9.697   1.928 -0.9376  1.5497 -0.0988
 7729SOL     OW27228   7.455   2.620   6.457 -0.3531 -0.2293 -0.9990
 7729SOL    HW127229   7.385   2.604   6.394 -0.1605  2.2395 -1.9337
 7729SOL    HW227230   7.434   2.563   6.531 -2.4196 -0.7590 -1.9195
 7730SOL     OW27231   5.500   5.643   8.656  0.7477  1.1781 -0.4325
 7730SOL    HW127232   5.540   5.612   8.737 -0.1722 -1.1088 -0.7797
 7730SOL    HW227233   5.554   5.717   8.629  1.6986  1.3205  1.6997
 7731SOL     OW27234   6.323   3.199   2.843 -0.2333 -0.6196 -0.1228
 7731SOL    HW127235   6.388   3.212   2.774 -0.4101 -0.7371 -0.3107
 7731SOL    HW227236   6.325   3.281   2.893  0.4356 -0.8188  0.1932
 7732SOL     OW27237   2.505   4.197   1.898 -0.1807 -0.2849 -0.6395
 7732SOL    HW127238   2.529   4.252   1.823  0.7226 -2.4886 -2.0481
 7732SOL    HW227239   2.584   4.194   1.952  0.0649 -0.9001 -1.0263
 7733SOL     OW27240   2.754  10.134   4.391  0.1622  0.2625 -0.1371
 7733SOL    HW127241   2.838  10.087   4.394  0.1926  0.1231 -1.8125
 7733SOL    HW227242   2.774  10.222   4.422  1.1425  0.4771 -1.3092
 7734SOL     OW27243   3.651   8.277   9.483 -0.2473 -0.4908  0.0653
 7734SOL    HW127244   3.565   8.237   9.498 -0.1270 -0.0215  2.4889
 7734SOL    HW227245   3.631   8.367   9.458 -0.4603 -1.1608 -2.3789
 7735SOL     OW27246   0.738   1.941   6.702  0.4147 -0.3377 -0.6222
 7735SOL    HW127247   0.653   1.898   6.710  1.0245 -1.3244  0.9697
 7735SOL    HW227248   0.788   1.910   6.777  1.9271  0.8370 -1.0935
 7736SOL     OW27249   1.118   0.622   2.504 -0.3446  0.2494  0.0614
 7736SOL    HW127250   1.195   0.662   2.545 -0.7486  1.4494 -0.3173
 7736SOL    HW227251   1.129   0.528   2.519  1.4741  0.3402 -0.4493
 7737SOL     OW27252   4.256   8.270   4.509 -0.0419 -0.4711  0.3366
 7737SOL    HW127253   4.173   8.316   4.519  0.7860  0.8901  1.4362
 7737SOL    HW227254   4.319   8.339   4.489  0.6998 -1.5771 -1.3195
 7738SOL     OW27255   5.375   5.919   6.908  0.3632  0.9380  0.0695
 7738SOL    HW127256   5.379   5.865   6.829  4.5933 -1.1016  1.3830
 7738SOL    HW227257   5.297   5.888   6.954 -0.3066 -0.2004 -1.7247
 7739SOL     OW27258   1.418   7.856   2.157 -0.5837  0.1036 -0.1394
 7739SOL    HW127259   1.480   7.842   2.229 -0.9256 -1.0007 -0.0278
 7739SOL    HW227260   1.462   7.917   2.098 -0.1740  0.7974  0.8553
 7740SOL     OW27261   7.488   7.689   9.167 -0.3648 -0.5181 -0.3566
 7740SOL    HW127262   7.424   7.760   9.173  0.5367  0.2863  0.0402
 7740SOL    HW227263   7.573   7.733   9.177  0.1836 -1.7278  0.4478
 7741SOL     OW27264   1.041   5.803   7.269  0.0420 -0.0819 -0.1838
 7741SOL    HW127265   0.993   5.737   7.220 -0.0218 -1.2337  1.3368
 7741SOL    HW227266   1.000   5.803   7.356  0.5005  1.4742  0.0690
 7742SOL     OW27267   2.590   0.035   7.664  0.2378  0.4064 -0.2715
 7742SOL    HW127268   2.595   0.051   7.758  1.0883  1.2520 -0.4522
 7742SOL    HW227269   2.669   0.075   7.628 -0.5952  1.0340 -1.4765
 7743SOL     OW27270   2.746   5.069   6.435  0.5520  0.0142 -0.0821
 7743SOL    HW127271   2.660   5.072   6.478  0.1410  1.8310 -0.9380
 7743SOL    HW227272   2.731   5.018   6.355  0.0303  1.0945 -0.6868
 7744SOL     OW27273   2.936   4.479   5.615  0.3737 -0.0935 -0.1906
 7744SOL    HW127274   2.851   4.437   5.630  0.1716  0.4643  0.2901
 7744SOL    HW227275   2.946   4.539   5.690  1.1193 -0.0434 -0.3278
 7745SOL     OW27276   5.886   6.478   8.302 -0.0131 -0.4484  0.0510
 7745SOL    HW127277   5.929   6.551   8.346  0.5526 -0.7453 -0.0071
 7745SOL    HW227278   5.949   6.449   8.236  0.1503 -1.5804  0.6801
 7746SOL     OW27279   6.717   2.059   8.495  0.0406  0.5090 -0.0391
 7746SOL    HW127280   6.694   2.126   8.559 -1.2667  0.7897 -0.7738
 7746SOL    HW227281   6.673   2.087   8.414  0.3362 -0.6880 -0.6324
 7747SOL     OW27282   6.058   7.486   8.808 -0.2690  0.2407  0.4586
 7747SOL    HW127283   6.019   7.447   8.886 -1.7439  1.6516  0.4858
 7747SOL    HW227284   6.012   7.445   8.735  0.8030 -0.7539  0.3054
 7748SOL     OW27285   5.558   4.836   2.482 -0.0432 -0.2981  0.1088
 7748SOL    HW127286   5.559   4.930   2.497 -2.0187 -0.4834  1.9124
 7748SOL    HW227287   5.620   4.801   2.546  0.9689 -0.2417 -0.8080
 7749SOL     OW27288   5.842   6.295  10.269  0.2536 -0.0336  0.4709
 7749SOL    HW127289   5.885   6.260  10.347 -1.4455  0.6416  1.7729
 7749SOL    HW227290   5.749   6.277  10.282 -0.2650  1.6206 -0.5747
 7750SOL     OW27291   6.780   1.899   2.147  0.0152 -0.0125 -0.3832
 7750SOL    HW127292   6.839   1.972   2.164  0.0696 -0.4554  1.6028
 7750SOL    HW227293   6.827   1.843   2.086  0.1347  1.3863 -1.6214
 7751SOL     OW27294   7.348   3.668   9.381 -0.6206  0.0406 -0.1536
 7751SOL    HW127295   7.432   3.710   9.362 -0.6186  0.4316  0.6645
 7751SOL    HW227296   7.344   3.594   9.322  0.2723  0.0588 -0.2488
 7752SOL     OW27297   9.699   6.371   0.767  0.2121  0.0818  0.1006
 7752SOL    HW127298   9.724   6.358   0.859  1.2559  1.5529  0.0596
 7752SOL    HW227299   9.625   6.433   0.770 -1.2784 -1.6171  0.0313
 7753SOL     OW27300   6.448   0.339   8.995  0.3327 -0.3310  0.1856
 7753SOL    HW127301   6.413   0.328   8.906 -1.6337  2.5944  0.4507
 7753SOL    HW227302   6.383   0.393   9.039  2.8118  1.0470  2.4001
 7754SOL     OW27303   2.832   1.347   8.103  0.0268  0.0233  0.3048
 7754SOL    HW127304   2.840   1.331   8.009 -0.6165  1.2381  0.0208
 7754SOL    HW227305   2.899   1.413   8.122  0.3308 -0.4077  0.7611
 7755SOL     OW27306   5.211   6.812   3.163 -0.0370  0.0368  0.6422
 7755SOL    HW127307   5.252   6.890   3.201  1.4881 -0.6350  0.4440
 7755SOL    HW227308   5.159   6.777   3.235 -3.4216  2.9074 -0.1232
 7756SOL     OW27309   5.090   7.210   5.041 -0.1270  0.0376  0.2206
 7756SOL    HW127310   5.140   7.202   5.122  0.4594  0.1969 -0.1190
 7756SOL    HW227311   5.046   7.295   5.048 -1.3896 -0.6628  1.0825
 7757SOL     OW27312   4.287   5.504   9.740  0.0732  0.0842  0.0654
 7757SOL    HW127313   4.199   5.494   9.703  0.2236  0.1716 -0.3127
 7757SOL    HW227314   4.337   5.431   9.703  1.4345  2.5704 -3.4492
 7758SOL     OW27315   0.304   7.932   8.407  0.5850 -0.4970  0.6042
 7758SOL    HW127316   0.367   7.972   8.466  0.0014  0.1353  0.8075
 7758SOL    HW227317   0.356   7.906   8.330  1.0845  0.0345  0.7560
 7759SOL     OW27318   2.884   2.846   0.927  0.1103 -0.0365 -0.2717
 7759SOL    HW127319   2.923   2.869   1.012 -0.3693  0.3290 -0.1425
 7759SOL    HW227320   2.881   2.750   0.927  0.4685 -0.0498 -0.0406
 7760SOL     OW27321   1.030   0.512   7.954 -0.1046 -0.1385  0.1082
 7760SOL    HW127322   1.121   0.492   7.932 -0.0235  0.5604 -0.2375
 7760SOL    HW227323   0.989   0.427   7.967  0.3151 -0.5145 -0.8936
 7761SOL     OW27324   0.308   4.258   9.884 -0.1287 -0.6883 -0.6212
 7761SOL    HW127325   0.270   4.344   9.903 -0.5073 -0.8199 -0.7690
 7761SOL    HW227326   0.297   4.248   9.789  0.3411 -0.6983 -0.6753
 7762SOL     OW27327   0.300   5.672   0.100  0.4787 -0.0138  0.4800
 7762SOL    HW127328   0.357   5.608   0.057 -1.3696 -1.2548 -0.2476
 7762SOL    HW227329   0.302   5.648   0.193  2.2809  0.9164  0.7228
 7763SOL     OW27330   0.802   1.307   8.617  0.0058 -0.2461 -0.0658
 7763SOL    HW127331   0.850   1.389   8.620  0.1416 -0.3350  0.2384
 7763SOL    HW227332   0.722   1.325   8.667 -0.7402  0.1956 -1.3921
 7764SOL     OW27333   1.721   1.832   9.343 -0.0143  0.4945  0.3180
 7764SOL    HW127334   1.797   1.791   9.302 -2.2952 -1.4732 -2.3141
 7764SOL    HW227335   1.698   1.774   9.415  0.0546  0.2327  0.1304
 7765SOL     OW27336   4.834   6.643   7.896 -0.5825 -0.0276 -0.6889
 7765SOL    HW127337   4.883   6.698   7.956 -2.2034 -0.2281  0.9069
 7765SOL    HW227338   4.841   6.555   7.934 -0.9587 -0.2998 -1.2452
 7766SOL     OW27339   3.741   4.504   8.737  0.6648  0.0915  0.2971
 7766SOL    HW127340   3.645   4.499   8.742  0.6177 -1.6232 -1.2152
 7766SOL    HW227341   3.771   4.477   8.824 -0.2439 -2.7875 -0.1747
 7767SOL     OW27342   5.668   0.584   7.398 -0.4529  0.0364  0.2237
 7767SOL    HW127343   5.574   0.587   7.415 -0.1104  0.2002  2.2680
 7767SOL    HW227344   5.695   0.676   7.394 -0.2594 -0.0129  0.3685
 7768SOL     OW27345   8.661   7.102   2.987  0.0065  0.6296 -0.1396
 7768SOL    HW127346   8.743   7.057   3.007 -0.9101 -1.1679 -0.2309
 7768SOL    HW227347   8.639   7.073   2.899 -0.6555  1.2234 -0.1743
 7769SOL     OW27348   2.610   1.313   4.088  0.3125 -0.2710  0.5063
 7769SOL    HW127349   2.573   1.401   4.085 -1.8161 -1.1187 -0.1852
 7769SOL    HW227350   2.688   1.318   4.032  0.3182  1.1727  0.5880
 7770SOL     OW27351   9.862   7.748   2.155 -0.0854 -0.3859  0.1147
 7770SOL    HW127352   9.829   7.712   2.237  1.8292 -0.0644  1.0811
 7770SOL    HW227353   9.931   7.686   2.129 -2.6115 -2.2246 -2.9396
 7771SOL     OW27354   7.730   7.327   2.699  0.2648 -0.3457  0.0494
 7771SOL    HW127355   7.696   7.393   2.639  0.6534  0.1543  0.3716
 7771SOL    HW227356   7.680   7.339   2.780  0.9916  0.2103  0.4329
 7772SOL     OW27357   3.605   7.751   0.007  0.6983 -0.1340 -0.1139
 7772SOL    HW127358   3.560   7.833  -0.011 -0.7290 -0.6001  1.1541
 7772SOL    HW227359   3.617   7.750   0.102  1.5586 -0.9739 -0.2123
 7773SOL     OW27360   3.725   5.917   5.685 -0.1029  0.6177  0.0487
 7773SOL    HW127361   3.703   5.851   5.751 -2.2227 -0.1760 -1.3397
 7773SOL    HW227362   3.670   5.992   5.708 -0.7359  0.3934 -0.6666
 7774SOL     OW27363   2.883   7.991   6.888 -0.4389  0.1171  0.3558
 7774SOL    HW127364   2.883   7.953   6.976 -3.3804 -0.8727  0.0419
 7774SOL    HW227365   2.818   7.939   6.840 -0.8542  2.3236 -1.6346
 7775SOL     OW27366   0.252   7.198   0.715  0.2990  0.6090  0.3041
 7775SOL    HW127367   0.306   7.203   0.794  0.7516  1.5996 -0.0531
 7775SOL    HW227368   0.312   7.218   0.643 -0.3857  1.0428 -0.1639
 7776SOL     OW27369   1.079   4.663   2.125  0.1369 -0.9080 -0.5621
 7776SOL    HW127370   1.005   4.678   2.066  0.1544 -0.5617 -0.5000
 7776SOL    HW227371   1.152   4.710   2.085  0.1668 -0.7313 -0.3070
 7777SOL     OW27372   3.202   6.666   8.078 -0.1418  0.3936  0.2810
 7777SOL    HW127373   3.126   6.721   8.096 -0.8131 -0.8039  1.2323
 7777SOL    HW227374   3.211   6.611   8.156  1.9596  0.7775  0.3675
 7778SOL     OW27375   1.695   0.027   3.404  0.4084 -0.0887  0.0953
 7778SOL    HW127376   1.635   0.092   3.440  0.5374 -0.4693  1.0406
 7778SOL    HW227377   1.746  -0.003   3.480  1.5470 -0.0318 -0.6195
 7779SOL     OW27378   4.896   4.925   1.119  0.0868  0.1791  0.7069
 7779SOL    HW127379   4.913   4.842   1.162  0.0020 -0.9612 -1.3701
 7779SOL    HW227380   4.970   4.981   1.145  1.4798 -1.3418  0.1522
 7780SOL     OW27381   5.644   5.800   1.383 -0.3099  0.0948  0.5189
 7780SOL    HW127382   5.599   5.718   1.404 -2.7504  1.1021 -0.4406
 7780SOL    HW227383   5.685   5.784   1.298 -1.3292  0.0339  0.0207
 7781SOL     OW27384   2.550   5.009   0.437 -0.7652  0.3209  0.3533
 7781SOL    HW127385   2.460   4.987   0.415 -1.2728 -0.4953  2.9085
 7781SOL    HW227386   2.543   5.074   0.507  0.5834 -0.4082  1.2153
 7782SOL     OW27387   2.487   9.360   0.340  0.0187  0.1162 -0.5650
 7782SOL    HW127388   2.483   9.329   0.430  0.6531 -0.8288 -0.8522
 7782SOL    HW227389   2.535   9.292   0.292  1.2666  1.4306 -1.2709
 7783SOL     OW27390   5.559   1.893   1.310 -0.0225 -0.0189 -1.1792
 7783SOL    HW127391   5.538   1.843   1.388  1.8809 -0.4375 -0.8944
 7783SOL    HW227392   5.548   1.832   1.237  1.4804 -0.6518 -0.9065
 7784SOL     OW27393   9.402   9.246  10.264  0.0617  0.1305  0.4115
 7784SOL    HW127394   9.351   9.228  10.343  0.6482 -0.0134  0.7655
 7784SOL    HW227395   9.339   9.281  10.202 -0.5198 -0.3339  0.7398
 7785SOL     OW27396   5.626   5.714   3.996  0.2804  0.1918  0.5642
 7785SOL    HW127397   5.573   5.775   4.048  1.2333  1.2006  0.4066
 7785SOL    HW227398   5.686   5.675   4.059  0.4122  0.2564  0.4785
 7786SOL     OW27399   3.327   5.746   5.083 -0.5920  0.0025 -0.0218
 7786SOL    HW127400   3.242   5.745   5.126  0.1583  1.0865  1.5774
 7786SOL    HW227401   3.380   5.682   5.131 -0.0186  0.5443  0.0871
 7787SOL     OW27402   4.799   2.689   0.861 -0.4813  0.1986 -0.0581
 7787SOL    HW127403   4.762   2.701   0.774 -0.0153 -0.4567 -0.3574
 7787SOL    HW227404   4.824   2.596   0.864  2.0617  0.8055 -0.2493
 7788SOL     OW27405   2.487   2.946   0.287 -0.3619  0.6404 -0.0862
 7788SOL    HW127406   2.574   2.936   0.325 -1.5414  0.8976  2.9682
 7788SOL    HW227407   2.484   3.036   0.256 -0.0864  1.2431  1.5190
 7789SOL     OW27408   9.766   0.459   0.222  0.5827  0.3466  0.5971
 7789SOL    HW127409   9.689   0.483   0.273  0.0346  2.2522 -1.0028
 7789SOL    HW227410   9.762   0.364   0.216 -2.2678  0.4290 -0.3106
 7790SOL     OW27411   3.787   9.723   6.033 -0.1156  0.0290 -0.0412
 7790SOL    HW127412   3.743   9.689   6.111 -1.7607 -1.1102 -1.4005
 7790SOL    HW227413   3.752   9.812   6.022 -0.6934 -0.1973 -0.0630
 7791SOL     OW27414   6.159  10.277   0.071 -0.3460  0.5370 -0.1363
 7791SOL    HW127415   6.147  10.364   0.111 -1.3510  0.1682  0.4060
 7791SOL    HW227416   6.183  10.295  -0.020  1.6830  1.3977  0.5189
 7792SOL     OW27417   3.537   0.339   8.355  0.0862  0.5152 -0.5226
 7792SOL    HW127418   3.584   0.261   8.386 -1.5208  0.4006  1.9281
 7792SOL    HW227419   3.445   0.313   8.355 -0.3832  2.0714 -0.7465
 7793SOL     OW27420   7.682   7.109   6.313  0.3262  0.3397 -0.3802
 7793SOL    HW127421   7.642   7.189   6.349  0.2868  0.1792 -0.0618
 7793SOL    HW227422   7.720   7.136   6.230  0.1618  0.6533 -0.3542
 7794SOL     OW27423   8.036   0.425   2.198 -0.0617  0.5704  0.1401
 7794SOL    HW127424   8.099   0.379   2.142 -1.0189  0.8554 -1.2313
 7794SOL    HW227425   8.071   0.416   2.286  1.8578  0.6440 -0.5615
 7795SOL     OW27426   7.398   5.592   4.259  0.5924  0.4488  0.3419
 7795SOL    HW127427   7.412   5.510   4.308  0.3053  0.4980  0.5122
 7795SOL    HW227428   7.485   5.628   4.247  0.5792  1.1433  2.0562
 7796SOL     OW27429   8.858   6.233   0.173  0.0298 -0.1379 -0.0339
 7796SOL    HW127430   8.806   6.222   0.252 -2.7392  0.3950 -1.6705
 7796SOL    HW227431   8.827   6.165   0.114  1.0604  0.3224 -1.1579
 7797SOL     OW27432   9.441   8.730   8.696  0.5124 -0.0584  0.2334
 7797SOL    HW127433   9.385   8.744   8.619 -0.9721  1.1621  1.4824
 7797SOL    HW227434   9.403   8.655   8.740  0.5416  0.0849  0.5027
 7798SOL     OW27435   9.538   7.369   1.095 -0.1498  0.0688 -0.4806
 7798SOL    HW127436   9.570   7.438   1.155  0.2280  0.1676 -0.7934
 7798SOL    HW227437   9.590   7.292   1.118 -1.1933 -0.3838  0.4910
 7799SOL     OW27438   1.179   5.679   6.105 -0.1171 -0.1709 -0.2273
 7799SOL    HW127439   1.128   5.672   6.024 -0.5878  0.3831  0.0226
 7799SOL    HW227440   1.130   5.627   6.169 -0.1014 -0.0546 -0.1201
 7800SOL     OW27441   5.021   1.902   0.721 -0.7665  0.0697  0.1921
 7800SOL    HW127442   4.966   1.914   0.798 -0.3023 -0.1046  0.5581
 7800SOL    HW227443   5.061   1.988   0.707 -1.0592  0.1726 -0.0197
 7801SOL     OW27444   1.137   6.450   1.087  0.1876  0.1760 -0.5525
 7801SOL    HW127445   1.091   6.462   1.170 -2.0635  0.6380 -1.7938
 7801SOL    HW227446   1.091   6.379   1.044  0.7447  0.5408 -1.7969
 7802SOL     OW27447   8.598   8.155   8.818 -0.0383 -0.2060 -0.5089
 7802SOL    HW127448   8.662   8.086   8.835  1.1721  0.8160 -0.7875
 7802SOL    HW227449   8.537   8.117   8.754  0.3894 -1.1373 -0.3636
 7803SOL     OW27450   8.168   0.345   3.614 -0.1609  0.2512  0.6349
 7803SOL    HW127451   8.176   0.326   3.520 -0.5919  0.0113  0.6449
 7803SOL    HW227452   8.078   0.319   3.636  0.4295 -1.1686  1.4593
 7804SOL     OW27453   3.313   5.425   9.880 -0.7355  0.1851 -0.2683
 7804SOL    HW127454   3.283   5.355   9.823 -0.1030  1.1164 -1.7946
 7804SOL    HW227455   3.364   5.381   9.948  1.4381 -0.7222 -2.3726
 7805SOL     OW27456   9.787   6.677   5.159  0.0130 -0.0977  0.0324
 7805SOL    HW127457   9.838   6.679   5.241  2.6046 -3.2039 -1.2851
 7805SOL    HW227458   9.712   6.622   5.180  0.5394 -0.6930  0.4288
 7806SOL     OW27459   2.858   4.406   2.103 -0.0976  0.2439 -0.1796
 7806SOL    HW127460   2.803   4.477   2.135 -0.8752 -0.1594 -0.5784
 7806SOL    HW227461   2.883   4.433   2.015 -2.1552 -0.8695 -1.1928
 7807SOL     OW27462   9.151   1.432   7.990 -0.2972  0.2122 -0.1142
 7807SOL    HW127463   9.153   1.514   7.940  0.5106  1.0399  1.2314
 7807SOL    HW227464   9.076   1.442   8.049 -1.1762 -0.7160 -1.0154
 7808SOL     OW27465   9.909   2.757   8.309 -0.7048 -0.0847 -0.2007
 7808SOL    HW127466   9.976   2.754   8.241 -0.5035  1.2652 -0.0913
 7808SOL    HW227467   9.831   2.790   8.265 -1.0304 -0.7134 -0.1097
 7809SOL     OW27468   6.509   6.958   3.671 -0.3803  0.0947  0.6271
 7809SOL    HW127469   6.544   6.962   3.582 -0.7022 -0.3179  0.4809
 7809SOL    HW227470   6.462   6.875   3.675  0.0287 -0.1158  1.3284
 7810SOL     OW27471   1.595   5.631   0.008 -0.2212 -0.1984  0.0177
 7810SOL    HW127472   1.593   5.646  -0.086  0.1484  3.0686  0.4252
 7810SOL    HW227473   1.516   5.674   0.041  0.5754  0.3001  1.3452
 7811SOL     OW27474   4.888   4.370   6.368  0.0143  0.3130  0.3146
 7811SOL    HW127475   4.907   4.458   6.336  0.7894  0.1896  0.4132
 7811SOL    HW227476   4.873   4.318   6.289  0.7770  0.2652  0.1969
 7812SOL     OW27477   0.082   7.567   2.891  0.2295 -0.1225  0.2609
 7812SOL    HW127478   0.089   7.647   2.944  0.5042 -0.5860  0.9363
 7812SOL    HW227479   0.067   7.498   2.955 -1.9229 -0.3747 -0.4345
 7813SOL     OW27480   0.321   1.753   8.349  0.5087  0.1862  0.0629
 7813SOL    HW127481   0.322   1.683   8.413  1.6360  0.4632  0.3694
 7813SOL    HW227482   0.342   1.832   8.399 -1.2014  0.8486 -0.1867
 7814SOL     OW27483   1.581   3.831   7.316 -0.1068  0.4952  0.0955
 7814SOL    HW127484   1.674   3.848   7.297  0.1176  0.8921  1.4632
 7814SOL    HW227485   1.541   3.917   7.317 -0.6216  0.2905 -0.9911
 7815SOL     OW27486   2.235   8.670   1.095 -0.1824 -0.1439 -0.2298
 7815SOL    HW127487   2.148   8.711   1.095 -0.6888 -1.1628 -0.6642
 7815SOL    HW227488   2.293   8.735   1.134 -1.2054  0.4405  0.3587
 7816SOL     OW27489  10.198   4.672   9.564 -0.4114  0.0491 -0.1277
 7816SOL    HW127490  10.257   4.692   9.492 -0.9996  1.8487 -0.1626
 7816SOL    HW227491  10.217   4.738   9.630  0.8306 -2.1682  1.8671
 7817SOL     OW27492   6.054   0.586   7.572  0.2359 -0.2091 -0.3990
 7817SOL    HW127493   6.044   0.543   7.487  1.4288 -0.4129 -0.4481
 7817SOL    HW227494   6.126   0.647   7.560  1.8884 -1.7499  1.0127
 7818SOL     OW27495   1.352   4.843   5.550 -0.1049  0.2345 -0.4662
 7818SOL    HW127496   1.350   4.828   5.645  0.9196  1.0907 -0.2887
 7818SOL    HW227497   1.295   4.919   5.537  1.3059  1.3694 -0.2518
 7819SOL     OW27498   4.713   2.799   8.359  0.0272 -0.1261  0.4226
 7819SOL    HW127499   4.787   2.740   8.375  2.1685  2.0295 -0.8205
 7819SOL    HW227500   4.743   2.884   8.392 -3.1911  0.2994  2.7959
 7820SOL     OW27501   2.225   9.249   8.811 -0.0109 -0.0971 -0.1202
 7820SOL    HW127502   2.172   9.201   8.875 -2.2108  1.5601 -0.5936
 7820SOL    HW227503   2.191   9.338   8.813  2.0225  0.7921 -1.3330
 7821SOL     OW27504   2.918   9.737   9.872 -0.0328  0.1550 -0.3621
 7821SOL    HW127505   2.852   9.768   9.934 -1.0999 -2.5571  0.0055
 7821SOL    HW227506   2.950   9.817   9.828 -2.5187  1.6999  0.4466
 7822SOL     OW27507   2.838   4.797   4.255  0.1197  0.3112 -0.3228
 7822SOL    HW127508   2.820   4.862   4.187  0.4662 -0.5420 -1.2417
 7822SOL    HW227509   2.877   4.847   4.326 -0.8812  1.3311 -0.4548
 7823SOL     OW27510   6.306   7.179   4.618  0.0206 -0.0081 -0.2828
 7823SOL    HW127511   6.318   7.088   4.646 -0.0937 -0.3013 -1.1471
 7823SOL    HW227512   6.212   7.195   4.626  0.0300  0.0119 -0.2097
 7824SOL     OW27513   2.610   8.337   3.743  0.1812  0.1424 -0.5682
 7824SOL    HW127514   2.548   8.316   3.673  1.2902  0.5694 -1.7260
 7824SOL    HW227515   2.682   8.382   3.698 -0.5530  3.4928  1.2704
 7825SOL     OW27516   2.549   7.161   2.479 -0.4412  0.3475 -0.1157
 7825SOL    HW127517   2.511   7.119   2.556  0.5399 -2.1173 -0.8786
 7825SOL    HW227518   2.473   7.189   2.427 -1.1099  0.9126  1.1244
 7826SOL     OW27519   6.705   9.813   5.397 -0.1437  0.1431  0.5987
 7826SOL    HW127520   6.721   9.850   5.310 -4.0726 -0.4992 -0.5962
 7826SOL    HW227521   6.780   9.756   5.413  0.4215 -0.2697 -2.7488
 7827SOL     OW27522   9.194   8.030   3.383  0.5372 -0.0896 -0.0677
 7827SOL    HW127523   9.119   8.017   3.325  1.1704  2.4628 -1.6464
 7827SOL    HW227524   9.199   8.125   3.395  2.7779 -0.2637  1.0176
 7828SOL     OW27525   0.618   0.676   8.033 -0.0108  0.2170  0.1033
 7828SOL    HW127526   0.650   0.753   7.986 -1.4928  0.6256 -0.3069
 7828SOL    HW227527   0.581   0.620   7.965 -0.3669 -0.1169  0.5643
 7829SOL     OW27528   7.076   2.021   7.484 -0.1113  0.0404  0.2934
 7829SOL    HW127529   7.162   1.996   7.450  0.0902  0.6361  0.3495
 7829SOL    HW227530   7.087   2.024   7.579 -0.4304 -0.7226  0.3655
 7830SOL     OW27531   2.337   6.088   0.520 -0.0619 -0.1557  0.1080
 7830SOL    HW127532   2.289   6.171   0.528 -0.8796 -0.3462 -2.1142
 7830SOL    HW227533   2.416   6.111   0.471  0.4239 -0.4668  0.7324
 7831SOL     OW27534   9.757   9.039   0.702  0.4634 -0.0879 -0.7892
 7831SOL    HW127535   9.782   9.070   0.615 -1.1018 -0.2462 -1.3178
 7831SOL    HW227536   9.765   9.116   0.758 -0.8608  0.6582 -1.5752
 7832SOL     OW27537   9.421   5.030   8.336  0.2694  0.0312 -0.6731
 7832SOL    HW127538   9.364   5.066   8.267 -0.4608  0.6171  0.2098
 7832SOL    HW227539   9.509   5.054   8.309 -0.0881  1.2012 -0.8597
 7833SOL     OW27540   6.189   9.075   2.933 -0.3594  0.2818 -0.2074
 7833SOL    HW127541   6.136   9.022   2.873  0.2113  0.3879 -0.8223
 7833SOL    HW227542   6.266   9.020   2.950 -0.1228  0.6012 -0.2465
 7834SOL     OW27543   4.305   7.294   5.392 -0.3719  0.7225  0.1466
 7834SOL    HW127544   4.233   7.232   5.382  0.1876 -0.2534  1.7219
 7834SOL    HW227545   4.327   7.321   5.303 -0.7516 -1.2235 -0.5778
 7835SOL     OW27546   3.958   5.198   5.769  0.1394  0.0243 -0.4080
 7835SOL    HW127547   3.950   5.223   5.677 -1.8243  0.5114 -0.1559
 7835SOL    HW227548   3.885   5.139   5.785  0.3933  0.0110  0.8583
 7836SOL     OW27549   3.703   1.486   7.198 -0.5638  0.6707 -0.0106
 7836SOL    HW127550   3.635   1.421   7.180  0.4328 -0.2825 -0.4121
 7836SOL    HW227551   3.763   1.443   7.259 -0.6898  1.7631  0.9182
 7837SOL     OW27552   2.114   0.332   9.911  0.0263  0.2690  0.6368
 7837SOL    HW127553   2.090   0.358  10.000 -0.5260  1.7321  0.1079
 7837SOL    HW227554   2.152   0.411   9.873  1.5507 -0.7306 -0.0106
 7838SOL     OW27555   1.098   4.454   7.735 -0.2336 -0.5358 -0.0722
 7838SOL    HW127556   1.008   4.483   7.725 -0.3450 -1.1226 -0.8031
 7838SOL    HW227557   1.146   4.534   7.758 -1.0289 -0.3267  0.9398
 7839SOL     OW27558   9.101   3.220   7.832  0.2004 -0.4137 -0.3798
 7839SOL    HW127559   9.070   3.137   7.795  0.2025 -0.0714 -1.1784
 7839SOL    HW227560   9.196   3.211   7.834  0.2068 -0.4068 -0.5531
 7840SOL     OW27561   3.617   7.362   6.697  1.2592 -0.3334 -0.3636
 7840SOL    HW127562   3.616   7.295   6.629 -0.9826  0.0458 -0.7874
 7840SOL    HW227563   3.667   7.323   6.769  2.2132 -1.4080 -1.5721
 7841SOL     OW27564   7.042   8.542   9.460 -0.3385  0.2103 -0.0427
 7841SOL    HW127565   6.973   8.510   9.403 -1.5867  1.3455  0.7731
 7841SOL    HW227566   7.042   8.637   9.448 -0.3853  0.4433  1.5423
 7842SOL     OW27567   5.911   3.465   7.086  0.4968  0.0235 -0.2161
 7842SOL    HW127568   5.995   3.458   7.041  0.3183 -0.1063 -0.5241
 7842SOL    HW227569   5.903   3.558   7.106  0.7391  0.0288 -0.1371
 7843SOL     OW27570   3.668   8.334   5.720  0.2277  0.0801 -0.5796
 7843SOL    HW127571   3.594   8.343   5.779 -1.0393 -2.8260 -1.5107
 7843SOL    HW227572   3.636   8.365   5.635  0.9039  1.0323 -0.5044
 7844SOL     OW27573   3.904   7.895   2.356 -0.0699 -0.4339 -0.1100
 7844SOL    HW127574   3.941   7.900   2.444  1.6405 -0.4115 -0.7862
 7844SOL    HW227575   3.826   7.950   2.359  0.1523 -0.1698  1.2979
 7845SOL     OW27576   4.381   6.404   6.612 -1.1844  0.2863 -0.0240
 7845SOL    HW127577   4.394   6.311   6.596 -2.0575  0.0783  0.4448
 7845SOL    HW227578   4.408   6.446   6.530 -1.4693 -0.4308 -0.4943
 7846SOL     OW27579   8.223   1.535   0.410  0.3802  0.2425 -0.2422
 7846SOL    HW127580   8.196   1.627   0.412  0.7351  0.4825 -2.7440
 7846SOL    HW227581   8.144   1.488   0.380  0.5004 -0.1199  0.0050
 7847SOL     OW27582   4.138   6.827   2.172 -0.1764 -0.3703  0.4380
 7847SOL    HW127583   4.225   6.787   2.180 -0.4982 -1.3815 -0.7243
 7847SOL    HW227584   4.078   6.761   2.208 -0.6559 -0.6765 -0.8725
 7848SOL     OW27585   0.632   8.885   3.292  0.4039 -0.3696 -0.1991
 7848SOL    HW127586   0.623   8.942   3.369 -1.5532 -0.5999 -0.2085
 7848SOL    HW227587   0.666   8.943   3.224 -0.4830  0.5463  0.1019
 7849SOL     OW27588   0.913   4.349   5.734 -0.5822  0.3254  0.8772
 7849SOL    HW127589   0.821   4.375   5.743 -1.5547 -2.4727 -0.0080
 7849SOL    HW227590   0.911   4.253   5.729  2.2592  0.2261 -0.6093
 7850SOL     OW27591   9.630   9.505   4.144  0.1803 -0.2219  0.0494
 7850SOL    HW127592   9.621   9.579   4.084  1.6999 -0.0104  0.0641
 7850SOL    HW227593   9.675   9.541   4.220  2.3163 -1.4541 -0.5592
 7851SOL     OW27594   6.736   2.860   1.582  0.7772  0.2200 -0.1893
 7851SOL    HW127595   6.785   2.780   1.597  1.5467  0.9570  1.4364
 7851SOL    HW227596   6.799   2.931   1.593  0.2833  1.0859 -2.2890
 7852SOL     OW27597   8.018   9.669   0.049  0.1236  0.6117 -0.0683
 7852SOL    HW127598   7.954   9.653   0.118 -1.8705  1.4388 -1.6240
 7852SOL    HW227599   8.059   9.584   0.033 -1.5503 -0.2535  0.0844
 7853SOL     OW27600   5.657   2.649   0.416 -0.5733 -0.1017  0.2812
 7853SOL    HW127601   5.724   2.654   0.348 -1.5513 -0.9516 -0.8045
 7853SOL    HW227602   5.687   2.579   0.475  0.7824  1.3191  1.3539
 7854SOL     OW27603   0.482   9.157   1.886 -0.5483 -0.1717  0.0798
 7854SOL    HW127604   0.510   9.155   1.977 -1.1880 -1.1495  0.2682
 7854SOL    HW227605   0.562   9.177   1.837 -0.2859  0.8101  0.8710
 7855SOL     OW27606   8.416   1.697   4.123  0.2798 -0.7052  0.0014
 7855SOL    HW127607   8.416   1.767   4.057  1.7593 -1.2228 -0.5858
 7855SOL    HW227608   8.360   1.629   4.085  1.6265 -1.2711 -1.0836
 7856SOL     OW27609   8.607   2.975   4.957  0.1033  0.2086  0.2063
 7856SOL    HW127610   8.701   2.980   4.971  0.2718 -0.6590 -0.4854
 7856SOL    HW227611   8.597   2.977   4.861 -0.5901  0.5215  0.2775
 7857SOL     OW27612   2.579   0.559   5.553 -0.3168 -0.1745 -0.2814
 7857SOL    HW127613   2.488   0.550   5.580 -0.2476  0.0012  0.0212
 7857SOL    HW227614   2.628   0.505   5.615  0.1306  2.3299  1.7347
 7858SOL     OW27615   5.493   5.445   0.138 -0.1434 -0.1010 -0.3318
 7858SOL    HW127616   5.544   5.364   0.138 -0.6986 -0.4545 -0.3640
 7858SOL    HW227617   5.523   5.493   0.060 -0.0412 -0.4246 -0.4918
 7859SOL     OW27618  10.149   2.607   8.288  0.4017  0.3258 -0.4525
 7859SOL    HW127619  10.154   2.531   8.347  1.6670  0.6549 -0.1168
 7859SOL    HW227620  10.094   2.577   8.215 -1.9862  0.1997  1.2854
 7860SOL     OW27621   7.140   2.075   8.790 -0.5170 -0.3468 -0.4146
 7860SOL    HW127622   7.114   2.167   8.792 -0.9061 -0.4431 -1.0725
 7860SOL    HW227623   7.224   2.075   8.744 -0.6932 -0.3667 -0.7336
 7861SOL     OW27624   2.186   5.739   5.129 -0.5226 -0.1903 -0.3376
 7861SOL    HW127625   2.108   5.790   5.147 -0.7415 -0.7890  0.4597
 7861SOL    HW227626   2.229   5.786   5.057 -1.8874 -0.1592 -1.1759
 7862SOL     OW27627   6.803   5.946   1.287  0.3043  0.4345 -0.1569
 7862SOL    HW127628   6.766   5.912   1.205 -0.5189  1.1332 -0.0895
 7862SOL    HW227629   6.809   5.870   1.344 -1.5284  0.3616 -0.0019
 7863SOL     OW27630   4.295   8.857   6.530  0.2950  0.3253 -0.1836
 7863SOL    HW127631   4.351   8.814   6.595  0.4341  1.2428  0.3115
 7863SOL    HW227632   4.329   8.946   6.524 -1.7240  1.2556  0.9330
 7864SOL     OW27633   5.368   3.002   2.316 -0.1522 -0.6616  0.1666
 7864SOL    HW127634   5.352   2.917   2.357 -1.4852 -0.6280 -0.2513
 7864SOL    HW227635   5.450   3.033   2.355  0.4799 -2.2407  0.1373
 7865SOL     OW27636   2.679   8.436   1.354  0.0884 -0.3535  0.2521
 7865SOL    HW127637   2.747   8.502   1.337  0.5127 -0.8663 -0.0868
 7865SOL    HW227638   2.690   8.415   1.447 -0.9285  1.0082  0.7210
 7866SOL     OW27639   0.134   7.064   1.083 -0.4254  0.0092  0.1655
 7866SOL    HW127640   0.091   7.070   1.168 -0.4398  0.9206  0.1083
 7866SOL    HW227641   0.199   7.134   1.084  1.1612 -1.4156  0.2870
 7867SOL     OW27642   7.109   6.996   5.188  0.3195 -0.0204  0.2904
 7867SOL    HW127643   7.203   7.009   5.182  0.1097  1.7450  0.3555
 7867SOL    HW227644   7.085   7.027   5.275 -0.4658  0.6085 -0.1322
 7868SOL     OW27645   8.101   8.276   9.132  0.0059  0.5248 -0.0994
 7868SOL    HW127646   8.162   8.293   9.204 -0.8422 -1.2983  1.1277
 7868SOL    HW227647   8.025   8.332   9.151  0.0124  0.4592  0.1227
 7869SOL     OW27648   7.730   1.607   0.976  0.3158 -0.0749 -0.0886
 7869SOL    HW127649   7.763   1.658   0.902  0.8120  1.0084  0.8461
 7869SOL    HW227650   7.805   1.555   1.005 -0.2009 -1.3936 -1.0641
 7870SOL     OW27651   8.719   4.913   0.033 -0.0806 -0.2745  0.2745
 7870SOL    HW127652   8.764   4.835   0.065 -0.6610 -0.4168  0.7687
 7870SOL    HW227653   8.783   4.956  -0.024  0.2829 -1.0460  0.0871
 7871SOL     OW27654   4.384   2.060   2.447 -0.1953 -0.2248 -0.5322
 7871SOL    HW127655   4.318   1.991   2.458 -0.1127  0.0947  3.4741
 7871SOL    HW227656   4.335   2.134   2.412 -0.9618 -1.3111 -1.8604
 7872SOL     OW27657   3.887   6.284   8.958  0.1479 -0.0713 -0.4969
 7872SOL    HW127658   3.856   6.217   8.897  1.3880  0.8342 -2.1977
 7872SOL    HW227659   3.965   6.245   8.998  0.1424 -0.1224 -0.5360
 7873SOL     OW27660   8.365   1.491   6.474 -0.6315 -0.2293  0.1966
 7873SOL    HW127661   8.345   1.575   6.516 -0.3380 -0.3288  0.5316
 7873SOL    HW227662   8.459   1.494   6.457 -0.8484  0.1002 -1.0879
 7874SOL     OW27663   6.851   3.600   5.274 -0.6226 -0.2823 -0.1752
 7874SOL    HW127664   6.821   3.559   5.355 -0.7491 -0.0832 -0.1218
 7874SOL    HW227665   6.867   3.691   5.297  0.2101 -0.4199 -0.1569
 7875SOL     OW27666   0.561  10.120   1.772 -0.4289  0.1722 -0.0182
 7875SOL    HW127667   0.655  10.134   1.780 -0.2056 -1.2370  0.0461
 7875SOL    HW227668   0.526  10.206   1.748  0.6310  1.1825  1.8167
 7876SOL     OW27669   2.342   6.595   7.478 -0.4765  0.0296  0.1875
 7876SOL    HW127670   2.329   6.681   7.440 -1.7398 -1.2399 -2.5148
 7876SOL    HW227671   2.437   6.588   7.490 -0.1156  0.9117 -1.8784
 7877SOL     OW27672   8.436   2.725   2.817  0.1831 -0.4235  0.1297
 7877SOL    HW127673   8.482   2.692   2.894 -0.9372 -1.0746  0.5475
 7877SOL    HW227674   8.420   2.648   2.763  5.2336  0.4732 -3.3277
 7878SOL     OW27675  10.012   0.298   5.587 -0.0755 -0.5619 -0.5919
 7878SOL    HW127676   9.920   0.281   5.606 -0.3398 -0.4182 -1.6756
 7878SOL    HW227677  10.057   0.287   5.671 -0.8555 -2.1476 -0.3536
 7879SOL     OW27678   0.159   8.726   1.009  0.3256  0.5242 -0.0781
 7879SOL    HW127679   0.204   8.789   1.066  0.8113  0.0986  0.0143
 7879SOL    HW227680   0.185   8.640   1.042 -0.4310  0.2641 -0.1273
 7880SOL     OW27681   0.767   7.990   9.055 -0.6456  0.5659 -0.1974
 7880SOL    HW127682   0.672   7.982   9.051 -0.7819  2.2792 -1.4722
 7880SOL    HW227683   0.794   8.008   8.965  0.9538 -0.3079  0.0617
 7881SOL     OW27684   5.602   2.476   3.203  0.2411  0.6824  0.6838
 7881SOL    HW127685   5.679   2.521   3.239  1.3838 -0.3234 -0.4395
 7881SOL    HW227686   5.603   2.497   3.110 -0.1070 -0.3801  0.4276
 7882SOL     OW27687   0.207   7.511   7.604  0.5835  0.2765 -0.7935
 7882SOL    HW127688   0.116   7.504   7.632  0.8899  0.4374  0.3016
 7882SOL    HW227689   0.248   7.430   7.635  0.7917  0.1497 -1.3848
 7883SOL     OW27690   1.870   0.953   5.514 -0.6495  0.6396  0.5113
 7883SOL    HW127691   1.859   1.037   5.557  0.0680  0.2093  1.5611
 7883SOL    HW227692   1.955   0.921   5.544 -0.2627  0.1798 -0.9913
 7884SOL     OW27693   9.608   2.821   9.689  0.1944 -0.2265 -0.5026
 7884SOL    HW127694   9.533   2.763   9.673  0.3662 -0.9907  1.1874
 7884SOL    HW227695   9.576   2.908   9.666 -0.9602 -0.6476 -0.5995
 7885SOL     OW27696   1.881  10.205   4.171  0.3323 -0.4687 -0.4372
 7885SOL    HW127697   1.926  10.125   4.145 -0.9406 -0.5421 -2.7061
 7885SOL    HW227698   1.950  10.271   4.178  1.4419 -1.7434  1.7890
 7886SOL     OW27699   4.868   7.288   7.931  0.6493  0.3225 -0.2281
 7886SOL    HW127700   4.919   7.218   7.973 -0.9415 -0.5025  0.4423
 7886SOL    HW227701   4.913   7.369   7.955  1.3847 -0.3421  0.7129
 7887SOL     OW27702   5.123   2.147   3.728 -0.2397 -0.1094  0.1128
 7887SOL    HW127703   5.055   2.203   3.692  0.1864  0.3700  0.0297
 7887SOL    HW227704   5.127   2.072   3.669  0.2378  0.5160 -0.6701
 7888SOL     OW27705   2.623   9.626  10.064 -0.0411  0.3929  0.0880
 7888SOL    HW127706   2.531   9.639  10.043  0.1721  0.5616 -0.7740
 7888SOL    HW227707   2.668   9.699  10.021  0.5984 -0.2347 -0.3263
 7889SOL     OW27708   8.923   9.428   7.602 -0.0321 -0.2724  0.3698
 7889SOL    HW127709   8.893   9.337   7.604  0.2467 -0.3565  0.6524
 7889SOL    HW227710   8.920   9.456   7.693 -2.8040  0.8841  0.0385
 7890SOL     OW27711   0.925   7.835   7.198  0.1725  0.3760  0.1517
 7890SOL    HW127712   0.957   7.780   7.270 -0.3872 -0.1780 -0.0068
 7890SOL    HW227713   0.924   7.923   7.233 -0.7619  0.0214  1.0636
 7891SOL     OW27714   4.055   9.049   4.512 -0.0884  0.2000 -0.3308
 7891SOL    HW127715   4.141   9.013   4.489 -0.1686  0.1297 -0.5253
 7891SOL    HW227716   4.074   9.131   4.558  0.0852  0.1258 -0.2705
 7892SOL     OW27717   7.311   7.815   8.360 -0.6473  0.3308  0.3520
 7892SOL    HW127718   7.337   7.903   8.389  1.1619 -0.3901  1.0738
 7892SOL    HW227719   7.334   7.813   8.267 -0.1253  0.4414  0.4734
 7893SOL     OW27720   6.395   3.236   8.263 -0.1893 -0.1408 -0.0482
 7893SOL    HW127721   6.319   3.190   8.300 -0.0968  0.7760  1.3389
 7893SOL    HW227722   6.362   3.273   8.181  0.0785 -3.6835 -1.9752
 7894SOL     OW27723   7.495   4.684   2.462 -0.0858 -0.2755  1.0045
 7894SOL    HW127724   7.551   4.687   2.384  0.6699 -0.0989  1.5466
 7894SOL    HW227725   7.527   4.610   2.512 -0.5714 -0.3880  1.1532
 7895SOL     OW27726   5.623   5.656   2.362  0.0777 -0.1890 -0.1003
 7895SOL    HW127727   5.654   5.745   2.376  0.0308 -0.0726 -0.6893
 7895SOL    HW227728   5.688   5.617   2.303 -0.5843 -0.1202 -0.8935
 7896SOL     OW27729   3.384   7.987   6.733 -0.0600  0.4842 -0.4720
 7896SOL    HW127730   3.304   7.995   6.681 -0.0256  0.7380 -0.4858
 7896SOL    HW227731   3.420   8.075   6.736 -0.0437  0.4677 -0.0457
 7897SOL     OW27732   0.243   1.295   4.384 -0.7351  0.3895  0.1804
 7897SOL    HW127733   0.199   1.240   4.449  0.2895 -1.2439 -0.4348
 7897SOL    HW227734   0.248   1.381   4.425 -1.4278 -0.2291  1.6493
 7898SOL     OW27735   1.879   3.221   5.322  0.2251 -0.2443  0.2526
 7898SOL    HW127736   1.929   3.300   5.336  0.7919 -0.6760  0.6817
 7898SOL    HW227737   1.933   3.151   5.358 -0.9897 -0.6391  1.3971
 7899SOL     OW27738   0.600   9.265   4.492 -0.1370 -0.4541  0.2079
 7899SOL    HW127739   0.537   9.270   4.420  0.6190  0.7797 -0.3999
 7899SOL    HW227740   0.581   9.181   4.535 -3.4331  0.6869  1.2196
 7900SOL     OW27741   9.277   1.978   9.197  0.2525 -0.1328  0.0700
 7900SOL    HW127742   9.197   2.024   9.222  0.2783  0.7787 -1.3988
 7900SOL    HW227743   9.346   2.045   9.203  1.0285 -1.0109  1.7526
 7901SOL     OW27744   3.383   7.845   6.297  0.2912 -0.0520  0.0571
 7901SOL    HW127745   3.442   7.866   6.224  1.3096 -0.7491  0.6653
 7901SOL    HW227746   3.426   7.881   6.374 -0.3937 -0.0244  0.4330
 7902SOL     OW27747   6.724   5.056   1.154  0.0051 -0.3231 -0.3449
 7902SOL    HW127748   6.748   5.136   1.109 -1.9983  0.7709  0.3913
 7902SOL    HW227749   6.631   5.067   1.175 -0.3379 -2.8179 -0.1684
 7903SOL     OW27750   6.420   5.760   9.531 -0.2033  0.1374  0.0829
 7903SOL    HW127751   6.463   5.676   9.519 -1.4333 -0.2870 -1.8396
 7903SOL    HW227752   6.475   5.807   9.593  1.2691 -1.5444  0.1175
 7904SOL     OW27753   1.952   8.612   4.988 -0.3007 -0.0826  0.7396
 7904SOL    HW127754   1.948   8.544   4.920 -0.1675 -1.4646  2.0601
 7904SOL    HW227755   2.005   8.681   4.949  0.9689 -1.4505 -0.0821
 7905SOL     OW27756   8.725   1.678   8.569 -0.6177  0.0107 -0.0259
 7905SOL    HW127757   8.767   1.603   8.610 -0.9595 -0.7565 -1.0367
 7905SOL    HW227758   8.793   1.719   8.516 -0.1546  1.0476  1.3107
 7906SOL     OW27759   1.508   9.624   7.551  0.1939 -0.1390  0.2146
 7906SOL    HW127760   1.527   9.605   7.642 -0.1398 -1.7050 -0.0094
 7906SOL    HW227761   1.543   9.549   7.502 -0.1193  0.4015 -0.8885
 7907SOL     OW27762   4.741   1.436   9.293 -0.3242  0.0867  0.4835
 7907SOL    HW127763   4.663   1.458   9.344  1.2375  1.0950  2.5941
 7907SOL    HW227764   4.799   1.512   9.302  1.0987 -0.7930 -0.6505
 7908SOL     OW27765  10.100   4.890   4.404 -0.0224  0.2491 -0.1366
 7908SOL    HW127766  10.097   4.880   4.308 -0.3148 -0.2746 -0.0787
 7908SOL    HW227767  10.156   4.966   4.418  1.5884 -0.7864 -0.6618
 7909SOL     OW27768   7.298   6.537   9.331  0.0871 -0.2960  0.9647
 7909SOL    HW127769   7.243   6.529   9.409 -0.5309  0.2664  0.5986
 7909SOL    HW227770   7.377   6.580   9.362  0.5290 -1.5111  1.5870
 7910SOL     OW27771   6.093   2.671   2.685 -0.7197 -0.2784 -0.1744
 7910SOL    HW127772   6.173   2.668   2.631  0.5696  0.5099  1.6055
 7910SOL    HW227773   6.085   2.762   2.711 -0.8541 -0.7635  1.5788
 7911SOL     OW27774   0.841   4.770   5.258 -0.7706 -0.2051 -0.0265
 7911SOL    HW127775   0.835   4.703   5.191  0.8426  0.9077 -1.3780
 7911SOL    HW227776   0.793   4.844   5.223 -1.7973 -0.3263  1.0655
 7912SOL     OW27777   1.864   6.504   5.362  0.4449 -0.1327 -0.1273
 7912SOL    HW127778   1.864   6.591   5.321 -1.0747  0.4960  1.0740
 7912SOL    HW227779   1.791   6.458   5.320  0.2010 -0.2180  0.3818
 7913SOL     OW27780   1.015   7.991   9.664 -0.0647  0.0445 -0.1472
 7913SOL    HW127781   0.925   7.981   9.631 -0.4611  3.4523 -0.4702
 7913SOL    HW227782   1.008   8.061   9.729  2.7280  2.5096 -2.2600
 7914SOL     OW27783   0.783   7.338   8.882  0.0968  0.2126  0.0728
 7914SOL    HW127784   0.873   7.359   8.908  0.0875 -0.6470  0.8812
 7914SOL    HW227785   0.752   7.278   8.951 -0.5896 -0.6712 -0.9715
 7915SOL     OW27786   9.825   2.739   6.198  0.2841  0.4064 -0.2219
 7915SOL    HW127787   9.773   2.784   6.264 -0.0904  0.9562 -0.8893
 7915SOL    HW227788   9.915   2.744   6.231  0.1085  0.7210  0.2148
 7916SOL     OW27789   9.043   9.909   6.750 -0.3045 -0.0275  0.7618
 7916SOL    HW127790   9.058   9.881   6.840  1.1467 -2.1771 -0.0940
 7916SOL    HW227791   9.096   9.988   6.740 -0.6804  0.3764  1.8446
 7917SOL     OW27792   1.520   7.794   4.449 -0.4758  0.6419  0.4175
 7917SOL    HW127793   1.453   7.726   4.446  1.4971 -1.4289 -0.0115
 7917SOL    HW227794   1.567   7.777   4.531 -0.1182  1.6881  0.4395
 7918SOL     OW27795   3.771   7.379   3.019  0.3308 -0.1893  0.3406
 7918SOL    HW127796   3.858   7.421   3.021 -0.3308  1.3129 -0.3194
 7918SOL    HW227797   3.728   7.420   2.944 -2.1147  1.5971  2.5564
 7919SOL     OW27798   7.018   4.241   3.991  0.2039 -0.5021 -0.5694
 7919SOL    HW127799   7.100   4.269   3.950  0.4489  0.7002  0.6561
 7919SOL    HW227800   7.038   4.159   4.034  0.7876 -0.2043 -0.2645
 7920SOL     OW27801   7.721   0.302   5.681 -0.8103  0.0309 -0.3241
 7920SOL    HW127802   7.726   0.207   5.681 -0.6667 -0.0364 -2.6729
 7920SOL    HW227803   7.797   0.331   5.730 -0.2770 -1.0741 -0.4868
 7921SOL     OW27804   2.350   5.051   6.920 -0.3369  0.7788 -0.4281
 7921SOL    HW127805   2.420   4.995   6.885 -1.9677 -0.0139 -2.6839
 7921SOL    HW227806   2.368   5.137   6.884 -0.1427  0.7491 -0.4054
 7922SOL     OW27807   7.476   0.339   1.133 -0.1530 -0.1789 -0.1312
 7922SOL    HW127808   7.522   0.345   1.049 -0.9141 -0.1245 -0.5575
 7922SOL    HW227809   7.536   0.292   1.190  0.3071 -0.3797 -0.7674
 7923SOL     OW27810   0.105   3.957   1.632 -0.0449 -0.2055  0.1976
 7923SOL    HW127811   0.125   4.048   1.656  0.1320 -0.2738  0.3090
 7923SOL    HW227812   0.185   3.926   1.590 -0.3451 -0.0907 -0.4772
 7924SOL     OW27813   8.503   8.538   6.236 -0.1238  0.2434 -0.0503
 7924SOL    HW127814   8.540   8.456   6.202  0.5870 -0.2683  1.8076
 7924SOL    HW227815   8.409   8.527   6.228  0.0017 -0.1300 -1.1803
 7925SOL     OW27816   6.998   7.574   1.814 -0.1646 -0.4271 -0.5513
 7925SOL    HW127817   6.903   7.573   1.829 -0.1020  0.7947  0.0192
 7925SOL    HW227818   7.023   7.481   1.815 -1.0798 -0.6931  1.0912
 7926SOL     OW27819   4.269   3.754   0.721  0.7670 -0.0047  0.4322
 7926SOL    HW127820   4.217   3.690   0.673  3.3585 -1.8997 -0.0538
 7926SOL    HW227821   4.263   3.834   0.668 -0.5988 -0.5248 -0.2346
 7927SOL     OW27822   0.298   4.664   0.272  0.3972 -0.3976  0.0003
 7927SOL    HW127823   0.374   4.629   0.226 -0.2816 -0.9696 -0.7011
 7927SOL    HW227824   0.266   4.591   0.324  0.3595 -0.1367  0.3467
 7928SOL     OW27825   6.370   7.188   0.710 -0.5489  0.0666  0.0326
 7928SOL    HW127826   6.377   7.205   0.804  0.8205  1.1476 -0.2324
 7928SOL    HW227827   6.316   7.109   0.704  0.3199 -0.7159  1.7844
 7929SOL     OW27828   7.030   1.134   0.550 -0.2185  0.1869 -0.0672
 7929SOL    HW127829   6.947   1.086   0.550  0.5114 -1.1357 -0.7474
 7929SOL    HW227830   7.074   1.104   0.629 -0.4410  1.0114  0.3791
 7930SOL     OW27831  10.050   8.410   1.734 -0.2245 -0.4181 -0.3465
 7930SOL    HW127832  10.038   8.505   1.731  1.1023 -0.2323 -2.1532
 7930SOL    HW227833   9.963   8.374   1.717 -0.8288  0.4349  0.8072
 7931SOL     OW27834   2.901   0.432   9.487  0.5048 -0.7034  0.1066
 7931SOL    HW127835   2.943   0.478   9.414 -0.8958 -0.5116 -0.5962
 7931SOL    HW227836   2.823   0.393   9.449  0.1360 -1.2159  1.3572
 7932SOL     OW27837   7.830   6.113   2.439  0.2044 -0.0483  0.3889
 7932SOL    HW127838   7.785   6.156   2.367  0.4478  0.6324  0.6342
 7932SOL    HW227839   7.889   6.051   2.397  0.4692  0.4648 -0.0163
 7933SOL     OW27840   3.938   9.405   2.538  0.0761 -0.4071 -0.5571
 7933SOL    HW127841   3.935   9.370   2.627  0.3444  0.2163 -0.3013
 7933SOL    HW227842   3.879   9.480   2.539 -0.2603 -0.6555 -1.0269
 7934SOL     OW27843   2.946   6.885   9.266  0.7808 -0.2154 -0.2950
 7934SOL    HW127844   2.924   6.963   9.316  0.4912 -0.4878  0.0076
 7934SOL    HW227845   2.861   6.849   9.239  0.8614 -0.9945  0.4492
 7935SOL     OW27846   1.121   4.580   4.197 -0.3816 -0.4250  0.0104
 7935SOL    HW127847   1.030   4.609   4.184  0.2533  0.9787 -1.7535
 7935SOL    HW227848   1.150   4.554   4.110  0.2899 -2.9700  0.9127
 7936SOL     OW27849   2.693   1.365   1.410  0.0726 -0.0776 -0.1328
 7936SOL    HW127850   2.672   1.429   1.478 -1.6964 -1.7600  1.0113
 7936SOL    HW227851   2.707   1.418   1.331  0.6594  1.8192  1.1643
 7937SOL     OW27852   4.060   8.504   9.811 -0.4877  0.6040 -0.0373
 7937SOL    HW127853   4.005   8.437   9.770 -2.2663  1.8881  0.1024
 7937SOL    HW227854   4.052   8.488   9.905  2.1970 -1.2673 -0.0092
 7938SOL     OW27855   2.031   3.214   5.923 -0.1598  0.0812  0.0328
 7938SOL    HW127856   2.069   3.141   5.874 -0.2059  0.8481 -1.2020
 7938SOL    HW227857   2.100   3.281   5.924  0.0396 -0.1142  1.5226
 7939SOL     OW27858   8.764   3.294   8.890  0.2430 -0.0457  0.6935
 7939SOL    HW127859   8.740   3.359   8.825  0.6785 -1.0426 -0.5021
 7939SOL    HW227860   8.849   3.261   8.861 -0.4001 -1.8417  0.6816
 7940SOL     OW27861   9.783   5.961   9.628  0.6441 -0.5082 -0.4263
 7940SOL    HW127862   9.736   6.036   9.663  0.3764 -1.9224  2.5110
 7940SOL    HW227863   9.873   5.972   9.660  0.6928 -1.2184 -0.2956
 7941SOL     OW27864   1.668   2.803   7.357 -0.0682  0.2690 -0.3762
 7941SOL    HW127865   1.715   2.832   7.279  1.1080 -2.0567 -0.6211
 7941SOL    HW227866   1.644   2.712   7.338 -1.8584  0.3900  1.0611
 7942SOL     OW27867   9.681   1.146   2.984  0.0807 -0.1329  0.1950
 7942SOL    HW127868   9.689   1.051   2.981  0.9983 -0.0846  0.8843
 7942SOL    HW227869   9.603   1.165   2.931 -1.2269 -1.3972  1.5696
 7943SOL     OW27870   6.596   5.537   6.535 -0.7941 -0.1945  0.4244
 7943SOL    HW127871   6.639   5.521   6.451 -2.3230  1.1185 -0.6826
 7943SOL    HW227872   6.610   5.630   6.552 -1.2919 -0.2473  1.1621
 7944SOL     OW27873   0.855   2.040   6.461 -0.1456  0.3352  0.1543
 7944SOL    HW127874   0.873   2.127   6.496 -2.7602  0.6558  0.9179
 7944SOL    HW227875   0.810   1.994   6.532 -1.3343 -0.6322 -1.1587
 7945SOL     OW27876   3.089   8.544   1.241  0.3888 -0.3147 -0.5460
 7945SOL    HW127877   3.094   8.568   1.334 -0.6819 -3.0306  0.3094
 7945SOL    HW227878   3.000   8.565   1.215 -0.3886 -2.5701  0.0632
 7946SOL     OW27879   1.945   2.485   0.755 -0.0353  0.2191 -0.1347
 7946SOL    HW127880   2.031   2.528   0.760  0.1821 -0.3735  1.6417
 7946SOL    HW227881   1.956   2.419   0.686  0.0962  1.8920 -1.7993
 7947SOL     OW27882   4.935   2.660   1.225 -0.0267  0.2910 -0.1470
 7947SOL    HW127883   4.996   2.589   1.203  1.7638  1.9508 -0.8542
 7947SOL    HW227884   4.964   2.690   1.311 -1.4709 -0.4737  0.6546
 7948SOL     OW27885   9.836   3.080   6.144  0.2491  0.1692 -0.1541
 7948SOL    HW127886   9.797   3.143   6.205  0.5669  1.8476 -1.5939
 7948SOL    HW227887   9.833   2.996   6.191  0.5063  1.3591  2.1673
 7949SOL     OW27888   5.575   2.822   2.108 -0.1384  0.5125 -0.6519
 7949SOL    HW127889   5.564   2.763   2.183  0.7970  0.2461 -0.7048
 7949SOL    HW227890   5.669   2.816   2.087 -0.3853  0.5869 -1.8395
 7950SOL     OW27891   5.262   0.133   0.588  0.1269  0.4992 -0.7038
 7950SOL    HW127892   5.309   0.056   0.556 -0.4977  0.0160 -0.4745
 7950SOL    HW227893   5.320   0.171   0.654 -1.3638 -2.3733  2.6097
 7951SOL     OW27894   8.012   2.594   6.588  0.0716 -0.6121  0.3614
 7951SOL    HW127895   8.075   2.560   6.524  0.1724 -1.3425  0.8362
 7951SOL    HW227896   7.988   2.517   6.641 -0.8622 -0.2486  0.4845
 7952SOL     OW27897   8.054   6.593   0.112 -0.3198 -0.3429  0.1084
 7952SOL    HW127898   8.008   6.613   0.194  0.9980 -0.6098  0.9284
 7952SOL    HW227899   8.096   6.675   0.087 -0.8384 -0.2232 -0.3953
 7953SOL     OW27900   1.042   3.129   9.523  0.3153 -0.2401 -0.6689
 7953SOL    HW127901   1.043   3.179   9.441 -1.1756 -0.0273 -0.5798
 7953SOL    HW227902   0.957   3.149   9.562  0.6086 -1.1151  0.4596
 7954SOL     OW27903   7.674   8.403   7.484  0.4556  0.0409 -0.2775
 7954SOL    HW127904   7.619   8.353   7.425 -0.5563  2.2553 -1.3228
 7954SOL    HW227905   7.618   8.423   7.559  0.9729 -0.6961  0.3178
 7955SOL     OW27906   5.397   8.446   5.962  0.7379  0.5601 -0.0777
 7955SOL    HW127907   5.328   8.513   5.969 -0.0984 -0.4012  1.4371
 7955SOL    HW227908   5.350   8.363   5.964  1.8619 -0.1090 -0.4826
 7956SOL     OW27909   9.790   2.612   8.809 -0.1721 -0.1051 -0.5972
 7956SOL    HW127910   9.761   2.618   8.899  1.2248  4.5368 -0.1683
 7956SOL    HW227911   9.862   2.550   8.811 -0.3171 -0.2733  1.4522
 7957SOL     OW27912   5.926   4.875   7.252 -0.2021 -0.3958 -0.0504
 7957SOL    HW127913   5.943   4.827   7.171  0.6366  1.1075 -0.8218
 7957SOL    HW227914   5.926   4.967   7.226 -0.1451  0.1227  1.6236
 7958SOL     OW27915   8.125   2.122   5.920 -0.2028 -0.5563  0.3369
 7958SOL    HW127916   8.136   2.042   5.868  1.9795 -1.6894  2.3700
 7958SOL    HW227917   8.032   2.123   5.942 -0.2279 -2.8136  0.6227
 7959SOL     OW27918   6.290   2.406   0.143 -0.8362  0.6103 -0.3750
 7959SOL    HW127919   6.315   2.478   0.201  1.7351 -1.3281  1.1383
 7959SOL    HW227920   6.202   2.382   0.171 -1.1480  2.2014  0.0813
 7960SOL     OW27921   9.294  10.002   6.121 -0.2646  0.3143 -0.1425
 7960SOL    HW127922   9.386  10.015   6.099 -0.1926  1.5263  0.7655
 7960SOL    HW227923   9.294   9.936   6.190  0.0023  0.9351  0.4571
 7961SOL     OW27924   3.625   4.149   2.260 -0.1384 -0.7253 -0.2958
 7961SOL    HW127925   3.581   4.230   2.238 -0.8014 -1.1107 -0.4013
 7961SOL    HW227926   3.557   4.094   2.299  0.1682 -1.4449 -0.7535
 7962SOL     OW27927   3.616   8.460   7.229 -0.7859  0.0304 -0.0933
 7962SOL    HW127928   3.702   8.476   7.191 -0.6758 -0.6448 -0.1464
 7962SOL    HW227929   3.617   8.509   7.311 -0.5423  0.4393 -0.3363
 7963SOL     OW27930   2.837   0.142   4.159 -0.5303 -0.2041  0.6768
 7963SOL    HW127931   2.860   0.221   4.111  0.2184 -0.4104  0.6850
 7963SOL    HW227932   2.836   0.072   4.094 -0.0694 -0.3838  0.8554
 7964SOL     OW27933   9.205   5.502   7.938  0.1679 -0.2839 -0.3284
 7964SOL    HW127934   9.211   5.597   7.949 -0.6522 -0.0284 -1.7596
 7964SOL    HW227935   9.128   5.489   7.883 -0.4810 -1.8893  0.8793
 7965SOL     OW27936   7.499   8.818   1.500 -0.2462 -0.0074  0.2758
 7965SOL    HW127937   7.430   8.882   1.485  1.3051  1.4695 -0.9336
 7965SOL    HW227938   7.538   8.803   1.414  1.1934 -0.5006  0.9719
 7966SOL     OW27939   7.286   5.224   3.833  0.8712 -0.1174 -0.1544
 7966SOL    HW127940   7.330   5.295   3.786  1.5444 -0.1033  0.4737
 7966SOL    HW227941   7.219   5.193   3.772  1.3220  0.3016 -0.8850
 7967SOL     OW27942   9.768   1.705   2.266 -0.3714  0.5029  0.1958
 7967SOL    HW127943   9.736   1.792   2.289  1.8425  0.6092  3.7143
 7967SOL    HW227944   9.701   1.645   2.299 -0.4950  0.8510  0.5957
 7968SOL     OW27945   9.097   5.323   3.290  0.2568 -0.2527 -0.1727
 7968SOL    HW127946   9.118   5.341   3.199  1.2652  0.1817  0.1266
 7968SOL    HW227947   9.003   5.307   3.291  0.0218  0.9464 -1.0991
 7969SOL     OW27948   4.948   2.498   3.819 -0.2981 -0.0487 -0.1209
 7969SOL    HW127949   4.933   2.590   3.794 -1.5129 -0.3955 -0.7710
 7969SOL    HW227950   5.024   2.472   3.768 -0.0438  0.5462 -0.0619
 7970SOL     OW27951   5.647   3.119   5.847  0.0509  0.3729 -0.4727
 7970SOL    HW127952   5.736   3.088   5.865  0.1456  0.3801 -0.9045
 7970SOL    HW227953   5.609   3.051   5.791 -1.0909 -0.8858  1.7050
 7971SOL     OW27954   7.843   0.492   4.775  0.2359  0.2791 -0.2172
 7971SOL    HW127955   7.770   0.450   4.820  0.6058 -0.7418 -0.5444
 7971SOL    HW227956   7.862   0.570   4.827 -0.3633 -0.0392  0.4895
 7972SOL     OW27957   1.144   8.148   8.384  0.2494 -0.3873  0.0946
 7972SOL    HW127958   1.112   8.123   8.470 -0.8576  1.3060  0.2376
 7972SOL    HW227959   1.097   8.091   8.323 -0.6909 -0.0735  0.5045
 7973SOL     OW27960   4.608   6.516   4.050  0.1062 -0.1922  0.3803
 7973SOL    HW127961   4.518   6.536   4.024 -0.1209 -0.9851  0.5307
 7973SOL    HW227962   4.657   6.597   4.033 -0.5464  0.1035 -0.1116
 7974SOL     OW27963   7.131   1.936   2.400  0.0306 -0.3604 -0.1975
 7974SOL    HW127964   7.164   1.874   2.335  1.9321 -0.6115  0.9328
 7974SOL    HW227965   7.207   1.992   2.420 -1.1752  1.2501  0.0642
 7975SOL     OW27966   8.202   6.891   3.862 -0.1908  0.0865  0.2602
 7975SOL    HW127967   8.140   6.926   3.798  1.6222  0.9088 -1.1364
 7975SOL    HW227968   8.218   6.801   3.834  0.5916  0.4417 -0.4847
 7976SOL     OW27969   6.714   8.471   5.438 -0.0582  0.2433  0.1703
 7976SOL    HW127970   6.728   8.402   5.503  0.6985 -0.1872 -0.4267
 7976SOL    HW227971   6.710   8.552   5.489 -0.3355 -0.1713  0.8248
 7977SOL     OW27972   6.881   0.387   8.389  0.4636 -0.4708  0.7737
 7977SOL    HW127973   6.965   0.360   8.353  0.1998 -0.1735 -0.0938
 7977SOL    HW227974   6.866   0.328   8.464  2.1375  0.4711  1.9016
 7978SOL     OW27975   2.748   8.441   8.055  0.3346 -0.0830 -0.8367
 7978SOL    HW127976   2.841   8.425   8.039  0.7761  1.4405  0.0613
 7978SOL    HW227977   2.739   8.439   8.150 -0.4839  0.1566 -0.9032
 7979SOL     OW27978   1.913   4.808   5.776  0.6850 -0.5996  0.5771
 7979SOL    HW127979   1.939   4.745   5.843  1.5044 -1.0510 -0.1443
 7979SOL    HW227980   1.947   4.892   5.808  2.6399 -1.0859 -0.0792
 7980SOL     OW27981   6.627   3.759   8.507  0.2025 -0.0447  0.1870
 7980SOL    HW127982   6.573   3.681   8.518 -0.5184  0.0208 -2.2411
 7980SOL    HW227983   6.629   3.799   8.594 -2.4252 -0.8518  0.7161
 7981SOL     OW27984   2.620  10.069   4.154 -0.6699 -0.5437  0.0479
 7981SOL    HW127985   2.664  10.074   4.239  0.8186 -1.3032 -0.6300
 7981SOL    HW227986   2.615   9.975   4.135 -2.5551 -0.4804  0.0442
 7982SOL     OW27987   0.157   2.119   3.808 -0.2546 -0.1085  0.0248
 7982SOL    HW127988   0.247   2.134   3.837  0.4596 -0.8695 -1.6989
 7982SOL    HW227989   0.134   2.199   3.759  0.1422 -0.6522 -1.0658
 7983SOL     OW27990   6.625   6.683   8.940 -0.2076 -0.2942  0.5325
 7983SOL    HW127991   6.609   6.589   8.941 -0.1996 -0.3115 -0.3488
 7983SOL    HW227992   6.586   6.715   9.022 -0.8597 -0.9582  0.4875
 7984SOL     OW27993   3.066   2.617   7.602 -0.4062 -1.0070  0.4371
 7984SOL    HW127994   3.072   2.623   7.697 -0.1252 -0.4553  0.3883
 7984SOL    HW227995   3.090   2.526   7.582  2.0197 -0.4939  0.7095
 7985SOL     OW27996  10.029   1.948   4.347  0.7428 -0.1493  0.1792
 7985SOL    HW127997  10.056   1.926   4.258  1.6794 -0.3294  0.4999
 7985SOL    HW227998   9.970   1.877   4.373  0.5473 -0.1489 -0.2519
 7986SOL     OW27999   4.217   6.536   9.566  0.1008 -0.3197 -0.1049
 7986SOL    HW128000   4.152   6.468   9.548  1.6494 -1.6200 -1.1639
 7986SOL    HW228001   4.171   6.601   9.619 -2.1311 -0.9937 -1.0979
 7987SOL     OW28002   8.274   0.856   3.645  0.3078 -0.0062 -0.3962
 7987SOL    HW128003   8.295   0.901   3.727  0.2643 -0.7713  0.0435
 7987SOL    HW228004   8.319   0.772   3.652  0.8230  0.1668 -1.4359
 7988SOL     OW28005   9.815   3.071   3.151 -0.0466 -0.1468 -0.1077
 7988SOL    HW128006   9.800   2.991   3.202  2.1616  0.5710  1.8599
 7988SOL    HW228007   9.823   3.140   3.217  1.3152  1.1306 -1.5189
 7989SOL     OW28008   2.411   0.413   2.863 -0.4822  0.2502 -0.2474
 7989SOL    HW128009   2.392   0.496   2.907  1.7393  1.7292 -1.8422
 7989SOL    HW228010   2.474   0.369   2.920  0.4061  0.9684 -0.6359
 7990SOL     OW28011   2.234  10.277   8.500 -0.1981 -0.0500 -0.2081
 7990SOL    HW128012   2.200  10.266   8.411 -0.6743 -1.3863  0.1114
 7990SOL    HW228013   2.248  10.188   8.531  1.3697  0.4335  0.5375
 7991SOL     OW28014   1.629   9.324   6.192 -0.7510 -0.4493  0.3314
 7991SOL    HW128015   1.610   9.230   6.198  0.7168 -0.9202 -1.5094
 7991SOL    HW228016   1.543   9.365   6.183 -1.3187 -1.8814 -1.4721
 7992SOL     OW28017   8.303   8.271   1.662 -0.1814  0.1042 -0.3736
 7992SOL    HW128018   8.378   8.305   1.613 -0.6152  0.5938 -0.7066
 7992SOL    HW228019   8.342   8.231   1.740  0.3553  1.3125  0.0069
 7993SOL     OW28020  10.207   7.985   7.673  0.0310 -0.4749 -0.2447
 7993SOL    HW128021  10.232   7.893   7.664  1.7202  0.0318 -1.3379
 7993SOL    HW228022  10.158   7.989   7.755 -2.0413 -2.7040 -1.2435
 7994SOL     OW28023   8.500   5.292   5.394  0.0561 -0.2758  0.2630
 7994SOL    HW128024   8.586   5.316   5.427  0.4618 -1.1501 -0.1041
 7994SOL    HW228025   8.485   5.351   5.320 -0.0992  0.5325  0.9354
 7995SOL     OW28026   6.208   0.353   3.071  0.1419  0.3614  0.0413
 7995SOL    HW128027   6.304   0.350   3.072  0.1395 -0.9360  1.8926
 7995SOL    HW228028   6.184   0.329   2.982  1.5358 -0.4566 -0.1453
 7996SOL     OW28029   4.523   2.620   6.000 -0.5515  0.2710 -0.3690
 7996SOL    HW128030   4.457   2.670   6.047 -0.1546 -0.7844  1.4095
 7996SOL    HW228031   4.511   2.530   6.031  0.6052 -0.2363 -1.3155
 7997SOL     OW28032   8.184   3.500   8.756 -0.1699  0.2672  0.1347
 7997SOL    HW128033   8.183   3.578   8.701  2.0229 -0.0632 -0.4464
 7997SOL    HW228034   8.267   3.506   8.805  0.1239 -1.7573 -0.0360
 7998SOL     OW28035   6.906  10.230   7.637 -0.2516 -0.4975  0.2001
 7998SOL    HW128036   6.974  10.210   7.701 -0.6323 -1.7000  0.2404
 7998SOL    HW228037   6.944  10.206   7.553  0.4437  1.5638 -0.1321
 7999SOL     OW28038   7.856   9.870   5.772 -0.1284  0.3271 -0.3216
 7999SOL    HW128039   7.800   9.823   5.834  0.9345 -0.0514  0.3822
 7999SOL    HW228040   7.856   9.815   5.694  0.7045 -0.6233  0.3200
 8000SOL     OW28041   4.200   4.840   4.707  0.2382 -0.5380 -0.1965
 8000SOL    HW128042   4.177   4.911   4.766  0.1276  0.4957 -1.4578
 8000SOL    HW228043   4.135   4.772   4.725  0.2736 -0.2817  0.9362
 8001SOL     OW28044   1.632   0.937   5.746 -0.0128 -0.0879 -0.5220
 8001SOL    HW128045   1.697   0.973   5.806 -1.1312  0.6549  0.2869
 8001SOL    HW228046   1.644   0.843   5.752  1.4574  0.0447 -0.9433
 8002SOL     OW28047   8.901   6.484   6.907 -0.2301  0.1451 -0.1404
 8002SOL    HW128048   8.976   6.495   6.966 -1.1466  1.7766  0.7649
 8002SOL    HW228049   8.921   6.540   6.832 -0.4201  0.3903 -0.0101
 8003SOL     OW28050   2.400   7.754   1.235 -0.3415  0.5505  0.0448
 8003SOL    HW128051   2.367   7.708   1.158  0.4230  1.2524 -0.7052
 8003SOL    HW228052   2.407   7.845   1.208  0.6666  0.6821  0.7034
 8004SOL     OW28053   5.714   9.802   5.637 -0.3693 -0.0379 -0.6401
 8004SOL    HW128054   5.701   9.850   5.718 -0.2248 -1.0335 -0.0129
 8004SOL    HW228055   5.810   9.794   5.630 -0.4253 -1.6360  0.1208
 8005SOL     OW28056   1.866   6.758   5.230 -0.0859  0.4491  0.2749
 8005SOL    HW128057   1.918   6.835   5.253  0.9396 -0.4773  1.1657
 8005SOL    HW228058   1.780   6.775   5.269  0.0282  1.2735  0.1915
 8006SOL     OW28059   5.694   0.529   6.831  0.1689 -0.6896 -0.4047
 8006SOL    HW128060   5.599   0.544   6.827 -0.6170 -4.1752  1.1180
 8006SOL    HW228061   5.725   0.592   6.896 -1.7284 -1.5362  1.4493
 8007SOL     OW28062   5.952   9.092   8.367  0.2601 -0.1890  0.1081
 8007SOL    HW128063   5.863   9.079   8.397 -0.5448  0.9011 -1.6268
 8007SOL    HW228064   5.988   9.159   8.425  0.5178 -1.6921  1.7677
 8008SOL     OW28065   5.649   1.669   2.645 -0.0513  0.6492  0.4318
 8008SOL    HW128066   5.614   1.624   2.568  1.2575  0.0380  0.1680
 8008SOL    HW228067   5.659   1.600   2.711  1.2265  0.6719  0.2889
 8009SOL     OW28068   3.768   7.632   8.465  0.2921  0.1884 -0.3546
 8009SOL    HW128069   3.771   7.580   8.385 -0.8095  1.7699 -1.5108
 8009SOL    HW228070   3.849   7.683   8.464 -0.1242  0.8649 -0.9806
 8010SOL     OW28071   3.881   3.628   0.420  0.2819 -0.0159  0.1277
 8010SOL    HW128072   3.927   3.568   0.360  0.2780  0.8418 -0.7634
 8010SOL    HW228073   3.822   3.677   0.363 -0.1051  0.4566  0.9291
 8011SOL     OW28074   1.534   7.767   5.129 -0.3963  0.7374  0.5271
 8011SOL    HW128075   1.524   7.853   5.089 -0.4728  0.5345  0.0982
 8011SOL    HW228076   1.573   7.713   5.061 -1.2708  0.1825  0.4471
 8012SOL     OW28077   5.790   2.978   3.218 -0.2987 -0.9004  0.1818
 8012SOL    HW128078   5.843   2.899   3.229 -0.2388 -1.0692 -1.1567
 8012SOL    HW228079   5.776   2.985   3.123  1.8975  2.1236 -0.0564
 8013SOL     OW28080   5.874   5.061   2.579 -0.2063 -0.3036 -0.2580
 8013SOL    HW128081   5.796   5.027   2.622 -1.6684  1.0905 -1.6724
 8013SOL    HW228082   5.894   4.998   2.511 -1.3431  0.3110 -1.1888
 8014SOL     OW28083   3.814   5.438   6.876 -0.3600 -0.1446  0.1024
 8014SOL    HW128084   3.909   5.430   6.885 -0.3359 -1.4927 -0.9743
 8014SOL    HW228085   3.783   5.347   6.872 -1.9112  0.2321  2.2310
 8015SOL     OW28086   5.493   0.871   3.878  0.1566 -0.3733  0.2121
 8015SOL    HW128087   5.423   0.854   3.814  0.2511 -0.1510  0.0483
 8015SOL    HW228088   5.487   0.798   3.939 -0.2367 -0.3455  0.2130
 8016SOL     OW28089   9.463   8.553   1.362 -0.3816 -0.2439  0.3148
 8016SOL    HW128090   9.398   8.494   1.324 -0.4742  0.0961 -0.0605
 8016SOL    HW228091   9.435   8.641   1.336  0.1887 -0.0891  0.2011
 8017SOL     OW28092   2.975   4.699   0.227  0.5434 -0.1985  0.1857
 8017SOL    HW128093   3.024   4.778   0.250  0.1105  0.0413  0.3009
 8017SOL    HW228094   3.040   4.629   0.231  0.7380  0.0160  0.9974
 8018SOL     OW28095   8.913   5.668   6.695 -0.7083  0.1660 -0.1975
 8018SOL    HW128096   8.867   5.691   6.615 -1.3525  0.4185  0.2362
 8018SOL    HW228097   8.934   5.753   6.736 -1.2776  0.0244  0.3977
 8019SOL     OW28098   6.395   9.075   6.458 -0.1386 -0.0187 -0.1031
 8019SOL    HW128099   6.318   9.128   6.480  0.0599  0.2581 -0.0696
 8019SOL    HW228100   6.456   9.138   6.419  0.1354 -0.2094  0.0249
 8020SOL     OW28101   5.811   1.740   2.075 -0.3712  0.0420  0.5694
 8020SOL    HW128102   5.743   1.681   2.042  0.4258 -0.6301  0.0723
 8020SOL    HW228103   5.804   1.733   2.170  2.1250 -3.9154  0.6811
 8021SOL     OW28104   9.077   8.853   7.523 -0.3800 -0.3510  0.2766
 8021SOL    HW128105   9.098   8.909   7.598  0.0504 -0.1834  0.0331
 8021SOL    HW228106   9.137   8.779   7.531 -2.3349 -1.8857  1.7881
 8022SOL     OW28107   8.952   1.241   1.523 -0.2247  0.0863  0.4458
 8022SOL    HW128108   8.949   1.149   1.549 -0.2048  0.4209  1.6957
 8022SOL    HW228109   9.033   1.249   1.473  0.1787 -0.4239  0.9985
 8023SOL     OW28110   3.991   1.562   0.373  0.4280 -0.0879 -0.0285
 8023SOL    HW128111   3.953   1.480   0.405  0.8088 -0.5168 -0.6566
 8023SOL    HW228112   4.035   1.538   0.291  1.3537  0.5613  0.2645
 8024SOL     OW28113   0.693   9.377   8.781  0.6364 -0.1779 -0.1977
 8024SOL    HW128114   0.677   9.407   8.871 -2.5807 -1.3604 -0.2546
 8024SOL    HW228115   0.677   9.455   8.727  0.2330 -0.0364  0.1192
 8025SOL     OW28116   2.100   9.803   1.712 -0.2308 -0.0547  0.2062
 8025SOL    HW128117   2.077   9.787   1.620  0.2809  0.5803 -0.0340
 8025SOL    HW228118   2.163   9.733   1.733  1.0628  0.8636 -0.4822
 8026SOL     OW28119   6.414   6.017   1.088 -0.3428  0.7626 -0.0005
 8026SOL    HW128120   6.319   6.029   1.080 -0.3861  0.0447 -0.7172
 8026SOL    HW228121   6.423   5.941   1.145 -0.2153  0.5828 -0.2573
 8027SOL     OW28122   2.246   0.193   0.275  0.0277 -0.2874  1.0528
 8027SOL    HW128123   2.287   0.168   0.192 -2.1144  0.5636 -0.3279
 8027SOL    HW228124   2.235   0.111   0.322 -1.7509 -1.2961 -0.9666
 8028SOL     OW28125   3.588   6.565   4.231 -0.3494  0.0171  0.5201
 8028SOL    HW128126   3.577   6.588   4.323  0.6928  1.5718  0.3022
 8028SOL    HW228127   3.675   6.599   4.209 -0.3119 -0.9282 -0.8656
 8029SOL     OW28128   3.197   6.286   9.310 -0.1667  0.2646  0.0771
 8029SOL    HW128129   3.292   6.282   9.300 -0.3587 -0.4283 -1.7565
 8029SOL    HW228130   3.171   6.197   9.334 -0.3194  0.5900  1.1888
 8030SOL     OW28131   2.645   9.172   0.259 -0.3046 -0.0855 -0.0794
 8030SOL    HW128132   2.667   9.155   0.168 -0.0642  0.8541 -0.2066
 8030SOL    HW228133   2.707   9.118   0.309 -0.8214 -1.0653 -0.4499
 8031SOL     OW28134   1.618   7.830  10.044 -0.5393 -0.9166 -0.4052
 8031SOL    HW128135   1.705   7.853  10.012  0.3430  0.6593  2.6620
 8031SOL    HW228136   1.574   7.791   9.969  2.3188 -0.5106 -2.4668
 8032SOL     OW28137   5.807   1.224   5.180 -0.0112 -0.1059 -0.3855
 8032SOL    HW128138   5.809   1.133   5.208 -1.0833  0.2034  0.8102
 8032SOL    HW228139   5.855   1.225   5.098 -0.2968 -1.8141 -0.6149
 8033SOL     OW28140   0.801   2.188   7.264  0.0678 -0.2926 -0.3661
 8033SOL    HW128141   0.881   2.157   7.222  0.3084  0.2372 -0.3066
 8033SOL    HW228142   0.826   2.202   7.356 -0.4734 -1.5167 -0.0175
 8034SOL     OW28143   9.286   9.030   1.242 -0.3198 -0.0592  0.4000
 8034SOL    HW128144   9.280   9.076   1.325 -2.2738 -0.9294  0.8010
 8034SOL    HW228145   9.360   9.070   1.197  0.6778  0.5403  2.4705
 8035SOL     OW28146   1.761   8.588   9.470  0.0012  0.6923 -0.1268
 8035SOL    HW128147   1.830   8.652   9.452  0.6075 -0.4102 -2.0686
 8035SOL    HW228148   1.803   8.524   9.528 -0.2552  1.4118  0.8807
 8036SOL     OW28149   7.873   7.573   8.961 -0.3144 -0.4746 -0.1458
 8036SOL    HW128150   7.789   7.533   8.985  0.1105 -0.2466  1.9504
 8036SOL    HW228151   7.936   7.502   8.971 -0.3356 -1.0077 -2.9788
 8037SOL     OW28152   3.076   4.666   1.133  0.2373 -0.6301  0.2098
 8037SOL    HW128153   3.065   4.749   1.085 -1.9128 -0.2892  1.1725
 8037SOL    HW228154   3.141   4.618   1.082  0.9465  1.3061 -0.8371
 8038SOL     OW28155   4.426   0.898   5.850 -0.0287 -0.8615 -0.2035
 8038SOL    HW128156   4.515   0.930   5.841 -1.1425  2.5740 -0.6184
 8038SOL    HW228157   4.408   0.853   5.767  0.3486  1.3765 -1.6036
 8039SOL     OW28158   4.919   2.170   6.758  0.0124  0.2531 -0.1509
 8039SOL    HW128159   4.919   2.105   6.828  0.8656 -0.2981 -0.6409
 8039SOL    HW228160   4.930   2.254   6.802 -1.6360  0.1531  0.5401
 8040SOL     OW28161   7.357   7.873   7.164 -0.7120 -0.2626 -0.1648
 8040SOL    HW128162   7.449   7.898   7.158 -0.9300  1.1077  1.4315
 8040SOL    HW228163   7.348   7.799   7.103  1.8373 -1.6206  0.9337
 8041SOL     OW28164   1.564   2.100   8.318  0.2780 -0.0307 -0.1937
 8041SOL    HW128165   1.521   2.113   8.234 -1.6781  0.9681  0.8907
 8041SOL    HW228166   1.505   2.041   8.366  1.4678 -0.7537  0.4348
 8042SOL     OW28167   0.864   6.488   4.233 -0.2750  0.5771 -0.0559
 8042SOL    HW128168   0.908   6.491   4.148  0.7106  0.5329  0.4296
 8042SOL    HW228169   0.809   6.410   4.229  0.8911 -0.2794 -0.1509
 8043SOL     OW28170   9.370   2.579   2.450  0.3694  0.1344  0.5286
 8043SOL    HW128171   9.398   2.632   2.375  0.9832 -1.7929 -0.6856
 8043SOL    HW228172   9.434   2.599   2.518  0.2298  1.3858  0.3130
 8044SOL     OW28173   6.517   9.771   0.468 -0.2801  0.1547  0.0870
 8044SOL    HW128174   6.478   9.731   0.390  0.1099 -0.1723  0.0594
 8044SOL    HW228175   6.544   9.858   0.439 -1.1890  0.4804  0.1652
 8045SOL     OW28176   2.528   0.717  10.123 -0.0853 -0.0423  0.0022
 8045SOL    HW128177   2.538   0.642  10.063 -0.1045 -0.2019  0.1994
 8045SOL    HW228178   2.434   0.730  10.130 -0.1632 -1.1583  1.4012
 8046SOL     OW28179   8.812   2.095   8.228 -0.1937 -0.8021  0.3704
 8046SOL    HW128180   8.812   2.009   8.186 -0.8852 -0.2475 -0.8183
 8046SOL    HW228181   8.722   2.106   8.261 -0.9905  0.5797 -1.9791
 8047SOL     OW28182   0.781   8.291   8.138  0.1347  0.1323  0.3314
 8047SOL    HW128183   0.758   8.206   8.101 -0.0467  0.3981 -0.1889
 8047SOL    HW228184   0.787   8.349   8.061  0.6858  0.4888  0.6371
 8048SOL     OW28185   7.129   0.279   3.919 -0.2400 -0.5602  0.2679
 8048SOL    HW128186   7.121   0.365   3.960  1.5839 -0.6225  0.8228
 8048SOL    HW228187   7.089   0.291   3.832  2.1424  1.5879 -0.6635
 8049SOL     OW28188   7.268   2.109   8.050  0.3402  0.0253  0.6070
 8049SOL    HW128189   7.312   2.074   8.127 -2.0426 -2.7000  0.8877
 8049SOL    HW228190   7.270   2.037   7.987 -0.9495  0.9362 -0.5111
 8050SOL     OW28191   1.230   1.846   6.102  0.4817  0.0355  0.4557
 8050SOL    HW128192   1.218   1.752   6.110 -1.6377  0.3183  1.3731
 8050SOL    HW228193   1.310   1.856   6.050 -0.1757 -2.2651 -1.1637
 8051SOL     OW28194   8.509   2.096   3.497 -0.1911 -0.0314  0.3583
 8051SOL    HW128195   8.518   2.001   3.489  1.3662  0.1894 -1.1713
 8051SOL    HW228196   8.471   2.122   3.413 -0.5675  0.7046  0.7560
 8052SOL     OW28197   3.942   5.259   1.418  0.2667 -0.2824  0.1416
 8052SOL    HW128198   3.849   5.240   1.411 -0.1160  1.0371  1.3180
 8052SOL    HW228199   3.959   5.324   1.350 -0.0614  0.7791  1.0583
 8053SOL     OW28200   6.273   1.910   0.656 -0.4170 -1.0409  0.4497
 8053SOL    HW128201   6.362   1.877   0.666  0.5131  1.3944  0.9322
 8053SOL    HW228202   6.243   1.874   0.572  1.1732 -1.5859  0.0858
 8054SOL     OW28203   3.739   2.125   3.420 -0.0141 -0.6297 -0.3192
 8054SOL    HW128204   3.828   2.091   3.428 -0.6948 -2.2375  1.0745
 8054SOL    HW228205   3.746   2.217   3.449  1.0461 -0.9938  0.6714
 8055SOL     OW28206   6.068   5.022   2.985 -0.3802  0.6419 -0.4806
 8055SOL    HW128207   5.994   5.044   3.041  0.3457  0.3205  0.6337
 8055SOL    HW228208   6.085   4.929   3.003 -0.3947  0.4097 -1.5613
 8056SOL     OW28209  10.009   6.615   3.150  0.1405 -0.4347 -0.4908
 8056SOL    HW128210   9.978   6.525   3.161 -0.3634 -0.3419 -1.0688
 8056SOL    HW228211   9.936   6.660   3.106 -0.2927  0.6848  1.2635
 8057SOL     OW28212   2.229   2.069   5.793 -0.7009 -0.1870  0.1492
 8057SOL    HW128213   2.285   2.044   5.866  0.8627 -0.1211 -0.9718
 8057SOL    HW228214   2.260   2.156   5.768 -2.6204  0.7019  0.7087
 8058SOL     OW28215   3.614   2.299   9.805  0.3772  0.1023  0.6200
 8058SOL    HW128216   3.670   2.246   9.748  0.2883 -0.0487  0.6741
 8058SOL    HW228217   3.622   2.258   9.891  1.1492  0.8067  0.8947
 8059SOL     OW28218   9.330   8.587   6.215  0.1214  0.6622  0.2002
 8059SOL    HW128219   9.383   8.555   6.288  1.3861  0.2120 -0.8815
 8059SOL    HW228220   9.241   8.589   6.250  0.6072 -0.0978  1.5704
 8060SOL     OW28221   2.182   1.952   4.489 -0.4426 -0.1383 -0.1517
 8060SOL    HW128222   2.108   1.895   4.470  0.2872 -0.7809 -1.0809
 8060SOL    HW228223   2.226   1.911   4.563  0.1484 -0.8609 -0.8920
 8061SOL     OW28224   6.909   4.573   7.518 -0.0305  0.4473 -0.7130
 8061SOL    HW128225   6.841   4.537   7.576  0.7345 -0.3830 -0.3159
 8061SOL    HW228226   6.936   4.654   7.561  0.6909 -0.2728  0.2350
 8062SOL     OW28227   4.926   9.235   9.817  0.2632 -0.2783 -0.0887
 8062SOL    HW128228   4.889   9.322   9.831  0.3233 -0.1519 -0.6729
 8062SOL    HW228229   4.998   9.250   9.755  2.2628 -0.2993  2.0949
 8063SOL     OW28230   2.834   1.453   6.653  0.1300 -0.4174 -0.4349
 8063SOL    HW128231   2.808   1.446   6.745  2.3588  0.8837  0.3543
 8063SOL    HW228232   2.864   1.365   6.629  0.6502 -0.4930  0.4580
 8064SOL     OW28233   8.274   7.087   0.796 -0.4366  0.4472 -0.1356
 8064SOL    HW128234   8.346   7.094   0.859 -1.1587 -0.4941  0.8241
 8064SOL    HW228235   8.199   7.126   0.840 -2.2578 -4.4309  1.7726
 8065SOL     OW28236   1.958   6.145   3.700 -0.0674 -0.0114  0.0047
 8065SOL    HW128237   1.909   6.071   3.664 -2.2637  1.8146 -0.9995
 8065SOL    HW228238   2.043   6.107   3.726 -0.6411 -2.6115 -1.5252
 8066SOL     OW28239   5.239   7.075   0.158 -0.3882 -0.3717  0.2363
 8066SOL    HW128240   5.246   7.038   0.070  1.8311  0.9643 -0.2320
 8066SOL    HW228241   5.185   7.153   0.147 -0.0688 -0.1768  0.0384
 8067SOL     OW28242   4.640   0.036   1.509 -0.3290 -0.0679 -0.0616
 8067SOL    HW128243   4.548   0.010   1.511  0.3215 -2.6142  0.0949
 8067SOL    HW228244   4.663   0.036   1.416 -0.1146 -0.9427 -0.0132
 8068SOL     OW28245   7.745   2.142   4.271 -0.0537 -0.0945  0.1785
 8068SOL    HW128246   7.687   2.097   4.210  0.9567 -1.3153  0.0805
 8068SOL    HW228247   7.730   2.101   4.355 -1.8483  1.9591  0.9577
 8069SOL     OW28248   8.169   0.835   0.139  0.1850 -0.0332 -0.0809
 8069SOL    HW128249   8.129   0.848   0.053 -0.6279 -4.8665 -0.6933
 8069SOL    HW228250   8.096   0.843   0.201  0.4402  1.6238  0.0662
 8070SOL     OW28251   3.436   5.614   3.615 -0.1113 -0.6691 -0.1189
 8070SOL    HW128252   3.450   5.571   3.531  0.3890 -0.3600 -0.1916
 8070SOL    HW228253   3.498   5.686   3.617 -2.3398  1.4360 -0.9330
 8071SOL     OW28254   6.865   4.072   7.106  0.2126 -0.2649 -0.1256
 8071SOL    HW128255   6.887   3.989   7.062  1.9274 -0.7228  1.4651
 8071SOL    HW228256   6.935   4.132   7.080  0.5149 -0.1604  0.9090
 8072SOL     OW28257   2.525   1.533   1.589  0.1961  0.0476  0.1252
 8072SOL    HW128258   2.574   1.537   1.672  3.2172  0.0200 -1.5135
 8072SOL    HW228259   2.437   1.505   1.615  0.3379  2.1017  3.5329
 8073SOL     OW28260   8.485   7.830   5.636 -0.3211  0.4947 -0.0955
 8073SOL    HW128261   8.452   7.762   5.577  0.3179  0.2249 -0.1511
 8073SOL    HW228262   8.471   7.794   5.724  0.5895  0.0018 -0.1370
 8074SOL     OW28263   2.751   2.986   8.944  0.1669 -0.2517 -0.3141
 8074SOL    HW128264   2.819   3.029   8.892  1.2883 -1.0446  0.4381
 8074SOL    HW228265   2.678   2.974   8.884  0.7374  0.5296 -1.1801
 8075SOL     OW28266   6.453   1.755   9.147  0.1128 -0.4008  0.0286
 8075SOL    HW128267   6.533   1.797   9.179  0.1751  0.2440 -0.9193
 8075SOL    HW228268   6.429   1.806   9.070  0.2906 -2.2353 -1.3016
 8076SOL     OW28269   1.815   9.480   1.058 -0.0118  0.6703 -0.3429
 8076SOL    HW128270   1.902   9.490   1.097 -0.2783  2.4930 -0.1015
 8076SOL    HW228271   1.780   9.401   1.098  0.8446  0.9050  0.9543
 8077SOL     OW28272   3.387   0.690   0.863 -0.4505  0.0567  0.6099
 8077SOL    HW128273   3.480   0.668   0.867 -0.6362 -0.6942  0.8973
 8077SOL    HW228274   3.362   0.707   0.954 -0.6551  0.0039  0.5640
 8078SOL     OW28275   8.783   4.341   5.564  0.7746  0.7868 -0.4885
 8078SOL    HW128276   8.736   4.420   5.536 -1.1384  0.1916  0.8135
 8078SOL    HW228277   8.781   4.344   5.660 -2.6111 -2.4834 -0.2055
 8079SOL     OW28278   4.565   4.389   0.450  0.1343  0.3156 -0.0090
 8079SOL    HW128279   4.580   4.302   0.413 -0.0437  1.4760 -3.0736
 8079SOL    HW228280   4.636   4.400   0.514  1.1310 -1.4505 -0.7364
 8080SOL     OW28281   4.328   6.120   1.681 -0.2396  0.1780 -0.8238
 8080SOL    HW128282   4.355   6.029   1.671  0.9217  0.4494 -0.3889
 8080SOL    HW228283   4.257   6.132   1.619 -0.6742 -1.1288 -0.6041
 8081SOL     OW28284   0.850   2.582   6.065 -0.3101 -0.7657 -0.0272
 8081SOL    HW128285   0.792   2.610   5.994  0.6166  0.0845 -0.4836
 8081SOL    HW228286   0.883   2.497   6.038  0.4139 -0.2331 -0.8804
 8082SOL     OW28287   9.271   2.519   5.094  0.0540 -0.3099  0.2218
 8082SOL    HW128288   9.312   2.460   5.031 -1.7024 -0.2399 -1.0402
 8082SOL    HW228289   9.203   2.467   5.136 -0.4698  0.3684  0.2307
 8083SOL     OW28290   6.184   2.356   2.434  0.0533  0.0540 -0.3009
 8083SOL    HW128291   6.117   2.424   2.430 -0.5489 -0.5550 -0.9529
 8083SOL    HW228292   6.262   2.396   2.396  0.1522  0.8549  0.7097
 8084SOL     OW28293   6.326   8.709   5.732 -0.0350 -0.3382 -0.5249
 8084SOL    HW128294   6.338   8.781   5.670  1.5577  2.4603  2.7279
 8084SOL    HW228295   6.242   8.727   5.774 -0.1122 -1.0282 -0.3671
 8085SOL     OW28296  10.169   0.040   6.237 -0.0262  0.4321 -0.5481
 8085SOL    HW128297  10.261   0.023   6.215  0.4222  1.7526  0.1764
 8085SOL    HW228298  10.160   0.135   6.230 -0.9257  0.4924  0.8990
 8086SOL     OW28299   2.973   9.474   0.890  0.1098  0.0099  0.1398
 8086SOL    HW128300   2.990   9.388   0.853 -0.6458  0.4378 -1.3009
 8086SOL    HW228301   3.058   9.519   0.885 -0.0654  0.2075 -1.5699
 8087SOL     OW28302   6.729   3.126   2.014 -0.0684  0.0851 -0.4812
 8087SOL    HW128303   6.746   3.205   2.064 -0.5316 -0.5541  0.7323
 8087SOL    HW228304   6.633   3.121   2.010 -0.0428 -0.4436 -0.4847
 8088SOL     OW28305   9.811   0.250   6.973 -0.0487  0.6230 -0.0156
 8088SOL    HW128306   9.885   0.203   7.010 -1.0095 -0.6479  0.3613
 8088SOL    HW228307   9.831   0.259   6.880 -0.4376 -1.7817 -0.3954
 8089SOL     OW28308   8.996   7.445   8.791  0.3668  0.2596 -0.1382
 8089SOL    HW128309   8.995   7.349   8.796 -0.5483  0.2918  0.7037
 8089SOL    HW228310   9.007   7.464   8.698  2.0633 -0.6342 -0.1464
 8090SOL     OW28311   8.655   6.540   4.243 -0.1587 -0.7926  0.1457
 8090SOL    HW128312   8.578   6.485   4.256 -0.8799  0.5849  2.3758
 8090SOL    HW228313   8.621   6.619   4.200  0.3605 -0.9733 -0.5995
 8091SOL     OW28314   5.727   2.519   8.832 -0.0157 -0.0886 -0.4204
 8091SOL    HW128315   5.787   2.476   8.771 -0.3857 -1.9841  0.4624
 8091SOL    HW228316   5.701   2.449   8.892 -1.0764  1.2980  0.7970
 8092SOL     OW28317   9.186   0.814   4.254 -0.1450 -0.3489 -0.4818
 8092SOL    HW128318   9.120   0.766   4.205  0.7530 -1.1964 -0.8820
 8092SOL    HW228319   9.269   0.770   4.233  0.6665  1.1856 -0.6349
 8093SOL     OW28320   4.077   7.577   1.589  0.5629  0.6059  0.1055
 8093SOL    HW128321   4.159   7.574   1.637  0.0245  0.2093  1.0391
 8093SOL    HW228322   4.038   7.491   1.603  0.4922  0.3959 -1.2572
 8094SOL     OW28323   0.459   6.974   9.434  0.0006  0.2917  0.1540
 8094SOL    HW128324   0.403   6.949   9.361  0.8755 -3.7184  0.6422
 8094SOL    HW228325   0.548   6.958   9.403  0.4710  0.0510  1.5603
 8095SOL     OW28326   9.931   3.730   1.572  0.2745 -0.4353 -0.1923
 8095SOL    HW128327  10.012   3.781   1.581 -0.9415  1.3591  1.1644
 8095SOL    HW228328   9.961   3.644   1.542  2.6438  0.3054 -0.1718
 8096SOL     OW28329   6.012   6.665   9.249 -0.9203 -0.2424  0.2185
 8096SOL    HW128330   5.925   6.705   9.240 -0.3486  0.7622 -1.2940
 8096SOL    HW228331   6.002   6.601   9.319 -2.3879  1.1676  1.3638
 8097SOL     OW28332   3.883   7.329   2.695  0.0105  0.2481 -0.0369
 8097SOL    HW128333   3.929   7.407   2.726 -0.5058  0.4779  0.1536
 8097SOL    HW228334   3.810   7.363   2.643 -0.1649 -0.1128 -0.0316
 8098SOL     OW28335   9.662   7.209   1.977 -0.4229  0.5858  0.6390
 8098SOL    HW128336   9.751   7.234   1.951 -0.4613 -0.8255 -0.9883
 8098SOL    HW228337   9.654   7.117   1.953 -2.0057  0.3985  1.6952
 8099SOL     OW28338   1.470   4.177   5.368  0.1974 -0.2674 -0.3423
 8099SOL    HW128339   1.376   4.189   5.376  0.2367 -0.0076 -0.2464
 8099SOL    HW228340   1.504   4.266   5.356  0.4892 -0.2986  0.2463
 8100SOL     OW28341   8.425  10.046   3.377  0.0202  0.9980 -0.3903
 8100SOL    HW128342   8.432  10.122   3.319  3.5613  1.1558  0.0072
 8100SOL    HW228343   8.388   9.977   3.322 -0.3694  2.1694 -1.6635
 8101SOL     OW28344   9.577   6.855   4.887  0.2056  0.3862  0.0326
 8101SOL    HW128345   9.540   6.877   4.801 -2.3207 -0.2885  0.8744
 8101SOL    HW228346   9.601   6.763   4.879  0.3012  0.4175 -0.0502
 8102SOL     OW28347   6.645   3.442   4.774 -0.0872  0.4782 -0.1453
 8102SOL    HW128348   6.640   3.464   4.681 -0.2693  1.6368  0.1150
 8102SOL    HW228349   6.558   3.465   4.808  0.2460  0.8729  0.4619
 8103SOL     OW28350   2.744   8.945   9.425 -0.1592  0.5041  0.1205
 8103SOL    HW128351   2.813   8.887   9.394 -0.4648 -0.4997  1.2331
 8103SOL    HW228352   2.784   8.994   9.497 -0.1414  1.1084 -0.2918
 8104SOL     OW28353   9.036   1.723   3.938  0.4469 -0.2329  0.2480
 8104SOL    HW128354   8.955   1.677   3.959 -0.4028  1.0167 -0.1382
 8104SOL    HW228355   9.008   1.813   3.919  2.1242  0.7154  1.9290
 8105SOL     OW28356   0.933   9.523   4.491  0.1183  0.3250 -0.6135
 8105SOL    HW128357   1.014   9.547   4.535  0.7218 -0.8707 -1.0143
 8105SOL    HW228358   0.869   9.588   4.520  1.2081  1.2722 -0.2767
 8106SOL     OW28359   3.438   1.271   6.851  0.2891  0.1401  0.5781
 8106SOL    HW128360   3.533   1.275   6.840  0.0698  1.9157 -1.2278
 8106SOL    HW228361   3.408   1.361   6.838 -1.5130  0.0041  3.0878
 8107SOL     OW28362   2.101   1.367   5.073 -0.6363  0.0636 -0.5907
 8107SOL    HW128363   2.044   1.291   5.068 -1.5116  0.7298 -0.8529
 8107SOL    HW228364   2.150   1.366   4.990  1.1082 -1.5406  0.3887
 8108SOL     OW28365   7.816   0.217   6.552 -0.0103  0.0379 -0.5958
 8108SOL    HW128366   7.786   0.271   6.479 -2.0461  2.0091  1.5258
 8108SOL    HW228367   7.800   0.270   6.630  0.7109 -2.5033  1.4531
 8109SOL     OW28368   7.330   4.058   8.946  0.0235 -0.4173  0.0101
 8109SOL    HW128369   7.370   4.002   9.013  0.5202 -0.0645  0.0201
 8109SOL    HW228370   7.297   3.998   8.880 -0.3641 -0.7644  0.5177
 8110SOL     OW28371   1.078   0.634   7.013 -0.0654 -0.1465 -0.5337
 8110SOL    HW128372   1.003   0.575   7.015  0.3515 -0.6598  0.8307
 8110SOL    HW228373   1.077   0.670   6.924 -2.3274  0.4214 -0.3417
 8111SOL     OW28374   5.178   7.708   8.809  0.0026  0.0594 -0.1740
 8111SOL    HW128375   5.247   7.695   8.744 -0.3720 -2.8591 -0.1115
 8111SOL    HW228376   5.224   7.737   8.888  0.5076  3.2301 -1.4841
 8112SOL     OW28377   7.190   8.705   7.087  0.4727  0.6711  0.3830
 8112SOL    HW128378   7.191   8.609   7.088 -0.8463  0.6142 -0.3274
 8112SOL    HW228379   7.244   8.731   7.161 -0.7212 -0.6515  1.8067
 8113SOL     OW28380   2.480   6.663   4.696  0.6582  0.2083 -0.0748
 8113SOL    HW128381   2.410   6.611   4.656  0.9381 -0.1652 -0.0837
 8113SOL    HW228382   2.470   6.650   4.790  1.7751 -1.2598 -0.1278
 8114SOL     OW28383   4.059   6.765   5.817 -0.1305 -0.1391  0.7864
 8114SOL    HW128384   4.047   6.673   5.843 -0.2467 -0.6654 -1.0178
 8114SOL    HW228385   4.133   6.763   5.757  1.1201  1.2660  2.1889
 8115SOL     OW28386   7.730   4.723   8.390  1.0589  0.3308  0.5325
 8115SOL    HW128387   7.769   4.637   8.405  0.1843  0.1538  2.0135
 8115SOL    HW228388   7.799   4.774   8.349  2.0700 -0.6569  0.9681
 8116SOL     OW28389   5.473  10.136   4.267 -0.1189  0.0227  0.2486
 8116SOL    HW128390   5.378  10.148   4.273 -0.0640  0.5741  0.0924
 8116SOL    HW228391   5.484  10.056   4.216 -0.4965  1.3983 -2.1381
 8117SOL     OW28392   1.895   5.202   3.945 -0.3817 -0.5527  0.3316
 8117SOL    HW128393   1.903   5.143   3.870 -2.4967 -1.9494  1.1011
 8117SOL    HW228394   1.802   5.225   3.948 -0.0068  0.9836  1.4392
 8118SOL     OW28395  10.291   6.757   9.932  0.3209 -0.2335  0.2132
 8118SOL    HW128396  10.260   6.843   9.903 -0.7245 -1.1487 -1.5956
 8118SOL    HW228397  10.386   6.765   9.934  0.2007  1.8602  3.2292
 8119SOL     OW28398   4.668   8.937   5.367 -0.0892 -0.8484  0.0396
 8119SOL    HW128399   4.680   8.921   5.273  2.3974  1.7726 -0.2166
 8119SOL    HW228400   4.580   8.976   5.373  1.4706  3.7201 -2.1391
 8120SOL     OW28401   0.590   7.880   4.804 -0.1600 -0.6993 -0.1407
 8120SOL    HW128402   0.653   7.882   4.875 -0.6247 -1.4942  0.3029
 8120SOL    HW228403   0.505   7.869   4.847 -0.6747  0.7808 -0.6983
 8121SOL     OW28404   8.500   4.205   1.167  0.3964  0.3447  0.2943
 8121SOL    HW128405   8.467   4.295   1.171 -1.8921 -0.3813 -0.6560
 8121SOL    HW228406   8.548   4.200   1.085  0.8873  0.7824  0.5477
 8122SOL     OW28407   9.768   5.533   5.787  0.4454  0.0836  0.3544
 8122SOL    HW128408   9.737   5.619   5.759  0.8014  0.0084 -0.2983
 8122SOL    HW228409   9.689   5.478   5.786  0.7635 -0.5433 -2.9701
 8123SOL     OW28410   6.873   2.525   0.735  0.4296 -0.4155 -0.0926
 8123SOL    HW128411   6.957   2.503   0.776  0.7256  1.2898  0.2783
 8123SOL    HW228412   6.891   2.605   0.685 -1.1286  0.4024  0.5983
 8124SOL     OW28413   0.251   1.822   4.341  0.2134  0.2431 -0.0514
 8124SOL    HW128414   0.212   1.827   4.254  1.4497  2.9649 -0.5555
 8124SOL    HW228415   0.344   1.835   4.326  0.4027  1.1821  1.7048
 8125SOL     OW28416   2.756   3.779   2.842  0.3200 -0.6875  0.4169
 8125SOL    HW128417   2.759   3.748   2.751  0.0752  2.3160 -0.7031
 8125SOL    HW228418   2.687   3.726   2.882 -0.1686 -1.5069 -1.3765
 8126SOL     OW28419   3.411   2.446   7.151 -0.3935 -0.0008  0.1145
 8126SOL    HW128420   3.348   2.380   7.180 -0.5278  0.1795  0.2344
 8126SOL    HW228421   3.496   2.412   7.181 -0.4236 -0.2846 -0.1212
 8127SOL     OW28422   4.692   1.859   8.103 -0.0105 -0.0986 -0.1877
 8127SOL    HW128423   4.733   1.799   8.166 -0.9369  0.0709  0.6177
 8127SOL    HW228424   4.610   1.885   8.146  0.0124  1.1387 -0.8679
 8128SOL     OW28425   6.937   4.095   6.526  0.2536  0.0888  0.3095
 8128SOL    HW128426   7.018   4.108   6.477 -0.3525  0.6713 -0.5701
 8128SOL    HW228427   6.936   4.001   6.545  0.3493 -0.2175 -1.0906
 8129SOL     OW28428   9.788   8.414   1.217  0.0300  0.0262 -0.2239
 8129SOL    HW128429   9.725   8.481   1.189 -1.4081 -1.7185 -1.4850
 8129SOL    HW228430   9.835   8.391   1.137  2.6022  1.5135  0.7604
 8130SOL     OW28431   2.336   3.907   8.985 -0.2789 -0.1160 -0.2953
 8130SOL    HW128432   2.287   3.957   9.050 -1.7521 -1.4785 -0.2940
 8130SOL    HW228433   2.276   3.900   8.910  0.7858  0.0872 -1.1965
 8131SOL     OW28434   4.714   8.969   3.752  0.1650 -0.9586  0.4390
 8131SOL    HW128435   4.677   9.052   3.721  2.0409  0.5494  2.0216
 8131SOL    HW228436   4.642   8.927   3.798 -1.0576 -0.6412 -1.0914
 8132SOL     OW28437   5.825   3.596   5.928  0.0073  0.0280  0.5239
 8132SOL    HW128438   5.890   3.665   5.919  0.2202 -0.2533 -0.0917
 8132SOL    HW228439   5.796   3.602   6.020 -0.5136  1.4106  0.2894
 8133SOL     OW28440   0.037   5.222   4.241 -0.0932 -0.1054  0.0442
 8133SOL    HW128441  -0.046   5.270   4.244  0.7790  1.4286  0.9642
 8133SOL    HW228442   0.028   5.165   4.165 -1.4562  1.0513 -0.7327
 8134SOL     OW28443   1.542   6.311  10.067 -0.3972  0.6558  0.6849
 8134SOL    HW128444   1.569   6.357  10.146 -0.8408 -1.9360  2.4909
 8134SOL    HW228445   1.551   6.218  10.090 -2.0625 -0.2013 -1.7700
 8135SOL     OW28446   2.454   4.210   7.577 -0.0335 -0.1107  0.4034
 8135SOL    HW128447   2.363   4.219   7.603 -0.2961 -0.1681 -0.4708
 8135SOL    HW228448   2.476   4.119   7.597 -1.3359 -1.2735 -2.8787
 8136SOL     OW28449   2.794   1.194   1.575 -0.3213 -0.4660  0.0715
 8136SOL    HW128450   2.792   1.115   1.522 -1.7193 -0.4042 -0.0038
 8136SOL    HW228451   2.767   1.264   1.516  1.5175  0.2103 -0.0351
 8137SOL     OW28452   6.984   0.499   2.932  0.5179  0.5245 -0.5332
 8137SOL    HW128453   6.891   0.510   2.947  0.0159 -0.6830 -2.3800
 8137SOL    HW228454   7.026   0.553   2.999 -1.5186  2.9431 -1.0344
 8138SOL     OW28455   3.305   6.607   0.359  0.3973 -0.0922 -0.4680
 8138SOL    HW128456   3.329   6.682   0.304  1.4207 -0.0830 -0.0375
 8138SOL    HW228457   3.257   6.549   0.300 -0.5424  0.9517 -0.7803
 8139SOL     OW28458   6.591   5.989   3.027 -0.0700  0.3789 -0.1965
 8139SOL    HW128459   6.626   6.077   3.016  0.7416  0.0371 -0.4319
 8139SOL    HW228460   6.563   5.963   2.939  0.7100 -0.0153 -0.3280
 8140SOL     OW28461   4.890   0.742   9.208 -0.3633  0.6164 -0.3079
 8140SOL    HW128462   4.930   0.797   9.276 -0.0089 -0.5296  0.4280
 8140SOL    HW228463   4.923   0.778   9.126 -0.5705  1.8480  0.1203
 8141SOL     OW28464   6.135   6.197   9.576  0.1038 -0.0895  0.4051
 8141SOL    HW128465   6.169   6.140   9.645 -1.3468 -0.3312  0.9734
 8141SOL    HW228466   6.211   6.221   9.524  0.8084 -2.3003  0.3284
 8142SOL     OW28467   8.670   5.909   5.636 -0.6620 -0.0855 -0.1300
 8142SOL    HW128468   8.586   5.862   5.642 -0.6215 -0.2116 -0.5243
 8142SOL    HW228469   8.697   5.897   5.545 -0.3667  0.2197 -0.0811
 8143SOL     OW28470   2.985   2.236   6.042 -0.3416  0.0815 -0.1454
 8143SOL    HW128471   3.071   2.221   6.082 -0.5032  0.5368  0.3834
 8143SOL    HW228472   2.965   2.154   5.997  0.4112  0.0025 -0.3461
 8144SOL     OW28473   8.646   1.407   8.804 -0.0559  0.2157 -0.8763
 8144SOL    HW128474   8.735   1.374   8.815  0.2401  1.0829 -0.5721
 8144SOL    HW228475   8.610   1.356   8.731  0.2255 -1.0459 -0.1472
 8145SOL     OW28476   2.647   9.338   3.286  0.0409 -0.3561 -0.3451
 8145SOL    HW128477   2.657   9.249   3.320  1.6400 -0.6057 -1.3478
 8145SOL    HW228478   2.555   9.360   3.302 -0.1763 -1.8545  0.6756
 8146SOL     OW28479   1.100   3.693   2.120  0.2768 -0.0294 -0.4588
 8146SOL    HW128480   1.122   3.759   2.055 -0.0398  0.5199 -0.0227
 8146SOL    HW228481   1.085   3.743   2.200 -0.4217 -0.5890 -0.2301
 8147SOL     OW28482   6.077   6.155   0.851  0.1151  0.3332  0.0114
 8147SOL    HW128483   6.126   6.206   0.916 -2.0299  0.5610  1.5232
 8147SOL    HW228484   6.040   6.221   0.793 -1.2905  0.4455  0.9900
 8148SOL     OW28485   3.132   9.726   4.512  0.2440  0.0688  0.5716
 8148SOL    HW128486   3.170   9.728   4.600  2.2711 -1.4220 -0.2041
 8148SOL    HW228487   3.141   9.816   4.480  1.8654  0.0761  0.9605
 8149SOL     OW28488   2.797   7.345   1.589  0.9750  0.0130 -0.2455
 8149SOL    HW128489   2.734   7.384   1.650 -0.5314 -0.5374 -1.4019
 8149SOL    HW228490   2.827   7.418   1.536  2.8652  0.6410  1.5506
 8150SOL     OW28491   8.416   1.090   8.490  0.0479  0.4545  0.0625
 8150SOL    HW128492   8.332   1.137   8.486 -0.4769 -0.4887 -0.3197
 8150SOL    HW228493   8.392   0.998   8.482  1.1176  0.1610  0.1321
 8151SOL     OW28494   6.172   1.022   1.275  0.3657  0.3751  0.2980
 8151SOL    HW128495   6.122   1.096   1.310 -0.3319  0.0305  0.0636
 8151SOL    HW228496   6.242   1.062   1.223 -0.2333  0.8779 -0.1407
 8152SOL     OW28497   9.901   5.478   1.600 -0.4346  0.5208 -0.0566
 8152SOL    HW128498   9.827   5.481   1.661 -0.6525 -2.2856 -0.0535
 8152SOL    HW228499   9.967   5.424   1.644  0.5803  0.8237 -1.1360
 8153SOL     OW28500   7.803  10.009   3.310  0.2252 -0.2406  0.5478
 8153SOL    HW128501   7.769   9.939   3.254  0.3091 -1.1096  1.5608
 8153SOL    HW228502   7.744  10.082   3.294 -0.3250 -0.7737  0.0426
 8154SOL     OW28503   8.935   5.716   1.340  0.4514 -0.4872  0.0688
 8154SOL    HW128504   8.924   5.794   1.395 -0.7013 -1.5841  1.4510
 8154SOL    HW228505   8.956   5.646   1.401  0.3039 -1.5154 -1.0223
 8155SOL     OW28506   5.504   2.987   6.045 -0.5792 -0.0245  0.2845
 8155SOL    HW128507   5.420   3.033   6.048 -0.3152  0.6598 -1.6339
 8155SOL    HW228508   5.556   3.037   5.982  1.6834  0.2052  2.1982
 8156SOL     OW28509   3.161   8.441   6.684 -0.0321  0.4540  0.5592
 8156SOL    HW128510   3.182   8.507   6.749 -0.3731  0.7064  0.4124
 8156SOL    HW228511   3.136   8.490   6.606  0.6023  0.1546  0.1577
 8157SOL     OW28512   1.725   9.018   4.855 -0.1184  0.4596  0.2727
 8157SOL    HW128513   1.665   9.075   4.807 -0.7571 -0.5343 -0.1283
 8157SOL    HW228514   1.731   8.939   4.802  0.8353  0.1765  0.7741
 8158SOL     OW28515   0.003   2.752   7.825  0.3130 -0.3323  0.3523
 8158SOL    HW128516  -0.060   2.731   7.893  0.4679  0.4269  0.7330
 8158SOL    HW228517   0.043   2.835   7.852 -1.8324  1.7009 -2.1605
 8159SOL     OW28518   0.954   3.769   1.496  0.1483 -0.5273 -0.6326
 8159SOL    HW128519   0.933   3.713   1.571 -0.1402  0.0785 -0.2510
 8159SOL    HW228520   0.963   3.856   1.534 -0.9084 -0.0588 -1.4439
 8160SOL     OW28521   4.996   8.258   3.201  0.0423  0.4443  0.8068
 8160SOL    HW128522   5.058   8.192   3.170  0.2655  1.5520 -1.3048
 8160SOL    HW228523   4.977   8.312   3.124 -3.3220  0.3597  1.4140
 8161SOL     OW28524   8.919   2.837   9.060 -0.4652  0.2643 -0.4109
 8161SOL    HW128525   9.012   2.855   9.051 -0.1320 -0.4101  1.2648
 8161SOL    HW228526   8.877   2.898   9.000  1.0905 -0.2204 -2.0765
 8162SOL     OW28527   0.118   0.566   4.536  0.2320  0.1827 -0.4454
 8162SOL    HW128528   0.142   0.592   4.447 -1.2939 -1.4066 -1.4078
 8162SOL    HW228529   0.047   0.625   4.560  0.3215  0.3005 -0.4666
 8163SOL     OW28530   1.840   8.898   3.446  0.6985  0.7677  0.2550
 8163SOL    HW128531   1.833   8.980   3.495 -0.1195 -0.0128  1.5012
 8163SOL    HW228532   1.855   8.832   3.513  0.9093 -0.1638 -0.6938
 8164SOL     OW28533   3.189   5.796   2.050 -0.4165  0.3397  0.3566
 8164SOL    HW128534   3.159   5.868   2.107  0.2671  0.3635  0.6905
 8164SOL    HW228535   3.251   5.837   1.991  0.5100 -0.1034  1.0017
 8165SOL     OW28536  10.115   2.233   7.402 -0.3255  0.6617  0.2166
 8165SOL    HW128537  10.064   2.266   7.328 -0.5981 -2.2031 -1.0020
 8165SOL    HW228538  10.176   2.171   7.363  1.1231  0.7813  2.1666
 8166SOL     OW28539   3.226   7.259   7.215  0.1610 -0.3763 -0.2066
 8166SOL    HW128540   3.153   7.312   7.184  0.6200  1.3219  1.4294
 8166SOL    HW228541   3.192   7.215   7.293  0.8836  0.5693  0.6730
 8167SOL     OW28542   0.682   8.010   8.016  0.5165  0.3022 -0.0619
 8167SOL    HW128543   0.619   7.939   8.025 -0.9402  1.5605 -0.0195
 8167SOL    HW228544   0.764   7.966   7.992 -0.1636 -1.4354  0.6506
 8168SOL     OW28545   7.796   5.583   2.305  0.2366  0.1092 -0.0337
 8168SOL    HW128546   7.753   5.644   2.245  1.5856  0.9730 -0.1559
 8168SOL    HW228547   7.825   5.511   2.248 -3.0249 -1.7174  0.3608
 8169SOL     OW28548   1.648   3.002   9.899  0.5640 -0.0733  0.0758
 8169SOL    HW128549   1.631   2.909   9.910 -0.2897 -0.2296 -2.0821
 8169SOL    HW228550   1.590   3.029   9.827  2.3156  1.6488 -0.7895
 8170SOL     OW28551   8.663   5.892   2.630 -0.1765 -0.2595  0.3829
 8170SOL    HW128552   8.586   5.935   2.593 -0.7734 -0.4555  1.3590
 8170SOL    HW228553   8.737   5.944   2.599 -0.7523  0.3159 -0.0428
 8171SOL     OW28554   8.889   1.048   5.891 -0.4888  0.4700  0.2872
 8171SOL    HW128555   8.812   1.104   5.905 -0.2426  1.1435 -0.8825
 8171SOL    HW228556   8.952   1.077   5.956 -1.0735  0.1815  0.9982
 8172SOL     OW28557   5.730   3.262   6.392 -0.3713  0.0858  0.8049
 8172SOL    HW128558   5.769   3.249   6.305 -0.8966 -1.4716  0.7591
 8172SOL    HW228559   5.642   3.296   6.374 -0.6082 -0.5641  0.6841
 8173SOL     OW28560   4.912   7.362  10.170  0.0874 -0.0560 -0.1129
 8173SOL    HW128561   4.829   7.405  10.154  0.1646  0.1377  0.0041
 8173SOL    HW228562   4.894   7.269  10.157 -0.1322 -0.0083 -0.1458
 8174SOL     OW28563   2.149   3.147   2.829 -0.0562  0.1587  0.2793
 8174SOL    HW128564   2.216   3.128   2.763  1.1531 -0.3321  1.6060
 8174SOL    HW228565   2.154   3.242   2.841 -0.8595  0.3798 -0.8857
 8175SOL     OW28566   0.660   8.124  10.190 -0.5286 -0.2865 -0.0007
 8175SOL    HW128567   0.634   8.054  10.130  2.1472 -0.6841 -0.8158
 8175SOL    HW228568   0.718   8.180  10.138 -0.5087  1.0496  1.3933
 8176SOL     OW28569   1.676   8.433   8.928  0.2408  0.1707  0.0293
 8176SOL    HW128570   1.757   8.482   8.915 -0.2248  0.9887  0.1684
 8176SOL    HW228571   1.678   8.406   9.020  0.2506  0.3766  0.0890
 8177SOL     OW28572   5.765   0.057   8.975  0.1455  0.2379 -0.1875
 8177SOL    HW128573   5.708   0.069   8.899 -0.1541 -0.6562 -0.1115
 8177SOL    HW228574   5.741  -0.028   9.011  1.5639 -0.1908 -0.1755
 8178SOL     OW28575   8.403   0.721   8.807 -0.0898 -0.1392 -0.6054
 8178SOL    HW128576   8.420   0.714   8.713 -1.7274  1.4450 -1.0809
 8178SOL    HW228577   8.373   0.634   8.833  2.4488 -1.2190 -1.0210
 8179SOL     OW28578   0.203   4.587   4.252 -0.2410  0.3531 -0.6875
 8179SOL    HW128579   0.151   4.585   4.172 -0.2444  2.1582 -0.7603
 8179SOL    HW228580   0.167   4.660   4.302 -0.4387 -0.9078  1.1277
 8180SOL     OW28581   8.003   0.576   5.988  0.1126 -0.3432  0.1411
 8180SOL    HW128582   7.959   0.558   6.071  2.4572  0.7659  1.7135
 8180SOL    HW228583   8.021   0.670   5.989  0.2000 -0.3017 -1.6359
 8181SOL     OW28584   6.187   8.335   4.600 -0.1525 -0.7984  0.6896
 8181SOL    HW128585   6.144   8.397   4.659 -0.9166  0.2477 -0.8859
 8181SOL    HW228586   6.260   8.384   4.563 -0.9095 -0.7235 -0.7628
 8182SOL     OW28587   1.572   8.134   9.020  0.3026  0.1802 -0.6707
 8182SOL    HW128588   1.478   8.138   9.036  0.0310  1.2915 -2.3026
 8182SOL    HW228589   1.609   8.103   9.102 -1.4958 -0.4140 -0.0389
 8183SOL     OW28590   7.103   3.344   6.436 -0.2119  0.1889  0.4801
 8183SOL    HW128591   7.129   3.400   6.363  0.3003 -0.4095  0.1978
 8183SOL    HW228592   7.176   3.283   6.447 -1.1202 -0.9603  0.2456
 8184SOL     OW28593   3.228   2.866   5.504 -0.0934 -0.1583  0.3394
 8184SOL    HW128594   3.182   2.929   5.449 -0.6182 -1.0221 -0.2275
 8184SOL    HW228595   3.253   2.796   5.444  0.6028 -0.4347  0.9366
 8185SOL     OW28596   8.704   5.769   7.382 -0.4483 -0.3020  0.7029
 8185SOL    HW128597   8.687   5.800   7.293 -1.8191  2.1287  1.7317
 8185SOL    HW228598   8.630   5.712   7.402 -0.0407 -1.0073  0.2583
 8186SOL     OW28599   7.972   8.422  10.096  0.9401  0.0115  0.7668
 8186SOL    HW128600   7.967   8.513  10.066  0.3591 -0.4466 -0.6219
 8186SOL    HW228601   8.061   8.413  10.129  0.4387  1.6088  2.8126
 8187SOL     OW28602   6.132   2.387   6.265  0.4368  0.1788  0.2077
 8187SOL    HW128603   6.219   2.385   6.226  0.4918 -2.1810  0.3227
 8187SOL    HW228604   6.133   2.464   6.322  1.8087  1.1983 -1.1253
 8188SOL     OW28605   9.729   8.843   4.929  0.4527  0.4644  0.2495
 8188SOL    HW128606   9.704   8.820   5.018  0.7781  1.7786  0.7121
 8188SOL    HW228607   9.807   8.790   4.912  0.2673  0.0518  0.6721
 8189SOL     OW28608   7.867   4.927   4.649  0.5066 -0.5802  0.8665
 8189SOL    HW128609   7.854   5.019   4.672  1.8452 -0.3565  0.8070
 8189SOL    HW228610   7.788   4.884   4.680 -1.0682  0.8805 -0.8898
 8190SOL     OW28611   4.186   9.239   7.737 -0.2534  0.1023  0.5144
 8190SOL    HW128612   4.100   9.264   7.706 -0.5201 -2.2699 -0.9338
 8190SOL    HW228613   4.247   9.291   7.684 -0.7909  0.2243  0.0053
 8191SOL     OW28614   9.861   8.117   0.552  0.0712  0.0015  0.5879
 8191SOL    HW128615   9.827   8.160   0.631 -1.9702 -0.4123 -0.0099
 8191SOL    HW228616   9.894   8.033   0.582  1.7122  0.8886  1.3683
 8192SOL     OW28617   8.124   4.156   7.210  0.7331  0.0989 -0.0115
 8192SOL    HW128618   8.163   4.075   7.244 -0.8423 -0.6242  0.1667
 8192SOL    HW228619   8.070   4.126   7.136  0.8580  1.1219 -0.5279
 8193SOL     OW28620   3.196   9.130   7.284  0.1139 -0.5858  0.2158
 8193SOL    HW128621   3.148   9.143   7.202  0.2867 -3.7154 -0.5407
 8193SOL    HW228622   3.220   9.218   7.313 -0.8825  0.7004 -2.5327
 8194SOL     OW28623   8.177   0.400   2.884 -0.1651  1.2003  0.6541
 8194SOL    HW128624   8.209   0.482   2.922  3.6610  1.0326 -1.6253
 8194SOL    HW228625   8.147   0.424   2.797 -0.5213  0.3940  0.5467
 8195SOL     OW28626   1.351   0.731   1.062 -0.2440 -0.4553 -0.1206
 8195SOL    HW128627   1.259   0.706   1.067 -0.1433 -0.6067  1.6670
 8195SOL    HW228628   1.395   0.655   1.025 -0.6743 -0.8958  0.2606
 8196SOL     OW28629   9.348   1.705   1.963  0.0635 -0.3327  0.0168
 8196SOL    HW128630   9.272   1.650   1.981  0.5080 -1.0409 -0.2046
 8196SOL    HW228631   9.377   1.678   1.875  1.5391 -1.2712  0.7412
 8197SOL     OW28632   3.865   9.674   2.857 -0.3304  0.4610  0.2689
 8197SOL    HW128633   3.785   9.691   2.907 -0.8866 -0.1417 -0.3984
 8197SOL    HW228634   3.836   9.664   2.766  0.2463 -1.5887  0.2539
 8198SOL     OW28635   4.527   3.644   6.688  0.2073 -0.2932  0.5158
 8198SOL    HW128636   4.446   3.682   6.720  0.3695  0.6694 -0.1933
 8198SOL    HW228637   4.528   3.661   6.594  0.8763 -0.9583  0.3815
 8199SOL     OW28638   2.738   2.777   7.896 -0.1261  0.5835  0.1653
 8199SOL    HW128639   2.720   2.716   7.825 -1.3569  1.1779 -0.0768
 8199SOL    HW228640   2.769   2.722   7.968  0.2254 -0.1377 -0.5242
 8200SOL     OW28641   2.772   3.008   1.347 -0.4962  0.5366  0.5608
 8200SOL    HW128642   2.816   2.985   1.265 -1.8188  1.6821 -0.5261
 8200SOL    HW228643   2.842   3.011   1.412  0.4496 -1.2688 -0.3232
 8201SOL     OW28644   9.285   3.050   9.545  0.1993 -0.0108  0.3082
 8201SOL    HW128645   9.271   3.141   9.521 -2.9872  0.0526  1.9344
 8201SOL    HW228646   9.270   3.047   9.639 -1.4857 -2.4374  0.0592
 8202SOL     OW28647   2.360   9.680   6.757 -0.9881 -0.0562 -0.1322
 8202SOL    HW128648   2.361   9.606   6.818 -1.4772  0.0925  0.0643
 8202SOL    HW228649   2.407   9.749   6.803  1.4055 -0.8775 -1.1729
 8203SOL     OW28650   3.478   9.665   8.980 -0.0030 -0.2856  0.0726
 8203SOL    HW128651   3.484   9.759   8.999  2.2016  0.1760 -2.2706
 8203SOL    HW228652   3.543   9.625   9.037 -0.9226 -0.4253  1.0505
 8204SOL     OW28653   2.483   1.342   3.074  0.2951 -0.9914 -0.6801
 8204SOL    HW128654   2.506   1.318   3.164  0.3140 -1.5389 -0.8237
 8204SOL    HW228655   2.480   1.437   3.074 -1.3658 -0.9965  0.3223
 8205SOL     OW28656   7.248   1.068   0.022 -0.2468 -0.5595  0.2070
 8205SOL    HW128657   7.211   0.983   0.044 -0.8152 -0.3912 -0.0846
 8205SOL    HW228658   7.311   1.086   0.092  0.2264 -1.4335  0.0141
 8206SOL     OW28659   7.727   2.289   3.331 -0.0423 -0.2237  0.1037
 8206SOL    HW128660   7.677   2.330   3.400  0.8885 -0.5262  0.9887
 8206SOL    HW228661   7.770   2.214   3.373  1.4136  0.2178 -0.5137
 8207SOL     OW28662   2.385   6.323   0.355 -0.1081 -0.2223 -0.2796
 8207SOL    HW128663   2.330   6.307   0.279  0.0825  1.7363 -0.8659
 8207SOL    HW228664   2.333   6.381   0.411  0.0653 -1.0187  0.7584
 8208SOL     OW28665   6.127   9.217   0.801  0.1539  0.1598  0.5025
 8208SOL    HW128666   6.103   9.124   0.808  0.1573  0.1450  0.3247
 8208SOL    HW228667   6.177   9.222   0.720 -0.6722  0.4887 -0.0040
 8209SOL     OW28668   9.354   0.170   5.573 -0.2417  0.1757  0.2778
 8209SOL    HW128669   9.445   0.197   5.580 -0.7431  2.0907  0.0582
 8209SOL    HW228670   9.338   0.165   5.479 -0.9506  2.1776  0.2499
 8210SOL     OW28671   1.262   7.203   9.570 -0.0960  0.3112 -0.1498
 8210SOL    HW128672   1.261   7.119   9.525 -3.5754  1.2109 -2.1088
 8210SOL    HW228673   1.216   7.187   9.652  2.3456 -0.3422  1.1920
 8211SOL     OW28674   6.306   8.220   7.617 -0.1608 -0.8984  0.8561
 8211SOL    HW128675   6.368   8.261   7.678 -1.8141 -1.1450  2.7875
 8211SOL    HW228676   6.332   8.128   7.616  0.4540 -0.7306  0.4142
 8212SOL     OW28677   2.544   0.233   7.354  0.4488 -0.4308  0.2060
 8212SOL    HW128678   2.630   0.225   7.313 -0.0462 -0.1358 -0.9365
 8212SOL    HW228679   2.562   0.266   7.442  1.4297  0.9237 -0.4634
 8213SOL     OW28680   8.242   5.889   7.775  0.2499  0.3112  0.3401
 8213SOL    HW128681   8.236   5.956   7.707  0.2118 -0.4036 -0.3777
 8213SOL    HW228682   8.202   5.929   7.852 -1.6783  0.3802 -0.6340
 8214SOL     OW28683   7.563   3.411   0.450  0.0599 -0.3139  0.2431
 8214SOL    HW128684   7.477   3.388   0.484  0.7791 -1.6047  1.3144
 8214SOL    HW228685   7.604   3.327   0.429 -0.2616  0.3533 -3.9041
 8215SOL     OW28686   6.764   8.125   1.863  1.2650  0.1481  0.1502
 8215SOL    HW128687   6.745   8.062   1.793  1.9686 -0.3374  0.3778
 8215SOL    HW228688   6.700   8.105   1.931  2.3826 -1.3344  0.8308
 8216SOL     OW28689   3.913   3.813   4.269 -0.1098  0.0800 -0.3838
 8216SOL    HW128690   3.894   3.891   4.322  0.6596 -0.6501  1.0362
 8216SOL    HW228691   3.991   3.837   4.219  0.6375 -0.0544  0.6942
 8217SOL     OW28692   2.277   6.471   4.678  0.8844  0.0130  0.5126
 8217SOL    HW128693   2.249   6.518   4.757 -0.4242  0.1960 -0.0357
 8217SOL    HW228694   2.310   6.387   4.711 -0.8857 -0.4781  1.2019
 8218SOL     OW28695   9.087   4.908   7.997 -0.1156  0.3121  0.3779
 8218SOL    HW128696   9.124   4.908   7.909  2.6955  0.8656  1.4092
 8218SOL    HW228697   9.052   4.997   8.008  1.4058  0.9427  0.4410
 8219SOL     OW28698   0.883   5.771   3.745  0.1884 -0.4853 -0.1383
 8219SOL    HW128699   0.885   5.809   3.833  0.3222  1.2301 -0.8534
 8219SOL    HW228700   0.918   5.839   3.688 -1.0826 -1.0862 -1.7096
 8220SOL     OW28701   5.376   1.549   4.884 -0.2527 -0.1330  0.3592
 8220SOL    HW128702   5.326   1.614   4.835 -1.2459 -1.8654 -1.0388
 8220SOL    HW228703   5.466   1.560   4.855 -0.3569  0.7553  0.3388
 8221SOL     OW28704   0.066   2.431   7.433  0.5534 -0.5318  0.1009
 8221SOL    HW128705  -0.014   2.476   7.406  1.7957  0.8320 -1.5313
 8221SOL    HW228706   0.082   2.463   7.522  0.3607  0.8119 -0.3158
 8222SOL     OW28707   5.305   8.228   8.176  0.1756 -0.6094  0.0791
 8222SOL    HW128708   5.335   8.304   8.125 -1.1447  0.5432  0.9418
 8222SOL    HW228709   5.210   8.233   8.172  0.0385 -0.8379  2.1210
 8223SOL     OW28710   6.763   3.274  10.064 -0.1360  0.0230 -0.0394
 8223SOL    HW128711   6.703   3.318  10.004 -0.2616  0.1181  0.1535
 8223SOL    HW228712   6.850   3.286  10.025  0.0001  1.5740  0.6633
 8224SOL     OW28713   2.761   8.696   3.668  0.3905 -0.2971 -0.0107
 8224SOL    HW128714   2.786   8.742   3.588 -1.8826 -1.3539 -1.4237
 8224SOL    HW228715   2.707   8.759   3.716  1.8220  0.3663  0.8278
 8225SOL     OW28716   4.806   9.482   1.010 -0.3758 -0.3611 -0.4023
 8225SOL    HW128717   4.887   9.462   1.058 -1.2007  0.3078  1.3519
 8225SOL    HW228718   4.736   9.448   1.065 -1.3651  0.3388 -1.1910
 8226SOL     OW28719   6.717   1.561   5.262  0.4217  0.6129  0.2525
 8226SOL    HW128720   6.810   1.578   5.250  0.8321 -0.2053  1.9629
 8226SOL    HW228721   6.696   1.495   5.195  1.4817 -0.4346  0.9205
 8227SOL     OW28722   3.529   3.099   7.897 -0.6871 -0.2704 -0.2600
 8227SOL    HW128723   3.487   3.183   7.916 -0.0257 -0.1106  0.5417
 8227SOL    HW228724   3.473   3.034   7.941  0.7207  0.0799  2.2614
 8228SOL     OW28725   9.195   4.843   2.602 -0.0305  0.5202 -0.3881
 8228SOL    HW128726   9.228   4.907   2.665 -2.5430  0.6047  0.9898
 8228SOL    HW228727   9.107   4.873   2.581 -0.2953 -1.0680 -1.7787
 8229SOL     OW28728   6.620   7.964   6.090 -0.3299 -0.1223 -0.3827
 8229SOL    HW128729   6.644   8.028   6.023 -4.1174  1.1444 -0.7466
 8229SOL    HW228730   6.557   8.009   6.146 -0.6425 -2.5452  1.3919
 8230SOL     OW28731   8.755   4.704   1.660  0.0791 -0.1347 -0.1108
 8230SOL    HW128732   8.847   4.679   1.660  0.1009 -0.0530 -0.2912
 8230SOL    HW228733   8.708   4.624   1.685  0.2589  0.0296  0.7899
 8231SOL     OW28734   9.125   9.383   5.959 -0.3472 -0.6668 -0.0319
 8231SOL    HW128735   9.206   9.430   5.940 -0.0270 -1.3320 -0.3533
 8231SOL    HW228736   9.097   9.416   6.044  0.1748 -0.3135  0.0065
 8232SOL     OW28737   2.570   4.407   7.772 -0.8091 -0.1794 -0.1790
 8232SOL    HW128738   2.572   4.338   7.838 -0.3676  0.3101  0.3299
 8232SOL    HW228739   2.527   4.367   7.697  0.5779 -1.3904 -0.3532
 8233SOL     OW28740   0.611   6.162   3.510  0.2150  0.2279  0.4346
 8233SOL    HW128741   0.641   6.074   3.533  0.0427 -0.0192 -0.2472
 8233SOL    HW228742   0.565   6.150   3.427 -0.0692  0.9163  0.4888
 8234SOL     OW28743   7.985   3.319   4.928  0.7186 -0.2386  0.0549
 8234SOL    HW128744   7.990   3.366   4.845  1.8852  0.5478  0.5415
 8234SOL    HW228745   7.926   3.246   4.911  0.7896  0.0204 -1.4089
 8235SOL     OW28746   6.608   2.098   1.158 -0.2638 -0.2906 -0.1636
 8235SOL    HW128747   6.659   2.137   1.087 -0.1268 -2.4249 -1.3368
 8235SOL    HW228748   6.566   2.172   1.202  0.3550  1.1635 -1.9167
 8236SOL     OW28749   9.216   1.575   3.551 -0.0780 -0.3489 -0.4908
 8236SOL    HW128750   9.263   1.496   3.525 -1.0534 -1.0461 -0.2299
 8236SOL    HW228751   9.229   1.581   3.646 -0.7072 -0.6956 -0.3743
 8237SOL     OW28752   0.590   6.604   6.689 -0.0452  0.4734  0.5011
 8237SOL    HW128753   0.496   6.614   6.677  0.0409  0.7252  0.0166
 8237SOL    HW228754   0.629   6.640   6.609  0.4644  0.4427  0.7282
 8238SOL     OW28755   3.907   1.444   2.064  0.2978  0.3027  0.0865
 8238SOL    HW128756   3.823   1.426   2.021  0.1636  3.0945 -1.0676
 8238SOL    HW228757   3.962   1.479   1.994  0.9731  2.5156  1.6161
 8239SOL     OW28758   3.040   5.690   8.700 -0.1757 -0.0758 -0.1796
 8239SOL    HW128759   2.982   5.739   8.642 -2.8569 -1.9502  0.7475
 8239SOL    HW228760   3.126   5.697   8.659 -0.9966  2.7643 -1.6774
 8240SOL     OW28761   0.875   0.207   2.202 -0.4116  0.1571 -0.2676
 8240SOL    HW128762   0.940   0.276   2.190 -1.0939  0.9489  0.4332
 8240SOL    HW228763   0.918   0.144   2.260 -0.1897  0.5771  0.0360
 8241SOL     OW28764   8.967   6.635   3.874  0.5672 -0.2166  0.2187
 8241SOL    HW128765   8.991   6.573   3.943 -0.5823  0.0402  0.8700
 8241SOL    HW228766   8.901   6.589   3.823 -1.2298  0.8894  1.4580
 8242SOL     OW28767   8.294   9.357   7.567  0.5174  0.2107  0.1824
 8242SOL    HW128768   8.239   9.411   7.510  1.1410 -0.2794 -0.9244
 8242SOL    HW228769   8.238   9.283   7.591 -0.3622  1.3446  1.7641
 8243SOL     OW28770   5.060   2.097   4.644  0.0738  0.1399 -0.4264
 8243SOL    HW128771   5.007   2.176   4.633 -1.0148 -0.6486 -1.0952
 8243SOL    HW228772   5.065   2.059   4.556  3.0969  0.9815 -0.7093
 8244SOL     OW28773   3.980   4.545   7.188 -0.3954 -0.2770  0.2765
 8244SOL    HW128774   3.989   4.449   7.186  1.0773 -0.1515 -0.3273
 8244SOL    HW228775   4.053   4.575   7.241  0.0953  0.5921 -0.8439
 8245SOL     OW28776   3.108   0.320   3.619 -0.3367  0.2161  0.2303
 8245SOL    HW128777   3.061   0.400   3.594 -0.9403  0.7128  2.7307
 8245SOL    HW228778   3.182   0.316   3.558 -1.4168  1.5546 -1.2593
 8246SOL     OW28779   6.895   8.818   5.202 -0.5762  0.2640  0.1515
 8246SOL    HW128780   6.851   8.744   5.245 -0.2865  0.1018  0.1714
 8246SOL    HW228781   6.942   8.779   5.129  1.1270  0.1370  1.2684
 8247SOL     OW28782   2.838   6.620   3.706  0.3946 -0.0803 -0.4847
 8247SOL    HW128783   2.839   6.698   3.650  2.0382  1.1292  1.1498
 8247SOL    HW228784   2.906   6.564   3.669 -0.1429 -0.3662 -1.0817
 8248SOL     OW28785   6.789   2.236   6.558  0.1338  0.4120  0.0871
 8248SOL    HW128786   6.836   2.296   6.617 -2.1639  2.4148  0.0571
 8248SOL    HW228787   6.803   2.273   6.471 -0.5271  0.3807 -0.0384
 8249SOL     OW28788   3.088   4.371   5.308 -0.0851 -0.6172 -0.3747
 8249SOL    HW128789   3.149   4.374   5.382  1.5024 -1.4485 -1.5782
 8249SOL    HW228790   3.083   4.462   5.277  1.6020 -0.7053 -1.0228
 8250SOL     OW28791   2.923   9.725   8.201  0.4253 -0.5891  0.2859
 8250SOL    HW128792   2.971   9.749   8.122 -0.7800  2.4725  0.3519
 8250SOL    HW228793   2.836   9.699   8.170 -0.1125  0.7984  0.5481
 8251SOL     OW28794   1.500   7.927   0.753 -0.2322  0.1865 -0.0500
 8251SOL    HW128795   1.453   7.848   0.726 -0.3599  0.5488 -0.9209
 8251SOL    HW228796   1.592   7.904   0.744 -0.2257 -0.3868  1.2583
 8252SOL     OW28797   0.469  10.044   8.643 -0.2287 -0.1934  0.4486
 8252SOL    HW128798   0.443  10.128   8.681  1.9157  1.1579 -0.8598
 8252SOL    HW228799   0.508   9.996   8.716 -3.0041 -0.8752  1.6244
 8253SOL     OW28800   5.060   7.555   4.832 -0.2511  0.2054 -0.1710
 8253SOL    HW128801   4.994   7.489   4.812 -3.8309  2.7397  2.2025
 8253SOL    HW228802   5.088   7.534   4.921  2.4409 -0.8794 -1.1615
 8254SOL     OW28803   8.815   6.795   1.524  0.1024  0.1068  0.2100
 8254SOL    HW128804   8.768   6.809   1.442  0.2320  0.9915  0.2782
 8254SOL    HW228805   8.864   6.714   1.510  2.4319  1.7215 -1.6682
 8255SOL     OW28806   9.090   3.495   5.939  0.2771 -0.1733 -0.3888
 8255SOL    HW128807   9.105   3.589   5.924  0.5911 -0.2630 -0.6500
 8255SOL    HW228808   9.156   3.471   6.004 -1.2328  0.2672  1.3807
 8256SOL     OW28809   7.673   4.419   7.938  0.8692 -0.7487  0.4562
 8256SOL    HW128810   7.735   4.438   8.008  1.1225 -2.0770  0.6206
 8256SOL    HW228811   7.612   4.356   7.976  1.0721 -1.5749 -0.5265
 8257SOL     OW28812  10.204   4.725   8.510  0.3257  0.1003  0.0286
 8257SOL    HW128813  10.280   4.784   8.515  0.0933  0.4506 -0.5115
 8257SOL    HW228814  10.136   4.770   8.562  1.0526 -1.1299  2.1921
 8258SOL     OW28815   1.065   3.290   9.305  0.1986  0.2871  0.4663
 8258SOL    HW128816   1.008   3.346   9.252 -0.1638  0.0802  0.6336
 8258SOL    HW228817   1.095   3.223   9.243 -0.9364 -0.4810  0.7036
 8259SOL     OW28818   2.897   0.826   0.192 -0.3216 -0.7014  0.2859
 8259SOL    HW128819   2.922   0.860   0.106 -2.3201 -0.8781 -0.4368
 8259SOL    HW228820   2.812   0.784   0.177  0.4170 -2.9114  1.8761
 8260SOL     OW28821   6.564   3.086   4.186 -0.0162 -0.2070 -0.1847
 8260SOL    HW128822   6.583   3.167   4.138  0.0488 -0.2462 -0.2253
 8260SOL    HW228823   6.633   3.026   4.159  0.3697 -0.0424  0.4090
 8261SOL     OW28824   5.372   7.953   7.768 -0.7432  0.2110  0.6237
 8261SOL    HW128825   5.400   7.901   7.843  1.6932  1.0287  0.3786
 8261SOL    HW228826   5.318   8.023   7.805 -0.5289 -0.0673  1.4716
 8262SOL     OW28827   8.830   7.265  10.130 -0.2975 -0.0698 -0.0800
 8262SOL    HW128828   8.809   7.263  10.037 -0.6613 -1.2566  0.0063
 8262SOL    HW228829   8.926   7.260  10.134 -0.2286  0.8665 -0.3951
 8263SOL     OW28830   8.395   7.083   7.604  0.2410  0.4800 -0.4086
 8263SOL    HW128831   8.336   7.158   7.596  0.7095  1.0328  1.0952
 8263SOL    HW228832   8.421   7.064   7.513 -0.7438  1.4294 -0.9098
 8264SOL     OW28833   6.128   0.342   8.685  0.2955  0.7240  0.0202
 8264SOL    HW128834   6.131   0.401   8.761  2.9673  0.5807  0.0981
 8264SOL    HW228835   6.079   0.265   8.717  2.5910  0.0168  2.1529
 8265SOL     OW28836   0.126   6.291   6.207 -0.0874 -0.0374  0.4065
 8265SOL    HW128837   0.124   6.374   6.255  3.4087  0.1776  0.4141
 8265SOL    HW228838   0.128   6.224   6.276 -1.8891 -0.1600  0.3997
 8266SOL     OW28839   5.840   6.520   5.789  0.0812 -0.0769 -0.3530
 8266SOL    HW128840   5.849   6.431   5.756  1.7056 -0.6111  1.3451
 8266SOL    HW228841   5.773   6.513   5.857  1.5601 -0.4728  1.1244
 8267SOL     OW28842   8.086   2.418   9.960 -0.0961 -0.0032 -0.6710
 8267SOL    HW128843   8.118   2.503   9.930 -0.1682 -0.1730 -1.2482
 8267SOL    HW228844   8.052   2.376   9.881 -1.2232 -0.0584 -0.1664
 8268SOL     OW28845   5.386   1.564   9.624 -0.1755  0.2787  0.1282
 8268SOL    HW128846   5.327   1.502   9.667 -1.0749  0.8675 -0.2215
 8268SOL    HW228847   5.465   1.513   9.606 -0.0770 -0.1865  1.7401
 8269SOL     OW28848   4.973   8.628   9.692 -0.7795  0.0475  0.3911
 8269SOL    HW128849   4.951   8.585   9.609  0.9738 -0.5513  0.1898
 8269SOL    HW228850   4.912   8.702   9.698 -1.8899 -0.7366 -0.7157
 8270SOL     OW28851   2.077   1.531   4.126  0.2326 -0.0571  0.5210
 8270SOL    HW128852   2.169   1.543   4.100 -0.3819  2.3751 -0.9007
 8270SOL    HW228853   2.082   1.502   4.217  2.4050 -1.1024  0.1463
 8271SOL     OW28854   7.922   5.681   5.357  0.5758  0.2121 -0.5498
 8271SOL    HW128855   7.902   5.629   5.279  1.1896 -1.3048  0.2606
 8271SOL    HW228856   8.008   5.651   5.385 -0.2541 -0.3837  1.5520
 8272SOL     OW28857   0.962   3.156   1.713 -0.5467  0.0766  0.7499
 8272SOL    HW128858   0.930   3.200   1.635  0.2685 -0.5547  0.0288
 8272SOL    HW228859   0.985   3.226   1.774 -0.2100  0.6140  0.0123
 8273SOL     OW28860   4.041   6.495   5.834 -0.2961 -0.2300  0.1071
 8273SOL    HW128861   4.108   6.485   5.767 -0.4446  0.2692 -0.1207
 8273SOL    HW228862   4.035   6.409   5.875  1.7900  0.1670  1.3979
 8274SOL     OW28863   5.936   9.950   6.321 -0.4258  0.1039  0.6267
 8274SOL    HW128864   5.941   9.884   6.389  3.4256 -0.2860  0.2015
 8274SOL    HW228865   5.860   9.925   6.268  0.1575 -3.2922  1.1791
 8275SOL     OW28866   6.837   1.427   8.779 -0.4050  0.6704  0.2144
 8275SOL    HW128867   6.897   1.398   8.710  0.8074  0.4299  1.3181
 8275SOL    HW228868   6.789   1.500   8.740 -1.0003 -0.5564 -1.4459
 8276SOL     OW28869   9.512   6.757   7.615  0.3852 -0.0823  0.1292
 8276SOL    HW128870   9.568   6.818   7.567  1.3141 -1.8049 -1.0774
 8276SOL    HW228871   9.546   6.760   7.705  1.5659 -0.1100 -0.2952
 8277SOL     OW28872   2.272   2.018   8.462 -0.0609 -0.5863  0.2042
 8277SOL    HW128873   2.271   1.984   8.552 -2.5478  0.5460  0.6753
 8277SOL    HW228874   2.328   2.096   8.467 -1.1005  0.1352  1.0782
 8278SOL     OW28875   0.176   1.567   4.478 -0.1646  0.3260 -0.4536
 8278SOL    HW128876   0.192   1.655   4.445 -0.0424 -0.0785 -1.5261
 8278SOL    HW228877   0.087   1.571   4.514  0.1231  1.0700  0.2070
 8279SOL     OW28878   6.451   6.994   6.346  0.3964 -0.3846  0.8671
 8279SOL    HW128879   6.524   6.941   6.316  2.6054  1.0929  3.1285
 8279SOL    HW228880   6.444   6.975   6.440 -0.7378  1.0224  1.1208
 8280SOL     OW28881   1.661   0.286  10.106  0.4378  0.0268  0.3523
 8280SOL    HW128882   1.752   0.276  10.134  0.0192 -0.5724  1.5837
 8280SOL    HW228883   1.618   0.328  10.180 -0.1872  0.8406 -0.4461
 8281SOL     OW28884   3.391   9.871   0.179  0.0200 -0.5531 -0.1021
 8281SOL    HW128885   3.300   9.886   0.154 -0.0921 -1.0385 -0.0004
 8281SOL    HW228886   3.424   9.807   0.116 -0.2234 -1.6738  0.8684
 8282SOL     OW28887   0.145   2.044   7.258  0.0438 -0.4808  0.1051
 8282SOL    HW128888   0.083   2.020   7.190 -0.4703  0.9672  0.0246
 8282SOL    HW228889   0.146   1.969   7.317 -1.6185 -0.6393 -0.0146
 8283SOL     OW28890   0.305   5.761   1.867 -0.0302  0.2966  0.1706
 8283SOL    HW128891   0.268   5.800   1.788 -0.3634 -1.8572 -0.8092
 8283SOL    HW228892   0.356   5.832   1.907 -1.9819  2.1930 -0.5419
 8284SOL     OW28893   3.432   8.727   0.697  0.2097  0.3030 -0.4019
 8284SOL    HW128894   3.473   8.766   0.619  0.4846  2.3443  0.7013
 8284SOL    HW228895   3.341   8.713   0.672  0.7088 -0.8662 -1.6874
 8285SOL     OW28896   2.082   9.103   8.995 -0.0637 -0.1154  0.0542
 8285SOL    HW128897   2.008   9.055   8.957  0.4754 -0.2987 -0.7985
 8285SOL    HW228898   2.134   9.036   9.039  0.9627 -0.4599 -1.5698
 8286SOL     OW28899   0.628   8.587   9.350 -0.0415 -0.2743 -0.4605
 8286SOL    HW128900   0.698   8.636   9.393  0.7252 -0.4934 -1.4314
 8286SOL    HW228901   0.594   8.529   9.419 -1.1809  1.7952  0.8011
 8287SOL     OW28902   7.764   9.859   0.750 -0.3421 -0.0091  0.0646
 8287SOL    HW128903   7.708   9.810   0.810 -0.5148  0.3075  0.1646
 8287SOL    HW228904   7.831   9.796   0.723  0.2630  0.0846  1.2936
 8288SOL     OW28905   7.168   5.351   6.657  0.0506  0.5463  0.3062
 8288SOL    HW128906   7.132   5.424   6.707  0.6491 -0.6732  2.6789
 8288SOL    HW228907   7.250   5.330   6.701 -1.1450 -2.9320  1.1759
 8289SOL     OW28908   4.228   8.151   8.486 -0.4092 -0.2784  0.0515
 8289SOL    HW128909   4.268   8.068   8.512 -0.3679 -0.4056 -0.4223
 8289SOL    HW228910   4.164   8.169   8.555 -1.0114 -1.1213 -0.2713
 8290SOL     OW28911   3.921   9.801   5.309  0.2842 -0.1760 -0.7559
 8290SOL    HW128912   3.923   9.892   5.341 -1.7472 -0.3387  0.0041
 8290SOL    HW228913   3.877   9.808   5.224  0.0064 -0.4533 -0.6351
 8291SOL     OW28914   9.195   6.379   1.732  0.1995 -0.1028 -0.2131
 8291SOL    HW128915   9.283   6.370   1.770  0.5822  0.9643 -0.7874
 8291SOL    HW228916   9.139   6.405   1.804  0.3770 -0.6560  0.1308
 8292SOL     OW28917   4.738   4.377   0.725  0.9677  0.3083  0.1966
 8292SOL    HW128918   4.789   4.332   0.792 -0.8034 -1.0071  0.7006
 8292SOL    HW228919   4.702   4.454   0.769  0.2944 -0.2338  0.6035
 8293SOL     OW28920   1.778   1.023   3.306  0.1491  0.4798  0.3415
 8293SOL    HW128921   1.868   1.027   3.339 -0.0034 -0.3805  0.9028
 8293SOL    HW228922   1.762   1.109   3.267  0.5134  1.4039  2.1130
 8294SOL     OW28923   8.124   4.907   1.099  0.1147 -0.3417  0.3792
 8294SOL    HW128924   8.066   4.832   1.106  0.9929 -0.9317  1.7045
 8294SOL    HW228925   8.205   4.879   1.142  1.0705  0.7653 -0.6167
 8295SOL     OW28926  10.194   4.539   5.037 -0.5140  0.4829  0.6696
 8295SOL    HW128927  10.101   4.556   5.019  0.0239  0.9522 -2.0537
 8295SOL    HW228928  10.207   4.449   5.010 -0.2255  0.3289  1.3184
 8296SOL     OW28929   6.914   3.551   4.217 -0.2199  0.2355  0.1276
 8296SOL    HW128930   6.863   3.549   4.298  0.5609  1.3143  0.6612
 8296SOL    HW228931   6.925   3.459   4.194 -0.3196 -0.0967  1.3368
 8297SOL     OW28932   7.588   1.508   5.151  0.0399  0.1682  0.1691
 8297SOL    HW128933   7.631   1.557   5.081  2.9982 -0.6566  1.2359
 8297SOL    HW228934   7.563   1.574   5.215  3.1244  0.5331  1.1572
 8298SOL     OW28935   3.599   9.909   5.733  0.5144  0.1516 -0.0628
 8298SOL    HW128936   3.608   9.904   5.638  0.7269  0.5555 -0.0607
 8298SOL    HW228937   3.614  10.000   5.754 -0.2709  0.2079  0.2823
 8299SOL     OW28938   2.585   5.178   2.886  0.1400  0.1136 -0.2513
 8299SOL    HW128939   2.503   5.224   2.866 -0.1901 -0.1590  0.4292
 8299SOL    HW228940   2.593   5.112   2.817 -0.6875 -0.4491  0.1709
 8300SOL     OW28941   4.275   4.600   6.576 -0.4613 -0.2347 -0.1221
 8300SOL    HW128942   4.218   4.577   6.503  1.5582 -3.1144 -1.0084
 8300SOL    HW228943   4.242   4.549   6.649 -1.0038  0.7289  0.3169
 8301SOL     OW28944   1.616   2.798   4.792  0.0205 -0.5752  0.5196
 8301SOL    HW128945   1.606   2.703   4.791 -0.3421 -0.5672  1.6963
 8301SOL    HW228946   1.526   2.832   4.791  0.1499 -0.2024 -0.8185
 8302SOL     OW28947   6.519   9.427   7.759 -0.3872 -0.2145  0.0618
 8302SOL    HW128948   6.592   9.419   7.698 -0.4239 -1.8687  0.1963
 8302SOL    HW228949   6.548   9.381   7.838 -1.4428 -0.6495  0.2234
 8303SOL     OW28950   6.166   7.169   4.226  0.2149 -0.1768  0.0855
 8303SOL    HW128951   6.196   7.226   4.297  0.9828  0.4007 -0.6878
 8303SOL    HW228952   6.084   7.131   4.259  0.2663  0.5077  1.0479
 8304SOL     OW28953   4.708   4.388   0.122 -0.4175  0.4005 -0.1987
 8304SOL    HW128954   4.617   4.397   0.149 -1.1028 -2.4824 -1.1893
 8304SOL    HW228955   4.709   4.418   0.031 -0.3978  0.2684 -0.2410
 8305SOL     OW28956   7.087   0.663   0.314  0.1780 -0.6122 -0.1074
 8305SOL    HW128957   7.152   0.605   0.352  0.5447  0.0502  0.3019
 8305SOL    HW228958   7.016   0.666   0.379  1.6364  2.0317  1.5466
 8306SOL     OW28959   9.280   0.285   8.148  0.6873 -0.3109 -0.7223
 8306SOL    HW128960   9.367   0.304   8.112  1.6691 -0.8103  1.2696
 8306SOL    HW228961   9.290   0.200   8.192 -0.5646  0.0574  0.3329
 8307SOL     OW28962   6.873   3.390   6.610 -0.7170 -0.2271  0.0241
 8307SOL    HW128963   6.952   3.348   6.577 -0.9171  0.0556 -0.8502
 8307SOL    HW228964   6.832   3.324   6.666  0.3601 -0.2137  0.8502
 8308SOL     OW28965   7.302   9.590   0.269  0.6265  0.4081 -0.2507
 8308SOL    HW128966   7.278   9.538   0.347 -2.8944 -0.6561 -1.8602
 8308SOL    HW228967   7.391   9.562   0.249  0.6083 -1.3863  1.7899
 8309SOL     OW28968   9.081   5.513   9.027  0.2109  0.0246 -0.5199
 8309SOL    HW128969   9.019   5.583   9.003 -0.1370 -0.2298 -0.3777
 8309SOL    HW228970   9.067   5.445   8.960 -0.0376 -0.2533 -0.1929
 8310SOL     OW28971   2.747   9.644   6.573  0.1191 -0.2417  0.4816
 8310SOL    HW128972   2.667   9.685   6.606 -0.2756 -1.2197  0.7879
 8310SOL    HW228973   2.718   9.592   6.498  0.8282  1.0590 -0.7349
 8311SOL     OW28974   2.441   5.822   5.328 -0.2477  0.1023 -0.1289
 8311SOL    HW128975   2.472   5.876   5.255 -0.6237 -0.7547 -0.9370
 8311SOL    HW228976   2.470   5.870   5.407  0.7355  0.7039 -0.8305
 8312SOL     OW28977   1.584   9.300   8.916 -0.1544  0.6115 -0.0999
 8312SOL    HW128978   1.542   9.373   8.869 -0.0902  0.3317 -0.5998
 8312SOL    HW228979   1.677   9.309   8.895 -0.1565  0.3436 -0.2280
 8313SOL     OW28980   6.399   9.884   2.017 -0.3811 -1.0494 -0.4959
 8313SOL    HW128981   6.488   9.914   1.999 -0.2519 -1.7358 -1.0687
 8313SOL    HW228982   6.399   9.862   2.110  0.0912 -1.1660 -0.5207
 8314SOL     OW28983   9.484   2.979   2.390  0.0029 -0.5085 -0.3708
 8314SOL    HW128984   9.502   2.989   2.484 -3.1689 -1.6514  0.4917
 8314SOL    HW228985   9.443   3.062   2.365  2.3364  0.4648 -1.2748
 8315SOL     OW28986   9.171   1.677   8.712 -0.0808  0.2493  0.0193
 8315SOL    HW128987   9.092   1.730   8.721  0.0185  0.4163 -0.0904
 8315SOL    HW228988   9.166   1.615   8.785 -0.2253  0.3732  0.1161
 8316SOL     OW28989   5.684   1.902   2.497 -0.2144 -0.3249  0.3003
 8316SOL    HW128990   5.737   1.976   2.524 -0.1457 -0.0550 -0.5624
 8316SOL    HW228991   5.669   1.853   2.578  0.8098 -0.0672  0.6620
 8317SOL     OW28992   7.779   7.313   0.002  0.5766  0.4440  0.1467
 8317SOL    HW128993   7.744   7.322  -0.086  0.1455 -0.1397  0.2549
 8317SOL    HW228994   7.703   7.322   0.059  0.5783 -0.8137  0.3842
 8318SOL     OW28995   9.267   7.157   8.452  0.1007 -0.0387 -0.0829
 8318SOL    HW128996   9.231   7.105   8.524 -0.6056 -1.6720 -1.5449
 8318SOL    HW228997   9.325   7.220   8.495  4.0302 -4.3018  1.7302
 8319SOL     OW28998   0.304   1.517   4.064  0.1514  0.2455  0.0996
 8319SOL    HW128999   0.363   1.518   3.989 -0.4930  0.6300 -0.4170
 8319SOL    HW229000   0.234   1.457   4.038  0.9264 -1.1960  1.2064
 8320SOL     OW29001   8.030   2.946   1.909 -0.3262  0.3936  0.1669
 8320SOL    HW129002   8.106   2.900   1.945 -0.0916 -0.8111 -1.7155
 8320SOL    HW229003   7.955   2.896   1.939 -0.1716 -0.2150 -0.4380
 8321SOL     OW29004   9.174   1.821   9.643  0.4570  0.1354  0.3269
 8321SOL    HW129005   9.219   1.813   9.559 -0.4134  0.1560 -0.1545
 8321SOL    HW229006   9.185   1.912   9.668  1.1787  0.0043  0.5078
 8322SOL     OW29007   2.662   7.478   6.275 -0.3422 -0.0586  0.1703
 8322SOL    HW129008   2.700   7.516   6.196  0.1043 -0.9055 -0.0325
 8322SOL    HW229009   2.580   7.437   6.244  0.5817 -1.7486 -0.1932
 8323SOL     OW29010   3.476   2.425  10.273 -0.5519  0.4189  0.2973
 8323SOL    HW129011   3.398   2.373  10.255  0.2666 -0.9302  0.5079
 8323SOL    HW229012   3.475   2.440  10.368 -0.8149  0.8356  0.2294
 8324SOL     OW29013   6.494   6.878   5.685 -0.2689 -0.0328 -0.9484
 8324SOL    HW129014   6.554   6.859   5.758  1.2829 -0.8815 -2.3795
 8324SOL    HW229015   6.432   6.806   5.685 -0.7291  0.3408 -0.0623
 8325SOL     OW29016   3.222   0.958   0.084  0.4565 -0.8546 -0.2207
 8325SOL    HW129017   3.271   1.029   0.043  1.4811 -1.9166 -0.9039
 8325SOL    HW229018   3.140   0.953   0.035 -1.0923  1.8525  1.7992
 8326SOL     OW29019   9.658   1.323   3.200 -0.4810 -0.3699  0.5166
 8326SOL    HW129020   9.749   1.316   3.228 -0.4046  0.2680  0.4579
 8326SOL    HW229021   9.653   1.271   3.120  0.0333  0.2353  0.0745
 8327SOL     OW29022   5.376   9.736   4.814 -0.0931  0.7038  0.0391
 8327SOL    HW129023   5.457   9.736   4.865 -0.3398 -1.7906  0.5647
 8327SOL    HW229024   5.308   9.709   4.877 -0.8624  0.1819 -0.9811
 8328SOL     OW29025   6.924   1.419   2.736  0.0738 -0.1335 -0.0428
 8328SOL    HW129026   6.834   1.445   2.717  0.6023  2.0146  0.1539
 8328SOL    HW229027   6.977   1.490   2.702  1.5536 -0.1553  2.0211
 8329SOL     OW29028   5.535   7.294   2.425  0.0857 -0.5736  0.4988
 8329SOL    HW129029   5.478   7.315   2.351 -0.1409  2.5662  1.4123
 8329SOL    HW229030   5.496   7.342   2.499  2.5865 -0.1926  1.6804
 8330SOL     OW29031   3.060   6.845   1.179 -0.6698 -0.0013  0.1410
 8330SOL    HW129032   3.154   6.837   1.198 -0.6605  0.0829  0.1305
 8330SOL    HW229033   3.020   6.773   1.228 -0.7271  0.6439  1.0662
 8331SOL     OW29034   6.021   7.840   6.217  0.1646  0.2884  0.0718
 8331SOL    HW129035   6.058   7.752   6.210 -1.6232 -0.4618 -0.5255
 8331SOL    HW229036   5.944   7.838   6.159 -1.4216  1.4103  2.0371
 8332SOL     OW29037   4.257   9.932   9.264 -0.4062  0.2822 -0.4227
 8332SOL    HW129038   4.269   9.843   9.298  0.3361  0.4310 -0.2812
 8332SOL    HW229039   4.222   9.981   9.338 -1.6904 -0.0866 -0.7534
 8333SOL     OW29040   2.065   9.115   5.615 -0.1934 -0.0584 -0.0585
 8333SOL    HW129041   2.050   9.103   5.521 -0.5824 -0.2345  0.0250
 8333SOL    HW229042   2.048   9.029   5.653  2.8534 -0.8345 -0.1655
 8334SOL     OW29043   6.678   6.821   0.941  0.2252  0.1611 -0.0114
 8334SOL    HW129044   6.706   6.806   1.032  0.7783 -0.2622 -0.2406
 8334SOL    HW229045   6.750   6.786   0.889 -0.7642 -1.0006 -0.6387
 8335SOL     OW29046   5.424   1.070   4.354 -0.1791 -0.0860  0.0051
 8335SOL    HW129047   5.412   1.006   4.424 -0.8441 -0.1642 -0.1710
 8335SOL    HW229048   5.336   1.084   4.319  0.1073  0.1578 -0.6376
 8336SOL     OW29049   4.922   3.721   8.769  0.0153 -0.1693  0.2575
 8336SOL    HW129050   4.838   3.689   8.803 -0.0416  0.5771  0.8381
 8336SOL    HW229051   4.902   3.748   8.679 -0.2541 -0.4128  0.2406
 8337SOL     OW29052   2.836   4.874   8.759 -0.3893 -0.3275 -0.0654
 8337SOL    HW129053   2.782   4.841   8.688 -1.3062  1.7396 -0.4059
 8337SOL    HW229054   2.778   4.875   8.835 -0.7094  1.3308 -0.2920
 8338SOL     OW29055   7.152   6.784   7.725  0.0350  0.0874 -0.1208
 8338SOL    HW129056   7.161   6.864   7.673 -0.1512 -0.0855 -0.4215
 8338SOL    HW229057   7.103   6.725   7.669 -1.9292  0.5665  1.0068
 8339SOL     OW29058   8.509   3.619   5.306  0.0908  0.5290  0.1842
 8339SOL    HW129059   8.575   3.549   5.311 -1.0559 -0.5035  2.3357
 8339SOL    HW229060   8.538   3.684   5.370 -0.5324  0.4602  0.5443
 8340SOL     OW29061   4.233   7.649   6.993  0.3538 -0.0228  0.0869
 8340SOL    HW129062   4.156   7.643   7.049  1.0303 -1.0087  0.9609
 8340SOL    HW229063   4.262   7.558   6.982  0.7926  0.2376 -1.0972
 8341SOL     OW29064   6.221   0.469   9.773 -0.2003 -0.0953 -0.1843
 8341SOL    HW129065   6.208   0.562   9.787  2.1450  0.4509 -1.2049
 8341SOL    HW229066   6.168   0.449   9.695 -1.2421  0.1914  0.4298
 8342SOL     OW29067   9.921   8.605   6.658  0.1506  0.2451  0.3450
 8342SOL    HW129068   9.927   8.696   6.630 -0.4562 -0.0054 -0.6411
 8342SOL    HW229069  10.012   8.576   6.663  0.3223  0.6757 -0.1458
 8343SOL     OW29070   4.475   5.171   7.099 -0.0271 -0.0824 -0.0352
 8343SOL    HW129071   4.389   5.138   7.076 -1.0372 -0.4866  3.6469
 8343SOL    HW229072   4.459   5.257   7.137  1.2006 -0.0538  0.4817
 8344SOL     OW29073   7.201   7.172   8.506 -0.5651 -0.2436  0.3966
 8344SOL    HW129074   7.216   7.087   8.547 -0.5607  0.0995  1.1374
 8344SOL    HW229075   7.105   7.178   8.499 -0.5650 -0.3124  0.3286
 8345SOL     OW29076   2.127   1.257   8.926 -0.1636 -0.4678 -0.2067
 8345SOL    HW129077   2.110   1.345   8.958  2.2768 -0.1988  0.5343
 8345SOL    HW229078   2.048   1.208   8.948 -1.3802  1.3908 -0.2024
 8346SOL     OW29079   5.617   8.961   5.937 -0.1205  0.2266 -0.2194
 8346SOL    HW129080   5.601   8.886   5.880 -1.0047  0.6378 -0.5286
 8346SOL    HW229081   5.680   8.929   6.001  0.2556 -0.4929 -0.9216
 8347SOL     OW29082   5.166   1.848   3.171  0.5795  0.3087 -0.0591
 8347SOL    HW129083   5.081   1.864   3.211  0.1266 -3.0740  0.6746
 8347SOL    HW229084   5.226   1.908   3.216 -1.0172  1.1412  1.0503
 8348SOL     OW29085   1.261   2.737   9.118 -0.2297 -0.2741  0.6488
 8348SOL    HW129086   1.165   2.734   9.121 -0.2700  0.3295  0.1310
 8348SOL    HW229087   1.288   2.645   9.119 -0.8831 -0.5210 -1.1277
 8349SOL     OW29088   5.893   8.496   6.537 -0.0440 -0.2199 -0.4216
 8349SOL    HW129089   5.798   8.500   6.529 -0.2529 -1.4864  1.0846
 8349SOL    HW229090   5.920   8.586   6.555 -1.2219 -0.2122  1.5231
 8350SOL     OW29091   3.425   4.601   0.642 -0.0127 -0.6422  0.6405
 8350SOL    HW129092   3.454   4.660   0.711  0.0936 -1.1216  1.0110
 8350SOL    HW229093   3.432   4.514   0.681  0.8572 -0.9878 -0.2402
 8351SOL     OW29094   8.504   0.681   9.481  0.5640  0.3747 -0.1081
 8351SOL    HW129095   8.427   0.735   9.469  0.8777  1.4397  2.0783
 8351SOL    HW229096   8.545   0.715   9.561  2.1529 -1.4981 -0.0372
 8352SOL     OW29097   5.669   6.516   6.988 -0.3784 -0.7132 -0.3674
 8352SOL    HW129098   5.609   6.477   6.924 -0.2405 -0.2929 -0.7568
 8352SOL    HW229099   5.689   6.603   6.952 -0.0694 -0.5892  0.1014
 8353SOL     OW29100   8.384   7.938   2.467 -0.2906  0.3258 -0.9215
 8353SOL    HW129101   8.382   7.844   2.449  0.7284  0.1730 -0.3418
 8353SOL    HW229102   8.299   7.971   2.437 -0.6958 -0.7942 -1.0236
 8354SOL     OW29103   1.761   7.384   2.541  0.1452  0.1024  0.0792
 8354SOL    HW129104   1.672   7.414   2.558 -0.8318 -2.4619 -0.0953
 8354SOL    HW229105   1.806   7.394   2.625 -0.5747  0.5162  0.4223
 8355SOL     OW29106   5.962   2.306   8.380 -0.7588 -0.3470  0.1073
 8355SOL    HW129107   5.922   2.312   8.466 -1.5592 -2.5649 -0.0443
 8355SOL    HW229108   5.889   2.294   8.320 -0.0777 -1.2761 -0.5729
 8356SOL     OW29109   1.364   4.685   9.808  0.4727 -0.7222 -0.4714
 8356SOL    HW129110   1.273   4.684   9.838  0.2155 -0.7809 -1.2318
 8356SOL    HW229111   1.358   4.704   9.715  1.2522 -0.6321 -0.5102
 8357SOL     OW29112   5.317   2.543   4.534 -0.0405  0.2033 -1.1450
 8357SOL    HW129113   5.403   2.525   4.498 -0.6127 -1.4723 -1.7759
 8357SOL    HW229114   5.279   2.457   4.550 -0.8262  0.9008  1.0716
 8358SOL     OW29115   8.694   4.316   3.308 -0.0757  0.0639  0.4530
 8358SOL    HW129116   8.605   4.350   3.310 -0.2047 -0.2326  0.0215
 8358SOL    HW229117   8.732   4.340   3.393 -1.2325 -1.5858  1.4922
 8359SOL     OW29118   7.956   3.874   2.658 -0.1796  0.3376 -0.0256
 8359SOL    HW129119   7.910   3.791   2.649 -1.9020  1.2480 -0.0159
 8359SOL    HW229120   7.924   3.927   2.585  2.1019  0.4888 -0.9831
 8360SOL     OW29121   8.959  10.262   9.843  0.0737  0.3992  0.2841
 8360SOL    HW129122   9.024  10.324   9.810  0.4646 -0.7256 -1.1740
 8360SOL    HW229123   8.911  10.311   9.910  1.8633  1.5284  0.8217
 8361SOL     OW29124   7.145   2.678   9.619 -0.0187 -0.0719  0.5321
 8361SOL    HW129125   7.130   2.762   9.574  2.5844  0.5634  0.6991
 8361SOL    HW229126   7.183   2.621   9.553  2.9146  0.5574  1.5192
 8362SOL     OW29127   6.359   0.908   6.482  0.0028 -0.2293  0.0988
 8362SOL    HW129128   6.407   0.892   6.563 -0.8798 -2.2723  0.2762
 8362SOL    HW229129   6.409   0.860   6.415 -0.5609 -0.5262 -0.1136
 8363SOL     OW29130   4.942   4.561   8.738  0.0867 -0.0860 -0.2036
 8363SOL    HW129131   4.951   4.654   8.761  1.7045  0.2442 -1.9191
 8363SOL    HW229132   4.954   4.515   8.821 -0.7698  1.2016  0.6912
 8364SOL     OW29133   5.902   9.427   7.447  0.2107 -0.2979  0.0791
 8364SOL    HW129134   5.904   9.333   7.468  0.9932  0.0383  1.6212
 8364SOL    HW229135   5.928   9.432   7.355 -3.3507 -1.8594 -1.2304
 8365SOL     OW29136   6.251   8.127   4.789 -0.1562 -0.5478 -0.0237
 8365SOL    HW129137   6.235   8.191   4.719 -0.6330  1.5937  1.9220
 8365SOL    HW229138   6.344   8.109   4.784  0.5301  2.2255  0.8170
 8366SOL     OW29139   6.632   3.931   9.431  0.3243 -0.1288  0.5646
 8366SOL    HW129140   6.673   3.922   9.517  0.1607  1.5495  0.8643
 8366SOL    HW229141   6.540   3.950   9.450 -0.0261 -1.1317 -0.0394
 8367SOL     OW29142   3.822   8.704   9.893 -0.0407  0.0440 -0.1738
 8367SOL    HW129143   3.910   8.675   9.869 -0.0609  0.0304 -0.2312
 8367SOL    HW229144   3.797   8.765   9.823  0.6421  1.4769  0.7624
 8368SOL     OW29145   2.781   9.488   0.241  0.2775  0.1940  0.6435
 8368SOL    HW129146   2.725   9.500   0.165  1.0123  2.2914  0.3829
 8368SOL    HW229147   2.737   9.420   0.292 -0.8851 -0.3593 -1.0118
 8369SOL     OW29148   5.711   3.496   5.348 -0.3059 -0.6098  0.3733
 8369SOL    HW129149   5.656   3.483   5.426 -0.3614 -0.5630  0.3421
 8369SOL    HW229150   5.665   3.449   5.279 -1.3860  1.1157 -0.1347
 8370SOL     OW29151   8.415   1.947   0.198  0.3161  0.3916 -0.3722
 8370SOL    HW129152   8.323   1.973   0.194  0.7735  2.2019 -0.0826
 8370SOL    HW229153   8.462   2.022   0.164  1.6722 -0.7391 -1.0535
 8371SOL     OW29154   9.671   1.694   1.016 -0.0832 -0.1931  0.0731
 8371SOL    HW129155   9.638   1.605   1.001  2.2202 -0.8969 -1.5416
 8371SOL    HW229156   9.691   1.697   1.109 -1.4791 -0.8830  0.4138
 8372SOL     OW29157   0.166  10.043   5.426  0.0571 -0.1503  0.0279
 8372SOL    HW129158   0.085  10.025   5.474  0.1737  1.3921  0.8700
 8372SOL    HW229159   0.138  10.096   5.351  0.0860 -1.1194 -0.6806
 8373SOL     OW29160   4.786   6.192   1.570  0.2598  0.2859  0.0242
 8373SOL    HW129161   4.697   6.178   1.540 -0.0528  2.9656 -0.5737
 8373SOL    HW229162   4.780   6.267   1.630  2.2593  1.6661 -1.3427
 8374SOL     OW29163   6.922   5.152  10.290 -0.0447  0.3690 -0.5588
 8374SOL    HW129164   6.898   5.231  10.339  1.2261  0.7679 -0.5377
 8374SOL    HW229165   6.923   5.083  10.356 -0.5145  0.4573 -0.4521
 8375SOL     OW29166   9.638  10.221   9.253 -0.3571  0.0752  0.1466
 8375SOL    HW129167   9.597  10.167   9.321 -0.3595 -0.2465 -0.1121
 8375SOL    HW229168   9.629  10.170   9.173  0.6567 -0.0647  0.1048
 8376SOL     OW29169   5.361   7.650   8.597 -0.0830  0.2248  0.2689
 8376SOL    HW129170   5.430   7.601   8.642 -0.4096  0.7788  1.3841
 8376SOL    HW229171   5.382   7.639   8.504  0.3136 -1.3597  0.5121
 8377SOL     OW29172   1.114   6.898   9.473  0.1064 -0.0155  0.8210
 8377SOL    HW129173   1.119   6.815   9.426  0.3211  0.0249  0.7666
 8377SOL    HW229174   1.063   6.879   9.551  0.5371 -0.3109  1.0401
 8378SOL     OW29175   4.802   4.692   4.616  0.1392 -0.1442  0.0524
 8378SOL    HW129176   4.797   4.642   4.697  0.1052 -0.2014  0.0152
 8378SOL    HW229177   4.874   4.754   4.629 -1.3464  1.4676  1.0384
 8379SOL     OW29178   0.056   4.923   0.316  0.2752  0.1968  0.7151
 8379SOL    HW129179  -0.002   5.000   0.315 -0.1598 -0.0954  1.6199
 8379SOL    HW229180   0.124   4.943   0.253 -1.0006  0.4109 -0.6441
 8380SOL     OW29181   8.770   2.798   6.483 -0.1520 -0.3900 -0.5865
 8380SOL    HW129182   8.716   2.740   6.430  0.0001  0.0750 -1.2652
 8380SOL    HW229183   8.733   2.885   6.468  0.7606 -0.0670 -1.0448
 8381SOL     OW29184   8.843   1.613   8.065 -0.1541 -0.4066  0.3706
 8381SOL    HW129185   8.830   1.568   8.148 -1.1406  0.5379  0.7517
 8381SOL    HW229186   8.906   1.683   8.085 -1.3335  0.6167  0.6593
 8382SOL     OW29187   5.693   0.287   6.941 -0.6985 -0.4625  0.3215
 8382SOL    HW129188   5.694   0.370   6.893 -0.4475 -1.5181 -1.6396
 8382SOL    HW229189   5.684   0.220   6.872  0.8586 -2.1567  1.6658
 8383SOL     OW29190   2.393   9.940   3.108 -0.3148  0.3225  0.2921
 8383SOL    HW129191   2.389   9.961   3.014 -0.4015  0.7477  0.3870
 8383SOL    HW229192   2.336  10.006   3.149 -1.7236 -0.9582  0.4652
 8384SOL     OW29193   6.680   2.788   0.941 -0.2094 -0.0390 -0.4840
 8384SOL    HW129194   6.713   2.851   1.005  1.7861  0.1150 -1.5974
 8384SOL    HW229195   6.613   2.836   0.892  0.3833  0.8150 -0.4713
 8385SOL     OW29196   6.309   9.932   5.155  0.3142 -0.5277  0.0773
 8385SOL    HW129197   6.227   9.972   5.185 -1.4694 -2.4827 -1.8972
 8385SOL    HW229198   6.343   9.993   5.089  0.6822  0.4434  1.1244
 8386SOL     OW29199   2.613   6.398   1.118 -0.4061  0.1249 -0.0672
 8386SOL    HW129200   2.604   6.346   1.039 -0.6545  1.0806 -0.6908
 8386SOL    HW229201   2.673   6.469   1.094  0.9422 -0.5661  1.1368
 8387SOL     OW29202   2.120   5.292  10.184  0.0706  0.7341 -0.1136
 8387SOL    HW129203   2.157   5.225  10.242 -0.0776 -0.4751 -1.3693
 8387SOL    HW229204   2.170   5.371  10.204 -1.2536  0.9252  3.0572
 8388SOL     OW29205   1.565   2.556   0.204 -0.8182  0.2678 -0.1550
 8388SOL    HW129206   1.609   2.479   0.169 -0.9568  0.6484 -1.2219
 8388SOL    HW229207   1.564   2.543   0.299  1.9177  0.4218 -0.0282
 8389SOL     OW29208   1.611   8.982   9.123 -0.1764  0.0614 -0.0441
 8389SOL    HW129209   1.631   9.034   9.046 -0.4800 -0.6993 -0.6496
 8389SOL    HW229210   1.661   8.901   9.110  0.2702  0.1788  0.8659
 8390SOL     OW29211   0.301   6.668   1.086  0.5056  0.4251  0.1649
 8390SOL    HW129212   0.271   6.577   1.087 -0.0462  0.5979  1.6432
 8390SOL    HW229213   0.232   6.715   1.039  0.8489  0.0839 -0.7081
 8391SOL     OW29214   1.927   7.429   8.743  0.1382  0.4953  0.1002
 8391SOL    HW129215   1.926   7.349   8.796 -1.7958  0.7090  0.4835
 8391SOL    HW229216   1.980   7.491   8.793 -1.3309  0.5656  1.6693
 8392SOL     OW29217   4.802   8.123   1.929  0.1876 -0.0128  0.0426
 8392SOL    HW129218   4.894   8.099   1.916  0.8219  0.3108  3.1040
 8392SOL    HW229219   4.790   8.200   1.874  1.7287 -0.1112 -0.4953
 8393SOL     OW29220   8.112   3.854   2.898 -0.1848  0.1174  0.0121
 8393SOL    HW129221   8.071   3.848   2.811  1.3430 -0.3921 -0.6999
 8393SOL    HW229222   8.138   3.764   2.917 -3.4131 -0.4844  2.5369
 8394SOL     OW29223   1.522   5.579   3.897 -0.3888  0.2531 -0.1102
 8394SOL    HW129224   1.552   5.621   3.816  2.2687  0.3253  0.8067
 8394SOL    HW229225   1.586   5.607   3.963 -1.7500 -0.8176  1.7393
 8395SOL     OW29226   1.670   4.120   8.184  0.5399  0.1276  0.1604
 8395SOL    HW129227   1.693   4.038   8.142  2.4479 -0.3347  1.9582
 8395SOL    HW229228   1.600   4.156   8.129  1.3976 -1.4373 -2.1082
 8396SOL     OW29229   1.530   9.245   4.484  0.2077 -0.4391 -0.4621
 8396SOL    HW129230   1.598   9.266   4.420  0.1169  0.7665 -0.1904
 8396SOL    HW229231   1.556   9.160   4.520  1.9594  0.3081  0.1298
 8397SOL     OW29232   9.202   1.647   4.962  0.2413  0.3923  0.1245
 8397SOL    HW129233   9.286   1.690   4.949  0.4302 -0.2072 -0.7397
 8397SOL    HW229234   9.149   1.711   5.009  0.9328  1.0707 -0.0068
 8398SOL     OW29235   2.325   0.007   6.920  0.2571 -0.1947 -0.2367
 8398SOL    HW129236   2.347   0.050   7.002 -1.5697 -2.2845  1.4722
 8398SOL    HW229237   2.407  -0.031   6.890  1.0625  1.0774  0.2768
 8399SOL     OW29238   1.448   0.987   5.527  0.0882  0.1042  0.1813
 8399SOL    HW129239   1.456   1.083   5.522  0.7681  0.0330 -0.1629
 8399SOL    HW229240   1.479   0.965   5.614 -0.0057  0.1906  0.2371
 8400SOL     OW29241   4.467   7.586   6.527  0.3623  0.1961 -0.4677
 8400SOL    HW129242   4.463   7.645   6.452  0.7234  0.6715 -0.1208
 8400SOL    HW229243   4.386   7.600   6.574  0.2864  0.1453 -0.5816
 8401SOL     OW29244   1.144   5.521   0.568  0.7393 -0.5730 -0.0012
 8401SOL    HW129245   1.157   5.601   0.618  2.5521 -0.3394 -0.7419
 8401SOL    HW229246   1.077   5.472   0.616  2.6588 -0.5652  2.9340
 8402SOL     OW29247   3.500   4.638   0.095 -0.4163 -0.1259  0.0858
 8402SOL    HW129248   3.544   4.700   0.153 -0.0173  1.5107 -1.8791
 8402SOL    HW229249   3.440   4.590   0.152  2.9825 -1.7171  2.7173
 8403SOL     OW29250   5.396   2.526   5.726  0.3586 -0.0055  0.3494
 8403SOL    HW129251   5.383   2.615   5.694 -0.1066 -0.5768 -1.1469
 8403SOL    HW229252   5.322   2.477   5.691 -0.1529 -0.7100  2.3263
 8404SOL     OW29253   8.931   5.918   3.829  0.5090 -0.3242  0.6217
 8404SOL    HW129254   8.986   5.902   3.753 -0.4371 -1.2135  0.0950
 8404SOL    HW229255   8.843   5.931   3.793  0.1856  0.0360  1.5053
 8405SOL     OW29256   8.560   6.482   9.116  0.1565  0.3141  0.3364
 8405SOL    HW129257   8.524   6.421   9.180  0.0546  1.3227  1.2559
 8405SOL    HW229258   8.627   6.431   9.069 -2.3515 -1.6370 -1.4305
 8406SOL     OW29259   8.665   7.951   4.493  0.1107 -0.2016 -0.4704
 8406SOL    HW129260   8.573   7.929   4.479  0.4286 -0.8433 -1.6095
 8406SOL    HW229261   8.663   8.038   4.534 -1.0391 -0.8016  0.8546
 8407SOL     OW29262   0.534   5.079   1.465 -0.2156  0.1666  0.2553
 8407SOL    HW129263   0.531   5.173   1.449  0.1415  0.5232  2.0756
 8407SOL    HW229264   0.627   5.057   1.464 -0.0340  0.4586  2.7507
 8408SOL     OW29265   3.738   8.124   8.011  0.2625  0.2919  0.3545
 8408SOL    HW129266   3.692   8.053   8.057  1.7354  0.0469  1.5373
 8408SOL    HW229267   3.812   8.080   7.968 -0.1952  0.7739 -0.9479
 8409SOL     OW29268   9.541   1.183   3.437 -0.0068 -0.1778  0.4277
 8409SOL    HW129269   9.552   1.278   3.434  0.6255 -0.2721 -1.5500
 8409SOL    HW229270   9.556   1.154   3.347  1.8891 -2.3661  1.3403
 8410SOL     OW29271   9.316   2.365   9.104 -0.3879  0.3890  0.0941
 8410SOL    HW129272   9.388   2.421   9.074  0.2798  0.3352  1.4858
 8410SOL    HW229273   9.359   2.283   9.129 -1.2223 -0.3809 -0.9278
 8411SOL     OW29274   7.521   5.031   0.474  0.0435 -0.7088  0.1344
 8411SOL    HW129275   7.439   5.015   0.522  0.5278 -0.5430  1.0522
 8411SOL    HW229276   7.522   4.965   0.405 -0.3733 -1.3799  0.7535
 8412SOL     OW29277   6.647   6.653   9.762  0.1573 -0.1278  0.4458
 8412SOL    HW129278   6.711   6.684   9.698  0.1306  1.2412  1.0495
 8412SOL    HW229279   6.626   6.564   9.734  1.0475  0.0134 -0.7377
 8413SOL     OW29280   0.210   1.963   9.814 -0.5698  0.1802 -0.5017
 8413SOL    HW129281   0.257   1.945   9.733  0.0354  1.0673 -0.3702
 8413SOL    HW229282   0.213   1.881   9.863  0.5563  0.1141 -0.6528
 8414SOL     OW29283   5.773   7.200   2.400 -0.7995 -0.4350  0.3045
 8414SOL    HW129284   5.687   7.238   2.411 -0.5589  0.2205 -0.0261
 8414SOL    HW229285   5.769   7.117   2.447 -1.9727 -0.9565 -0.6647
 8415SOL     OW29286   8.349   3.519   1.797  0.0559 -0.6339  0.0048
 8415SOL    HW129287   8.344   3.457   1.725 -0.1295 -0.3080 -0.2680
 8415SOL    HW229288   8.363   3.604   1.754  0.6765 -0.5352  0.3874
 8416SOL     OW29289   7.369   6.085   7.468  0.0222  0.3133  0.1323
 8416SOL    HW129290   7.382   6.061   7.559  0.4161  3.1362  0.8979
 8416SOL    HW229291   7.427   6.026   7.419 -0.2757 -1.3116  1.6261
 8417SOL     OW29292   1.541   5.626   0.900 -0.1699  0.3086 -0.1261
 8417SOL    HW129293   1.474   5.579   0.952  0.1635 -0.2180 -0.1661
 8417SOL    HW229294   1.563   5.702   0.954  0.5834 -0.5329  0.7825
 8418SOL     OW29295   5.704   3.717   9.103 -0.1713 -0.5495  0.1234
 8418SOL    HW129296   5.654   3.638   9.124 -1.3123 -0.1422 -0.9559
 8418SOL    HW229297   5.704   3.768   9.184 -1.4367 -0.6050  0.1764
 8419SOL     OW29298   0.611   5.106   3.431  0.1386  0.1896 -0.2426
 8419SOL    HW129299   0.698   5.106   3.390 -0.5059  0.8015 -1.6930
 8419SOL    HW229300   0.590   5.013   3.442  1.0871  0.0366  0.4156
 8420SOL     OW29301   2.933   5.513   7.048  0.0447  0.1108 -0.1053
 8420SOL    HW129302   2.917   5.582   6.982 -0.0637  1.1910  1.0078
 8420SOL    HW229303   2.885   5.437   7.015 -1.9406  1.3108 -0.1748
 8421SOL     OW29304   5.673   7.358   6.991  0.3080  0.8715  0.0004
 8421SOL    HW129305   5.746   7.374   6.931 -0.8191  0.9648 -1.4056
 8421SOL    HW229306   5.696   7.277   7.036  0.1329 -0.5573 -2.3329
 8422SOL     OW29307   3.053   8.322   2.125  0.3951 -0.1511 -0.4504
 8422SOL    HW129308   3.135   8.321   2.076  0.4595 -1.8836 -0.3340
 8422SOL    HW229309   2.986   8.298   2.061  0.2956 -1.0584 -0.0157
 8423SOL     OW29310   6.253   7.747   4.698 -0.3856  0.2435 -0.2986
 8423SOL    HW129311   6.293   7.829   4.669  0.5062  0.3851  1.2040
 8423SOL    HW229312   6.279   7.740   4.790 -0.5727 -1.6524 -0.3664
 8424SOL     OW29313   5.090   0.321   9.854  0.3024  0.6314  0.1537
 8424SOL    HW129314   5.069   0.240   9.900  1.3011 -0.5881 -1.4684
 8424SOL    HW229315   5.037   0.318   9.775  2.4681  0.1126 -1.3451
 8425SOL     OW29316   7.544   9.665   1.757  0.2840  0.9465  0.0307
 8425SOL    HW129317   7.471   9.714   1.720  0.3395  0.4796 -0.7294
 8425SOL    HW229318   7.609   9.731   1.779 -0.1153  1.3090  0.1416
 8426SOL     OW29319   6.723   7.535   2.948 -0.0260 -0.0720 -0.7989
 8426SOL    HW129320   6.634   7.559   2.974  0.0506 -0.4533 -0.1386
 8426SOL    HW229321   6.736   7.449   2.988  0.2703 -0.4843 -1.7561
 8427SOL     OW29322   0.009   7.901   4.231 -0.3105  0.2374 -0.3306
 8427SOL    HW129323  -0.018   7.905   4.323  0.7294 -2.3304  0.1814
 8427SOL    HW229324  -0.041   7.970   4.188 -2.3351  0.2065  1.7932
 8428SOL     OW29325   3.705   0.017   0.018 -0.3065  0.4008 -0.0383
 8428SOL    HW129326   3.682   0.098  -0.028 -0.0599  0.8261  0.5671
 8428SOL    HW229327   3.679  -0.053  -0.041 -0.6591  0.9241 -0.5099
 8429SOL     OW29328   1.606   4.803   0.672  0.6063  0.0265  0.0358
 8429SOL    HW129329   1.553   4.842   0.742  0.7955 -1.4106  1.0091
 8429SOL    HW229330   1.576   4.848   0.593 -1.0016  0.3379  0.7663
 8430SOL     OW29331   7.574   2.858   6.079  0.3357  0.0782  0.4599
 8430SOL    HW129332   7.520   2.826   6.007  0.8773 -0.6030  0.3472
 8430SOL    HW229333   7.647   2.903   6.036  1.1696 -1.1567  0.5455
 8431SOL     OW29334   2.936   8.707   2.085 -0.2264  0.1101 -0.0565
 8431SOL    HW129335   2.931   8.736   1.994 -1.2645  0.8297  0.2057
 8431SOL    HW229336   2.999   8.767   2.126  0.3300 -0.2895 -0.3286
 8432SOL     OW29337   3.329   6.609   5.728  0.2661 -0.1949 -0.3096
 8432SOL    HW129338   3.298   6.696   5.751  0.6087  0.0390 -0.7287
 8432SOL    HW229339   3.379   6.621   5.647  1.0779 -0.6245  0.1115
 8433SOL     OW29340   1.074   2.579   7.659  0.4010  0.2209  0.0862
 8433SOL    HW129341   1.108   2.651   7.607  1.8794 -0.0630  0.6228
 8433SOL    HW229342   1.098   2.500   7.611  1.1894 -0.0146  0.8453
 8434SOL     OW29343   4.312   2.857   3.028  0.3291  0.1393 -1.1481
 8434SOL    HW129344   4.277   2.857   3.117  1.8766  1.0207 -0.5110
 8434SOL    HW229345   4.261   2.923   2.981 -0.0206  0.1603 -0.7389
 8435SOL     OW29346   6.809   8.047   5.245  0.1784 -0.3693 -0.3244
 8435SOL    HW129347   6.815   8.095   5.328 -0.3306  0.3622 -0.6984
 8435SOL    HW229348   6.875   7.978   5.253 -1.2095 -1.5940  1.4931
 8436SOL     OW29349   6.911   9.139   7.184  0.0331 -0.6748 -0.2354
 8436SOL    HW129350   6.968   9.214   7.163  2.0359 -2.0906 -0.1412
 8436SOL    HW229351   6.934   9.116   7.274 -1.7701 -0.4399  0.3359
 8437SOL     OW29352   6.331   0.662   2.737  0.1321 -0.3210 -0.2909
 8437SOL    HW129353   6.265   0.715   2.781  0.3633 -0.6677  0.4774
 8437SOL    HW229354   6.282   0.587   2.703  0.0766 -0.4066 -0.0186
 8438SOL     OW29355   9.942   2.460   1.909 -0.0522 -0.0142  0.4455
 8438SOL    HW129356  10.004   2.445   1.837  0.4915 -1.1575  1.1189
 8438SOL    HW229357   9.916   2.552   1.900  0.5291  0.0534 -0.7916
 8439SOL     OW29358   4.649   3.096   2.840  0.0961 -0.6898  0.9455
 8439SOL    HW129359   4.627   3.100   2.933  1.0072  0.2681  1.1428
 8439SOL    HW229360   4.569   3.127   2.796  0.4314  1.1622  1.5556
 8440SOL     OW29361   8.534   4.076   4.286  1.0982 -0.1670  0.5627
 8440SOL    HW129362   8.463   4.018   4.314  0.8687 -0.1472  0.0352
 8440SOL    HW229363   8.570   4.035   4.208  0.5373  0.6936 -0.1694
 8441SOL     OW29364   7.172   4.271   3.063  0.0139  0.0235  0.5158
 8441SOL    HW129365   7.115   4.195   3.075 -1.5409  1.0149 -0.1772
 8441SOL    HW229366   7.168   4.317   3.146 -0.2711  0.1221  0.4501
 8442SOL     OW29367   4.485   1.758   3.696  0.0374 -0.5088  0.2570
 8442SOL    HW129368   4.512   1.689   3.757 -3.2072 -1.4671  0.8209
 8442SOL    HW229369   4.472   1.835   3.752 -1.6749 -1.0374  0.6651
 8443SOL     OW29370  10.128   2.113   4.014  0.1584 -0.1339 -0.4115
 8443SOL    HW129371  10.187   2.075   4.078  0.2384 -1.2599 -1.1292
 8443SOL    HW229372  10.169   2.196   3.990  0.2045  0.2339  0.8515
 8444SOL     OW29373   1.391   1.634   8.241 -0.0557  0.1600 -0.4115
 8444SOL    HW129374   1.308   1.660   8.201  0.8426  2.7050 -0.7732
 8444SOL    HW229375   1.431   1.577   8.175 -1.4837 -1.2145 -0.1807
 8445SOL     OW29376   6.076   6.788   7.850  0.0971 -0.2201  0.3916
 8445SOL    HW129377   6.008   6.855   7.845 -0.3140 -0.7291 -2.0005
 8445SOL    HW229378   6.150   6.825   7.802  0.4930 -0.7779  0.5650
 8446SOL     OW29379   2.721   3.918   6.679 -0.6870 -0.5407 -0.0937
 8446SOL    HW129380   2.784   3.858   6.640 -0.9133 -1.0679  0.3393
 8446SOL    HW229381   2.635   3.883   6.656 -0.8277  0.0448 -0.4852
 8447SOL     OW29382   1.821   9.295   4.641 -0.1059  0.1126  0.1738
 8447SOL    HW129383   1.854   9.353   4.572  0.2915 -0.9592 -0.5774
 8447SOL    HW229384   1.845   9.207   4.611 -0.0142 -0.3909  1.6510
 8448SOL     OW29385   9.225   5.652   9.916 -0.4780  0.1131  0.1916
 8448SOL    HW129386   9.232   5.627   9.824  2.6216 -0.0740  0.3617
 8448SOL    HW229387   9.227   5.569   9.964 -2.5682  0.1780  0.4852
 8449SOL     OW29388   2.481   2.118   9.231  0.2753 -0.2017 -0.1585
 8449SOL    HW129389   2.407   2.174   9.256  0.3255 -0.3144  0.2610
 8449SOL    HW229390   2.550   2.179   9.206  0.8911  0.0136  1.8537
 8450SOL     OW29391   7.142   0.562   0.804 -0.0400 -0.3785 -0.9067
 8450SOL    HW129392   7.235   0.564   0.785 -0.0516 -0.9824 -1.0160
 8450SOL    HW229393   7.132   0.493   0.869 -0.0465  1.3773  1.0777
 8451SOL     OW29394   3.288   0.288   4.610  0.1151  0.1784 -0.0685
 8451SOL    HW129395   3.351   0.251   4.672 -2.8488 -3.0790  1.2790
 8451SOL    HW229396   3.311   0.246   4.527  0.2119 -0.3800  0.2327
 8452SOL     OW29397   7.494   2.291   9.295  0.2197  0.2353 -0.1955
 8452SOL    HW129398   7.562   2.355   9.273 -0.5607  0.8826 -0.8240
 8452SOL    HW229399   7.478   2.245   9.213  1.7297 -1.7658  0.5503
 8453SOL     OW29400   3.829   6.911   4.060 -0.3981  0.2784 -0.4261
 8453SOL    HW129401   3.903   6.969   4.080 -0.6918  0.7243 -0.6281
 8453SOL    HW229402   3.857   6.862   3.983  0.0827 -0.2778  0.0768
 8454SOL     OW29403   2.842   4.172   1.941 -0.1317 -0.1345  0.3970
 8454SOL    HW129404   2.869   4.232   2.011  0.5381  1.4228 -1.1139
 8454SOL    HW229405   2.888   4.204   1.863  2.3382 -4.1674 -0.0447
 8455SOL     OW29406   5.795   9.372   0.331  0.9670 -0.6810  0.0433
 8455SOL    HW129407   5.766   9.460   0.354 -0.9810 -1.1528 -0.3736
 8455SOL    HW229408   5.744   9.315   0.390  0.1442 -1.6240 -1.5002
 8456SOL     OW29409   3.135   9.912   1.532  0.8020 -0.1267 -0.1063
 8456SOL    HW129410   3.194   9.988   1.532  0.0926  0.4541 -1.3517
 8456SOL    HW229411   3.187   9.841   1.495  1.2347 -0.0669  0.3708
 8457SOL     OW29412   6.143   6.696   1.215 -0.1595 -0.0435  0.0142
 8457SOL    HW129413   6.111   6.786   1.207 -1.1169 -0.3687  0.0323
 8457SOL    HW229414   6.233   6.700   1.184 -0.0288  1.0128  0.4710
 8458SOL     OW29415   6.284   1.211   0.798 -0.5853 -0.3098  0.1755
 8458SOL    HW129416   6.326   1.168   0.724  2.0575  0.7928  0.9084
 8458SOL    HW229417   6.332   1.294   0.808 -1.0663 -0.2559  2.8776
 8459SOL     OW29418   4.882   7.823   1.669 -0.3939 -0.3717  0.0999
 8459SOL    HW129419   4.846   7.900   1.625  1.7512  0.4405 -0.3310
 8459SOL    HW229420   4.852   7.749   1.616 -0.2801  0.3760 -1.0468
 8460SOL     OW29421   1.055   5.215   3.566  0.3914  0.3002  0.4390
 8460SOL    HW129422   1.044   5.151   3.636  0.2074  0.0476  0.1815
 8460SOL    HW229423   0.966   5.246   3.548  0.1046 -1.2769 -1.2119
 8461SOL     OW29424   5.788   3.242   1.063  0.5444 -0.2304 -0.1198
 8461SOL    HW129425   5.758   3.158   1.098  2.7706 -1.0307  0.0644
 8461SOL    HW229426   5.849   3.217   0.993  2.6470  1.1506  1.1229
 8462SOL     OW29427   4.434   8.592   6.454 -0.0495 -0.4982  0.6335
 8462SOL    HW129428   4.486   8.664   6.491 -0.7372 -0.4346  1.5154
 8462SOL    HW229429   4.486   8.560   6.381 -0.6840  2.3233 -1.1921
 8463SOL     OW29430   8.204   7.198   8.461 -0.1122 -0.0064 -0.0629
 8463SOL    HW129431   8.185   7.249   8.540  1.5412  0.8793 -0.1832
 8463SOL    HW229432   8.168   7.250   8.389  1.3954  0.9460 -0.1673
 8464SOL     OW29433   9.012   2.073   8.482  0.0825 -0.2245 -0.0125
 8464SOL    HW129434   9.044   2.124   8.556 -0.8627 -1.7705  1.5419
 8464SOL    HW229435   8.919   2.063   8.497 -0.6242  1.2929 -2.6601
 8465SOL     OW29436   6.317   8.095   3.454  0.3822  0.2499 -0.0133
 8465SOL    HW129437   6.282   8.014   3.491  0.3777  0.0379 -0.4768
 8465SOL    HW229438   6.241   8.137   3.414 -0.2229  1.8003  2.4749
 8466SOL     OW29439   9.129   3.579   4.207  0.7555 -0.6125  0.3262
 8466SOL    HW129440   9.091   3.631   4.278  0.3139  0.1231 -0.4371
 8466SOL    HW229441   9.214   3.620   4.191  0.2281  0.1647 -0.5644
 8467SOL     OW29442   8.806   0.612   6.449 -0.5992 -0.1072  0.4440
 8467SOL    HW129443   8.760   0.641   6.528  0.6703  0.8009  0.8967
 8467SOL    HW229444   8.855   0.689   6.420  2.4461 -1.5145  1.3453
 8468SOL     OW29445   4.746   3.142   9.704  0.1454  0.7649  0.5381
 8468SOL    HW129446   4.750   3.173   9.795  2.6228  1.9099  0.1468
 8468SOL    HW229447   4.785   3.213   9.654 -0.2409 -0.2767 -1.3091
 8469SOL     OW29448   3.128   5.033   3.057 -0.5383  0.0027 -0.0568
 8469SOL    HW129449   3.050   5.021   3.004 -0.3459  1.3951 -0.6819
 8469SOL    HW229450   3.149   4.945   3.090 -1.3196 -0.6776 -1.3373
 8470SOL     OW29451   1.209   0.861   0.843 -0.2340 -0.2941  0.0720
 8470SOL    HW129452   1.290   0.834   0.886 -1.5439 -3.6281  0.7809
 8470SOL    HW229453   1.174   0.931   0.898 -0.0128 -1.9144  2.4156
 8471SOL     OW29454   5.892   5.746   6.930 -0.5497  0.1962 -0.0376
 8471SOL    HW129455   5.935   5.830   6.915  0.5797 -0.4585 -0.6317
 8471SOL    HW229456   5.934   5.686   6.868 -1.2890 -0.8260  0.4111
 8472SOL     OW29457   4.279   1.948   5.092 -0.4637 -0.2093  0.1449
 8472SOL    HW129458   4.343   1.982   5.154  0.4517 -1.6583  0.0475
 8472SOL    HW229459   4.227   1.885   5.142  1.2357 -2.4992 -0.8240
 8473SOL     OW29460   3.053   7.503   1.369 -0.6006  0.1192  0.0380
 8473SOL    HW129461   3.141   7.527   1.343 -0.5590  0.6199  0.6129
 8473SOL    HW229462   3.052   7.408   1.370 -0.4648  0.0912 -1.2859
 8474SOL     OW29463   8.343   8.944   9.134 -0.4098 -0.1496 -0.2303
 8474SOL    HW129464   8.287   9.020   9.147  1.0758  0.9185  0.1668
 8474SOL    HW229465   8.311   8.904   9.053 -0.4518  1.6423 -1.1444
 8475SOL     OW29466   9.257   3.630   8.531 -0.0241  0.1325  0.2460
 8475SOL    HW129467   9.282   3.569   8.461 -3.2420 -1.5385  0.3728
 8475SOL    HW229468   9.335   3.636   8.586  1.8069 -0.4243 -2.1208
 8476SOL     OW29469   8.003   2.156   0.520 -0.1829 -0.1602 -0.1413
 8476SOL    HW129470   8.087   2.132   0.481 -0.3762 -1.6023  0.2524
 8476SOL    HW229471   7.999   2.106   0.602 -0.8095  0.9819  0.5529
 8477SOL     OW29472   9.276   7.135   7.387  0.2693 -0.2789  0.4460
 8477SOL    HW129473   9.277   7.201   7.318 -2.1258  0.0130  0.6147
 8477SOL    HW229474   9.321   7.176   7.461  2.3598 -0.3876 -0.6730
 8478SOL     OW29475   5.167   0.872   0.038  0.2785  0.0417  0.1429
 8478SOL    HW129476   5.081   0.910   0.058 -0.6101 -0.2877 -2.6185
 8478SOL    HW229477   5.147   0.797  -0.019  2.4213  2.1948 -3.8624
 8479SOL     OW29478   6.700   1.742  10.122 -0.1865 -0.0073  0.0161
 8479SOL    HW129479   6.681   1.715  10.032 -0.6516  1.0089 -0.2016
 8479SOL    HW229480   6.641   1.816  10.137  0.1321  0.0425  1.0442
 8480SOL     OW29481   7.351   4.291   7.790  0.3712 -0.3223 -0.2685
 8480SOL    HW129482   7.266   4.290   7.746 -1.2237  1.0924  2.4995
 8480SOL    HW229483   7.399   4.361   7.747 -0.7736  0.4257 -0.3824
 8481SOL     OW29484   0.567   3.639   8.693 -0.2088 -0.2749 -0.2263
 8481SOL    HW129485   0.512   3.696   8.747 -1.2185  1.0154 -2.5188
 8481SOL    HW229486   0.641   3.694   8.667 -0.0257 -0.7071 -0.6303
 8482SOL     OW29487   1.971   6.013   8.772  0.3435  0.0569 -0.0614
 8482SOL    HW129488   2.040   5.967   8.726 -0.3947 -0.1290 -1.0250
 8482SOL    HW229489   1.967   5.971   8.858  2.1045  0.7725  0.4022
 8483SOL     OW29490   8.683   6.600   8.539  0.8075  0.0024 -0.1927
 8483SOL    HW129491   8.615   6.563   8.595  0.8688  0.0212 -0.1053
 8483SOL    HW229492   8.716   6.525   8.488 -1.6171  0.5293 -2.7610
 8484SOL     OW29493   6.358   7.943   2.314  0.3927 -0.7535 -0.3099
 8484SOL    HW129494   6.344   8.031   2.280  1.6755 -0.6105 -0.5359
 8484SOL    HW229495   6.369   7.956   2.409  2.5504 -0.3680 -0.5611
 8485SOL     OW29496   4.958   9.113   2.151 -0.1193  0.3721 -0.0984
 8485SOL    HW129497   4.927   9.048   2.089  1.1508 -0.2427 -0.1316
 8485SOL    HW229498   5.027   9.068   2.201 -1.5989  0.5913  2.2945
 8486SOL     OW29499  10.224   4.175   3.039 -0.3256  0.1105 -0.2065
 8486SOL    HW129500  10.249   4.265   3.018  0.1870  0.2704  0.9970
 8486SOL    HW229501  10.148   4.185   3.097  0.7684 -0.1261  1.3496
 8487SOL     OW29502   9.163   5.754   6.988  0.0023  0.1851 -0.2263
 8487SOL    HW129503   9.225   5.701   6.938 -0.6991 -0.7238 -0.1687
 8487SOL    HW229504   9.178   5.844   6.958 -0.7762 -0.3780 -2.5072
 8488SOL     OW29505   4.524   6.568   2.687 -0.2058  0.3208 -0.1942
 8488SOL    HW129506   4.550   6.570   2.595  0.8469 -0.8029  0.0656
 8488SOL    HW229507   4.600   6.535   2.733 -0.5702  1.2674  1.1573
 8489SOL     OW29508   4.176   2.010   9.952 -0.2479  0.4508 -0.1263
 8489SOL    HW129509   4.230   1.984   9.878 -1.3099 -0.8914 -0.4678
 8489SOL    HW229510   4.234   2.002  10.028  0.0292 -1.1397 -0.4661
 8490SOL     OW29511   9.179   0.635   9.823 -0.2217  0.3049  0.3273
 8490SOL    HW129512   9.110   0.594   9.875  0.7201 -2.3228 -0.3573
 8490SOL    HW229513   9.255   0.637   9.881  0.1571 -0.3585 -0.1414
 8491SOL     OW29514   6.318   6.396   7.223 -0.3504  0.3075 -0.0185
 8491SOL    HW129515   6.396   6.432   7.180 -0.1358 -0.9667 -0.7361
 8491SOL    HW229516   6.255   6.383   7.152 -1.1776  1.1654  0.5352
 8492SOL     OW29517   0.667   8.258   1.842 -0.3288  0.3875 -0.0533
 8492SOL    HW129518   0.734   8.238   1.907 -0.0639  0.6194 -0.2525
 8492SOL    HW229519   0.642   8.349   1.860  1.2563  1.1628 -1.5912
 8493SOL     OW29520   8.342   4.847   5.590 -0.2439  0.3526 -0.1378
 8493SOL    HW129521   8.432   4.877   5.576 -0.7742  1.8489 -0.5513
 8493SOL    HW229522   8.351   4.759   5.626  1.4809  1.4545  2.4483
 8494SOL     OW29523   3.143   2.994   9.116 -0.4892 -0.5018 -0.3352
 8494SOL    HW129524   3.120   3.034   9.200 -1.7540  0.4325 -1.0749
 8494SOL    HW229525   3.059   2.990   9.069  0.5448  1.3383 -2.5118
 8495SOL     OW29526   1.723   0.064   6.346 -0.0510  0.2474  0.2076
 8495SOL    HW129527   1.629   0.046   6.341 -0.0022  0.0506 -0.0382
 8495SOL    HW229528   1.741   0.077   6.439 -0.4083  0.7579  0.2094
 8496SOL     OW29529   4.678   7.831  10.045  0.2923  0.4240  0.6461
 8496SOL    HW129530   4.610   7.788   9.993 -0.7552  1.2662  1.2691
 8496SOL    HW229531   4.675   7.784  10.129  2.2130 -1.1662 -0.0855
 8497SOL     OW29532   5.104   1.039   9.965  0.5514 -0.3035 -0.4585
 8497SOL    HW129533   5.102   1.088   9.882  0.0590  2.0666  0.8560
 8497SOL    HW229534   5.038   1.082  10.020  2.2988 -0.4017  1.8683
 8498SOL     OW29535   6.371   7.191   0.979  0.4107 -0.4720  0.2685
 8498SOL    HW129536   6.445   7.176   1.037  0.3655 -1.3403  0.1151
 8498SOL    HW229537   6.339   7.278   1.002  1.6082  0.0006  0.1775
 8499SOL     OW29538   2.426   8.422   8.035  0.0516 -0.4659  0.4548
 8499SOL    HW129539   2.516   8.388   8.032  0.0179 -0.7614 -4.1265
 8499SOL    HW229540   2.372   8.345   8.056  0.7435 -0.4640  2.3933
 8500SOL     OW29541   5.295   8.875   5.346  0.1479  0.3320  0.5377
 8500SOL    HW129542   5.287   8.834   5.432  2.6287  0.5620  0.9493
 8500SOL    HW229543   5.383   8.850   5.315  0.0745  1.8492 -1.0610
 8501SOL     OW29544   1.391   0.003   2.899 -0.0678 -0.1880 -0.5540
 8501SOL    HW129545   1.312   0.035   2.856 -0.7125 -0.5630  0.3300
 8501SOL    HW229546   1.463   0.038   2.846 -0.7667  1.6786 -0.3340
 8502SOL     OW29547   9.958   9.886   4.694  0.4263 -0.1178 -0.3360
 8502SOL    HW129548   9.886   9.910   4.751  0.2342  0.2264 -0.7205
 8502SOL    HW229549   9.985   9.799   4.725  2.6524  1.4272  2.5957
 8503SOL     OW29550   7.429   1.057   9.340  0.1629 -0.3424  0.0104
 8503SOL    HW129551   7.486   0.995   9.386  0.1226 -0.6417 -0.3451
 8503SOL    HW229552   7.439   1.139   9.389 -0.0084 -0.7022  0.6607
 8504SOL     OW29553   5.414   6.508   3.873  0.0515 -0.0265 -0.9029
 8504SOL    HW129554   5.349   6.462   3.821  1.0828 -0.7232 -1.6022
 8504SOL    HW229555   5.495   6.461   3.857  0.4715 -0.0498  1.0725
 8505SOL     OW29556   5.549   5.131   4.517  0.4013  0.2602 -0.0757
 8505SOL    HW129557   5.631   5.090   4.494  0.1088 -0.4726  0.1653
 8505SOL    HW229558   5.485   5.060   4.518 -0.4593  0.9809 -1.3015
 8506SOL     OW29559   9.670   2.631   7.972 -0.1731  0.3523  0.0380
 8506SOL    HW129560   9.734   2.591   7.913 -1.2694 -2.7194  0.7389
 8506SOL    HW229561   9.598   2.658   7.914 -0.1080 -0.1853 -0.3012
 8507SOL     OW29562  10.066   8.329   2.588 -0.8490 -0.4549  0.1062
 8507SOL    HW129563  10.141   8.272   2.602 -1.7798 -1.4265  1.4120
 8507SOL    HW229564  10.103   8.416   2.578  0.4425 -0.9184  0.6826
 8508SOL     OW29565   7.322   0.678   2.821  0.0885  0.0026 -0.4860
 8508SOL    HW129566   7.372   0.731   2.759 -1.4241  0.4841 -1.3522
 8508SOL    HW229567   7.385   0.654   2.889  0.9696  2.4563 -0.3533
 8509SOL     OW29568   1.984   3.383   0.331  0.0249  0.5110 -0.3991
 8509SOL    HW129569   1.994   3.478   0.337  0.5618  0.6878 -2.7061
 8509SOL    HW229570   1.891   3.369   0.314 -0.0776  0.6109  0.0750
 8510SOL     OW29571   3.074   3.644   9.520 -0.3798 -0.3741  0.3454
 8510SOL    HW129572   3.135   3.714   9.544 -1.0330 -0.0127  1.0237
 8510SOL    HW229573   3.004   3.651   9.585 -1.3262 -0.5363 -0.6196
 8511SOL     OW29574   1.264   4.854   1.456 -1.0366  0.1166 -0.1295
 8511SOL    HW129575   1.182   4.889   1.491 -0.6645  0.4581  0.4274
 8511SOL    HW229576   1.326   4.860   1.529  0.1152  2.0338 -1.1471
 8512SOL     OW29577   8.727   7.657   2.602 -0.6885 -0.7001  0.2609
 8512SOL    HW129578   8.713   7.594   2.673 -0.0417  0.1727  1.2061
 8512SOL    HW229579   8.657   7.721   2.614  0.9854  0.9782  1.9244
 8513SOL     OW29580   2.595   4.006   0.917 -0.1024  0.3240  0.3394
 8513SOL    HW129581   2.527   4.073   0.910 -1.2233 -0.7674  0.4146
 8513SOL    HW229582   2.555   3.936   0.969  1.4077  0.0390  1.1787
 8514SOL     OW29583   5.088   2.883   1.597  0.4866  0.3958 -0.0973
 8514SOL    HW129584   5.073   2.789   1.597  1.8316  0.1471  1.8998
 8514SOL    HW229585   5.147   2.898   1.523  0.9408 -0.4539  0.0831
 8515SOL     OW29586   8.339   8.703   4.626 -0.4473 -0.0615 -0.2771
 8515SOL    HW129587   8.321   8.666   4.540  1.2608  0.2486 -0.7992
 8515SOL    HW229588   8.371   8.791   4.608  1.0461 -0.3901  0.5770
 8516SOL     OW29589   1.615   5.795   4.898 -0.2739  0.1185 -0.3664
 8516SOL    HW129590   1.552   5.810   4.827 -1.9710  0.2534  1.1118
 8516SOL    HW229591   1.592   5.709   4.933 -0.0038  0.4093  0.5505
 8517SOL     OW29592   1.039   8.989   4.579  0.1093 -0.1632  0.1508
 8517SOL    HW129593   1.128   9.003   4.548 -0.0339 -1.5101 -0.9349
 8517SOL    HW229594   1.003   9.078   4.586  1.6229  0.4333  0.9905
 8518SOL     OW29595   2.745   5.521   3.878 -0.1826 -0.9361  0.6983
 8518SOL    HW129596   2.700   5.437   3.866  0.5230 -1.1863 -0.3752
 8518SOL    HW229597   2.817   5.502   3.938 -1.2482 -0.6121  2.1374
 8519SOL     OW29598   8.808   5.471   7.173 -0.3174  0.3257  0.0408
 8519SOL    HW129599   8.883   5.513   7.132 -0.1787  0.2279  0.1913
 8519SOL    HW229600   8.733   5.498   7.120 -0.2313  0.7715  0.1448
 8520SOL     OW29601   2.222   0.575   8.793 -0.0086 -0.4274 -0.7596
 8520SOL    HW129602   2.145   0.518   8.799 -0.2665  0.0083  0.3320
 8520SOL    HW229603   2.186   0.662   8.773  0.0200  0.0968  1.2235
 8521SOL     OW29604   8.947   8.271   7.432  0.4838 -0.8362  0.2303
 8521SOL    HW129605   8.977   8.212   7.363 -0.4201 -0.0586 -0.8653
 8521SOL    HW229606   9.024   8.324   7.453  0.5091 -0.3670 -0.9583
 8522SOL     OW29607   7.810   0.331   9.166  0.5124 -0.5037  0.4459
 8522SOL    HW129608   7.733   0.294   9.210 -0.4805 -1.0701 -1.6503
 8522SOL    HW229609   7.883   0.278   9.197  0.4156  0.9923  3.6727
 8523SOL     OW29610   8.736   0.873   0.897  0.0579  0.0928  0.1652
 8523SOL    HW129611   8.772   0.944   0.950  0.7734 -0.6183  0.6632
 8523SOL    HW229612   8.642   0.891   0.893  0.3157  1.4957 -0.3809
 8524SOL     OW29613   2.675   3.607   8.253  0.0107  0.1680 -0.1467
 8524SOL    HW129614   2.595   3.560   8.279  0.4305 -1.5856 -1.8356
 8524SOL    HW229615   2.655   3.644   8.167  1.1446 -0.7029 -0.8109
 8525SOL     OW29616   1.976   2.687   6.898 -0.1342  0.0792  0.6352
 8525SOL    HW129617   1.962   2.771   6.854 -0.9822 -0.4239 -0.0759
 8525SOL    HW229618   1.957   2.621   6.832 -0.1120 -0.6883  1.3704
 8526SOL     OW29619   3.445   1.222   8.068  0.4662 -0.3949 -0.5136
 8526SOL    HW129620   3.444   1.137   8.112  0.2700 -0.3482 -0.4240
 8526SOL    HW229621   3.495   1.279   8.126 -1.1875  0.0998  0.4922
 8527SOL     OW29622   9.296   6.605   6.723 -0.3764  0.0258  0.1490
 8527SOL    HW129623   9.365   6.565   6.669  0.2212 -1.1714  1.7156
 8527SOL    HW229624   9.341   6.672   6.774 -0.6206  0.1139  0.2485
 8528SOL     OW29625   6.467   1.813   3.189 -0.1651  0.3490  0.5124
 8528SOL    HW129626   6.377   1.782   3.200 -0.5111  1.0483 -0.2020
 8528SOL    HW229627   6.508   1.747   3.133 -0.4294  0.3549  0.3081
 8529SOL     OW29628   5.318   5.137   6.226 -0.1439  0.2121 -0.1345
 8529SOL    HW129629   5.369   5.116   6.304  0.2061  2.3371  0.2629
 8529SOL    HW229630   5.230   5.103   6.245 -0.0196  0.5379  1.1280
 8530SOL     OW29631   5.018   6.016   2.009  0.0189 -0.2243 -0.7670
 8530SOL    HW129632   5.091   5.954   2.016 -0.7665 -1.1091 -0.2222
 8530SOL    HW229633   5.050   6.084   1.950  1.3470 -0.5051 -0.3969
 8531SOL     OW29634   4.514   3.219   3.351  0.3836 -0.4710  0.0897
 8531SOL    HW129635   4.466   3.214   3.434  1.6232  1.3851  0.9880
 8531SOL    HW229636   4.606   3.213   3.376  0.7441 -1.1182 -1.3014
 8532SOL     OW29637   3.050   5.874   8.931  0.0769  0.3242  0.4155
 8532SOL    HW129638   3.072   5.861   8.839  0.0379 -1.5492  0.6279
 8532SOL    HW229639   2.957   5.897   8.931 -0.1312 -0.4963  0.0307
 8533SOL     OW29640   8.587   0.403   8.146 -0.1773  0.5724  0.4414
 8533SOL    HW129641   8.660   0.428   8.202 -0.7453  1.7976  0.6600
 8533SOL    HW229642   8.617   0.422   8.057  0.1001  0.2102  0.4551
 8534SOL     OW29643   7.103   1.277   2.315  0.0684 -0.3739  0.0190
 8534SOL    HW129644   7.173   1.320   2.365 -0.6417  0.0598  0.6461
 8534SOL    HW229645   7.025   1.328   2.333 -0.3568 -0.6463 -0.9682
 8535SOL     OW29646   3.872   6.168  10.036  0.5007  0.5075 -0.0710
 8535SOL    HW129647   3.789   6.148  10.079  0.2611  2.2996  0.3864
 8535SOL    HW229648   3.923   6.087  10.043 -0.8225 -0.2999  0.5355
 8536SOL     OW29649   1.262   4.890  10.031 -0.3253 -0.4585  0.1666
 8536SOL    HW129650   1.214   4.919   9.953  0.7165  1.0572  0.0652
 8536SOL    HW229651   1.354   4.891  10.005  0.0702  0.3794  1.4900
 8537SOL     OW29652   8.775   1.386   7.912  0.3252  0.3008  0.2603
 8537SOL    HW129653   8.785   1.456   7.976 -5.5097  0.0919  1.9625
 8537SOL    HW229654   8.790   1.306   7.962 -3.4186  0.1752  1.4677
 8538SOL     OW29655   7.831   9.368   9.094  0.1306  0.0676 -0.3670
 8538SOL    HW129656   7.772   9.374   9.019  1.0264 -1.0727 -1.2120
 8538SOL    HW229657   7.917   9.391   9.058  1.8704 -6.0845 -1.4366
 8539SOL     OW29658   4.183   9.730   7.851 -0.3467  0.7373  0.5624
 8539SOL    HW129659   4.123   9.726   7.777  2.0802 -0.5921 -1.5347
 8539SOL    HW229660   4.150   9.664   7.912 -0.3472 -1.0020 -1.1783
 8540SOL     OW29661   8.594   4.128   6.600 -0.3695 -0.4329 -0.0818
 8540SOL    HW129662   8.604   4.164   6.688 -0.4472  0.6468 -0.5038
 8540SOL    HW229663   8.614   4.035   6.610 -0.6560 -0.3826  1.1255
 8541SOL     OW29664   1.806   0.171   1.334 -0.6217  0.1843  0.6127
 8541SOL    HW129665   1.753   0.187   1.256 -0.9928  0.6479  0.9547
 8541SOL    HW229666   1.860   0.249   1.342  0.5150 -0.5097 -0.0359
 8542SOL     OW29667   6.300   1.932   2.209  0.0682  0.3125 -0.1799
 8542SOL    HW129668   6.228   1.946   2.271  0.0403  0.0680 -0.1553
 8542SOL    HW229669   6.286   1.844   2.175  0.6466  0.0628  0.2107
 8543SOL     OW29670   4.895   4.869   3.840 -0.6848  1.0856 -0.2296
 8543SOL    HW129671   4.882   4.926   3.765  1.0112 -0.9555 -2.2207
 8543SOL    HW229672   4.878   4.781   3.807  0.2088  0.0935  1.7534
 8544SOL     OW29673   9.688   1.706   2.781 -0.6441 -0.1659  0.0183
 8544SOL    HW129674   9.633   1.744   2.713  1.4176 -0.2345 -1.8255
 8544SOL    HW229675   9.654   1.618   2.794 -2.0450  0.3844  0.2741
 8545SOL     OW29676   4.084   8.156   0.084 -0.2895  0.9252  0.6489
 8545SOL    HW129677   4.163   8.149   0.031 -0.4591  0.8765  0.3974
 8545SOL    HW229678   4.067   8.250   0.088  0.5604  1.0414  1.8799
 8546SOL     OW29679   9.371   4.917   0.123  0.1662  0.4959 -0.0127
 8546SOL    HW129680   9.354   4.854   0.053  1.1145  0.1990  0.0107
 8546SOL    HW229681   9.420   4.988   0.080 -0.0933  0.7799  0.1549
 8547SOL     OW29682   8.400   4.850   4.565  0.0255  0.1494  0.6049
 8547SOL    HW129683   8.404   4.909   4.640 -1.9540  1.0767  0.0371
 8547SOL    HW229684   8.382   4.907   4.491 -1.0043 -1.0725 -0.1087
 8548SOL     OW29685   3.213   4.883   5.331  0.0741 -0.1100 -0.3121
 8548SOL    HW129686   3.193   4.834   5.251  1.1850 -1.0705 -0.0259
 8548SOL    HW229687   3.135   4.872   5.385 -0.8491  0.8695 -1.3845
 8549SOL     OW29688   7.839   4.625   5.235 -0.0593 -0.9863  0.5101
 8549SOL    HW129689   7.790   4.705   5.216  0.1671 -1.3627 -1.9518
 8549SOL    HW229690   7.867   4.635   5.326 -1.3617  1.0079  0.7442
 8550SOL     OW29691   6.300   8.073   6.035 -0.4871 -0.8323 -0.5029
 8550SOL    HW129692   6.330   8.158   6.003 -0.9377 -0.9806 -1.3442
 8550SOL    HW229693   6.234   8.095   6.101  1.1298 -0.5115  1.0736
 8551SOL     OW29694   0.632   4.844   7.955  0.1137 -0.0030  0.3960
 8551SOL    HW129695   0.580   4.801   7.888 -0.3558  0.1792  0.6395
 8551SOL    HW229696   0.675   4.917   7.910  0.4239 -0.3514  0.1218
 8552SOL     OW29697   2.280   9.760   2.456  0.6455 -0.3640  0.0735
 8552SOL    HW129698   2.245   9.802   2.378  0.1221 -2.0505 -0.6418
 8552SOL    HW229699   2.260   9.820   2.528 -0.8060  0.2021 -0.7849
 8553SOL     OW29700   8.969   8.490   5.332  0.2229  0.1201 -0.1590
 8553SOL    HW129701   8.981   8.425   5.402  1.8233  0.1263 -0.3886
 8553SOL    HW229702   8.899   8.547   5.364 -0.0588 -0.7294  0.7957
 8554SOL     OW29703   3.342   6.329   5.727 -0.3343 -0.5122  0.2902
 8554SOL    HW129704   3.271   6.344   5.664  0.7981 -2.4649 -1.5733
 8554SOL    HW229705   3.395   6.408   5.721 -0.9940 -0.0846 -0.1694
 8555SOL     OW29706   2.676   8.781   5.070  0.4271 -0.1094 -0.2269
 8555SOL    HW129707   2.723   8.808   4.990  1.1603 -0.3378  0.1184
 8555SOL    HW229708   2.648   8.692   5.052  1.1245 -0.3804 -0.0044
 8556SOL     OW29709   2.455   0.554   0.969 -0.1603 -0.2024 -0.4511
 8556SOL    HW129710   2.430   0.472   1.012 -0.0230  0.0214  0.0618
 8556SOL    HW229711   2.476   0.613   1.041 -0.6042  0.3956 -0.8074
 8557SOL     OW29712   7.983   7.439   6.651  0.0952 -0.0334 -0.1944
 8557SOL    HW129713   8.060   7.482   6.690  0.3326 -0.4971 -0.1422
 8557SOL    HW229714   7.912   7.502   6.662  0.0820 -0.2808  1.2843
 8558SOL     OW29715   1.918   3.108   1.121 -0.3130  0.0862  0.3943
 8558SOL    HW129716   1.843   3.145   1.074 -1.4148 -0.0435  1.9509
 8558SOL    HW229717   1.952   3.039   1.063 -0.8877  0.6899 -0.6841
 8559SOL     OW29718   2.326   9.383   2.243 -0.0506  0.1127  0.3335
 8559SOL    HW129719   2.325   9.458   2.184 -1.4499 -0.4652 -0.4391
 8559SOL    HW229720   2.314   9.419   2.330 -0.9253  0.7769 -0.0545
 8560SOL     OW29721   7.657   7.607   3.985  0.0583  0.3269 -0.3355
 8560SOL    HW129722   7.668   7.691   4.030  1.6368  0.4555 -0.8709
 8560SOL    HW229723   7.722   7.610   3.914 -0.1705 -1.1626 -0.6336
 8561SOL     OW29724   7.706   8.509   0.202  0.2174  0.2066  0.1231
 8561SOL    HW129725   7.731   8.553   0.284  0.5026 -0.1479  0.2298
 8561SOL    HW229726   7.779   8.451   0.183 -0.2889 -0.4545  0.1528
 8562SOL     OW29727   1.209   6.050   8.627 -0.3210 -0.1155  0.4068
 8562SOL    HW129728   1.151   6.060   8.702 -0.8340 -0.9445  0.1307
 8562SOL    HW229729   1.190   6.125   8.571  0.1926  0.6069  1.1743
 8563SOL     OW29730   9.048   1.826   5.144 -0.1377  0.1994 -0.2328
 8563SOL    HW129731   8.968   1.877   5.128 -0.9155 -0.7013  0.6916
 8563SOL    HW229732   9.020   1.754   5.200  1.7253  1.0563  1.9670
 8564SOL     OW29733   6.210   7.413   6.671  0.3878  0.6053  0.2605
 8564SOL    HW129734   6.208   7.320   6.691 -2.4804  0.1648 -1.5133
 8564SOL    HW229735   6.206   7.457   6.756 -1.6871 -0.9712  1.0595
 8565SOL     OW29736   3.243   3.828   9.035  0.3230 -0.1780 -0.6139
 8565SOL    HW129737   3.155   3.857   9.013  1.3130  2.0112 -2.0722
 8565SOL    HW229738   3.240   3.733   9.026 -1.4044 -0.0011 -2.5739
 8566SOL     OW29739   1.764   4.463   0.134  0.4640 -0.4847  0.4380
 8566SOL    HW129740   1.790   4.426   0.050 -0.7863  0.0726 -0.2244
 8566SOL    HW229741   1.762   4.389   0.194 -2.4590 -1.6491 -0.9609
 8567SOL     OW29742   6.668   6.000   4.064  0.0672 -0.3149  0.2150
 8567SOL    HW129743   6.725   5.991   4.141 -0.4333  0.9199  0.7431
 8567SOL    HW229744   6.707   6.070   4.013  0.0938 -0.7762 -0.4137
 8568SOL     OW29745   1.377   5.775   1.431  0.4811  0.2076  0.0740
 8568SOL    HW129746   1.462   5.786   1.388 -0.8232 -0.5580 -2.9442
 8568SOL    HW229747   1.355   5.862   1.464  1.8125  0.7110 -0.3196
 8569SOL     OW29748   9.291   8.397   6.504 -0.0154  0.2936 -0.5940
 8569SOL    HW129749   9.371   8.362   6.465  1.2399  2.3340 -0.0172
 8569SOL    HW229750   9.239   8.427   6.429 -0.2297 -0.9692 -0.9691
 8570SOL     OW29751   4.887   8.414   9.846  0.1774  0.2540 -0.6767
 8570SOL    HW129752   4.937   8.478   9.795  0.8583 -0.3769 -0.8272
 8570SOL    HW229753   4.928   8.330   9.826 -0.3625 -0.1681 -0.0739
 8571SOL     OW29754   5.706   0.280   8.020 -0.0209  0.6547  0.9149
 8571SOL    HW129755   5.617   0.306   8.045 -0.8220 -1.3716  0.3544
 8571SOL    HW229756   5.719   0.321   7.934 -0.1959  1.3734  1.2235
 8572SOL     OW29757   5.571   9.229   4.747 -0.1526  0.2613 -0.0356
 8572SOL    HW129758   5.480   9.198   4.743 -0.5426  1.2281  0.7089
 8572SOL    HW229759   5.584   9.275   4.664 -0.0990 -0.4986 -0.4532
 8573SOL     OW29760   3.282   9.812   5.288 -0.2981  0.2039 -0.5958
 8573SOL    HW129761   3.198   9.847   5.255 -1.4563 -0.0994  1.7843
 8573SOL    HW229762   3.348   9.851   5.231 -1.9063  2.3189 -1.1701
 8574SOL     OW29763   4.778   7.139   9.882 -0.2546  0.0931  0.6095
 8574SOL    HW129764   4.809   7.228   9.865  1.2709 -0.5101  0.0125
 8574SOL    HW229765   4.818   7.115   9.966  0.7493 -0.6033 -0.0407
 8575SOL     OW29766   1.997   5.024   4.299  0.0666  0.2838  0.2087
 8575SOL    HW129767   2.083   4.995   4.331  0.6339  1.1430 -0.4865
 8575SOL    HW229768   1.992   4.988   4.211  0.0324  0.8548 -0.0224
 8576SOL     OW29769   3.246   0.605   4.937 -0.1581  0.4471 -0.1299
 8576SOL    HW129770   3.281   0.677   4.883 -1.3959  0.3556 -1.0747
 8576SOL    HW229771   3.261   0.635   5.027  3.4948 -0.1206 -0.3752
 8577SOL     OW29772   7.458   2.960   6.764  0.5871 -0.7114  0.5114
 8577SOL    HW129773   7.533   2.983   6.710 -0.2323 -1.6262 -1.0644
 8577SOL    HW229774   7.473   2.869   6.790  0.7289 -0.4363  1.4444
 8578SOL     OW29775   1.332   6.548   0.934 -0.3011  0.1751  0.3730
 8578SOL    HW129776   1.262   6.509   0.987  0.3477  0.6041  1.5790
 8578SOL    HW229777   1.365   6.620   0.988 -0.0951  1.0946 -0.9309
 8579SOL     OW29778   4.787   5.298   5.406  0.4593  0.0737  0.5669
 8579SOL    HW129779   4.857   5.233   5.416 -0.3702 -1.1115 -0.8855
 8579SOL    HW229780   4.828   5.381   5.430  2.2996 -0.6337  0.0440
 8580SOL     OW29781   9.059   1.649   5.630 -0.4279  0.3133  0.3420
 8580SOL    HW129782   9.097   1.565   5.658 -0.7751 -0.2447 -0.7884
 8580SOL    HW229783   9.110   1.673   5.552 -0.9834  0.6450  0.0763
 8581SOL     OW29784   4.172   8.086   0.461  0.1727 -0.6920 -0.1195
 8581SOL    HW129785   4.108   8.022   0.491  0.8717 -1.0211  0.7099
 8581SOL    HW229786   4.251   8.068   0.513 -0.4542  2.7351  2.3922
 8582SOL     OW29787   4.791   6.518   4.619 -0.0083  0.4202 -0.1409
 8582SOL    HW129788   4.852   6.446   4.607 -0.4530  0.0340 -0.1392
 8582SOL    HW229789   4.830   6.573   4.687  0.3416  0.1934 -0.1605
 8583SOL     OW29790   2.374   3.192   2.003 -0.2236 -0.7010 -0.0655
 8583SOL    HW129791   2.327   3.241   1.936 -0.2531 -3.3425 -2.1265
 8583SOL    HW229792   2.439   3.254   2.036 -0.7710  0.9705 -1.9011
 8584SOL     OW29793   0.384   7.632   5.489 -0.4613  0.0010 -0.1760
 8584SOL    HW129794   0.452   7.642   5.556 -1.6521  1.4459  0.9001
 8584SOL    HW229795   0.340   7.550   5.511 -0.1226 -0.1028  0.1234
 8585SOL     OW29796   7.176   4.891   9.400 -0.1217  0.6306 -0.8403
 8585SOL    HW129797   7.085   4.862   9.394  0.4973 -1.3620 -1.4896
 8585SOL    HW229798   7.227   4.810   9.393  1.7147  1.7427 -0.9057
 8586SOL     OW29799   2.699   5.620   8.320 -0.3235  0.0449 -0.4479
 8586SOL    HW129800   2.624   5.629   8.378  0.3883 -0.6370  0.6349
 8586SOL    HW229801   2.725   5.710   8.300 -0.7084  0.2935  0.1351
 8587SOL     OW29802   1.527   8.004   1.928 -0.3362 -0.3406  0.1374
 8587SOL    HW129803   1.598   7.943   1.909 -0.0752 -0.6050  1.8483
 8587SOL    HW229804   1.519   8.057   1.848  1.3099 -0.7606 -0.3409
 8588SOL     OW29805   6.419   8.504   2.737  0.1245  0.1516 -0.3092
 8588SOL    HW129806   6.445   8.559   2.663  0.2405 -1.5925 -1.6442
 8588SOL    HW229807   6.324   8.495   2.727 -0.1795  1.5584  0.9915
 8589SOL     OW29808   8.604   8.010   7.304 -0.2456 -0.1586  0.0898
 8589SOL    HW129809   8.554   8.091   7.299 -0.2677 -0.1428  0.6178
 8589SOL    HW229810   8.674   8.022   7.239  0.1782  0.5801  0.6738
 8590SOL     OW29811   5.214   2.526   8.496 -0.3344  0.5494  0.1465
 8590SOL    HW129812   5.293   2.549   8.545  0.1649 -0.1951 -0.2858
 8590SOL    HW229813   5.209   2.431   8.503 -2.9835  0.7386  2.8633
 8591SOL     OW29814   6.748   3.394   1.436 -0.2532  0.0356  0.1574
 8591SOL    HW129815   6.747   3.397   1.531 -0.0276 -0.7907  0.1945
 8591SOL    HW229816   6.658   3.371   1.412 -0.5288  1.1183  0.1267
 8592SOL     OW29817   4.571   5.697   0.170 -0.3810  0.2147  0.7154
 8592SOL    HW129818   4.512   5.754   0.219  1.4337  0.7509  2.4000
 8592SOL    HW229819   4.659   5.730   0.190  0.5799 -1.2802 -0.7402
 8593SOL     OW29820   5.908   5.880   0.258 -0.7387  0.0447 -0.7191
 8593SOL    HW129821   5.919   5.805   0.316 -2.1478 -0.0281 -0.5156
 8593SOL    HW229822   5.995   5.920   0.254 -0.4439 -0.3835  0.8289
 8594SOL     OW29823   4.947   2.967   3.630  0.2780  0.2038 -0.1066
 8594SOL    HW129824   4.918   3.058   3.637  0.7450  0.5483 -2.0085
 8594SOL    HW229825   5.036   2.968   3.665 -0.8062 -0.2658  2.9896
 8595SOL     OW29826   3.140   7.789   5.944 -0.2705 -0.1727  0.1618
 8595SOL    HW129827   3.074   7.837   5.894 -0.1018  1.3303  1.3071
 8595SOL    HW229828   3.161   7.713   5.890 -1.0271  0.7036 -1.4365
 8596SOL     OW29829   4.907   7.874   7.372 -0.1475  0.0865 -0.4765
 8596SOL    HW129830   4.946   7.957   7.402 -0.1283  0.9045 -2.6088
 8596SOL    HW229831   4.982   7.817   7.355 -0.0842  0.2248 -0.6580
 8597SOL     OW29832   1.823   7.482   5.201  0.1137  0.5078 -0.0835
 8597SOL    HW129833   1.877   7.528   5.266  0.5653 -1.0672  0.6928
 8597SOL    HW229834   1.735   7.483   5.239 -0.0306  1.3400 -0.4152
 8598SOL     OW29835   2.366   1.780   7.731 -0.0814  0.2142  0.4322
 8598SOL    HW129836   2.341   1.826   7.811  0.2587 -0.5628  0.9986
 8598SOL    HW229837   2.394   1.693   7.761 -0.1803 -0.1736 -0.5507
 8599SOL     OW29838   7.847   5.522   0.219 -0.3635  0.3370 -0.5401
 8599SOL    HW129839   7.915   5.586   0.196 -0.3977  0.9205  0.9130
 8599SOL    HW229840   7.817   5.488   0.134  1.2512  0.5643 -1.2410
 8600SOL     OW29841   2.624  10.059   2.664 -0.1299 -0.2279  0.0448
 8600SOL    HW129842   2.715  10.056   2.691 -0.0140  1.6563  0.0134
 8600SOL    HW229843   2.620  10.006   2.585  0.7232 -1.0639  0.5391
 8601SOL     OW29844   5.450   9.462   7.543 -0.0883 -0.3709  0.4119
 8601SOL    HW129845   5.411   9.392   7.491  0.1064  0.4973 -0.9503
 8601SOL    HW229846   5.408   9.542   7.512 -0.1610  0.1712  1.7929
 8602SOL     OW29847   1.208   6.653   2.706 -0.1418  0.2380  0.4992
 8602SOL    HW129848   1.186   6.723   2.768 -3.2790  0.1546 -0.3619
 8602SOL    HW229849   1.214   6.698   2.621  1.0735 -0.1166  0.3719
 8603SOL     OW29850   8.907   7.505   9.046 -0.3393  0.1803  0.0309
 8603SOL    HW129851   8.993   7.525   9.081  0.3006 -1.9945 -0.1665
 8603SOL    HW229852   8.921   7.494   8.952 -0.8619 -0.0365 -0.0249
 8604SOL     OW29853   8.995   7.278   2.291 -0.8944  0.0773  0.1715
 8604SOL    HW129854   8.924   7.263   2.229  0.3223  1.4112 -1.6704
 8604SOL    HW229855   8.982   7.368   2.321  1.1171  1.2008 -1.9197
 8605SOL     OW29856   6.428   8.959   7.374 -0.2106 -0.2025  0.4968
 8605SOL    HW129857   6.490   9.010   7.321 -0.6044  0.5713  0.7675
 8605SOL    HW229858   6.366   8.923   7.311  0.0264 -0.2917  0.3117
 8606SOL     OW29859   2.032   9.752   2.317  0.1871 -0.3375 -0.3619
 8606SOL    HW129860   2.077   9.695   2.255  0.6539 -0.8215  0.3940
 8606SOL    HW229861   2.005   9.828   2.266  2.1318  0.1220 -0.7874
 8607SOL     OW29862   3.321   2.825   4.773  0.6229 -0.4034 -0.1699
 8607SOL    HW129863   3.328   2.744   4.823  0.4959 -1.8436 -2.3361
 8607SOL    HW229864   3.240   2.816   4.723  0.2987  1.3548 -0.0244
 8608SOL     OW29865   9.467   1.897   2.101  0.1685 -0.7245  0.4106
 8608SOL    HW129866   9.490   1.971   2.045  1.8756 -0.5171  1.2835
 8608SOL    HW229867   9.431   1.831   2.042 -0.1559  0.3040 -0.5707
 8609SOL     OW29868   2.971   7.378   3.244 -0.5091  0.0783 -0.3705
 8609SOL    HW129869   2.896   7.329   3.211 -0.9321  0.8197 -0.5398
 8609SOL    HW229870   2.934   7.461   3.275 -0.3111 -0.9791  3.0659
 8610SOL     OW29871   3.721   9.934   7.909  0.5447 -0.1254  0.0207
 8610SOL    HW129872   3.751   9.976   7.989  1.5832  0.0125 -0.4231
 8610SOL    HW229873   3.772   9.976   7.839  0.4518 -0.9960 -0.5949
 8611SOL     OW29874   0.040   1.237   2.846 -0.0772  0.2944  0.0515
 8611SOL    HW129875   0.119   1.207   2.891  0.7582  1.2286 -0.7208
 8611SOL    HW229876   0.026   1.172   2.777 -0.6834 -0.5089  0.9170
 8612SOL     OW29877   6.992   4.270   8.397  0.2113 -0.1269  0.1390
 8612SOL    HW129878   7.052   4.278   8.323  2.3477  0.2756  1.8121
 8612SOL    HW229879   6.974   4.176   8.403  0.2730 -0.1962 -0.6641
 8613SOL     OW29880   8.493   9.921   3.900 -0.5122  0.0554  0.2294
 8613SOL    HW129881   8.437   9.843   3.895  0.3105 -0.4850 -0.8457
 8613SOL    HW229882   8.450   9.977   3.965 -1.8732 -0.6870  0.0027
 8614SOL     OW29883   5.071   8.764   2.345  0.2090 -0.1719  0.0942
 8614SOL    HW129884   5.080   8.858   2.358  1.2532 -0.2766  0.1669
 8614SOL    HW229885   5.045   8.730   2.431 -0.3810  0.0626  0.0161
 8615SOL     OW29886   9.160   9.261   0.131 -0.1509  0.4919  0.3460
 8615SOL    HW129887   9.206   9.344   0.118  0.6044  0.0781  0.3292
 8615SOL    HW229888   9.106   9.276   0.209  1.2943  0.4638  1.3982
 8616SOL     OW29889   8.768   7.935   2.867  0.3182 -0.1417  0.0559
 8616SOL    HW129890   8.748   7.846   2.895  0.3670 -0.3757 -0.6399
 8616SOL    HW229891   8.725   7.944   2.782  0.3701  0.4791  0.0861
 8617SOL     OW29892   0.774   1.041   0.514  0.3435 -0.4294 -0.3579
 8617SOL    HW129893   0.816   1.001   0.590  0.3370 -1.6766 -0.9817
 8617SOL    HW229894   0.681   1.028   0.529  0.3791 -2.8721 -1.6431
 8618SOL     OW29895   8.503   8.691   1.983 -0.5251  0.2826  0.2642
 8618SOL    HW129896   8.500   8.786   1.975 -0.3976  0.2740  0.1125
 8618SOL    HW229897   8.559   8.663   1.911 -2.8087 -0.1164 -1.4877
 8619SOL     OW29898   1.928   7.156   8.063  0.1447  0.4594 -0.0606
 8619SOL    HW129899   1.891   7.174   7.976  1.1901 -0.9755 -0.8549
 8619SOL    HW229900   1.994   7.224   8.076 -0.4558  1.0604 -0.0987
 8620SOL     OW29901   2.475   8.070   9.628 -0.1291 -0.5911 -0.3070
 8620SOL    HW129902   2.546   8.135   9.631 -1.2160  0.6083  0.0426
 8620SOL    HW229903   2.399   8.115   9.664 -0.9896 -1.9943 -0.2787
 8621SOL     OW29904   4.346   2.001   4.847  0.1854  0.2485  0.0592
 8621SOL    HW129905   4.345   1.990   4.942  0.4012  0.8747  0.1332
 8621SOL    HW229906   4.292   2.078   4.831 -1.0593 -0.6978 -0.4462
 8622SOL     OW29907   4.085  10.039   3.254 -0.1681  0.2863 -0.1785
 8622SOL    HW129908   4.110  10.127   3.226  1.2384  0.0849  0.3445
 8622SOL    HW229909   4.096   9.984   3.176 -0.0683  0.3978 -0.2423
 8623SOL     OW29910  10.285   7.453   3.405 -0.1830  0.2689 -0.3503
 8623SOL    HW129911  10.228   7.459   3.328 -0.7720 -0.7397 -0.0196
 8623SOL    HW229912  10.238   7.502   3.473  0.3798  1.2354 -0.6363
 8624SOL     OW29913   5.800   0.554   2.578  0.0723 -0.7984  0.3102
 8624SOL    HW129914   5.758   0.538   2.662 -0.7210  0.0878  0.0989
 8624SOL    HW229915   5.870   0.616   2.597 -1.1126  0.6457  0.0927
 8625SOL     OW29916   7.167   1.295  10.200  0.4417 -0.0185  0.4165
 8625SOL    HW129917   7.178   1.206  10.234 -0.0885 -0.0408  0.5386
 8625SOL    HW229918   7.250   1.338  10.220  1.6452 -1.1546 -1.7250
 8626SOL     OW29919   5.228   3.142   7.139  0.1737  0.0685 -0.2783
 8626SOL    HW129920   5.191   3.083   7.204  1.0792  0.3989  0.5577
 8626SOL    HW229921   5.291   3.087   7.091  0.4284  0.1396 -0.0304
 8627SOL     OW29922   6.677   7.563   7.635 -0.2930 -0.5307 -0.1378
 8627SOL    HW129923   6.631   7.590   7.556  1.4655  1.3722 -0.6146
 8627SOL    HW229924   6.691   7.644   7.684  4.0171 -0.5532 -0.9335
 8628SOL     OW29925   3.487   2.273   4.323  0.3139 -0.0302  0.0230
 8628SOL    HW129926   3.493   2.207   4.255  0.4230 -0.5772  0.5586
 8628SOL    HW229927   3.441   2.346   4.282 -0.5899 -0.7742 -0.3120
 8629SOL     OW29928  10.197   7.843   2.427  0.0638 -0.4074  0.1558
 8629SOL    HW129929  10.231   7.850   2.338 -0.7591  1.1647 -0.0820
 8629SOL    HW229930  10.262   7.888   2.481 -1.0214  1.7275 -0.1704
 8630SOL     OW29931   8.247   8.437  10.191  0.4675 -0.1651 -0.1842
 8630SOL    HW129932   8.216   8.523  10.219 -3.2360 -1.7768  1.3942
 8630SOL    HW229933   8.321   8.418  10.248  0.6925  1.5091  0.1472
 8631SOL     OW29934   4.039   0.450   2.070  0.4538 -0.7918 -0.1199
 8631SOL    HW129935   3.999   0.395   2.002  0.8796  0.1297 -1.1492
 8631SOL    HW229936   3.978   0.523   2.080  1.8075  0.6726 -1.7625
 8632SOL     OW29937   1.527   6.344   2.329 -0.1558  0.4881 -0.5282
 8632SOL    HW129938   1.434   6.329   2.346 -0.7248  0.4975 -3.1383
 8632SOL    HW229939   1.533   6.439   2.316 -0.1741  0.3090 -2.0623
 8633SOL     OW29940   5.923   3.046   0.382 -0.5030  0.2909  0.0283
 8633SOL    HW129941   5.987   3.036   0.312 -1.2012 -1.5652 -0.3935
 8633SOL    HW229942   5.939   3.134   0.417  1.8996  0.0877 -0.4056
 8634SOL     OW29943   7.824   7.401   3.067  0.2850  0.1465 -0.8852
 8634SOL    HW129944   7.800   7.438   3.153 -0.6182  1.0829 -1.5071
 8634SOL    HW229945   7.740   7.376   3.028  0.6623  0.0024 -1.6228
 8635SOL     OW29946   4.913   4.628   3.709 -0.5311  0.1795  0.9999
 8635SOL    HW129947   4.982   4.569   3.739  1.9696  3.5304  2.5205
 8635SOL    HW229948   4.959   4.694   3.658 -3.2570  0.6090 -1.1547
 8636SOL     OW29949   1.133   0.562  10.206 -0.4917 -0.0822  0.1841
 8636SOL    HW129950   1.059   0.531  10.259 -0.0388  0.4560  1.1578
 8636SOL    HW229951   1.210   0.527  10.250 -0.1503 -1.0482 -1.0960
 8637SOL     OW29952   6.765   7.364   3.351  0.3735  0.1193 -0.6626
 8637SOL    HW129953   6.699   7.341   3.416 -1.4579 -0.2405 -2.5574
 8637SOL    HW229954   6.842   7.312   3.377 -0.1669  0.2344  1.3580
 8638SOL     OW29955  10.199   4.438   9.709 -0.3424 -0.3362 -0.3719
 8638SOL    HW129956  10.211   4.525   9.670 -1.2848 -0.5579 -1.1762
 8638SOL    HW229957  10.147   4.390   9.645  0.7626 -1.7373 -0.2513
 8639SOL     OW29958   6.570   9.053   4.258 -0.2032  0.2700 -0.5650
 8639SOL    HW129959   6.603   8.964   4.251 -0.4094  0.0837  0.5433
 8639SOL    HW229960   6.615   9.102   4.189  1.0742 -0.3491 -0.1939
 8640SOL     OW29961   6.676   2.650  10.281 -0.1454  0.1344  0.0343
 8640SOL    HW129962   6.623   2.598  10.341 -0.7538 -0.6302 -1.1316
 8640SOL    HW229963   6.633   2.641  10.196  0.7470  1.1077 -0.5475
 8641SOL     OW29964   4.049   9.110  10.007 -0.2329 -0.4900  0.7988
 8641SOL    HW129965   4.121   9.142  10.061 -0.3141 -0.7000  1.0340
 8641SOL    HW229966   4.092   9.062   9.936 -0.0685  0.9576 -0.1192
 8642SOL     OW29967   9.495   9.303   2.192  0.4322 -0.2876 -0.0689
 8642SOL    HW129968   9.465   9.293   2.102 -1.5278 -1.9353  0.7052
 8642SOL    HW229969   9.449   9.380   2.224 -0.6700 -1.0377  0.1901
 8643SOL     OW29970   9.858   8.835   7.607  0.4197 -0.6660  0.1014
 8643SOL    HW129971   9.895   8.920   7.583  0.3258 -0.4886  0.5879
 8643SOL    HW229972   9.769   8.837   7.571  0.4130 -0.5567  0.1233
 8644SOL     OW29973   6.938   0.694  10.195  0.0159  0.5706  0.0832
 8644SOL    HW129974   6.910   0.616  10.148  0.7791  0.0061  0.5414
 8644SOL    HW229975   6.864   0.717  10.251 -1.0151  1.4131 -1.5456
 8645SOL     OW29976   3.634   0.498   7.011  0.6920 -0.0647  0.0210
 8645SOL    HW129977   3.622   0.567   6.946  2.1564 -0.5207 -0.7948
 8645SOL    HW229978   3.693   0.536   7.076 -1.1145  0.5431  1.3942
 8646SOL     OW29979   9.477   2.460   0.259 -0.4407 -0.1931  0.2138
 8646SOL    HW129980   9.545   2.401   0.290  0.1657  0.3970  0.0470
 8646SOL    HW229981   9.409   2.457   0.326  0.2522  0.0540  0.9408
 8647SOL     OW29982   2.890   3.466   1.547 -0.0336 -0.3096 -0.1381
 8647SOL    HW129983   2.904   3.382   1.590  1.7612  0.5782  1.1512
 8647SOL    HW229984   2.800   3.489   1.569  0.3742 -0.5536  2.0687
 8648SOL     OW29985   2.919   1.855   1.415  0.1144  0.7635  0.4251
 8648SOL    HW129986   2.984   1.818   1.355  0.5843  1.2355  0.6364
 8648SOL    HW229987   2.886   1.932   1.369  0.2274  0.9320  0.6267
 8649SOL     OW29988   8.677   4.292   9.097  0.4058 -0.3671  0.2026
 8649SOL    HW129989   8.770   4.269   9.106 -0.1597 -2.5441  1.2382
 8649SOL    HW229990   8.646   4.236   9.026  0.0787  1.1315 -0.8739
 8650SOL     OW29991   2.483   3.873   9.382 -0.2614 -0.2622 -0.2495
 8650SOL    HW129992   2.506   3.826   9.462  1.3271  0.1195 -0.4462
 8650SOL    HW229993   2.392   3.899   9.395 -0.2506 -0.8326  1.1198
 8651SOL     OW29994   2.211   3.913   9.891 -0.8399 -0.5265 -0.3312
 8651SOL    HW129995   2.120   3.923   9.863 -0.2790  0.0774 -2.0560
 8651SOL    HW229996   2.225   3.818   9.891 -1.8028 -0.6901  1.1521
 8652SOL     OW29997   5.950   2.151   2.194 -0.7717 -0.3195  0.2652
 8652SOL    HW129998   5.933   2.129   2.102 -1.6524 -0.6110  0.4923
 8652SOL    HW229999   5.966   2.245   2.193 -0.9533 -0.2893 -0.1690
 8653SOL     OW30000   3.742   4.188   8.855 -0.0684  0.4309 -0.3083
 8653SOL    HW130001   3.701   4.162   8.937  1.1585 -0.7960 -0.0577
 8653SOL    HW230002   3.780   4.274   8.874 -2.3822  1.5903 -0.5355
 8654SOL     OW30003   1.386   9.194   5.016 -0.7541  0.3989  0.0507
 8654SOL    HW130004   1.351   9.130   4.954  0.2052  0.4385 -0.5422
 8654SOL    HW230005   1.462   9.232   4.972  0.7326 -0.4884  1.7204
 8655SOL     OW30006   3.153   7.424   3.462  0.0877 -0.4620  0.5551
 8655SOL    HW130007   3.246   7.412   3.441 -0.0788  2.6931 -2.9652
 8655SOL    HW230008   3.108   7.409   3.379 -2.1964  1.0162  1.4409
 8656SOL     OW30009   5.235   8.184   9.483  0.4240 -0.0827 -0.5087
 8656SOL    HW130010   5.209   8.197   9.392  0.3038 -0.1495 -0.4839
 8656SOL    HW230011   5.168   8.231   9.534  0.7311  0.3238 -0.4702
 8657SOL     OW30012   9.118   7.495  10.182 -0.4628  0.0832 -0.2903
 8657SOL    HW130013   9.058   7.513  10.255  0.7836 -0.0465  0.7898
 8657SOL    HW230014   9.100   7.403  10.159 -1.5689  0.4155 -0.8597
 8658SOL     OW30015   6.866   1.561   2.434  0.3506  0.0216 -0.3211
 8658SOL    HW130016   6.947   1.576   2.386  0.0386  3.2591 -0.0646
 8658SOL    HW230017   6.873   1.617   2.512 -0.8318 -2.0281  1.3720
 8659SOL     OW30018   4.622   8.211   8.306 -0.4400  0.4017 -0.3517
 8659SOL    HW130019   4.689   8.220   8.374 -0.7708  0.8585 -0.0798
 8659SOL    HW230020   4.620   8.118   8.286  0.2139  0.3691 -0.2963
 8660SOL     OW30021   9.881   3.950   4.163 -0.0562  0.3180  0.0066
 8660SOL    HW130022   9.957   3.897   4.137 -0.8718 -0.4435 -0.8965
 8660SOL    HW230023   9.890   3.959   4.258  1.0771  0.1041 -0.0643
 8661SOL     OW30024   4.304   6.020   6.700 -0.4508  1.0786 -0.7226
 8661SOL    HW130025   4.336   5.981   6.619  1.4235 -0.1304  0.4841
 8661SOL    HW230026   4.221   5.977   6.717 -1.7285  2.5834 -2.7996
 8662SOL     OW30027   0.118   1.404   7.462  0.6579 -0.1374 -0.0839
 8662SOL    HW130028   0.089   1.314   7.478 -0.0963  0.4058  1.8422
 8662SOL    HW230029   0.066   1.432   7.387  1.1787 -1.4006 -0.9617
 8663SOL     OW30030   6.331  10.172   6.432 -0.3434  0.3753 -0.7864
 8663SOL    HW130031   6.300  10.108   6.368  1.2771 -0.1424 -1.1041
 8663SOL    HW230032   6.274  10.248   6.420 -1.9220 -0.7623 -0.8196
 8664SOL     OW30033   7.266   7.897   4.100 -0.7276 -0.6496  0.2937
 8664SOL    HW130034   7.180   7.934   4.077 -0.9671 -0.9300  0.7240
 8664SOL    HW230035   7.248   7.840   4.175  0.3027  1.6939  2.4556
 8665SOL     OW30036   6.096   6.183   4.201  0.3962 -0.2249 -0.6654
 8665SOL    HW130037   6.121   6.101   4.159 -2.7244 -1.7793  0.2384
 8665SOL    HW230038   6.120   6.171   4.293  1.7501  0.7397 -0.8682
 8666SOL     OW30039  10.228   3.734   7.836 -0.0190  0.6498  0.2526
 8666SOL    HW130040  10.252   3.814   7.790 -0.5197  0.5479 -0.1938
 8666SOL    HW230041  10.311   3.694   7.862  0.3624 -0.1649 -2.0329
 8667SOL     OW30042   4.459   7.777   6.271  0.2167  0.4744  0.0908
 8667SOL    HW130043   4.383   7.828   6.245 -0.4676  0.2548  1.5326
 8667SOL    HW230044   4.462   7.704   6.209 -0.8270  0.4236  0.0831
 8668SOL     OW30045   4.725   1.925   3.512  0.4733  0.8897 -0.3233
 8668SOL    HW130046   4.642   1.972   3.513  0.0238  0.1136  0.7917
 8668SOL    HW230047   4.789   1.990   3.486 -0.2806  1.8542  0.1567
 8669SOL     OW30048   3.091  10.150   7.415 -0.7433  0.1148 -0.2484
 8669SOL    HW130049   3.013  10.095   7.411 -0.4566 -0.3529  0.5320
 8669SOL    HW230050   3.112  10.157   7.508  0.9017 -0.8601 -0.5090
 8670SOL     OW30051   5.178   9.618   8.682 -0.2909  0.1908 -0.0352
 8670SOL    HW130052   5.262   9.660   8.668  0.6085 -1.1794  0.9845
 8670SOL    HW230053   5.191   9.561   8.758 -1.8470 -0.8023 -0.4420
 8671SOL     OW30054   0.813   7.277   2.587  0.2400  0.4000  0.0768
 8671SOL    HW130055   0.830   7.371   2.590  0.2175  0.4142 -0.1997
 8671SOL    HW230056   0.770   7.263   2.503 -0.1642  0.2074  0.3111
 8672SOL     OW30057   9.698   6.004   1.845 -0.1831  0.5405 -0.1034
 8672SOL    HW130058   9.707   5.931   1.905 -0.5326 -0.0301 -0.7271
 8672SOL    HW230059   9.748   5.978   1.767 -0.4608  0.8785 -0.4040
 8673SOL     OW30060   2.149   4.430   1.836  0.1113 -0.3438  0.0541
 8673SOL    HW130061   2.145   4.448   1.741  0.2078 -0.1240  0.0902
 8673SOL    HW230062   2.088   4.493   1.874 -1.8559 -2.0683 -0.0721
 8674SOL     OW30063   7.487   3.524   4.653 -0.2001 -0.4147  0.1712
 8674SOL    HW130064   7.543   3.484   4.586 -0.0466  0.2767 -0.1195
 8674SOL    HW230065   7.402   3.533   4.611  0.1702  1.0396 -0.3420
 8675SOL     OW30066   1.627   4.757   7.860  0.9974  0.6826  0.2663
 8675SOL    HW130067   1.575   4.837   7.855 -0.3320 -0.1419  0.5708
 8675SOL    HW230068   1.596   4.703   7.788  2.4401  0.7222 -0.4286
 8676SOL     OW30069   0.911   0.429   1.424 -0.2687  0.3430  0.5286
 8676SOL    HW130070   0.822   0.406   1.449  0.4325 -1.5012  1.5847
 8676SOL    HW230071   0.916   0.408   1.331 -1.1822  1.3898  0.2270
 8677SOL     OW30072   2.787   9.389   7.211 -0.1095  0.3831 -0.2437
 8677SOL    HW130073   2.766   9.328   7.140  0.0348  0.1294 -0.0738
 8677SOL    HW230074   2.774   9.338   7.291  0.4934  0.4185 -0.1157
 8678SOL     OW30075   2.101   0.505   6.983 -0.1753  0.2742 -0.0538
 8678SOL    HW130076   2.026   0.545   7.027 -1.3039  0.4134 -1.9879
 8678SOL    HW230077   2.142   0.577   6.936 -0.2452 -0.2170 -0.8894
 8679SOL     OW30078   2.076   9.898   0.578  0.0911 -0.2317  0.3811
 8679SOL    HW130079   2.145   9.854   0.528  0.6439  0.2277  0.7127
 8679SOL    HW230080   2.113   9.984   0.597  0.1166 -0.5655  2.0074
 8680SOL     OW30081   3.482   9.306   6.368  0.1415  0.0608 -0.0754
 8680SOL    HW130082   3.509   9.308   6.460  0.9628 -1.2709 -0.2551
 8680SOL    HW230083   3.387   9.292   6.372  0.1405  0.1964  0.5652
 8681SOL     OW30084   8.368  10.238   1.521  0.1090 -0.5728  0.2238
 8681SOL    HW130085   8.422  10.317   1.528  0.3879 -0.8286  1.0139
 8681SOL    HW230086   8.419  10.170   1.565  0.0299 -1.2873 -0.7498
 8682SOL     OW30087   6.234   3.298   0.528  0.4162 -0.0626 -0.2301
 8682SOL    HW130088   6.282   3.216   0.537  2.9373  1.3402  0.1493
 8682SOL    HW230089   6.302   3.364   0.515 -1.4202  2.1596  0.7201
 8683SOL     OW30090   4.231   7.803   6.556 -0.6137  0.6231 -0.3385
 8683SOL    HW130091   4.171   7.872   6.586 -1.0488  0.0274  0.1975
 8683SOL    HW230092   4.186   7.763   6.482 -0.7684  0.3301 -0.0857
 8684SOL     OW30093   7.272   3.114   2.092  0.4059  0.5254 -0.1467
 8684SOL    HW130094   7.178   3.110   2.075  0.7519 -0.7814 -2.0271
 8684SOL    HW230095   7.285   3.056   2.167 -0.3442  1.2606  0.5791
 8685SOL     OW30096   9.137   2.410   0.103 -0.0381 -0.0780  0.1942
 8685SOL    HW130097   9.215   2.405   0.048 -0.7998 -0.6145 -0.8676
 8685SOL    HW230098   9.170   2.422   0.192  1.2426 -0.3761 -0.2357
 8686SOL     OW30099   2.714   2.472   2.095  0.6812  0.0738  0.3360
 8686SOL    HW130100   2.627   2.512   2.110  1.0877  1.0046  0.3105
 8686SOL    HW230101   2.699   2.408   2.026  0.3688  1.6870 -1.1959
 8687SOL     OW30102   1.337   4.892   4.273  0.4385  0.5702 -0.0575
 8687SOL    HW130103   1.277   4.854   4.337  0.4964  0.1030 -0.2771
 8687SOL    HW230104   1.422   4.892   4.318  0.4957  0.1647 -0.1589
 8688SOL     OW30105   3.855   2.114   8.948 -0.1681 -0.1074  0.8157
 8688SOL    HW130106   3.800   2.037   8.963  0.2763 -0.1621  2.2528
 8688SOL    HW230107   3.944   2.083   8.966  0.1140  0.5074  0.4809
 8689SOL     OW30108   8.562   1.214   6.744 -0.0713 -0.2383  0.4374
 8689SOL    HW130109   8.656   1.203   6.762  0.1737 -0.1787 -0.7734
 8689SOL    HW230110   8.554   1.207   6.649 -1.2099  0.4534  0.4624
 8690SOL     OW30111   3.135   1.983   3.627  0.1815  0.1637  0.4590
 8690SOL    HW130112   3.219   1.992   3.583 -0.4778 -0.0522 -0.8729
 8690SOL    HW230113   3.154   1.929   3.704  1.6435  1.8502  1.3620
 8691SOL     OW30114   5.470   3.338   0.772  0.6586 -0.1451  0.5454
 8691SOL    HW130115   5.508   3.341   0.860 -1.7117 -1.0008  1.6867
 8691SOL    HW230116   5.428   3.253   0.766 -1.4119  0.8596 -0.4105
 8692SOL     OW30117   1.417   7.814   8.276  0.6964 -0.2603 -1.4288
 8692SOL    HW130118   1.367   7.878   8.226  1.7186  0.5252 -1.5007
 8692SOL    HW230119   1.424   7.738   8.219  0.0611 -0.1765 -1.6271
 8693SOL     OW30120   5.691   3.977   3.596 -0.1630  0.1562 -0.4315
 8693SOL    HW130121   5.717   4.002   3.508 -0.1389  0.3103 -0.3800
 8693SOL    HW230122   5.745   3.900   3.616  1.6477  1.5656  0.3916
 8694SOL     OW30123   4.734   5.650   3.277 -0.3773  0.2312 -0.1220
 8694SOL    HW130124   4.792   5.707   3.326 -0.3123 -0.2598  0.3833
 8694SOL    HW230125   4.667   5.709   3.242  0.5565  0.8365 -0.9392
 8695SOL     OW30126   5.918   0.496   7.991 -0.2916  0.0798 -0.2427
 8695SOL    HW130127   5.963   0.460   8.067  0.3076 -0.1427 -0.6903
 8695SOL    HW230128   5.946   0.441   7.918 -0.4291  0.6198 -0.7131
 8696SOL     OW30129   5.485   1.269   6.946 -0.1274  0.0518  0.1017
 8696SOL    HW130130   5.402   1.318   6.950 -1.4142 -2.0305  0.7410
 8696SOL    HW230131   5.487   1.232   6.858  0.2104  0.2189  0.0374
 8697SOL     OW30132   0.246   5.663   3.538  0.2924 -0.0839 -0.8378
 8697SOL    HW130133   0.191   5.683   3.614 -1.3228  0.0675 -2.0058
 8697SOL    HW230134   0.257   5.568   3.542 -1.7470 -0.4068 -1.6419
 8698SOL     OW30135   7.111   1.679   9.358  0.3436 -0.2174 -0.5735
 8698SOL    HW130136   7.159   1.759   9.380  1.1878 -1.1828  1.4017
 8698SOL    HW230137   7.142   1.654   9.271  0.7767  1.0736 -0.8033
 8699SOL     OW30138   7.855   8.878   1.500 -0.1722 -0.2604  0.1656
 8699SOL    HW130139   7.768   8.854   1.467  0.1391 -0.6704 -0.3762
 8699SOL    HW230140   7.906   8.898   1.421  0.0285  0.6575  0.5229
 8700SOL     OW30141   7.409   5.387   9.846 -0.4690  0.1604  0.0203
 8700SOL    HW130142   7.351   5.393   9.922 -0.9466  1.3038 -0.4056
 8700SOL    HW230143   7.366   5.440   9.779  1.4158  1.6162 -0.1101
 8701SOL     OW30144   3.482   0.110   7.989 -0.3038 -0.5594 -0.2113
 8701SOL    HW130145   3.426   0.119   8.067  0.9469 -1.1670  0.7971
 8701SOL    HW230146   3.442   0.167   7.924 -2.2209 -1.1215  0.3937
 8702SOL     OW30147   6.058   7.281   4.590  0.2042  0.8245  0.7732
 8702SOL    HW130148   6.022   7.220   4.525  1.7439 -0.4259  1.0183
 8702SOL    HW230149   5.981   7.314   4.637 -0.7354 -0.6172  0.3415
 8703SOL     OW30150   1.090   2.000   2.964 -0.1081  0.3963 -0.1648
 8703SOL    HW130151   1.168   1.989   2.909  0.2284  1.0053  0.1777
 8703SOL    HW230152   1.023   1.947   2.921  0.4731 -0.0765 -0.5090
 8704SOL     OW30153   6.281   2.272   8.384  0.0942  0.1705 -0.6052
 8704SOL    HW130154   6.223   2.205   8.350  0.1082 -0.0216 -0.2625
 8704SOL    HW230155   6.296   2.247   8.475  0.8410  0.1214 -0.7294
 8705SOL     OW30156   8.103   1.611   8.424  0.3789  0.0463  0.3177
 8705SOL    HW130157   8.146   1.660   8.355 -0.8425  0.0101 -0.5001
 8705SOL    HW230158   8.173   1.587   8.484  1.8772 -1.8241 -2.0073
 8706SOL     OW30159   9.736   9.404   0.890 -0.1211 -0.0234 -0.0668
 8706SOL    HW130160   9.703   9.436   0.806 -0.4257 -2.1673 -0.8335
 8706SOL    HW230161   9.803   9.468   0.915 -1.7850  2.0571 -0.6232
 8707SOL     OW30162   3.640   1.519   0.797  0.2778  0.2235  0.9422
 8707SOL    HW130163   3.588   1.455   0.747  2.1168 -0.1538 -0.6414
 8707SOL    HW230164   3.640   1.485   0.886 -1.4049 -0.2332  0.8039
 8708SOL     OW30165   5.050   7.732   2.525 -0.1702  0.1422  0.9599
 8708SOL    HW130166   5.131   7.747   2.476  0.1030 -0.3984  1.2389
 8708SOL    HW230167   5.079   7.709   2.613 -0.6063 -0.6978  0.8941
 8709SOL     OW30168   9.221   4.102   0.928 -0.8069 -0.0883 -0.0068
 8709SOL    HW130169   9.308   4.071   0.902 -1.2000 -2.0948  0.8791
 8709SOL    HW230170   9.214   4.080   1.021 -2.0142  0.6731  0.1066
 8710SOL     OW30171   4.326   1.962  10.177 -0.1349 -0.1688  0.1542
 8710SOL    HW130172   4.316   1.935  10.268 -1.3838  0.6120  0.2628
 8710SOL    HW230173   4.400   1.910  10.145 -0.4433 -1.3309  1.2619
 8711SOL     OW30174   4.212   8.728   4.092 -0.6660 -0.0225 -0.3128
 8711SOL    HW130175   4.281   8.673   4.055  0.9769  0.9291  1.1805
 8711SOL    HW230176   4.229   8.728   4.186 -3.1716 -0.3281  0.1940
 8712SOL     OW30177   2.131   9.468   4.780 -0.4751 -0.2055 -0.1216
 8712SOL    HW130178   2.180   9.452   4.700  1.3280  0.7409  0.7306
 8712SOL    HW230179   2.124   9.564   4.785  2.2456  0.0310  2.3329
 8713SOL     OW30180  10.008   7.390  10.037 -0.3972 -0.2453 -0.5177
 8713SOL    HW130181  10.052   7.373  10.120  0.6814  0.9307 -0.8072
 8713SOL    HW230182  10.019   7.484  10.023 -2.0298 -0.1191 -1.1808
 8714SOL     OW30183   2.729   4.964   7.118 -0.3143 -0.1438  0.3193
 8714SOL    HW130184   2.812   4.991   7.078 -0.4579  1.2183  0.9107
 8714SOL    HW230185   2.733   4.868   7.117  0.6248 -0.1220 -0.9737
 8715SOL     OW30186   7.917   7.482   9.922 -0.2195  0.9979 -0.3577
 8715SOL    HW130187   7.924   7.517  10.011 -1.6057  0.0704  0.1333
 8715SOL    HW230188   7.836   7.520   9.887 -0.8935 -0.4260 -0.3890
 8716SOL     OW30189   8.664   3.427   0.435  0.1322  0.0358 -0.3761
 8716SOL    HW130190   8.656   3.520   0.411 -2.3149 -0.3767 -1.4246
 8716SOL    HW230191   8.714   3.428   0.516  1.1350  2.1807 -0.9568
 8717SOL     OW30192   5.017   1.897  10.150  0.0647 -0.3897  0.0247
 8717SOL    HW130193   4.953   1.953  10.195 -0.3803 -0.4759 -0.4803
 8717SOL    HW230194   5.033   1.942  10.067 -0.0805 -0.8608 -0.2633
 8718SOL     OW30195   1.201   7.595   9.912 -0.9512  0.0615  0.1899
 8718SOL    HW130196   1.232   7.609  10.002 -1.9012 -1.2789  0.7620
 8718SOL    HW230197   1.236   7.669   9.863  1.5051 -0.3384  1.1750
 8719SOL     OW30198   5.693   2.472   4.087  0.3773 -0.5571  0.1514
 8719SOL    HW130199   5.743   2.443   4.011  0.3134  1.6939 -0.8539
 8719SOL    HW230200   5.612   2.421   4.083  0.3588 -0.4637 -1.3412
 8720SOL     OW30201   0.242  10.291   5.533  0.0043  0.4301 -0.0831
 8720SOL    HW130202   0.330  10.327   5.523  0.4774 -0.7142 -0.2269
 8720SOL    HW230203   0.246  10.205   5.490 -1.4552  0.7559 -0.9561
 8721SOL     OW30204   9.979   6.213   6.106  0.3693 -0.4026  0.1933
 8721SOL    HW130205   9.947   6.197   6.017 -0.1602 -0.6106  0.4191
 8721SOL    HW230206  10.060   6.163   6.111 -0.1325 -1.2497  0.1626
 8722SOL     OW30207   3.413   9.094   4.196  0.5054 -0.0304  0.0660
 8722SOL    HW130208   3.498   9.068   4.159  0.4312 -1.6000  0.9015
 8722SOL    HW230209   3.433   9.172   4.247  1.2043  0.3203 -0.7021
 8723SOL     OW30210   9.071   4.232   9.403  0.0257 -0.7452 -0.0372
 8723SOL    HW130211   9.085   4.242   9.309 -3.8408 -1.6997 -0.8931
 8723SOL    HW230212   9.143   4.176   9.432  1.5758 -0.0646 -2.2726
 8724SOL     OW30213   4.835   2.027   7.273  0.1087  0.5161  0.5576
 8724SOL    HW130214   4.909   2.049   7.216  0.8198 -1.5681  0.5977
 8724SOL    HW230215   4.869   1.959   7.332 -1.7968 -0.4815  0.5911
 8725SOL     OW30216   1.803   2.999   0.722 -0.0108 -0.0023 -0.8389
 8725SOL    HW130217   1.741   3.048   0.776  0.0505 -0.7648 -0.0596
 8725SOL    HW230218   1.822   2.920   0.773  1.1709 -0.0420 -1.3162
 8726SOL     OW30219   8.659   1.993   5.688 -0.0740 -0.0016 -0.8710
 8726SOL    HW130220   8.666   2.041   5.605  1.3170  0.4207 -0.5543
 8726SOL    HW230221   8.692   1.906   5.668  0.1599  0.0680 -0.7947
 8727SOL     OW30222   4.375   7.854   1.402 -0.0207  0.1573 -0.6361
 8727SOL    HW130223   4.434   7.797   1.352  0.4510 -0.5384  0.6660
 8727SOL    HW230224   4.288   7.835   1.366  0.1416 -1.2870 -0.3449
 8728SOL     OW30225   2.905   3.874   9.818 -0.7470 -0.2877 -0.8353
 8728SOL    HW130226   2.888   3.800   9.877  1.3610 -0.2072 -0.0311
 8728SOL    HW230227   2.892   3.838   9.730  0.2016 -1.6396 -0.4595
 8729SOL     OW30228   8.171   5.500   0.650 -0.4652  0.6100  0.2370
 8729SOL    HW130229   8.202   5.590   0.657  0.8638  0.2622 -0.6955
 8729SOL    HW230230   8.091   5.506   0.598 -0.4470  1.2707  0.2809
 8730SOL     OW30231   1.946   5.049   6.079  0.3192  0.2697 -0.4926
 8730SOL    HW130232   1.934   5.013   6.167 -0.3983  0.2517 -0.5907
 8730SOL    HW230233   1.959   5.142   6.093 -0.8624  0.4371 -0.4253
 8731SOL     OW30234   8.250   8.792   1.765 -0.2647  0.6222 -0.2907
 8731SOL    HW130235   8.267   8.871   1.713 -2.4281  0.2960 -1.5880
 8731SOL    HW230236   8.235   8.826   1.854 -2.4876  1.8818 -1.0744
 8732SOL     OW30237   6.941   5.480   4.331  0.0987 -0.3595  0.6262
 8732SOL    HW130238   7.026   5.435   4.335  0.0331 -0.6491 -0.6906
 8732SOL    HW230239   6.962   5.571   4.350  1.0965 -0.0212 -1.7377
 8733SOL     OW30240   9.838   2.467   6.710 -0.0316  0.3015  0.4178
 8733SOL    HW130241   9.927   2.432   6.701 -0.5498 -0.5818 -1.9505
 8733SOL    HW230242   9.815   2.497   6.622 -2.8645 -1.5198  0.3868
 8734SOL     OW30243   0.277   9.309   1.779  0.2034  0.4423 -0.4547
 8734SOL    HW130244   0.356   9.282   1.826  0.0426 -1.6000 -1.2625
 8734SOL    HW230245   0.308   9.372   1.714  1.4087 -1.1406 -1.4973
 8735SOL     OW30246   4.456   2.699   2.328 -0.1811 -0.1167  0.3528
 8735SOL    HW130247   4.449   2.616   2.375 -0.8170  0.8590  2.0636
 8735SOL    HW230248   4.374   2.745   2.346 -0.0825  0.6820 -1.0220
 8736SOL     OW30249   4.983   0.646   8.491  0.1927  0.2811  0.3297
 8736SOL    HW130250   5.047   0.577   8.475  1.2509  1.3556 -0.2483
 8736SOL    HW230251   4.971   0.645   8.586 -0.1014 -0.9361  0.2918
 8737SOL     OW30252   9.911   2.039   5.356  0.2432 -1.1661  0.9377
 8737SOL    HW130253   9.893   2.110   5.295 -1.6064 -2.3534  0.0260
 8737SOL    HW230254   9.985   1.993   5.318  0.7214 -0.4292  0.9468
 8738SOL     OW30255   9.175   4.088   3.056 -0.0234  0.0199 -0.4397
 8738SOL    HW130256   9.126   4.170   3.064 -0.4021 -0.2141 -0.3396
 8738SOL    HW230257   9.253   4.101   3.110  0.1607  0.4943 -0.8132
 8739SOL     OW30258   9.664   7.348   6.675 -0.1202 -0.1904  0.5498
 8739SOL    HW130259   9.661   7.302   6.759  0.4151 -1.3458 -0.0333
 8739SOL    HW230260   9.662   7.441   6.698 -0.4140 -0.4892  1.8127
 8740SOL     OW30261   0.640   3.684   1.432  0.6960 -0.2735 -0.5214
 8740SOL    HW130262   0.546   3.664   1.432  0.9208 -1.4130  0.4452
 8740SOL    HW230263   0.644   3.779   1.443 -0.3340 -0.2196 -0.4832
 8741SOL     OW30264   1.547   4.630   1.472  0.5693  0.1066  0.5932
 8741SOL    HW130265   1.477   4.631   1.407 -0.0835 -0.1029  1.2788
 8741SOL    HW230266   1.553   4.538   1.499 -0.2260  0.4151  1.9331
 8742SOL     OW30267   3.309   1.461   9.147 -0.1947 -0.5992  0.2231
 8742SOL    HW130268   3.323   1.486   9.238 -0.5748 -0.3433  0.2100
 8742SOL    HW230269   3.218   1.484   9.129  0.8033  2.7160 -1.2659
 8743SOL     OW30270   8.469   8.588   5.350  0.2082  0.1363 -0.6714
 8743SOL    HW130271   8.386   8.566   5.392  0.2577 -0.3670 -0.8222
 8743SOL    HW230272   8.478   8.682   5.361 -0.9315  0.3780 -1.6130
 8744SOL     OW30273  10.159   6.479   6.116 -0.1296  0.0798 -0.8456
 8744SOL    HW130274  10.165   6.410   6.049  0.5726  1.1297 -1.8958
 8744SOL    HW230275  10.074   6.519   6.101 -0.9481 -1.1262  0.3709
 8745SOL     OW30276   2.261   0.079   6.072  0.0408  0.3263  0.1787
 8745SOL    HW130277   2.352   0.110   6.071 -0.0523  0.6131  0.4853
 8745SOL    HW230278   2.222   0.122   6.148 -0.1761 -0.3060  0.4325
 8746SOL     OW30279   7.995   9.364   6.105 -0.0521  0.5084  0.3734
 8746SOL    HW130280   8.065   9.423   6.077  0.1693 -0.4949 -1.3435
 8746SOL    HW230281   7.974   9.313   6.026 -0.8513 -1.0780  1.5635
 8747SOL     OW30282   4.116   3.876   8.567 -0.3022 -0.3588 -0.3094
 8747SOL    HW130283   4.195   3.860   8.618  1.2163  2.2774 -1.6341
 8747SOL    HW230284   4.060   3.929   8.624  0.2660  0.4188 -0.4710
 8748SOL     OW30285   0.795   3.260   2.216  0.8618 -0.1401  0.5083
 8748SOL    HW130286   0.861   3.280   2.283  2.0115  0.8911 -0.8940
 8748SOL    HW230287   0.815   3.319   2.144 -1.2150 -0.2618 -0.2233
 8749SOL     OW30288   2.967   3.700   9.250 -0.7443 -0.4828  0.2039
 8749SOL    HW130289   3.018   3.718   9.329  1.3099 -0.8039 -0.9532
 8749SOL    HW230290   3.007   3.621   9.214 -3.9850 -2.4927  0.6801
 8750SOL     OW30291   0.960   4.703   0.806 -0.0165 -0.4470  0.1655
 8750SOL    HW130292   0.955   4.632   0.742  0.9063  0.9773 -1.5935
 8750SOL    HW230293   0.872   4.741   0.805  0.3183  0.3867 -1.3336
 8751SOL     OW30294   1.351   3.188   9.256 -0.5478  0.1483 -0.5965
 8751SOL    HW130295   1.420   3.197   9.322 -0.5488  2.9551 -0.8389
 8751SOL    HW230296   1.310   3.104   9.275  3.5358 -2.1808 -1.0907
 8752SOL     OW30297   8.961   5.742   8.988 -0.1962 -0.4200 -0.2662
 8752SOL    HW130298   8.991   5.825   9.025  0.1300 -0.7348  0.1934
 8752SOL    HW230299   8.866   5.744   8.997 -0.2154  0.0510 -0.5782
 8753SOL     OW30300   4.438   7.298   5.657 -0.6876  0.4125 -0.3187
 8753SOL    HW130301   4.443   7.279   5.563  1.2111 -2.0904  0.1467
 8753SOL    HW230302   4.356   7.257   5.685  0.3878 -1.9842 -0.4040
 8754SOL     OW30303   8.395   6.330   1.217  0.1404 -0.2836 -0.0755
 8754SOL    HW130304   8.452   6.270   1.266  1.9298  0.1845 -1.4693
 8754SOL    HW230305   8.430   6.330   1.128 -1.1206  1.2179 -0.6279
 8755SOL     OW30306   6.577   1.223   2.651  0.1888  0.6788  0.0142
 8755SOL    HW130307   6.536   1.196   2.569  1.0315  0.8185 -0.4695
 8755SOL    HW230308   6.545   1.311   2.667  0.3188  0.7953 -0.3708
 8756SOL     OW30309  10.034   2.241   2.063 -0.0028 -0.4497 -0.3650
 8756SOL    HW130310   9.988   2.290   1.995  0.4829 -1.3328 -1.3598
 8756SOL    HW230311  10.029   2.297   2.141  1.8568  1.9698 -1.8174
 8757SOL     OW30312   3.425   4.419   2.933 -0.6430 -0.7787 -0.0879
 8757SOL    HW130313   3.486   4.448   2.865 -0.2263 -0.1882  0.5248
 8757SOL    HW230314   3.475   4.360   2.988 -0.7466 -0.6401  0.1584
 8758SOL     OW30315   1.732   1.875   1.881  0.0489 -0.0733 -0.4093
 8758SOL    HW130316   1.662   1.904   1.822 -0.1784 -0.2482 -0.2284
 8758SOL    HW230317   1.756   1.788   1.849  1.4639  0.7099 -1.6066
 8759SOL     OW30318  10.111   9.924   9.563  0.0542  0.4823 -0.5891
 8759SOL    HW130319  10.042   9.923   9.630  0.8845 -0.7094  0.2999
 8759SOL    HW230320  10.187   9.960   9.608  0.2792  0.8588 -1.2689
 8760SOL     OW30321   3.918  10.030  10.164 -0.6606  0.3759  0.5649
 8760SOL    HW130322   3.826  10.027  10.190 -1.1349 -2.1298 -1.0315
 8760SOL    HW230323   3.921   9.982  10.081  1.9870  1.0833  0.1438
 8761SOL     OW30324  10.050   6.788   2.858  0.4647  0.2601 -0.7305
 8761SOL    HW130325   9.959   6.818   2.860  0.5811  0.6035  0.7567
 8761SOL    HW230326  10.100   6.863   2.891  1.0250 -0.6940  0.6688
 8762SOL     OW30327   6.297   8.520   0.223 -0.0494  0.0102  0.1679
 8762SOL    HW130328   6.338   8.435   0.241  2.2798  0.6828 -1.4996
 8762SOL    HW230329   6.270   8.515   0.132 -0.1798  0.9683  0.1446
 8763SOL     OW30330   4.956   9.325   4.068 -0.5232  0.0536  0.4740
 8763SOL    HW130331   4.982   9.233   4.072 -3.0115 -0.7192  0.5036
 8763SOL    HW230332   4.940   9.351   4.159 -0.4251  0.3168  0.4181
 8764SOL     OW30333   8.213   5.806   2.190 -0.5518  0.1163  0.3292
 8764SOL    HW130334   8.275   5.846   2.129 -0.3802 -1.9904 -0.9778
 8764SOL    HW230335   8.152   5.758   2.135 -1.4859 -0.4018  1.7434
 8765SOL     OW30336   9.962   9.106   9.361 -0.1188  0.1057 -0.1862
 8765SOL    HW130337   9.958   9.201   9.372  0.0433  0.0994 -0.0543
 8765SOL    HW230338   9.875   9.082   9.331  0.4028  0.5216 -2.1421
 8766SOL     OW30339   7.583   6.319   5.344 -0.3944  0.2933  0.1144
 8766SOL    HW130340   7.522   6.392   5.335 -0.1248  0.7047  1.4210
 8766SOL    HW230341   7.581   6.298   5.437  0.9426 -0.1491  0.0562
 8767SOL     OW30342   7.575   6.118   6.478  0.8029  0.2253  0.2859
 8767SOL    HW130343   7.506   6.183   6.491 -0.9433 -1.2930 -0.8300
 8767SOL    HW230344   7.570   6.062   6.556  0.1934 -0.3537 -0.1564
 8768SOL     OW30345   9.974   0.938   4.766  0.2086  0.5725  0.5043
 8768SOL    HW130346   9.912   0.996   4.724  0.3631 -0.2571 -0.9399
 8768SOL    HW230347   9.923   0.860   4.789  0.7308 -0.2441 -0.9772
 8769SOL     OW30348   5.470   9.448   6.891  0.1596 -0.0140 -0.0295
 8769SOL    HW130349   5.434   9.424   6.806  0.1463 -2.8422  0.6601
 8769SOL    HW230350   5.557   9.406   6.893 -0.6219 -1.7208  2.0166
 8770SOL     OW30351   8.806   7.776   7.548 -0.4652 -0.1605  0.3453
 8770SOL    HW130352   8.753   7.852   7.573 -0.4122  1.0658 -2.8695
 8770SOL    HW230353   8.890   7.813   7.521 -0.3131 -1.3682 -0.9649
 8771SOL     OW30354   3.886   9.850   1.223 -0.1854 -0.6552 -0.5025
 8771SOL    HW130355   3.855   9.761   1.237 -0.6840 -0.5312 -0.7951
 8771SOL    HW230356   3.854   9.873   1.136 -2.5656  0.8133  0.6365
 8772SOL     OW30357   9.532   2.817   6.538  0.0197  0.0189  0.0085
 8772SOL    HW130358   9.465   2.748   6.534 -1.8105  1.6530  0.6587
 8772SOL    HW230359   9.519   2.859   6.623  0.9623  1.2776 -0.4368
 8773SOL     OW30360   5.593   0.572   5.550 -0.2055 -0.1291  0.5420
 8773SOL    HW130361   5.530   0.643   5.555  0.0489  0.4708 -2.7517
 8773SOL    HW230362   5.676   0.614   5.529  0.5846 -1.1851  1.4307
 8774SOL     OW30363   5.842   5.090   3.163 -0.3276 -0.0866  0.2144
 8774SOL    HW130364   5.783   5.140   3.108  2.2992 -0.1460 -2.9528
 8774SOL    HW230365   5.788   5.064   3.238 -3.7095  1.4084 -1.4679
 8775SOL     OW30366   9.003   4.345   3.675  0.4796  0.5575 -0.0413
 8775SOL    HW130367   9.042   4.369   3.591 -0.4769  0.6093 -0.4833
 8775SOL    HW230368   8.980   4.253   3.665  3.4792 -0.4900  1.3957
 8776SOL     OW30369   1.059  10.285   0.319  0.3145  0.0290 -0.0241
 8776SOL    HW130370   1.111  10.214   0.282 -0.4463  1.1731 -3.7857
 8776SOL    HW230371   0.972  10.247   0.331 -0.1798  0.2711 -2.3452
 8777SOL     OW30372   4.222   0.391   4.013 -0.2665 -0.3118  0.4705
 8777SOL    HW130373   4.238   0.428   4.100  1.1687  0.1482  0.0346
 8777SOL    HW230374   4.176   0.309   4.031  2.1703 -1.4949  1.8514
 8778SOL     OW30375   9.924   0.777   3.898  0.0926  0.0441 -0.2324
 8778SOL    HW130376   9.899   0.839   3.967 -0.2764 -1.7359  1.3053
 8778SOL    HW230377  10.015   0.799   3.877 -0.6466  2.4811 -1.3355
 8779SOL     OW30378   6.026   5.412   7.836  0.8139  0.0571 -0.6446
 8779SOL    HW130379   5.938   5.412   7.874  1.2689 -1.0470  0.4747
 8779SOL    HW230380   6.017   5.366   7.753  0.3465 -0.0982 -0.5115
 8780SOL     OW30381   1.035   8.239   7.375 -0.1927  0.3575 -0.0348
 8780SOL    HW130382   1.097   8.307   7.399  0.4609  0.0922 -0.9111
 8780SOL    HW230383   1.016   8.193   7.457  0.2713  0.8446  0.3491
 8781SOL     OW30384   8.963   8.491   9.762  0.1393 -0.1996 -0.0153
 8781SOL    HW130385   9.002   8.558   9.705 -1.2411  0.3910 -0.3036
 8781SOL    HW230386   9.005   8.505   9.847  0.9653  0.0339 -0.4513
 8782SOL     OW30387   8.528   2.612   2.423  0.0143  0.1756 -0.3141
 8782SOL    HW130388   8.593   2.656   2.478  1.5430 -0.1081 -1.8305
 8782SOL    HW230389   8.569   2.530   2.397 -0.5032  0.4426 -2.1441
 8783SOL     OW30390   5.019   8.020   8.216  0.2097 -0.5271  0.3093
 8783SOL    HW130391   5.033   7.978   8.131  0.1331 -1.7050  0.8522
 8783SOL    HW230392   5.017   8.114   8.197 -1.2022 -0.8218 -1.1862
 8784SOL     OW30393   7.740   9.967   5.212  0.1560 -0.2106  0.0724
 8784SOL    HW130394   7.644   9.973   5.216  0.0551 -1.5294  0.1095
 8784SOL    HW230395   7.768   9.965   5.303  0.3147  1.0798  0.0773
 8785SOL     OW30396   0.324   1.206   3.602  0.2644 -0.5365  0.1835
 8785SOL    HW130397   0.309   1.257   3.682  1.1715 -1.8537  1.2350
 8785SOL    HW230398   0.240   1.210   3.555 -0.9506 -1.3532  2.1469
 8786SOL     OW30399   7.465   9.256   2.316  0.3439 -0.3911  0.2127
 8786SOL    HW130400   7.423   9.263   2.402 -0.3922  1.3233 -0.2402
 8786SOL    HW230401   7.555   9.229   2.335  0.2507  0.1714  1.5524
 8787SOL     OW30402   6.811   1.482   0.314 -0.1763 -0.4771 -0.6529
 8787SOL    HW130403   6.889   1.493   0.368 -0.0946 -0.5717 -0.7514
 8787SOL    HW230404   6.830   1.530   0.233  0.0419 -1.0355 -0.9429
 8788SOL     OW30405   0.470   7.744   1.145 -0.0054 -0.4535 -0.1241
 8788SOL    HW130406   0.534   7.674   1.158  0.0170 -0.3525  0.3204
 8788SOL    HW230407   0.419   7.716   1.070 -2.8461 -3.1113  2.5074
 8789SOL     OW30408   6.876   9.152   4.003  0.8363 -0.3985  0.2064
 8789SOL    HW130409   6.850   9.227   4.057  0.4460 -0.7423  0.4944
 8789SOL    HW230410   6.868   9.076   4.060  1.7366 -0.6087  0.0716
 8790SOL     OW30411   4.054   9.172   4.908 -0.0401  0.0599 -0.2910
 8790SOL    HW130412   4.009   9.096   4.873  0.5357 -0.2673 -0.3337
 8790SOL    HW230413   4.083   9.221   4.830  1.2586 -0.6786 -0.3070
 8791SOL     OW30414   8.959   2.603   5.160  0.1158 -0.1436 -0.0508
 8791SOL    HW130415   8.930   2.608   5.069  1.8306  0.6291 -0.5871
 8791SOL    HW230416   8.881   2.624   5.211 -0.9269 -0.8109 -1.3193
 8792SOL     OW30417   6.796   4.136   5.626  0.0661  0.1286  0.2074
 8792SOL    HW130418   6.877   4.087   5.612  0.0798 -0.5398  2.2599
 8792SOL    HW230419   6.727   4.070   5.626 -0.4963  0.6713 -1.3208
 8793SOL     OW30420   5.516   7.456   1.048 -0.0377 -0.8918 -0.4300
 8793SOL    HW130421   5.528   7.362   1.038 -1.5349 -0.9568 -2.1382
 8793SOL    HW230422   5.475   7.484   0.966 -0.1913  1.1396  0.2858
 8794SOL     OW30423   1.516   3.716   4.435  0.2331  0.1980 -0.0014
 8794SOL    HW130424   1.590   3.777   4.435  0.7172 -0.3821 -0.0001
 8794SOL    HW230425   1.533   3.658   4.509 -0.4605  0.3381  0.2768
 8795SOL     OW30426   8.747   7.646   8.465 -0.6821  0.3431 -0.0769
 8795SOL    HW130427   8.678   7.661   8.400 -0.9812  0.6902  0.3149
 8795SOL    HW230428   8.729   7.710   8.533 -1.2966 -1.0403  1.1099
 8796SOL     OW30429   9.317   5.258   6.514 -0.2775 -0.0340 -0.8490
 8796SOL    HW130430   9.378   5.234   6.444 -0.2262  1.2895 -1.2730
 8796SOL    HW230431   9.241   5.202   6.499  1.2495 -2.6615  0.4377
 8797SOL     OW30432   4.092   4.045   4.085 -0.3165  0.1392 -0.0341
 8797SOL    HW130433   4.080   4.004   3.999 -0.6350  1.4960 -0.6635
 8797SOL    HW230434   4.187   4.048   4.096 -0.2630  0.3252 -0.5206
 8798SOL     OW30435   2.596   0.506   8.410 -1.0032 -0.6755  0.1696
 8798SOL    HW130436   2.605   0.572   8.479  0.9118 -1.6118  0.8911
 8798SOL    HW230437   2.525   0.449   8.441 -0.2486 -1.0168  1.3561
 8799SOL     OW30438   3.271   2.779   1.060 -0.0132 -0.1006 -0.3631
 8799SOL    HW130439   3.329   2.769   0.985  1.2681  1.9234  0.2703
 8799SOL    HW230440   3.330   2.787   1.135 -1.2358 -1.3012  0.7816
 8800SOL     OW30441   9.329   9.099   8.024 -0.0994  0.5248  0.3000
 8800SOL    HW130442   9.337   9.011   8.060  3.2266  0.4131 -0.4443
 8800SOL    HW230443   9.387   9.152   8.078 -0.8909  1.9866 -0.2228
 8801SOL     OW30444   4.578   6.176   8.387 -0.1560  0.1102  0.4556
 8801SOL    HW130445   4.512   6.139   8.328  0.6139 -0.2367 -0.2085
 8801SOL    HW230446   4.570   6.124   8.467 -1.5780  0.9346  0.8895
 8802SOL     OW30447   6.832   2.152   7.457  0.2991  0.4483 -0.7349
 8802SOL    HW130448   6.799   2.177   7.543 -0.2727 -0.3748 -0.6972
 8802SOL    HW230449   6.913   2.104   7.476 -0.1236 -0.2286 -0.6045
 8803SOL     OW30450   5.727   9.646   9.790 -0.1520 -0.6286 -0.3418
 8803SOL    HW130451   5.750   9.561   9.751 -0.3923 -0.1545 -1.5506
 8803SOL    HW230452   5.800   9.703   9.769 -0.1003 -0.4633  0.2719
 8804SOL     OW30453   3.731   7.840   8.125 -0.6333  0.5151  0.2065
 8804SOL    HW130454   3.670   7.788   8.177 -0.5830 -1.1768 -1.3412
 8804SOL    HW230455   3.818   7.811   8.155 -0.5127  2.3417  1.8383
 8805SOL     OW30456   1.219  10.073   2.044 -0.0255  0.4255  0.1085
 8805SOL    HW130457   1.159  10.045   2.114  1.6262  1.3525  1.9930
 8805SOL    HW230458   1.195  10.163   2.025  0.5566  0.7014  0.6540
 8806SOL     OW30459   5.760   5.385   6.876  0.7085 -0.0992 -0.5740
 8806SOL    HW130460   5.763   5.385   6.972  0.9593  0.7363 -0.5736
 8806SOL    HW230461   5.851   5.376   6.848  0.5489 -1.3273 -0.7521
 8807SOL     OW30462   0.339   1.395   9.868  0.0593  0.1395 -0.0677
 8807SOL    HW130463   0.403   1.334   9.905  0.1728  0.3095  0.0125
 8807SOL    HW230464   0.265   1.339   9.844 -0.0801  0.0463  0.5608
 8808SOL     OW30465   0.501   4.326   6.626  0.8700  0.2960  0.0996
 8808SOL    HW130466   0.544   4.298   6.707 -1.5632 -0.5682  1.2066
 8808SOL    HW230467   0.465   4.246   6.589 -0.3983  1.0484 -0.3471
 8809SOL     OW30468   8.186  10.229   8.200 -0.2410 -0.2054 -0.2292
 8809SOL    HW130469   8.152  10.257   8.285  0.3787  0.2153 -0.1099
 8809SOL    HW230470   8.267  10.279   8.189  0.2478 -1.0481 -0.5764
 8810SOL     OW30471   2.006   7.713   4.720 -0.0165 -0.0492  0.0113
 8810SOL    HW130472   2.044   7.627   4.738  0.4072  0.3688  1.2062
 8810SOL    HW230473   1.989   7.750   4.806 -0.6712  0.8700 -0.4945
 8811SOL     OW30474  10.131   2.378   4.565 -0.6296 -0.5434 -0.4934
 8811SOL    HW130475  10.127   2.383   4.469  1.7426  0.5943 -0.6157
 8811SOL    HW230476  10.186   2.302   4.582  1.0898  0.7035 -0.1909
 8812SOL     OW30477   8.658   4.400   1.688  0.2114 -0.0515  0.3205
 8812SOL    HW130478   8.694   4.333   1.746 -1.7484  0.2406  1.9607
 8812SOL    HW230479   8.626   4.351   1.612 -1.2967 -1.0719  1.5367
 8813SOL     OW30480   3.429   9.018   6.237 -0.4021  0.5196 -0.3983
 8813SOL    HW130481   3.464   8.934   6.269  0.4430  0.7077 -0.8081
 8813SOL    HW230482   3.506   9.065   6.205 -0.7134  1.8934  0.7745
 8814SOL     OW30483   3.273   7.891   1.867 -0.2341 -0.4407  0.1915
 8814SOL    HW130484   3.252   7.857   1.780 -2.3392  0.5816  0.2307
 8814SOL    HW230485   3.347   7.949   1.852 -0.6673 -0.1539 -0.9846
 8815SOL     OW30486   1.557   0.213   5.543  0.2537  0.5541 -0.4914
 8815SOL    HW130487   1.524   0.123   5.543 -0.7390  0.9053  0.1484
 8815SOL    HW230488   1.501   0.259   5.481  1.7289  0.4150 -1.9871
 8816SOL     OW30489   5.051   1.095   0.649 -0.7251 -0.0999 -0.0853
 8816SOL    HW130490   5.094   1.180   0.637 -0.5286 -0.0495  0.9287
 8816SOL    HW230491   5.015   1.075   0.562  0.8254  0.1324 -0.8261
 8817SOL     OW30492   7.722   6.000   1.097 -0.6776 -0.2324 -0.3401
 8817SOL    HW130493   7.802   6.046   1.074 -1.8168  1.8252 -0.4416
 8817SOL    HW230494   7.740   5.908   1.077  1.2582  0.3308 -1.4099
 8818SOL     OW30495   3.327   7.039   5.446  0.9516  0.2925 -0.3618
 8818SOL    HW130496   3.365   6.952   5.457  0.3581  0.2380  1.7943
 8818SOL    HW230497   3.384   7.096   5.498 -0.2636  0.6800  0.5946
 8819SOL     OW30498   0.062   8.157   4.960 -0.5525  0.0558 -0.4754
 8819SOL    HW130499   0.148   8.163   5.004 -0.3103 -1.5477 -0.6763
 8819SOL    HW230500   0.080   8.182   4.870 -0.2294 -0.5099 -0.5753
 8820SOL     OW30501   1.623   7.701   9.695  0.3127 -0.1037 -0.5951
 8820SOL    HW130502   1.684   7.759   9.650 -0.7820  1.5556 -0.0057
 8820SOL    HW230503   1.679   7.641   9.745  1.4721 -0.0828 -1.8108
 8821SOL     OW30504   8.112   8.883   6.495  0.5987 -0.2206  0.2237
 8821SOL    HW130505   8.200   8.861   6.527  0.5249 -0.9202 -0.0351
 8821SOL    HW230506   8.068   8.798   6.488  0.5307 -0.0686 -1.4706
 8822SOL     OW30507   7.587   2.150   2.701 -0.5117  0.1491  0.4903
 8822SOL    HW130508   7.673   2.113   2.685 -1.0587 -1.4137  0.9379
 8822SOL    HW230509   7.552   2.099   2.774 -2.3153 -0.1201 -0.4894
 8823SOL     OW30510   4.668   6.059   1.864 -0.3198  0.0769 -0.4035
 8823SOL    HW130511   4.691   6.149   1.839 -0.5972  0.0783 -0.6476
 8823SOL    HW230512   4.712   6.047   1.948 -0.6882  0.6154 -0.1254
 8824SOL     OW30513   8.171   4.707   5.898  0.0391  0.7472 -0.0222
 8824SOL    HW130514   8.103   4.645   5.924  0.1985  0.1871 -0.8916
 8824SOL    HW230515   8.146   4.734   5.810  0.8855  0.6036 -0.3172
 8825SOL     OW30516   6.567   9.050   2.768 -0.0853  0.0419 -0.0584
 8825SOL    HW130517   6.590   8.959   2.749 -0.8669  0.0810 -1.3006
 8825SOL    HW230518   6.625   9.075   2.841  2.3737 -0.4719 -1.7067
 8826SOL     OW30519   2.807   1.849   2.685 -0.0576  0.1483  0.0914
 8826SOL    HW130520   2.870   1.828   2.753 -0.6914 -1.7267  0.1527
 8826SOL    HW230521   2.846   1.815   2.604 -0.2176  0.5207 -0.1455
 8827SOL     OW30522   5.075   1.134   9.679  0.5418 -0.0513 -0.0813
 8827SOL    HW130523   5.064   1.187   9.600 -3.3383 -2.2195 -1.2821
 8827SOL    HW230524   5.029   1.052   9.659 -1.2937 -0.4888  4.6158
 8828SOL     OW30525   1.977   7.789   6.566  0.4072 -0.2637 -0.4735
 8828SOL    HW130526   2.001   7.698   6.545  0.6739 -0.0982 -0.9205
 8828SOL    HW230527   1.921   7.816   6.493 -0.2775 -0.3034  0.0349
 8829SOL     OW30528   5.727   4.137   9.963 -0.5211 -0.2535  0.2975
 8829SOL    HW130529   5.779   4.214   9.940  2.3285 -2.3299 -0.7474
 8829SOL    HW230530   5.675   4.119   9.885 -0.4174  0.0415  0.1587
 8830SOL     OW30531   5.159   4.064   9.534 -0.0625  0.0568  0.3201
 8830SOL    HW130532   5.128   4.111   9.612 -1.8145  0.1530 -0.3830
 8830SOL    HW230533   5.229   4.118   9.500  0.0769  0.5129  1.2855
 8831SOL     OW30534   0.083   0.921   6.180  0.0301  0.0659  0.2780
 8831SOL    HW130535   0.159   0.971   6.151 -0.1586 -0.4539 -1.2143
 8831SOL    HW230536   0.086   0.925   6.275  1.9242  0.0638  0.2533
 8832SOL     OW30537   8.921   3.214   5.966  0.1537  0.1262 -0.1240
 8832SOL    HW130538   8.858   3.262   5.913 -1.4219  0.1013  1.6159
 8832SOL    HW230539   8.940   3.272   6.040 -0.3706 -1.1532  1.0583
 8833SOL     OW30540  10.215   8.260   8.713  0.0053 -0.0089  0.3703
 8833SOL    HW130541  10.121   8.258   8.693  0.1094 -1.5207 -0.1018
 8833SOL    HW230542  10.244   8.169   8.700  1.3624  0.2591  1.3462
 8834SOL     OW30543   0.730   6.257   4.151  0.2989  0.4412  0.3316
 8834SOL    HW130544   0.657   6.291   4.204  0.6054  0.0445  1.0255
 8834SOL    HW230545   0.695   6.180   4.107  0.1892  0.4641  0.3790
 8835SOL     OW30546   6.403   5.335   3.197 -0.0171 -0.0602 -0.1686
 8835SOL    HW130547   6.315   5.297   3.190  0.6273 -1.5622 -0.4723
 8835SOL    HW230548   6.458   5.262   3.223  1.2821  0.6779 -0.7696
 8836SOL     OW30549   6.365   4.177   7.601  0.1098  0.2974  0.0353
 8836SOL    HW130550   6.315   4.245   7.558  0.9103  1.0034  0.2008
 8836SOL    HW230551   6.417   4.223   7.667  0.3787 -0.5173  0.4104
 8837SOL     OW30552   4.097   9.027   1.297  0.3569  0.1469 -0.0866
 8837SOL    HW130553   4.017   8.986   1.330  1.0332 -1.6592 -0.5723
 8837SOL    HW230554   4.073   9.118   1.282 -1.3726 -0.1695  0.5535
 8838SOL     OW30555   0.236   4.813   1.852 -0.6081  0.0790  0.4608
 8838SOL    HW130556   0.317   4.849   1.817 -0.8440 -1.3131 -1.7412
 8838SOL    HW230557   0.185   4.889   1.880  1.0980  1.0215  1.1800
 8839SOL     OW30558   2.676   7.409   2.571 -0.3994 -0.6771  0.2357
 8839SOL    HW130559   2.673   7.320   2.535 -1.3867 -1.8679  3.0092
 8839SOL    HW230560   2.602   7.454   2.530 -0.1359 -1.2391 -0.9002
 8840SOL     OW30561   4.343   8.169  10.249  0.4391 -0.0718 -0.1686
 8840SOL    HW130562   4.356   8.080  10.216  1.3145 -0.5150  1.3110
 8840SOL    HW230563   4.356   8.162  10.343  0.4001  1.6081 -0.0145
 8841SOL     OW30564   1.304   3.477   8.128 -0.0823  0.3265  0.6136
 8841SOL    HW130565   1.380   3.516   8.085 -0.0346  0.0617  0.4574
 8841SOL    HW230566   1.232   3.491   8.068 -0.1131  0.3816  0.6639
 8842SOL     OW30567   8.707   8.769   3.985 -0.3604 -0.0078 -0.1358
 8842SOL    HW130568   8.753   8.698   4.030 -1.2258 -0.7410 -0.3799
 8842SOL    HW230569   8.632   8.789   4.041  0.7305  1.8595  0.7624
 8843SOL     OW30570   5.811   7.819   4.694  0.6428 -0.3412  0.5635
 8843SOL    HW130571   5.745   7.828   4.624 -0.2338 -1.5565  1.1990
 8843SOL    HW230572   5.894   7.813   4.648  0.1303 -0.6163 -0.3536
 8844SOL     OW30573   9.570   7.442   7.964 -0.5113  0.3530  0.2825
 8844SOL    HW130574   9.523   7.474   7.887  0.5716  1.8501  0.1967
 8844SOL    HW230575   9.503   7.399   8.017 -1.0089 -2.2097 -2.2152
 8845SOL     OW30576   5.490   6.534   2.883  0.2257 -0.0962  0.0874
 8845SOL    HW130577   5.415   6.582   2.848 -0.2788 -1.9005 -1.5128
 8845SOL    HW230578   5.504   6.570   2.970 -0.9018  2.0215 -0.5477
 8846SOL     OW30579   6.837   5.280   6.250  0.2471  0.6783 -0.1936
 8846SOL    HW130580   6.890   5.212   6.291 -1.3241 -0.3006  0.3165
 8846SOL    HW230581   6.877   5.295   6.165  1.0385 -0.3631 -0.0216
 8847SOL     OW30582   1.786   6.158   6.683 -0.3811  0.4076 -0.4264
 8847SOL    HW130583   1.779   6.251   6.661  1.9483 -0.0637 -4.0610
 8847SOL    HW230584   1.846   6.155   6.757 -0.6143  1.7943 -0.1637
 8848SOL     OW30585   7.784   9.073   0.230 -0.1561  0.0482  0.4481
 8848SOL    HW130586   7.723   9.000   0.241 -1.5453  1.0646 -0.0706
 8848SOL    HW230587   7.803   9.101   0.320 -0.1200 -0.5527  0.6323
 8849SOL     OW30588   6.906   5.363   5.170  0.0333  0.0658 -0.3948
 8849SOL    HW130589   6.980   5.304   5.185  0.4697  0.6982 -0.0154
 8849SOL    HW230590   6.894   5.408   5.253 -0.7336  0.0331 -0.4808
 8850SOL     OW30591   8.395   2.422   6.615  0.5632 -0.0390  0.1499
 8850SOL    HW130592   8.367   2.344   6.568 -0.4472 -0.8614  2.0004
 8850SOL    HW230593   8.365   2.495   6.560 -2.3901 -0.9271  0.3996
 8851SOL     OW30594   7.391   0.029   0.232  0.1451  0.3590 -0.0041
 8851SOL    HW130595   7.484   0.012   0.214  0.3074 -0.6899  1.5857
 8851SOL    HW230596   7.346  -0.050   0.202 -0.1793  0.6671 -0.3346
 8852SOL     OW30597   6.659  10.119   5.631  0.3300  0.1072  0.0601
 8852SOL    HW130598   6.753  10.139   5.638  0.4315 -0.2945 -0.1229
 8852SOL    HW230599   6.625  10.135   5.719  1.1571 -2.7061  0.9829
 8853SOL     OW30600   9.393   9.925   3.733 -0.3915  0.0921  0.2232
 8853SOL    HW130601   9.441   9.881   3.663 -1.2253  1.1082 -1.0367
 8853SOL    HW230602   9.308   9.880   3.735 -0.8259  0.8670 -0.2940
 8854SOL     OW30603   4.123   4.799   5.160  0.3720 -0.2039 -0.1822
 8854SOL    HW130604   4.042   4.761   5.123 -0.6252  1.3146  0.3763
 8854SOL    HW230605   4.158   4.852   5.089 -0.2909  0.8436  0.2530
 8855SOL     OW30606   1.637   0.819   5.409 -0.1751 -0.0492 -0.2075
 8855SOL    HW130607   1.718   0.855   5.445 -0.6355  0.6820  0.1251
 8855SOL    HW230608   1.568   0.874   5.446 -0.8122 -0.5497 -0.6295
 8856SOL     OW30609   6.275  10.168   4.890  0.3599 -0.0438  0.3435
 8856SOL    HW130610   6.196  10.220   4.876 -1.6131 -2.7153  0.6669
 8856SOL    HW230611   6.298  10.134   4.803  0.6227  0.0199  0.3870
 8857SOL     OW30612   6.255   6.732   8.543 -0.2572  0.0736  0.1792
 8857SOL    HW130613   6.327   6.777   8.588 -0.9785  0.2147  1.2447
 8857SOL    HW230614   6.207   6.688   8.614 -1.9179  0.9736 -0.3291
 8858SOL     OW30615   5.564   5.273   9.149  0.2454 -0.3130  0.1601
 8858SOL    HW130616   5.504   5.205   9.116  0.5115 -0.6186  0.3013
 8858SOL    HW230617   5.506   5.343   9.178  0.0218  0.3383 -1.7261
 8859SOL     OW30618   9.323   8.772   1.310  0.1747  0.2319  0.0121
 8859SOL    HW130619   9.326   8.854   1.261 -0.5781  0.8575  0.9794
 8859SOL    HW230620   9.230   8.759   1.330  0.4447 -0.0750  1.1433
 8860SOL     OW30621   0.887   6.931   6.668 -0.5144 -0.3464  0.0874
 8860SOL    HW130622   0.960   6.958   6.611  0.8572  0.4433  2.0965
 8860SOL    HW230623   0.871   6.840   6.644  0.4783 -0.2439 -1.0891
 8861SOL     OW30624   2.308  10.070   0.624 -0.1447 -0.7368  0.8646
 8861SOL    HW130625   2.369  10.022   0.568  0.3078 -1.0319  1.5841
 8861SOL    HW230626   2.338  10.050   0.713  0.1813  1.0443  1.1786
 8862SOL     OW30627   5.920   9.376   7.786 -0.5383  0.7510 -0.3398
 8862SOL    HW130628   5.928   9.322   7.864  2.9392 -0.0201 -1.0605
 8862SOL    HW230629   5.882   9.317   7.720  2.2233 -0.6595 -0.8162
 8863SOL     OW30630   5.884   2.771   0.012  0.3444 -0.3952 -0.2488
 8863SOL    HW130631   5.860   2.858   0.046  0.7707 -0.0140 -0.9090
 8863SOL    HW230632   5.960   2.787  -0.044 -0.6326 -0.9477 -1.7622
 8864SOL     OW30633   1.155   8.237  10.156  0.1723  0.3168  0.3927
 8864SOL    HW130634   1.217   8.168  10.177 -1.4903 -0.7600  2.1018
 8864SOL    HW230635   1.122   8.214  10.069 -0.0804 -0.8537  0.7833
 8865SOL     OW30636   9.982   1.201   8.804  0.2023  0.1827  0.1688
 8865SOL    HW130637   9.928   1.152   8.866  0.5485  1.5575  1.6550
 8865SOL    HW230638   9.965   1.293   8.827  1.2354  0.6936 -1.0254
 8866SOL     OW30639   3.152   8.486   1.697  0.0216 -0.4365  0.3082
 8866SOL    HW130640   3.197   8.414   1.742  0.8777 -1.4401 -2.0012
 8866SOL    HW230641   3.205   8.563   1.718  0.9517 -1.0419  0.2354
 8867SOL     OW30642   8.715   7.914   0.878  0.3281 -0.0686  0.1380
 8867SOL    HW130643   8.770   7.991   0.863  4.1604 -2.0982  2.1557
 8867SOL    HW230644   8.715   7.868   0.794  0.1047  0.8631 -0.3870
 8868SOL     OW30645   4.132   6.599   1.727 -0.0521 -0.2229 -0.5624
 8868SOL    HW130646   4.192   6.524   1.729 -1.9577 -1.8813 -1.5390
 8868SOL    HW230647   4.150   6.641   1.643  0.3870 -0.1357 -0.4287
 8869SOL     OW30648   6.849   2.889   9.563 -0.3193 -0.5279  0.0684
 8869SOL    HW130649   6.902   2.851   9.633  0.2210  0.4110  0.1836
 8869SOL    HW230650   6.797   2.957   9.607  0.1816  0.2122 -0.4740
 8870SOL     OW30651   5.471   4.624   7.624  0.1434 -0.1850 -0.1138
 8870SOL    HW130652   5.521   4.677   7.686  1.1424 -0.7354 -0.4342
 8870SOL    HW230653   5.464   4.678   7.546  1.0412 -0.4428 -0.3897
 8871SOL     OW30654   9.997   1.753   2.495 -0.0580 -0.0031  0.5837
 8871SOL    HW130655  10.070   1.716   2.446  0.7221  1.7248  0.3663
 8871SOL    HW230656   9.923   1.750   2.433  0.7560  1.5494 -0.5412
 8872SOL     OW30657   4.692   9.704   1.483  0.1808 -0.1205 -0.5366
 8872SOL    HW130658   4.628   9.658   1.428  0.4258 -0.9509 -0.1399
 8872SOL    HW230659   4.718   9.640   1.548  0.8187  0.4717 -0.1972
 8873SOL     OW30660   9.183   6.543   5.271 -0.3190 -0.2657 -0.5209
 8873SOL    HW130661   9.089   6.561   5.265 -0.3536  1.8090  3.2564
 8873SOL    HW230662   9.205   6.500   5.188 -4.1229  1.1553 -2.4961
 8874SOL     OW30663   2.525   9.617   4.397  0.5586  0.1988  0.1235
 8874SOL    HW130664   2.605   9.629   4.345 -0.1450 -0.9072 -1.2594
 8874SOL    HW230665   2.497   9.528   4.378 -0.1390  0.0124  1.8639
 8875SOL     OW30666   5.163   9.829   5.753 -0.6783 -0.4601 -0.3695
 8875SOL    HW130667   5.129   9.883   5.681 -1.0280  2.2569  1.6766
 8875SOL    HW230668   5.103   9.755   5.757 -1.7034  0.2403 -1.7553
 8876SOL     OW30669   9.406  10.157   0.998 -0.2401 -0.2519 -0.2325
 8876SOL    HW130670   9.366  10.097   1.061  0.0257 -0.5629 -0.3574
 8876SOL    HW230671   9.492  10.120   0.981 -0.2209 -0.0384 -0.6047
 8877SOL     OW30672   7.969   9.544   9.557  0.1575 -0.5270 -0.1924
 8877SOL    HW130673   7.922   9.522   9.476  1.1050 -0.3597 -0.8110
 8877SOL    HW230674   8.060   9.522   9.538  0.5134  0.2497  0.5514
 8878SOL     OW30675   9.138   6.534   0.329  0.5431  0.1535  0.7762
 8878SOL    HW130676   9.234   6.535   0.337  0.8007  2.6566 -1.2528
 8878SOL    HW230677   9.112   6.621   0.360 -1.0914 -0.4199  1.0808
 8879SOL     OW30678   5.356   1.224   1.208 -0.4806 -0.9639 -0.2015
 8879SOL    HW130679   5.419   1.164   1.169  1.7671  1.7101 -0.9894
 8879SOL    HW230680   5.395   1.248   1.292 -0.8872  0.0271 -0.2827
 8880SOL     OW30681   7.252   9.213   6.644 -0.6710 -0.6511 -0.1776
 8880SOL    HW130682   7.196   9.265   6.587 -0.4461 -1.0585 -0.7731
 8880SOL    HW230683   7.277   9.273   6.715  0.9153  0.5486 -1.6762
 8881SOL     OW30684   1.873   8.833   0.079  0.2897  0.2748  0.2784
 8881SOL    HW130685   1.798   8.849   0.021  0.1807  1.5841  0.7335
 8881SOL    HW230686   1.852   8.750   0.122 -0.4718  0.1687 -0.2689
 8882SOL     OW30687   5.944   4.451   9.467 -0.6785 -0.1015  0.5745
 8882SOL    HW130688   5.929   4.543   9.489 -0.4637  0.5557 -1.7831
 8882SOL    HW230689   5.900   4.403   9.537 -2.6635  1.7824  0.7564
 8883SOL     OW30690   6.869   9.403   5.356  0.0139 -0.0191 -0.1783
 8883SOL    HW130691   6.914   9.485   5.377 -0.1025 -0.1040  0.4290
 8883SOL    HW230692   6.839   9.414   5.266  0.6942  0.2847 -0.3667
 8884SOL     OW30693   8.810   7.178   4.661 -0.2921 -0.1818  0.5047
 8884SOL    HW130694   8.811   7.098   4.608 -2.6720  0.2468 -0.2735
 8884SOL    HW230695   8.843   7.150   4.746  0.6427 -1.5667 -0.2698
 8885SOL     OW30696   0.591   4.701   4.174  0.0789  0.3715  0.0268
 8885SOL    HW130697   0.604   4.634   4.106 -0.1658 -0.1823  0.5237
 8885SOL    HW230698   0.504   4.737   4.157  1.0135  2.1040 -1.5633
 8886SOL     OW30699   2.352   5.269   1.220 -0.2869  0.2004 -0.2389
 8886SOL    HW130700   2.413   5.308   1.283 -0.0988 -0.8445  0.2380
 8886SOL    HW230701   2.357   5.327   1.144  1.3362  0.1318 -0.2255
 8887SOL     OW30702   9.118   4.010   7.993 -0.2396 -0.7602 -0.2932
 8887SOL    HW130703   9.186   4.048   8.048 -0.5908  2.0588 -1.5927
 8887SOL    HW230704   9.165   3.965   7.923  0.2086 -2.0260  0.7826
 8888SOL     OW30705   2.369   3.052   9.715  0.6141 -0.2254 -0.4970
 8888SOL    HW130706   2.382   3.018   9.627  2.6063  0.5603 -0.5736
 8888SOL    HW230707   2.454   3.038   9.759  1.5748  4.1778 -0.4637
 8889SOL     OW30708   2.848   3.305   9.021  0.6256  0.7700 -0.5867
 8889SOL    HW130709   2.793   3.307   9.099  0.3881 -0.2877 -0.7114
 8889SOL    HW230710   2.787   3.317   8.948  0.6914  0.5577 -0.6765
 8890SOL     OW30711   9.595   5.902   2.301 -0.9757  0.4106  0.3470
 8890SOL    HW130712   9.553   5.981   2.334 -0.4081  0.0708  1.9573
 8890SOL    HW230713   9.684   5.905   2.335  0.0836  0.6405 -2.2189
 8891SOL     OW30714   1.872   7.392   1.945 -0.0447 -0.5317  0.2575
 8891SOL    HW130715   1.931   7.464   1.967  0.8208 -1.2622  0.4394
 8891SOL    HW230716   1.789   7.414   1.987  0.8531 -0.7017  2.2554
 8892SOL     OW30717   2.857   9.213   8.233 -0.4155 -0.1036 -0.0914
 8892SOL    HW130718   2.915   9.288   8.234 -0.0550 -0.3583  2.0453
 8892SOL    HW230719   2.769   9.250   8.246 -0.5502  0.1028 -1.3844
 8893SOL     OW30720   5.762   0.998  10.286 -1.0528 -0.1915  0.0899
 8893SOL    HW130721   5.747   0.911  10.323  1.1661  0.0707  1.8472
 8893SOL    HW230722   5.700   1.055  10.333  0.5592 -0.1572  2.3497
 8894SOL     OW30723   0.593  10.077   8.060  0.8038 -0.2092  0.4760
 8894SOL    HW130724   0.665  10.114   8.111  0.2804  1.1624  0.2673
 8894SOL    HW230725   0.547  10.153   8.024  0.7203 -1.1064 -1.4518
 8895SOL     OW30726   1.607   1.413   3.875 -0.0448  0.2260 -0.2358
 8895SOL    HW130727   1.696   1.448   3.888 -0.6833  0.8326  4.0644
 8895SOL    HW230728   1.617   1.318   3.885  0.1787  0.2545 -0.1825
 8896SOL     OW30729   9.259   3.172   5.269 -0.2732 -0.0591 -0.4078
 8896SOL    HW130730   9.264   3.187   5.364  1.0422 -0.1269 -0.4559
 8896SOL    HW230731   9.289   3.082   5.258 -0.2487  0.0117 -0.9168
 8897SOL     OW30732   2.956   5.471   5.451  0.0486  0.1586  0.0055
 8897SOL    HW130733   2.914   5.500   5.532 -0.1532 -0.1501  0.0129
 8897SOL    HW230734   3.040   5.517   5.450  0.1465  0.0009  0.4972
 8898SOL     OW30735   4.439   4.659   3.051 -0.4708  0.2348 -0.4643
 8898SOL    HW130736   4.438   4.576   3.099  0.9562  0.1190 -0.5871
 8898SOL    HW230737   4.357   4.702   3.075 -0.5568 -0.5700  0.7641
 8899SOL     OW30738   7.523   3.694   2.202 -0.5845 -0.2321 -0.2665
 8899SOL    HW130739   7.474   3.655   2.129  0.8868 -1.0912 -0.8476
 8899SOL    HW230740   7.576   3.763   2.162  0.6966 -1.1125 -0.1760
 8900SOL     OW30741   2.782   2.828   8.354  0.0753  0.2090 -0.4292
 8900SOL    HW130742   2.771   2.811   8.448 -0.7453  0.7645 -0.4166
 8900SOL    HW230743   2.832   2.753   8.322 -1.1256 -0.8706  0.1398
 8901SOL     OW30744   8.568   9.198   6.272  0.2290 -0.0942 -0.1756
 8901SOL    HW130745   8.654   9.165   6.247  0.3005 -1.5211  1.7043
 8901SOL    HW230746   8.577   9.221   6.364 -0.5989  2.7609 -0.7091
 8902SOL     OW30747   9.261   7.405   5.097  0.2861  0.5093 -0.0678
 8902SOL    HW130748   9.237   7.359   5.017  1.2058  0.6459 -0.4340
 8902SOL    HW230749   9.341   7.363   5.127 -0.9861 -0.7562  1.8062
 8903SOL     OW30750   5.845   6.497   1.979  0.0925 -0.3721  0.1071
 8903SOL    HW130751   5.759   6.534   1.960  0.3159 -0.1577 -0.5210
 8903SOL    HW230752   5.831   6.441   2.056 -0.1329  1.4545  1.4422
 8904SOL     OW30753   1.307   3.251   4.889 -0.2755  0.1903  0.6479
 8904SOL    HW130754   1.370   3.318   4.864  1.2908 -1.4811 -0.0974
 8904SOL    HW230755   1.225   3.278   4.847  0.7610  0.7334 -1.1379
 8905SOL     OW30756   2.150   0.364   6.606 -0.0358 -0.1626 -0.0593
 8905SOL    HW130757   2.086   0.370   6.677 -1.1767 -0.1274 -1.0596
 8905SOL    HW230758   2.138   0.445   6.556  0.2644 -0.5009 -0.6882
 8906SOL     OW30759   0.919   7.261   4.433  0.1780 -0.0160 -0.1882
 8906SOL    HW130760   0.864   7.237   4.359 -0.6212 -0.3394  0.4930
 8906SOL    HW230761   0.887   7.348   4.459  0.1550 -0.0978  0.0574
 8907SOL     OW30762   6.801   5.268   1.041 -0.1807  0.1075 -0.2634
 8907SOL    HW130763   6.719   5.312   1.019 -0.2710 -0.9216 -2.1922
 8907SOL    HW230764   6.868   5.319   0.996 -0.1332 -0.8771 -1.3285
 8908SOL     OW30765   2.735   5.762   5.242 -0.0188 -0.0711 -0.0507
 8908SOL    HW130766   2.765   5.848   5.271 -0.6446  0.2228 -0.2473
 8908SOL    HW230767   2.689   5.779   5.159 -0.2317 -0.5769 -0.0445
 8909SOL     OW30768   4.411   3.709   8.956  0.2580 -0.1710 -0.4253
 8909SOL    HW130769   4.340   3.715   8.892  0.6990 -1.4401 -1.0733
 8909SOL    HW230770   4.370   3.670   9.034  0.3029 -1.2943 -0.9420
 8910SOL     OW30771   4.485   4.966   2.636  0.6714 -0.4007  0.1990
 8910SOL    HW130772   4.436   4.966   2.718 -4.2270  0.9350 -2.3165
 8910SOL    HW230773   4.496   5.058   2.614  3.6908 -0.6842  0.1546
 8911SOL     OW30774   3.395   1.788   4.760  0.0714  0.0425  1.1393
 8911SOL    HW130775   3.373   1.847   4.688 -1.6073 -0.9946  0.7732
 8911SOL    HW230776   3.453   1.723   4.720 -2.8075 -2.0117 -0.0246
 8912SOL     OW30777   1.735   6.930   4.018 -0.0251 -0.7331  0.2525
 8912SOL    HW130778   1.648   6.904   4.048 -0.7422 -0.1695 -1.2490
 8912SOL    HW230779   1.767   6.990   4.085 -0.0874 -2.1890  1.6423
 8913SOL     OW30780   9.742   8.035   8.934 -0.3086  0.5532 -0.0359
 8913SOL    HW130781   9.652   8.025   8.902 -0.4560  1.1272  0.1841
 8913SOL    HW230782   9.742   8.119   8.979 -0.4209 -0.7454  2.5210
 8914SOL     OW30783   5.045   2.817   4.735  0.5619  0.0412  0.6469
 8914SOL    HW130784   5.125   2.795   4.688  0.5515 -0.9892  1.0830
 8914SOL    HW230785   4.993   2.868   4.672 -0.0556 -2.4562 -0.9969
 8915SOL     OW30786   6.504   0.094   8.481 -0.2023  0.5530 -0.3083
 8915SOL    HW130787   6.468   0.047   8.556 -1.0141  1.3254 -0.1842
 8915SOL    HW230788   6.519   0.027   8.415  1.0488 -0.2142  0.7261
 8916SOL     OW30789   9.069   1.537   9.920  0.1792  0.1817 -0.3980
 8916SOL    HW130790   9.107   1.496   9.997 -0.2550 -0.5424 -0.5702
 8916SOL    HW230791   9.109   1.491   9.846 -1.5179 -1.0707 -0.5880
 8917SOL     OW30792   9.484   4.188   2.956  0.0779  0.1665 -0.1116
 8917SOL    HW130793   9.428   4.266   2.959  0.8650  0.7379  0.3330
 8917SOL    HW230794   9.448   4.135   2.886 -0.1423  1.1969 -0.8080
 8918SOL     OW30795   8.955   7.077   7.535  0.1826 -0.2718  0.3198
 8918SOL    HW130796   8.981   7.163   7.501 -1.9705 -0.2369 -1.5222
 8918SOL    HW230797   8.993   7.073   7.622  2.4084  1.5009 -0.4714
 8919SOL     OW30798   3.800   3.167   6.564  0.8618 -0.4433  0.6194
 8919SOL    HW130799   3.800   3.136   6.654 -0.0453 -0.2947  0.6789
 8919SOL    HW230800   3.708   3.184   6.544  1.0883 -0.1290 -0.2153
 8920SOL     OW30801   6.098   8.393   3.261 -0.1639 -0.4569 -0.2426
 8920SOL    HW130802   6.110   8.346   3.178 -0.1621 -0.7078 -0.1027
 8920SOL    HW230803   6.049   8.332   3.316  0.7352 -0.7144  0.2984
 8921SOL     OW30804   4.663   0.337   3.440  0.1386 -0.1472  0.0590
 8921SOL    HW130805   4.641   0.418   3.486  0.5894 -0.0186  0.0498
 8921SOL    HW230806   4.676   0.364   3.349 -1.6027 -0.5335 -0.3360
 8922SOL     OW30807   1.121   5.813   3.379 -0.1483 -0.1303  1.1324
 8922SOL    HW130808   1.075   5.729   3.370 -0.3262 -0.1353  1.9324
 8922SOL    HW230809   1.165   5.826   3.296  0.1198 -1.1666  1.0986
 8923SOL     OW30810   7.740   2.440   5.457 -0.4436  0.7350  0.6338
 8923SOL    HW130811   7.818   2.437   5.402 -0.2789 -1.8736  0.8368
 8923SOL    HW230812   7.674   2.486   5.405  0.0730 -0.5599 -1.2722
 8924SOL     OW30813   6.319   3.721   5.731 -0.0911  0.4549 -0.2093
 8924SOL    HW130814   6.259   3.665   5.781 -1.5025  0.2356 -2.0628
 8924SOL    HW230815   6.280   3.808   5.736 -0.3580  0.3882 -1.1024
 8925SOL     OW30816   9.502   1.646   2.447  0.5453 -0.0066  0.2146
 8925SOL    HW130817   9.539   1.734   2.443  1.3343 -0.3619 -0.8008
 8925SOL    HW230818   9.506   1.622   2.539  1.1118  0.6942  0.3817
 8926SOL     OW30819   7.599   6.181   9.302  0.4192  0.0227 -0.6213
 8926SOL    HW130820   7.534   6.185   9.373  0.4291 -1.6694 -0.4892
 8926SOL    HW230821   7.627   6.272   9.291 -1.3148  0.6662 -0.0705
 8927SOL     OW30822   8.724   4.101   5.445 -0.1847  0.0081 -0.1424
 8927SOL    HW130823   8.659   4.126   5.380  1.9508  0.8266 -2.0811
 8927SOL    HW230824   8.781   4.177   5.454  1.4918 -1.2133  0.2017
 8928SOL     OW30825   2.205   5.457   1.036  0.3237  0.2790  0.4000
 8928SOL    HW130826   2.299   5.473   1.028  0.1728  1.9691  1.4799
 8928SOL    HW230827   2.171   5.472   0.947  1.3228 -2.8741 -0.6308
 8929SOL     OW30828   8.093   5.000   6.077  0.5133  0.1674 -0.4890
 8929SOL    HW130829   8.052   4.951   6.006 -0.1010  0.3912 -0.2942
 8929SOL    HW230830   8.058   5.089   6.068  3.0179  1.1144 -1.9843
 8930SOL     OW30831   7.798   2.528   8.224  0.1956  0.5291 -0.2406
 8930SOL    HW130832   7.829   2.609   8.184  1.6388 -0.1646 -0.5714
 8930SOL    HW230833   7.845   2.521   8.306 -1.7927  1.2665  1.0402
 8931SOL     OW30834   3.716   2.043   3.823 -0.4052 -0.0764 -0.4579
 8931SOL    HW130835   3.721   2.018   3.916 -0.0191  2.1792  0.1936
 8931SOL    HW230836   3.796   2.007   3.785 -0.0775 -0.1983  0.3207
 8932SOL     OW30837   5.635   2.361   5.695  0.5589  0.4414 -0.2276
 8932SOL    HW130838   5.561   2.418   5.717  0.8612  0.6786  0.1871
 8932SOL    HW230839   5.602   2.272   5.708 -0.2097  0.4758 -1.7864
 8933SOL     OW30840   6.389   2.278   6.193 -0.6712 -0.2867  0.2734
 8933SOL    HW130841   6.401   2.290   6.287  0.4299  1.6559 -0.0793
 8933SOL    HW230842   6.474   2.296   6.155 -0.9703 -1.5284 -1.1020
 8934SOL     OW30843   0.691   0.025   7.578 -0.1519  0.4831 -0.9388
 8934SOL    HW130844   0.601  -0.007   7.592 -0.5286  1.4501 -1.0807
 8934SOL    HW230845   0.741  -0.013   7.649 -0.9097  0.8162 -0.2103
 8935SOL     OW30846   1.547   0.106   3.121  0.7014 -0.2756 -0.4389
 8935SOL    HW130847   1.485   0.092   3.193  1.2171  1.5879  0.4213
 8935SOL    HW230848   1.508   0.060   3.047 -0.3552 -1.3966  0.7612
 8936SOL     OW30849   7.998   3.576   3.479  0.4280  0.8915  0.1297
 8936SOL    HW130850   8.028   3.494   3.439  1.0752  0.8706  0.6435
 8936SOL    HW230851   7.914   3.594   3.436  0.9661  0.7263 -1.0188
 8937SOL     OW30852   5.780   5.742   1.121 -0.3990 -0.0473 -0.6360
 8937SOL    HW130853   5.867   5.758   1.083 -0.3267  3.9568  0.7008
 8937SOL    HW230854   5.734   5.689   1.055  2.1966 -0.1114 -2.5563
 8938SOL     OW30855   3.690   3.409   2.615  0.6957 -0.3001  0.3309
 8938SOL    HW130856   3.675   3.504   2.623 -2.0948 -0.7497  1.5088
 8938SOL    HW230857   3.743   3.400   2.535 -0.4339  2.1449 -0.8053
 8939SOL     OW30858   9.395   5.858   4.350 -0.1400 -0.1356 -0.3825
 8939SOL    HW130859   9.326   5.851   4.284 -0.2540  0.4115 -0.3257
 8939SOL    HW230860   9.468   5.901   4.305  0.1856 -0.7417 -0.4513
 8940SOL     OW30861   8.331   5.961   3.798 -0.2495 -0.4816  0.3980
 8940SOL    HW130862   8.268   6.031   3.779  1.1835  0.9029  0.5345
 8940SOL    HW230863   8.346   5.918   3.713 -1.7103 -1.1642  0.4530
 8941SOL     OW30864   9.218   6.415  10.142 -0.2591 -0.2864  0.1345
 8941SOL    HW130865   9.281   6.389  10.209 -0.5561  0.3007  0.6507
 8941SOL    HW230866   9.132   6.399  10.182 -0.4579  1.2842  0.4226
 8942SOL     OW30867   1.119   5.840   2.557  0.6662  0.2500 -0.3056
 8942SOL    HW130868   1.071   5.765   2.592  1.1678 -0.9224 -1.9884
 8942SOL    HW230869   1.098   5.912   2.617 -1.1831 -0.8085  0.4104
 8943SOL     OW30870   5.747   9.425   6.726 -0.5361  0.7000 -0.2729
 8943SOL    HW130871   5.737   9.517   6.747 -0.3029  0.8103 -0.6419
 8943SOL    HW230872   5.841   9.412   6.716 -0.5851  0.4843 -0.4925
 8944SOL     OW30873   9.742  10.141   0.092  0.3712  0.3511  0.3598
 8944SOL    HW130874   9.672  10.184   0.042  1.1025  0.0690 -0.9574
 8944SOL    HW230875   9.779  10.077   0.031  1.0567 -0.2818  1.4041
 8945SOL     OW30876   7.184   1.997   2.959  0.0118  0.2565  0.1011
 8945SOL    HW130877   7.274   2.014   2.931 -0.1829 -1.2627 -1.7321
 8945SOL    HW230878   7.131   2.027   2.885 -1.0510  1.4645  1.3122
 8946SOL     OW30879   7.364   4.526   9.029 -0.6191 -0.5696 -0.3809
 8946SOL    HW130880   7.405   4.443   9.053 -0.4703 -0.2782  0.3792
 8946SOL    HW230881   7.345   4.570   9.112  2.2558  1.6218 -0.7118
 8947SOL     OW30882   3.398   5.264   0.957 -0.2159 -0.0097 -0.2070
 8947SOL    HW130883   3.396   5.176   0.995 -0.3662  1.1247  2.6832
 8947SOL    HW230884   3.329   5.311   1.003  0.2906  1.8025 -1.2055
 8948SOL     OW30885   4.563   5.828   2.452  0.1523  0.1315  0.2700
 8948SOL    HW130886   4.526   5.813   2.365  1.2386 -0.4788 -0.1050
 8948SOL    HW230887   4.658   5.833   2.437  0.2573  1.6280  1.2020
 8949SOL     OW30888   4.998   0.539   7.344  0.0388 -0.3054  0.4666
 8949SOL    HW130889   5.032   0.565   7.430  0.9836 -0.9592  0.2965
 8949SOL    HW230890   4.972   0.447   7.355 -0.8655 -0.0785  0.3434
 8950SOL     OW30891  10.122   0.242   4.985 -0.4938  0.0879 -0.2022
 8950SOL    HW130892  10.109   0.230   5.079 -0.5673  1.1062 -0.0715
 8950SOL    HW230893  10.037   0.220   4.947 -0.4457 -0.3891 -0.0407
 8951SOL     OW30894   9.000   4.543   2.200 -0.2659  0.2645  0.5835
 8951SOL    HW130895   8.990   4.448   2.210 -0.0749  0.2072  0.2672
 8951SOL    HW230896   9.026   4.574   2.286 -3.3629  0.4637  1.5642
 8952SOL     OW30897   3.795   0.997   2.767 -0.2130  0.3687  0.1796
 8952SOL    HW130898   3.847   0.925   2.804  0.2766  0.1322 -0.9354
 8952SOL    HW230899   3.810   1.070   2.828 -1.9339 -0.8272  2.1911
 8953SOL     OW30900   1.336   9.567  10.020 -0.1874 -0.1831 -0.2536
 8953SOL    HW130901   1.297   9.518   9.947  0.5749 -0.2671 -0.6100
 8953SOL    HW230902   1.261   9.610  10.063 -1.1250 -2.7864  0.9630
 8954SOL     OW30903   3.604   5.443   3.047  0.6643 -0.1469  0.1713
 8954SOL    HW130904   3.577   5.381   3.115 -0.3065 -0.3354 -0.3660
 8954SOL    HW230905   3.699   5.448   3.056  0.5568 -0.0475  1.6393
 8955SOL     OW30906   1.439   6.366   3.384  0.2422  0.5304  0.3968
 8955SOL    HW130907   1.377   6.422   3.431 -0.7705 -1.3330  1.4048
 8955SOL    HW230908   1.525   6.398   3.411 -0.3106  1.1662  1.4809
 8956SOL     OW30909   0.906   4.857   7.665  0.2454 -0.0578  0.3581
 8956SOL    HW130910   0.850   4.921   7.709 -0.1267  0.2811 -0.5812
 8956SOL    HW230911   0.960   4.909   7.606  1.7952 -0.3398  1.4411
 8957SOL     OW30912   9.262   6.430   5.910  0.1619 -0.0883  0.3306
 8957SOL    HW130913   9.263   6.496   5.979 -0.3323  2.2164 -1.6962
 8957SOL    HW230914   9.172   6.397   5.909 -0.3331  1.2083 -0.3299
 8958SOL     OW30915   0.594   5.495   9.312  0.0338 -0.3695  0.4354
 8958SOL    HW130916   0.510   5.513   9.268 -0.6219 -0.1196  1.7325
 8958SOL    HW230917   0.649   5.457   9.244 -1.4690 -1.5035 -0.2043
 8959SOL     OW30918   3.973   9.221   5.387  0.1374 -0.0135  0.4385
 8959SOL    HW130919   3.906   9.261   5.443  0.6434 -0.4901  1.4022
 8959SOL    HW230920   4.052   9.272   5.403  0.4098 -0.4611  0.5519
 8960SOL     OW30921  10.113   1.290   9.499  0.0525 -0.5023 -0.4606
 8960SOL    HW130922  10.048   1.355   9.523  2.2311  0.9812  1.9133
 8960SOL    HW230923  10.098   1.218   9.561  0.4778 -0.2847 -0.1032
 8961SOL     OW30924   2.062   5.995   6.430  0.0849  0.2831  0.1213
 8961SOL    HW130925   2.122   5.922   6.414 -1.4182 -0.7318 -1.2250
 8961SOL    HW230926   2.003   5.963   6.497 -2.2134 -0.8752 -2.2764
 8962SOL     OW30927   5.007   7.607   7.076  0.0744 -0.6291 -0.3663
 8962SOL    HW130928   5.018   7.702   7.084 -0.3787 -0.5220 -0.9349
 8962SOL    HW230929   5.008   7.592   6.981  0.9852 -1.2962 -0.2589
 8963SOL     OW30930   7.323   5.269   6.346  0.2042 -0.1474  0.1184
 8963SOL    HW130931   7.249   5.320   6.380  0.3204 -0.0940  0.2889
 8963SOL    HW230932   7.290   5.232   6.264  0.1071  0.1689  0.0124
 8964SOL     OW30933   1.814  10.148   2.596 -0.1252  0.1776 -0.5181
 8964SOL    HW130934   1.744  10.176   2.656  2.0291  0.5187  1.9991
 8964SOL    HW230935   1.795  10.055   2.580  0.3119 -0.5543  2.4973
 8965SOL     OW30936   8.920   7.154   4.924  0.1402 -0.6622  0.2638
 8965SOL    HW130937   8.871   7.104   4.990 -1.2742  0.2298 -0.0639
 8965SOL    HW230938   9.007   7.114   4.923 -0.2460 -1.6140  1.6448
 8966SOL     OW30939   2.717   9.734   3.427  0.1303 -0.0257  0.3106
 8966SOL    HW130940   2.777   9.674   3.472 -1.2645 -1.2870  0.5579
 8966SOL    HW230941   2.719   9.706   3.336  1.8033  1.5666 -0.1996
 8967SOL     OW30942   9.336   7.191   1.144 -0.2458 -0.2370 -0.2570
 8967SOL    HW130943   9.403   7.248   1.106  1.0486 -0.5480  1.4791
 8967SOL    HW230944   9.321   7.124   1.077  1.4259 -0.3456 -0.5730
 8968SOL     OW30945   4.108   6.302   1.875 -0.0507  0.3394  0.1638
 8968SOL    HW130946   4.090   6.352   1.954 -0.4391  0.6384 -0.1105
 8968SOL    HW230947   4.023   6.295   1.831  0.1207 -0.0111 -0.1183
 8969SOL     OW30948   3.807   1.278   4.504 -0.0928  0.2008  0.0345
 8969SOL    HW130949   3.886   1.311   4.545 -0.0829 -0.4921  0.6007
 8969SOL    HW230950   3.735   1.309   4.559 -0.2135  0.7314 -0.4126
 8970SOL     OW30951   7.761   3.255   7.237  0.2991 -0.0958  0.1969
 8970SOL    HW130952   7.740   3.320   7.171 -0.0688 -0.7533 -0.3534
 8970SOL    HW230953   7.828   3.199   7.195 -0.2537 -0.7770  0.2031
 8971SOL     OW30954   0.595   9.809   5.463 -0.3044 -0.2404 -0.2402
 8971SOL    HW130955   0.521   9.750   5.450 -0.8918  0.6019 -0.8633
 8971SOL    HW230956   0.555   9.893   5.488  0.5587 -0.3474  1.6387
 8972SOL     OW30957   1.135   4.498   2.807 -0.0832  0.1866  0.0104
 8972SOL    HW130958   1.182   4.417   2.825 -2.3934 -1.2541 -0.0525
 8972SOL    HW230959   1.097   4.485   2.720  0.6851  1.9553 -0.6342
 8973SOL     OW30960   1.675   9.315   3.212  0.0816 -0.3144 -0.3971
 8973SOL    HW130961   1.598   9.267   3.242 -0.0058  0.1732  0.1790
 8973SOL    HW230962   1.641   9.399   3.183  0.3170 -0.3480 -0.7728
 8974SOL     OW30963   3.941   8.753   3.087 -0.7140 -0.1610 -0.6175
 8974SOL    HW130964   4.007   8.798   3.034  0.4310  0.7413  1.4366
 8974SOL    HW230965   3.988   8.679   3.126  0.2799  2.3164  3.4932
 8975SOL     OW30966   4.308   0.166   0.982 -0.2292 -0.0628 -0.2469
 8975SOL    HW130967   4.384   0.124   1.022 -0.2333  0.5879  0.4619
 8975SOL    HW230968   4.319   0.259   1.002 -0.8557  0.1228 -0.7409
 8976SOL     OW30969   0.272   4.263   2.819  0.7372 -0.2065 -0.0050
 8976SOL    HW130970   0.354   4.233   2.859  1.2699 -0.1994 -1.0739
 8976SOL    HW230971   0.290   4.351   2.788  0.0283  0.1594  0.5901
 8977SOL     OW30972  10.174   0.929   3.341  0.4516  0.0680  0.1829
 8977SOL    HW130973  10.205   1.019   3.353 -0.4532  0.4046  0.1340
 8977SOL    HW230974  10.205   0.904   3.255  1.4602  0.0103  0.5538
 8978SOL     OW30975   4.497   4.049   5.619 -0.5607  0.0972 -0.0896
 8978SOL    HW130976   4.565   4.071   5.556 -0.9633  0.7047 -0.3172
 8978SOL    HW230977   4.496   3.953   5.621 -0.6789  0.0669 -1.1470
 8979SOL     OW30978  10.138   6.440   3.503  0.0227  0.1316  0.3377
 8979SOL    HW130979  10.054   6.398   3.520 -0.2201 -0.1122 -1.2854
 8979SOL    HW230980  10.133   6.467   3.411  2.2823 -1.2453 -0.2850
 8980SOL     OW30981   6.664   2.532   0.899  0.4225  0.0998 -0.6101
 8980SOL    HW130982   6.664   2.627   0.908 -1.4405  0.0158  0.7400
 8980SOL    HW230983   6.733   2.514   0.835  0.3415  2.3870 -1.4132
 8981SOL     OW30984   6.262   0.118   5.063 -0.3466  0.0829 -0.1687
 8981SOL    HW130985   6.215   0.056   5.007 -1.4414 -0.9368  1.7594
 8981SOL    HW230986   6.349   0.079   5.074  0.0386  0.5295 -1.4892
 8982SOL     OW30987   7.165   7.020   2.691  0.2642 -0.3085  0.2148
 8982SOL    HW130988   7.134   7.006   2.601 -0.7546 -1.2249  0.6806
 8982SOL    HW230989   7.109   7.089   2.725 -0.7866 -1.3889  0.7852
 8983SOL     OW30990   1.043   5.916   4.318 -0.5504  0.3289  0.3625
 8983SOL    HW130991   1.136   5.930   4.298 -0.7896  1.6982  0.1244
 8983SOL    HW230992   1.016   5.847   4.257 -0.7438  2.9503 -2.8225
 8984SOL     OW30993   4.069   7.129   4.078  0.0684  0.1822 -0.2871
 8984SOL    HW130994   4.007   7.201   4.063 -2.1989 -1.8314 -1.2056
 8984SOL    HW230995   4.086   7.093   3.991 -1.7424 -2.5890  0.3741
 8985SOL     OW30996   4.882   4.103   3.960  0.3503 -0.0398  0.0988
 8985SOL    HW130997   4.888   4.181   4.015 -1.5071 -0.0358  0.3633
 8985SOL    HW230998   4.917   4.130   3.875 -0.2248  1.0775  0.2042
 8986SOL     OW30999   0.572   6.500  10.038 -0.0588 -0.4653 -0.2824
 8986SOL    HW131000   0.661   6.510  10.072 -0.2377 -0.5159  0.2013
 8986SOL    HW231001   0.533   6.431  10.092 -0.5516 -0.1149 -0.1855
 8987SOL     OW31002   9.002   4.013   9.998 -0.3991 -0.4208  0.5198
 8987SOL    HW131003   8.985   3.955   9.924 -2.0161  0.4021  0.2111
 8987SOL    HW231004   8.916   4.041  10.028  0.2220 -0.5010  2.5666
 8988SOL     OW31005   8.451   5.947   9.198 -0.6789  0.1015  0.2355
 8988SOL    HW131006   8.385   6.004   9.237 -1.8385 -1.2067  0.2954
 8988SOL    HW231007   8.490   5.999   9.128 -1.5215  1.0456  0.4509
 8989SOL     OW31008   3.645   5.989   9.668 -0.9369  0.0074  0.1125
 8989SOL    HW131009   3.722   5.933   9.658  0.8931  2.3225  0.3907
 8989SOL    HW231010   3.571   5.928   9.669  0.8064 -2.2661 -0.8532
 8990SOL     OW31011   7.393   8.314   5.396 -0.0002  0.1753 -0.1566
 8990SOL    HW131012   7.465   8.376   5.410 -0.1943  0.1916  0.7868
 8990SOL    HW231013   7.415   8.239   5.451 -1.6050  0.9201  1.5888
 8991SOL     OW31014   8.856   3.911   8.593 -0.2278  0.8771 -0.8278
 8991SOL    HW131015   8.947   3.908   8.564 -0.2662  1.7586 -1.0650
 8991SOL    HW231016   8.855   3.860   8.674  0.2710  0.0289 -1.3517
 8992SOL     OW31017   5.177   7.295   7.473  0.0389  0.5151  0.3681
 8992SOL    HW131018   5.131   7.234   7.416 -2.5465  1.5375  1.1900
 8992SOL    HW231019   5.247   7.332   7.419 -0.6397 -0.4848 -1.2570
 8993SOL     OW31020   5.702   2.534   8.497 -0.0857 -0.3080  0.0427
 8993SOL    HW131021   5.627   2.539   8.556 -0.9122 -0.1837 -1.0025
 8993SOL    HW231022   5.751   2.458   8.528  0.0268  0.3146  1.4853
 8994SOL     OW31023   1.986   7.855   3.190 -0.4085  0.1182 -0.4353
 8994SOL    HW131024   2.007   7.885   3.102 -0.4936  1.2035 -0.0968
 8994SOL    HW231025   2.064   7.875   3.241  0.2226 -1.8666 -0.5540
 8995SOL     OW31026   0.365   1.851   7.877 -0.4268 -0.5709 -0.6239
 8995SOL    HW131027   0.382   1.820   7.965  1.5906  2.0652  0.0597
 8995SOL    HW231028   0.276   1.822   7.858  0.1001 -3.7227  1.0507
 8996SOL     OW31029   7.650   0.377   4.939 -0.4448 -0.1922  0.4702
 8996SOL    HW131030   7.628   0.396   5.030 -1.2436 -1.1697  0.4975
 8996SOL    HW231031   7.696   0.293   4.942  0.2303  0.1549  0.0503
 8997SOL     OW31032   5.569   5.948   1.580  0.1523  0.4296  0.3624
 8997SOL    HW131033   5.595   5.882   1.516 -2.6166  0.7113 -1.1993
 8997SOL    HW231034   5.632   6.019   1.569  1.2044 -0.5746 -0.2618
 8998SOL     OW31035   6.704   4.468   7.684 -0.4063  0.4380  0.5582
 8998SOL    HW131036   6.747   4.421   7.755 -0.0242 -0.4953 -0.2590
 8998SOL    HW231037   6.641   4.525   7.727 -0.9564 -0.9065  1.6001
 8999SOL     OW31038   0.625   1.011   0.181 -0.4340  0.0284  0.1121
 8999SOL    HW131039   0.599   0.935   0.130 -0.4349  0.4197 -0.4898
 8999SOL    HW231040   0.712   0.990   0.214 -1.1784 -0.9877  1.5230
 9000SOL     OW31041   2.017   8.971   0.266  0.0265 -0.4487  0.0135
 9000SOL    HW131042   1.946   8.922   0.224 -2.0879  1.5375  1.0689
 9000SOL    HW231043   2.056   9.021   0.195 -1.0840  0.0730 -0.2546
 9001SOL     OW31044   2.936   1.211   4.582 -0.0338 -0.4079  0.9296
 9001SOL    HW131045   3.024   1.240   4.608  1.0233 -1.2936 -1.4064
 9001SOL    HW231046   2.951   1.142   4.518 -2.3511  1.3298 -1.7594
 9002SOL     OW31047   3.369  10.050   4.223  0.0408  0.8600 -0.0354
 9002SOL    HW131048   3.455  10.090   4.210 -0.1998  0.8801 -1.7407
 9002SOL    HW231049   3.309  10.101   4.169 -0.4450 -1.1154 -1.4844
 9003SOL     OW31050   8.170   1.916   6.338 -0.0705  0.8209 -0.4181
 9003SOL    HW131051   8.161   1.916   6.243 -0.4886  2.0670 -0.3951
 9003SOL    HW231052   8.082   1.940   6.370  0.0891  0.5092  0.2739
 9004SOL     OW31053   8.012   8.987   6.728  0.6257 -0.0799  0.3396
 9004SOL    HW131054   8.048   8.984   6.640  1.6153 -0.8340  0.7529
 9004SOL    HW231055   8.075   9.038   6.779  1.6536 -2.1577  1.2666
 9005SOL     OW31056   2.032   6.772   7.220 -1.1665 -0.4251 -0.5577
 9005SOL    HW131057   1.991   6.795   7.304  0.5386 -0.0623  0.2413
 9005SOL    HW231058   1.972   6.805   7.154 -1.6002  1.1514  0.5476
 9006SOL     OW31059   1.327   2.049   0.056 -0.0863  0.1635 -0.4170
 9006SOL    HW131060   1.283   2.014   0.133  1.7131 -0.5801  0.3261
 9006SOL    HW231061   1.256   2.068  -0.006 -1.5760  0.8272  1.4137
 9007SOL     OW31062   4.202   2.859   4.885 -0.9134 -0.0751 -1.1656
 9007SOL    HW131063   4.136   2.839   4.952 -1.1409  2.4446 -0.5398
 9007SOL    HW231064   4.166   2.822   4.804 -4.2822  2.9526 -1.3326
 9008SOL     OW31065   2.613   8.823   8.826  0.2187  0.0912 -0.5869
 9008SOL    HW131066   2.704   8.794   8.827  0.1452 -0.1351  0.2072
 9008SOL    HW231067   2.615   8.907   8.780  0.7590 -0.1316 -0.9772
 9009SOL     OW31068   2.425   8.326   9.219  0.1444  0.1060  0.4867
 9009SOL    HW131069   2.477   8.248   9.240  0.8526  0.7928  1.3573
 9009SOL    HW231070   2.340   8.310   9.259 -0.0254 -0.6137 -0.1317
 9010SOL     OW31071   0.242   2.119   0.660  0.6404 -0.2701 -0.7395
 9010SOL    HW131072   0.218   2.032   0.630 -1.2972 -0.2144  0.4406
 9010SOL    HW231073   0.164   2.150   0.708  0.5340  2.8442 -2.6635
 9011SOL     OW31074   2.993   8.665   6.842 -0.3680  0.1266  0.5204
 9011SOL    HW131075   2.955   8.752   6.830 -0.9639 -0.1899  0.0268
 9011SOL    HW231076   3.086   8.677   6.826 -0.4844  0.6320  0.1844
 9012SOL     OW31077   0.966   0.271   4.065  0.1699 -0.3310  0.2584
 9012SOL    HW131078   0.924   0.186   4.080  0.8588 -0.9505 -1.1024
 9012SOL    HW231079   1.017   0.287   4.144  1.7847 -2.2771 -0.3048
 9013SOL     OW31080   4.022   0.102   2.814  0.1749  0.1523 -0.0274
 9013SOL    HW131081   4.025   0.011   2.784 -1.1425  1.0065 -3.1849
 9013SOL    HW231082   4.064   0.152   2.744 -2.1008  2.2600 -0.0617
 9014SOL     OW31083   2.246   3.481  10.277  0.2113  0.2126 -0.7416
 9014SOL    HW131084   2.315   3.535  10.236  2.0086 -2.2714 -1.2251
 9014SOL    HW231085   2.264   3.392  10.246 -1.9338 -0.8748  0.8935
 9015SOL     OW31086   8.624   9.799   0.356 -0.1764 -0.0625 -0.4965
 9015SOL    HW131087   8.612   9.724   0.299  0.4258 -0.9978  0.5578
 9015SOL    HW231088   8.716   9.823   0.344 -0.4377  0.6931 -1.0370
 9016SOL     OW31089   7.287   3.505   0.843 -0.5672  0.0537 -0.1334
 9016SOL    HW131090   7.331   3.583   0.877 -1.2852  0.4987 -0.2112
 9016SOL    HW231091   7.216   3.488   0.906 -1.1955  0.2150 -0.7857
 9017SOL     OW31092   2.212   8.322   7.103  0.0193 -0.1150  0.7155
 9017SOL    HW131093   2.117   8.310   7.097  0.0716 -2.1663  2.5534
 9017SOL    HW231094   2.225   8.366   7.187  0.6972 -0.3267  0.7301
 9018SOL     OW31095   7.471   7.353   1.509  0.0439 -0.1370  0.2956
 9018SOL    HW131096   7.403   7.397   1.458  0.1089 -1.0696 -0.6350
 9018SOL    HW231097   7.531   7.319   1.443  0.5673 -0.6896  1.0458
 9019SOL     OW31098   5.550   7.286   9.270  0.0739 -0.5215 -0.2246
 9019SOL    HW131099   5.491   7.211   9.267  0.7987 -1.0840 -0.8677
 9019SOL    HW231100   5.493   7.362   9.257 -0.5340 -1.0271 -0.5690
 9020SOL     OW31101   2.684   5.173   9.872  0.0832 -0.1860  0.8875
 9020SOL    HW131102   2.778   5.185   9.887  0.3371 -1.9279  0.9006
 9020SOL    HW231103   2.644   5.188   9.958  0.0949  2.3334  0.5330
 9021SOL     OW31104   4.880   8.195   4.880  0.2351 -0.4916  0.6786
 9021SOL    HW131105   4.829   8.119   4.908 -0.8872  0.0636  0.1697
 9021SOL    HW231106   4.967   8.159   4.861 -0.6282 -1.9031 -0.8630
 9022SOL     OW31107   1.559   3.571   1.314  0.4873 -0.2217  0.1849
 9022SOL    HW131108   1.640   3.522   1.325  0.6965 -0.2750 -1.4105
 9022SOL    HW231109   1.507   3.517   1.254 -0.1782  0.4637  0.1363
 9023SOL     OW31110   6.993   5.913   8.119  0.0940 -0.3178 -0.3607
 9023SOL    HW131111   6.999   6.006   8.096  1.6847 -0.4715 -0.7035
 9023SOL    HW231112   7.055   5.902   8.191 -2.2443 -0.5663  1.7464
 9024SOL     OW31113   3.491   9.992   9.784 -0.3751 -0.2493  0.0906
 9024SOL    HW131114   3.524  10.036   9.706 -0.3839  1.8550  1.2117
 9024SOL    HW231115   3.565   9.942   9.817  0.2446  0.5255 -0.1152
 9025SOL     OW31116   7.800  10.138   5.736  0.4722  0.1337 -0.5551
 9025SOL    HW131117   7.807  10.046   5.762  1.2053 -0.6808 -3.3336
 9025SOL    HW231118   7.891  10.169   5.737  0.3375  0.5308 -0.6619
 9026SOL     OW31119   4.512   5.005   1.179 -0.3602 -0.3201  0.2888
 9026SOL    HW131120   4.477   4.993   1.091  0.0472  0.3716  0.0266
 9026SOL    HW231121   4.589   5.060   1.167 -0.2494 -0.2961  1.0678
 9027SOL     OW31122   1.707  10.001   6.165  0.0433 -0.1284 -0.6379
 9027SOL    HW131123   1.616   9.985   6.138 -0.6018  1.3209  0.5046
 9027SOL    HW231124   1.756  10.007   6.083 -1.4989  2.3253 -1.4757
 9028SOL     OW31125   4.164   2.686   1.915  0.4133 -0.9575  0.3668
 9028SOL    HW131126   4.252   2.687   1.953 -0.0062 -3.5365  1.6205
 9028SOL    HW231127   4.178   2.664   1.823  1.1639  0.9425 -0.0173
 9029SOL     OW31128   5.200   6.263   1.162 -0.4589  0.5184 -0.1292
 9029SOL    HW131129   5.122   6.263   1.217  1.8159  0.0407  3.4136
 9029SOL    HW231130   5.255   6.332   1.199  0.6167  1.2939 -2.9376
 9030SOL     OW31131   6.868   3.084   9.332 -0.1948 -0.0339 -0.2413
 9030SOL    HW131132   6.797   3.141   9.362 -1.7221 -0.4705 -2.7030
 9030SOL    HW231133   6.864   3.008   9.391  0.1774  1.1816  1.4392
 9031SOL     OW31134   7.140   7.575   6.350  0.6973  0.8479 -0.1042
 9031SOL    HW131135   7.189   7.496   6.372  0.4649  1.2555  2.0978
 9031SOL    HW231136   7.180   7.644   6.403 -2.1451  1.1990  1.8079
 9032SOL     OW31137   1.515   1.469   7.118  0.2584 -0.1455 -0.0482
 9032SOL    HW131138   1.463   1.410   7.063  1.6955 -1.7743  0.2434
 9032SOL    HW231139   1.588   1.496   7.063  0.9544 -0.6719  0.5911
 9033SOL     OW31140   8.719   0.933   9.600 -0.4027  0.3179 -0.0473
 9033SOL    HW131141   8.771   1.007   9.570  2.1475 -0.3220  2.3298
 9033SOL    HW231142   8.781   0.860   9.603 -1.5329 -0.6622  2.3025
 9034SOL     OW31143   5.273   9.259   7.418 -0.0546 -0.5586 -0.4516
 9034SOL    HW131144   5.290   9.166   7.409 -1.9309 -1.0503  0.7406
 9034SOL    HW231145   5.320   9.299   7.344  2.1727 -2.2245 -0.0311
 9035SOL     OW31146   9.391   0.711   8.729  0.2029 -0.5011 -0.3099
 9035SOL    HW131147   9.362   0.797   8.759 -2.4312 -1.6519  0.7649
 9035SOL    HW231148   9.399   0.720   8.634 -1.6555  0.5175 -0.4118
 9036SOL     OW31149   4.931   9.618   0.108  0.1418 -0.7888 -0.3557
 9036SOL    HW131150   4.871   9.659   0.171 -0.6371 -1.1693 -0.8253
 9036SOL    HW231151   4.903   9.526   0.105 -0.0226 -0.7235 -1.4488
 9037SOL     OW31152   0.248   8.809   9.083  0.6374  0.4707  0.5022
 9037SOL    HW131153   0.169   8.812   9.137  0.7286  0.5825  0.6292
 9037SOL    HW231154   0.312   8.762   9.137  0.4570 -0.2145  0.1367
 9038SOL     OW31155   8.032   2.453   7.459 -0.2946 -0.1613 -0.1874
 9038SOL    HW131156   7.953   2.464   7.512 -1.0175 -1.3231 -0.9810
 9038SOL    HW231157   8.085   2.530   7.478 -0.2021 -0.8503  2.7287
 9039SOL     OW31158   9.035   6.147   9.191 -0.3145 -0.1036  0.3604
 9039SOL    HW131159   9.028   6.123   9.099  0.4387  0.3383  0.1793
 9039SOL    HW231160   8.968   6.215   9.204  1.2973  1.7718 -0.5473
 9040SOL     OW31161   8.059   0.820   4.794  0.1171 -0.0075 -0.7927
 9040SOL    HW131162   7.986   0.879   4.810  0.1878  0.1292 -0.9652
 9040SOL    HW231163   8.072   0.823   4.699  0.4520  0.0949 -0.7463
 9041SOL     OW31164   1.455  10.230   9.965 -0.4235 -0.1170 -0.5279
 9041SOL    HW131165   1.530  10.290   9.968 -0.8583  0.4061  0.8147
 9041SOL    HW231166   1.402  10.255  10.041  0.1597 -3.1800  1.0445
 9042SOL     OW31167   1.198   9.405   6.992 -0.1923 -0.7997  0.3646
 9042SOL    HW131168   1.145   9.482   6.971  1.4701 -0.1500 -1.7748
 9042SOL    HW231169   1.149   9.331   6.955 -0.9112 -0.5517  0.8145
 9043SOL     OW31170   9.037   0.436   2.292  0.2149  0.2524 -0.0766
 9043SOL    HW131171   8.950   0.405   2.316  1.3043 -0.9169  2.8044
 9043SOL    HW231172   9.021   0.503   2.225 -2.8181 -0.3857 -0.1261
 9044SOL     OW31173   4.956   5.438   3.326 -0.6062 -0.4656  0.2815
 9044SOL    HW131174   5.033   5.436   3.270  0.0775  0.2858  1.1799
 9044SOL    HW231175   4.892   5.490   3.276  0.0855  0.4213  0.2942
 9045SOL     OW31176   7.389   7.153   6.754  0.1984 -0.1063  0.0581
 9045SOL    HW131177   7.353   7.068   6.727 -1.8690  0.8691 -0.4122
 9045SOL    HW231178   7.384   7.207   6.676  2.7494  0.1417 -0.0274
 9046SOL     OW31179   3.349   8.288   3.669  0.1706 -0.5402  0.2021
 9046SOL    HW131180   3.430   8.313   3.712  0.1823  0.2232 -0.2494
 9046SOL    HW231181   3.360   8.316   3.579 -0.4387 -0.7903  0.0451
 9047SOL     OW31182   3.640   1.033   4.193 -0.1380 -0.0116  0.3685
 9047SOL    HW131183   3.721   0.990   4.220 -0.4918 -1.2233 -0.3983
 9047SOL    HW231184   3.572   0.968   4.209 -0.6045 -0.0553 -1.4755
 9048SOL     OW31185   3.360   5.831   9.512  0.2852 -0.6930  0.3243
 9048SOL    HW131186   3.391   5.888   9.442 -1.7421  1.2352  0.8586
 9048SOL    HW231187   3.315   5.759   9.468 -1.4606  0.7933 -0.4341
 9049SOL     OW31188   6.928   1.771   7.073  0.0062 -0.4408 -0.0078
 9049SOL    HW131189   6.992   1.808   7.134 -0.2422 -1.1354  0.7072
 9049SOL    HW231190   6.977   1.755   6.993  0.0948  1.5062 -0.3901
 9050SOL     OW31191   5.170   3.845   8.504  0.6459 -0.1322 -0.3352
 9050SOL    HW131192   5.180   3.939   8.492  0.9079 -0.0768  0.2968
 9050SOL    HW231193   5.077   3.828   8.485  0.1148  0.5655  1.4574
 9051SOL     OW31194   4.931   7.791   3.923  0.5384 -0.6226 -0.6464
 9051SOL    HW131195   4.879   7.827   3.995 -0.4673  2.3320 -2.6483
 9051SOL    HW231196   5.014   7.839   3.927 -0.3884  1.3273 -2.6847
 9052SOL     OW31197   6.081   6.319   3.938  0.4740 -0.0423  0.6131
 9052SOL    HW131198   6.139   6.395   3.943 -1.9614  1.9522  0.7182
 9052SOL    HW231199   6.096   6.272   4.020  0.5431  1.5114  1.5300
 9053SOL     OW31200   2.831   8.569   4.416 -0.1389 -0.0696 -0.2369
 9053SOL    HW131201   2.895   8.531   4.476 -0.0161  0.5965  0.0684
 9053SOL    HW231202   2.809   8.499   4.355  1.4617 -0.0822 -0.8384
 9054SOL     OW31203   0.132   0.614   4.885  0.4997 -0.6365 -0.2359
 9054SOL    HW131204   0.119   0.663   4.966  1.2455 -1.0353  0.1318
 9054SOL    HW231205   0.049   0.624   4.838  1.2164  2.5142 -1.0298
 9055SOL     OW31206   4.406   8.596   5.271 -0.0980  0.3296 -0.0737
 9055SOL    HW131207   4.473   8.624   5.332  0.5542 -2.2889  0.5171
 9055SOL    HW231208   4.342   8.667   5.270  1.1793  1.5475  1.6423
 9056SOL     OW31209   8.608   8.142   9.632  0.0448 -0.0182  0.1785
 9056SOL    HW131210   8.635   8.070   9.575 -1.3177 -0.9826  0.6804
 9056SOL    HW231211   8.671   8.141   9.704 -0.0274 -0.7951  0.2387
 9057SOL     OW31212   0.448   3.460   4.138 -0.1499  0.0364  0.4553
 9057SOL    HW131213   0.404   3.538   4.103 -0.2062 -0.5005 -0.6884
 9057SOL    HW231214   0.443   3.395   4.068  0.9004 -0.6333  0.9726
 9058SOL     OW31215   1.422   5.359   6.675 -0.5418 -0.8805 -0.2893
 9058SOL    HW131216   1.379   5.358   6.760  2.5093 -1.3576  1.4005
 9058SOL    HW231217   1.365   5.307   6.618 -2.5400 -0.7663  1.4995
 9059SOL     OW31218   1.251   3.866   5.762 -0.2423  0.1098  0.6434
 9059SOL    HW131219   1.304   3.917   5.822 -1.6323 -0.7691  2.7221
 9059SOL    HW231220   1.242   3.780   5.804 -1.4212 -0.4871 -0.7316
 9060SOL     OW31221   3.928   3.270   5.020  0.7964  0.1374  0.1216
 9060SOL    HW131222   3.897   3.187   4.983  1.3826 -0.4219  0.8517
 9060SOL    HW231223   3.861   3.294   5.084  0.1108  0.7702 -0.8054
 9061SOL     OW31224   5.071   8.054   1.830 -0.2653  0.0252  0.5907
 9061SOL    HW131225   5.108   8.102   1.756  0.1279 -1.8204 -0.4918
 9061SOL    HW231226   5.147   8.022   1.878 -0.5132  1.3529  1.9645
 9062SOL     OW31227   9.087   6.718   8.690  0.0588 -0.2110  0.1913
 9062SOL    HW131228   9.069   6.718   8.596 -1.2831 -0.4903  0.4246
 9062SOL    HW231229   9.129   6.802   8.707 -0.8720  0.4102 -0.4644
 9063SOL     OW31230   2.659   1.702   7.458 -0.0516 -0.3048  0.6170
 9063SOL    HW131231   2.636   1.775   7.515  0.1813 -0.6058  1.1095
 9063SOL    HW231232   2.717   1.739   7.392  1.0150 -0.2658  1.5526
 9064SOL     OW31233   7.103   9.331   6.441  0.2931 -0.0104  0.4541
 9064SOL    HW131234   7.024   9.375   6.408 -0.5733  0.1787  2.5813
 9064SOL    HW231235   7.167   9.402   6.451  0.4811 -0.0324 -0.5426
 9065SOL     OW31236   7.864   6.654   1.083  0.1302 -0.0095 -0.1504
 9065SOL    HW131237   7.814   6.736   1.079  1.1132  0.5803 -0.8905
 9065SOL    HW231238   7.934   6.672   1.145  0.8181 -0.0017 -0.9088
 9066SOL     OW31239   5.378   8.011   2.189 -0.1658 -0.2804 -0.6663
 9066SOL    HW131240   5.313   8.073   2.157 -1.7767 -1.0537  0.9438
 9066SOL    HW231241   5.396   8.039   2.279 -0.8761 -2.0496  0.0811
 9067SOL     OW31242   3.529   1.196   3.743 -0.1921 -0.7312 -0.0889
 9067SOL    HW131243   3.582   1.166   3.670 -0.1553 -0.0302 -0.3566
 9067SOL    HW231244   3.587   1.193   3.818  0.0623 -0.5049 -0.2760
 9068SOL     OW31245   1.753   9.224   0.818 -0.0008  0.1354 -0.6813
 9068SOL    HW131246   1.757   9.279   0.740 -0.8334 -0.5186 -1.2098
 9068SOL    HW231247   1.668   9.245   0.857 -0.1379 -0.4528 -0.6555
 9069SOL     OW31248   2.373   6.048  10.198 -0.2519  0.2420 -0.7835
 9069SOL    HW131249   2.325   6.120  10.157 -1.9346  0.3922  1.2272
 9069SOL    HW231250   2.405   6.085  10.280 -1.6004 -1.3398  0.5470
 9070SOL     OW31251   9.125   5.192   4.506 -0.7104  0.4852 -0.7000
 9070SOL    HW131252   9.059   5.179   4.438  0.2337 -0.4581 -1.4607
 9070SOL    HW231253   9.076   5.185   4.588 -2.2215  3.4503 -1.1991
 9071SOL     OW31254   7.824   8.205   3.671  0.2448 -0.5725 -0.4961
 9071SOL    HW131255   7.883   8.143   3.627 -0.7474 -1.9684  0.0770
 9071SOL    HW231256   7.744   8.204   3.617  0.0527 -0.1480 -0.2216
 9072SOL     OW31257  10.019   0.776   9.649  0.1809  0.3444  0.3182
 9072SOL    HW131258   9.992   0.772   9.558  0.1571  0.3387  0.3251
 9072SOL    HW231259  10.114   0.769   9.647  0.1131 -0.7906  0.3604
 9073SOL     OW31260   4.499   7.121   4.155  0.1848 -0.7025  0.1940
 9073SOL    HW131261   4.433   7.053   4.142 -1.6470  1.4860 -3.5490
 9073SOL    HW231262   4.458   7.181   4.218  0.0012 -0.9603  0.3241
 9074SOL     OW31263   0.355   3.258   3.625 -0.7852  0.1965  0.5117
 9074SOL    HW131264   0.426   3.284   3.566 -1.0134 -0.3215 -0.0010
 9074SOL    HW231265   0.325   3.340   3.664 -0.3746  0.5027  0.1941
 9075SOL     OW31266   6.524   9.958   8.105  0.7182  0.1928 -0.0787
 9075SOL    HW131267   6.506   9.998   8.020  1.9432 -0.0812 -0.4854
 9075SOL    HW231268   6.569  10.026   8.155  0.8526  0.0438  0.0058
 9076SOL     OW31269  10.155   0.492   9.501 -0.2589 -0.4762 -0.0369
 9076SOL    HW131270  10.213   0.431   9.548  0.6391 -1.4232 -2.2369
 9076SOL    HW231271  10.067   0.461   9.522  0.1202 -1.1361  0.6798
 9077SOL     OW31272   1.939  10.158   8.462  0.2347  0.1292  0.0312
 9077SOL    HW131273   1.993  10.147   8.384 -0.2368  0.1646 -0.3000
 9077SOL    HW231274   1.924  10.069   8.494 -1.5385 -0.0913 -1.2649
 9078SOL     OW31275   1.664  10.188   1.644 -0.2195  0.1390  0.8116
 9078SOL    HW131276   1.602  10.252   1.609 -1.6358 -1.0936  0.9933
 9078SOL    HW231277   1.626  10.162   1.728  1.2878  0.3861  1.6123
 9079SOL     OW31278   9.062   8.611   6.069 -0.2489 -0.6542 -0.1189
 9079SOL    HW131279   9.010   8.626   5.990  2.1946  0.9482 -1.5934
 9079SOL    HW231280   9.144   8.659   6.053  0.8981 -1.3655  2.8577
 9080SOL     OW31281   4.522   5.954   9.095  0.7327 -0.3782  0.1838
 9080SOL    HW131282   4.552   5.870   9.059  0.0330 -1.2132  1.4915
 9080SOL    HW231283   4.448   5.931   9.151  0.0520  1.2157 -0.0192
 9081SOL     OW31284   5.947   8.078   2.493 -0.4361 -0.3898 -0.2943
 9081SOL    HW131285   5.895   8.044   2.566 -1.2180  1.0486 -0.1367
 9081SOL    HW231286   5.893   8.148   2.457  1.2039  0.8809 -0.3983
 9082SOL     OW31287   7.503   3.412   2.868 -0.0585  0.1252  0.4049
 9082SOL    HW131288   7.581   3.454   2.832  0.0831 -0.8466 -0.4361
 9082SOL    HW231289   7.451   3.485   2.903  1.8104  0.6910  2.1886
 9083SOL     OW31290   4.795   3.282   1.055 -0.2802  0.3899 -0.0603
 9083SOL    HW131291   4.837   3.215   1.109  0.0793  0.2413 -0.5160
 9083SOL    HW231292   4.701   3.271   1.072 -0.1381  0.8537  1.1186
 9084SOL     OW31293   9.256   8.517   7.752 -0.1039 -0.0449 -0.4521
 9084SOL    HW131294   9.244   8.589   7.690 -2.5639  0.2272  0.2489
 9084SOL    HW231295   9.261   8.560   7.837  1.4716 -0.5427 -0.2625
 9085SOL     OW31296   8.921   1.589   7.638  0.6547 -0.5343 -0.5578
 9085SOL    HW131297   8.992   1.648   7.663  0.9887 -1.1320 -0.0856
 9085SOL    HW231298   8.845   1.646   7.630  1.4946  0.3879 -2.6521
 9086SOL     OW31299   9.028   5.926   0.239 -0.4863  0.2879  0.9277
 9086SOL    HW131300   8.987   5.848   0.201  0.2854  0.6720 -0.8073
 9086SOL    HW231301   9.027   5.910   0.333 -0.7045 -1.6487  0.6483
 9087SOL     OW31302   3.663   2.408   7.264  0.6555 -0.2434  0.2366
 9087SOL    HW131303   3.712   2.386   7.185 -1.0565 -0.3278 -0.8659
 9087SOL    HW231304   3.679   2.336   7.324  2.0728 -0.1220  0.0319
 9088SOL     OW31305   0.115   1.719   7.866  0.2417  0.4746  0.0986
 9088SOL    HW131306   0.151   1.644   7.819  1.4266  0.1326  1.4868
 9088SOL    HW231307   0.024   1.722   7.839  0.8212  0.1993 -2.0729
 9089SOL     OW31308   9.982   8.868   8.599  0.1833 -0.2415 -0.5666
 9089SOL    HW131309   9.935   8.899   8.521  0.8737  1.9879 -0.1769
 9089SOL    HW231310   9.923   8.888   8.672  1.4299  2.2922 -0.1043
 9090SOL     OW31311   9.226   1.235   6.801  0.2914  0.2767  0.7781
 9090SOL    HW131312   9.250   1.318   6.760  1.5604  0.0983  1.1148
 9090SOL    HW231313   9.254   1.244   6.892 -3.3349  1.0320  2.0130
 9091SOL     OW31314   1.588   6.600   4.812 -0.3658  0.3905 -0.2697
 9091SOL    HW131315   1.494   6.586   4.800 -0.2576  0.0943 -0.8080
 9091SOL    HW231316   1.609   6.552   4.892 -0.2749 -1.4388 -1.3328
 9092SOL     OW31317   8.505   5.078   5.577 -0.0359  0.1832  0.3994
 9092SOL    HW131318   8.597   5.075   5.552 -0.1645 -1.3487 -0.0325
 9092SOL    HW231319   8.464   5.132   5.509  0.2638 -0.6601 -0.4787
 9093SOL     OW31320  10.212   0.829   5.969 -0.1610 -0.1033 -0.0668
 9093SOL    HW131321  10.203   0.905   5.911 -0.9984 -0.6227 -0.6485
 9093SOL    HW231322  10.276   0.856   6.035 -0.0104  0.8936 -0.6029
 9094SOL     OW31323   6.328   9.365   8.858 -0.4157 -0.3419  0.3070
 9094SOL    HW131324   6.395   9.345   8.924  0.8441  2.8018  0.1754
 9094SOL    HW231325   6.257   9.405   8.907 -0.0707  0.7318 -0.0334
 9095SOL     OW31326   4.172   9.062   1.719  0.5108 -0.2720 -0.3149
 9095SOL    HW131327   4.182   8.984   1.665  0.4288 -0.1872 -0.4579
 9095SOL    HW231328   4.210   9.132   1.666 -0.6446  0.0193 -0.7839
 9096SOL     OW31329   4.844   3.941   1.584  0.6693 -0.1239 -0.3172
 9096SOL    HW131330   4.785   3.941   1.508  1.1742  0.6560 -0.7290
 9096SOL    HW231331   4.927   3.910   1.549  0.1759 -2.6843  0.5801
 9097SOL     OW31332   4.975   1.521   2.669  0.1641 -0.1210 -0.5870
 9097SOL    HW131333   4.950   1.470   2.747  0.0107  0.1464 -0.4619
 9097SOL    HW231334   5.028   1.593   2.703  1.0732 -0.6524 -0.8455
 9098SOL     OW31335   8.027   1.552   3.026  0.4842 -0.3944  0.1138
 9098SOL    HW131336   8.028   1.469   3.074  0.9331  0.1715  1.1234
 9098SOL    HW231337   7.989   1.614   3.088  0.7507  0.2829 -0.3950
 9099SOL     OW31338   2.157   2.634   6.278  0.1687 -0.4115  0.4370
 9099SOL    HW131339   2.188   2.554   6.321 -1.0555  0.0417  2.2672
 9099SOL    HW231340   2.101   2.603   6.207 -0.7826 -1.2050  1.5082
 9100SOL     OW31341   9.144   4.911   1.662 -0.4341  0.0246  0.2459
 9100SOL    HW131342   9.156   4.883   1.753 -0.0874  1.7943  0.7810
 9100SOL    HW231343   9.123   4.830   1.615  2.1267 -1.4509  1.3691
 9101SOL     OW31344   6.602   6.812   5.928 -0.7978 -0.1380  0.6365
 9101SOL    HW131345   6.680   6.848   5.970  0.1086  0.1504 -1.1811
 9101SOL    HW231346   6.614   6.717   5.933 -0.0682 -0.0956 -0.0368
 9102SOL     OW31347   6.459   2.864   9.627  0.2769  0.2303  0.0921
 9102SOL    HW131348   6.471   2.944   9.679  1.0735  0.1675  0.0184
 9102SOL    HW231349   6.463   2.895   9.536  1.7030 -0.0232  0.0447
 9103SOL     OW31350   4.065   1.443  10.031  0.0373 -0.0813 -0.4370
 9103SOL    HW131351   4.099   1.366  10.077  1.0746  0.0671 -0.9422
 9103SOL    HW231352   4.104   1.517  10.077  0.3556  0.0941 -0.9842
 9104SOL     OW31353   7.174   4.287   6.376 -0.3315  0.3721  0.0444
 9104SOL    HW131354   7.155   4.373   6.415  0.2690  0.1452  0.8442
 9104SOL    HW231355   7.252   4.256   6.421 -1.1719 -1.1024  0.5509
 9105SOL     OW31356   3.556   2.579   6.132 -0.1520 -0.8509 -0.4082
 9105SOL    HW131357   3.604   2.638   6.075  0.1778  0.3096  1.0001
 9105SOL    HW231358   3.603   2.496   6.127  0.4955 -0.4543 -0.9836
 9106SOL     OW31359   9.338   8.195  10.013  0.0678  0.2781 -0.2268
 9106SOL    HW131360   9.400   8.245   9.961 -0.1372 -1.1314 -1.9118
 9106SOL    HW231361   9.254   8.238   9.999 -0.1301 -0.5379 -1.7727
 9107SOL     OW31362   9.093   9.193   2.729 -0.5554 -0.0012  0.8515
 9107SOL    HW131363   9.175   9.159   2.765 -0.2034 -0.5160 -0.3849
 9107SOL    HW231364   9.114   9.281   2.699 -0.4796 -0.0820  0.6610
 9108SOL     OW31365   5.742   1.819   7.394  0.3380  0.0856 -0.1612
 9108SOL    HW131366   5.806   1.761   7.435  0.3319  0.3457  0.2219
 9108SOL    HW231367   5.682   1.761   7.347 -2.3389 -0.6617  3.7616
 9109SOL     OW31368   6.511   2.735   8.948 -0.4450  0.3753 -0.4786
 9109SOL    HW131369   6.581   2.692   8.996 -0.1303  1.1381 -0.2431
 9109SOL    HW231370   6.430   2.701   8.987 -0.2116 -0.4481 -0.7014
 9110SOL     OW31371   7.752   5.347   0.597 -0.1308  0.5024  0.0369
 9110SOL    HW131372   7.667   5.308   0.619  0.1548  0.0081  0.2660
 9110SOL    HW231373   7.806   5.334   0.675  0.1046  0.9799 -0.0390
 9111SOL     OW31374   9.017   7.241   0.346 -0.5346  0.0111  0.0328
 9111SOL    HW131375   9.062   7.325   0.351  0.4826 -0.5222  0.0582
 9111SOL    HW231376   8.933   7.256   0.391  0.0136  0.7552  0.8370
 9112SOL     OW31377   7.058   8.349   0.029 -0.9359  0.5984  0.2094
 9112SOL    HW131378   7.134   8.290   0.027 -0.2490  1.4788 -0.2051
 9112SOL    HW231379   7.058   8.385   0.118  1.0382  2.9736 -0.6477
 9113SOL     OW31380   9.963   0.911   8.548 -0.2107 -0.0979  0.1941
 9113SOL    HW131381   9.998   0.944   8.465 -1.9016 -0.2608 -0.6336
 9113SOL    HW231382  10.037   0.916   8.609  0.3080  2.9982 -0.4835
 9114SOL     OW31383   5.105   9.286   6.537  0.3150  0.2269  0.2342
 9114SOL    HW131384   5.020   9.245   6.552  0.7494 -0.6866  0.2737
 9114SOL    HW231385   5.111   9.298   6.442 -0.7456  2.3048  0.3607
 9115SOL     OW31386   5.645   0.826   3.141 -0.3301  0.2613 -0.0732
 9115SOL    HW131387   5.684   0.836   3.055 -0.7775 -1.2150 -0.4620
 9115SOL    HW231388   5.569   0.770   3.128 -0.0942 -0.4533  1.3647
 9116SOL     OW31389  10.006   5.713   7.767  0.0599  0.2197 -0.1886
 9116SOL    HW131390   9.968   5.801   7.760  0.4452  0.4758  0.8390
 9116SOL    HW231391  10.069   5.719   7.839  1.5732 -0.3746 -1.3986
 9117SOL     OW31392   9.655   6.342   3.566  0.3092 -0.4373  0.2268
 9117SOL    HW131393   9.615   6.274   3.511  2.0690 -1.2540 -0.0984
 9117SOL    HW231394   9.584   6.371   3.623 -1.6999  0.5892 -2.5264
 9118SOL     OW31395   0.556   0.819   8.848  0.4677  0.3410  0.0722
 9118SOL    HW131396   0.484   0.865   8.805  0.4216  1.7036  1.4838
 9118SOL    HW231397   0.633   0.871   8.829  0.7831 -0.1516 -0.0119
 9119SOL     OW31398   1.141   4.087   0.432 -0.1162 -0.3060  0.4882
 9119SOL    HW131399   1.111   4.085   0.341 -0.4264  0.0514  0.5783
 9119SOL    HW231400   1.186   4.171   0.440  1.9451 -1.3018  0.0422
 9120SOL     OW31401   6.373   8.317   6.560 -0.0804 -0.1139 -0.3063
 9120SOL    HW131402   6.362   8.346   6.469 -0.4152 -0.7523 -0.4739
 9120SOL    HW231403   6.305   8.364   6.608 -0.0248  0.0812 -0.4128
 9121SOL     OW31404   3.416   5.696   2.420  0.6907  0.2327 -0.0326
 9121SOL    HW131405   3.409   5.781   2.376 -1.1942 -0.2103 -0.6944
 9121SOL    HW231406   3.399   5.716   2.512  0.7446  0.6457 -0.1079
 9122SOL     OW31407   8.023   1.312   6.495 -0.1775 -0.0439  0.2488
 9122SOL    HW131408   7.938   1.287   6.460  0.1386 -0.2326 -0.4042
 9122SOL    HW231409   8.035   1.403   6.467 -0.1814 -0.0036  0.3772
 9123SOL     OW31410   2.026   4.314   3.360  0.1571 -0.0612  0.3419
 9123SOL    HW131411   1.986   4.394   3.395 -0.3583 -0.2175  0.1194
 9123SOL    HW231412   1.967   4.287   3.290 -0.1847 -1.1716  1.0489
 9124SOL     OW31413   5.417  10.276   6.017  0.2099  0.0450 -0.0706
 9124SOL    HW131414   5.441  10.183   6.018 -1.4536 -0.4293 -0.8115
 9124SOL    HW231415   5.349  10.282   5.950 -1.0625  1.4447  1.2662
 9125SOL     OW31416   9.330   3.712   8.926  0.0841 -0.3161  0.0500
 9125SOL    HW131417   9.267   3.650   8.962 -0.9068 -0.1005 -1.2363
 9125SOL    HW231418   9.365   3.669   8.848  1.5195 -0.4054  0.6970
 9126SOL     OW31419   3.158   9.060   4.065  0.1462 -0.2921  0.3532
 9126SOL    HW131420   3.217   9.041   3.992 -0.0327 -0.8285  0.3513
 9126SOL    HW231421   3.217   9.079   4.138  0.3764  1.9864 -0.3217
 9127SOL     OW31422   3.860   1.064   4.720  0.1797  0.8623 -0.2770
 9127SOL    HW131423   3.776   1.026   4.696 -0.2163  0.4546  1.5772
 9127SOL    HW231424   3.910   1.066   4.638 -1.4612  0.7129 -1.3278
 9128SOL     OW31425   1.190   3.045  10.010 -0.2928  0.3565  0.2694
 9128SOL    HW131426   1.121   3.091   9.961  2.6537  1.2727 -3.5105
 9128SOL    HW231427   1.256   3.112  10.026  1.6274 -1.3596 -0.2126
 9129SOL     OW31428   4.910  10.025   3.080  0.4538  0.6021  0.3379
 9129SOL    HW131429   4.933   9.933   3.071 -1.5663  0.1353 -0.8487
 9129SOL    HW231430   4.954  10.068   3.007  0.5514  0.3832  0.2667
 9130SOL     OW31431   9.588   0.651   9.303 -0.7349 -0.1092  0.5114
 9130SOL    HW131432   9.582   0.689   9.391 -1.7934 -2.3099  1.4687
 9130SOL    HW231433   9.568   0.724   9.244 -0.1160  1.3953  2.0574
 9131SOL     OW31434   9.096   0.802   2.350 -0.3091  0.3406 -0.0007
 9131SOL    HW131435   9.179   0.757   2.363 -1.2256 -1.0650  1.3888
 9131SOL    HW231436   9.046   0.745   2.292 -0.8115  0.4559  0.3057
 9132SOL     OW31437   4.116   2.701   0.885 -0.3340  1.5775 -0.1742
 9132SOL    HW131438   4.137   2.700   0.979  1.5011 -0.8970 -0.5037
 9132SOL    HW231439   4.038   2.646   0.878  1.2789 -0.8389 -0.3176
 9133SOL     OW31440   2.795   5.260   5.157 -0.4345  0.6744 -0.2389
 9133SOL    HW131441   2.753   5.229   5.077 -0.8288 -0.6168  0.4340
 9133SOL    HW231442   2.874   5.206   5.166 -0.9567  0.0324  0.7819
 9134SOL     OW31443   9.561   2.062   6.865  0.5162 -0.0653 -0.0028
 9134SOL    HW131444   9.490   2.039   6.805 -0.2825  0.4679  0.7118
 9134SOL    HW231445   9.516   2.085   6.946  1.1985  3.4727 -0.4393
 9135SOL     OW31446   5.183   1.396   1.495  0.1027 -0.0868 -0.1513
 9135SOL    HW131447   5.200   1.322   1.553 -0.2363 -2.5084 -2.8612
 9135SOL    HW231448   5.265   1.406   1.446 -0.0818  0.9130 -0.2635
 9136SOL     OW31449   3.930   5.728   1.743  0.3327  0.1912 -0.1621
 9136SOL    HW131450   3.888   5.714   1.828  0.1933 -0.3025 -0.3081
 9136SOL    HW231451   4.014   5.768   1.764 -0.0414  0.8269  0.1570
 9137SOL     OW31452  10.076   5.602   1.896 -0.6341  0.1298  0.1179
 9137SOL    HW131453  10.168   5.614   1.873 -0.3513 -0.2841  1.0012
 9137SOL    HW231454  10.035   5.575   1.814  0.1344 -0.2129 -0.1662
 9138SOL     OW31455   9.507   7.351   1.477  0.3110 -0.3986  0.3827
 9138SOL    HW131456   9.420   7.343   1.438  0.3986 -0.1278  0.1303
 9138SOL    HW231457   9.500   7.425   1.537  0.0151 -1.1784  1.3231
 9139SOL     OW31458   4.619   5.357   1.530  0.2406 -0.1926  0.0009
 9139SOL    HW131459   4.543   5.344   1.473  0.7212 -0.0206 -0.7022
 9139SOL    HW231460   4.674   5.420   1.483  0.6994 -0.1224  0.6135
 9140SOL     OW31461   4.474   3.169   9.346  0.1548 -0.1911 -0.0885
 9140SOL    HW131462   4.545   3.111   9.319 -1.4987 -1.7507 -1.2616
 9140SOL    HW231463   4.472   3.238   9.279  0.6005 -0.0897  0.0005
 9141SOL     OW31464   5.138   3.866   7.201 -0.2795 -0.0947  0.3692
 9141SOL    HW131465   5.066   3.846   7.261 -0.6974 -0.9963 -0.4101
 9141SOL    HW231466   5.113   3.823   7.119  1.7645 -1.5860  0.4633
 9142SOL     OW31467   2.964   9.762   9.524 -0.0329  0.2085  0.6055
 9142SOL    HW131468   2.994   9.851   9.509  0.7060  0.0147  0.9023
 9142SOL    HW231469   2.978   9.717   9.440 -1.4194  0.6396  0.1225
 9143SOL     OW31470   0.999   3.413   1.862  0.0768 -0.2499 -0.0044
 9143SOL    HW131471   0.968   3.494   1.821  0.0221 -0.5266 -0.5150
 9143SOL    HW231472   0.956   3.411   1.947 -1.2173 -0.5618 -0.6437
 9144SOL     OW31473   5.757   0.769   2.400  0.0980  0.0355  0.2370
 9144SOL    HW131474   5.766   0.677   2.425 -0.5106 -0.1089 -0.0588
 9144SOL    HW231475   5.839   0.810   2.430 -0.3221 -0.2474  1.8613
 9145SOL     OW31476   5.881   5.452   1.238  0.0058 -0.3461  0.0607
 9145SOL    HW131477   5.907   5.536   1.199  0.1168  0.3614  1.5547
 9145SOL    HW231478   5.906   5.461   1.331 -2.4334 -0.9853  0.8387
 9146SOL     OW31479   0.693   0.844   9.887 -0.4220 -0.2361 -0.3782
 9146SOL    HW131480   0.771   0.820   9.835  0.1847 -0.0045  0.4026
 9146SOL    HW231481   0.637   0.890   9.825  0.4120  0.2829 -0.7692
 9147SOL     OW31482   7.528   1.777   2.623 -0.2353  0.3244  0.2004
 9147SOL    HW131483   7.442   1.796   2.660 -0.3913  1.4951 -0.6929
 9147SOL    HW231484   7.574   1.731   2.693 -1.6313 -0.4874  0.6362
 9148SOL     OW31485   3.139   0.415   9.959 -0.0617 -1.1100 -0.0539
 9148SOL    HW131486   3.068   0.443   9.902  1.0314  1.4874 -0.2927
 9148SOL    HW231487   3.098   0.406  10.045 -0.6899  0.6634 -0.1193
 9149SOL     OW31488   4.656   8.719   1.150  0.0692  0.7111  0.0886
 9149SOL    HW131489   4.568   8.755   1.136  0.2942  0.9322 -0.8760
 9149SOL    HW231490   4.702   8.740   1.069  0.8878  0.2301  0.4291
 9150SOL     OW31491   6.515   7.974   4.840  0.5864 -0.1227 -0.1548
 9150SOL    HW131492   6.601   7.945   4.811  0.5063  1.0530 -1.7319
 9150SOL    HW231493   6.533   8.033   4.913  0.8429 -2.6349  1.9250
 9151SOL     OW31494   1.020   2.095   3.991  0.1187  0.2228  0.1339
 9151SOL    HW131495   0.987   2.144   3.916  3.6993  0.6640 -1.3262
 9151SOL    HW231496   1.034   2.007   3.958 -0.6106 -0.2538  1.0515
 9152SOL     OW31497  10.137   8.074   5.140  0.6131 -0.5043 -0.2920
 9152SOL    HW131498  10.207   8.138   5.154  0.1052  0.8933 -3.2489
 9152SOL    HW231499  10.182   7.995   5.109  1.0601 -0.6378  0.6834
 9153SOL     OW31500   4.595   5.418   1.002  0.0693 -0.2331 -0.0279
 9153SOL    HW131501   4.605   5.326   0.979  0.5186  0.0645 -1.1516
 9153SOL    HW231502   4.509   5.443   0.967  0.9129  0.3162 -1.8836
 9154SOL     OW31503   4.807  10.018   6.931  0.3320 -0.0585 -0.5197
 9154SOL    HW131504   4.783   9.927   6.916 -0.1587 -0.1600  0.8301
 9154SOL    HW231505   4.750  10.047   7.002  2.6435  0.3549  1.2800
 9155SOL     OW31506   2.156   3.164   5.184 -0.0243  0.0420 -0.2226
 9155SOL    HW131507   2.068   3.129   5.171 -0.5891  1.7106 -1.0611
 9155SOL    HW231508   2.214   3.091   5.160 -1.1458 -0.9291 -0.0857
 9156SOL     OW31509   9.069   2.749   2.727 -0.7448 -0.0891  0.4531
 9156SOL    HW131510   9.002   2.818   2.725 -0.8967 -0.2468  0.0234
 9156SOL    HW231511   9.133   2.781   2.791 -1.3514 -0.0530  1.0681
 9157SOL     OW31512   1.335   2.428   2.159 -0.0808  0.4084  0.2371
 9157SOL    HW131513   1.417   2.478   2.167 -0.0442  0.7158 -1.6167
 9157SOL    HW231514   1.351   2.368   2.086 -0.9661 -0.6579  0.9078
 9158SOL     OW31515   5.407   8.437   2.185 -0.0445 -0.0825 -0.1622
 9158SOL    HW131516   5.330   8.463   2.236 -0.1730  0.5227 -0.6431
 9158SOL    HW231517   5.481   8.473   2.234 -0.1968  0.8738 -0.6089
 9159SOL     OW31518   6.478   8.477   0.849 -0.6609  0.2242 -0.3591
 9159SOL    HW131519   6.525   8.525   0.917 -2.3527  0.8491  0.4374
 9159SOL    HW231520   6.493   8.385   0.871  0.4216  0.3915 -0.3217
 9160SOL     OW31521   6.347   1.552   9.357 -0.0799 -0.0185 -0.8479
 9160SOL    HW131522   6.401   1.615   9.309  1.1560 -0.7616 -0.4758
 9160SOL    HW231523   6.392   1.540   9.440  0.3091 -2.1789 -1.3090
 9161SOL     OW31524   1.204   5.231   6.235 -0.3308 -0.4297  0.0847
 9161SOL    HW131525   1.158   5.148   6.243 -0.5838 -0.2350  0.7027
 9161SOL    HW231526   1.270   5.216   6.168 -0.2993 -1.1587  0.2767
 9162SOL     OW31527   4.005   8.605   6.174 -0.3486 -0.0279 -0.5596
 9162SOL    HW131528   4.063   8.637   6.106  1.1250 -1.4199 -0.0245
 9162SOL    HW231529   4.061   8.552   6.230 -1.4661  1.2340  1.8827
 9163SOL     OW31530   0.674   7.226   6.680 -0.3810  0.0586  0.4293
 9163SOL    HW131531   0.695   7.139   6.646 -0.2448  0.2577  0.0031
 9163SOL    HW231532   0.750   7.279   6.659 -0.6503  0.3934  0.2921
 9164SOL     OW31533   1.390   0.709   9.301  0.7662  0.2704 -0.2775
 9164SOL    HW131534   1.326   0.648   9.262 -0.7782  1.4159  0.3373
 9164SOL    HW231535   1.355   0.727   9.389  2.0250  0.8307  0.1238
 9165SOL     OW31536   4.849   7.413   5.304  0.3474 -0.2139  0.3872
 9165SOL    HW131537   4.915   7.369   5.358  0.6229 -0.0410  0.1933
 9165SOL    HW231538   4.790   7.342   5.276  0.3280 -0.3357  0.7327
 9166SOL     OW31539   4.407   0.060   5.019 -0.3302  0.3422 -0.4127
 9166SOL    HW131540   4.410  -0.029   5.055 -1.1510 -0.2639 -1.7587
 9166SOL    HW231541   4.471   0.109   5.071 -0.8258 -0.6914  1.2493
 9167SOL     OW31542   9.601   1.603   4.033  0.1568  0.1696  0.2995
 9167SOL    HW131543   9.558   1.643   4.109  0.0695  1.3440 -0.3434
 9167SOL    HW231544   9.585   1.509   4.043  0.1597  0.3041  1.7293
 9168SOL     OW31545   1.916   4.187   9.542 -0.0353  0.3215  0.1362
 9168SOL    HW131546   1.838   4.239   9.557  0.6814  1.4188  0.1438
 9168SOL    HW231547   1.980   4.219   9.606  1.1240  0.9682 -1.2776
 9169SOL     OW31548   5.503   4.975   4.970 -0.3922  0.3056  0.0686
 9169SOL    HW131549   5.594   4.949   4.954 -0.2436 -0.1264  1.4495
 9169SOL    HW231550   5.461   4.969   4.885  0.5388 -0.8634 -0.3353
 9170SOL     OW31551   4.037   2.239   9.302  0.2152  0.4967  0.1840
 9170SOL    HW131552   3.946   2.266   9.306  0.8358  2.6681  0.8112
 9170SOL    HW231553   4.073   2.288   9.228  0.4431 -1.9491 -1.4573
 9171SOL     OW31554   8.884   2.452   7.861  0.2701  0.2529  0.1459
 9171SOL    HW131555   8.858   2.422   7.948 -1.9021 -2.4710 -1.2888
 9171SOL    HW231556   8.818   2.517   7.837 -0.1099 -0.2323 -0.1199
 9172SOL     OW31557   9.634  10.062   2.559  0.3639 -0.0095 -0.4852
 9172SOL    HW131558   9.692  10.137   2.575 -1.2432  1.1614  0.1391
 9172SOL    HW231559   9.555  10.081   2.610 -1.4987 -0.4241 -3.0060
 9173SOL     OW31560   4.644   3.298   0.454 -0.3286  0.3784  0.2569
 9173SOL    HW131561   4.676   3.354   0.383 -0.2847 -0.3272 -0.2807
 9173SOL    HW231562   4.609   3.221   0.410 -0.4388  0.0015  0.9975
 9174SOL     OW31563   2.097   6.833   9.853 -0.6284 -0.1478  0.2732
 9174SOL    HW131564   2.174   6.863   9.903 -0.6802 -0.1984  0.3834
 9174SOL    HW231565   2.127   6.832   9.762 -1.1531  1.9928  0.0123
 9175SOL     OW31566   9.590   5.391   6.103 -0.1478 -0.0014 -0.5159
 9175SOL    HW131567   9.585   5.333   6.027 -0.4797 -1.4376  0.5684
 9175SOL    HW231568   9.572   5.478   6.067  0.0954 -0.5796 -2.1405
 9176SOL     OW31569   5.773  10.104   7.004 -0.1523 -0.0462 -0.9234
 9176SOL    HW131570   5.683  10.135   7.006  0.0806  0.6401 -0.5859
 9176SOL    HW231571   5.820  10.162   7.065 -0.2386 -2.9403  2.1402
 9177SOL     OW31572   2.234   2.467   4.396  0.0637 -0.4236  0.0043
 9177SOL    HW131573   2.295   2.531   4.434 -1.5002  0.8543  0.4356
 9177SOL    HW231574   2.246   2.389   4.450  0.0446  0.3905  1.2211
 9178SOL     OW31575   1.973   4.005  10.173  0.3444 -0.0295  0.3185
 9178SOL    HW131576   1.987   4.036  10.084 -1.0205 -0.6334 -0.1299
 9178SOL    HW231577   2.013   3.918  10.174  1.2753  0.3863  0.6202
 9179SOL     OW31578   3.470   6.611   4.500 -0.1777 -0.3316  0.2839
 9179SOL    HW131579   3.469   6.531   4.553 -0.0462  0.1288  0.9947
 9179SOL    HW231580   3.422   6.675   4.552  1.4741  0.6413  0.6845
 9180SOL     OW31581   0.725   6.854   9.059  0.3734 -0.0240  0.6699
 9180SOL    HW131582   0.793   6.904   9.014 -0.4278  0.6637  0.1923
 9180SOL    HW231583   0.736   6.876   9.152 -0.7411  2.0676  0.3613
 9181SOL     OW31584   5.145   6.814  10.092 -0.0834  0.7331 -0.1122
 9181SOL    HW131585   5.108   6.813  10.004  1.7091 -0.6443 -0.9094
 9181SOL    HW231586   5.143   6.723  10.121  0.7182  0.9449  0.6617
 9182SOL     OW31587   3.625   5.875   8.977  0.0859  0.4242 -0.3865
 9182SOL    HW131588   3.618   5.827   9.059 -1.9160  0.6022 -0.4021
 9182SOL    HW231589   3.534   5.898   8.955  0.5026 -0.1156 -2.9508
 9183SOL     OW31590   3.711   6.175   8.252  0.1760  0.2324  0.1266
 9183SOL    HW131591   3.650   6.234   8.296  1.2755  0.5143  1.3196
 9183SOL    HW231592   3.795   6.222   8.251  0.1601  0.4020 -2.6082
 9184SOL     OW31593   9.899   2.963   1.768 -0.3951 -0.0318 -0.0915
 9184SOL    HW131594   9.898   2.900   1.839  0.6086 -0.4921 -0.4678
 9184SOL    HW231595   9.824   3.020   1.785 -0.7799 -0.7728  0.7452
 9185SOL     OW31596   1.037   2.070   7.196  0.0704 -0.0459 -0.1560
 9185SOL    HW131597   1.112   2.129   7.187  0.8659 -0.7612  1.4317
 9185SOL    HW231598   1.067   1.988   7.158 -1.3098  0.6516 -3.1190
 9186SOL     OW31599   2.679   0.536   6.002 -0.6597 -0.7545  0.5321
 9186SOL    HW131600   2.655   0.604   5.939 -0.0687 -1.0161  0.0138
 9186SOL    HW231601   2.668   0.454   5.954 -1.4094 -1.0387  1.1655
 9187SOL     OW31602   2.095   5.615   9.269 -0.1278  0.1659 -0.5273
 9187SOL    HW131603   2.186   5.642   9.277  0.1804 -0.4607 -1.7635
 9187SOL    HW231604   2.046   5.697   9.268  0.6569  0.6653 -2.4805
 9188SOL     OW31605   4.240   4.214   7.812 -0.1910 -0.5800 -0.3100
 9188SOL    HW131606   4.238   4.297   7.765 -1.7503  1.1190  2.4803
 9188SOL    HW231607   4.327   4.177   7.793  1.6889  3.0151  0.4469
 9189SOL     OW31608   6.134   0.408  10.076  0.6298 -0.0478  0.8770
 9189SOL    HW131609   6.071   0.469  10.115 -0.2600  0.2814 -0.9716
 9189SOL    HW231610   6.080   0.334  10.048  1.4053 -0.7651  1.2509
 9190SOL     OW31611   9.077   8.852   4.765 -0.2908  0.6818 -0.0161
 9190SOL    HW131612   9.013   8.810   4.707  2.2244  0.6400 -2.9991
 9190SOL    HW231613   9.128   8.909   4.708  1.6054  1.6228  2.4354
 9191SOL     OW31614   9.083   6.080   4.871 -0.8095 -0.0523  0.0641
 9191SOL    HW131615   9.030   6.001   4.856 -0.5613 -0.2996  0.4637
 9191SOL    HW231616   9.079   6.128   4.788 -3.0768  0.7853  0.5651
 9192SOL     OW31617   8.055   1.925  10.167 -0.0177  0.0617  0.2476
 9192SOL    HW131618   8.008   2.007  10.158 -0.8702 -0.5926 -2.2671
 9192SOL    HW231619   8.128   1.932  10.104  0.8201 -0.5298  1.1159
 9193SOL     OW31620   7.429   9.389   6.303 -0.3031 -0.3164 -0.0405
 9193SOL    HW131621   7.507   9.339   6.328  0.3987  0.8601  0.1788
 9193SOL    HW231622   7.382   9.331   6.243  1.1659 -0.7113 -0.8550
 9194SOL     OW31623   0.455   2.656  10.018  0.0616  0.0473  0.2957
 9194SOL    HW131624   0.459   2.585   9.954 -0.0575 -1.3399  1.7974
 9194SOL    HW231625   0.405   2.620  10.091 -0.4109  1.8370  0.9007
 9195SOL     OW31626   6.997   0.432   6.872  0.2336  0.2595 -0.1972
 9195SOL    HW131627   6.919   0.457   6.921  0.5470  2.8495 -0.8785
 9195SOL    HW231628   7.066   0.424   6.939 -0.0597  0.5524  0.1454
 9196SOL     OW31629   3.009   9.640   3.072 -0.1289 -0.0479  0.1290
 9196SOL    HW131630   3.018   9.584   2.995  0.0824 -1.8536  1.3870
 9196SOL    HW231631   2.937   9.600   3.121 -0.9239  1.6532  0.4256
 9197SOL     OW31632   7.192   9.158   2.191  0.0629  0.2517 -0.0781
 9197SOL    HW131633   7.246   9.190   2.118 -1.0566  1.4215 -0.4303
 9197SOL    HW231634   7.170   9.237   2.240  0.7525 -0.5209  1.5147
 9198SOL     OW31635   9.078   5.922   9.387 -0.3975 -0.2695  0.4206
 9198SOL    HW131636   9.061   5.988   9.454 -0.3845  0.6241 -0.4215
 9198SOL    HW231637   9.025   5.949   9.312  0.4693 -0.5686 -0.3319
 9199SOL     OW31638   7.465   7.587   3.072  0.0377 -0.0732 -0.3780
 9199SOL    HW131639   7.378   7.556   3.048 -0.5825  0.6084  0.9256
 9199SOL    HW231640   7.457   7.682   3.074  1.5985  0.2142 -3.1170
 9200SOL     OW31641   3.495   1.760   0.419 -0.2552 -0.0708 -0.3004
 9200SOL    HW131642   3.514   1.807   0.338 -2.3043  0.1815 -0.7046
 9200SOL    HW231643   3.423   1.810   0.458  0.0925 -0.7157  1.2245
 9201SOL     OW31644   4.540   9.039   4.925  0.0503 -0.1319  0.1894
 9201SOL    HW131645   4.529   8.971   4.991  0.8395 -0.3440  0.1103
 9201SOL    HW231646   4.469   9.100   4.941 -1.9688 -1.9996 -1.0077
 9202SOL     OW31647   8.227   5.165   8.163 -0.4739  0.5214 -0.0319
 9202SOL    HW131648   8.252   5.181   8.072 -0.7033 -0.6095 -0.3103
 9202SOL    HW231649   8.290   5.101   8.195 -2.2280 -1.5455 -0.4127
 9203SOL     OW31650   2.202   9.638   2.110  0.6395  0.0572 -0.3925
 9203SOL    HW131651   2.136   9.625   2.041  0.9151  0.6761 -0.7808
 9203SOL    HW231652   2.257   9.709   2.078  1.3099 -0.2354  0.0779
 9204SOL     OW31653   1.903   7.476   7.119 -0.4292 -0.5467  0.2851
 9204SOL    HW131654   1.818   7.479   7.163 -0.4254 -0.7042  0.3056
 9204SOL    HW231655   1.899   7.396   7.066  0.2382 -1.3318  1.3746
 9205SOL     OW31656   1.304   8.638   0.256 -0.2019  0.2920  0.1887
 9205SOL    HW131657   1.377   8.693   0.228  0.8334 -0.3743  1.4906
 9205SOL    HW231658   1.344   8.569   0.307 -1.7302 -0.2548  0.7008
 9206SOL     OW31659   3.581   3.378   2.280 -0.2533  0.2745 -0.3837
 9206SOL    HW131660   3.653   3.374   2.343 -1.3581 -1.0715  0.8713
 9206SOL    HW231661   3.512   3.323   2.318 -1.4618  0.4490 -2.1687
 9207SOL     OW31662   9.829   8.260   2.723  0.4450  0.1162 -0.6879
 9207SOL    HW131663   9.899   8.298   2.671  1.0340 -1.7492 -1.3506
 9207SOL    HW231664   9.858   8.272   2.814  0.5143  1.3377 -0.8521
 9208SOL     OW31665   8.047   1.639   6.207 -0.2230 -0.5793 -0.1866
 9208SOL    HW131666   8.069   1.727   6.178  2.2090 -1.1945 -0.4541
 9208SOL    HW231667   7.978   1.610   6.147  0.3364  0.4366 -1.3639
 9209SOL     OW31668   9.908   4.316   7.879 -0.0257 -0.3584 -0.5085
 9209SOL    HW131669   9.982   4.375   7.863 -0.5230  0.2066 -0.7865
 9209SOL    HW231670   9.912   4.297   7.973 -0.8459  1.4997 -0.0517
 9210SOL     OW31671   4.965   2.220   1.796  0.0402  0.2767 -0.2153
 9210SOL    HW131672   4.968   2.149   1.860 -0.2903  0.2606 -0.2158
 9210SOL    HW231673   5.055   2.228   1.765  0.3338  0.6895  0.6929
 9211SOL     OW31674   2.665   0.367   7.668  0.0502  0.3002 -0.0992
 9211SOL    HW131675   2.717   0.295   7.633 -0.4140 -0.9471  1.6532
 9211SOL    HW231676   2.650   0.344   7.759  1.5576  3.5659  1.1242
 9212SOL     OW31677   7.294  10.169   5.715 -0.3879 -0.3430  0.3804
 9212SOL    HW131678   7.355  10.132   5.779 -1.4125 -0.6327  1.2116
 9212SOL    HW231679   7.345  10.176   5.634  0.4747 -1.4456  0.8095
 9213SOL     OW31680   2.553   1.755   2.558  0.2073  0.0936  0.0341
 9213SOL    HW131681   2.591   1.672   2.529  1.1910  0.4252  0.3070
 9213SOL    HW231682   2.552   1.810   2.480  1.0437  0.3372  0.1765
 9214SOL     OW31683   4.555   5.332   4.639  0.2104 -0.3080 -0.3850
 9214SOL    HW131684   4.631   5.276   4.652  0.1957 -0.1935  0.2187
 9214SOL    HW231685   4.552   5.346   4.544  1.2680  0.1298 -0.3754
 9215SOL     OW31686   1.673   5.125   5.147 -0.2050  0.0475  0.2321
 9215SOL    HW131687   1.611   5.170   5.089 -2.9033  0.0618  2.9028
 9215SOL    HW231688   1.670   5.034   5.118 -1.7108  0.0010  0.4208
 9216SOL     OW31689   2.105   7.829   8.876  0.3532 -0.3452 -0.1283
 9216SOL    HW131690   2.072   7.884   8.947  0.9849  1.2456 -1.0095
 9216SOL    HW231691   2.194   7.860   8.860  0.7365 -1.6474 -0.6672
 9217SOL     OW31692   5.284   3.444   6.160 -0.7663  0.6200 -0.3347
 9217SOL    HW131693   5.298   3.350   6.148  0.2272  0.5524  1.0295
 9217SOL    HW231694   5.253   3.475   6.075  1.5621 -0.4508 -1.6867
 9218SOL     OW31695   4.056   4.201   2.757 -0.4595  0.0268 -0.2422
 9218SOL    HW131696   4.005   4.128   2.720  0.0313  0.3869 -1.7020
 9218SOL    HW231697   4.136   4.159   2.791  0.1474 -0.0604 -1.7184
 9219SOL     OW31698   3.432   4.561   2.322 -0.2668  0.7519 -0.7234
 9219SOL    HW131699   3.435   4.618   2.244  1.0503  3.6518  1.2524
 9219SOL    HW231700   3.362   4.599   2.375  1.8808  1.8788  1.4933
 9220SOL     OW31701   2.961  10.041   9.251 -0.6055 -0.0779 -0.2884
 9220SOL    HW131702   2.949  10.122   9.301 -2.8227 -0.6212  0.1691
 9220SOL    HW231703   3.003  10.069   9.170 -1.5679  1.5770 -0.2515
 9221SOL     OW31704   4.404  10.177   3.701  0.4308  0.1496 -0.0349
 9221SOL    HW131705   4.433  10.258   3.659  0.5394  0.6809  1.0410
 9221SOL    HW231706   4.379  10.120   3.628  2.8756  0.1448 -0.9725
 9222SOL     OW31707   3.295   7.758   5.170 -0.0132 -0.0665  0.1898
 9222SOL    HW131708   3.390   7.759   5.161 -0.1329  1.5187 -1.2244
 9222SOL    HW231709   3.264   7.711   5.093 -0.3985 -0.1631  0.4026
 9223SOL     OW31710   6.086   2.505   9.577 -0.3484 -0.2088 -0.3791
 9223SOL    HW131711   6.165   2.539   9.620  1.3129 -1.5594 -2.1599
 9223SOL    HW231712   6.034   2.468   9.648  0.4071  1.0502  0.8953
 9224SOL     OW31713   3.985   1.813   5.749  0.2018  0.1855 -0.4102
 9224SOL    HW131714   3.967   1.788   5.658  1.5518  0.4526 -0.7739
 9224SOL    HW231715   3.980   1.908   5.749 -0.0962  0.1675 -0.1399
 9225SOL     OW31716   4.964   4.419   8.959 -1.0496 -0.1395 -0.7859
 9225SOL    HW131717   5.015   4.338   8.950  2.3742  1.8349 -1.1475
 9225SOL    HW231718   4.929   4.416   9.048  1.9567 -0.6116  0.5263
 9226SOL     OW31719   4.276   2.702   5.493 -0.2055  0.5314 -0.0069
 9226SOL    HW131720   4.369   2.699   5.470 -0.2521 -0.8646 -0.1297
 9226SOL    HW231721   4.275   2.712   5.588  0.0674  0.6803 -0.0176
 9227SOL     OW31722   1.022   1.445   0.636  1.0964 -0.3283 -0.2222
 9227SOL    HW131723   1.097   1.500   0.615  0.4320  0.0608 -1.7090
 9227SOL    HW231724   1.047   1.358   0.605  1.8339 -0.7233  1.4109
 9228SOL     OW31725   5.800   9.293   7.131  0.4681 -0.0608  0.3025
 9228SOL    HW131726   5.759   9.379   7.123 -0.7235 -0.3602  2.4712
 9228SOL    HW231727   5.869   9.293   7.064 -1.8447  1.1578 -2.2637
 9229SOL     OW31728   7.760   5.824   9.507  0.8851  0.1452  0.2265
 9229SOL    HW131729   7.761   5.728   9.504  1.5317  0.1634 -0.6937
 9229SOL    HW231730   7.809   5.847   9.585 -0.6645 -0.2763  1.3745
 9230SOL     OW31731   3.567   3.744   7.852  0.4603  0.1121  0.0211
 9230SOL    HW131732   3.541   3.653   7.834 -0.5056  0.3764  0.0221
 9230SOL    HW231733   3.592   3.779   7.767 -1.3012  0.4850 -0.3981
 9231SOL     OW31734   7.534   3.338   7.416 -0.3480 -0.5910  0.4143
 9231SOL    HW131735   7.621   3.339   7.376 -0.2751 -1.8612  0.5017
 9231SOL    HW231736   7.534   3.261   7.472 -1.1731  0.0027  1.2606
 9232SOL     OW31737   3.515   0.788   3.155 -0.0646  0.7618  0.4813
 9232SOL    HW131738   3.524   0.820   3.065  0.7785 -0.3620  0.1405
 9232SOL    HW231739   3.599   0.745   3.174 -0.4718  0.4150  1.5696
 9233SOL     OW31740   2.425   8.010   0.724  0.1782 -0.4147  0.3542
 9233SOL    HW131741   2.481   8.041   0.653  1.4401 -1.0001  1.0560
 9233SOL    HW231742   2.413   8.087   0.780 -0.3842 -0.0866 -0.2136
 9234SOL     OW31743   8.382   8.663   3.833 -0.0763  0.5561 -0.1123
 9234SOL    HW131744   8.386   8.707   3.918  1.5009  0.7124 -0.2294
 9234SOL    HW231745   8.314   8.710   3.785 -0.0098  1.3825  0.5753
 9235SOL     OW31746   8.122   2.458   3.295 -0.2753 -0.0739 -0.0563
 9235SOL    HW131747   8.210   2.444   3.259  0.7009  2.1678  1.2553
 9235SOL    HW231748   8.108   2.384   3.354 -0.2888 -1.6903 -1.9908
 9236SOL     OW31749   2.049   4.297   3.880  0.0051  0.0606 -0.7377
 9236SOL    HW131750   2.016   4.280   3.968  1.6126 -1.6437 -0.3885
 9236SOL    HW231751   2.135   4.336   3.895  0.0216  0.3504 -1.5599
 9237SOL     OW31752   2.804   8.113   1.465 -0.3055 -0.2150  0.1292
 9237SOL    HW131753   2.770   8.188   1.514 -0.4257 -0.4259  0.3716
 9237SOL    HW231754   2.756   8.038   1.501 -1.0289 -0.2687 -0.9015
 9238SOL     OW31755   6.034   8.540   2.926 -0.1731  0.8167  0.3929
 9238SOL    HW131756   6.082   8.571   3.002 -1.6633 -0.9185  2.1771
 9238SOL    HW231757   6.034   8.444   2.935 -1.8804  0.6455 -0.8008
 9239SOL     OW31758  10.180   1.973   7.851 -0.1438  0.2535 -0.1011
 9239SOL    HW131759  10.262   2.015   7.826  0.3132 -0.3595  0.3515
 9239SOL    HW231760  10.182   1.888   7.807 -1.3795  0.9391 -1.5881
 9240SOL     OW31761   9.672   6.600   9.578 -0.4652  0.2843 -0.4960
 9240SOL    HW131762   9.762   6.582   9.608  0.3937  2.2780 -1.6698
 9240SOL    HW231763   9.627   6.629   9.657  0.5862  1.4248 -0.2729
 9241SOL     OW31764   3.363   6.531   5.023  0.1171 -0.1020  0.2613
 9241SOL    HW131765   3.330   6.588   5.093  0.0604  0.0612  0.1027
 9241SOL    HW231766   3.311   6.556   4.946 -0.1994 -0.6558  0.2916
 9242SOL     OW31767  10.103   1.145   1.765  0.2257  0.2467  0.0612
 9242SOL    HW131768  10.165   1.083   1.803  0.9769  1.7088  1.3652
 9242SOL    HW231769  10.076   1.200   1.839 -0.1357  1.6738 -1.0805
 9243SOL     OW31770   0.104   3.692   9.150 -0.0810 -0.1664 -0.6672
 9243SOL    HW131771   0.133   3.783   9.162 -0.9273 -0.0059  0.2587
 9243SOL    HW231772   0.185   3.641   9.153  0.2580  0.4110  0.4504
 9244SOL     OW31773   7.730   8.552   2.025  0.0405  0.1368  0.2200
 9244SOL    HW131774   7.751   8.478   1.968 -0.7741 -0.0329  0.1300
 9244SOL    HW231775   7.778   8.534   2.106 -0.3379 -0.6187  0.2859
 9245SOL     OW31776   4.358   8.537   1.239  0.2183  0.1123 -0.2490
 9245SOL    HW131777   4.317   8.609   1.191  0.2233 -0.8893 -1.8685
 9245SOL    HW231778   4.415   8.579   1.303  0.2877  1.5457 -1.2057
 9246SOL     OW31779   3.244   7.635   8.305 -0.0610 -0.3044  0.0947
 9246SOL    HW131780   3.243   7.729   8.323  1.0001  0.0384 -1.4209
 9246SOL    HW231781   3.162   7.618   8.259 -0.2684 -0.1390  0.4003
 9247SOL     OW31782   8.397   9.150   7.830  0.2419  0.1637  0.3102
 9247SOL    HW131783   8.313   9.105   7.843  0.2989  0.4997  2.0432
 9247SOL    HW231784   8.461   9.094   7.874  0.7959  0.3645 -0.2326
 9248SOL     OW31785   1.016   5.418   4.358 -0.0677  0.4531  0.3542
 9248SOL    HW131786   0.993   5.443   4.269 -0.4664 -2.9408 -0.6353
 9248SOL    HW231787   0.945   5.452   4.412 -0.0449  2.1821 -0.6227
 9249SOL     OW31788   2.523   1.697   8.658  0.4108  1.3932  0.8203
 9249SOL    HW131789   2.595   1.681   8.719 -0.9337  1.8145  2.6029
 9249SOL    HW231790   2.469   1.618   8.664  1.6271  0.2190 -1.9730
 9250SOL     OW31791   7.396   3.185  10.161 -0.0457  0.8827 -0.0870
 9250SOL    HW131792   7.395   3.224  10.074  0.3579  0.8849 -0.0927
 9250SOL    HW231793   7.356   3.099  10.149  1.1648  0.3576 -0.5353
 9251SOL     OW31794   4.214   2.968   5.525 -0.1937  0.0950  0.3386
 9251SOL    HW131795   4.235   3.042   5.468 -0.0698 -0.1449  0.0704
 9251SOL    HW231796   4.249   2.892   5.479 -0.3767 -0.1383  0.5838
 9252SOL     OW31797   3.983   3.598   2.505  0.2734 -0.7348  0.0091
 9252SOL    HW131798   4.020   3.660   2.567  1.3140  0.0480 -1.3382
 9252SOL    HW231799   3.893   3.629   2.490  0.9453  0.8341 -1.0624
 9253SOL     OW31800   4.977   7.599   8.949 -0.1939  0.1007 -0.0433
 9253SOL    HW131801   5.051   7.620   8.892 -1.4601  1.3525 -1.2920
 9253SOL    HW231802   5.014   7.541   9.016  1.9164  0.7547 -0.5839
 9254SOL     OW31803   1.986   4.914   8.604  0.2923  0.7356 -0.2972
 9254SOL    HW131804   1.917   4.849   8.612 -0.0567  1.0453 -0.7682
 9254SOL    HW231805   2.042   4.883   8.533  1.2973 -0.1038  0.8264
 9255SOL     OW31806   9.039   5.981   0.522  0.2982  0.5210 -0.1166
 9255SOL    HW131807   8.955   5.993   0.567  0.2052  1.4885 -0.5119
 9255SOL    HW231808   9.091   5.926   0.581 -0.4689  0.2570  0.3198
 9256SOL     OW31809   6.864   9.378   2.527  0.1306  0.2462 -0.5349
 9256SOL    HW131810   6.798   9.439   2.493 -2.4731 -1.5735  0.9108
 9256SOL    HW231811   6.931   9.434   2.565 -1.1826  2.2168 -0.9877
 9257SOL     OW31812   4.145   4.364   9.018 -0.3199  0.0987  0.0970
 9257SOL    HW131813   4.144   4.328   8.930 -0.8073  0.5847 -0.1050
 9257SOL    HW231814   4.182   4.295   9.072 -2.2084 -1.1317 -0.0898
 9258SOL     OW31815   0.448   6.650   9.500 -0.0773 -0.2304 -0.4495
 9258SOL    HW131816   0.392   6.598   9.558  0.6819  0.0432  0.5677
 9258SOL    HW231817   0.466   6.730   9.550 -0.3089  0.5212 -1.5290
 9259SOL     OW31818   2.377   2.200   1.742 -0.4579  0.2734 -0.9069
 9259SOL    HW131819   2.419   2.115   1.733 -2.0350 -0.4743 -1.5742
 9259SOL    HW231820   2.336   2.198   1.828 -2.0560 -0.4127 -1.6460
 9260SOL     OW31821   6.615   1.949   0.767  0.0998  0.0062  0.3978
 9260SOL    HW131822   6.579   1.970   0.681  1.1730  2.7869  0.5151
 9260SOL    HW231823   6.544   1.905   0.813 -0.1927 -2.4383 -2.1488
 9261SOL     OW31824   7.189   4.386   0.915 -0.5288  0.1292  0.2550
 9261SOL    HW131825   7.178   4.407   0.822 -2.0227 -1.9485 -0.0837
 9261SOL    HW231826   7.284   4.386   0.928 -0.2825  0.1018 -1.3500
 9262SOL     OW31827   0.888   1.224   6.020  0.0778  0.3205 -0.1888
 9262SOL    HW131828   0.942   1.216   6.099 -0.3435  1.3846  0.2409
 9262SOL    HW231829   0.851   1.312   6.027 -1.8895 -0.4472 -0.3415
 9263SOL     OW31830   6.460   7.967  10.048 -0.4676 -0.2105  0.3298
 9263SOL    HW131831   6.543   7.980  10.095 -0.7194  0.2460  0.6646
 9263SOL    HW231832   6.398   8.025  10.094 -0.4896  1.0288 -1.1828
 9264SOL     OW31833   6.075   0.602   0.379 -0.1634  0.2596 -0.1382
 9264SOL    HW131834   6.055   0.693   0.404  0.4355  0.9085 -1.8733
 9264SOL    HW231835   6.071   0.554   0.461 -1.5369  1.6636  0.6823
 9265SOL     OW31836   5.506   9.809   9.762 -0.8913  0.3916  0.1232
 9265SOL    HW131837   5.545   9.887   9.799  0.2216  0.9319 -2.0268
 9265SOL    HW231838   5.577   9.745   9.759 -1.3053 -0.0751  0.1591
 9266SOL     OW31839   2.029   3.828   0.617 -0.0033 -0.2918 -0.2182
 9266SOL    HW131840   2.112   3.857   0.580  0.8453 -0.1781  1.6785
 9266SOL    HW231841   1.966   3.894   0.586  0.4789 -0.6226 -2.0359
 9267SOL     OW31842   3.703   1.456   4.995 -0.3768 -0.3389  0.0529
 9267SOL    HW131843   3.792   1.481   5.019  0.0632 -0.7762 -1.0901
 9267SOL    HW231844   3.702   1.360   5.002 -0.2731 -0.4778 -1.4595
 9268SOL     OW31845   1.889   3.674   3.446 -0.6198 -0.3267 -0.3559
 9268SOL    HW131846   1.904   3.640   3.534  1.1457  1.9303  0.2844
 9268SOL    HW231847   1.900   3.597   3.389  0.3929 -1.4074  1.2124
 9269SOL     OW31848   0.075   6.691   1.579 -0.9171 -0.5268 -0.1477
 9269SOL    HW131849   0.133   6.733   1.641 -1.3413  0.2167 -0.2458
 9269SOL    HW231850   0.133   6.652   1.513 -0.5434  1.2905 -0.9423
 9270SOL     OW31851   8.626   5.140   1.690 -0.4472  0.5673 -0.0461
 9270SOL    HW131852   8.563   5.202   1.653  2.5556  2.3655 -2.6300
 9270SOL    HW231853   8.695   5.194   1.728  1.9600 -1.0512 -1.7882
 9271SOL     OW31854   7.158   7.668   2.398 -0.3821 -0.3215  0.2747
 9271SOL    HW131855   7.097   7.594   2.398  0.5959 -1.1647  0.0673
 9271SOL    HW231856   7.148   7.707   2.311  0.5399 -1.5008 -0.4046
 9272SOL     OW31857   2.081   1.062   3.313  0.1617 -0.3209  0.6160
 9272SOL    HW131858   2.052   1.126   3.378 -0.1186  0.2335 -0.0431
 9272SOL    HW231859   2.138   1.112   3.255 -1.5869 -0.1696 -1.0513
 9273SOL     OW31860   3.388   4.614   9.976  0.1265  0.2396  0.2144
 9273SOL    HW131861   3.452   4.554  10.015 -0.5202  0.7886  2.2860
 9273SOL    HW231862   3.324   4.630  10.047 -0.0737  2.8490 -0.4379
 9274SOL     OW31863   7.808   2.488   7.610 -0.2208  0.0480  0.2476
 9274SOL    HW131864   7.834   2.547   7.681 -1.3427  0.8497  0.0157
 9274SOL    HW231865   7.747   2.428   7.652 -0.1830 -0.0514  0.1575
 9275SOL     OW31866   6.395   6.378   2.260  0.3047  0.2557 -0.5168
 9275SOL    HW131867   6.422   6.384   2.169 -0.4425  0.6911 -0.7209
 9275SOL    HW231868   6.362   6.466   2.281  1.1372  0.3642  0.3907
 9276SOL     OW31869   7.860   7.980  10.226 -0.0741 -0.3181 -0.2994
 9276SOL    HW131870   7.878   7.974  10.133 -2.1641 -0.3191 -0.7568
 9276SOL    HW231871   7.765   7.976  10.233 -0.0335  0.5327  1.7659
 9277SOL     OW31872   9.348   4.404   4.548  0.1246  0.0208 -0.0912
 9277SOL    HW131873   9.377   4.322   4.508 -0.3552 -0.4518  0.5004
 9277SOL    HW231874   9.423   4.462   4.541  0.5836 -0.5769 -0.2289
 9278SOL     OW31875   1.160   1.595   3.820 -0.0180  0.3788  0.4743
 9278SOL    HW131876   1.138   1.502   3.815 -1.3611  0.4644  3.1288
 9278SOL    HW231877   1.256   1.597   3.819  0.0482 -0.7791 -1.9934
 9279SOL     OW31878   7.050   4.990   9.651  0.0010  0.4127 -0.2158
 9279SOL    HW131879   6.955   4.984   9.644 -0.0280  0.7842 -0.1373
 9279SOL    HW231880   7.083   4.941   9.576 -0.1971 -2.7320  1.5428
 9280SOL     OW31881   3.687   1.818   7.927 -0.1533  0.2320  0.4842
 9280SOL    HW131882   3.692   1.723   7.915 -0.6975  0.4216 -1.6507
 9280SOL    HW231883   3.776   1.849   7.909 -0.4605  0.2925 -1.0910
 9281SOL     OW31884   4.459   0.133   7.679 -0.1891  0.2203 -0.2399
 9281SOL    HW131885   4.447   0.188   7.601  1.9812  1.2175  0.0669
 9281SOL    HW231886   4.492   0.050   7.644  0.0191  0.3888 -0.4467
 9282SOL     OW31887   4.186   8.600   4.621  0.2885  0.8896 -0.2526
 9282SOL    HW131888   4.236   8.547   4.683 -0.1095  1.4502  0.5657
 9282SOL    HW231889   4.146   8.668   4.674 -0.1515  1.3264 -1.1162
 9283SOL     OW31890   5.860   0.282   0.126 -0.1737 -0.3177 -0.2536
 9283SOL    HW131891   5.876   0.226   0.051  1.6122 -0.9770  0.5514
 9283SOL    HW231892   5.800   0.231   0.182  0.5934 -0.9975 -0.0241
 9284SOL     OW31893   4.093   9.135   6.486  0.2249 -0.2048 -0.2618
 9284SOL    HW131894   4.138   9.219   6.485 -0.4299  0.2121  1.3973
 9284SOL    HW231895   4.146   9.078   6.431  0.4510  1.3817 -1.7606
 9285SOL     OW31896   9.713   2.303   1.871 -0.1058  0.0796  0.0828
 9285SOL    HW131897   9.693   2.307   1.964  0.6518 -0.0197  0.2585
 9285SOL    HW231898   9.783   2.367   1.858  0.2023 -0.3212 -0.2991
 9286SOL     OW31899   0.477   8.362   3.663  0.3334  0.3265 -0.9374
 9286SOL    HW131900   0.444   8.442   3.621  0.4820  1.2243  0.5869
 9286SOL    HW231901   0.406   8.299   3.653 -0.3868  1.1056 -0.8672
 9287SOL     OW31902   3.655   0.539   8.213  0.2194 -0.3624  0.0353
 9287SOL    HW131903   3.615   0.470   8.266 -1.2667  1.4184  1.3551
 9287SOL    HW231904   3.734   0.563   8.261 -0.2362  0.0789  0.5904
 9288SOL     OW31905   0.840   3.174   5.621 -0.3690  0.0743  0.5652
 9288SOL    HW131906   0.748   3.154   5.602 -0.0728 -0.3491 -0.4991
 9288SOL    HW231907   0.882   3.089   5.629  0.5350  0.1527 -2.1601
 9289SOL     OW31908   2.751   3.219   5.188  0.4236 -0.3669 -0.2052
 9289SOL    HW131909   2.782   3.282   5.253 -1.0351 -0.3927  0.5500
 9289SOL    HW231910   2.695   3.270   5.130 -2.5247 -1.2716  1.6616
 9290SOL     OW31911   8.057   5.517   1.653  0.7644  0.2775  0.0441
 9290SOL    HW131912   8.041   5.477   1.739 -0.2644 -1.2506 -0.8124
 9290SOL    HW231913   8.107   5.451   1.605 -0.4327  0.2384 -1.2030
 9291SOL     OW31914   3.539   7.389   4.856 -0.7801 -0.2100 -0.4718
 9291SOL    HW131915   3.612   7.362   4.912 -0.2302  0.4209 -0.8781
 9291SOL    HW231916   3.566   7.365   4.768 -0.8616  0.4379 -0.6788
 9292SOL     OW31917   6.536   0.889   2.011  0.0800  0.0010  0.3127
 9292SOL    HW131918   6.581   0.835   1.945  1.1915 -0.2732  1.2672
 9292SOL    HW231919   6.550   0.844   2.093 -2.4608 -0.3761  0.6057
 9293SOL     OW31920   8.030   1.577   0.664 -0.2350 -0.2369 -0.1722
 9293SOL    HW131921   8.002   1.551   0.576  0.2557 -0.4479 -0.2701
 9293SOL    HW231922   7.952   1.616   0.704 -0.9437 -1.6262 -0.1144
 9294SOL     OW31923   1.168   8.931   9.812 -0.0782  0.2976  0.3557
 9294SOL    HW131924   1.219   8.931   9.893  0.2514 -1.5350  0.2074
 9294SOL    HW231925   1.078   8.915   9.840 -0.4735  2.5772  0.5437
 9295SOL     OW31926   1.213   8.323   2.595  0.2055  0.0626 -0.1050
 9295SOL    HW131927   1.281   8.389   2.580 -0.7826  1.4240  1.1470
 9295SOL    HW231928   1.201   8.321   2.690 -2.5094  0.9753 -0.3345
 9296SOL     OW31929   2.285   3.294   5.389  0.1584 -0.8620 -0.1310
 9296SOL    HW131930   2.222   3.313   5.459  0.9671  1.7228 -0.0020
 9296SOL    HW231931   2.234   3.245   5.324 -1.3652 -0.8222  0.9782
 9297SOL     OW31932   8.805   9.488   2.514  0.1155  0.0441  0.4642
 9297SOL    HW131933   8.886   9.532   2.490  1.0687 -2.6551 -1.6979
 9297SOL    HW231934   8.832   9.404   2.550 -1.6663 -1.3712 -1.2793
 9298SOL     OW31935   2.838   1.619   9.844  0.4739  0.7307  0.4721
 9298SOL    HW131936   2.746   1.626   9.870  1.0411 -0.6797  3.2700
 9298SOL    HW231937   2.882   1.687   9.896  1.0231  1.7212 -1.2020
 9299SOL     OW31938   9.590   4.985   8.908 -0.1114 -0.2227 -0.5513
 9299SOL    HW131939   9.659   4.982   8.841 -1.5034 -0.2259 -2.0292
 9299SOL    HW231940   9.575   4.894   8.931 -0.0261 -0.2655 -0.6619
 9300SOL     OW31941   1.201   4.418   4.392  0.0037 -0.1713  0.3405
 9300SOL    HW131942   1.198   4.465   4.476  1.2131  0.6899 -0.0636
 9300SOL    HW231943   1.156   4.476   4.331  1.5998  0.5750 -0.1866
 9301SOL     OW31944   6.394   9.737   6.803  0.3103 -0.3133  0.5577
 9301SOL    HW131945   6.418   9.735   6.710 -0.1914 -1.2735  0.4279
 9301SOL    HW231946   6.359   9.649   6.820  0.7058 -0.2574  1.7405
 9302SOL     OW31947   1.828   9.043   1.004  0.1716 -0.8913 -0.5817
 9302SOL    HW131948   1.816   8.952   0.977  1.2136 -0.3697 -3.0982
 9302SOL    HW231949   1.813   9.093   0.924 -1.5926  1.3033  0.9907
 9303SOL     OW31950   7.710   2.376   6.069  0.4390  0.0328 -0.2433
 9303SOL    HW131951   7.697   2.469   6.086 -2.3175 -0.1461 -0.7468
 9303SOL    HW231952   7.690   2.366   5.975 -0.6241 -1.1819  0.0749
 9304SOL     OW31953   1.115   1.484   4.164 -0.3826  0.2235 -0.0018
 9304SOL    HW131954   1.025   1.454   4.175 -0.1754 -0.8918 -1.0904
 9304SOL    HW231955   1.108   1.556   4.101 -0.7353  1.6372  1.6064
 9305SOL     OW31956   5.551   7.241   5.424  0.0897  0.1454 -0.0334
 9305SOL    HW131957   5.608   7.270   5.353  0.5290 -1.5233 -0.3933
 9305SOL    HW231958   5.519   7.155   5.396 -1.2599  0.3065  0.9316
 9306SOL     OW31959   6.026   1.464   8.384 -0.3284  0.3557 -0.7876
 9306SOL    HW131960   6.086   1.389   8.377 -1.8432 -0.7706 -3.0388
 9306SOL    HW231961   6.067   1.531   8.328  0.4928  0.8587  0.3832
 9307SOL     OW31962   5.437   7.256   3.267  0.0254  0.0921  0.5986
 9307SOL    HW131963   5.502   7.233   3.333  0.3707  1.9583  0.9639
 9307SOL    HW231964   5.485   7.258   3.184  0.3217  0.8229  0.7754
 9308SOL     OW31965   4.561   6.671   6.440 -0.0908  0.0837  0.3433
 9308SOL    HW131966   4.630   6.612   6.408  1.6012  1.8794  0.4756
 9308SOL    HW231967   4.516   6.701   6.360 -1.8977 -2.3243  0.3422
 9309SOL     OW31968   0.680   2.973   1.742 -0.2362  0.4042 -0.3962
 9309SOL    HW131969   0.766   3.014   1.736 -0.4173  0.9246  0.3516
 9309SOL    HW231970   0.670   2.954   1.835 -0.7423 -0.0579 -0.5456
 9310SOL     OW31971   7.919   9.382   1.078  0.9838 -0.7531  0.4168
 9310SOL    HW131972   7.856   9.339   1.021  0.1234 -1.0699  1.5490
 9310SOL    HW231973   7.944   9.462   1.031 -0.3737 -0.5530 -0.0194
 9311SOL     OW31974   3.072   0.146   7.654 -0.5817  0.2369 -0.6742
 9311SOL    HW131975   3.104   0.224   7.609 -0.8048  0.7909  0.1097
 9311SOL    HW231976   3.026   0.180   7.730 -0.7325 -0.6647 -0.3567
 9312SOL     OW31977   1.883   9.307   9.867 -0.0201  0.1915 -0.2853
 9312SOL    HW131978   1.810   9.297   9.807  1.0066  0.7096 -1.6807
 9312SOL    HW231979   1.957   9.331   9.811  0.4288  3.2511  1.3820
 9313SOL     OW31980  10.134   2.091  10.203  0.4770  0.4090 -0.0455
 9313SOL    HW131981  10.171   2.152  10.267 -1.9315  0.3370  1.5388
 9313SOL    HW231982  10.210   2.057  10.156  2.4806 -0.1111  3.2517
 9314SOL     OW31983   2.171   3.821   2.456  0.0246 -0.6547 -0.0650
 9314SOL    HW131984   2.191   3.737   2.497  3.4430 -0.1945 -0.4361
 9314SOL    HW231985   2.161   3.800   2.363  1.6173 -0.6212 -0.2684
 9315SOL     OW31986   0.876   1.277   7.305 -0.6115 -0.6968 -0.4792
 9315SOL    HW131987   0.826   1.228   7.240 -0.2190  0.5193 -1.7350
 9315SOL    HW231988   0.825   1.358   7.318 -0.6634 -0.9019  0.7078
 9316SOL     OW31989   6.813   6.857   3.887 -0.3036  0.1814  0.0005
 9316SOL    HW131990   6.755   6.798   3.839 -1.0011  0.2861  0.7073
 9316SOL    HW231991   6.773   6.943   3.879  1.5516  0.9294 -2.4108
 9317SOL     OW31992   4.584  10.037   0.626 -0.4116  0.4335 -0.4705
 9317SOL    HW131993   4.630   9.955   0.610  0.8038  0.7894  0.9755
 9317SOL    HW231994   4.637  10.082   0.692 -1.0932  2.3437 -1.1466
 9318SOL     OW31995   5.170   5.641   9.459  0.3680  0.5347 -0.1292
 9318SOL    HW131996   5.179   5.569   9.522 -0.4187 -0.5389 -1.2088
 9318SOL    HW231997   5.114   5.705   9.504  1.4228  0.7132  1.0032
 9319SOL     OW31998   0.486   9.124   6.969 -0.0658  0.0968  0.0648
 9319SOL    HW131999   0.570   9.088   6.942  0.1463 -0.0334  0.8894
 9319SOL    HW232000   0.427   9.103   6.896  1.0294  1.8949 -1.4271
 9320SOL     OW32001   6.559   8.797   9.255 -0.0396  0.1295  0.2652
 9320SOL    HW132002   6.533   8.747   9.333 -1.7557  1.5498  0.6639
 9320SOL    HW232003   6.483   8.851   9.235  0.8980  0.8376 -1.5745
 9321SOL     OW32004   7.982   7.707   2.331  0.3832  0.2616 -0.6074
 9321SOL    HW132005   8.047   7.638   2.343 -2.3803 -2.5129 -0.3266
 9321SOL    HW232006   7.970   7.712   2.236  1.3144  1.1554 -0.6939
 9322SOL     OW32007   1.883   5.038   3.735 -0.6969 -0.0899  0.2945
 9322SOL    HW132008   1.800   5.084   3.725 -1.0365 -0.7714 -0.0392
 9322SOL    HW232009   1.946   5.093   3.687 -0.9506  0.4169  0.5348
 9323SOL     OW32010   1.815   5.916   3.620  0.2234  0.5537 -0.2086
 9323SOL    HW132011   1.753   5.850   3.651  1.0910 -0.5032 -0.6667
 9323SOL    HW232012   1.763   5.972   3.563 -0.2776 -0.4170 -0.7265
 9324SOL     OW32013   9.729   9.422   2.688  0.6300  0.4237 -0.2146
 9324SOL    HW132014   9.764   9.349   2.638 -0.5195  0.0557 -0.5141
 9324SOL    HW232015   9.765   9.410   2.776  3.1401  1.4093 -1.0131
 9325SOL     OW32016   4.275   8.108   9.533  0.5864 -0.0473  0.4850
 9325SOL    HW132017   4.308   8.197   9.546  0.0343  0.5659 -1.8033
 9325SOL    HW232018   4.231   8.086   9.615  1.9894  1.1824  1.6319
 9326SOL     OW32019   0.737  10.071   4.973 -0.0283 -0.2818  0.0448
 9326SOL    HW132020   0.776   9.987   4.948  0.8204  0.1182 -0.0002
 9326SOL    HW232021   0.810  10.132   4.972 -0.5805  0.3892  0.4225
 9327SOL     OW32022   2.130   6.967   6.661 -0.4164  0.3139 -0.2355
 9327SOL    HW132023   2.085   7.052   6.657 -1.1344 -0.0890 -1.4235
 9327SOL    HW232024   2.145   6.952   6.754 -1.5571  1.0918  0.0991
 9328SOL     OW32025   1.705   4.223   6.750  0.4387 -0.6030  0.4128
 9328SOL    HW132026   1.796   4.197   6.762  0.4041 -1.0969 -0.3221
 9328SOL    HW232027   1.669   4.159   6.689 -0.5336 -0.6791  1.0400
 9329SOL     OW32028   8.423   9.340   2.232 -0.3317 -0.3548  0.1858
 9329SOL    HW132029   8.478   9.291   2.171  0.0980 -0.4715  0.6506
 9329SOL    HW232030   8.486   9.383   2.290 -0.7241  0.1216  0.2585
 9330SOL     OW32031   8.252   3.430   4.347  0.0029 -0.0289  0.2478
 9330SOL    HW132032   8.328   3.482   4.375  0.7260 -0.8168 -0.1968
 9330SOL    HW232033   8.180   3.492   4.347  0.8316  0.9694 -0.2096
 9331SOL     OW32034   0.977   6.335   2.187 -0.8082  0.0995  0.4164
 9331SOL    HW132035   0.939   6.256   2.226 -0.8717  0.5905  1.3890
 9331SOL    HW232036   1.041   6.365   2.252  1.5587 -0.9193 -1.3554
 9332SOL     OW32037   1.220   4.922   4.027 -0.0794  0.7803 -0.2033
 9332SOL    HW132038   1.129   4.898   4.044  0.3158 -1.1013 -0.5229
 9332SOL    HW232039   1.266   4.898   4.107  0.2992  0.8111 -0.4135
 9333SOL     OW32040  10.010   5.039   3.443 -0.0663  0.2670 -0.1737
 9333SOL    HW132041   9.973   5.086   3.517  0.5481  0.5195 -0.0218
 9333SOL    HW232042  10.062   5.105   3.396 -0.4521  0.1125 -0.8282
 9334SOL     OW32043   3.231   8.284   0.521  0.4803 -0.1213  0.4931
 9334SOL    HW132044   3.207   8.216   0.457  1.3370 -1.0344  1.1095
 9334SOL    HW232045   3.226   8.365   0.471 -1.0073 -0.5677 -0.1492
 9335SOL     OW32046   2.427   0.697   8.106 -0.4055  0.0754  0.1595
 9335SOL    HW132047   2.349   0.661   8.149 -0.7434  1.0935  0.4121
 9335SOL    HW232048   2.397   0.724   8.020  0.1572 -1.4701 -0.5676
 9336SOL     OW32049   7.213   5.656   6.505 -0.1501  0.0340 -0.1532
 9336SOL    HW132050   7.154   5.717   6.462 -0.1792 -0.6770 -1.1595
 9336SOL    HW232051   7.201   5.574   6.457  0.5100 -0.5302  0.6269
 9337SOL     OW32052   2.690   4.749   4.844 -0.0067 -0.5621  0.1143
 9337SOL    HW132053   2.637   4.706   4.912 -1.9195  0.2932 -0.7623
 9337SOL    HW232054   2.645   4.729   4.762  1.2586 -0.0774 -0.7265
 9338SOL     OW32055   4.119   7.561   2.083  0.4179  0.2494  0.2712
 9338SOL    HW132056   4.086   7.650   2.068  0.0679 -0.1308 -1.3333
 9338SOL    HW232057   4.166   7.567   2.167  1.3565  2.2181 -0.3370
 9339SOL     OW32058   4.498   8.795   0.829 -0.3356 -0.2786  0.2735
 9339SOL    HW132059   4.487   8.740   0.751 -0.3359 -1.6625  1.2089
 9339SOL    HW232060   4.500   8.884   0.796 -0.2001 -0.8485 -1.3228
 9340SOL     OW32061   6.458   3.434   1.520 -0.1007  0.2074  0.5833
 9340SOL    HW132062   6.495   3.487   1.591 -0.8917  1.4723  0.0807
 9340SOL    HW232063   6.410   3.496   1.465 -0.3777 -0.9063 -0.4959
 9341SOL     OW32064   4.884   4.028   8.901  0.0678  0.0608 -0.3045
 9341SOL    HW132065   4.948   3.971   8.943  0.7570  2.8211  2.8109
 9341SOL    HW232066   4.936   4.093   8.855 -0.6273  0.2164 -0.8959
 9342SOL     OW32067   0.079   2.787   3.179 -0.2522 -0.1053  0.1419
 9342SOL    HW132068   0.070   2.704   3.132  0.1570 -0.0235 -0.0860
 9342SOL    HW232069  -0.011   2.816   3.195 -0.4420 -1.4461  1.7434
 9343SOL     OW32070   9.523   1.163   4.208 -0.3009 -0.2077 -0.0215
 9343SOL    HW132071   9.564   1.127   4.130  1.5751 -2.5693  1.9135
 9343SOL    HW232072   9.433   1.132   4.204 -0.0778 -0.7795 -0.9276
 9344SOL     OW32073   9.232   5.047   8.996 -0.0870 -0.3217 -0.1992
 9344SOL    HW132074   9.177   5.089   9.062 -1.5154 -0.8995 -0.9810
 9344SOL    HW232075   9.226   4.954   9.017 -0.9324 -0.5551 -1.3969
 9345SOL     OW32076   5.764   0.943   6.997  0.0357  1.0709 -0.1153
 9345SOL    HW132077   5.726   0.855   6.988  0.1157  0.9132  0.9900
 9345SOL    HW232078   5.719   0.981   7.072  1.5593  1.1253  0.8060
 9346SOL     OW32079   2.964   2.594   6.936 -0.2529 -0.5601 -0.0571
 9346SOL    HW132080   2.976   2.499   6.925 -1.0490 -1.0394  2.5213
 9346SOL    HW232081   3.049   2.625   6.969 -0.6268 -0.8011  1.1855
 9347SOL     OW32082   4.494   8.127   1.700 -0.0638  0.5006  0.1898
 9347SOL    HW132083   4.474   8.199   1.760 -0.3415 -0.9110  1.8582
 9347SOL    HW232084   4.564   8.161   1.645 -1.4651  2.6962 -0.3473
 9348SOL     OW32085   1.194   3.855   7.179 -0.0375 -0.0787  0.9201
 9348SOL    HW132086   1.174   3.762   7.179  0.3294 -0.1600  0.0572
 9348SOL    HW232087   1.288   3.859   7.195  0.3497  0.0394 -1.1883
 9349SOL     OW32088   9.060   2.535   3.334  0.4893 -0.2857  0.0551
 9349SOL    HW132089   9.117   2.612   3.336  0.6753 -0.4279  0.4407
 9349SOL    HW232090   8.974   2.569   3.309  0.4518  0.1244  0.7147
 9350SOL     OW32091   5.801   8.698   9.719  0.6124 -0.7681  0.0392
 9350SOL    HW132092   5.862   8.639   9.763  0.7259 -1.0698 -0.5186
 9350SOL    HW232093   5.720   8.648   9.710  0.5472 -0.6618  0.0222
 9351SOL     OW32094   9.648   7.481   9.197  0.4798  0.4093 -0.1153
 9351SOL    HW132095   9.719   7.499   9.135  1.0527 -1.1719  0.0282
 9351SOL    HW232096   9.692   7.450   9.276 -0.3534 -1.6162 -0.3829
 9352SOL     OW32097   4.283   3.984   9.991  0.2850  0.0392 -0.2456
 9352SOL    HW132098   4.284   3.920  10.062  0.8173  1.5668  1.1908
 9352SOL    HW232099   4.190   3.993   9.969  0.1557 -0.7988 -0.0856
 9353SOL     OW32100   1.927   4.775   1.265  0.5008 -0.2292  0.1099
 9353SOL    HW132101   1.841   4.753   1.230 -1.0630  1.4102  2.6272
 9353SOL    HW232102   1.979   4.801   1.189 -1.5865 -0.1021 -1.3304
 9354SOL     OW32103   3.091   8.221   5.382 -0.0964 -0.4857  0.0098
 9354SOL    HW132104   3.151   8.186   5.448  0.0558 -1.2881 -0.5379
 9354SOL    HW232105   3.133   8.301   5.351  0.0420 -0.3340  0.5700
 9355SOL     OW32106   0.316   6.799  10.220 -0.1620 -0.4938  0.4100
 9355SOL    HW132107   0.403   6.838  10.228 -0.6023  0.4372  0.8697
 9355SOL    HW232108   0.299   6.796  10.126  0.0422  0.0758  0.3530
 9356SOL     OW32109   8.050   5.686   8.963  0.1800 -0.0298 -0.0416
 9356SOL    HW132110   8.128   5.655   9.008 -0.4054  1.6817  2.3348
 9356SOL    HW232111   8.003   5.606   8.939  1.7081 -1.0353  0.1848
 9357SOL     OW32112   3.164   8.418  10.297  0.0423 -0.3259 -0.1072
 9357SOL    HW132113   3.217   8.342  10.269 -0.5993 -1.7461  2.2304
 9357SOL    HW232114   3.227   8.476  10.340  0.1997 -0.5416 -0.0424
 9358SOL     OW32115  10.234   0.704   3.037  0.4043  0.2661 -0.2429
 9358SOL    HW132116  10.244   0.759   3.115 -1.0452 -1.1736  1.0303
 9358SOL    HW232117  10.248   0.615   3.069  2.0116 -0.2014 -2.1141
 9359SOL     OW32118   6.732   6.006   9.842 -0.2316  0.2906  0.0379
 9359SOL    HW132119   6.663   6.044   9.787 -0.2132  0.2109 -0.0393
 9359SOL    HW232120   6.778   5.945   9.785  0.4856  1.0077 -0.1820
 9360SOL     OW32121   6.887   8.646   1.974 -0.2083  0.0364 -0.1529
 9360SOL    HW132122   6.949   8.634   1.901  0.2844  1.9537 -0.0941
 9360SOL    HW232123   6.802   8.657   1.932 -0.4550 -1.8547 -0.2635
 9361SOL     OW32124   1.131   7.569   9.099  0.2411 -0.0089 -0.3864
 9361SOL    HW132125   1.221   7.582   9.127  0.3119  0.8448 -0.9718
 9361SOL    HW232126   1.116   7.636   9.033 -1.2143  0.6936  0.5870
 9362SOL     OW32127   6.491   6.569   1.926  0.1950 -0.2033 -0.1908
 9362SOL    HW132128   6.543   6.615   1.992 -0.1202 -0.1667  0.0356
 9362SOL    HW232129   6.550   6.560   1.851 -0.1518  1.7708 -0.7517
 9363SOL     OW32130   1.289   7.182   5.234  0.0898  0.1339  0.6333
 9363SOL    HW132131   1.311   7.126   5.158  0.4220  2.2407 -0.9189
 9363SOL    HW232132   1.308   7.271   5.204 -1.0506  1.1692  2.7826
 9364SOL     OW32133   6.279   0.777   1.195 -0.0789  0.5458 -0.0408
 9364SOL    HW132134   6.292   0.834   1.119 -0.9103  1.4922  0.5050
 9364SOL    HW232135   6.221   0.827   1.253  1.0449  0.1296  1.5083
 9365SOL     OW32136   7.757   2.021   1.631  0.3855  0.5403  0.0076
 9365SOL    HW132137   7.792   1.946   1.583 -0.2764 -0.4916  1.0982
 9365SOL    HW232138   7.830   2.051   1.685 -0.0791 -1.0381  1.5911
 9366SOL     OW32139   3.729   0.845   2.407 -0.1357  0.0443 -0.0772
 9366SOL    HW132140   3.676   0.833   2.329  1.5827 -1.5233 -1.0794
 9366SOL    HW232141   3.739   0.757   2.444  0.4023  0.5332  1.0120
 9367SOL     OW32142   3.533   0.858   8.441 -0.2878 -0.2036  0.5430
 9367SOL    HW132143   3.484   0.775   8.444 -0.2770 -0.1905  1.1437
 9367SOL    HW232144   3.589   0.855   8.518  0.0272  0.1749  0.3271
 9368SOL     OW32145   3.663   5.718   8.677  0.1914 -0.2577 -0.1630
 9368SOL    HW132146   3.609   5.775   8.731  1.1115 -0.0399  0.5580
 9368SOL    HW232147   3.698   5.775   8.608 -1.5517 -0.6848 -1.4571
 9369SOL     OW32148   2.202   9.570   7.899 -0.2269 -0.0313  0.0394
 9369SOL    HW132149   2.191   9.487   7.853  1.1464 -0.1196 -0.1490
 9369SOL    HW232150   2.293   9.571   7.927 -0.2168  1.4120  0.0460
 9370SOL     OW32151   0.687   0.439   9.883 -0.7874  0.4203 -0.1785
 9370SOL    HW132152   0.593   0.451   9.893 -0.7380  0.7719 -0.1124
 9370SOL    HW232153   0.714   0.394   9.963 -0.8960  0.3427 -0.1854
 9371SOL     OW32154   4.966  10.124   9.429  0.4849  0.0606  0.5293
 9371SOL    HW132155   4.968  10.069   9.351  2.3855  0.7952  0.0132
 9371SOL    HW232156   4.959  10.062   9.502 -1.0742 -0.6410 -0.1765
 9372SOL     OW32157   4.822   5.547   1.015  0.0190 -0.1528 -0.8617
 9372SOL    HW132158   4.815   5.642   1.022  1.4707 -0.1341  1.0962
 9372SOL    HW232159   4.731   5.517   1.016 -0.4581  1.1860 -1.2157
 9373SOL     OW32160   1.436   8.837   8.450 -0.1185  0.2844 -0.4370
 9373SOL    HW132161   1.367   8.773   8.432 -1.0317  0.3161  2.5011
 9373SOL    HW232162   1.403   8.889   8.522  1.8928  2.1150 -0.7399
 9374SOL     OW32163   7.466   5.749   4.969  0.1587 -0.2900  0.0403
 9374SOL    HW132164   7.418   5.818   5.015 -0.2626 -0.1052 -0.6639
 9374SOL    HW232165   7.538   5.796   4.925  1.6267 -0.6875  1.8988
 9375SOL     OW32166   2.551   0.796   9.699  0.0776 -0.2780  0.3362
 9375SOL    HW132167   2.489   0.825   9.766 -1.6558  1.5964 -1.8973
 9375SOL    HW232168   2.609   0.871   9.686 -0.5652 -0.0150 -1.2473
 9376SOL     OW32169   1.048   1.580   1.384 -0.9039 -0.1098  0.7241
 9376SOL    HW132170   1.007   1.507   1.432  0.4243 -0.1375  1.8855
 9376SOL    HW232171   1.142   1.565   1.396 -0.5738  0.5785 -0.9054
 9377SOL     OW32172   2.042   2.422   3.690 -0.0031 -0.0839  0.0161
 9377SOL    HW132173   2.059   2.356   3.623 -0.4949 -0.4962  0.2910
 9377SOL    HW232174   1.952   2.451   3.674  0.5660  1.3463 -0.7937
 9378SOL     OW32175   9.726   7.587   3.910  0.3924  0.1696  0.2895
 9378SOL    HW132176   9.735   7.524   3.981  2.0934 -0.3222 -0.3081
 9378SOL    HW232177   9.730   7.672   3.953  0.8387 -0.1263  0.8454
 9379SOL     OW32178   0.155   0.823   7.100 -0.2820  0.4427 -0.0238
 9379SOL    HW132179   0.170   0.845   7.192 -1.2262  0.5156  0.1233
 9379SOL    HW232180   0.224   0.761   7.079 -1.0732 -0.9430  1.2577
 9380SOL     OW32181   7.484   9.512   7.697  0.5098  0.4746  0.0354
 9380SOL    HW132182   7.512   9.451   7.629 -0.0865 -0.3827  0.5353
 9380SOL    HW232183   7.556   9.511   7.761  1.2472  1.5799 -0.7461
 9381SOL     OW32184   1.680   0.960   9.630  0.1020 -0.3876  0.1880
 9381SOL    HW132185   1.711   1.005   9.708  0.4038  0.6152 -0.4894
 9381SOL    HW232186   1.704   0.868   9.643 -0.4146 -0.3515  1.5437
 9382SOL     OW32187   3.299  10.146   2.841 -0.3503  0.6741  0.9319
 9382SOL    HW132188   3.348  10.217   2.799 -1.5942  0.7794 -0.4490
 9382SOL    HW232189   3.215  10.145   2.795 -0.5296 -1.4151  1.1929
 9383SOL     OW32190   7.430   9.885   8.783 -0.0165 -0.5643 -0.1327
 9383SOL    HW132191   7.477   9.815   8.828  0.4674  0.2197  0.6029
 9383SOL    HW232192   7.390   9.937   8.853  0.2683  0.3444 -0.6308
 9384SOL     OW32193   6.961   8.345   8.891 -0.5677 -0.0735  0.0580
 9384SOL    HW132194   6.978   8.251   8.884 -0.0665  0.0880 -1.0488
 9384SOL    HW232195   6.930   8.371   8.804  0.1850  0.9551  0.0778
 9385SOL     OW32196   3.421   3.040   7.134 -0.6576  0.2765 -0.4590
 9385SOL    HW132197   3.355   2.974   7.156  0.1215 -0.1677  0.6178
 9385SOL    HW232198   3.384   3.122   7.166 -0.7603  0.0533  0.0135
 9386SOL     OW32199   5.346   9.925   1.180 -0.3472  0.3284 -0.0345
 9386SOL    HW132200   5.280   9.995   1.176 -0.2637  0.4410  0.5071
 9386SOL    HW232201   5.318   9.871   1.255  1.1829  1.4025  1.3707
 9387SOL     OW32202   5.195   1.907   8.259 -0.0594  0.2486 -0.1016
 9387SOL    HW132203   5.285   1.914   8.228 -0.2649 -0.5221 -0.8999
 9387SOL    HW232204   5.177   1.992   8.299  0.6276  0.8557 -1.0366
 9388SOL     OW32205   9.602   8.557   5.361 -0.4627 -0.9396  0.5814
 9388SOL    HW132206   9.512   8.535   5.386  0.1313 -0.7377  3.1350
 9388SOL    HW232207   9.644   8.582   5.443  1.8877 -0.8095 -0.5933
 9389SOL     OW32208   0.790   9.469   6.666  0.3049  0.3294 -0.2793
 9389SOL    HW132209   0.765   9.388   6.711  0.7667  0.1933 -0.2645
 9389SOL    HW232210   0.814   9.441   6.578  1.4361  0.3150  0.0297
 9390SOL     OW32211   4.653   8.317   4.166 -0.3197  0.8739 -0.2620
 9390SOL    HW132212   4.558   8.306   4.163 -0.5009  1.8644  0.8746
 9390SOL    HW232213   4.681   8.314   4.074 -1.7431  2.6865 -0.8242
 9391SOL     OW32214   5.423   4.132   7.783 -0.1043 -0.2342 -0.9292
 9391SOL    HW132215   5.496   4.098   7.835  0.7410  2.1720 -0.4048
 9391SOL    HW232216   5.382   4.198   7.840 -0.7823  0.6082 -2.3522
 9392SOL     OW32217   7.139   5.629   0.105  0.1870 -0.3563 -0.1392
 9392SOL    HW132218   7.128   5.660   0.195 -2.3174  0.1211 -0.5119
 9392SOL    HW232219   7.196   5.694   0.064  0.2896  0.1411  0.7664
 9393SOL     OW32220   9.191   9.374   0.732 -0.3160 -0.5062 -0.5337
 9393SOL    HW132221   9.208   9.458   0.689 -0.5087  0.0393  0.4290
 9393SOL    HW232222   9.276   9.329   0.730 -0.2794 -0.4147 -1.3078
 9394SOL     OW32223   7.526   1.857   2.367 -0.3722 -0.2566 -0.1923
 9394SOL    HW132224   7.610   1.819   2.341  1.3770  2.7757  0.5489
 9394SOL    HW232225   7.518   1.836   2.460 -0.3974 -0.4482 -0.2365
 9395SOL     OW32226   7.003   6.657   3.294  0.4216  0.6013 -0.5041
 9395SOL    HW132227   7.048   6.700   3.366  1.0668 -0.0871 -0.4894
 9395SOL    HW232228   6.950   6.726   3.254  1.5003  1.4328 -0.5395
 9396SOL     OW32229   8.618   2.040   5.237  0.2966 -0.5168  0.2511
 9396SOL    HW132230   8.611   2.090   5.156  0.3074 -0.8578  0.0386
 9396SOL    HW232231   8.534   2.052   5.280 -0.0745 -1.1405 -0.2806
 9397SOL     OW32232   5.853   6.210   7.752 -0.2814  0.1706 -0.0464
 9397SOL    HW132233   5.940   6.234   7.719 -1.3212  0.4191 -2.8965
 9397SOL    HW232234   5.864   6.121   7.787  0.8225 -0.4500 -1.8495
 9398SOL     OW32235   5.535   9.950   2.405 -0.2548  0.1143 -0.1174
 9398SOL    HW132236   5.600  10.016   2.428  1.3203 -0.5870 -2.2835
 9398SOL    HW232237   5.458  10.000   2.376  1.3086  1.1476 -2.8413
 9399SOL     OW32238   0.558   1.932   6.945 -0.3130  0.4292 -0.5035
 9399SOL    HW132239   0.538   1.838   6.950 -0.9511  0.4918 -1.5669
 9399SOL    HW232240   0.609   1.950   7.024 -1.9207 -0.3857  0.7957
 9400SOL     OW32241   6.336   7.658   9.985 -0.2480 -0.0197  0.1144
 9400SOL    HW132242   6.371   7.610  10.059  0.5685  2.6620  1.6234
 9400SOL    HW232243   6.244   7.634   9.981 -0.2296 -0.4666  1.8069
 9401SOL     OW32244   5.603   8.522   2.353 -0.1241  0.3473  0.3132
 9401SOL    HW132245   5.653   8.442   2.335  0.9451  0.7774  1.2347
 9401SOL    HW232246   5.624   8.544   2.444  0.5465  2.2952 -0.2511
 9402SOL     OW32247   7.889   4.168   6.156 -0.4030  0.4032  0.4049
 9402SOL    HW132248   7.805   4.198   6.124 -2.1448 -3.6439  0.5187
 9402SOL    HW232249   7.936   4.137   6.078 -1.4666 -2.4047  0.7572
 9403SOL     OW32250   5.845   8.351   6.908 -0.1482 -0.0320  0.1532
 9403SOL    HW132251   5.880   8.379   6.993 -1.9504 -1.9968  1.6387
 9403SOL    HW232252   5.825   8.258   6.919 -0.6285 -0.3109 -2.3973
 9404SOL     OW32253   0.327   2.011   0.208  0.0258  0.2058 -0.2731
 9404SOL    HW132254   0.295   1.984   0.294 -3.1084 -0.3555 -1.4824
 9404SOL    HW232255   0.323   2.107   0.210  1.0053  0.2451  0.5191
 9405SOL     OW32256   4.342   0.019   6.372 -0.3868  0.0267 -0.1824
 9405SOL    HW132257   4.433   0.015   6.341 -0.2053 -0.2635  0.3632
 9405SOL    HW232258   4.350   0.050   6.463 -0.8124 -0.2537 -0.0462
 9406SOL     OW32259   4.713   4.488   1.944  0.2095 -0.0998 -0.2281
 9406SOL    HW132260   4.739   4.413   1.997 -0.9198 -1.2504 -1.2455
 9406SOL    HW232261   4.747   4.469   1.857 -0.9934  0.0520 -0.7430
 9407SOL     OW32262   8.104   8.194   5.419  0.1081 -0.8681 -0.2709
 9407SOL    HW132263   8.094   8.121   5.358 -1.3752  1.2909 -2.8635
 9407SOL    HW232264   8.198   8.215   5.417  0.2195 -1.4151 -1.1301
 9408SOL     OW32265   5.106   4.943   0.723 -0.6713  0.2691  0.5899
 9408SOL    HW132266   5.116   5.038   0.718  0.4982  0.0978 -0.9845
 9408SOL    HW232267   5.048   4.921   0.650 -1.5476 -0.1721  1.4012
 9409SOL     OW32268   0.296   6.226   6.968 -0.2768  0.0910  0.0601
 9409SOL    HW132269   0.278   6.223   7.062  2.4188  1.4800  0.7251
 9409SOL    HW232270   0.312   6.319   6.950  1.5794 -0.4274 -1.2155
 9410SOL     OW32271   8.803   9.991   0.074 -0.1777  0.3865 -0.0280
 9410SOL    HW132272   8.865   9.929   0.036 -1.4639 -0.6248 -0.5795
 9410SOL    HW232273   8.830  10.001   0.165 -0.6312 -1.9663  0.4200
 9411SOL     OW32274   0.981   4.417  10.139  0.2939  0.2742  0.5278
 9411SOL    HW132275   1.043   4.484  10.168  1.9343 -0.8180 -0.3147
 9411SOL    HW232276   0.913   4.418  10.206  1.9107  0.5736  2.2739
 9412SOL     OW32277   8.168   7.782   4.550  0.2731  0.0441 -0.1301
 9412SOL    HW132278   8.232   7.851   4.569 -0.5250  0.6245  0.5014
 9412SOL    HW232279   8.091   7.828   4.517 -0.4162 -0.5059  0.6773
 9413SOL     OW32280   7.571   0.409   8.062  0.9577  0.0309  0.1119
 9413SOL    HW132281   7.650   0.441   8.018  0.5310  0.1326 -0.6028
 9413SOL    HW232282   7.601   0.380   8.148  2.0314 -1.3039 -0.6779
 9414SOL     OW32283   8.226   0.060   3.517 -0.2378  0.5086  0.6953
 9414SOL    HW132284   8.245   0.095   3.430 -0.3809  0.4274  0.6296
 9414SOL    HW232285   8.297   0.091   3.572  0.7341 -0.7538  0.2041
 9415SOL     OW32286   3.375   6.105   8.709  0.4102  0.4957  0.4535
 9415SOL    HW132287   3.410   6.194   8.701 -1.1354  1.2215  1.2119
 9415SOL    HW232288   3.424   6.054   8.645  2.8553  1.3846  1.5044
 9416SOL     OW32289   0.711   3.464   4.494  0.3114  0.3787  0.4708
 9416SOL    HW132290   0.745   3.507   4.415  1.6533 -0.5089  0.5201
 9416SOL    HW232291   0.662   3.532   4.540  0.1181  1.1024 -0.7714
 9417SOL     OW32292   7.987   6.915   4.160 -0.1737 -0.1118 -0.4577
 9417SOL    HW132293   8.003   6.988   4.220 -0.4562  0.7660 -1.4338
 9417SOL    HW232294   7.908   6.874   4.195  0.3098 -0.3268  0.4336
 9418SOL     OW32295   1.757   0.694   9.646 -0.0104  0.2830  0.1951
 9418SOL    HW132296   1.684   0.718   9.588 -1.4470  0.4943  2.0109
 9418SOL    HW232297   1.752   0.599   9.652  0.8831  0.1439 -0.9132
 9419SOL     OW32298   7.418   8.845   5.202 -0.0237  0.2137  0.3911
 9419SOL    HW132299   7.351   8.785   5.234 -0.4614  0.8741  0.7350
 9419SOL    HW232300   7.370   8.906   5.145  0.8098 -1.2399 -2.0001
 9420SOL     OW32301   5.613   0.699  10.168  0.3603 -0.6785 -0.4642
 9420SOL    HW132302   5.541   0.717  10.229  1.6681  0.1210  0.9068
 9420SOL    HW232303   5.571   0.655  10.094 -1.7553  0.9999 -0.3555
 9421SOL     OW32304   2.122   8.247   6.008  0.3452 -0.4107  0.7876
 9421SOL    HW132305   2.056   8.193   6.050  0.2317 -0.4992  0.4985
 9421SOL    HW232306   2.076   8.292   5.937  1.1218 -2.5501 -1.2041
 9422SOL     OW32307   9.180   9.090   4.156 -0.0181 -0.1270 -0.3036
 9422SOL    HW132308   9.195   9.137   4.238 -2.7583  0.1853  0.1175
 9422SOL    HW232309   9.145   9.156   4.096  0.3505 -0.7108 -1.1809
 9423SOL     OW32310   4.017   7.355   8.471 -0.2059 -0.4216 -0.2425
 9423SOL    HW132311   3.961   7.429   8.450  2.1791  1.3392 -0.8424
 9423SOL    HW232312   3.957   7.280   8.478 -2.5475  1.2847 -0.9363
 9424SOL     OW32313   2.637   4.436   2.461 -0.0984 -0.3629  0.0889
 9424SOL    HW132314   2.730   4.459   2.452  0.0674 -0.3317  1.6892
 9424SOL    HW232315   2.590   4.509   2.420  0.5487  0.1937  0.3285
 9425SOL     OW32316   5.650   0.182   5.972  0.3625  0.1785  0.3648
 9425SOL    HW132317   5.621   0.248   5.909 -1.6698  0.0738  1.1022
 9425SOL    HW232318   5.618   0.099   5.936  0.4430 -0.0521  0.8200
 9426SOL     OW32319   0.697   5.750   0.224  0.4529 -0.7303  0.6863
 9426SOL    HW132320   0.743   5.687   0.169  1.7982 -1.5025  2.5787
 9426SOL    HW232321   0.699   5.712   0.312  0.9508  1.7323  1.8406
 9427SOL     OW32322   3.804   6.928   9.067  0.4691  0.0726 -0.0374
 9427SOL    HW132323   3.789   7.016   9.033 -0.0298  0.3542  0.9024
 9427SOL    HW232324   3.878   6.938   9.127  1.5127 -0.4731 -1.1714
 9428SOL     OW32325   0.607  10.206   0.295  0.3513  0.0767  0.0706
 9428SOL    HW132326   0.583  10.291   0.333 -1.9031 -0.2247 -0.5546
 9428SOL    HW232327   0.694  10.188   0.332  0.5602  2.2677  0.8399
 9429SOL     OW32328   7.259   8.551   6.198 -0.6705  0.6035  0.4612
 9429SOL    HW132329   7.204   8.562   6.120  1.7101 -1.8326 -1.7973
 9429SOL    HW232330   7.221   8.477   6.244 -2.2085  2.1790  1.8891
 9430SOL     OW32331   8.442   5.898   3.296 -0.2819 -0.1731  0.8757
 9430SOL    HW132332   8.347   5.912   3.295 -0.4748 -0.7865 -2.6378
 9430SOL    HW232333   8.453   5.804   3.305 -0.2283 -0.4552 -1.4964
 9431SOL     OW32334   4.565   5.902   3.539  0.2840  0.1474 -0.6381
 9431SOL    HW132335   4.611   5.949   3.469  2.2766  0.3732  0.7342
 9431SOL    HW232336   4.635   5.862   3.591 -1.2192 -1.6496  0.1173
 9432SOL     OW32337   4.918   6.702   3.150 -0.3941  0.0328  0.1314
 9432SOL    HW132338   4.974   6.758   3.096  0.0485  0.2002  0.7447
 9432SOL    HW232339   4.977   6.670   3.219 -0.9004 -0.3313  0.3974
 9433SOL     OW32340   2.554   0.168   8.493 -0.1817 -0.1304  0.0636
 9433SOL    HW132341   2.576   0.206   8.578  2.8471 -2.5564  0.5418
 9433SOL    HW232342   2.526   0.078   8.513 -1.8594  0.0119 -1.3858
 9434SOL     OW32343  10.196   8.580   6.658 -0.2328  0.1031  0.0153
 9434SOL    HW132344  10.227   8.656   6.609  0.2746 -0.4644 -0.5557
 9434SOL    HW232345  10.231   8.505   6.610  0.1570 -0.4686  1.1682
 9435SOL     OW32346   2.201   7.631   1.396  0.4432 -0.1860  0.1793
 9435SOL    HW132347   2.288   7.650   1.360  0.5387 -2.7278 -1.1125
 9435SOL    HW232348   2.141   7.652   1.325  0.3884 -2.3470 -0.4764
 9436SOL     OW32349   8.323   8.785   2.309  0.2887 -0.0976  0.3070
 9436SOL    HW132350   8.409   8.755   2.339  0.6095  0.5639  0.0772
 9436SOL    HW232351   8.310   8.739   2.226 -0.0555 -0.9930  0.8375
 9437SOL     OW32352   1.758   1.866   0.856 -0.3760 -0.3242 -0.5707
 9437SOL    HW132353   1.681   1.810   0.860  0.3381 -1.3232 -0.3235
 9437SOL    HW232354   1.787   1.873   0.947 -0.2451  0.1452 -0.6456
 9438SOL     OW32355  10.216   2.131   3.138  0.2692  0.0719  0.1348
 9438SOL    HW132356  10.301   2.176   3.137  1.1519 -1.5161  0.4245
 9438SOL    HW232357  10.193   2.124   3.230 -0.2124  0.5244  0.0557
 9439SOL     OW32358   8.070   7.298   3.039  0.0075  0.0879 -0.4865
 9439SOL    HW132359   7.978   7.322   3.030 -0.2202 -0.7952 -0.5933
 9439SOL    HW232360   8.098   7.280   2.949 -0.1852 -1.2811 -0.2976
 9440SOL     OW32361  10.244   4.222   3.845  0.3647  0.8494 -0.4768
 9440SOL    HW132362  10.316   4.280   3.822 -0.6721  1.8478 -1.3122
 9440SOL    HW232363  10.167   4.279   3.848 -0.5082 -0.3039 -0.2987
 9441SOL     OW32364   0.021   3.147   1.162 -0.6764  0.5115  0.1822
 9441SOL    HW132365   0.006   3.088   1.236 -3.7374  2.1576  1.0586
 9441SOL    HW232366   0.058   3.226   1.201 -2.3356  1.4044  0.0655
 9442SOL     OW32367   3.575   1.675  10.114 -0.4497  0.1695  0.4960
 9442SOL    HW132368   3.540   1.613  10.177 -0.3329 -0.9089 -0.4586
 9442SOL    HW232369   3.668   1.653  10.109 -0.5721 -0.2011 -0.4952
 9443SOL     OW32370   6.740   7.623  10.256 -0.4461  0.2040 -0.0069
 9443SOL    HW132371   6.674   7.593  10.319 -1.1877 -1.2198 -1.3981
 9443SOL    HW232372   6.690   7.650  10.179  0.5462  0.0701 -0.7180
 9444SOL     OW32373   7.248   1.568   0.077 -0.3508 -0.2661 -0.2302
 9444SOL    HW132374   7.309   1.495   0.069 -2.2294 -1.8583 -0.7751
 9444SOL    HW232375   7.264   1.622  -0.001  1.2080  0.0865  0.2950
 9445SOL     OW32376   5.785   7.088   2.138 -0.0288 -0.1724  0.5228
 9445SOL    HW132377   5.769   7.151   2.208 -0.3567 -1.2113  1.4135
 9445SOL    HW232378   5.714   7.024   2.146 -1.2937  0.7724 -2.0956
 9446SOL     OW32379   7.128   1.081   9.004  0.3961 -0.2340  0.3070
 9446SOL    HW132380   7.173   1.048   9.081  0.1493 -0.1574  0.4841
 9446SOL    HW232381   7.058   1.018   8.988  1.6963 -1.4134 -1.0949
 9447SOL     OW32382   9.072   0.415   3.792  0.2903  0.3425  0.2568
 9447SOL    HW132383   8.994   0.370   3.826  0.4299  0.2957  0.5163
 9447SOL    HW232384   9.037   0.489   3.743  0.0225 -0.3809 -0.6971
 9448SOL     OW32385   9.455   9.893   8.372  0.3922  0.0970 -0.1626
 9448SOL    HW132386   9.397   9.833   8.420  2.0592  0.0245  1.8998
 9448SOL    HW232387   9.542   9.853   8.379  0.6826 -0.3893 -4.1447
 9449SOL     OW32388   5.305   8.259   0.375  0.3301 -0.2030 -0.7884
 9449SOL    HW132389   5.218   8.298   0.371  0.0380 -0.6290  0.7661
 9449SOL    HW232390   5.315   8.212   0.292 -2.1837 -2.7705  0.2076
 9450SOL     OW32391  10.253  10.178   1.880  0.4656  0.2089  0.3739
 9450SOL    HW132392  10.189  10.157   1.812  0.1248  0.2839  0.6710
 9450SOL    HW232393  10.317  10.107   1.876 -0.2354 -0.4637  0.8118
 9451SOL     OW32394   0.260   6.901   5.327 -0.4323 -0.1423 -0.2151
 9451SOL    HW132395   0.212   6.981   5.311 -0.4144 -0.0995 -0.0558
 9451SOL    HW232396   0.272   6.862   5.241 -0.9892 -0.2910 -0.2294
 9452SOL     OW32397   3.157   2.388   5.137 -0.3593  0.2188  0.2932
 9452SOL    HW132398   3.192   2.458   5.082  1.8167  0.0582  1.3755
 9452SOL    HW232399   3.184   2.308   5.093 -2.9857 -0.0574 -1.0303
 9453SOL     OW32400   4.973   3.624   3.540 -0.6242  0.2859  0.3164
 9453SOL    HW132401   4.996   3.697   3.482 -3.1499  0.2613 -0.8305
 9453SOL    HW232402   4.924   3.564   3.485 -3.1399  0.2341  2.4226
 9454SOL     OW32403   2.109  10.018   6.156 -0.3894  0.3431  0.4526
 9454SOL    HW132404   2.054  10.059   6.223  0.2074 -0.0340  1.1894
 9454SOL    HW232405   2.165  10.090   6.125  0.6804  0.1214  1.7698
 9455SOL     OW32406   1.702  10.080   3.987  0.0689  0.4466  0.4281
 9455SOL    HW132407   1.622  10.035   4.015 -1.0362  2.1883  0.1953
 9455SOL    HW232408   1.720  10.144   4.056  1.6168 -0.2621  0.7492
 9456SOL     OW32409   9.606   3.907   1.202 -0.3967  0.3577 -0.0581
 9456SOL    HW132410   9.684   3.962   1.192 -0.9400  1.0340 -0.7015
 9456SOL    HW232411   9.617   3.866   1.287 -0.2611  1.9537  0.7289
 9457SOL     OW32412   0.031   0.990   1.061  0.3915 -0.5124 -0.2432
 9457SOL    HW132413  -0.063   0.980   1.043 -0.5546 -1.0516  3.9284
 9457SOL    HW232414   0.072   0.920   1.010 -1.4163 -0.3054 -2.1335
 9458SOL     OW32415   0.074   9.132   7.051  0.7032 -0.2280  0.3425
 9458SOL    HW132416   0.133   9.201   7.082 -1.7900  1.7457  1.0678
 9458SOL    HW232417   0.097   9.055   7.104  0.2896  1.5054  3.2763
 9459SOL     OW32418   2.865   7.087   7.396  0.2672  0.2276 -0.0110
 9459SOL    HW132419   2.855   7.039   7.314  0.4934  0.6433 -0.2843
 9459SOL    HW232420   2.836   7.025   7.464  1.4351 -0.6221 -0.2659
 9460SOL     OW32421   5.211   1.775   5.237  0.9889  0.6516  0.1494
 9460SOL    HW132422   5.224   1.862   5.273  2.8310  0.1266  0.8434
 9460SOL    HW232423   5.239   1.715   5.306  2.3123 -0.4230 -1.2338
 9461SOL     OW32424   1.576   8.701   9.257 -0.4091  0.0998 -0.4125
 9461SOL    HW132425   1.653   8.699   9.314  1.3913  0.9036 -2.7139
 9461SOL    HW232426   1.526   8.778   9.287  1.1060  1.2068 -0.6598
 9462SOL     OW32427   3.473   1.211   5.331  0.0380 -0.3584  0.3087
 9462SOL    HW132428   3.462   1.176   5.243  1.5033  0.5965 -0.2777
 9462SOL    HW232429   3.485   1.134   5.386 -2.2427 -1.0566 -0.0640
 9463SOL     OW32430   1.422   5.788   5.964 -0.3538 -0.1315 -0.2794
 9463SOL    HW132431   1.378   5.862   5.921 -0.2287 -0.4264 -0.9380
 9463SOL    HW232432   1.351   5.735   6.000 -0.4815 -0.0297 -0.3811
 9464SOL     OW32433   8.925   0.070   8.271 -0.1799 -0.1852 -0.4484
 9464SOL    HW132434   9.007   0.030   8.299  1.4466  2.2835 -1.3390
 9464SOL    HW232435   8.885   0.005   8.213  0.4922 -1.9308  0.9488
 9465SOL     OW32436   5.642   8.477   7.331 -0.2124  0.0964 -0.0248
 9465SOL    HW132437   5.622   8.464   7.238  0.0359 -1.7703  0.1419
 9465SOL    HW232438   5.569   8.530   7.363  0.4091  2.0040 -1.5429
 9466SOL     OW32439   8.682   4.557   5.446  0.3144 -0.2640 -0.4162
 9466SOL    HW132440   8.666   4.641   5.489  1.9113 -0.3214  0.3518
 9466SOL    HW232441   8.721   4.580   5.362 -1.8093 -0.1885 -1.4431
 9467SOL     OW32442   3.706   3.110   2.622 -0.3518  0.1403  0.2738
 9467SOL    HW132443   3.616   3.084   2.644 -0.8267  1.0088 -0.5392
 9467SOL    HW232444   3.696   3.198   2.583  0.7665 -0.0625 -0.5049
 9468SOL     OW32445   8.906   1.980   1.623  0.2460 -0.6399 -0.1947
 9468SOL    HW132446   8.840   1.922   1.584  1.8161 -1.5182 -1.6896
 9468SOL    HW232447   8.978   1.921   1.648  1.3170  0.5091 -0.4805
 9469SOL     OW32448   3.984   0.878   6.226  0.2704 -0.0300 -0.2523
 9469SOL    HW132449   3.955   0.904   6.139  0.6084 -0.8209 -0.6162
 9469SOL    HW232450   3.910   0.898   6.284 -0.3585 -0.4830 -0.8903
 9470SOL     OW32451   4.708   9.640   3.457 -0.2016  0.2976 -0.1813
 9470SOL    HW132452   4.767   9.705   3.418 -0.6095  0.2151 -0.9806
 9470SOL    HW232453   4.640   9.693   3.500  0.4288  0.3919  0.7121
 9471SOL     OW32454   9.463   1.463   4.928 -0.4301 -0.0260  0.2305
 9471SOL    HW132455   9.371   1.474   4.902 -0.1605 -0.5712 -1.0244
 9471SOL    HW232456   9.513   1.486   4.850  0.4712 -0.6168  0.6164
 9472SOL     OW32457   5.796   8.052   8.746  0.4909  0.0458 -0.0616
 9472SOL    HW132458   5.756   7.981   8.797 -0.1261 -0.9106 -1.7724
 9472SOL    HW232459   5.890   8.031   8.745  0.1065 -1.9803 -2.2174
 9473SOL     OW32460   2.637   8.839   1.339 -0.2221 -0.8662 -0.5111
 9473SOL    HW132461   2.543   8.830   1.321 -0.2101  0.0566 -1.0669
 9473SOL    HW232462   2.673   8.878   1.260  0.4070  0.0461  0.2026
 9474SOL     OW32463   3.323   8.886   5.708 -0.2351 -0.0135  0.2067
 9474SOL    HW132464   3.370   8.865   5.789  1.3927 -3.3087 -1.4299
 9474SOL    HW232465   3.232   8.861   5.726 -0.3606  1.3212  1.6473
 9475SOL     OW32466   3.763   4.474   6.702  0.4346 -0.2619 -0.4371
 9475SOL    HW132467   3.733   4.442   6.787  1.3479  0.0153  0.0033
 9475SOL    HW232468   3.858   4.459   6.702  0.2055 -2.1650 -2.2373
 9476SOL     OW32469   2.312   2.005   0.424  0.1800 -0.0584 -0.3169
 9476SOL    HW132470   2.276   2.035   0.507  0.8120 -0.6211  0.1698
 9476SOL    HW232471   2.249   2.034   0.358 -2.0121 -2.3342  0.6254
 9477SOL     OW32472   0.219   0.138   4.893 -0.2595 -0.6911  0.1021
 9477SOL    HW132473   0.255   0.226   4.907  1.9037 -1.6293  0.8720
 9477SOL    HW232474   0.222   0.127   4.798 -0.2480 -0.0491  0.0194
 9478SOL     OW32475   0.727   6.760   7.090 -0.1773  0.8409  0.5721
 9478SOL    HW132476   0.668   6.689   7.067  0.1670  0.5445  0.6069
 9478SOL    HW232477   0.724   6.820   7.015  0.9539 -0.1272 -0.2896
 9479SOL     OW32478   5.957   0.656   2.075  0.0981 -0.2299  0.8679
 9479SOL    HW132479   5.988   0.742   2.050  0.3637 -0.9441 -1.5228
 9479SOL    HW232480   5.862   0.664   2.076 -0.0035 -0.3478 -1.4960
 9480SOL     OW32481   3.491   9.988   3.806 -0.1532 -0.5029  0.0231
 9480SOL    HW132482   3.445   9.927   3.864  0.4213 -0.6551  0.3249
 9480SOL    HW232483   3.465  10.075   3.838  0.2414 -0.5848  0.5777
 9481SOL     OW32484   4.044   5.672   8.915 -0.2576  0.2241 -0.4562
 9481SOL    HW132485   4.035   5.734   8.987  0.5437  1.1574 -1.1388
 9481SOL    HW232486   4.060   5.726   8.838  1.1747 -0.8479 -0.9476
 9482SOL     OW32487   4.387   8.744   9.191  0.3494  0.9242  0.3879
 9482SOL    HW132488   4.356   8.769   9.278 -0.8309  0.5532  0.0976
 9482SOL    HW232489   4.379   8.823   9.139  1.3149  1.2191  0.6739
 9483SOL     OW32490   5.348   1.431   6.684  0.6011 -0.3378 -0.4556
 9483SOL    HW132491   5.323   1.380   6.607 -1.7588  0.4646 -0.2898
 9483SOL    HW232492   5.419   1.488   6.653 -0.0490 -0.2992 -1.9377
 9484SOL     OW32493   1.905   5.239   2.969  0.4178 -0.2979 -0.4885
 9484SOL    HW132494   1.986   5.204   2.933  0.7707  0.1956 -0.1751
 9484SOL    HW232495   1.929   5.324   3.005 -0.4026  0.2251 -1.1333
 9485SOL     OW32496   8.531   6.122   8.820 -0.2146 -0.0885 -0.6040
 9485SOL    HW132497   8.571   6.093   8.738 -0.3420 -0.7379 -0.4425
 9485SOL    HW232498   8.459   6.061   8.835  0.5522 -0.7335  0.6084
 9486SOL     OW32499   9.131   7.598   7.868  0.4370 -0.3240  0.1254
 9486SOL    HW132500   9.072   7.671   7.887  1.4401  0.3570  0.7576
 9486SOL    HW232501   9.091   7.553   7.794 -0.1790  0.9169 -0.3218
 9487SOL     OW32502   5.764   7.170   9.728 -0.4469  0.3354 -0.5890
 9487SOL    HW132503   5.788   7.247   9.780 -1.2170  0.7328 -0.8034
 9487SOL    HW232504   5.830   7.166   9.659  0.1796  0.2082 -0.0014
 9488SOL     OW32505  10.230   9.757   1.636 -0.0415  0.5302 -0.0589
 9488SOL    HW132506  10.266   9.838   1.603  2.8078 -1.0071 -1.0207
 9488SOL    HW232507  10.194   9.713   1.559  1.1431 -0.3861 -0.1238
 9489SOL     OW32508   3.580   2.440   8.862  0.3153 -0.0562  0.2052
 9489SOL    HW132509   3.527   2.511   8.824 -1.3940 -0.0883  2.3421
 9489SOL    HW232510   3.516   2.376   8.893  1.6738 -0.7729  1.6665
 9490SOL     OW32511   9.127   9.400   1.790 -0.2316  0.3729  0.0539
 9490SOL    HW132512   9.146   9.334   1.857  1.8784  0.6055 -0.2238
 9490SOL    HW232513   9.174   9.368   1.712 -1.6137  0.7349 -0.9606
 9491SOL     OW32514   1.023   0.417   2.143  0.5315  0.4580  0.1570
 9491SOL    HW132515   1.010   0.394   2.051 -0.0020 -0.1594  0.3811
 9491SOL    HW232516   1.085   0.490   2.141 -0.9474  1.7530 -0.8157
 9492SOL     OW32517   2.936   5.879   1.162  0.7126 -0.0752  0.4203
 9492SOL    HW132518   2.945   5.880   1.067  2.2364  0.0308  0.5273
 9492SOL    HW232519   2.958   5.968   1.189  1.5698 -0.4256  0.9336
 9493SOL     OW32520   1.988   5.418   5.463 -0.0089  0.0894  0.5113
 9493SOL    HW132521   2.008   5.429   5.556  0.9670  0.4425  0.2805
 9493SOL    HW232522   1.907   5.467   5.449  0.2363  0.6558  1.0375
 9494SOL     OW32523   0.361   1.928   7.616  0.2279 -0.3114  0.1584
 9494SOL    HW132524   0.402   1.901   7.698  1.3890  0.7043 -0.0640
 9494SOL    HW232525   0.433   1.931   7.553 -0.7254 -1.5604 -1.0473
 9495SOL     OW32526   4.287   9.098   9.747  0.1046 -0.0030 -0.2917
 9495SOL    HW132527   4.303   9.099   9.652  2.1948 -0.9208  0.0042
 9495SOL    HW232528   4.334   9.174   9.780  0.7499 -0.6066  0.1906
 9496SOL     OW32529   8.171   7.769   0.193 -0.3766 -0.2133  0.4744
 9496SOL    HW132530   8.076   7.774   0.198 -0.4296 -1.1135  0.4712
 9496SOL    HW232531   8.192   7.790   0.102 -0.7191 -1.8833 -0.0210
 9497SOL     OW32532   7.073   0.521   5.607 -0.1998  0.3808  0.0590
 9497SOL    HW132533   7.125   0.556   5.679 -0.1794 -0.4689  0.4740
 9497SOL    HW232534   7.117   0.552   5.528 -0.6513  1.9496  0.3870
 9498SOL     OW32535   3.294   6.857   3.755 -0.4028  0.5241  0.0419
 9498SOL    HW132536   3.387   6.876   3.764 -0.8254  2.2001  1.4319
 9498SOL    HW232537   3.252   6.943   3.751 -1.7679 -0.1712 -2.6322
 9499SOL     OW32538   6.292   5.803   1.450  0.6194 -0.4296 -0.0688
 9499SOL    HW132539   6.325   5.757   1.373 -0.6464  0.6970 -1.3613
 9499SOL    HW232540   6.197   5.805   1.438  0.4142  0.0548  1.3741
 9500SOL     OW32541   3.876   7.452   2.135 -0.4993  0.0831  0.8139
 9500SOL    HW132542   3.842   7.527   2.184  1.6603  0.3743  1.9717
 9500SOL    HW232543   3.969   7.471   2.122  0.0079 -2.1513  0.6907
 9501SOL     OW32544   9.341   1.491   0.822 -0.4415  0.1404 -0.6232
 9501SOL    HW132545   9.427   1.491   0.780 -1.0871 -0.2032 -2.0207
 9501SOL    HW232546   9.335   1.576   0.866  1.0274 -0.2753  0.4536
 9502SOL     OW32547   4.508   0.210   4.748 -0.6891 -0.4596  0.0278
 9502SOL    HW132548   4.447   0.160   4.802 -2.5937  0.7636 -0.8495
 9502SOL    HW232549   4.548   0.273   4.809 -0.1970 -1.3505  0.6382
 9503SOL     OW32550   1.272   0.976   0.171  0.3855  0.0044  0.0545
 9503SOL    HW132551   1.295   0.893   0.213  3.2288 -0.5133 -2.2111
 9503SOL    HW232552   1.220   0.952   0.095  2.1005  0.0881 -1.2118
 9504SOL     OW32553   7.774   4.782  10.215  0.0965  0.1807  0.3439
 9504SOL    HW132554   7.709   4.757  10.281  0.5687  0.0615  0.7784
 9504SOL    HW232555   7.825   4.852  10.257  0.2776  0.2379  0.0310
 9505SOL     OW32556   9.900   3.845   4.526  0.0021 -1.0887  0.5338
 9505SOL    HW132557   9.991   3.860   4.553  0.0453 -2.2152  1.0983
 9505SOL    HW232558   9.855   3.926   4.549  1.0503 -0.1321 -0.6870
 9506SOL     OW32559   8.788   5.029   5.669 -0.7526 -0.1896 -0.7713
 9506SOL    HW132560   8.801   5.080   5.750 -0.8129 -0.6989 -0.4386
 9506SOL    HW232561   8.877   5.005   5.642 -0.6226  1.1688 -1.6378
 9507SOL     OW32562   2.674   3.967   6.271 -0.4633 -0.7090 -0.5770
 9507SOL    HW132563   2.758   3.923   6.281 -1.6603 -2.7040  1.6003
 9507SOL    HW232564   2.676   4.003   6.182  1.8548 -2.4648 -1.3267
 9508SOL     OW32565   1.185   4.168   5.352 -0.0171  0.4413  0.3153
 9508SOL    HW132566   1.136   4.111   5.292  1.2535 -0.9096  0.5003
 9508SOL    HW232567   1.182   4.254   5.310 -0.8572 -0.0369 -0.6672
 9509SOL     OW32568   5.033   3.570   2.281 -0.2157 -0.8812 -0.1976
 9509SOL    HW132569   5.085   3.490   2.273 -1.0892 -1.9126  2.7369
 9509SOL    HW232570   5.066   3.612   2.360 -1.0106  0.7068 -0.6663
 9510SOL     OW32571   9.260   6.389   5.096  0.2835 -0.6871  0.5372
 9510SOL    HW132572   9.253   6.385   5.001  1.1245  0.4200  0.4218
 9510SOL    HW232573   9.292   6.302   5.121  2.1481 -0.3194 -0.3982
 9511SOL     OW32574   6.942   7.204   2.716 -0.0420 -0.4230 -0.0542
 9511SOL    HW132575   6.939   7.299   2.726 -2.5232 -0.4350  0.0585
 9511SOL    HW232576   6.876   7.172   2.777  0.8134 -2.2307 -0.0377
 9512SOL     OW32577   8.681   6.792   9.777 -0.0973 -0.0428  0.6338
 9512SOL    HW132578   8.670   6.804   9.683 -0.3955 -1.1447  0.5198
 9512SOL    HW232579   8.593   6.802   9.813 -0.1365 -0.5322  0.6837
 9513SOL     OW32580   5.901   4.853   4.669 -0.2805  0.2108 -0.2935
 9513SOL    HW132581   5.989   4.892   4.672 -1.5518  3.5197 -1.4035
 9513SOL    HW232582   5.859   4.896   4.595 -3.2821 -0.2535  1.0067
 9514SOL     OW32583   9.340   3.460   8.298  0.4301 -0.0628  0.0121
 9514SOL    HW132584   9.435   3.459   8.307  0.3937 -0.8998  0.3705
 9514SOL    HW232585   9.323   3.419   8.214  0.3089 -1.8635  0.8757
 9515SOL     OW32586   6.408   1.535   3.020  0.0040 -0.2488  0.0885
 9515SOL    HW132587   6.389   1.481   3.096  1.0223 -1.0708 -0.2103
 9515SOL    HW232588   6.504   1.544   3.021  0.0183 -0.1551 -1.0142
 9516SOL     OW32589  10.143   4.872   3.634  0.1495 -0.8335 -0.5927
 9516SOL    HW132590  10.093   4.886   3.553 -0.1033  1.9389 -0.0680
 9516SOL    HW232591  10.232   4.900   3.613 -0.1590  1.0157  0.2848
 9517SOL     OW32592   6.173   5.395   4.928  0.2291 -0.7219  0.7431
 9517SOL    HW132593   6.188   5.301   4.916  0.4023 -0.6991  0.7789
 9517SOL    HW232594   6.168   5.430   4.839  0.4860 -0.7148  0.7303
 9518SOL     OW32595   0.503   8.727   1.258  0.0582 -0.3275  0.3338
 9518SOL    HW132596   0.505   8.683   1.174 -1.4804  1.4178 -0.6870
 9518SOL    HW232597   0.595   8.741   1.280  0.5029 -2.0354 -0.3576
 9519SOL     OW32598   6.700   7.091   3.828  0.7342 -1.0451  0.1947
 9519SOL    HW132599   6.777   7.132   3.788  0.7553 -2.3645 -1.1802
 9519SOL    HW232600   6.648   7.061   3.754 -0.6989 -0.9490  1.1254
 9520SOL     OW32601   2.470  10.022   1.512 -0.3247 -0.2143  0.6701
 9520SOL    HW132602   2.529   9.954   1.543  0.4243 -0.8189 -1.8429
 9520SOL    HW232603   2.414  10.042   1.587  0.6287 -2.2775  2.0065
 9521SOL     OW32604   4.457   2.859   4.979 -0.2293  0.3904  0.0777
 9521SOL    HW132605   4.392   2.828   4.915  0.5947 -1.4935  0.0726
 9521SOL    HW232606   4.447   2.801   5.054 -0.9145  2.3318  1.5746
 9522SOL     OW32607   3.543   3.265   8.903 -1.0795 -0.2421 -0.3154
 9522SOL    HW132608   3.580   3.290   8.987  0.7626 -0.0658 -1.1354
 9522SOL    HW232609   3.507   3.177   8.918 -0.6485 -0.2671  0.6225
 9523SOL     OW32610   9.063   2.648   8.004 -0.3889  0.2791  0.1029
 9523SOL    HW132611   9.026   2.730   7.972  0.1046 -0.2098 -1.8828
 9523SOL    HW232612   9.005   2.581   7.970 -0.5493 -0.2533  1.3560
 9524SOL     OW32613   6.313   9.166   0.131 -0.1668 -0.0906 -0.1294
 9524SOL    HW132614   6.370   9.123   0.194  1.5194  0.0591 -1.4814
 9524SOL    HW232615   6.251   9.215   0.184  0.8898 -0.3621  1.4120
 9525SOL     OW32616   0.363   3.972   0.625  0.7507  0.3605 -0.0452
 9525SOL    HW132617   0.386   4.034   0.693 -0.4882  0.3848  0.3839
 9525SOL    HW232618   0.269   3.956   0.637  0.6239 -0.0865 -1.3691
 9526SOL     OW32619   0.508   9.911   1.582 -0.3724  0.3794 -0.8205
 9526SOL    HW132620   0.567   9.977   1.619  1.1364 -1.2407 -0.1789
 9526SOL    HW232621   0.437   9.904   1.646  0.4092  0.0910  0.0345
 9527SOL     OW32622   1.481   3.893   8.767  0.6269  0.2150  0.3759
 9527SOL    HW132623   1.459   3.833   8.695  1.2718  1.8768 -1.2818
 9527SOL    HW232624   1.560   3.938   8.737 -1.5013  4.1634  0.0593
 9528SOL     OW32625   7.642   0.942   4.478 -0.0331 -0.1162  0.4261
 9528SOL    HW132626   7.581   0.983   4.538 -0.4845  2.8989 -1.8585
 9528SOL    HW232627   7.728   0.974   4.505  0.0514 -0.7383  0.9128
 9529SOL     OW32628   6.104   3.580   7.443 -0.4205  0.6717 -0.1434
 9529SOL    HW132629   6.111   3.485   7.452 -0.4477  0.6582 -0.2698
 9529SOL    HW232630   6.120   3.613   7.532 -0.0346  0.5705 -0.1760
 9530SOL     OW32631   6.720   9.833   8.610 -0.4010 -0.3710  0.2932
 9530SOL    HW132632   6.669   9.766   8.565 -1.2247 -0.5082  1.4003
 9530SOL    HW232633   6.693   9.915   8.568 -1.3111 -0.4764  0.6435
 9531SOL     OW32634   3.727   0.792   0.094 -0.6257  0.5083 -0.2265
 9531SOL    HW132635   3.646   0.842   0.086 -0.9785 -0.1396 -0.8486
 9531SOL    HW232636   3.758   0.810   0.183 -1.9591  0.0098  0.3668
 9532SOL     OW32637   7.914   5.588   7.901 -0.7928  0.5963 -0.5683
 9532SOL    HW132638   8.000   5.547   7.891 -1.3830 -0.8345 -0.0573
 9532SOL    HW232639   7.928   5.679   7.876  0.8557  0.3820 -0.5492
 9533SOL     OW32640   2.473   8.606   5.504 -0.0678 -0.4943  0.6515
 9533SOL    HW132641   2.424   8.590   5.584 -1.8145  0.2048 -0.2273
 9533SOL    HW232642   2.406   8.624   5.438  1.3401 -0.5732 -0.8607
 9534SOL     OW32643   6.174   0.520   5.101  0.1283  0.5230 -0.4313
 9534SOL    HW132644   6.157   0.492   5.011  0.3890 -0.8422 -0.0716
 9534SOL    HW232645   6.251   0.470   5.128  0.4347  1.3782  0.3523
 9535SOL     OW32646   8.482   7.408   5.426  0.0449 -0.0769  0.3530
 9535SOL    HW132647   8.393   7.381   5.449 -0.9931  2.2570 -0.5787
 9535SOL    HW232648   8.525   7.423   5.510 -1.1200  0.6654  0.8541
 9536SOL     OW32649   3.665   4.250   4.895 -0.0483  0.1287 -0.3752
 9536SOL    HW132650   3.695   4.185   4.958  0.0377  1.1130  0.6250
 9536SOL    HW232651   3.729   4.246   4.824 -0.8200 -1.8557 -1.0322
 9537SOL     OW32652   6.061   1.616   5.032 -0.2735 -0.1700  0.1377
 9537SOL    HW132653   6.069   1.580   4.943  1.1827  2.0699 -0.7522
 9537SOL    HW232654   6.148   1.603   5.070  0.1163  1.7059 -0.0083
 9538SOL     OW32655   9.556   6.550   5.222 -0.2696  0.0173  0.7070
 9538SOL    HW132656   9.568   6.473   5.166  0.8702 -2.0962  3.6100
 9538SOL    HW232657   9.462   6.566   5.220 -0.4137 -0.8358 -0.7278
 9539SOL     OW32658   9.162   0.100   6.778  0.0377 -0.2810  1.3809
 9539SOL    HW132659   9.179   0.149   6.697 -0.5688 -2.3827 -0.0935
 9539SOL    HW232660   9.249   0.082   6.814  0.5568 -2.0208 -0.5481
 9540SOL     OW32661   0.690   9.169   8.512 -0.4929  0.0813  0.0777
 9540SOL    HW132662   0.688   9.078   8.483  2.2815 -0.0494  0.0990
 9540SOL    HW232663   0.639   9.169   8.593 -0.3333 -1.4945  0.2082
 9541SOL     OW32664   8.522   1.798   3.762 -0.2490 -0.2882  0.6481
 9541SOL    HW132665   8.593   1.863   3.755 -2.0563  1.6496 -1.2780
 9541SOL    HW232666   8.455   1.840   3.815 -1.9728  0.0468 -1.6367
 9542SOL     OW32667   1.085   0.048   7.063 -0.4545 -0.3121  0.3224
 9542SOL    HW132668   1.149   0.100   7.111  1.4080 -2.2072  0.0325
 9542SOL    HW232669   1.103  -0.042   7.088 -1.7159 -1.0654 -1.2905
 9543SOL     OW32670   0.317   4.586   1.407  0.0800  0.0846 -0.6396
 9543SOL    HW132671   0.391   4.566   1.464 -0.0247 -0.2989 -0.6305
 9543SOL    HW232672   0.339   4.669   1.366 -0.5953  1.2391  1.2268
 9544SOL     OW32673   2.031   5.133   9.402 -0.3783  0.0722 -0.5314
 9544SOL    HW132674   2.052   5.051   9.447 -0.5475  0.3397  0.0431
 9544SOL    HW232675   2.102   5.192   9.426  1.6444 -0.8372 -3.6201
 9545SOL     OW32676   6.408   2.403  10.192 -0.0206 -0.1319 -0.1894
 9545SOL    HW132677   6.371   2.410  10.280 -0.7544 -1.4384 -0.3594
 9545SOL    HW232678   6.421   2.493  10.164 -2.0890  0.3723  0.3023
 9546SOL     OW32679   4.602   3.429   0.684  0.2261  0.1999  0.6860
 9546SOL    HW132680   4.631   3.508   0.640  1.1523  1.4426  3.3051
 9546SOL    HW232681   4.596   3.363   0.615  2.0485  1.8491 -1.1577
 9547SOL     OW32682   9.932   9.434  10.007 -0.5438  0.2000  0.5230
 9547SOL    HW132683   9.923   9.354   9.955 -0.0487  0.6012 -0.1913
 9547SOL    HW232684   9.858   9.432  10.067 -0.8282 -0.5342  0.1600
 9548SOL     OW32685   9.474   5.178   6.294 -0.2645  0.2656 -0.6309
 9548SOL    HW132686   9.542   5.112   6.286 -0.3146  0.1599 -0.2227
 9548SOL    HW232687   9.505   5.252   6.241  0.0111  0.0968 -0.7064
 9549SOL     OW32688   4.586   9.564   2.672  0.5072 -0.8213 -0.0661
 9549SOL    HW132689   4.558   9.655   2.681  0.7011 -0.8351  0.7301
 9549SOL    HW232690   4.532   9.515   2.734  1.0061 -1.1195  0.1411
 9550SOL     OW32691   9.039   3.914   6.067  0.0885 -0.5145 -0.6234
 9550SOL    HW132692   9.045   3.982   6.000 -0.4844  1.6717  1.4250
 9550SOL    HW232693   8.947   3.886   6.065 -0.1286  0.1579 -0.1937
 9551SOL     OW32694   5.593   2.157   7.747 -0.2461  0.0630  0.1768
 9551SOL    HW132695   5.596   2.062   7.736 -1.5488 -0.5914  3.8191
 9551SOL    HW232696   5.507   2.183   7.713  0.4191  0.1119 -1.5225
 9552SOL     OW32697   8.213   7.157   9.048  0.5656  0.3877 -0.1412
 9552SOL    HW132698   8.207   7.088   8.982 -0.0298  0.3110 -0.0146
 9552SOL    HW232699   8.307   7.169   9.062  0.7160 -1.7307  1.2263
 9553SOL     OW32700   2.413   8.808   5.789  0.6573 -0.6383 -0.2003
 9553SOL    HW132701   2.322   8.837   5.782  0.6874 -0.0476  1.3303
 9553SOL    HW232702   2.408   8.713   5.779  0.0426 -0.4977 -1.3885
 9554SOL     OW32703   9.145   7.717   8.524 -0.5395  0.6278 -0.0339
 9554SOL    HW132704   9.131   7.730   8.430 -0.1603  1.3327  0.0082
 9554SOL    HW232705   9.066   7.672   8.554 -0.5534  0.1692 -0.7366
 9555SOL     OW32706   0.062   3.756   4.952 -0.0989  0.0534  0.1927
 9555SOL    HW132707   0.025   3.714   4.874  2.3745  2.3243 -2.4470
 9555SOL    HW232708   0.102   3.684   5.000  0.2014 -1.2077 -1.8035
 9556SOL     OW32709   8.195   7.039   7.145  0.2702  0.3919 -0.2675
 9556SOL    HW132710   8.172   6.948   7.165  1.4021  0.2947  0.6363
 9556SOL    HW232711   8.112   7.078   7.116 -0.6425 -0.4214  1.1443
 9557SOL     OW32712   1.653   4.572   5.031 -0.3096 -0.1614 -0.3014
 9557SOL    HW132713   1.622   4.561   5.121  0.6257 -0.8635 -0.0445
 9557SOL    HW232714   1.724   4.636   5.038 -1.3672  1.1103 -0.8169
 9558SOL     OW32715   9.128   5.052   5.745 -0.0339  0.2132  0.1957
 9558SOL    HW132716   9.112   4.958   5.744 -0.1553  0.2319  0.3232
 9558SOL    HW232717   9.130   5.075   5.838 -3.1801  0.8611  0.2216
 9559SOL     OW32718   4.799   5.682   2.401 -0.1239  0.5353 -0.2111
 9559SOL    HW132719   4.878   5.652   2.357 -0.4734 -1.1092  0.2336
 9559SOL    HW232720   4.803   5.642   2.488 -0.3363  2.2752  0.6419
 9560SOL     OW32721   8.927   8.511   6.792  0.2887  0.4802 -0.2764
 9560SOL    HW132722   8.997   8.489   6.853  0.3306 -1.0010 -0.8244
 9560SOL    HW232723   8.947   8.601   6.764  3.1498 -0.5430 -1.9081
 9561SOL     OW32724   6.521   5.897   5.214 -0.0006 -0.7178 -0.6460
 9561SOL    HW132725   6.598   5.911   5.268 -0.7707  0.7766  0.1305
 9561SOL    HW232726   6.548   5.920   5.126  0.4783 -0.3186 -0.3973
 9562SOL     OW32727   2.600   8.632   4.635 -1.0094 -0.6983 -0.3004
 9562SOL    HW132728   2.563   8.636   4.547 -2.1652 -1.3578  0.1400
 9562SOL    HW232729   2.639   8.719   4.648  0.8227 -1.1686 -2.1227
 9563SOL     OW32730   3.521   4.057   0.909 -0.1674 -0.1149 -0.7199
 9563SOL    HW132731   3.503   4.031   0.819 -2.2705  0.2673 -0.4754
 9563SOL    HW232732   3.548   3.976   0.952 -0.8458 -0.6777 -1.3165
 9564SOL     OW32733   9.724   3.181   8.221  0.2516  0.5208  0.0210
 9564SOL    HW132734   9.640   3.150   8.254 -0.0351  1.1644 -0.0878
 9564SOL    HW232735   9.789   3.137   8.275 -0.1072 -0.8941 -0.6542
 9565SOL     OW32736   6.582   2.669   8.619  0.7136  0.2975  0.4110
 9565SOL    HW132737   6.557   2.758   8.643 -1.5360 -0.0820 -0.3361
 9565SOL    HW232738   6.500   2.626   8.598  1.8398 -1.7388 -0.0328
 9566SOL     OW32739   0.343   8.182   3.945 -0.6846 -0.5038  0.3471
 9566SOL    HW132740   0.382   8.124   3.879  0.7454 -1.9046  2.3117
 9566SOL    HW232741   0.326   8.124   4.020  1.0510  1.6315  2.5200
 9567SOL     OW32742   2.006   8.473   2.803  0.0254 -0.1518  0.1527
 9567SOL    HW132743   2.089   8.515   2.826  1.3372 -1.1338 -2.3263
 9567SOL    HW232744   2.020   8.380   2.822 -0.8288 -0.2015  0.5394
 9568SOL     OW32745   5.381   0.439   4.530  0.1016 -0.2149 -0.3864
 9568SOL    HW132746   5.322   0.410   4.600 -0.6300  0.3032 -0.7740
 9568SOL    HW232747   5.457   0.473   4.576 -0.4889  0.3780  0.1849
 9569SOL     OW32748   1.506   9.088   2.987  0.3175 -0.6025  0.7958
 9569SOL    HW132749   1.597   9.097   2.958  0.1732 -1.0475  0.1737
 9569SOL    HW232750   1.512   9.078   3.082  0.8165  0.6811  0.9143
 9570SOL     OW32751   4.493   6.840   8.337 -0.1940  0.0825  0.4672
 9570SOL    HW132752   4.446   6.837   8.253 -0.7808 -0.3413  0.8066
 9570SOL    HW232753   4.575   6.794   8.319  1.2417  2.8520 -0.7993
 9571SOL     OW32754   2.605   3.394   0.396  0.5461  0.0703  0.0325
 9571SOL    HW132755   2.680   3.399   0.454  1.2011 -0.7288 -0.7055
 9571SOL    HW232756   2.534   3.437   0.443  0.9651 -0.8291  1.5427
 9572SOL     OW32757   5.546   0.844   7.148 -0.0627  0.1799  0.2156
 9572SOL    HW132758   5.466   0.835   7.096  0.5747 -2.3686 -0.4428
 9572SOL    HW232759   5.518   0.833   7.239 -0.7133  1.4142  0.1909
 9573SOL     OW32760   4.611   4.157   7.383  0.1415  0.1529 -0.8516
 9573SOL    HW132761   4.519   4.138   7.362  0.3957 -0.2921 -1.6030
 9573SOL    HW232762   4.616   4.145   7.478 -0.2433 -1.4106 -0.9864
 9574SOL     OW32763   7.562   7.863   4.064  0.1970  0.2183  0.6654
 9574SOL    HW132764   7.615   7.917   4.006  2.7144 -0.0071  2.5843
 9574SOL    HW232765   7.472   7.893   4.049  0.8988  1.2508 -2.0844
 9575SOL     OW32766   9.255   2.306   0.806 -0.3976 -0.0813 -0.0553
 9575SOL    HW132767   9.181   2.353   0.767  1.0960  0.8745 -1.8590
 9575SOL    HW232768   9.300   2.266   0.733  1.2128 -0.1457  0.9215
 9576SOL     OW32769   8.343   7.306   1.671  0.2165 -0.1046  0.1872
 9576SOL    HW132770   8.261   7.339   1.636  0.6511 -1.3178 -2.2280
 9576SOL    HW232771   8.321   7.222   1.710  0.1038  0.2246  0.8516
 9577SOL     OW32772   9.469   0.248   7.341 -0.0760  0.4064  0.3054
 9577SOL    HW132773   9.502   0.187   7.407 -0.8826 -2.3530 -1.6527
 9577SOL    HW232774   9.498   0.211   7.258  0.5348  3.5059 -1.0010
 9578SOL     OW32775   9.816   2.999   4.469 -0.5510 -0.2103  0.1687
 9578SOL    HW132776   9.756   2.928   4.447 -0.6087 -0.0602 -0.1574
 9578SOL    HW232777   9.774   3.077   4.434  0.2103 -0.2052 -0.7455
 9579SOL     OW32778   0.938   0.964   0.701  0.6639  0.0628  0.1679
 9579SOL    HW132779   0.991   0.991   0.777  0.2640 -0.1237  0.5195
 9579SOL    HW232780   1.003   0.938   0.635  1.0365 -2.0012  1.2600
 9580SOL     OW32781   5.859   6.472   7.189 -0.1903 -0.0422 -0.5090
 9580SOL    HW132782   5.933   6.499   7.135  1.1118 -1.1790  0.6608
 9580SOL    HW232783   5.784   6.473   7.129  0.5500  2.0192 -1.4969
 9581SOL     OW32784   9.176   7.228   6.197  0.0847 -0.8613  0.2624
 9581SOL    HW132785   9.188   7.179   6.115 -0.1866  1.0031 -0.9563
 9581SOL    HW232786   9.231   7.306   6.186 -0.0659 -0.5139  1.8160
 9582SOL     OW32787   2.711   2.293   4.811  0.4624 -0.6034 -0.1443
 9582SOL    HW132788   2.752   2.348   4.745 -0.0818 -0.3886 -0.3120
 9582SOL    HW232789   2.647   2.241   4.763 -0.3916  0.0104  0.2893
 9583SOL     OW32790   1.365  10.274   8.601 -0.2964  0.0830 -0.5873
 9583SOL    HW132791   1.456  10.243   8.598 -1.3215 -3.3151 -0.1397
 9583SOL    HW232792   1.373  10.369   8.613  3.1885 -0.2936  1.3197
 9584SOL     OW32793   9.888   3.304   7.832  0.0817  0.5359  1.0450
 9584SOL    HW132794   9.941   3.383   7.826  0.9787 -0.0935  0.3483
 9584SOL    HW232795   9.801   3.331   7.801  0.1356  1.4461  1.6651
 9585SOL     OW32796   4.628   0.229   5.555 -0.3150  0.1243 -0.0911
 9585SOL    HW132797   4.674   0.308   5.527  1.0675 -0.7579 -0.3738
 9585SOL    HW232798   4.556   0.220   5.493  1.1226 -0.3169 -1.7625
 9586SOL     OW32799   2.389   6.260   9.120 -0.6909 -0.1640  0.1317
 9586SOL    HW132800   2.351   6.279   9.207  2.6669 -2.1400  2.2335
 9586SOL    HW232801   2.483   6.262   9.134  0.1900  2.1177 -4.2196
 9587SOL     OW32802   7.938   7.949   1.845 -0.8453 -0.7587 -0.8614
 9587SOL    HW132803   7.988   7.954   1.927  1.2449 -1.9342 -1.9729
 9587SOL    HW232804   7.948   8.035   1.806 -1.8514 -0.1901  0.0972
 9588SOL     OW32805   9.193   9.761   6.601  0.4860 -0.6156  0.1638
 9588SOL    HW132806   9.268   9.758   6.660  0.9086  3.0734  0.0261
 9588SOL    HW232807   9.129   9.816   6.645 -0.5173 -0.4412 -1.4204
 9589SOL     OW32808  10.260   7.691   7.944 -0.5700 -0.1996  0.1066
 9589SOL    HW132809  10.289   7.698   7.853  0.2357  0.3975  0.3920
 9589SOL    HW232810  10.277   7.600   7.968  0.1786 -0.1105 -0.0419
 9590SOL     OW32811   2.285   1.530  10.176  0.0332  0.3514 -0.0768
 9590SOL    HW132812   2.299   1.464  10.108 -1.4260  0.0924 -0.1457
 9590SOL    HW232813   2.367   1.531  10.225  0.1474 -1.4192 -0.1613
 9591SOL     OW32814   0.212   5.679   7.489 -0.1678 -0.6088  0.1049
 9591SOL    HW132815   0.125   5.643   7.470  0.4459 -1.6923 -0.7380
 9591SOL    HW232816   0.215   5.683   7.585 -1.4033  0.1327  0.1434
 9592SOL     OW32817   7.766   5.499   6.896  0.8724 -0.0638  0.0895
 9592SOL    HW132818   7.759   5.524   6.988 -1.1730 -1.1330  0.2599
 9592SOL    HW232819   7.727   5.572   6.848  0.3280 -0.2872  0.1907
 9593SOL     OW32820   0.921   6.992   3.728  0.2723  0.4614  0.0454
 9593SOL    HW132821   0.877   6.909   3.749  2.4776 -0.0648  3.3271
 9593SOL    HW232822   1.006   6.965   3.692  1.1501  1.2065  1.4540
 9594SOL     OW32823   8.634   8.184   1.222  0.1512  0.1044  0.4573
 9594SOL    HW132824   8.693   8.111   1.202  0.8593  0.8619 -0.3027
 9594SOL    HW232825   8.630   8.235   1.141 -0.2485  0.9708  1.0089
 9595SOL     OW32826   6.275   2.005  10.289  0.1861 -0.0713  0.0308
 9595SOL    HW132827   6.303   1.978  10.377 -0.6986 -0.9182  0.0750
 9595SOL    HW232828   6.179   2.009  10.295  0.2292  3.0765 -0.0215
 9596SOL     OW32829   5.101   1.793   0.085  0.7724  0.0708 -0.2800
 9596SOL    HW132830   5.072   1.783  -0.005  1.7682 -0.0234 -0.6110
 9596SOL    HW232831   5.039   1.855   0.124 -1.9443 -2.6707  0.0889
 9597SOL     OW32832   6.220   1.431   2.736 -0.2346 -0.3733  0.0867
 9597SOL    HW132833   6.169   1.380   2.799 -0.3527  1.0903  1.2479
 9597SOL    HW232834   6.162   1.443   2.661 -0.5290 -1.1458  0.1846
 9598SOL     OW32835   6.697   8.291   5.665 -0.1423 -0.6800 -0.3506
 9598SOL    HW132836   6.659   8.207   5.639 -2.9823  0.3046  0.2134
 9598SOL    HW232837   6.673   8.301   5.757 -0.7173  1.1000 -0.6413
 9599SOL     OW32838   6.554   3.908   0.841 -0.9352  0.2933  0.5506
 9599SOL    HW132839   6.519   3.997   0.844 -0.2821  0.5566  0.5404
 9599SOL    HW232840   6.498   3.858   0.900 -1.3296  0.7000  0.5270
 9600SOL     OW32841   3.279   7.135   5.042  0.7398 -0.0528  0.0344
 9600SOL    HW132842   3.304   7.110   4.953 -0.8715 -0.3251 -0.3652
 9600SOL    HW232843   3.195   7.179   5.032  1.2306  1.2548  1.2707
 9601SOL     OW32844   6.844   9.044   8.511 -0.7588 -0.4715 -0.7290
 9601SOL    HW132845   6.785   9.112   8.542 -0.5122 -0.4152 -0.3739
 9601SOL    HW232846   6.787   8.973   8.483 -0.9944 -0.4518 -0.3099
 9602SOL     OW32847   8.506   1.508   4.365 -0.6770 -0.5215  0.5777
 9602SOL    HW132848   8.490   1.566   4.290 -2.1617 -0.8466  0.6194
 9602SOL    HW232849   8.493   1.564   4.442  0.5771 -0.2564  0.6132
 9603SOL     OW32850   7.196   3.637   3.324 -0.0523 -0.2738 -0.0842
 9603SOL    HW132851   7.282   3.679   3.320  0.7261 -1.8966 -2.8695
 9603SOL    HW232852   7.169   3.629   3.233 -1.9925 -2.1361  0.5753
 9604SOL     OW32853   8.556   1.791   5.959  0.2488 -0.1105  0.0134
 9604SOL    HW132854   8.484   1.777   5.898  0.4215 -0.8264 -0.0309
 9604SOL    HW232855   8.622   1.727   5.934  1.1970  0.9943 -0.3790
 9605SOL     OW32856   8.539   0.052   0.563 -0.3246  0.1396  0.2698
 9605SOL    HW132857   8.532   0.036   0.658 -1.8279 -0.5028  0.0787
 9605SOL    HW232858   8.463   0.007   0.526 -0.0016  0.7696 -1.2070
 9606SOL     OW32859   2.029   1.364   6.501  0.3791 -0.5252 -0.2646
 9606SOL    HW132860   2.114   1.406   6.512 -0.1515  0.3600  0.5732
 9606SOL    HW232861   1.966   1.430   6.529 -0.5929 -1.1456 -0.9513
 9607SOL     OW32862   9.719   4.570   4.038  0.5123  0.3720  0.1198
 9607SOL    HW132863   9.684   4.656   4.015  1.4774  0.3903 -1.4314
 9607SOL    HW232864   9.669   4.544   4.115 -0.1220  2.1113  0.3565
 9608SOL     OW32865   9.323   5.154   7.774 -0.1809  0.3589  0.0962
 9608SOL    HW132866   9.370   5.167   7.856 -1.7757 -0.0573  1.1121
 9608SOL    HW232867   9.300   5.062   7.774 -1.9000  0.7568  0.1564
 9609SOL     OW32868   2.400   3.331   2.316  0.2428  0.1180  0.4681
 9609SOL    HW132869   2.365   3.413   2.350  0.6546 -0.2152  1.7557
 9609SOL    HW232870   2.478   3.357   2.266 -1.1388  0.7465 -1.4916
 9610SOL     OW32871   4.980   0.212   8.586 -0.0964  0.4209 -0.4993
 9610SOL    HW132872   5.047   0.259   8.537  0.7357 -1.2832 -1.0550
 9610SOL    HW232873   4.898   0.257   8.564  0.7178  1.9711 -0.5071
 9611SOL     OW32874   3.434   1.394   6.250  0.3578 -0.7911  0.0083
 9611SOL    HW132875   3.526   1.382   6.274  1.4222  0.6445 -2.9024
 9611SOL    HW232876   3.435   1.407   6.156 -2.8408 -0.3369 -0.0793
 9612SOL     OW32877   2.034   3.532   4.342  0.0997 -0.0158 -0.0994
 9612SOL    HW132878   2.015   3.580   4.261 -2.3598  0.5807  0.7546
 9612SOL    HW232879   2.122   3.562   4.367  0.0066  1.4621 -1.3933
 9613SOL     OW32880   8.406   8.353   3.446  0.1647 -0.4673  0.4324
 9613SOL    HW132881   8.324   8.399   3.428  0.5007 -0.1544 -0.3545
 9613SOL    HW232882   8.386   8.261   3.430 -0.3083 -0.5242  1.2788
 9614SOL     OW32883   2.223   9.598   9.725 -0.2441 -0.4952  0.7899
 9614SOL    HW132884   2.155   9.553   9.674 -2.7206  1.9025  1.7114
 9614SOL    HW232885   2.248   9.673   9.671  1.8405 -1.3858  0.4291
 9615SOL     OW32886   9.925   3.402   6.165 -0.2638 -0.0918 -0.1718
 9615SOL    HW132887   9.938   3.488   6.125 -0.6242 -0.1849 -0.4974
 9615SOL    HW232888   9.975   3.342   6.109  0.8769  0.0463  0.6734
 9616SOL     OW32889   2.648   1.568   4.700  0.1302 -0.2552 -0.5168
 9616SOL    HW132890   2.593   1.491   4.686  0.2937 -0.5902  0.6124
 9616SOL    HW232891   2.586   1.641   4.706 -0.0614 -0.3747 -1.0440
 9617SOL     OW32892   2.881   3.851   7.923  0.1619 -0.6294  0.0423
 9617SOL    HW132893   2.791   3.882   7.916  0.5913  1.8697  3.0528
 9617SOL    HW232894   2.885   3.774   7.867 -3.0624  0.7196 -2.3223
 9618SOL     OW32895   9.855   2.863   9.421  0.4676 -0.0298 -0.0980
 9618SOL    HW132896   9.830   2.893   9.509  2.0056 -0.3532  0.4694
 9618SOL    HW232897   9.853   2.768   9.427  1.0630 -0.0522 -0.2768
 9619SOL     OW32898   3.710   8.884   3.131 -0.7753  0.3455 -0.6268
 9619SOL    HW132899   3.719   8.906   3.224 -1.4496 -1.1586 -0.1640
 9619SOL    HW232900   3.798   8.855   3.105 -0.5556  0.8850 -0.4969
 9620SOL     OW32901   2.432   7.299   9.132 -0.6025 -0.3175  0.2619
 9620SOL    HW132902   2.467   7.384   9.157 -0.2248 -0.8027  1.4327
 9620SOL    HW232903   2.508   7.240   9.132 -0.9122 -0.7312 -0.2001
 9621SOL     OW32904   9.495   0.428   5.035  0.3427 -0.3041  0.6500
 9621SOL    HW132905   9.405   0.445   5.008  0.4020  0.3835  0.8681
 9621SOL    HW232906   9.488   0.387   5.121  0.2775  1.4411  1.5144
 9622SOL     OW32907   3.206   4.198   5.070  0.1617  0.2285 -0.4950
 9622SOL    HW132908   3.146   4.170   5.000 -0.6975  0.7805  0.0005
 9622SOL    HW232909   3.148   4.227   5.140  1.0116 -0.2451  0.4259
 9623SOL     OW32910   1.544   8.152   2.190  0.1888 -0.1468 -0.0557
 9623SOL    HW132911   1.488   8.225   2.162 -0.0317 -0.3964 -0.2759
 9623SOL    HW232912   1.556   8.100   2.111 -1.1383 -1.3300  0.4776
 9624SOL     OW32913   6.187   8.565   7.952 -0.2288  0.3202 -0.3675
 9624SOL    HW132914   6.208   8.642   7.899 -1.0386  0.3450 -0.6690
 9624SOL    HW232915   6.149   8.503   7.890  0.5031 -0.3682 -0.1463
 9625SOL     OW32916   7.478   4.593   0.398 -0.4197  0.3632  0.0784
 9625SOL    HW132917   7.572   4.601   0.379 -0.2451  0.3197  0.8715
 9625SOL    HW232918   7.440   4.676   0.368 -0.0518  0.5668  0.1701
 9626SOL     OW32919   8.675   8.994   5.269  0.0152  0.0385 -0.5542
 9626SOL    HW132920   8.654   8.940   5.346  0.9539 -1.6214 -1.4109
 9626SOL    HW232921   8.593   9.039   5.249 -0.8647 -1.1887  0.1195
 9627SOL     OW32922   6.276   1.230   1.531 -0.3743  0.0576  1.3796
 9627SOL    HW132923   6.197   1.221   1.477  2.6228 -2.3184 -3.2157
 9627SOL    HW232924   6.286   1.145   1.573  1.4704 -1.0299 -1.0504
 9628SOL     OW32925   5.173   9.468   6.059 -0.7908  0.3443 -0.5695
 9628SOL    HW132926   5.258   9.449   6.019 -0.5751 -0.0383  0.0631
 9628SOL    HW232927   5.172   9.564   6.067  0.1338  0.2799  0.6048
 9629SOL     OW32928   1.247   0.288   3.067  0.1339  0.0740  0.5100
 9629SOL    HW132929   1.253   0.381   3.046 -0.8304  0.0722  0.1645
 9629SOL    HW232930   1.235   0.245   2.982  1.8706 -0.5196  0.5173
 9630SOL     OW32931   8.714   2.350   2.159 -0.4743 -0.0341  0.1028
 9630SOL    HW132932   8.808   2.366   2.167 -0.4236  0.1483 -0.7841
 9630SOL    HW232933   8.705   2.304   2.076 -1.2565  0.6806 -0.2192
 9631SOL     OW32934   1.006   6.476   6.967  0.2566 -0.3177 -0.1303
 9631SOL    HW132935   0.961   6.417   7.028  0.0829 -0.2481 -0.1898
 9631SOL    HW232936   1.093   6.487   7.005  0.2077 -0.4162  0.0131
 9632SOL     OW32937   9.629   1.813   6.069  0.4422  0.2420 -0.2286
 9632SOL    HW132938   9.634   1.784   6.160  1.7645  0.0190 -0.3448
 9632SOL    HW232939   9.628   1.909   6.075 -1.2335  0.2410  0.0552
 9633SOL     OW32940   3.475   7.549   3.874 -0.0738  0.1250 -0.4016
 9633SOL    HW132941   3.454   7.535   3.966 -0.1509 -1.2116 -0.6115
 9633SOL    HW232942   3.391   7.569   3.833 -0.0690  0.5161 -0.2269
 9634SOL     OW32943   7.123   8.579   6.681  0.1637  0.1550  0.0558
 9634SOL    HW132944   7.040   8.623   6.663  0.7282  1.0477 -0.4681
 9634SOL    HW232945   7.165   8.571   6.595  1.4207  1.4100  0.5179
 9635SOL     OW32946   6.398   3.646   9.263 -0.0331 -0.2854  0.2310
 9635SOL    HW132947   6.442   3.716   9.215  0.5523  0.5562  1.9038
 9635SOL    HW232948   6.313   3.637   9.220 -0.9102  2.7736  1.0167
 9636SOL     OW32949   4.743   4.922   2.286  0.3202 -0.2027 -0.3623
 9636SOL    HW132950   4.669   4.904   2.228  0.3809  0.9392 -0.8090
 9636SOL    HW232951   4.764   5.014   2.271  1.2973 -0.2883  0.3777
 9637SOL     OW32952   0.683   0.813   4.114 -0.0674  0.0778 -0.1125
 9637SOL    HW132953   0.662   0.761   4.191  0.1721 -0.6329 -0.5167
 9637SOL    HW232954   0.599   0.849   4.085 -0.7630 -2.5071 -1.5559
 9638SOL     OW32955   3.030   1.193   7.838  0.1447 -0.1646  0.4877
 9638SOL    HW132956   2.954   1.251   7.841  0.5410  0.3496  3.4233
 9638SOL    HW232957   3.105   1.251   7.850  0.6558 -1.0825  1.9808
 9639SOL     OW32958   7.173   4.788   3.863 -0.0503  0.4412 -0.4721
 9639SOL    HW132959   7.161   4.694   3.865 -0.7368  0.5378  0.6345
 9639SOL    HW232960   7.260   4.802   3.902  0.4536  0.2206 -1.4951
 9640SOL     OW32961   3.252   0.928   6.000  0.4607 -0.0576  0.0464
 9640SOL    HW132962   3.227   0.992   6.067  0.1198  0.3337 -0.4529
 9640SOL    HW232963   3.228   0.843   6.038 -0.6590  0.2274  0.0152
 9641SOL     OW32964   1.772   9.696   0.881  0.4618  0.0746 -0.2690
 9641SOL    HW132965   1.748   9.621   0.936 -0.8737 -1.6121 -2.9436
 9641SOL    HW232966   1.834   9.660   0.818 -0.8616  0.9598 -2.1525
 9642SOL     OW32967   4.893   9.554   5.529  0.5135 -0.2621  0.1156
 9642SOL    HW132968   4.944   9.508   5.596 -4.5738 -1.7975  3.5205
 9642SOL    HW232969   4.861   9.485   5.472  0.7773  0.4256 -0.8803
 9643SOL     OW32970   2.817   6.404   3.185 -0.2144 -0.7356  0.2542
 9643SOL    HW132971   2.721   6.402   3.179 -0.1505 -0.7238 -1.0496
 9643SOL    HW232972   2.842   6.314   3.204 -0.4514 -0.8929 -0.1658
 9644SOL     OW32973   5.412   3.106   6.739 -0.9061  0.3801  0.1624
 9644SOL    HW132974   5.376   3.018   6.754  0.0332 -0.2855 -1.2349
 9644SOL    HW232975   5.413   3.147   6.825 -0.9379 -1.1526  0.9231
 9645SOL     OW32976   6.847   6.121   0.929 -0.1192  0.2838 -0.4463
 9645SOL    HW132977   6.934   6.100   0.962 -0.7487 -0.8688  0.5388
 9645SOL    HW232978   6.844   6.217   0.929  0.2966  0.3361  1.8516
 9646SOL     OW32979   1.785   4.148   4.025 -0.0875 -0.0168  0.1981
 9646SOL    HW132980   1.756   4.080   4.087  2.1557 -1.2429  0.0091
 9646SOL    HW232981   1.861   4.187   4.068 -0.6415  1.5931 -0.2461
 9647SOL     OW32982   0.895   6.539   8.544  0.4518  0.2243  1.1358
 9647SOL    HW132983   0.811   6.555   8.586 -0.3010 -0.1442 -0.1910
 9647SOL    HW232984   0.909   6.445   8.554 -0.5008 -0.1626 -0.7607
 9648SOL     OW32985   9.586   3.917   6.571 -0.2521  0.1853  0.0224
 9648SOL    HW132986   9.511   3.864   6.544  0.1074  0.5006 -1.6932
 9648SOL    HW232987   9.546   3.997   6.607 -0.7684 -0.8528  1.9239
 9649SOL     OW32988   4.413   7.362   4.261 -0.6599 -0.0878 -0.2374
 9649SOL    HW132989   4.352   7.418   4.309  0.8919  1.3593  0.1469
 9649SOL    HW232990   4.491   7.357   4.317 -0.3235 -1.6927 -0.8092
 9650SOL     OW32991   1.201   6.763   1.331  0.4945 -0.1410 -0.2606
 9650SOL    HW132992   1.117   6.798   1.303  1.5891  1.5232 -1.6115
 9650SOL    HW232993   1.245   6.836   1.374  1.6306 -0.6881 -0.4499
 9651SOL     OW32994   9.505   9.388   1.038 -0.5647  0.0981  0.0882
 9651SOL    HW132995   9.534   9.346   1.120 -2.0760  0.3144  0.7619
 9651SOL    HW232996   9.580   9.378   0.979  0.1918 -0.9692  1.1657
 9652SOL     OW32997   6.909   2.414   6.730  0.4668 -0.1127  0.4927
 9652SOL    HW132998   7.000   2.405   6.760  0.6164 -0.2484 -0.0006
 9652SOL    HW232999   6.906   2.499   6.687  0.4303 -0.2302  0.2605
 9653SOL     OW33000   8.691   0.004   4.406 -0.5072 -0.6248  0.0383
 9653SOL    HW133001   8.618   0.063   4.385 -0.6461 -0.5161  0.7763
 9653SOL    HW233002   8.698   0.009   4.502 -1.1571 -2.5649  0.2226
 9654SOL     OW33003   8.774   2.328   6.498 -0.0970 -0.4453  0.0536
 9654SOL    HW133004   8.838   2.375   6.552  0.3690  0.4282 -1.2093
 9654SOL    HW233005   8.734   2.265   6.557  3.0680 -2.1866  0.5201
 9655SOL     OW33006   4.103   3.686   9.098 -0.5286 -0.4694  0.1269
 9655SOL    HW133007   4.087   3.616   9.034 -1.2942  0.8976 -1.2392
 9655SOL    HW233008   4.015   3.717   9.122 -0.2058 -0.0851  0.8632
 9656SOL     OW33009   7.999   8.050   3.494 -0.0723  0.9029 -0.1937
 9656SOL    HW133010   8.034   8.057   3.406  0.6145 -1.4633 -0.1729
 9656SOL    HW233011   8.075   8.035   3.550 -0.5512  1.7932  0.7508
 9657SOL     OW33012   9.107   5.153   2.602 -0.0659 -0.1557  0.1868
 9657SOL    HW133013   9.137   5.114   2.520  0.2549  0.2089  0.1266
 9657SOL    HW233014   9.178   5.212   2.627 -1.0023  1.2312 -0.3025
 9658SOL     OW33015   5.560   3.614   8.100 -0.6225  0.6932  0.7743
 9658SOL    HW133016   5.471   3.648   8.113 -1.6148 -1.6885  0.7630
 9658SOL    HW233017   5.572   3.552   8.172 -0.0392 -1.0216 -0.7497
 9659SOL     OW33018   2.446   9.047   2.785 -0.3794  0.7034 -0.3116
 9659SOL    HW133019   2.395   8.993   2.845 -2.8338  1.3544 -1.6686
 9659SOL    HW233020   2.466   8.990   2.712 -0.0464  0.7209 -0.2327
 9660SOL     OW33021   3.120   3.699   3.101  0.4149 -0.0588 -0.1211
 9660SOL    HW133022   3.102   3.626   3.042  0.1470 -0.8632  0.9384
 9660SOL    HW233023   3.170   3.660   3.173  0.4377  0.8351  0.3588
 9661SOL     OW33024   6.352   0.022   8.116 -0.1937 -0.0295 -0.4154
 9661SOL    HW133025   6.268   0.039   8.073 -0.7443  4.7599  1.9127
 9661SOL    HW233026   6.416   0.067   8.061 -0.0598  1.0945  0.6163
 9662SOL     OW33027   9.939   2.671   9.079 -0.2961 -0.0781  0.0511
 9662SOL    HW133028   9.995   2.601   9.046  0.7668  0.9115 -0.3090
 9662SOL    HW233029   9.998   2.729   9.126 -1.0970  0.7626  0.0545
 9663SOL     OW33030   1.761   6.920   2.580  0.3561 -0.2623 -0.0758
 9663SOL    HW133031   1.728   6.979   2.648 -0.6804 -0.7181 -0.1640
 9663SOL    HW233032   1.723   6.834   2.602  2.1990 -1.0319  0.3230
 9664SOL     OW33033   1.813   3.378   1.291  0.0548 -0.0796 -0.0845
 9664SOL    HW133034   1.745   3.324   1.330 -2.4643  0.1525 -3.7035
 9664SOL    HW233035   1.877   3.315   1.256 -1.8744 -0.8313 -2.5608
 9665SOL     OW33036   6.331   1.748   4.476  0.6717 -0.2185 -0.3503
 9665SOL    HW133037   6.323   1.833   4.432  0.0988 -1.0714 -2.0051
 9665SOL    HW233038   6.402   1.704   4.430  2.9629  0.3452  2.3446
 9666SOL     OW33039   0.844   8.154   1.627  0.0117  0.1537 -0.1494
 9666SOL    HW133040   0.793   8.159   1.546 -0.6298  1.3968  0.3138
 9666SOL    HW233041   0.787   8.191   1.694 -0.5317 -3.1980  1.4500
 9667SOL     OW33042   3.014   4.496   0.609  0.2309 -0.2486 -0.0388
 9667SOL    HW133043   3.068   4.573   0.593 -0.1124 -0.1768 -0.9117
 9667SOL    HW233044   2.989   4.503   0.701  1.7152 -0.3006  0.4081
 9668SOL     OW33045   2.156   5.751   5.421  0.0882  0.0890  0.0793
 9668SOL    HW133046   2.194   5.758   5.334 -0.3183  0.1588 -0.0975
 9668SOL    HW233047   2.065   5.726   5.406 -0.0422  0.3048  0.4741
 9669SOL     OW33048   2.629   2.566   6.681 -0.3437  0.0756  0.0154
 9669SOL    HW133049   2.564   2.496   6.682  0.6203 -0.8482  0.6453
 9669SOL    HW233050   2.666   2.563   6.593 -0.6583  0.1170 -0.1167
 9670SOL     OW33051   3.921   2.792   2.285  0.5436 -1.1984 -0.4980
 9670SOL    HW133052   3.973   2.804   2.365 -0.6307  0.4596  0.0741
 9670SOL    HW233053   3.854   2.728   2.310 -0.7832  0.4593  0.4038
 9671SOL     OW33054   0.760   1.347   3.446 -0.3266 -0.1692  0.1932
 9671SOL    HW133055   0.851   1.350   3.477 -0.7645 -0.3756  1.5544
 9671SOL    HW233056   0.709   1.389   3.515 -1.4713 -1.5537  0.2365
 9672SOL     OW33057   4.970   1.162   1.287 -0.9966 -0.7524  0.2847
 9672SOL    HW133058   4.911   1.094   1.253 -0.9863 -0.3864 -0.4800
 9672SOL    HW233059   4.951   1.165   1.381 -2.9525  0.0708 -0.0808
 9673SOL     OW33060   4.286   0.420   6.603  0.8765 -0.2699  0.1825
 9673SOL    HW133061   4.305   0.370   6.683  4.4466 -0.9237 -0.8973
 9673SOL    HW233062   4.341   0.498   6.610  0.2854  0.2934 -1.0938
 9674SOL     OW33063   1.155   0.533   5.280  0.5805 -0.1537  0.1969
 9674SOL    HW133064   1.220   0.546   5.349  0.7552  1.5300 -0.2315
 9674SOL    HW233065   1.083   0.591   5.304  0.9060  0.9415 -1.3296
 9675SOL     OW33066   3.219   3.800   6.971 -0.0920  0.8208  0.5526
 9675SOL    HW133067   3.130   3.835   6.961 -0.4015 -0.0512  0.1896
 9675SOL    HW233068   3.236   3.804   7.065 -0.8113  0.2764  0.7123
 9676SOL     OW33069   6.201   1.596   6.236  0.1883 -0.2232  0.0986
 9676SOL    HW133070   6.172   1.688   6.237  1.2120  0.1383 -1.0814
 9676SOL    HW233071   6.151   1.555   6.306  0.3628  1.4329  1.2584
 9677SOL     OW33072   5.708   3.128   3.447 -0.0593  0.1754 -0.4024
 9677SOL    HW133073   5.616   3.146   3.430  0.0400  1.6675  0.4380
 9677SOL    HW233074   5.735   3.072   3.375 -1.3188  0.7177 -1.3389
 9678SOL     OW33075   0.792   7.600   4.977  0.1128 -0.1231  0.4454
 9678SOL    HW133076   0.742   7.519   4.967  1.6279 -1.1256  0.6642
 9678SOL    HW233077   0.732   7.660   5.023 -1.7796 -0.3569 -1.5737
 9679SOL     OW33078   6.780   2.162   0.770 -0.4862  0.0565  0.1156
 9679SOL    HW133079   6.752   2.073   0.788  0.2477  0.0332  1.2407
 9679SOL    HW233080   6.706   2.203   0.726 -0.0819 -1.7136 -2.4501
 9680SOL     OW33081   7.193   6.218   0.356  0.1611 -0.1158  0.3504
 9680SOL    HW133082   7.155   6.277   0.291  2.4385  1.9175  0.7258
 9680SOL    HW233083   7.234   6.276   0.420 -0.7589 -2.0694  2.8748
 9681SOL     OW33084   0.939   8.689   3.260  0.6191 -0.0347  0.3911
 9681SOL    HW133085   0.848   8.662   3.273  0.1347  0.7586 -1.1174
 9681SOL    HW233086   0.940   8.732   3.175  2.2402  0.7680  0.7591
 9682SOL     OW33087   3.096   3.530   5.168  0.3479 -0.0337 -0.3141
 9682SOL    HW133088   3.061   3.581   5.241 -1.1388 -0.7960 -0.4375
 9682SOL    HW233089   3.091   3.589   5.093 -1.7223 -0.3842 -0.5358
 9683SOL     OW33090   0.410   6.793   8.675 -0.1897 -0.0787 -0.2855
 9683SOL    HW133091   0.480   6.827   8.620 -0.1336  0.9398  0.4019
 9683SOL    HW233092   0.437   6.813   8.764 -2.0772  1.8381 -0.0640
 9684SOL     OW33093   1.244   5.518   1.549 -0.2763 -0.5830  0.2183
 9684SOL    HW133094   1.323   5.540   1.499 -0.9830  0.5322 -0.4525
 9684SOL    HW233095   1.269   5.440   1.599  2.2896  1.4415  2.4357
 9685SOL     OW33096   4.477   7.059   3.889 -0.4218 -0.1439 -0.1427
 9685SOL    HW133097   4.520   7.114   3.824  2.1222 -2.5874 -0.7301
 9685SOL    HW233098   4.488   7.106   3.972  2.6265 -0.1356 -0.4463
 9686SOL     OW33099   3.758   9.425   4.861 -0.3849 -0.4268  0.1886
 9686SOL    HW133100   3.815   9.426   4.937  0.3347  1.3106 -0.3251
 9686SOL    HW233101   3.777   9.507   4.816 -1.5854 -0.9104 -1.2753
 9687SOL     OW33102   4.154   0.917  10.141 -0.2224 -0.2474 -0.0544
 9687SOL    HW133103   4.181   0.963  10.221  0.7862 -0.9698  0.0283
 9687SOL    HW233104   4.145   0.986  10.076  1.7763  0.0391 -0.0725
 9688SOL     OW33105   8.112   0.102   6.900 -0.2451 -0.4747  0.1864
 9688SOL    HW133106   8.205   0.098   6.877 -0.6046 -0.2362 -1.4588
 9688SOL    HW233107   8.072   0.030   6.852 -1.0285 -0.0612  0.2007
 9689SOL     OW33108   9.608   8.458   0.014 -0.5392  0.1888  0.2802
 9689SOL    HW133109   9.536   8.498   0.063 -0.1924 -1.6387  2.4395
 9689SOL    HW233110   9.595   8.364   0.026 -0.4988 -0.4510 -3.3507
 9690SOL     OW33111   3.356   2.146   6.949 -0.2314  0.1315 -0.4102
 9690SOL    HW133112   3.328   2.172   7.037 -0.0503  1.9644 -0.8554
 9690SOL    HW233113   3.278   2.111   6.908 -0.8803  1.3398 -0.2431
 9691SOL     OW33114   9.664   5.732   9.553 -0.0029  0.2105  0.1480
 9691SOL    HW133115   9.629   5.688   9.630  2.2826 -1.3169  0.4273
 9691SOL    HW233116   9.685   5.821   9.583  0.1124 -0.1215  1.0780
 9692SOL     OW33117   3.498   5.143   8.599 -0.2253  0.3435  0.6591
 9692SOL    HW133118   3.406   5.160   8.579 -0.3733  0.4598  1.3936
 9692SOL    HW233119   3.517   5.203   8.672  0.9188  1.5681 -0.5882
 9693SOL     OW33120   9.921   5.996   1.664 -0.2148 -0.1718  0.4337
 9693SOL    HW133121   9.956   5.986   1.753 -0.0682  0.4557  0.4534
 9693SOL    HW233122   9.986   5.954   1.608 -0.3505 -0.6494  0.6307
 9694SOL     OW33123   7.508   4.792   2.001 -0.1417 -0.0275  0.6397
 9694SOL    HW133124   7.498   4.698   2.011  0.5728 -0.3489 -1.3472
 9694SOL    HW233125   7.418   4.825   1.998 -0.5549 -1.1719 -2.6912
 9695SOL     OW33126   8.560   7.844   1.221 -0.6829 -0.1408 -0.2910
 9695SOL    HW133127   8.653   7.866   1.229 -1.1541  2.3025 -0.7309
 9695SOL    HW233128   8.526   7.907   1.158 -3.3197  1.4462  2.4446
 9696SOL     OW33129  10.269   1.569   3.296 -0.1343 -0.6110 -0.7390
 9696SOL    HW133130  10.226   1.557   3.211  0.6934 -2.1539 -0.9755
 9696SOL    HW233131  10.336   1.636   3.280  1.0447 -1.9664 -1.7339
 9697SOL     OW33132   6.618   1.679   8.814 -0.4405 -0.4891  0.2706
 9697SOL    HW133133   6.583   1.721   8.892 -0.6950  0.9944 -0.6157
 9697SOL    HW233134   6.596   1.738   8.742 -0.8039 -2.1233 -1.0417
 9698SOL     OW33135   8.296   7.625   8.299 -0.1237  0.4958  0.7558
 9698SOL    HW133136   8.281   7.550   8.241 -2.4040  1.0868  0.4714
 9698SOL    HW233137   8.278   7.592   8.387  0.4895  0.3190  0.8190
 9699SOL     OW33138   7.429   8.665   1.060 -0.6927  0.1102  0.1062
 9699SOL    HW133139   7.437   8.583   1.013  0.8514  0.2767  0.0381
 9699SOL    HW233140   7.334   8.681   1.065 -0.9999 -1.5503 -0.0477
 9700SOL     OW33141   3.442   2.114   9.001  0.1325 -0.2449  0.2058
 9700SOL    HW133142   3.399   2.189   8.961  0.5342  0.3656  0.8784
 9700SOL    HW233143   3.370   2.057   9.030 -0.2116  0.4469  0.7331
 9701SOL     OW33144   4.895   3.509   5.260  0.9962 -0.6331 -0.0835
 9701SOL    HW133145   4.977   3.558   5.257  0.3412  0.5244  0.3483
 9701SOL    HW233146   4.868   3.514   5.352 -0.3824  0.4221 -0.5168
 9702SOL     OW33147   8.408   2.840   1.188  0.1006 -0.4012 -0.5651
 9702SOL    HW133148   8.427   2.906   1.254  1.6674 -0.2312 -1.1497
 9702SOL    HW233149   8.370   2.890   1.115  0.2034 -0.3003 -0.5507
 9703SOL     OW33150   1.711   9.139   6.786  0.3317  0.3293 -0.0625
 9703SOL    HW133151   1.724   9.202   6.857 -0.2939  1.5742 -1.0123
 9703SOL    HW233152   1.658   9.187   6.721  0.8489 -0.7809 -1.3433
 9704SOL     OW33153   6.728   1.248   3.841  0.0106 -0.4441 -0.2861
 9704SOL    HW133154   6.691   1.215   3.759  0.6371  1.0093 -1.1937
 9704SOL    HW233155   6.772   1.172   3.879 -2.2385 -1.7550 -0.0775
 9705SOL     OW33156   9.944   5.576   0.392 -0.2928  0.5123 -0.2543
 9705SOL    HW133157   9.948   5.482   0.374 -1.1020  0.3326  0.4026
 9705SOL    HW233158  10.022   5.594   0.445 -1.5612 -0.4123  2.1075
 9706SOL     OW33159   1.048   3.167   4.241  0.7755  0.2449 -0.2605
 9706SOL    HW133160   1.067   3.216   4.321 -0.3594  0.3317 -0.0296
 9706SOL    HW233161   1.091   3.083   4.253  2.1583  0.9007 -0.3566
 9707SOL     OW33162   9.928   3.736   8.032  0.3801  0.1607  0.0429
 9707SOL    HW133163   9.961   3.662   7.982 -0.6442 -1.5210  1.7477
 9707SOL    HW233164   9.843   3.757   7.993 -0.7456 -1.6044  1.3956
 9708SOL     OW33165   6.840   0.731   8.839 -0.0168  0.2767 -0.4065
 9708SOL    HW133166   6.862   0.818   8.873 -0.3227 -0.0789  0.7584
 9708SOL    HW233167   6.780   0.695   8.905  0.8141 -1.1610 -0.4205
 9709SOL     OW33168   7.600   3.638   7.022  0.0135  0.0465 -0.0696
 9709SOL    HW133169   7.647   3.578   6.964  1.4287  2.0384 -1.0939
 9709SOL    HW233170   7.575   3.711   6.966  1.1320  1.8996  1.7258
 9710SOL     OW33171   5.044   1.343   9.174  0.2534  0.0238 -0.0265
 9710SOL    HW133172   5.053   1.437   9.186 -0.1458  0.0149  0.3487
 9710SOL    HW233173   5.133   1.309   9.182  0.0232 -0.0475  3.4166
 9711SOL     OW33174   6.100   1.391   2.086  0.7783 -0.3927  0.2768
 9711SOL    HW133175   6.126   1.407   2.177  0.3620  0.1620  0.3003
 9711SOL    HW233176   6.006   1.405   2.085  0.9058  0.4756 -0.4306
 9712SOL     OW33177   8.593   7.396   4.220  0.0394 -0.0766  0.4124
 9712SOL    HW133178   8.616   7.468   4.278 -0.1044  0.8010 -0.5843
 9712SOL    HW233179   8.655   7.327   4.241  1.1755  0.8915  0.3317
 9713SOL     OW33180   0.353   9.994  10.141  0.4276 -0.0902 -0.4649
 9713SOL    HW133181   0.339  10.021  10.232 -0.9114  1.1805 -1.0117
 9713SOL    HW233182   0.301   9.914  10.132 -0.2479  0.3256 -0.3653
 9714SOL     OW33183   6.306   9.987   5.907 -0.2610  1.6004  0.3389
 9714SOL    HW133184   6.297  10.014   5.999  0.1859  0.4089  0.7499
 9714SOL    HW233185   6.258   9.904   5.902  0.3563  1.2802 -0.3198
 9715SOL     OW33186   1.616   1.137   3.833  0.3056 -0.2909  0.3367
 9715SOL    HW133187   1.681   1.134   3.904 -0.8360 -2.2109  1.3476
 9715SOL    HW233188   1.638   1.062   3.777  0.0567  0.1354 -0.3471
 9716SOL     OW33189   1.898   0.274   5.750 -0.4670  1.3930 -0.6900
 9716SOL    HW133190   1.877   0.243   5.662 -1.4405 -0.4291  0.1275
 9716SOL    HW233191   1.916   0.195   5.800  2.7931  2.5026  0.1597
 9717SOL     OW33192   6.279   5.099   0.203 -0.3507  0.4648 -0.1907
 9717SOL    HW133193   6.195   5.098   0.157 -1.4166 -0.9961  1.6513
 9717SOL    HW233194   6.270   5.167   0.269  0.2480  0.8784 -0.5213
 9718SOL     OW33195   3.399   6.550   2.260  0.3430  0.1694  0.2076
 9718SOL    HW133196   3.389   6.645   2.252  0.4121  0.3480  1.8617
 9718SOL    HW233197   3.493   6.535   2.261  0.3394  0.1635  0.6526
 9719SOL     OW33198   0.800   1.233   2.251  0.2682 -0.0644  0.7423
 9719SOL    HW133199   0.744   1.304   2.220  2.1251  0.9856 -0.3446
 9719SOL    HW233200   0.886   1.251   2.213  0.4748 -3.8460 -1.0491
 9720SOL     OW33201   4.082   8.548   1.244  0.2909 -0.7007 -0.3007
 9720SOL    HW133202   4.150   8.491   1.278  2.4716  2.2229  0.6798
 9720SOL    HW233203   4.030   8.492   1.186  2.9361 -3.3240 -0.3843
 9721SOL     OW33204   6.116   8.717   0.985 -0.5009 -0.4063  0.5456
 9721SOL    HW133205   6.153   8.629   0.989  0.6079 -0.1103 -1.5536
 9721SOL    HW233206   6.025   8.706   1.013 -0.6537 -2.4196 -0.5130
 9722SOL     OW33207   9.277   9.965   2.791  0.0148 -0.4292 -0.5031
 9722SOL    HW133208   9.193   9.924   2.807  0.7315 -1.8008 -0.1245
 9722SOL    HW233209   9.326   9.954   2.873 -0.1113  2.1283 -0.0037
 9723SOL     OW33210   6.130   3.000   9.840  0.0108  0.3815 -0.0082
 9723SOL    HW133211   6.207   2.960   9.800 -0.5761 -2.4504  1.4224
 9723SOL    HW233212   6.142   2.986   9.934 -1.8046  0.6817  0.2970
 9724SOL     OW33213   2.512   2.895   0.753  0.8102 -0.3089  0.3407
 9724SOL    HW133214   2.561   2.829   0.703  0.4638 -1.0681  0.9940
 9724SOL    HW233215   2.580   2.954   0.787  1.2080 -0.9433  0.6508
 9725SOL     OW33216   6.785   1.755   2.639  0.0165 -0.1734 -0.0259
 9725SOL    HW133217   6.698   1.788   2.618  0.6260  0.6818 -1.3132
 9725SOL    HW233218   6.831   1.830   2.677 -0.0450 -0.8421  1.4190
 9726SOL     OW33219   3.187   1.659   7.878 -0.3344  1.0256  0.3405
 9726SOL    HW133220   3.264   1.658   7.822  0.2168 -2.6109  0.8761
 9726SOL    HW233221   3.222   1.645   7.966 -1.5184 -0.6822  0.5951
 9727SOL     OW33222  10.276   2.173   4.669 -0.4260 -0.0431  0.3339
 9727SOL    HW133223  10.316   2.157   4.754  0.4528  1.0233  0.1493
 9727SOL    HW233224  10.331   2.126   4.607 -0.4623  0.0174  0.2552
 9728SOL     OW33225   9.172   5.252   6.768  0.6625 -0.1807 -0.4774
 9728SOL    HW133226   9.230   5.310   6.719 -1.6164  2.1231 -0.7203
 9728SOL    HW233227   9.084   5.275   6.736 -0.6572 -1.0124  2.2809
 9729SOL     OW33228   1.639   2.568   8.835 -0.0497 -0.1248 -0.0993
 9729SOL    HW133229   1.623   2.661   8.819 -1.3792 -0.1881  0.7055
 9729SOL    HW233230   1.568   2.524   8.789  0.0443 -0.6923  0.2946
 9730SOL     OW33231   8.214   7.015   5.953  0.2321  0.4616 -0.1424
 9730SOL    HW133232   8.174   7.089   6.000 -1.6505 -0.7217  0.2411
 9730SOL    HW233233   8.207   6.942   6.014  1.0886 -0.2809 -0.9210
 9731SOL     OW33234   7.201   5.999   4.495 -0.0427 -0.2058  0.1173
 9731SOL    HW133235   7.281   5.950   4.474 -0.6318 -0.9842 -0.3495
 9731SOL    HW233236   7.188   5.984   4.589  0.8988  0.7610  0.4334
 9732SOL     OW33237   9.522   1.859   2.621  0.9666 -0.0259 -0.4161
 9732SOL    HW133238   9.472   1.884   2.699  0.1480 -1.2212 -0.5247
 9732SOL    HW233239   9.489   1.915   2.551 -0.2356 -0.7833 -0.4804
 9733SOL     OW33240   3.497   3.015   6.705 -0.4560 -0.6400 -0.3468
 9733SOL    HW133241   3.461   2.932   6.737  0.5962 -0.5280  1.2199
 9733SOL    HW233242   3.581   3.024   6.750  0.5387  0.1748 -2.2526
 9734SOL     OW33243   6.199   2.429   5.925  0.2701  0.6588  0.4875
 9734SOL    HW133244   6.284   2.392   5.904 -0.5871 -0.5118 -1.1175
 9734SOL    HW233245   6.203   2.519   5.891  0.2723  0.0414 -1.1855
 9735SOL     OW33246   1.144  10.077   6.319 -0.1763  0.6337 -0.0044
 9735SOL    HW133247   1.198  10.156   6.327  1.6669 -0.7336  2.3473
 9735SOL    HW233248   1.107  10.064   6.406 -0.3557 -1.1404 -0.3035
 9736SOL     OW33249   9.057   4.782   5.135  0.7261  0.0177  0.0859
 9736SOL    HW133250   8.981   4.730   5.161  0.1085  0.9335  0.1811
 9736SOL    HW233251   9.108   4.792   5.215  0.1936  0.6103  0.3566
 9737SOL     OW33252   7.276   6.816   3.789  0.5464 -0.1053  1.0202
 9737SOL    HW133253   7.274   6.770   3.873  0.5222 -0.2244  0.9553
 9737SOL    HW233254   7.314   6.901   3.809  0.1323  0.0347  1.2310
 9738SOL     OW33255   1.817   0.189   5.511  0.0359 -0.1311  0.2576
 9738SOL    HW133256   1.739   0.241   5.530 -1.8918 -2.9258  0.5963
 9738SOL    HW233257   1.826   0.194   5.416 -1.0290 -0.3781  0.1338
 9739SOL     OW33258   1.605   6.951   1.953  0.1042  0.0850  0.3642
 9739SOL    HW133259   1.611   7.023   2.015  0.8908  0.1794  0.1808
 9739SOL    HW233260   1.684   6.900   1.967  0.3747  0.2001 -0.6749
 9740SOL     OW33261   3.790   9.212   1.041 -0.3991 -0.0745 -0.0245
 9740SOL    HW133262   3.783   9.149   1.113 -0.7204 -1.2603 -1.0587
 9740SOL    HW233263   3.700   9.237   1.022 -0.3271  0.1068 -0.1299
 9741SOL     OW33264  10.261   2.455   1.463 -0.4302  0.1556  0.6147
 9741SOL    HW133265  10.273   2.390   1.394 -1.1354 -0.7858  1.3454
 9741SOL    HW233266  10.350   2.480   1.488 -0.1612 -0.1319 -0.0414
 9742SOL     OW33267   9.618   0.484   2.801 -0.8699 -0.6592  0.0663
 9742SOL    HW133268   9.566   0.453   2.726 -1.2463 -0.5087  0.2628
 9742SOL    HW233269   9.557   0.481   2.875 -0.5230 -0.7243  0.3499
 9743SOL     OW33270   7.132   5.335  10.009 -0.2490  0.3857  0.1604
 9743SOL    HW133271   7.127   5.290  10.093  0.1789 -0.5705 -0.3073
 9743SOL    HW233272   7.068   5.405  10.015 -0.1084  0.4321  1.3428
 9744SOL     OW33273   2.690   1.544   2.426 -0.6240 -0.4349  0.2689
 9744SOL    HW133274   2.646   1.465   2.395 -2.8703  1.3277 -1.3765
 9744SOL    HW233275   2.745   1.571   2.353 -1.2745  0.4619  0.0879
 9745SOL     OW33276   6.500   9.546   3.032 -0.3474 -0.0946  0.0949
 9745SOL    HW133277   6.501   9.569   3.124  2.3042  0.1635  0.0895
 9745SOL    HW233278   6.441   9.470   3.027 -0.5101 -0.1466  1.9933
 9746SOL     OW33279   8.363   8.238   5.393 -0.1038 -0.5855 -0.0862
 9746SOL    HW133280   8.410   8.158   5.418  0.9414 -0.3930 -1.3255
 9746SOL    HW233281   8.421   8.281   5.330 -0.1157  1.7259  1.3549
 9747SOL     OW33282   8.932   4.313   2.676 -0.1069  0.2237  0.3605
 9747SOL    HW133283   8.977   4.389   2.640  0.2058  0.9464  2.1655
 9747SOL    HW233284   8.839   4.337   2.673 -0.1131  0.1439 -0.2239
 9748SOL     OW33285  10.093   3.709   6.948  0.3281 -0.2654 -0.1167
 9748SOL    HW133286  10.090   3.708   6.852  1.0589 -0.1621 -0.1482
 9748SOL    HW233287  10.039   3.634   6.974 -1.2021  0.6374 -0.5518
 9749SOL     OW33288   5.871   0.398   6.687  0.3441  0.7519  0.1745
 9749SOL    HW133289   5.817   0.368   6.614  1.6997 -1.8217  0.1185
 9749SOL    HW233290   5.808   0.434   6.749 -1.3857 -1.1496 -0.3469
 9750SOL     OW33291   6.422   9.469   5.858  0.0672 -0.1906  0.3452
 9750SOL    HW133292   6.460   9.412   5.925  0.8293  0.2775  0.3114
 9750SOL    HW233293   6.351   9.514   5.903  0.3472 -0.1459  0.7438
 9751SOL     OW33294   4.003   5.889   0.596 -0.2388  0.8118 -0.0413
 9751SOL    HW133295   4.035   5.957   0.537 -1.4010  1.3921 -0.0348
 9751SOL    HW233296   4.049   5.905   0.678  0.6390  0.6203 -0.4760
 9752SOL     OW33297   0.508   4.270   7.945 -0.9132 -0.5792  0.1924
 9752SOL    HW133298   0.468   4.199   7.996 -0.2576 -0.1939  1.2744
 9752SOL    HW233299   0.484   4.250   7.855 -0.2081 -2.5522  0.3771
 9753SOL     OW33300   1.406   2.760   8.481  0.4612  0.2609 -0.0381
 9753SOL    HW133301   1.366   2.673   8.480  1.1054 -0.0737  1.2243
 9753SOL    HW233302   1.343   2.815   8.527 -0.2986  0.6827 -1.4991
 9754SOL     OW33303   0.752   2.912   4.809  0.0773  0.2815 -0.2236
 9754SOL    HW133304   0.719   2.905   4.719 -0.0427 -1.1492 -0.0872
 9754SOL    HW233305   0.847   2.899   4.801  0.3381  2.0378 -0.3390
 9755SOL     OW33306   6.535   1.114   6.272  0.0437  0.2284 -0.6368
 9755SOL    HW133307   6.555   1.023   6.294 -2.4241  0.1506  1.7950
 9755SOL    HW233308   6.446   1.112   6.236  0.0329  1.6591 -0.7783
 9756SOL     OW33309   7.178   3.344   1.416 -0.3018  0.1556 -0.4334
 9756SOL    HW133310   7.260   3.298   1.437 -0.2674  0.2115 -0.4446
 9756SOL    HW233311   7.137   3.360   1.501 -0.4699 -0.1840 -0.4483
 9757SOL     OW33312   8.428   3.600   6.094 -0.0124 -0.3975 -0.3378
 9757SOL    HW133313   8.351   3.613   6.150 -0.1196  0.3271 -0.6505
 9757SOL    HW233314   8.437   3.505   6.089 -1.1348 -0.5047 -0.6303
 9758SOL     OW33315   4.903   4.798   6.592 -0.7813 -0.3253 -0.1770
 9758SOL    HW133316   4.972   4.855   6.626 -0.5135 -0.9672  0.3852
 9758SOL    HW233317   4.932   4.710   6.614 -0.6525 -0.7744 -2.0226
 9759SOL     OW33318   0.216   1.877   4.694 -0.3822  0.4604 -0.0595
 9759SOL    HW133319   0.160   1.939   4.646 -0.5066  1.1146  0.9038
 9759SOL    HW233320   0.155   1.821   4.741 -0.3590 -1.8099 -2.5195
 9760SOL     OW33321   3.008   4.101   5.393 -0.6105 -0.1068 -0.3549
 9760SOL    HW133322   3.061   4.044   5.338 -0.4440 -0.5721  0.2745
 9760SOL    HW233323   3.022   4.189   5.357  0.8976 -0.1610  0.0254
 9761SOL     OW33324   0.239   6.543   3.090 -0.6718 -0.2815 -0.1392
 9761SOL    HW133325   0.192   6.461   3.072 -1.5221  0.3093 -0.7097
 9761SOL    HW233326   0.245   6.547   3.185 -1.4464 -0.5668 -0.0713
 9762SOL     OW33327   4.855   2.894   7.388 -0.5809  0.0898 -0.1717
 9762SOL    HW133328   4.836   2.922   7.477  0.9347  0.7825 -0.0336
 9762SOL    HW233329   4.786   2.935   7.335 -0.9035  0.5221  0.5586
 9763SOL     OW33330   3.014   0.283   6.051  0.1643  0.2758 -0.0378
 9763SOL    HW133331   3.092   0.228   6.052 -0.8065 -1.1754 -0.7704
 9763SOL    HW233332   2.946   0.229   6.011 -1.1460  1.6127  0.2572
 9764SOL     OW33333   8.828   5.085   8.596 -0.1797 -0.2916 -0.5792
 9764SOL    HW133334   8.886   5.039   8.657 -1.8536 -0.6873  0.8193
 9764SOL    HW233335   8.871   5.169   8.581  1.7710 -1.3425 -1.3027
 9765SOL     OW33336   2.720   1.725   7.858 -0.0723 -0.9704 -0.1006
 9765SOL    HW133337   2.667   1.794   7.819 -0.3031 -1.4651 -0.6576
 9765SOL    HW233338   2.679   1.709   7.943 -0.2647 -0.7171 -0.1435
 9766SOL     OW33339   3.399   6.854   2.273 -0.3272  0.2703 -0.1450
 9766SOL    HW133340   3.452   6.931   2.255  0.7020 -0.5913 -0.9125
 9766SOL    HW233341   3.439   6.816   2.352  0.4425 -0.5703 -0.9217
 9767SOL     OW33342   4.898   0.219   7.942 -0.4458  0.3784  0.0329
 9767SOL    HW133343   4.809   0.225   7.906  0.5879  2.3427 -2.4959
 9767SOL    HW233344   4.907   0.296   7.998  0.0274  0.8870 -0.7210
 9768SOL     OW33345   8.022   3.140   5.457  0.8799  0.2719 -0.2845
 9768SOL    HW133346   8.042   3.078   5.387  4.0026  0.8447 -0.0594
 9768SOL    HW233347   7.971   3.209   5.415  1.2667 -0.2158 -1.6012
 9769SOL     OW33348   0.542   9.066   9.843  0.0369 -0.1876  1.0094
 9769SOL    HW133349   0.487   9.031   9.912  0.3781 -0.7376  1.0115
 9769SOL    HW233350   0.537   9.161   9.853  0.0300 -0.2639  1.7407
 9770SOL     OW33351   0.058   0.807   1.682 -0.4869 -0.7603 -0.1584
 9770SOL    HW133352   0.141   0.761   1.666 -0.1019 -0.1915  0.1730
 9770SOL    HW233353  -0.005   0.737   1.697  0.3863 -1.1933  1.7698
 9771SOL     OW33354   0.221   8.498   5.128  0.3243 -0.0779 -0.0297
 9771SOL    HW133355   0.247   8.431   5.191 -0.6774 -2.1578 -1.6948
 9771SOL    HW233356   0.299   8.511   5.073  0.3546 -0.2801 -0.0347
 9772SOL     OW33357   1.759   9.885   3.465  0.0782  0.3417 -0.3659
 9772SOL    HW133358   1.842   9.930   3.481  1.2762 -1.1090 -2.0673
 9772SOL    HW233359   1.749   9.885   3.369 -2.8528  2.0500 -0.1859
 9773SOL     OW33360   4.677   4.370   5.453 -0.4504 -0.1027 -0.1723
 9773SOL    HW133361   4.656   4.366   5.359  1.4801  0.5742 -0.6663
 9773SOL    HW233362   4.719   4.286   5.472  0.7577  0.4361 -0.3589
 9774SOL     OW33363   2.322   1.502   7.939  0.1259  0.5558 -0.3067
 9774SOL    HW133364   2.394   1.519   7.879  1.5130 -0.5377  0.9901
 9774SOL    HW233365   2.361   1.504   8.026 -1.1397 -1.2939  0.3678
 9775SOL     OW33366   1.281   0.629   6.216  0.6753  0.3674  0.0773
 9775SOL    HW133367   1.343   0.647   6.288 -0.7935 -1.9988  2.0658
 9775SOL    HW233368   1.336   0.631   6.137  3.1795 -0.7534  1.6416
 9776SOL     OW33369   4.360   9.208   0.980 -0.1887 -0.3101 -0.1336
 9776SOL    HW133370   4.408   9.142   0.931  0.1772  1.0978 -1.7875
 9776SOL    HW233371   4.428   9.262   1.020 -0.3890  0.6447 -1.0326
 9777SOL     OW33372   4.776   9.153   0.997  0.2616  0.2385 -0.1849
 9777SOL    HW133373   4.863   9.145   1.035 -0.3950 -2.9907  1.0113
 9777SOL    HW233374   4.727   9.206   1.061  0.1554 -2.0785  1.8264
 9778SOL     OW33375   7.328   2.606   4.883 -0.1212  0.0269 -0.0121
 9778SOL    HW133376   7.408   2.556   4.901 -0.6274 -0.3872  1.2180
 9778SOL    HW233377   7.359   2.686   4.841  0.8705 -0.4787 -0.2966
 9779SOL     OW33378   2.682   7.281   3.428 -0.0040 -0.1295  0.2133
 9779SOL    HW133379   2.702   7.225   3.353  1.1548 -0.8984  1.0625
 9779SOL    HW233380   2.641   7.222   3.491 -1.4321  0.6148  0.0268
 9780SOL     OW33381   8.825   6.135   9.838 -0.1430 -0.4469  0.4033
 9780SOL    HW133382   8.850   6.066   9.900  1.8545  0.5913  0.8204
 9780SOL    HW233383   8.746   6.174   9.877  1.4790  0.6725  2.7696
 9781SOL     OW33384   7.099   8.041   1.671  0.5374 -0.2520 -0.2947
 9781SOL    HW133385   7.039   7.992   1.726 -0.9283 -0.2936 -1.8353
 9781SOL    HW233386   7.082   8.133   1.692 -0.3151 -0.2511 -0.9310
 9782SOL     OW33387   6.657   1.817   0.147  0.1936  0.0863  0.4934
 9782SOL    HW133388   6.738   1.798   0.099 -0.2751 -0.4449 -0.1014
 9782SOL    HW233389   6.590   1.767   0.102 -0.7339  1.5798  0.1359
 9783SOL     OW33390   9.924   4.795   4.669  0.7380 -0.1475  0.0510
 9783SOL    HW133391   9.998   4.791   4.608 -0.2578  4.2372 -1.7969
 9783SOL    HW233392   9.941   4.871   4.723 -0.2867 -1.7780  2.8879
 9784SOL     OW33393   7.040   3.542   9.044  0.0696 -0.1473 -0.2556
 9784SOL    HW133394   7.003   3.543   9.133  0.6454 -2.7623  0.1006
 9784SOL    HW233395   7.117   3.485   9.051  0.7298  0.4285 -2.2371
 9785SOL     OW33396   2.326   4.023   1.811  0.4922 -0.2443  0.0388
 9785SOL    HW133397   2.389   4.084   1.849  0.7113 -0.7885  0.5549
 9785SOL    HW233398   2.376   3.971   1.748  0.2554  0.2530 -0.5768
 9786SOL     OW33399   2.541   4.471   0.161  0.4697 -0.2095  0.1105
 9786SOL    HW133400   2.494   4.412   0.220  0.6586  0.6810  1.2068
 9786SOL    HW233401   2.625   4.427   0.145 -0.3740 -1.4189 -1.1925
 9787SOL     OW33402   2.531   5.844   2.005  0.5638  0.5275  0.0098
 9787SOL    HW133403   2.524   5.758   2.047 -1.1442  0.9699  0.7078
 9787SOL    HW233404   2.618   5.875   2.028  1.1878 -0.9808 -0.2047
 9788SOL     OW33405   8.600   8.474  10.096  0.0568 -0.0070  0.3630
 9788SOL    HW133406   8.568   8.473  10.186 -1.8809 -1.8644 -0.2682
 9788SOL    HW233407   8.521   8.479  10.043  0.9531 -1.8928 -1.2576
 9789SOL     OW33408   9.172   1.958   7.410  0.0711  0.6229 -0.5748
 9789SOL    HW133409   9.193   1.980   7.319  0.6002  1.3341 -0.2936
 9789SOL    HW233410   9.241   2.001   7.461 -0.6270  0.8261  0.2140
 9790SOL     OW33411   2.944   9.340   4.480  0.6295 -1.2125 -0.3265
 9790SOL    HW133412   2.893   9.357   4.400  1.1102 -1.8941 -0.7968
 9790SOL    HW233413   3.028   9.383   4.464  1.0322 -2.0600 -0.5640
 9791SOL     OW33414   1.402   3.858   3.233 -0.2160 -0.7371  0.1161
 9791SOL    HW133415   1.371   3.903   3.154 -0.0325 -1.7132 -0.5260
 9791SOL    HW233416   1.358   3.773   3.232  1.1878 -1.5027  0.0597
 9792SOL     OW33417   6.130   2.782   0.280  0.5195 -0.2713 -0.2171
 9792SOL    HW133418   6.197   2.715   0.268  1.0846  0.0207  1.1270
 9792SOL    HW233419   6.175   2.865   0.264  0.2783 -0.1166 -0.1103
 9793SOL     OW33420   0.832   4.852   5.795 -0.5285 -0.1207  0.7707
 9793SOL    HW133421   0.753   4.875   5.844 -1.2231 -0.9883  0.0877
 9793SOL    HW233422   0.898   4.916   5.823 -1.3896  0.4257  1.5686
 9794SOL     OW33423   8.278   4.510   7.579  0.1774 -0.6612 -0.5383
 9794SOL    HW133424   8.268   4.416   7.591  1.9005 -0.8635 -0.3726
 9794SOL    HW233425   8.232   4.530   7.498 -2.7132 -1.0906  0.8745
 9795SOL     OW33426   4.600   0.372   7.381  0.0218 -0.4992 -0.4042
 9795SOL    HW133427   4.584   0.452   7.433  1.5864 -0.9099  0.7653
 9795SOL    HW233428   4.517   0.325   7.384 -1.2194  1.4322 -1.8289
 9796SOL     OW33429   9.885   5.958   8.965  0.6868 -0.4323  0.0812
 9796SOL    HW133430   9.847   5.937   9.050  0.8019  1.0328  0.5326
 9796SOL    HW233431   9.809   5.960   8.905  0.0641  1.6760  0.8195
 9797SOL     OW33432   5.525   9.403   1.396  0.1792 -1.1717  0.2736
 9797SOL    HW133433   5.588   9.332   1.405 -0.0811 -1.5345 -0.6912
 9797SOL    HW233434   5.579   9.481   1.380  0.4816 -1.0639  1.6450
 9798SOL     OW33435   0.856   8.447   5.534 -0.1450  0.0234  0.2725
 9798SOL    HW133436   0.878   8.477   5.622  0.4314  0.6026 -0.0636
 9798SOL    HW233437   0.940   8.426   5.494 -0.5043 -1.7212  0.3633
 9799SOL     OW33438   2.510   5.248   9.518  0.0925  1.1768  0.5041
 9799SOL    HW133439   2.535   5.210   9.603 -0.8913 -0.1142  0.2603
 9799SOL    HW233440   2.581   5.308   9.497  2.0044 -0.8492  0.7453
 9800SOL     OW33441   8.831  10.039   3.364 -0.3770  0.7596 -0.5635
 9800SOL    HW133442   8.758  10.050   3.425  0.1880  1.4545  0.0118
 9800SOL    HW233443   8.875   9.960   3.394 -1.1314  0.0984 -1.1729
 9801SOL     OW33444   1.815   8.876   5.509  0.1525 -0.3686 -0.2775
 9801SOL    HW133445   1.820   8.885   5.414  0.7858  1.7357 -0.0946
 9801SOL    HW233446   1.746   8.811   5.523  0.0323 -0.7147 -2.1586
 9802SOL     OW33447   1.013   8.167   1.089 -0.0525 -0.2884  0.2273
 9802SOL    HW133448   0.995   8.262   1.093  1.1459 -0.0545  0.3205
 9802SOL    HW233449   1.072   8.157   1.015  0.9269 -0.7723  1.0545
 9803SOL     OW33450   7.875   3.235   6.172 -0.0829  0.5665  0.2171
 9803SOL    HW133451   7.922   3.157   6.141 -0.1389  0.0396  1.4153
 9803SOL    HW233452   7.900   3.244   6.264  0.8609  2.6894 -0.1803
 9804SOL     OW33453   0.427   3.832   4.971 -0.1348 -0.3295 -0.6190
 9804SOL    HW133454   0.405   3.897   4.904 -0.2503  0.6340  0.3326
 9804SOL    HW233455   0.345   3.784   4.985 -0.8834  1.2207  0.7028
 9805SOL     OW33456   9.317   6.553   9.745 -0.2442 -0.7240  0.3186
 9805SOL    HW133457   9.227   6.585   9.757 -0.2719 -0.2735 -0.9385
 9805SOL    HW233458   9.313   6.501   9.665  0.1665 -2.5720  1.4415
 9806SOL     OW33459   6.672   1.537   8.553  0.4477 -0.4553  0.0339
 9806SOL    HW133460   6.732   1.589   8.500  0.1161 -1.0746 -0.9695
 9806SOL    HW233461   6.683   1.447   8.521 -1.2524 -0.5316 -0.4082
 9807SOL     OW33462   4.600   2.095   0.198  0.4440  0.2581  0.9375
 9807SOL    HW133463   4.605   2.014   0.147  0.3671  0.9700 -0.2375
 9807SOL    HW233464   4.526   2.082   0.256  0.5234 -0.5706  0.8658
 9808SOL     OW33465   5.865   7.684   7.135  0.0269 -0.0543  0.0381
 9808SOL    HW133466   5.881   7.590   7.149  0.0195 -0.1577 -0.5902
 9808SOL    HW233467   5.944   7.715   7.090  0.3243  0.3949  0.8538
 9809SOL     OW33468   9.709   6.958   9.776  0.2143 -0.5507  0.2533
 9809SOL    HW133469   9.704   6.965   9.681 -0.8528 -3.7820 -0.0239
 9809SOL    HW233470   9.781   7.016   9.800 -1.3665  2.7178 -2.1162
 9810SOL     OW33471   0.684   5.501   0.876  0.1057  0.5282  0.3665
 9810SOL    HW133472   0.623   5.435   0.909  0.5567  0.4003  0.9615
 9810SOL    HW233473   0.665   5.579   0.928  1.7969 -0.0838  1.9941
 9811SOL     OW33474   3.931   8.425   4.751 -0.7324  0.0104 -0.2165
 9811SOL    HW133475   3.924   8.332   4.730  1.0360 -0.2465  0.1316
 9811SOL    HW233476   3.993   8.428   4.824 -0.5315  1.4806 -0.4227
 9812SOL     OW33477   5.954   2.958   1.248  0.1485  0.3376  0.7419
 9812SOL    HW133478   5.976   2.868   1.226 -2.3202  0.3320 -2.3398
 9812SOL    HW233479   5.963   2.962   1.344 -1.4257 -3.6847  1.2396
 9813SOL     OW33480   1.273   1.272   2.710  0.3725  0.3777 -0.0561
 9813SOL    HW133481   1.234   1.328   2.643 -1.3435  0.4657  0.9519
 9813SOL    HW233482   1.243   1.183   2.688  2.7584 -0.1676 -1.4211
 9814SOL     OW33483   9.100   7.509   1.099 -0.0057 -0.3297  0.0223
 9814SOL    HW133484   9.020   7.551   1.130  0.4653  0.3969  0.3016
 9814SOL    HW233485   9.115   7.437   1.161 -0.2388 -0.2367  0.1895
 9815SOL     OW33486   8.635   3.830   3.018 -0.9057  0.4325 -0.1786
 9815SOL    HW133487   8.568   3.888   3.054 -0.5848  1.4137 -1.1269
 9815SOL    HW233488   8.683   3.883   2.955  2.2172  0.4875  1.9695
 9816SOL     OW33489   5.682   7.496   8.994 -0.4617 -0.2163 -0.6063
 9816SOL    HW133490   5.637   7.513   8.911 -1.6667 -0.3336  0.0079
 9816SOL    HW233491   5.618   7.518   9.061  0.3136 -0.6443  0.2967
 9817SOL     OW33492   7.229   6.352   1.585  0.0016  0.2080  0.0908
 9817SOL    HW133493   7.160   6.323   1.525 -0.4148  1.4732 -0.0589
 9817SOL    HW233494   7.304   6.298   1.562 -0.7014 -0.6417 -0.2796
 9818SOL     OW33495   0.936   9.965   1.661  0.6901  0.6897 -0.5014
 9818SOL    HW133496   0.911   9.990   1.750 -0.8074  1.1755 -1.0235
 9818SOL    HW233497   0.955   9.872   1.667  0.4646  0.6862  0.3071
 9819SOL     OW33498   6.381   4.354   5.436 -0.1028  0.4248 -0.0372
 9819SOL    HW133499   6.366   4.384   5.525 -3.2201 -0.5547 -0.1144
 9819SOL    HW233500   6.322   4.407   5.382  0.0333 -0.5351 -1.1860
 9820SOL     OW33501   2.717   8.054   0.286 -0.6838 -0.3414 -0.1877
 9820SOL    HW133502   2.791   8.113   0.304 -1.6654  0.1201  3.0173
 9820SOL    HW233503   2.654   8.108   0.239 -0.7787  0.6400  1.0140
 9821SOL     OW33504   8.093   4.496   9.728  0.0352 -0.0764 -0.0876
 9821SOL    HW133505   8.174   4.536   9.696  0.2618  0.0068  0.5630
 9821SOL    HW233506   8.026   4.523   9.665  0.5482 -0.3350 -0.7573
 9822SOL     OW33507   1.837  10.232   3.637  0.4712 -0.0369  0.3493
 9822SOL    HW133508   1.829  10.306   3.697 -1.9222 -0.7379  1.0075
 9822SOL    HW233509   1.859  10.158   3.693 -0.0023 -0.3637  0.1069
 9823SOL     OW33510   0.069   2.127   4.928  0.4037  0.0295 -0.2759
 9823SOL    HW133511   0.102   2.059   4.987  1.1509  0.2846 -0.3949
 9823SOL    HW233512   0.077   2.208   4.978  1.8853  0.3796 -1.0228
 9824SOL     OW33513   6.839   6.255   3.265  0.0013 -0.0324 -0.4483
 9824SOL    HW133514   6.808   6.168   3.292 -0.1221  0.0720 -0.2590
 9824SOL    HW233515   6.836   6.252   3.169  0.1805 -0.3055 -0.4488
 9825SOL     OW33516   7.681   9.513   3.585  0.7938 -0.1556  0.9160
 9825SOL    HW133517   7.636   9.575   3.527 -0.2173 -2.0019 -0.3450
 9825SOL    HW233518   7.611   9.474   3.637  0.9840 -2.3549 -0.3848
 9826SOL     OW33519   5.935   8.671   8.896 -0.1651 -0.0004  1.0639
 9826SOL    HW133520   5.940   8.629   8.810  0.2420  0.3801  0.9016
 9826SOL    HW233521   5.876   8.615   8.946 -0.5655 -0.1121  0.4758
 9827SOL     OW33522   6.883   1.291  10.088  0.0194  0.0839  0.2076
 9827SOL    HW133523   6.934   1.359  10.045  0.1412  0.2330  0.5830
 9827SOL    HW233524   6.949   1.232  10.126 -0.0828  0.4319  0.9380
 9828SOL     OW33525   0.596   0.128   4.068 -0.6925  0.0837 -0.9497
 9828SOL    HW133526   0.661   0.087   4.125 -0.0813  2.1782 -0.0129
 9828SOL    HW233527   0.513   0.111   4.112 -0.4080  0.2133 -0.3359
 9829SOL     OW33528   9.061   1.321   8.253  0.0769 -0.3199  0.0790
 9829SOL    HW133529   9.036   1.246   8.307  0.1646 -0.9233 -0.6959
 9829SOL    HW233530   9.151   1.303   8.228  1.0956  1.4139  2.1470
 9830SOL     OW33531   8.353  10.253   7.046  0.1158 -0.5737  0.1088
 9830SOL    HW133532   8.439  10.281   7.015  1.4146 -1.2976  2.7691
 9830SOL    HW233533   8.321  10.193   6.978  1.6825 -0.2701 -0.9432
 9831SOL     OW33534   6.943   8.954   2.926  0.1901 -0.3915 -0.2319
 9831SOL    HW133535   7.019   8.897   2.938  0.4583 -0.0111 -0.0998
 9831SOL    HW233536   6.962   9.002   2.845  0.9200  0.9651  0.6989
 9832SOL     OW33537   4.771   2.992   4.905  0.4324  0.1996 -0.5646
 9832SOL    HW133538   4.803   2.983   4.815  1.0217 -0.3518 -0.3045
 9832SOL    HW233539   4.762   2.903   4.937  0.8290  0.3989  0.1311
 9833SOL     OW33540   4.321   0.345   6.317  0.3002 -0.3046  0.4837
 9833SOL    HW133541   4.408   0.305   6.314  0.5416  0.2472 -0.0196
 9833SOL    HW233542   4.314   0.378   6.407  1.1512  0.7930  0.1751
 9834SOL     OW33543   8.414   1.639   0.593 -0.7368 -0.6727  0.3185
 9834SOL    HW133544   8.364   1.607   0.518 -1.0623  0.4758  0.0267
 9834SOL    HW233545   8.382   1.588   0.667  0.5392 -2.7852 -0.5007
 9835SOL     OW33546   6.899   5.668  10.010 -0.0672 -0.0647 -0.2637
 9835SOL    HW133547   6.891   5.760  10.034 -0.9029 -0.0896 -0.3940
 9835SOL    HW233548   6.993   5.650  10.011  0.0165  0.3289  1.4406
 9836SOL     OW33549   0.251   5.900   9.632 -0.2395  0.1825  0.1595
 9836SOL    HW133550   0.312   5.971   9.653  2.8454 -1.6773 -1.6252
 9836SOL    HW233551   0.250   5.897   9.536 -0.8261 -1.7215  0.1917
 9837SOL     OW33552   5.621   0.883   2.624 -0.0216 -0.1614  0.7868
 9837SOL    HW133553   5.534   0.924   2.617  0.7305  1.2477 -0.8887
 9837SOL    HW233554   5.618   0.812   2.560 -0.0962 -0.4524  1.1081
 9838SOL     OW33555   6.555   1.295   5.683 -0.1465  0.3095  0.0362
 9838SOL    HW133556   6.595   1.209   5.699  0.0657 -0.0640 -2.1758
 9838SOL    HW233557   6.627   1.349   5.649 -0.9327  0.3526 -1.6840
 9839SOL     OW33558   2.688   4.302   0.849  0.6679  0.0096 -0.2264
 9839SOL    HW133559   2.599   4.292   0.817  1.1066 -0.5855 -1.3084
 9839SOL    HW233560   2.732   4.220   0.825  1.2332 -0.1553  1.2349
 9840SOL     OW33561   4.988   8.257   6.803 -0.7205 -0.0104  0.4228
 9840SOL    HW133562   4.984   8.300   6.718  0.4333  1.2489  0.9636
 9840SOL    HW233563   5.079   8.228   6.811 -1.0685 -1.0676  0.8036
 9841SOL     OW33564   1.288   8.996   4.288  0.0999  0.0575  0.2700
 9841SOL    HW133565   1.197   9.001   4.261  0.3739  2.4688 -0.3771
 9841SOL    HW233566   1.288   9.026   4.379  0.1496 -1.0191  0.6493
 9842SOL     OW33567   0.335   7.273   2.530  0.2810 -0.5836  0.3822
 9842SOL    HW133568   0.418   7.253   2.488  0.1992 -0.0703 -0.0513
 9842SOL    HW233569   0.269   7.237   2.470  0.1679 -0.0211  0.1608
 9843SOL     OW33570   2.166   1.940   8.907 -0.1931  0.2407  0.1040
 9843SOL    HW133571   2.071   1.935   8.911 -0.2036 -0.7593 -0.8747
 9843SOL    HW233572   2.189   1.898   8.825  1.0746  0.9333  0.0714
 9844SOL     OW33573   2.824   5.883   2.059  0.3960  0.2337  0.1705
 9844SOL    HW133574   2.903   5.922   2.096 -0.2213  1.9671 -0.2360
 9844SOL    HW233575   2.844   5.790   2.051  3.0965  0.8520 -1.6336
 9845SOL     OW33576   1.535   5.804   3.742 -0.4658 -0.1793 -0.1629
 9845SOL    HW133577   1.472   5.826   3.673 -0.6470 -0.9289 -0.2450
 9845SOL    HW233578   1.510   5.858   3.816 -1.5898 -0.9019  0.0054
 9846SOL     OW33579   2.459   6.089   2.151 -0.0292 -0.0612  0.2851
 9846SOL    HW133580   2.492   6.017   2.097 -1.0187 -0.1903 -0.1751
 9846SOL    HW233581   2.537   6.140   2.174  0.5303 -0.5728 -0.4393
 9847SOL     OW33582  10.146   4.147   2.438 -0.3356  0.8031  0.9327
 9847SOL    HW133583  10.058   4.186   2.434 -0.2860  0.7752 -1.1030
 9847SOL    HW233584  10.197   4.209   2.491 -1.2507  1.4637  1.0644
 9848SOL     OW33585   5.497   7.574   3.781  0.0607 -0.5511  0.0645
 9848SOL    HW133586   5.443   7.653   3.777  0.6725 -0.1835 -1.6114
 9848SOL    HW233587   5.435   7.503   3.798 -0.7419  0.0618 -0.2409
 9849SOL     OW33588   3.980   2.172   9.823 -0.3615 -0.2131  0.2329
 9849SOL    HW133589   3.952   2.255   9.862 -2.4758 -0.6225 -0.2650
 9849SOL    HW233590   4.013   2.120   9.896 -2.6203 -0.3218  1.2450
 9850SOL     OW33591   8.625   2.843   7.648  0.3283  0.1135  0.1630
 9850SOL    HW133592   8.633   2.847   7.743  1.7053 -0.7737  0.1107
 9850SOL    HW233593   8.662   2.759   7.624  0.8030  0.6868 -1.2402
 9851SOL     OW33594   3.642   7.517   3.544 -0.3756 -0.3523  0.5399
 9851SOL    HW133595   3.710   7.482   3.486 -1.5081 -2.6332  0.4868
 9851SOL    HW233596   3.676   7.502   3.632  0.2399  0.7972  0.5153
 9852SOL     OW33597   2.246   5.313   8.308  0.0534  0.0790 -0.6389
 9852SOL    HW133598   2.188   5.298   8.383  1.3684  0.5300  0.5083
 9852SOL    HW233599   2.190   5.352   8.242 -0.9913  0.3407  0.3638
 9853SOL     OW33600   2.596   1.320  10.139  0.3068 -0.0525 -0.0748
 9853SOL    HW133601   2.602   1.338  10.045  1.3527  0.5589  0.0961
 9853SOL    HW233602   2.674   1.270  10.160  0.3927  0.3319  0.5743
 9854SOL     OW33603   6.864   0.797   3.836  0.4262 -0.3504  0.1002
 9854SOL    HW133604   6.777   0.787   3.798  0.8369 -0.7509 -0.7769
 9854SOL    HW233605   6.922   0.749   3.776  1.1578 -0.6803  1.0404
 9855SOL     OW33606   6.435   7.563   2.977 -0.1962  0.1854  0.4990
 9855SOL    HW133607   6.358   7.585   3.030 -0.9065  0.5745 -0.6529
 9855SOL    HW233608   6.426   7.470   2.959  0.1524  0.0092  1.2202
 9856SOL     OW33609   9.313   4.520   1.377 -0.3871 -0.0600  0.2280
 9856SOL    HW133610   9.302   4.615   1.379 -1.1314 -0.1501  0.8943
 9856SOL    HW233611   9.382   4.503   1.441  0.8407  0.1440 -0.9851
 9857SOL     OW33612   5.165   5.220   1.517  0.0914  0.4584 -0.2624
 9857SOL    HW133613   5.146   5.178   1.601 -0.2878  1.4721  0.1764
 9857SOL    HW233614   5.106   5.296   1.515  1.8339  1.8943 -0.3062
 9858SOL     OW33615   9.874   0.761   1.221  0.1008 -0.6081 -0.0700
 9858SOL    HW133616   9.781   0.744   1.206  0.3008 -0.9526 -0.9846
 9858SOL    HW233617   9.877   0.804   1.306 -0.8678 -0.8668  0.1055
 9859SOL     OW33618   9.254   7.298   5.421 -0.1252 -0.2183 -0.0478
 9859SOL    HW133619   9.335   7.316   5.374 -0.0124 -0.6731 -0.0401
 9859SOL    HW233620   9.241   7.375   5.477  0.3200 -0.1546 -0.0248
 9860SOL     OW33621   4.440   9.481   2.878 -0.6581  0.0724 -0.4776
 9860SOL    HW133622   4.436   9.492   2.973 -0.7111  0.3082 -0.5065
 9860SOL    HW233623   4.355   9.443   2.855 -0.6436  0.0124 -0.4296
 9861SOL     OW33624   4.668   2.611  10.169  0.3620 -0.3812  0.2730
 9861SOL    HW133625   4.635   2.699  10.186  0.4823 -0.4607  0.9418
 9861SOL    HW233626   4.753   2.608  10.212 -0.5426 -1.4865  2.0953
 9862SOL     OW33627   0.958   0.685   6.528  0.2672 -0.2426  0.0978
 9862SOL    HW133628   0.880   0.655   6.575 -0.1135  0.7561  0.1187
 9862SOL    HW233629   0.960   0.631   6.449 -1.5501  0.9676 -0.8647
 9863SOL     OW33630   1.743   9.373   8.028 -0.0339 -0.2222 -0.0090
 9863SOL    HW133631   1.712   9.314   7.959 -0.9264  1.2745 -0.9299
 9863SOL    HW233632   1.838   9.361   8.028  0.2637  1.2809 -3.0173
 9864SOL     OW33633   7.029   8.818   9.432 -0.0386 -0.0860 -0.3179
 9864SOL    HW133634   7.091   8.839   9.363  1.8594 -0.9365  1.0213
 9864SOL    HW233635   6.959   8.881   9.422  0.6244  0.3760 -2.4351
 9865SOL     OW33636   2.560   8.323   7.223  0.1586 -0.0093 -0.1105
 9865SOL    HW133637   2.646   8.332   7.264  0.0774 -1.1262  0.3642
 9865SOL    HW233638   2.566   8.240   7.174 -0.3835  0.3194 -0.7472
 9866SOL     OW33639   5.496   5.725   4.814 -0.1299  0.2036 -0.2290
 9866SOL    HW133640   5.496   5.819   4.828  2.9051  0.4552 -1.1782
 9866SOL    HW233641   5.452   5.713   4.729 -0.1206  0.8035 -0.3185
 9867SOL     OW33642   5.496   0.226   9.390 -0.3075 -0.5687 -0.3357
 9867SOL    HW133643   5.519   0.317   9.371  1.2671 -0.8261  0.1575
 9867SOL    HW233644   5.456   0.230   9.477 -0.5238 -0.3059 -0.4449
 9868SOL     OW33645   6.828   7.232   2.232 -0.0282  0.4546 -0.6818
 9868SOL    HW133646   6.836   7.152   2.179 -0.1484  0.8268 -1.2625
 9868SOL    HW233647   6.814   7.199   2.321 -0.9674 -0.1790 -1.0438
 9869SOL     OW33648   3.886   3.438   6.194  0.5470  0.2316  0.2527
 9869SOL    HW133649   3.924   3.391   6.119 -0.6060  1.2956 -1.0701
 9869SOL    HW233650   3.951   3.430   6.263  1.2690 -1.5626 -0.5724
 9870SOL     OW33651   2.166   1.353   3.700 -0.5224  0.0742 -0.1875
 9870SOL    HW133652   2.220   1.279   3.728  0.0757  0.0318 -1.3901
 9870SOL    HW233653   2.216   1.431   3.726 -0.0589  0.0361 -0.9408
 9871SOL     OW33654   1.951   6.823   7.464 -0.1649  0.4732 -0.1377
 9871SOL    HW133655   1.856   6.809   7.455 -0.0068  0.4785 -2.2999
 9871SOL    HW233656   1.979   6.758   7.528 -1.5047 -0.1125 -0.1138
 9872SOL     OW33657   2.592   3.447   3.654 -0.0574 -0.0586 -0.1659
 9872SOL    HW133658   2.534   3.415   3.586 -0.0178  0.0533 -0.2514
 9872SOL    HW233659   2.657   3.501   3.608  0.0403 -0.0812 -0.0563
 9873SOL     OW33660   5.960   8.282   6.366 -0.6673  0.1157 -0.1539
 9873SOL    HW133661   5.936   8.238   6.447 -0.5818  0.6113  0.1458
 9873SOL    HW233662   5.955   8.375   6.387 -0.8337  0.2527 -0.7721
 9874SOL     OW33663   9.961   5.223   8.813 -0.3282  0.6477 -0.2709
 9874SOL    HW133664   9.876   5.230   8.855 -0.2373 -0.1163  0.0650
 9874SOL    HW233665   9.953   5.148   8.755  0.0406  0.7183 -0.4157
 9875SOL     OW33666   8.433   5.421   5.145 -0.0014 -0.8827  0.4691
 9875SOL    HW133667   8.465   5.433   5.055  0.8429  1.2228  0.9710
 9875SOL    HW233668   8.389   5.336   5.144  0.5453 -1.2147 -1.7635
 9876SOL     OW33669   1.909   4.548   0.431  0.1364  0.3569  0.7924
 9876SOL    HW133670   1.884   4.552   0.523 -2.6166 -0.2480  0.1770
 9876SOL    HW233671   1.837   4.591   0.384  1.8046  1.3218 -1.0680
 9877SOL     OW33672   6.285   6.300   8.799  0.5105 -0.0067 -0.0980
 9877SOL    HW133673   6.274   6.237   8.870  0.0223  1.5594  1.2557
 9877SOL    HW233674   6.202   6.346   8.794  1.9008  2.8880  1.3105
 9878SOL     OW33675   0.905  10.249   4.884  0.0239  0.1537 -0.5685
 9878SOL    HW133676   0.982  10.241   4.828  0.1231 -0.9710 -0.2907
 9878SOL    HW233677   0.891  10.343   4.892  1.9759  0.4257  0.2063
 9879SOL     OW33678   5.158   7.648   0.445 -0.1807  0.2971  0.1553
 9879SOL    HW133679   5.183   7.663   0.354  0.6334 -1.7308  0.0000
 9879SOL    HW233680   5.167   7.734   0.487  4.7435  0.3348 -0.4577
 9880SOL     OW33681   6.099   3.843   2.648  0.5097 -0.2476  0.4972
 9880SOL    HW133682   6.099   3.832   2.743 -1.0549  1.8658  0.8267
 9880SOL    HW233683   6.063   3.931   2.635  1.3085 -0.2323 -2.0373
 9881SOL     OW33684   1.924   8.939   5.982 -0.5472  0.4161  0.2371
 9881SOL    HW133685   1.868   9.017   5.978 -2.1041 -0.6852 -0.4805
 9881SOL    HW233686   1.943   8.928   6.075 -0.5071  1.5103  0.3692
 9882SOL     OW33687   7.876   5.661   6.593  0.0304  0.0675 -0.2246
 9882SOL    HW133688   7.958   5.707   6.609  0.3372 -0.3250 -0.6343
 9882SOL    HW233689   7.810   5.712   6.639  0.3916  0.8227 -0.5254
 9883SOL     OW33690   3.265   3.922   1.480  0.2092 -0.0465 -0.0475
 9883SOL    HW133691   3.261   3.862   1.555 -3.5587  0.3814  0.3321
 9883SOL    HW233692   3.343   3.975   1.495  1.3199 -2.0607  1.8577
 9884SOL     OW33693   9.256   0.632   1.561  0.3829  0.2325  0.3719
 9884SOL    HW133694   9.186   0.593   1.612 -1.8065  1.5279 -1.4688
 9884SOL    HW233695   9.239   0.605   1.471  0.6425  2.6804 -0.5028
 9885SOL     OW33696   0.438   6.327   1.044  0.1079 -0.0342  0.1573
 9885SOL    HW133697   0.486   6.348   0.964 -0.5108 -2.0074 -0.7920
 9885SOL    HW233698   0.347   6.350   1.023 -0.1550 -1.1518  0.0421
 9886SOL     OW33699   7.195   3.988   5.318 -0.2603  0.3378 -0.2479
 9886SOL    HW133700   7.152   4.051   5.261  1.1046  0.5733 -1.0456
 9886SOL    HW233701   7.276   4.030   5.344 -0.0917 -0.4435  0.5278
 9887SOL     OW33702   1.446   8.946   5.702 -0.0053 -0.2708  0.2603
 9887SOL    HW133703   1.396   8.991   5.770 -0.8034  0.2307 -0.6423
 9887SOL    HW233704   1.510   9.010   5.673 -1.7219  0.7017 -1.6608
 9888SOL     OW33705   4.897   8.729   3.701  0.3245 -0.2617  0.4085
 9888SOL    HW133706   4.906   8.711   3.794 -0.0721 -0.9117  0.3219
 9888SOL    HW233707   4.826   8.793   3.696 -0.6655 -1.3290  0.4492
 9889SOL     OW33708   9.130   4.474   3.468  0.4139 -0.0751  0.3201
 9889SOL    HW133709   9.092   4.554   3.431  0.3058 -0.8587 -1.4067
 9889SOL    HW233710   9.222   4.496   3.483  0.7395  0.0059 -1.4889
 9890SOL     OW33711   5.361   1.987   0.300 -0.5097 -0.1653 -0.1432
 9890SOL    HW133712   5.380   1.903   0.258  0.5034 -0.0602  0.0823
 9890SOL    HW233713   5.395   2.053   0.240  2.1790 -0.0549  1.3870
 9891SOL     OW33714   5.942   7.947   6.890 -0.0253  0.2832 -0.1244
 9891SOL    HW133715   6.009   7.998   6.936 -0.3721  0.5462  0.0878
 9891SOL    HW233716   5.862   7.998   6.899 -0.1898  0.1346 -0.6637
 9892SOL     OW33717   2.389   8.849   1.255 -0.5398 -0.7232 -0.5982
 9892SOL    HW133718   2.372   8.941   1.276  0.8222 -0.2737 -1.3108
 9892SOL    HW233719   2.371   8.801   1.336  0.7202  0.4321  0.4102
 9893SOL     OW33720   2.063   2.500   2.661  0.0366  0.2908 -0.0193
 9893SOL    HW133721   2.022   2.543   2.586  0.7087  2.2335  0.6735
 9893SOL    HW233722   1.997   2.505   2.730  0.7005  1.7814  0.5534
 9894SOL     OW33723   7.320   1.725   6.179 -0.0714  0.8224 -0.3120
 9894SOL    HW133724   7.397   1.766   6.141  0.8399 -0.7299 -0.2004
 9894SOL    HW233725   7.330   1.737   6.274  1.2320 -1.2607 -0.1098
 9895SOL     OW33726   5.734   1.258   1.808  0.5520 -0.4305  0.6170
 9895SOL    HW133727   5.727   1.193   1.738  1.5193 -1.9936  1.9066
 9895SOL    HW233728   5.644   1.280   1.830  0.1888 -1.5593  0.3277
 9896SOL     OW33729   4.297   2.831   3.714  0.2100  0.1008  0.0099
 9896SOL    HW133730   4.237   2.784   3.656 -0.1526  0.0101  0.4547
 9896SOL    HW233731   4.311   2.771   3.787  0.1760  0.4624  0.3139
 9897SOL     OW33732   5.947   7.746   7.728 -0.5900 -0.5095  0.2696
 9897SOL    HW133733   5.994   7.744   7.811  0.3645  0.5555 -0.2070
 9897SOL    HW233734   6.006   7.705   7.665 -1.1512 -0.9825  0.0411
 9898SOL     OW33735   9.105   9.520   3.900  0.3080 -0.1367  0.3337
 9898SOL    HW133736   9.105   9.589   3.834  1.1781 -1.1267 -0.7559
 9898SOL    HW233737   9.191   9.527   3.942  0.2318 -0.2726  0.5167
 9899SOL     OW33738   6.473   7.913   9.367 -0.3184 -0.4297  0.1467
 9899SOL    HW133739   6.456   7.924   9.273 -1.8482 -0.0741  0.4344
 9899SOL    HW233740   6.461   8.000   9.404 -3.2453 -1.1330  1.1239
 9900SOL     OW33741   9.089   6.303   1.148 -0.0867 -0.3905 -0.1366
 9900SOL    HW133742   9.082   6.353   1.067  0.4333 -0.2526 -0.0989
 9900SOL    HW233743   8.999   6.275   1.167 -0.2121 -0.4123 -0.7482
 9901SOL     OW33744   1.080  10.236   5.126 -0.0847  0.6771 -0.5951
 9901SOL    HW133745   1.111  10.302   5.063  1.0275 -0.6492 -1.5146
 9901SOL    HW233746   1.004  10.276   5.167  0.2802  2.3517 -1.4417
 9902SOL     OW33747   5.389   9.380   9.722 -0.4028  0.1059  0.1425
 9902SOL    HW133748   5.306   9.339   9.698 -0.5243 -1.5041  2.9441
 9902SOL    HW233749   5.366   9.440   9.793  0.8568 -0.6896  1.2541
 9903SOL     OW33750   9.088   2.405   1.980  0.4488  0.2197  0.0035
 9903SOL    HW133751   9.036   2.445   1.910  1.0887  0.2661 -0.4553
 9903SOL    HW233752   9.039   2.423   2.060  0.2712  1.1394 -0.3029
 9904SOL     OW33753   4.427   5.732   3.425 -0.3632 -0.5809 -0.2002
 9904SOL    HW133754   4.481   5.798   3.468 -1.6645  0.8021 -0.6017
 9904SOL    HW233755   4.367   5.703   3.494 -1.1454  0.1861 -0.5435
 9905SOL     OW33756   5.912   7.823   8.460 -0.4551  0.0606  0.0727
 9905SOL    HW133757   5.854   7.895   8.436  0.3247  0.4388 -0.7427
 9905SOL    HW233758   5.954   7.852   8.541 -1.1534 -0.0764  0.4900
 9906SOL     OW33759   0.564   2.183   1.877  0.3590 -0.4395  0.1357
 9906SOL    HW133760   0.484   2.232   1.899 -0.1253 -1.1692  0.0141
 9906SOL    HW233761   0.548   2.148   1.790  1.9364  1.7381 -1.1560
 9907SOL     OW33762   5.005   5.312   0.733  0.8003  0.4130  0.6961
 9907SOL    HW133763   5.096   5.287   0.750  0.2217 -2.6286 -0.0451
 9907SOL    HW233764   4.966   5.320   0.819  1.4626  0.3890  1.0085
 9908SOL     OW33765  10.256   8.793   7.492  0.8669 -0.2111 -0.1422
 9908SOL    HW133766  10.232   8.884   7.476  1.0918 -0.3905 -1.6300
 9908SOL    HW233767  10.176   8.754   7.529 -0.1155  0.0008 -1.9153
 9909SOL     OW33768   3.901   0.133   0.514 -0.1981  0.3213 -0.2246
 9909SOL    HW133769   3.872   0.125   0.423  0.3973  0.8070 -0.4641
 9909SOL    HW233770   3.996   0.142   0.509 -0.2973  2.0347  0.3187
 9910SOL     OW33771   2.821   3.747   3.267 -0.2371  0.6909 -0.2084
 9910SOL    HW133772   2.910   3.781   3.279 -0.5437  0.6855  2.7224
 9910SOL    HW233773   2.775   3.816   3.220  0.6013  1.9799  0.7962
 9911SOL     OW33774  10.153   3.885   8.136 -0.5076 -0.4802  0.0793
 9911SOL    HW133775  10.094   3.821   8.097  1.1287 -0.9154 -1.8448
 9911SOL    HW233776  10.206   3.834   8.198 -0.0553 -0.7541 -0.5228
 9912SOL     OW33777   3.956   1.069   0.683  0.4152  0.2122  0.4468
 9912SOL    HW133778   3.952   0.983   0.724  1.4135  0.0365  0.2118
 9912SOL    HW233779   4.047   1.078   0.655 -0.1976  0.3440 -1.6836
 9913SOL     OW33780   0.076   6.357   2.093  0.1770  0.0122  0.7980
 9913SOL    HW133781   0.034   6.416   2.030  1.5453  0.0639 -0.1225
 9913SOL    HW233782   0.145   6.314   2.042 -0.8303 -2.4864  1.4084
 9914SOL     OW33783   4.100   4.398  10.222  0.4457  0.3457 -0.1262
 9914SOL    HW133784   4.023   4.432  10.269  0.7924  0.2864  0.5027
 9914SOL    HW233785   4.082   4.304  10.213  1.4191 -0.1325  2.0618
 9915SOL     OW33786   3.953   7.004   7.888 -0.3314  0.4975  0.0811
 9915SOL    HW133787   3.884   6.958   7.935 -0.5869  0.6860 -0.1041
 9915SOL    HW233788   3.912   7.086   7.860  0.2273  1.0167  0.7450
 9916SOL     OW33789   7.529   7.944   6.103  0.5150  0.6688  0.5682
 9916SOL    HW133790   7.560   7.919   6.190  0.6448 -3.1164 -0.4202
 9916SOL    HW233791   7.596   8.004   6.071  0.8886  1.5015  2.6905
 9917SOL     OW33792   0.280   5.841   4.253  0.1327 -0.1205  0.3063
 9917SOL    HW133793   0.281   5.750   4.225 -0.2023 -0.0222 -0.0393
 9917SOL    HW233794   0.240   5.888   4.180 -0.1428  0.2332  0.6794
 9918SOL     OW33795  10.045   0.474   6.362 -0.0418 -0.0154 -0.2573
 9918SOL    HW133796  10.063   0.552   6.310 -0.5791 -0.4167 -1.0718
 9918SOL    HW233797  10.090   0.403   6.316  2.2017  0.0830  1.5974
 9919SOL     OW33798   0.908   1.741   1.162 -0.2926  0.2573  0.2230
 9919SOL    HW133799   0.944   1.701   1.242 -1.0531 -0.1822  0.3581
 9919SOL    HW233800   0.965   1.710   1.092 -1.0719 -1.3742  0.2794
 9920SOL     OW33801   0.138   1.790   6.844 -0.4830  0.2411 -0.6795
 9920SOL    HW133802   0.161   1.800   6.752 -0.8359 -0.7773 -0.8914
 9920SOL    HW233803   0.194   1.852   6.890  0.6499 -0.1882 -1.4527
 9921SOL     OW33804   5.903   9.055   5.413  0.2678  0.7229 -0.4695
 9921SOL    HW133805   5.936   8.968   5.388 -0.5539  0.0335  0.7651
 9921SOL    HW233806   5.975   9.114   5.393  0.9102 -0.2694 -1.1754
 9922SOL     OW33807   1.991   9.132   4.402  0.1863  0.5359  0.3002
 9922SOL    HW133808   1.897   9.131   4.383  0.0889  1.0527  0.7248
 9922SOL    HW233809   2.033   9.128   4.316 -0.2350  1.7230  0.0168
 9923SOL     OW33810   3.302   9.131   9.398  0.1986  0.0447 -0.7963
 9923SOL    HW133811   3.317   9.212   9.446  0.5568 -0.2430 -0.4123
 9923SOL    HW233812   3.379   9.077   9.417 -0.6556 -0.9119  0.0618
 9924SOL     OW33813   0.499   5.573   8.446 -0.4041 -0.0830 -0.2930
 9924SOL    HW133814   0.437   5.621   8.391 -0.1405  0.1040 -0.4243
 9924SOL    HW233815   0.555   5.527   8.385 -0.5147 -0.3848 -0.1701
 9925SOL     OW33816   7.220   8.994   9.986  0.2205 -0.0179 -0.0095
 9925SOL    HW133817   7.232   9.045   9.906  1.5878  0.9175  0.7658
 9925SOL    HW233818   7.307   8.988  10.025 -0.4545 -0.2312  1.5518
 9926SOL     OW33819   6.997   8.408   4.104  0.5020  0.1047  0.0778
 9926SOL    HW133820   7.037   8.493   4.123  1.2379 -0.2575  0.1835
 9926SOL    HW233821   7.062   8.344   4.133 -1.4043 -0.5973  3.2226
 9927SOL     OW33822   2.611   7.338   1.806 -0.0917 -0.1375  0.0081
 9927SOL    HW133823   2.609   7.426   1.844  0.2208 -0.6298  1.1850
 9927SOL    HW233824   2.521   7.322   1.780 -1.1556 -1.1189  3.7284
 9928SOL     OW33825   6.164   3.995   2.146  0.0831  0.2047  0.4957
 9928SOL    HW133826   6.213   4.038   2.216  0.3418 -0.7237  0.9000
 9928SOL    HW233827   6.155   3.904   2.175 -0.5483  0.0058 -0.2842
 9929SOL     OW33828   2.370   9.824   6.138  0.0202 -0.5412  0.4767
 9929SOL    HW133829   2.279   9.807   6.115  0.5880 -0.0881 -2.3722
 9929SOL    HW233830   2.381   9.918   6.122  1.0662 -0.6575  0.5011
 9930SOL     OW33831   9.385   6.231   6.696  0.4275  0.7166  0.5673
 9930SOL    HW133832   9.304   6.233   6.747 -0.0988 -0.6941 -0.1688
 9930SOL    HW233833   9.386   6.316   6.651  0.2858  1.4811  1.9451
 9931SOL     OW33834   0.220   3.899   0.927 -0.0442  0.3533  1.0139
 9931SOL    HW133835   0.210   3.958   1.002 -1.6315  0.4912  0.7138
 9931SOL    HW233836   0.193   3.950   0.852  2.3956  0.5166  0.1478
 9932SOL     OW33837   6.609   5.101   1.992  0.2917 -0.3361  0.2075
 9932SOL    HW133838   6.541   5.168   2.003  0.1822 -0.6143  1.3386
 9932SOL    HW233839   6.571   5.038   1.931 -0.1675 -0.1147  0.2616
 9933SOL     OW33840   0.233   7.982   6.331 -0.5383  0.0574  0.3290
 9933SOL    HW133841   0.257   7.969   6.423  3.8275  0.1493 -0.5614
 9933SOL    HW233842   0.225   7.894   6.296  0.3353 -0.0211  0.3037
 9934SOL     OW33843   7.930   6.634   4.697 -0.6788 -0.3008 -0.1105
 9934SOL    HW133844   7.983   6.568   4.742  1.3778  1.1636 -0.1909
 9934SOL    HW233845   7.959   6.629   4.606 -1.3965 -0.1117 -0.3528
 9935SOL     OW33846   0.409   2.089   8.773 -0.4998 -0.1752 -0.6498
 9935SOL    HW133847   0.450   2.172   8.747 -3.7819  1.3251 -1.5018
 9935SOL    HW233848   0.389   2.101   8.865  2.8808 -1.8970  0.4890
 9936SOL     OW33849   7.132   4.021   0.331 -0.4079 -0.2161  0.0625
 9936SOL    HW133850   7.064   4.088   0.341 -0.2653  0.0678 -0.7949
 9936SOL    HW233851   7.149   3.991   0.420 -0.7456  0.6202  0.4204
 9937SOL     OW33852   7.732   1.548   6.579  0.0206  0.0145 -0.0704
 9937SOL    HW133853   7.720   1.471   6.523 -0.6590  1.0876 -1.4534
 9937SOL    HW233854   7.819   1.581   6.557 -0.2529  0.4460 -0.5131
 9938SOL     OW33855   8.103   9.508   5.553  0.1425  0.1306 -0.0544
 9938SOL    HW133856   8.133   9.546   5.636 -0.4753 -0.9764  0.7115
 9938SOL    HW233857   8.034   9.566   5.523 -0.1533  0.1310  0.6090
 9939SOL     OW33858   3.286  10.114   1.063  0.2637  0.0462 -0.8565
 9939SOL    HW133859   3.247  10.198   1.089  1.9632  0.5762  0.2033
 9939SOL    HW233860   3.275  10.111   0.968 -0.2864  1.2500 -0.8514
 9940SOL     OW33861   1.561   2.145   3.657 -0.6839  0.2126  0.0117
 9940SOL    HW133862   1.635   2.175   3.604  0.0346 -0.9104  0.3567
 9940SOL    HW233863   1.518   2.078   3.603 -0.9825  0.3040  0.1348
 9941SOL     OW33864   5.762   2.102   8.731  0.2536  0.4927  0.3637
 9941SOL    HW133865   5.739   2.033   8.793 -0.1229  0.0185 -0.2925
 9941SOL    HW233866   5.679   2.127   8.691  0.3970  1.2875  0.5510
 9942SOL     OW33867  10.243   9.389   9.444  0.1373  0.0775 -0.4412
 9942SOL    HW133868  10.229   9.468   9.496  0.5541 -0.1506  0.0267
 9942SOL    HW233869  10.335   9.392   9.420  0.2308 -0.4124 -0.1674
 9943SOL     OW33870   7.490   1.167   7.848  0.1604  0.0095 -0.0590
 9943SOL    HW133871   7.430   1.200   7.915 -2.6755 -1.3092 -1.7625
 9943SOL    HW233872   7.438   1.104   7.798  3.2814 -1.9313 -1.1559
 9944SOL     OW33873   5.442   4.540   9.573 -0.9497 -0.0787  0.5769
 9944SOL    HW133874   5.425   4.450   9.543  2.3247 -2.0800  3.9404
 9944SOL    HW233875   5.381   4.553   9.646  0.2809 -0.6680  1.7508
 9945SOL     OW33876   1.239   9.401   9.025 -0.0220  0.0190 -1.0887
 9945SOL    HW133877   1.286   9.484   9.019 -0.6005  0.2650 -3.0540
 9945SOL    HW233878   1.217   9.380   8.934 -0.2765 -2.0693 -0.5902
 9946SOL     OW33879   6.473   9.370   6.464  0.5473  0.0622  0.1655
 9946SOL    HW133880   6.438   9.445   6.416  1.9489  1.0699  0.6075
 9946SOL    HW233881   6.465   9.396   6.556 -1.9764 -1.7770  0.5620
 9947SOL     OW33882   6.921   9.225   2.754  0.0420  0.1689 -0.0141
 9947SOL    HW133883   6.988   9.269   2.806 -0.2942  0.7376 -0.0557
 9947SOL    HW233884   6.913   9.279   2.675 -0.2488 -0.0649 -0.1450
 9948SOL     OW33885   3.531   5.526   3.372 -0.1920  0.2926 -0.1361
 9948SOL    HW133886   3.538   5.432   3.357 -0.1052  0.6170 -2.5021
 9948SOL    HW233887   3.614   5.550   3.414  0.1412 -0.5424 -0.3126
 9949SOL     OW33888   3.863   7.237   3.757 -0.4709  0.2756 -0.4346
 9949SOL    HW133889   3.782   7.276   3.789 -0.8823 -0.2563 -0.8307
 9949SOL    HW233890   3.926   7.252   3.829 -1.2004 -0.2857  0.3391
 9950SOL     OW33891   8.437   7.001   7.348 -0.3478  0.4153  0.1275
 9950SOL    HW133892   8.454   6.909   7.371  0.4288  0.2424 -1.0329
 9950SOL    HW233893   8.373   6.997   7.278 -0.5875  0.7876  0.3225
 9951SOL     OW33894   7.958   5.151   0.669 -0.0265 -0.2665  0.3117
 9951SOL    HW133895   7.902   5.096   0.613 -0.1919  0.8650 -0.6793
 9951SOL    HW233896   8.015   5.197   0.607 -1.0844  2.0227  0.9154
 9952SOL     OW33897   1.271   7.422   3.914  0.2323 -0.1418  0.8952
 9952SOL    HW133898   1.238   7.429   4.004 -0.6527 -2.3167  0.7931
 9952SOL    HW233899   1.201   7.379   3.866  1.2692 -0.3111 -0.5222
 9953SOL     OW33900   1.528   2.620   1.133 -0.5532  0.7713  0.1357
 9953SOL    HW133901   1.464   2.555   1.164 -0.7730  0.1981 -1.4197
 9953SOL    HW233902   1.536   2.682   1.205 -0.9211 -0.5583  1.3711
 9954SOL     OW33903   7.603   5.360   6.363 -0.1149 -0.3942  0.1864
 9954SOL    HW133904   7.617   5.414   6.286  1.2997  1.1853  1.4648
 9954SOL    HW233905   7.524   5.309   6.344  1.6406 -2.1228 -3.3504
 9955SOL     OW33906   0.261   7.409   1.660 -0.3448 -0.5260 -0.0559
 9955SOL    HW133907   0.312   7.329   1.642 -0.3586 -0.1344 -2.0559
 9955SOL    HW233908   0.192   7.380   1.720  0.7097 -1.6209  0.6762
 9956SOL     OW33909   6.154   3.034   8.135 -0.8524 -0.3071  0.4861
 9956SOL    HW133910   6.171   3.111   8.081 -0.7369  0.1686  1.1798
 9956SOL    HW233911   6.183   2.960   8.082  0.7477  0.2615  0.4916
 9957SOL     OW33912   1.343  10.175   8.965  0.1771 -0.5818  0.7897
 9957SOL    HW133913   1.427  10.138   8.941  1.0534  0.3251  2.3136
 9957SOL    HW233914   1.282  10.140   8.901  2.2044  1.2505 -2.3945
 9958SOL     OW33915   0.696   2.058   3.849 -0.0918  0.5475  0.2697
 9958SOL    HW133916   0.766   2.122   3.833 -0.2571  0.6399 -0.1016
 9958SOL    HW233917   0.678   2.021   3.762  1.4357 -1.5039  0.7677
 9959SOL     OW33918   4.028   8.976   9.661 -0.5670 -0.7204  0.1716
 9959SOL    HW133919   4.097   9.039   9.683 -0.9467 -0.3425  0.3039
 9959SOL    HW233920   4.072   8.891   9.661  0.1721 -0.3557 -1.0220
 9960SOL     OW33921   8.576   0.750   3.553 -0.1075 -0.0355 -0.2634
 9960SOL    HW133922   8.563   0.845   3.556 -3.1528 -0.3622 -0.2025
 9960SOL    HW233923   8.515   0.720   3.486  0.2968 -2.0284  0.2014
 9961SOL     OW33924   9.131   0.121   9.400  0.0578  0.0283  0.0957
 9961SOL    HW133925   9.044   0.094   9.372 -0.5281  0.7892  1.1081
 9961SOL    HW233926   9.145   0.205   9.357 -0.5510  0.8572  1.4571
 9962SOL     OW33927   5.226   6.256   6.579  0.6060  0.3236 -0.4102
 9962SOL    HW133928   5.305   6.202   6.586 -0.1432 -0.8005 -0.5151
 9962SOL    HW233929   5.195   6.265   6.669  1.2398  1.3806 -0.2803
 9963SOL     OW33930   8.603   5.483   0.787 -0.7474 -0.6776  0.2642
 9963SOL    HW133931   8.523   5.430   0.787 -1.5957  0.5528  1.0458
 9963SOL    HW233932   8.577   5.566   0.747 -0.2249  0.2166  1.7110
 9964SOL     OW33933   2.011   1.331   8.681  0.2913 -0.3940  0.7948
 9964SOL    HW133934   1.992   1.404   8.740 -0.8127 -1.4113  1.7281
 9964SOL    HW233935   2.092   1.293   8.716  0.2823 -0.2756  0.9474
 9965SOL     OW33936   2.649   5.006   9.391  0.0494  0.0043 -0.5807
 9965SOL    HW133937   2.562   4.974   9.368 -0.2438  0.7882 -0.5919
 9965SOL    HW233938   2.643   5.101   9.379  1.0214  0.0203 -0.9521
 9966SOL     OW33939   5.699   9.584   3.391 -0.1201  0.3673 -0.1480
 9966SOL    HW133940   5.613   9.599   3.430  0.9301  1.8753  1.7211
 9966SOL    HW233941   5.728   9.671   3.363  1.0878 -0.0030 -0.0910
 9967SOL     OW33942   2.694   9.955   7.672 -0.6553  0.4620 -0.1891
 9967SOL    HW133943   2.651  10.025   7.720  0.0997  1.0769 -0.4014
 9967SOL    HW233944   2.739   9.903   7.739 -3.5094 -1.5523  0.3475
 9968SOL     OW33945   4.079   5.164   5.111  0.4865  0.0012  0.7244
 9968SOL    HW133946   3.995   5.207   5.091 -0.5765 -2.4778 -0.5091
 9968SOL    HW233947   4.065   5.124   5.197  0.4067 -0.3678  0.5420
 9969SOL     OW33948   8.444   5.268   1.551  0.6233 -0.1497 -0.2397
 9969SOL    HW133949   8.353   5.299   1.559  0.8228  0.1884  0.8747
 9969SOL    HW233950   8.447   5.226   1.465 -0.6093 -0.2253 -0.2701
 9970SOL     OW33951   4.221   5.233   6.761 -0.0310 -0.1783  0.0528
 9970SOL    HW133952   4.312   5.251   6.739  0.0209 -1.2052 -0.6135
 9970SOL    HW233953   4.171   5.279   6.694  0.0232 -0.3802 -0.1258
 9971SOL     OW33954   6.465   6.749   4.400 -0.3337 -0.5258 -0.4918
 9971SOL    HW133955   6.440   6.688   4.330 -0.8678 -1.9078  0.8291
 9971SOL    HW233956   6.474   6.693   4.478  0.9632  0.8458  0.3941
 9972SOL     OW33957   2.516   6.620   0.876 -0.1102  0.5071  0.0308
 9972SOL    HW133958   2.551   6.628   0.965 -1.1166 -0.1292  0.4957
 9972SOL    HW233959   2.456   6.546   0.881  1.1764 -0.7292 -1.6174
 9973SOL     OW33960   0.271   5.710   3.272 -0.0486  0.1180 -0.4459
 9973SOL    HW133961   0.261   5.719   3.366 -1.4130  1.2521 -0.6676
 9973SOL    HW233962   0.339   5.773   3.248  1.5795 -1.4105 -0.0357
 9974SOL     OW33963   6.259   2.946   1.280  0.1800 -0.0368  0.0455
 9974SOL    HW133964   6.337   2.910   1.322  1.1838  0.0234 -1.6755
 9974SOL    HW233965   6.235   2.882   1.214 -0.9436  0.1849  0.2213
 9975SOL     OW33966   7.180   8.178   3.556  0.0662 -0.0440 -0.6627
 9975SOL    HW133967   7.151   8.245   3.618  0.0468 -1.1054  0.5296
 9975SOL    HW233968   7.142   8.097   3.590  1.9270 -1.0074 -0.7924
 9976SOL     OW33969  10.003   8.471   4.514  0.3132  0.4784  0.0028
 9976SOL    HW133970  10.088   8.472   4.558  0.3306  0.0213 -0.0237
 9976SOL    HW233971   9.939   8.479   4.584  0.3241 -0.6553  0.1608
 9977SOL     OW33972   9.305   4.836   0.360 -0.0900 -0.0017  0.0947
 9977SOL    HW133973   9.325   4.843   0.267  1.1447  0.2252  0.3630
 9977SOL    HW233974   9.337   4.749   0.385  0.6170  0.3751  0.5350
 9978SOL     OW33975   6.624   0.624  10.067 -0.3199 -0.4397 -0.4054
 9978SOL    HW133976   6.625   0.713  10.102 -0.4162 -1.2257  1.7372
 9978SOL    HW233977   6.547   0.584  10.108 -0.5637 -1.3812 -1.7330
 9979SOL     OW33978   0.588   2.245   1.158 -0.2123 -0.0233 -0.2796
 9979SOL    HW133979   0.550   2.327   1.189 -0.6624 -0.3247 -0.0112
 9979SOL    HW233980   0.567   2.242   1.065 -2.5850 -1.0788  0.2102
 9980SOL     OW33981   0.843   7.753   0.674 -0.4433 -0.1461  0.1296
 9980SOL    HW133982   0.769   7.693   0.673 -0.3423 -0.2679 -0.5597
 9980SOL    HW233983   0.844   7.788   0.763 -1.0587 -0.4724  0.2728
 9981SOL     OW33984   2.657   6.902   1.833 -0.3276 -0.6730 -0.1722
 9981SOL    HW133985   2.706   6.984   1.829 -1.1461 -0.0632  1.2936
 9981SOL    HW233986   2.570   6.925   1.803 -0.6057 -0.9527  0.4034
 9982SOL     OW33987   6.776   0.611   6.246  0.1095  0.1139  0.0308
 9982SOL    HW133988   6.863   0.571   6.249  0.1510  0.1155 -0.9073
 9982SOL    HW233989   6.720   0.543   6.208 -0.0908  0.4659 -0.3135
 9983SOL     OW33990   0.208   7.425   8.047  0.1620  0.1585 -0.5038
 9983SOL    HW133991   0.288   7.383   8.015 -0.1903 -0.6132 -0.3859
 9983SOL    HW233992   0.156   7.353   8.083 -0.6000  0.6534 -0.6062
 9984SOL     OW33993   4.498   7.743   1.172  0.5836 -0.2139  0.7020
 9984SOL    HW133994   4.470   7.831   1.144 -0.1546 -0.6867 -0.0908
 9984SOL    HW233995   4.544   7.707   1.096  0.2972 -0.7727  0.7915
 9985SOL     OW33996   6.529   4.360   0.493 -0.4495  0.6491 -1.2917
 9985SOL    HW133997   6.492   4.298   0.430 -0.3727 -0.3485 -0.3884
 9985SOL    HW233998   6.486   4.339   0.576  1.1537  0.3514 -0.5017
 9986SOL     OW33999   2.447   0.896   9.100 -0.7370 -0.0465  0.1884
 9986SOL    HW134000   2.454   0.929   9.011 -2.5252  0.8837  0.3359
 9986SOL    HW234001   2.536   0.871   9.124 -0.4035 -1.5900 -2.3154
 9987SOL     OW34002   5.632   6.824   2.080 -0.0781 -0.1346 -0.1064
 9987SOL    HW134003   5.649   6.771   2.002  0.9547  0.6827 -0.4583
 9987SOL    HW234004   5.546   6.863   2.064 -1.3336 -2.4800  0.6233
 9988SOL     OW34005   4.326   6.846   3.770  0.1502  0.1949  0.7137
 9988SOL    HW134006   4.323   6.761   3.814  0.7230  0.0210  0.4164
 9988SOL    HW234007   4.398   6.893   3.813  0.6607  0.0534  0.0241
 9989SOL     OW34008   1.244   2.116   4.174 -0.3013  0.0976  0.0144
 9989SOL    HW134009   1.242   2.023   4.198  1.2744 -0.0025 -0.1196
 9989SOL    HW234010   1.183   2.123   4.101 -1.2717 -0.5956  0.7255
 9990SOL     OW34011   2.583   2.440   8.156  0.1864 -0.3047 -0.1824
 9990SOL    HW134012   2.606   2.442   8.249 -0.6517 -1.8221  0.0998
 9990SOL    HW234013   2.648   2.495   8.114 -0.0714  1.3157  1.4303
 9991SOL     OW34014   8.878   9.872   6.292 -0.3212  0.2725  0.1793
 9991SOL    HW134015   8.792   9.896   6.327  0.1887  0.1034  1.6336
 9991SOL    HW234016   8.912   9.954   6.255  0.2892  1.2534  2.7049
 9992SOL     OW34017   8.190   5.822   9.607 -0.3896 -0.3108  0.7194
 9992SOL    HW134018   8.166   5.852   9.520 -1.4346  0.6334  1.2958
 9992SOL    HW234019   8.178   5.727   9.605 -1.0591 -0.2143  0.0282
 9993SOL     OW34020   7.051   8.636   0.425 -0.0090  0.0400  0.6209
 9993SOL    HW134021   7.136   8.668   0.394  0.0138  0.7566  1.3932
 9993SOL    HW234022   6.998   8.715   0.437 -0.6982 -0.3803  0.4179
 9994SOL     OW34023   9.331   1.324   3.589 -0.3723  0.1246  0.0529
 9994SOL    HW134024   9.313   1.276   3.509 -0.9212 -0.7096  0.6492
 9994SOL    HW234025   9.424   1.311   3.605 -0.7753 -2.0697  0.9934
 9995SOL     OW34026   2.830   6.232   7.320  0.9517 -0.2862  0.3834
 9995SOL    HW134027   2.741   6.263   7.332  0.3876 -1.1921 -1.1347
 9995SOL    HW234028   2.877   6.308   7.283  0.4719 -0.1886 -0.0392
 9996SOL     OW34029   9.199   5.359   8.208 -0.5482  0.1033  0.3219
 9996SOL    HW134030   9.145   5.438   8.199 -0.5345  0.4205  2.5217
 9996SOL    HW234031   9.156   5.308   8.276  0.9837 -0.4461  0.9188
 9997SOL     OW34032   3.643   4.614   5.820 -0.3199 -0.2081 -0.0213
 9997SOL    HW134033   3.613   4.704   5.806 -1.2154 -0.5908 -0.6552
 9997SOL    HW234034   3.565   4.567   5.849  0.2200 -0.7156  0.6390
 9998SOL     OW34035   4.524   3.784   1.511 -0.0190  0.1764  0.8564
 9998SOL    HW134036   4.512   3.701   1.558 -1.4079  0.3674  0.8943
 9998SOL    HW234037   4.440   3.830   1.522  0.3719  1.1436 -0.0216
 9999SOL     OW34038   8.803   6.619   7.569  0.3621  0.3696  0.3382
 9999SOL    HW134039   8.741   6.546   7.557  2.0065 -1.0455  0.0445
 9999SOL    HW234040   8.777   6.658   7.653 -0.8501 -0.2438  0.2771
10000SOL     OW34041   9.523   0.194   1.069 -0.0808 -0.2361  0.2388
10000SOL    HW134042   9.513   0.103   1.043  1.3800 -0.0711 -1.0163
10000SOL    HW234043   9.575   0.190   1.150  2.3728 -0.4690 -1.2542
10001SOL     OW34044   2.465   3.348   2.643  0.2753  0.2656 -0.2096
10001SOL    HW134045   2.514   3.323   2.565 -1.4709 -1.7223 -0.7915
10001SOL    HW234046   2.412   3.270   2.663 -1.8005  1.8749  0.9710
10002SOL     OW34047   1.651   8.482   2.474 -0.2132  0.2768  0.3547
10002SOL    HW134048   1.669   8.530   2.393 -0.9000 -0.5131 -0.2869
10002SOL    HW234049   1.680   8.541   2.544 -2.7356  2.4904 -0.2916
10003SOL     OW34050   0.241   8.356   6.502 -0.1332 -0.0413  0.5288
10003SOL    HW134051   0.303   8.361   6.575  0.7137  1.9855 -0.2470
10003SOL    HW234052   0.293   8.320   6.430  0.1122  1.3586 -0.0329
10004SOL     OW34053   4.234   5.253   0.510 -0.1528 -0.3370  0.3788
10004SOL    HW134054   4.240   5.320   0.577 -0.3223  0.6106 -0.5378
10004SOL    HW234055   4.145   5.220   0.517  0.7369 -2.6077  2.7922
10005SOL     OW34056   8.194   9.248   8.321 -0.0792  0.0144  0.2228
10005SOL    HW134057   8.098   9.247   8.314  0.0270 -0.6601 -1.9075
10005SOL    HW234058   8.211   9.252   8.415 -2.1924  0.7359  0.6370
10006SOL     OW34059   7.674   7.974   7.546 -0.2251  0.2448  0.0606
10006SOL    HW134060   7.749   8.029   7.524  0.1312 -0.2408  0.0732
10006SOL    HW234061   7.695   7.937   7.632  0.6857 -1.9144 -1.0364
10007SOL     OW34062   7.622   2.892   8.034  0.4394 -0.2115  0.1326
10007SOL    HW134063   7.640   2.972   7.984 -1.7653 -0.3927 -1.0603
10007SOL    HW234064   7.566   2.921   8.106  1.0053 -0.4474  0.6755
10008SOL     OW34065   9.657   1.505   6.046 -0.0622  0.2478  0.2505
10008SOL    HW134066   9.636   1.466   6.130 -0.4435  0.0868  0.0821
10008SOL    HW234067   9.690   1.593   6.067 -0.7052  0.4214  0.5296
10009SOL     OW34068   7.313   6.620   4.905 -0.0373  0.1281  0.0600
10009SOL    HW134069   7.258   6.674   4.963  0.7140  0.2871  0.6444
10009SOL    HW234070   7.309   6.532   4.943 -0.7240 -0.0962 -0.5081
10010SOL     OW34071   0.694   3.133   1.070  0.1656 -0.4069  0.8369
10010SOL    HW134072   0.742   3.055   1.042 -0.3697 -0.2305 -0.6816
10010SOL    HW234073   0.602   3.109   1.063  0.0100 -0.1031  1.7676
10011SOL     OW34074   2.211   8.176   7.764  0.2941  0.0646 -0.0530
10011SOL    HW134075   2.156   8.101   7.739 -1.8948  1.3699  0.5562
10011SOL    HW234076   2.248   8.207   7.682 -0.9128 -0.1095 -0.6918
10012SOL     OW34077   3.293   2.783   0.613 -0.1410  0.0223  0.0964
10012SOL    HW134078   3.388   2.791   0.614 -0.0208 -1.0542 -0.5136
10012SOL    HW234079   3.262   2.847   0.677  0.9705  0.6014  0.0749
10013SOL     OW34080   8.864   8.179   5.340  0.4680 -0.2274  0.2915
10013SOL    HW134081   8.924   8.208   5.272 -0.3560 -1.0602 -0.8261
10013SOL    HW234082   8.921   8.150   5.411  1.3589  3.2911  1.2155
10014SOL     OW34083   6.464   3.699   3.234 -0.8051 -0.2800 -0.2680
10014SOL    HW134084   6.451   3.639   3.307 -1.7083  0.3276  0.0896
10014SOL    HW234085   6.535   3.660   3.184 -0.4642 -0.9422  0.6885
10015SOL     OW34086   7.434   1.392   6.798  0.3855  0.2780  0.1700
10015SOL    HW134087   7.377   1.316   6.788 -1.2843  1.3204  1.2487
10015SOL    HW234088   7.482   1.375   6.879 -0.9139  0.8864  1.1067
10016SOL     OW34089   3.400   2.377   3.144  0.2562 -0.3677  0.6336
10016SOL    HW134090   3.485   2.395   3.105 -0.2105  0.8693  0.1399
10016SOL    HW234091   3.351   2.333   3.075  0.2886 -0.5169  0.7059
10017SOL     OW34092   3.928   3.998   2.580 -0.4725  1.0219  0.1063
10017SOL    HW134093   3.990   3.993   2.508 -0.7539 -0.9151 -0.0407
10017SOL    HW234094   3.955   3.929   2.641 -1.7583  0.9175  0.6032
10018SOL     OW34095   8.354   6.966   4.095  0.2444  0.5196  0.0785
10018SOL    HW134096   8.360   7.060   4.113  1.6169  0.7015 -1.1713
10018SOL    HW234097   8.444   6.936   4.095 -0.1556 -0.7126 -0.0546
10019SOL     OW34098   0.207   4.205   3.590  0.1432  0.1032 -0.3794
10019SOL    HW134099   0.215   4.113   3.614  1.4787 -0.1223 -1.5723
10019SOL    HW234100   0.277   4.220   3.528 -2.3499  0.9357 -3.2296
10020SOL     OW34101   9.658   4.213   0.175  0.3462 -0.3398  0.3604
10020SOL    HW134102   9.649   4.176   0.087  0.8686 -1.8208  0.9100
10020SOL    HW234103   9.584   4.274   0.183  0.8490  0.5837 -1.4530
10021SOL     OW34104   8.799   6.706   7.263 -0.2106 -0.0584  0.0641
10021SOL    HW134105   8.753   6.640   7.211  0.7964 -0.8451  0.1359
10021SOL    HW234106   8.770   6.790   7.227  0.0047 -0.5701 -1.3787
10022SOL     OW34107   0.176   8.194   9.865 -0.0185  0.5186  0.0936
10022SOL    HW134108   0.153   8.286   9.848 -1.0185 -0.0031 -1.5567
10022SOL    HW234109   0.185   8.155   9.778  0.8553 -0.8588  0.7695
10023SOL     OW34110   1.014   9.989   3.656  0.1431  0.1913  0.3663
10023SOL    HW134111   1.034   9.955   3.569  0.3162  1.9592 -0.3199
10023SOL    HW234112   0.920   9.974   3.667 -0.4442  2.1853 -1.2285
10024SOL     OW34113   9.587   1.622   6.833  0.2481  0.1671 -0.3963
10024SOL    HW134114   9.659   1.684   6.835  1.1327 -0.8222 -0.8899
10024SOL    HW234115   9.621   1.544   6.876 -0.9167  0.0750  0.4071
10025SOL     OW34116   3.152  10.251   5.428 -0.0223  0.1532 -0.2208
10025SOL    HW134117   3.145  10.329   5.373 -0.5649  0.1482 -0.1710
10025SOL    HW234118   3.184  10.284   5.512 -1.2443  0.5013  0.1364
10026SOL     OW34119   5.561   9.958   8.656 -0.4567  0.1150 -0.4512
10026SOL    HW134120   5.595   9.870   8.673 -0.5723  0.3847  1.4685
10026SOL    HW234121   5.517   9.951   8.572  0.9302 -1.2419 -1.1326
10027SOL     OW34122   4.579   8.697   0.293 -0.2081  0.6669 -0.6942
10027SOL    HW134123   4.621   8.638   0.230  0.0206 -0.2116  0.2455
10027SOL    HW234124   4.532   8.639   0.352 -2.0682  1.5924 -1.2071
10028SOL     OW34125   6.898   4.435   3.036 -0.3105  0.0700  0.3310
10028SOL    HW134126   6.939   4.428   2.950 -1.1705  0.8218 -0.1578
10028SOL    HW234127   6.956   4.492   3.086  0.5758 -0.9497  0.5126
10029SOL     OW34128   9.175   5.001   5.428 -0.3999 -0.0462  0.2588
10029SOL    HW134129   9.112   4.943   5.472 -1.5604  0.9574  0.0005
10029SOL    HW234130   9.240   4.942   5.390 -1.2076 -1.1315  0.5041
10030SOL     OW34131   0.544   3.831   6.238  0.0312 -0.3773  0.3480
10030SOL    HW134132   0.506   3.917   6.220  2.4772  0.4143 -1.6474
10030SOL    HW234133   0.615   3.849   6.300 -0.0313 -1.1416  0.6513
10031SOL     OW34134   2.610   3.589   8.631 -0.0002  1.2327 -0.6595
10031SOL    HW134135   2.579   3.588   8.540 -1.4233 -0.0212 -0.2021
10031SOL    HW234136   2.530   3.577   8.683  0.6424  2.9489  0.8162
10032SOL     OW34137   4.837   4.003   5.336  0.0720 -0.5118  0.1320
10032SOL    HW134138   4.806   4.026   5.423 -0.2168 -1.0650  0.1765
10032SOL    HW234139   4.781   3.930   5.309 -0.5729  0.3449 -0.9497
10033SOL     OW34140   6.439   1.086   9.824  0.5881 -0.1505 -0.1156
10033SOL    HW134141   6.409   1.100   9.914 -0.0409 -0.6377 -0.2437
10033SOL    HW234142   6.535   1.086   9.830  0.6029  1.5630  0.2838
10034SOL     OW34143   0.805   3.686   9.350  0.2277  0.3534  0.4355
10034SOL    HW134144   0.883   3.735   9.324  0.5416 -0.9331 -1.2376
10034SOL    HW234145   0.735   3.750   9.351  1.3328  1.6459  2.4416
10035SOL     OW34146   7.896   9.281   0.793  0.4519 -0.7819  0.1602
10035SOL    HW134147   7.831   9.344   0.763  0.1770 -1.2101 -0.1512
10035SOL    HW234148   7.980   9.326   0.784  0.5027 -1.2335 -2.2241
10036SOL     OW34149   2.221   1.387   4.347 -0.4591 -0.8554 -0.0395
10036SOL    HW134150   2.300   1.437   4.370  0.2137 -1.4227 -1.0413
10036SOL    HW234151   2.181   1.365   4.431  1.2451 -1.8198  0.5696
10037SOL     OW34152   5.481   8.648   7.464  0.2759 -0.4760 -0.0601
10037SOL    HW134153   5.459   8.718   7.526 -1.0840 -0.6504 -0.3188
10037SOL    HW234154   5.547   8.688   7.407 -0.8495  0.7886 -0.5278
10038SOL     OW34155   6.700   1.911   5.632 -0.5599 -0.3390 -0.3923
10038SOL    HW134156   6.790   1.882   5.619 -0.3284  0.6244 -0.9571
10038SOL    HW234157   6.707   1.988   5.688 -1.1378 -0.9713  0.5951
10039SOL     OW34158   5.077   0.979   4.591 -0.3993 -0.5201  0.5632
10039SOL    HW134159   5.126   0.923   4.652 -0.8902 -1.5106  0.0789
10039SOL    HW234160   4.992   0.992   4.633 -1.4800 -2.8367 -0.7042
10040SOL     OW34161   2.095   4.056   0.298 -0.1740  0.2918  0.1250
10040SOL    HW134162   2.051   3.972   0.280  1.0591 -0.1015 -1.2381
10040SOL    HW234163   2.137   4.079   0.215  2.3335  0.5606  1.3865
10041SOL     OW34164   3.259   8.231   4.701 -0.1148  0.7976 -0.2509
10041SOL    HW134165   3.250   8.205   4.609  1.7504 -0.2888 -0.1784
10041SOL    HW234166   3.290   8.152   4.745 -2.5992  0.7823  1.7042
10042SOL     OW34167   3.151   7.009   9.738 -0.0056 -0.1077 -0.1067
10042SOL    HW134168   3.076   7.068   9.749  0.3949  0.3027  0.5424
10042SOL    HW234169   3.146   6.949   9.813 -0.9053 -1.4813 -1.2310
10043SOL     OW34170   7.651   1.859   5.183 -1.2012  1.0048 -0.2531
10043SOL    HW134171   7.685   1.917   5.250 -1.5569  0.6964  0.1983
10043SOL    HW234172   7.695   1.887   5.102  1.4244 -0.4842  0.5600
10044SOL     OW34173   5.265   1.070   3.618 -0.5084  0.1392  0.2656
10044SOL    HW134174   5.359   1.081   3.602 -0.3526  0.7987  1.5255
10044SOL    HW234175   5.251   1.111   3.703 -1.9257 -0.0607  0.1369
10045SOL     OW34176   3.254   6.184   0.432 -0.5151 -0.0267  0.2585
10045SOL    HW134177   3.293   6.267   0.461 -0.9164  0.2697 -0.0362
10045SOL    HW234178   3.210   6.150   0.509  1.5832 -1.1384  1.0497
10046SOL     OW34179   8.738   0.616   9.350  0.3857  0.1219  0.1375
10046SOL    HW134180   8.645   0.618   9.369 -0.0273  0.1407 -1.6565
10046SOL    HW234181   8.770   0.535   9.390 -0.0169  0.9164  2.1800
10047SOL     OW34182   2.680   1.639   3.773 -0.4750 -0.0775  0.3176
10047SOL    HW134183   2.634   1.556   3.784  1.2019 -0.8906  1.8451
10047SOL    HW234184   2.762   1.615   3.728  0.0420  0.7191  0.8068
10048SOL     OW34185   4.733   0.701   1.584  0.1766 -0.4201 -0.1050
10048SOL    HW134186   4.754   0.618   1.625 -0.1040 -0.8378 -0.7830
10048SOL    HW234187   4.786   0.702   1.503  1.3753  0.7605  0.6431
10049SOL     OW34188   7.452   8.280   9.443  0.1501  0.0350 -0.3299
10049SOL    HW134189   7.535   8.324   9.421  0.9522  0.2808  2.7320
10049SOL    HW234190   7.393   8.352   9.465 -0.0790 -0.2536 -0.0122
10050SOL     OW34191   3.728   7.198   6.904 -0.2692 -0.3326 -0.6473
10050SOL    HW134192   3.808   7.149   6.921 -0.4909 -1.0022 -1.4512
10050SOL    HW234193   3.658   7.133   6.910 -0.7531  0.2294 -0.0339
10051SOL     OW34194   7.920   9.267   2.317  0.0963 -0.1601  0.2080
10051SOL    HW134195   7.998   9.218   2.342  0.1078  0.2466  0.9942
10051SOL    HW234196   7.849   9.225   2.364 -0.1337 -0.3853 -0.3278
10052SOL     OW34197   5.737   9.577   1.379 -0.0454 -0.1899  0.0164
10052SOL    HW134198   5.761   9.537   1.295 -1.0574 -0.6723 -0.0545
10052SOL    HW234199   5.811   9.558   1.436  0.3660 -0.4285 -0.5817
10053SOL     OW34200   9.371   9.451   7.648 -0.3174 -0.0901  0.0764
10053SOL    HW134201   9.356   9.449   7.742  2.1020  0.7412  0.5507
10053SOL    HW234202   9.465   9.469   7.639 -0.7173  1.1104 -2.4978
10054SOL     OW34203   8.020   3.015   4.611  0.3265 -0.2483 -0.7270
10054SOL    HW134204   8.021   3.110   4.604 -2.2856 -0.1004 -0.1334
10054SOL    HW234205   8.051   2.984   4.526 -1.0541  1.1879 -1.8203
10055SOL     OW34206   3.908   5.488   4.939  0.2822 -0.5325 -0.0554
10055SOL    HW134207   3.990   5.452   4.905 -1.2481 -2.1900 -2.3395
10055SOL    HW234208   3.852   5.411   4.951 -1.4859  0.6796 -0.2266
10056SOL     OW34209   8.334   7.503   9.810 -0.1083  0.3988 -0.8755
10056SOL    HW134210   8.388   7.582   9.817 -0.1903  0.3227  1.0950
10056SOL    HW234211   8.389   7.442   9.760  0.0910  1.5574 -2.1300
10057SOL     OW34212   5.265   0.744   6.544  0.2843  0.0874  0.8415
10057SOL    HW134213   5.350   0.738   6.501  0.0505 -0.0326  0.3831
10057SOL    HW234214   5.264   0.671   6.606  0.0058 -0.7305 -0.0946
10058SOL     OW34215  10.157   5.784   0.851  0.3976  0.1273  0.2483
10058SOL    HW134216  10.164   5.754   0.942  0.4639  0.6251  0.4169
10058SOL    HW234217  10.151   5.880   0.859  1.3925  0.2470 -0.3291
10059SOL     OW34218   6.925   6.216   9.959  0.1452  0.2689 -1.0742
10059SOL    HW134219   6.890   6.245  10.043  0.2158  1.2266 -1.3601
10059SOL    HW234220   6.867   6.145   9.932 -0.1058  0.2128 -0.4018
10060SOL     OW34221   6.055   5.455   1.995  0.3328 -0.0848 -0.4930
10060SOL    HW134222   6.090   5.540   2.021 -0.3458 -0.2600  1.1592
10060SOL    HW234223   5.996   5.475   1.922  1.6713  0.5704 -1.4287
10061SOL     OW34224   6.964   2.903   8.136 -0.0914 -0.1630  0.1203
10061SOL    HW134225   6.939   2.970   8.071 -0.1058  0.3660  0.6609
10061SOL    HW234226   7.059   2.898   8.130 -0.0110  0.5505  0.6923
10062SOL     OW34227   0.305   7.852   2.668 -0.1871 -0.3354 -0.1303
10062SOL    HW134228   0.355   7.933   2.669 -1.3863  0.4916 -1.8675
10062SOL    HW234229   0.225   7.873   2.619 -2.6781 -1.3242  3.1248
10063SOL     OW34230   8.761   5.873   9.555 -0.2593  0.1147 -0.0543
10063SOL    HW134231   8.821   5.820   9.607 -0.4910 -1.4918 -1.3602
10063SOL    HW234232   8.727   5.938   9.617  1.2053 -0.2601  1.2079
10064SOL     OW34233   6.314   0.467   6.002 -0.3231  0.0070 -0.2335
10064SOL    HW134234   6.343   0.422   5.923 -1.6741  0.2419 -0.8879
10064SOL    HW234235   6.368   0.547   6.005 -0.9767  0.5335 -1.5263
10065SOL     OW34236   4.261   3.623   5.395 -0.4256 -0.1948 -0.4115
10065SOL    HW134237   4.180   3.670   5.417 -1.7805 -2.1892 -0.9058
10065SOL    HW234238   4.272   3.560   5.466 -0.1526 -0.9685 -1.1372
10066SOL     OW34239   0.409   2.972   8.969  0.5469 -0.2271  0.3009
10066SOL    HW134240   0.352   3.009   8.902  1.5130 -0.7946 -0.8630
10066SOL    HW234241   0.361   2.986   9.051 -0.6867  0.4241 -0.4985
10067SOL     OW34242   9.214   3.072   6.618 -0.0522  0.2058 -0.1964
10067SOL    HW134243   9.259   3.133   6.676 -0.7404  0.4648  0.0804
10067SOL    HW234244   9.174   3.008   6.677  1.8438 -1.3813 -0.5353
10068SOL     OW34245   1.707   1.330   5.205  0.0172 -0.1095 -0.0031
10068SOL    HW134246   1.640   1.364   5.145 -0.3002 -0.3572  0.2036
10068SOL    HW234247   1.721   1.240   5.177  0.8178  0.1649 -0.5156
10069SOL     OW34248   5.871   6.381   4.772  0.4722 -0.8125 -0.6926
10069SOL    HW134249   5.817   6.458   4.793  0.0060 -1.6533  1.4706
10069SOL    HW234250   5.839   6.352   4.686 -1.3439 -0.2490 -0.2548
10070SOL     OW34251   4.558   1.237   9.528  0.3433 -0.0316  0.4240
10070SOL    HW134252   4.564   1.143   9.548  1.1918  0.4314  2.6585
10070SOL    HW234253   4.472   1.247   9.487 -0.0860 -1.6805  0.8189
10071SOL     OW34254   2.553  10.198   6.716 -0.3982 -0.3438  0.1137
10071SOL    HW134255   2.630  10.178   6.662 -0.2775 -0.0733  0.1814
10071SOL    HW234256   2.479  10.186   6.657 -0.3162 -0.7878  0.1002
10072SOL     OW34257   6.119   8.182   1.465 -0.0483 -0.1520 -0.2596
10072SOL    HW134258   6.100   8.263   1.513  0.9669 -0.4366  0.6733
10072SOL    HW234259   6.055   8.181   1.394 -1.5086  0.3796  0.9828
10073SOL     OW34260   5.991   0.469   5.835  0.3868  0.0502  0.0948
10073SOL    HW134261   6.057   0.426   5.781  0.6291  1.2802 -0.6291
10073SOL    HW234262   5.981   0.411   5.911 -0.7142 -2.2602 -1.6882
10074SOL     OW34263   7.811   7.144   1.120 -0.0127 -0.0169  0.1547
10074SOL    HW134264   7.852   7.230   1.110  0.6796  0.0337  2.7277
10074SOL    HW234265   7.868   7.084   1.073  0.9527  0.5839  0.5392
10075SOL     OW34266   2.848   1.683   7.216 -0.5067  0.4656 -0.0181
10075SOL    HW134267   2.922   1.681   7.276  0.4623 -0.8388 -1.1985
10075SOL    HW234268   2.880   1.729   7.139 -0.8986 -0.1615 -0.5637
10076SOL     OW34269   7.179   2.708   0.858  0.5371  0.0866 -0.0609
10076SOL    HW134270   7.186   2.715   0.953 -1.0760  1.3683  0.0015
10076SOL    HW234271   7.195   2.797   0.825  3.3887 -0.7349 -1.2331
10077SOL     OW34272   8.304   6.648   6.615 -0.0680 -0.1216  0.6778
10077SOL    HW134273   8.226   6.602   6.648  0.6804 -0.8862  1.4230
10077SOL    HW234274   8.323   6.714   6.682 -0.7260  0.8541 -0.0569
10078SOL     OW34275   7.060   3.738   0.135  0.2645 -0.3663 -0.1655
10078SOL    HW134276   7.133   3.716   0.193  1.0975  2.1118 -0.1718
10078SOL    HW234277   7.022   3.817   0.173 -0.8638 -0.1914 -1.5586
10079SOL     OW34278   0.712   0.883   3.152  0.0671  0.5342 -0.1366
10079SOL    HW134279   0.627   0.927   3.153 -0.1700  0.0921  0.9647
10079SOL    HW234280   0.776   0.953   3.160 -0.1677  0.8916 -1.2460
10080SOL     OW34281   3.702   5.618   7.758 -0.1819 -0.6702 -0.2279
10080SOL    HW134282   3.697   5.523   7.746  1.3681 -0.7233 -0.6768
10080SOL    HW234283   3.749   5.650   7.682  0.7799  0.2550  0.7185
10081SOL     OW34284   2.628   4.786   8.569  0.0390  0.1423 -0.0623
10081SOL    HW134285   2.543   4.773   8.611  0.3202  1.3831  0.9382
10081SOL    HW234286   2.607   4.801   8.477 -1.0536  2.4761  0.4830
10082SOL     OW34287   1.469   0.102   1.904 -0.1949 -0.5219  0.3253
10082SOL    HW134288   1.493   0.194   1.894  1.3423 -0.9224  0.0560
10082SOL    HW234289   1.376   0.104   1.927 -0.6649  1.0166 -1.4457
10083SOL     OW34290   8.511   3.223   0.415  0.4120  0.2422 -0.5030
10083SOL    HW134291   8.465   3.241   0.332 -1.7544  0.6239  0.7125
10083SOL    HW234292   8.554   3.306   0.436  0.8940  0.1742 -1.1729
10084SOL     OW34293   3.759   8.539   6.115  0.1672 -0.2715  0.0386
10084SOL    HW134294   3.834   8.568   6.167  1.7108 -0.3031 -2.0544
10084SOL    HW234295   3.720   8.620   6.081  0.2076 -0.3302 -0.1480
10085SOL     OW34296   7.450   1.152   8.132 -0.6068 -0.2171 -0.7301
10085SOL    HW134297   7.429   1.237   8.171  1.0676 -0.4999  0.8941
10085SOL    HW234298   7.366   1.106   8.128 -0.8510 -0.6216  3.7985
10086SOL     OW34299   3.434   9.564   5.827  0.0718  0.0378 -0.5859
10086SOL    HW134300   3.470   9.517   5.751 -0.9898  0.5001 -1.3968
10086SOL    HW234301   3.364   9.618   5.791  0.7749  1.7090  0.4370
10087SOL     OW34302   5.455   0.850   9.088 -0.2763 -0.3649 -0.0124
10087SOL    HW134303   5.433   0.761   9.114  0.6798 -0.4128  0.6964
10087SOL    HW234304   5.429   0.904   9.163  1.1358 -0.3276  0.4911
10088SOL     OW34305   8.184   3.021   5.209  0.2381  0.6137  0.3735
10088SOL    HW134306   8.265   2.987   5.247  0.2315  1.5218  1.2232
10088SOL    HW234307   8.200   3.021   5.115  0.2072 -1.7925  0.3050
10089SOL     OW34308   0.983   9.000   0.733  0.4826 -0.1790 -0.0042
10089SOL    HW134309   1.052   8.952   0.686  0.5259 -0.6762  0.5570
10089SOL    HW234310   1.029   9.074   0.773  0.4989  0.0789 -0.4857
10090SOL     OW34311   3.840   6.428   5.135 -0.2939  0.6133  0.3690
10090SOL    HW134312   3.746   6.440   5.146 -0.3847  0.5873 -0.3417
10090SOL    HW234313   3.851   6.333   5.128 -0.4537  0.7048 -1.4975
10091SOL     OW34314   7.860   6.985   5.781 -0.0300 -0.3858 -0.4129
10091SOL    HW134315   7.889   6.896   5.759 -1.9897 -1.2361  0.1668
10091SOL    HW234316   7.885   6.997   5.872 -1.5290 -1.1944  0.1473
10092SOL     OW34317   4.996   8.962   6.376  0.7175 -0.7407  0.1719
10092SOL    HW134318   4.961   9.032   6.431 -0.0530 -1.1277  0.1917
10092SOL    HW234319   4.921   8.904   6.361  1.6252 -2.2178  1.1579
10093SOL     OW34320   7.382   5.940   5.837 -0.1069  0.3980 -0.3429
10093SOL    HW134321   7.318   5.906   5.775 -0.4724  1.1222 -0.3776
10093SOL    HW234322   7.406   5.865   5.891 -0.7717  0.0556 -0.5124
10094SOL     OW34323   7.303   4.837   5.239  0.1018 -0.2961  0.1107
10094SOL    HW134324   7.219   4.849   5.194 -0.0141  0.5657  0.5421
10094SOL    HW234325   7.343   4.923   5.238  2.3450 -1.2320 -2.6768
10095SOL     OW34326   1.035   1.050   6.888 -0.7802 -0.5361 -0.0180
10095SOL    HW134327   0.946   1.082   6.873 -0.7640 -0.1211  0.7588
10095SOL    HW234328   1.091   1.126   6.869 -0.7113 -0.2275  1.3034
10096SOL     OW34329   8.774   8.533   8.678  0.1801 -0.2118  0.0926
10096SOL    HW134330   8.811   8.463   8.625  2.8810 -0.2882  1.9243
10096SOL    HW234331   8.777   8.501   8.768 -1.3147  1.1473  0.6928
10097SOL     OW34332   1.731   5.736   4.027  0.3573 -0.5385 -0.4818
10097SOL    HW134333   1.735   5.796   4.101  1.6133 -1.5458  0.3163
10097SOL    HW234334   1.681   5.783   3.960 -0.8672  0.3794  1.0120
10098SOL     OW34335   0.989   1.632   9.362  0.2005 -0.5214 -0.2801
10098SOL    HW134336   0.946   1.582   9.431  1.3404 -0.9411  0.1305
10098SOL    HW234337   1.004   1.719   9.400 -0.4535 -0.3046 -0.4977
10099SOL     OW34338   3.702   9.139   2.244  0.6514 -0.0869 -0.4370
10099SOL    HW134339   3.734   9.050   2.259 -0.5486 -0.7276 -1.4836
10099SOL    HW234340   3.658   9.164   2.325 -0.0935 -0.9421 -0.5673
10100SOL     OW34341   2.850   6.600   9.337 -0.2957  0.2083  0.3310
10100SOL    HW134342   2.905   6.669   9.374  2.6423 -1.4560 -0.6433
10100SOL    HW234343   2.877   6.520   9.383 -1.4854 -0.7870 -0.6261
10101SOL     OW34344   1.888   7.329   2.991 -0.6151 -0.6361  0.0844
10101SOL    HW134345   1.883   7.408   2.938 -0.4930 -0.6847  0.0011
10101SOL    HW234346   1.961   7.280   2.954  0.7278  0.2186  1.5142
10102SOL     OW34347   0.717   0.626   4.314 -0.4215  0.8231 -0.1937
10102SOL    HW134348   0.768   0.610   4.235 -0.2893  0.6335 -0.0718
10102SOL    HW234349   0.645   0.563   4.309  0.6789 -0.5848  0.8033
10103SOL     OW34350   6.901   9.693   5.031 -0.4499 -0.7236  0.6337
10103SOL    HW134351   6.896   9.771   5.087 -1.6439  0.9610 -1.6815
10103SOL    HW234352   6.810   9.673   5.009 -0.0550  1.5967 -4.3387
10104SOL     OW34353   8.290  10.094   3.666 -0.1513 -0.2074 -0.2178
10104SOL    HW134354   8.314  10.006   3.640 -0.6980 -0.5696  0.4808
10104SOL    HW234355   8.289  10.144   3.584 -1.0061 -1.1271 -0.7815
10105SOL     OW34356   4.192   0.184   2.300  0.1910  0.2888 -0.0043
10105SOL    HW134357   4.204   0.106   2.355 -1.5703  0.6872  0.9917
10105SOL    HW234358   4.107   0.172   2.258  0.5434  1.0176 -0.9681
10106SOL     OW34359   9.808   7.688   5.957 -0.7261  0.3195  0.2379
10106SOL    HW134360   9.765   7.629   6.019  0.2553 -1.2786 -0.5266
10106SOL    HW234361   9.837   7.630   5.886 -1.8896  2.0709 -1.7847
10107SOL     OW34362   3.126   0.224   1.886 -0.0785 -0.2999  0.0137
10107SOL    HW134363   3.186   0.288   1.923  1.0880 -1.3292 -0.0286
10107SOL    HW234364   3.053   0.276   1.852  1.3756  1.1043 -1.1046
10108SOL     OW34365   2.909   2.107   4.651  0.1911 -0.9365 -0.1241
10108SOL    HW134366   2.896   2.033   4.591 -0.7452 -0.3318 -0.7130
10108SOL    HW234367   2.842   2.096   4.718 -0.4119 -0.2754 -0.5958
10109SOL     OW34368   4.355   8.745   1.910  0.0607 -0.6868 -0.4731
10109SOL    HW134369   4.334   8.738   1.816  0.8098  0.5052 -0.7518
10109SOL    HW234370   4.407   8.825   1.917  1.5570 -1.7105  0.7010
10110SOL     OW34371   9.705   4.893   0.669 -0.2586 -0.2802 -0.6275
10110SOL    HW134372   9.686   4.912   0.577  0.0116 -0.0053 -0.6256
10110SOL    HW234373   9.724   4.978   0.708 -1.3302 -0.2658 -0.0916
10111SOL     OW34374   2.820   1.728   4.017 -0.1519  0.1536  0.1933
10111SOL    HW134375   2.818   1.665   4.090  1.5487  0.1482  0.2689
10111SOL    HW234376   2.760   1.690   3.952  1.5664 -2.1556 -0.1968
10112SOL     OW34377   8.444   0.257   6.996 -0.6863 -0.3900 -0.0794
10112SOL    HW134378   8.523   0.204   6.989 -0.0458  0.2664  1.6373
10112SOL    HW234379   8.415   0.270   6.905 -0.3173 -2.8003 -0.6092
10113SOL     OW34380   9.330   4.765   5.370  0.5579  0.2406 -0.2231
10113SOL    HW134381   9.338   4.703   5.297  0.0553  0.2585 -0.2947
10113SOL    HW234382   9.291   4.714   5.440 -1.1329  0.8055 -0.7147
10114SOL     OW34383   3.459   9.052   0.451  0.4228  0.3671 -0.1182
10114SOL    HW134384   3.505   8.973   0.479  1.4211  1.4618  1.5741
10114SOL    HW234385   3.529   9.112   0.426 -0.1905  1.3485  0.4500
10115SOL     OW34386   0.340   7.858   7.769  0.0607  0.0827 -0.3179
10115SOL    HW134387   0.279   7.930   7.789 -0.3053  0.5955 -2.9314
10115SOL    HW234388   0.426   7.900   7.768  0.1706 -0.0879  0.7060
10116SOL     OW34389   1.183   8.351   2.174  0.4669 -0.3816  0.0095
10116SOL    HW134390   1.245   8.325   2.242  0.2539  0.1759  0.4192
10116SOL    HW234391   1.215   8.307   2.095  1.4953  0.0309  0.1743
10117SOL     OW34392   9.966   0.339   3.168 -0.7646 -0.4276  0.1460
10117SOL    HW134393   9.896   0.327   3.232 -0.4241  1.4262  0.9361
10117SOL    HW234394   9.998   0.428   3.184  2.3020 -1.4726  0.3387
10118SOL     OW34395   5.576   1.207   9.731  0.2633 -0.1596 -0.5700
10118SOL    HW134396   5.577   1.247   9.818 -2.5611  0.1248 -0.5923
10118SOL    HW234397   5.622   1.270   9.676 -1.5635  1.7817 -0.0338
10119SOL     OW34398   1.944   5.953   5.456  0.0772 -0.3652 -0.0871
10119SOL    HW134399   1.871   5.966   5.516 -0.6760  0.9075 -1.2333
10119SOL    HW234400   2.019   5.994   5.501  0.0331 -1.3495  0.9258
10120SOL     OW34401   1.016   6.218   6.158  0.6693 -0.1872  0.4966
10120SOL    HW134402   0.942   6.179   6.206 -0.0102  2.2691  1.5893
10120SOL    HW234403   0.996   6.202   6.066 -0.7279 -0.4443  0.8235
10121SOL     OW34404   5.515   8.934   9.228 -0.1130 -0.1141  0.3709
10121SOL    HW134405   5.591   8.876   9.239  1.5291  2.2910  2.6183
10121SOL    HW234406   5.455   8.908   9.298 -0.9065 -1.2232 -0.6773
10122SOL     OW34407   6.621   7.837   8.806 -0.1416 -0.2593 -0.1488
10122SOL    HW134408   6.702   7.804   8.843 -0.4503 -0.5788  0.2512
10122SOL    HW234409   6.595   7.909   8.864 -0.7427 -0.9052  0.3979
10123SOL     OW34410   6.111   4.094   3.106  0.9759 -0.3490 -0.5106
10123SOL    HW134411   6.147   4.182   3.098  0.1926 -0.1030 -1.6738
10123SOL    HW234412   6.165   4.051   3.172  0.7369  1.3125  0.8360
10124SOL     OW34413  10.279   4.877   9.701 -0.1891  0.2736  0.4804
10124SOL    HW134414  10.315   4.898   9.615  1.5653 -1.4099  0.7613
10124SOL    HW234415  10.311   4.947   9.758  0.3885  0.2438  0.1941
10125SOL     OW34416   6.852   7.413   1.450  0.6029 -0.0812  0.4262
10125SOL    HW134417   6.920   7.349   1.470  1.8532  0.1911 -2.4368
10125SOL    HW234418   6.899   7.496   1.445 -0.3153  0.4470  0.3707
10126SOL     OW34419   6.566   0.538   2.772  0.1745 -0.0095  0.4452
10126SOL    HW134420   6.492   0.593   2.746 -0.6182 -1.5803 -0.8303
10126SOL    HW234421   6.564   0.465   2.710  0.5068 -2.0465  2.6685
10127SOL     OW34422   4.616   1.374   9.759 -0.2482 -0.2761  0.5231
10127SOL    HW134423   4.588   1.321   9.684  0.1886 -0.4153  0.4575
10127SOL    HW234424   4.603   1.318   9.835  1.1725 -0.8629  0.3582
10128SOL     OW34425   1.740   8.439   6.984 -0.2536  0.1939 -0.1730
10128SOL    HW134426   1.777   8.493   7.054 -0.2047  3.1277 -2.2691
10128SOL    HW234427   1.662   8.486   6.956 -0.7554 -1.3384 -1.5323
10129SOL     OW34428  10.110   2.082   9.018 -0.7373 -0.5294  0.1676
10129SOL    HW134429  10.137   2.004   8.969 -0.5926 -1.0226  1.0263
10129SOL    HW234430  10.167   2.084   9.094 -1.7582 -0.4433  0.9469
10130SOL     OW34431   3.233   1.117   2.761  0.0062  0.3015  0.4320
10130SOL    HW134432   3.287   1.163   2.697 -0.6103 -0.0370 -0.3576
10130SOL    HW234433   3.204   1.038   2.715 -1.0741  0.4293  0.8657
10131SOL     OW34434   1.879   9.212   9.396  0.0779  0.3375 -0.6771
10131SOL    HW134435   1.815   9.194   9.465 -0.6125 -1.2362 -1.6419
10131SOL    HW234436   1.830   9.262   9.331 -0.6294 -1.8714 -1.9674
10132SOL     OW34437  10.244   0.643   7.230  0.6054 -0.2492  0.4239
10132SOL    HW134438  10.321   0.700   7.233  1.0929 -0.5119 -3.2438
10132SOL    HW234439  10.270   0.564   7.277  2.2557  0.0288  0.0286
10133SOL     OW34440   3.086   8.662   8.619 -0.3002  0.5196 -0.5849
10133SOL    HW134441   3.131   8.578   8.632  1.1545  1.1225 -1.5352
10133SOL    HW234442   3.048   8.655   8.531 -2.4825 -0.1279  0.3400
10134SOL     OW34443   2.556   0.892   5.140 -0.2845  0.3514 -0.2317
10134SOL    HW134444   2.617   0.966   5.141  0.8473 -0.5647  1.0914
10134SOL    HW234445   2.561   0.855   5.228 -2.2724 -0.1721 -0.2871
10135SOL     OW34446   5.362   6.753   0.358 -0.3968  0.5003 -0.4136
10135SOL    HW134447   5.438   6.810   0.351  0.6562 -0.6452  1.0201
10135SOL    HW234448   5.289   6.812   0.377  0.4954  1.4602  0.1018
10136SOL     OW34449   5.371   1.867   2.499  0.1642 -0.0967 -0.0642
10136SOL    HW134450   5.332   1.805   2.561  0.6054  0.9517  1.3215
10136SOL    HW234451   5.392   1.944   2.552  2.2169  0.1769 -1.1445
10137SOL     OW34452   9.437   2.168   5.637 -0.6623 -0.1702  0.3042
10137SOL    HW134453   9.508   2.155   5.573  0.4428  1.1847  1.1949
10137SOL    HW234454   9.399   2.081   5.649  0.7560 -0.9045 -0.3383
10138SOL     OW34455   1.340   3.919   4.482  0.1419  0.1924  0.8387
10138SOL    HW134456   1.260   3.866   4.478  0.0758  0.3011  0.6919
10138SOL    HW234457   1.411   3.856   4.473  0.0406  0.2351 -0.5589
10139SOL     OW34458   1.628   3.290   4.528 -0.1367 -0.6161  0.4366
10139SOL    HW134459   1.703   3.259   4.579  0.7073  0.8562  0.1346
10139SOL    HW234460   1.658   3.286   4.437 -0.7428 -0.8453  0.2418
10140SOL     OW34461   0.672   0.158   2.032  0.1014 -0.3644  0.1645
10140SOL    HW134462   0.668   0.227   1.965  0.0429  0.1268  0.6712
10140SOL    HW234463   0.744   0.184   2.089 -2.2211  1.3057  2.5422
10141SOL     OW34464   1.890   9.023   9.953  0.5491  0.0993 -0.4601
10141SOL    HW134465   1.909   9.011   9.860  0.4836  0.9262 -0.5940
10141SOL    HW234466   1.901   9.117   9.967 -0.3268  0.1202  0.1684
10142SOL     OW34467   6.452   3.543   8.520 -0.4229  0.6781  0.0454
10142SOL    HW134468   6.367   3.537   8.477  0.7067  1.0961 -2.4361
10142SOL    HW234469   6.480   3.452   8.530 -1.0127  0.5524  0.6049
10143SOL     OW34470   1.331   2.087   1.813 -0.2703 -0.2267  0.1028
10143SOL    HW134471   1.240   2.065   1.796  0.2670 -0.6809 -2.5062
10143SOL    HW234472   1.375   2.003   1.826 -0.2212 -0.0005  1.5677
10144SOL     OW34473   9.988   3.070   9.659 -0.0649  0.1532 -0.0065
10144SOL    HW134474  10.078   3.037   9.660  0.1071  0.6036  1.4419
10144SOL    HW234475   9.993   3.156   9.701 -1.5233 -0.8530  2.4555
10145SOL     OW34476   6.527   0.827   7.796  0.2020 -0.1690  0.3203
10145SOL    HW134477   6.615   0.792   7.810  0.3441  0.2104  0.3892
10145SOL    HW234478   6.469   0.752   7.809  0.5690 -0.6137 -0.5543
10146SOL     OW34479   2.247   2.971   2.167  0.2749 -0.4071 -0.0925
10146SOL    HW134480   2.276   3.036   2.104  0.7629 -0.0433  0.4976
10146SOL    HW234481   2.214   3.021   2.241  2.0311 -0.7692  1.0084
10147SOL     OW34482   8.968   9.132   5.258  0.5936 -0.1834  0.0774
10147SOL    HW134483   8.990   9.092   5.174  0.5176  0.3594 -0.2008
10147SOL    HW234484   8.889   9.086   5.286  0.2689  0.0585 -0.4416
10148SOL     OW34485   8.196   4.856   2.543  0.0095 -0.3199 -0.0333
10148SOL    HW134486   8.236   4.773   2.516 -0.4050 -0.4891 -0.1468
10148SOL    HW234487   8.231   4.920   2.481  1.8513 -0.0237  1.2317
10149SOL     OW34488   0.162   2.936   2.962 -0.4929  0.2994  0.1949
10149SOL    HW134489   0.190   2.891   3.042  0.2945  0.7926  0.2029
10149SOL    HW234490   0.095   2.998   2.991  0.6190  1.3143  0.6716
10150SOL     OW34491   8.348   2.096   5.361  0.1220 -0.3050 -0.3476
10150SOL    HW134492   8.306   2.178   5.335  1.3025  0.0237 -1.3030
10150SOL    HW234493   8.314   2.031   5.301 -1.0982 -0.6279  0.6436
10151SOL     OW34494   0.396   5.512   3.091 -0.3395 -0.5700  0.3073
10151SOL    HW134495   0.482   5.479   3.116 -0.7300 -1.5233  0.4529
10151SOL    HW234496   0.360   5.549   3.172 -0.1877 -0.4512  0.3202
10152SOL     OW34497   8.345   8.811   6.629 -0.1263 -0.6977  0.5838
10152SOL    HW134498   8.355   8.752   6.703 -0.3316 -0.8319  0.5049
10152SOL    HW234499   8.371   8.897   6.663  0.1556 -0.8306  0.7015
10153SOL     OW34500   2.144   4.209   1.296 -0.5986 -0.1347  0.4901
10153SOL    HW134501   2.204   4.263   1.348 -0.1858 -0.3363  0.2242
10153SOL    HW234502   2.163   4.119   1.323  0.4693 -0.3403 -0.8840
10154SOL     OW34503   9.491   7.790   6.256 -0.0830 -0.3087  0.1752
10154SOL    HW134504   9.548   7.741   6.315  2.8102  3.0553  0.4596
10154SOL    HW234505   9.479   7.875   6.298 -1.8679  0.5745 -1.9071
10155SOL     OW34506   7.194   0.741   1.875 -0.2696 -0.3626 -0.3648
10155SOL    HW134507   7.262   0.808   1.871 -1.4794  0.9758  0.4164
10155SOL    HW234508   7.209   0.697   1.959 -0.6347  0.2483  0.0280
10156SOL     OW34509   4.646   4.766   9.255 -0.3519  0.7784 -0.0975
10156SOL    HW134510   4.599   4.828   9.311  0.0817  0.9123  0.1148
10156SOL    HW234511   4.610   4.681   9.280  0.3773  0.7556  0.9298
10157SOL     OW34512   5.895   0.292   1.619 -0.0455  0.0245 -0.4220
10157SOL    HW134513   5.828   0.285   1.687  0.1828 -0.8651 -0.2694
10157SOL    HW234514   5.975   0.315   1.666  0.1366 -0.7015 -0.3656
10158SOL     OW34515   4.852   7.500   2.794 -0.1822  0.4484  0.0760
10158SOL    HW134516   4.940   7.485   2.760 -0.4050  2.0343 -1.3576
10158SOL    HW234517   4.796   7.448   2.736 -0.2470 -0.0769  0.6049
10159SOL     OW34518   2.353   1.762   1.042  0.5815  0.3571  0.5661
10159SOL    HW134519   2.374   1.777   1.134 -2.0367 -1.0744  1.4891
10159SOL    HW234520   2.270   1.809   1.028 -1.2948 -2.7792  0.2035
10160SOL     OW34521   8.655   1.796   2.714  0.7808  0.2679 -0.4840
10160SOL    HW134522   8.735   1.774   2.666  1.9697  2.1567  0.5378
10160SOL    HW234523   8.645   1.890   2.702 -1.8095 -0.0380 -1.2772
10161SOL     OW34524   1.199   2.182   5.436 -0.5139 -0.3013  0.2161
10161SOL    HW134525   1.132   2.196   5.503 -0.9337 -1.3580  0.0342
10161SOL    HW234526   1.150   2.169   5.355 -0.1530 -1.8209  0.2123
10162SOL     OW34527   7.240   6.281   7.349 -0.0130  0.2125  0.2257
10162SOL    HW134528   7.287   6.204   7.381 -0.4115 -0.3411 -0.4788
10162SOL    HW234529   7.279   6.355   7.395  1.0435 -0.3152  0.1892
10163SOL     OW34530   4.329   4.666   9.497 -0.7186  0.0556  0.3418
10163SOL    HW134531   4.388   4.735   9.527  0.7522 -1.1112  0.2640
10163SOL    HW234532   4.272   4.649   9.572  0.5392 -0.3308  1.2371
10164SOL     OW34533   5.161   6.976   5.372 -0.1808 -0.0022 -0.1787
10164SOL    HW134534   5.211   6.976   5.454 -0.7930  0.7253  0.2075
10164SOL    HW234535   5.195   7.052   5.325 -0.6360  0.2583 -0.0892
10165SOL     OW34536   5.684   9.873   5.383  0.3483 -0.2893  0.3597
10165SOL    HW134537   5.763   9.850   5.334  0.2866 -1.5516  0.8125
10165SOL    HW234538   5.708   9.858   5.474  0.5393  2.2560  0.8007
10166SOL     OW34539   8.573   1.883   8.747  0.1910 -0.0622  0.6997
10166SOL    HW134540   8.500   1.929   8.790  0.6947  0.1249  1.3661
10166SOL    HW234541   8.563   1.792   8.774 -0.0701 -0.1261  0.3984
10167SOL     OW34542   0.453   1.344   5.733  0.1088 -0.2434  0.4542
10167SOL    HW134543   0.390   1.301   5.676 -1.1585 -1.8709  2.8890
10167SOL    HW234544   0.538   1.324   5.694 -0.5795 -3.0734  0.2070
10168SOL     OW34545   3.407   9.169   7.934 -0.2000 -0.1011 -0.1005
10168SOL    HW134546   3.436   9.084   7.968  0.1884  0.0302 -0.1013
10168SOL    HW234547   3.449   9.178   7.849  0.9163  0.7140  0.5052
10169SOL     OW34548   8.770   3.573   4.649  0.4863 -0.1218 -0.7658
10169SOL    HW134549   8.817   3.631   4.589 -0.8023  1.5641 -0.2308
10169SOL    HW234550   8.679   3.575   4.618 -0.7596  2.6848  2.4108
10170SOL     OW34551   9.876   4.050   7.442 -0.1060  0.2965 -0.4156
10170SOL    HW134552   9.939   4.057   7.513  0.3383  0.2785 -0.8074
10170SOL    HW234553   9.922   4.003   7.373 -0.5100  0.3793 -0.7469
10171SOL     OW34554   9.296   2.849   3.643  0.2258  0.3788  0.3741
10171SOL    HW134555   9.212   2.868   3.686 -0.8957 -0.4712 -1.3228
10171SOL    HW234556   9.345   2.797   3.707 -1.1027 -0.2833  0.8900
10172SOL     OW34557   8.701   2.925   0.602  0.0537 -0.3587 -0.2073
10172SOL    HW134558   8.765   2.895   0.539  1.2919  1.0099  0.3455
10172SOL    HW234559   8.734   3.010   0.632 -0.3806 -1.0096  2.3925
10173SOL     OW34560   4.785  10.230   1.265  0.0541  0.0495 -0.2575
10173SOL    HW134561   4.793  10.134   1.263  1.4847  0.0151  2.3964
10173SOL    HW234562   4.874  10.261   1.286 -0.5052  1.9211 -0.4978
10174SOL     OW34563   3.918   1.153   4.008 -0.1935  0.1898 -0.3324
10174SOL    HW134564   3.923   1.202   4.090  1.8315  1.6788 -1.2583
10174SOL    HW234565   4.005   1.115   3.997 -1.0584 -1.8315 -0.7659
10175SOL     OW34566   0.299   6.901   0.304 -0.4830 -0.7036 -0.4630
10175SOL    HW134567   0.349   6.828   0.267 -0.7870 -1.5814  0.8267
10175SOL    HW234568   0.210   6.889   0.270  0.1539  1.0897 -3.0967
10176SOL     OW34569   0.051   3.380   1.276  0.2735 -0.3231 -0.4920
10176SOL    HW134570   0.009   3.466   1.269  0.8162  0.0641  0.6985
10176SOL    HW234571   0.135   3.390   1.230  0.7141  0.0561  0.3786
10177SOL     OW34572   3.158   7.788   2.392 -0.0984 -0.8602 -0.7898
10177SOL    HW134573   3.171   7.743   2.308  2.3528 -1.1095 -0.3575
10177SOL    HW234574   3.246   7.814   2.419 -1.1237  2.0478  0.2064
10178SOL     OW34575   3.674   4.634   2.529 -0.1588  0.2502  0.4909
10178SOL    HW134576   3.756   4.660   2.487 -0.7323  1.4375  0.0639
10178SOL    HW234577   3.636   4.569   2.471  1.3165 -1.7109  1.5876
10179SOL     OW34578   8.324   6.536   5.008  0.5617  0.0479 -0.7595
10179SOL    HW134579   8.233   6.559   5.029  0.1584 -0.4702 -1.8710
10179SOL    HW234580   8.374   6.568   5.083 -0.4597  0.9003 -0.4083
10180SOL     OW34581   2.192   0.679   3.239  0.0912  0.0799 -0.3350
10180SOL    HW134582   2.104   0.690   3.274 -0.1447  0.2833 -0.9821
10180SOL    HW234583   2.230   0.609   3.291 -0.3046  0.2788  0.2272
10181SOL     OW34584   8.924   9.476   9.048  0.3489 -0.4973 -0.2989
10181SOL    HW134585   8.836   9.438   9.046 -0.2705  0.9264 -1.7632
10181SOL    HW234586   8.952   9.479   8.957  1.7063 -0.4121  0.0906
10182SOL     OW34587   3.309   7.699   5.474  0.1210  0.1036 -0.4791
10182SOL    HW134588   3.238   7.729   5.417 -0.0759  0.5510 -0.0139
10182SOL    HW234589   3.364   7.777   5.487 -0.5922  0.3899  1.0324
10183SOL     OW34590   0.419   9.943   1.042 -0.1727 -0.4516  0.0427
10183SOL    HW134591   0.496   9.896   1.074  0.3424  0.3179 -0.0293
10183SOL    HW234592   0.414  10.021   1.097 -0.3876 -0.0579 -0.5213
10184SOL     OW34593   5.940   0.197   0.664 -0.5481 -0.9854  0.0714
10184SOL    HW134594   5.903   0.203   0.576 -1.3420 -1.0422  0.3926
10184SOL    HW234595   5.866   0.215   0.722  0.2488  0.5110  0.7048
10185SOL     OW34596   7.291   1.699   0.372 -0.0379  0.0414  1.0015
10185SOL    HW134597   7.278   1.764   0.303  1.3363  0.1076  0.7727
10185SOL    HW234598   7.329   1.624   0.328  0.8473  0.0826  1.6601
10186SOL     OW34599   4.320   8.021   4.974  0.4102 -0.5784  0.4246
10186SOL    HW134600   4.286   8.057   5.056  2.0558  3.7318 -0.5517
10186SOL    HW234601   4.273   8.068   4.905  2.4889 -0.4582 -1.0183
10187SOL     OW34602   3.700   1.516   1.485 -0.3402  0.1425 -0.3186
10187SOL    HW134603   3.689   1.496   1.392 -0.2125 -0.2287 -0.2550
10187SOL    HW234604   3.778   1.571   1.489  0.0767 -0.4391 -0.3554
10188SOL     OW34605   2.326   6.579   3.972  0.3134  0.9042  0.1504
10188SOL    HW134606   2.262   6.634   3.925  1.2303  1.6130 -0.3012
10188SOL    HW234607   2.336   6.501   3.917 -0.1132  0.8184  0.1916
10189SOL     OW34608   7.705   8.538   9.798 -0.0558  0.3378 -0.5659
10189SOL    HW134609   7.659   8.523   9.881  0.3131  1.0083 -0.2371
10189SOL    HW234610   7.691   8.457   9.748  0.7283 -0.5496  0.6218
10190SOL     OW34611   2.364   5.455   5.703  0.6106  0.6221 -0.1624
10190SOL    HW134612   2.361   5.531   5.645 -0.2791  0.9231  0.2646
10190SOL    HW234613   2.425   5.480   5.772  0.3083  0.9548 -0.0145
10191SOL     OW34614   8.720   4.270   4.292 -0.4633  0.3009  0.2530
10191SOL    HW134615   8.722   4.344   4.352  0.3887 -1.1617  2.1712
10191SOL    HW234616   8.641   4.221   4.317  0.0115 -0.4320  0.3493
10192SOL     OW34617   9.879   3.257   5.712 -0.2301  0.4669 -0.0318
10192SOL    HW134618   9.797   3.304   5.701 -1.1002 -1.1392 -0.7095
10192SOL    HW234619   9.860   3.188   5.775  0.5258 -0.0830 -0.3824
10193SOL     OW34620   2.367   8.280   2.014  0.5296 -0.0358  0.6957
10193SOL    HW134621   2.290   8.331   1.991  1.5353  1.5523  0.6887
10193SOL    HW234622   2.347   8.191   1.985  0.2992  1.0938 -3.0558
10194SOL     OW34623   2.965   1.637   9.579  0.4444 -0.4780  0.1525
10194SOL    HW134624   2.939   1.652   9.670  0.9792  1.2677  0.0382
10194SOL    HW234625   2.932   1.713   9.531  2.1204 -0.2594 -0.7233
10195SOL     OW34626   3.751   5.357   0.892 -0.1968  0.2386 -0.9779
10195SOL    HW134627   3.710   5.438   0.922  0.0687  0.2822 -0.7266
10195SOL    HW234628   3.833   5.386   0.850 -0.3540  0.1426 -1.3606
10196SOL     OW34629   7.050   2.087   0.675  0.0008  0.2349 -0.2733
10196SOL    HW134630   6.958   2.108   0.687 -0.3179 -0.7949 -0.7804
10196SOL    HW234631   7.089   2.098   0.761 -0.8598 -0.5040  0.2287
10197SOL     OW34632   9.029   5.592   3.065  0.1653 -1.0407  0.3357
10197SOL    HW134633   9.090   5.519   3.059  0.4044 -1.0143  2.0328
10197SOL    HW234634   8.943   5.553   3.059  0.3139 -1.3517  0.2330
10198SOL     OW34635   0.807   8.368   8.451 -0.3521  0.4135 -0.3846
10198SOL    HW134636   0.734   8.403   8.399 -0.7625 -0.1641 -0.1959
10198SOL    HW234637   0.857   8.315   8.389 -1.9875 -1.9918  0.2313
10199SOL     OW34638  10.190   7.544   0.549 -0.8083 -0.2264  0.3031
10199SOL    HW134639  10.165   7.459   0.514  4.2702 -2.5658  1.4766
10199SOL    HW234640  10.236   7.587   0.477 -0.2616 -0.0682  0.7389
10200SOL     OW34641   7.853   1.146   1.230 -0.1167 -0.0707  0.0575
10200SOL    HW134642   7.899   1.120   1.310  0.7588 -0.6426 -0.6048
10200SOL    HW234643   7.819   1.064   1.194 -1.4766  0.3160  0.3989
10201SOL     OW34644   3.526   1.844   3.994  0.4792  0.5710  0.0950
10201SOL    HW134645   3.476   1.799   4.062 -1.2877  0.5592 -1.1614
10201SOL    HW234646   3.598   1.886   4.042 -0.8875  0.8559  2.0437
10202SOL     OW34647   7.739   7.251   7.079  0.3611 -0.3245 -0.0075
10202SOL    HW134648   7.672   7.296   7.028  2.0742  0.9198 -1.2729
10202SOL    HW234649   7.751   7.306   7.156  0.6858  0.0285 -0.3108
10203SOL     OW34650  10.295   1.154   7.402 -0.1470  0.7238  0.0185
10203SOL    HW134651  10.352   1.078   7.414 -0.5156  0.5706  0.8403
10203SOL    HW234652  10.227   1.123   7.343  0.1067  0.6356 -0.2328
10204SOL     OW34653   7.175   4.746   6.106 -0.5325  0.8208  0.2698
10204SOL    HW134654   7.158   4.755   6.013  3.3919  2.6759 -0.4493
10204SOL    HW234655   7.210   4.658   6.116 -1.3030  0.4871  0.1139
10205SOL     OW34656   7.430  10.276   3.549  0.2624  0.8166  0.1946
10205SOL    HW134657   7.524  10.281   3.564  0.6669 -2.5684 -0.2917
10205SOL    HW234658   7.395  10.239   3.630 -0.0735 -1.0780 -0.7435
10206SOL     OW34659  10.111   8.753   5.812 -0.6715 -0.1857  0.3169
10206SOL    HW134660  10.188   8.697   5.799  0.2041  1.0103  0.2213
10206SOL    HW234661  10.038   8.691   5.823  0.4228 -1.3581  1.2398
10207SOL     OW34662   4.735   9.943   4.396 -0.3960 -0.3286  0.0625
10207SOL    HW134663   4.702   9.868   4.446  0.4360 -1.1226 -0.5390
10207SOL    HW234664   4.660   9.972   4.344 -0.9093 -0.3169  0.7905
10208SOL     OW34665   2.040   5.433   2.751  0.7933  0.1212 -0.2635
10208SOL    HW134666   2.119   5.473   2.714  0.3262  0.4592 -0.9110
10208SOL    HW234667   1.996   5.505   2.797  0.0673  0.3148 -1.2354
10209SOL     OW34668   4.813   1.049   3.340 -0.4874  0.1606 -0.6348
10209SOL    HW134669   4.760   1.122   3.370 -0.6638  0.1011 -0.8023
10209SOL    HW234670   4.855   1.016   3.419 -0.1695  0.6328 -0.6009
10210SOL     OW34671   6.865   0.688   7.226  0.1639 -0.2067 -0.0430
10210SOL    HW134672   6.783   0.640   7.238 -0.1134  0.4808  1.0247
10210SOL    HW234673   6.862   0.718   7.136 -1.6489  1.3098  0.4482
10211SOL     OW34674   4.345   8.970   7.845  0.1387 -0.6748  0.0590
10211SOL    HW134675   4.309   9.032   7.781 -0.0313 -0.2774  0.5336
10211SOL    HW234676   4.439   8.976   7.835  0.1435  0.1184  0.5219
10212SOL     OW34677   4.755   5.923   7.341 -0.4909  0.5408 -0.7139
10212SOL    HW134678   4.668   5.895   7.314  0.0315 -1.2573 -0.6205
10212SOL    HW234679   4.785   5.979   7.270 -1.4140  0.5712 -1.0958
10213SOL     OW34680   5.983   7.590   4.051 -0.6131  0.2602  0.1476
10213SOL    HW134681   5.916   7.553   3.994 -0.3906  0.7456 -0.4307
10213SOL    HW234682   6.062   7.595   3.996 -0.6289  1.5661  0.2136
10214SOL     OW34683   2.572   0.892   8.208 -0.0122  0.0615  0.0215
10214SOL    HW134684   2.648   0.846   8.173  0.8590  2.0886 -0.9490
10214SOL    HW234685   2.497   0.843   8.175  0.8105  0.7774 -3.3703
10215SOL     OW34686  10.247   5.890   4.661  0.1216  0.3985  0.1495
10215SOL    HW134687  10.316   5.929   4.607 -0.7851  0.9161 -0.6671
10215SOL    HW234688  10.239   5.801   4.629 -1.2307  1.0473 -1.4458
10216SOL     OW34689   8.757   5.695   9.313 -0.3665  0.3864 -0.3935
10216SOL    HW134690   8.776   5.766   9.375 -0.2805  0.7223 -0.8033
10216SOL    HW234691   8.664   5.704   9.294 -1.1699 -1.5626  1.9976
10217SOL     OW34692   9.760   6.331   1.336 -0.0444 -0.4389 -0.3174
10217SOL    HW134693   9.688   6.294   1.284  0.2330  0.4431 -1.3714
10217SOL    HW234694   9.831   6.267   1.327 -0.3288 -0.7678 -0.2166
10218SOL     OW34695   5.022   7.395   9.125 -0.0114 -0.5989  0.0806
10218SOL    HW134696   5.097   7.412   9.182  0.1412  0.6141 -0.4373
10218SOL    HW234697   5.021   7.300   9.113  0.9793 -0.7006  0.7092
10219SOL     OW34698   2.559   0.200   5.494  0.2203 -0.3240  0.3265
10219SOL    HW134699   2.481   0.224   5.544  0.5179 -0.6687  0.9768
10219SOL    HW234700   2.547   0.241   5.409 -1.2708 -1.3793 -0.0218
10220SOL     OW34701   5.672   8.032   6.939 -0.1574 -0.4804 -0.1146
10220SOL    HW134702   5.639   8.078   6.862 -1.8831 -0.4116  0.6107
10220SOL    HW234703   5.643   8.085   7.013  1.2405 -0.6819  0.6140
10221SOL     OW34704   4.705   3.633   7.957 -0.4382 -1.3160  0.7328
10221SOL    HW134705   4.675   3.722   7.937  0.0066 -1.2500  0.3250
10221SOL    HW234706   4.625   3.581   7.960 -0.8235 -0.7031  2.0990
10222SOL     OW34707   1.551   5.910   0.981  0.4360 -0.4355 -0.4474
10222SOL    HW134708   1.478   5.957   1.021  0.1553  0.6050 -2.0689
10222SOL    HW234709   1.625   5.970   0.988  0.6471 -0.6852 -0.5246
10223SOL     OW34710   3.633   8.569   9.463 -0.9557  0.3074 -0.8746
10223SOL    HW134711   3.606   8.614   9.543  1.0287 -1.0328  0.6484
10223SOL    HW234712   3.707   8.621   9.431 -0.5261 -0.2164 -0.7464
10224SOL     OW34713   6.056   1.332   7.797 -0.4495 -0.0924 -0.1959
10224SOL    HW134714   6.139   1.324   7.845 -0.1675  0.2924 -0.6093
10224SOL    HW234715   5.989   1.315   7.863 -0.0041 -2.9589 -0.3574
10225SOL     OW34716   0.232   4.046   2.375 -0.3209 -0.3008 -0.2020
10225SOL    HW134717   0.258   4.100   2.450 -0.0674  1.6412 -1.5908
10225SOL    HW234718   0.296   3.976   2.372  0.0835 -0.0023  0.9885
10226SOL     OW34719  10.213   2.261   1.272 -0.8322 -0.1804  0.5684
10226SOL    HW134720  10.278   2.199   1.240  0.6123  1.1742  0.7428
10226SOL    HW234721  10.158   2.280   1.196  1.8607  2.1522 -1.0185
10227SOL     OW34722   1.019   6.367  10.007 -0.1793 -0.1491 -0.1975
10227SOL    HW134723   0.978   6.453  10.003 -0.7064 -0.4257 -2.5185
10227SOL    HW234724   1.109   6.384  10.035 -0.5475  1.0399  0.3068
10228SOL     OW34725   1.437   9.443   4.138  0.3227  0.0247  0.1868
10228SOL    HW134726   1.390   9.481   4.064  0.5721 -0.5715 -0.2802
10228SOL    HW234727   1.390   9.362   4.158  0.6109 -0.1175  0.3003
10229SOL     OW34728   9.051   3.467  10.038  0.4055  0.0770  0.0011
10229SOL    HW134729   9.001   3.537  10.079  0.2795  0.6867 -1.1402
10229SOL    HW234730   9.022   3.387  10.083  0.3472  0.7115  1.1272
10230SOL     OW34731   7.840   8.294   4.331 -0.2730  0.1709  0.3587
10230SOL    HW134732   7.921   8.253   4.362  0.5204  0.8149 -0.7755
10230SOL    HW234733   7.828   8.370   4.387 -0.5537 -0.3733  1.0544
10231SOL     OW34734   2.319   8.860   2.110  0.5007 -0.3875 -0.0226
10231SOL    HW134735   2.400   8.869   2.161 -0.0294 -0.6148  0.8829
10231SOL    HW234736   2.293   8.950   2.091  1.4695 -0.3233 -1.1642
10232SOL     OW34737   1.834   6.878   2.273  0.3300 -0.2961 -0.4561
10232SOL    HW134738   1.832   6.928   2.355  1.6498 -0.2581 -0.4289
10232SOL    HW234739   1.827   6.786   2.301  1.5829 -0.3316 -0.2322
10233SOL     OW34740   9.960   7.785   4.878 -0.2134  0.1019  0.4611
10233SOL    HW134741  10.004   7.869   4.885  0.4803  0.3334 -4.0530
10233SOL    HW234742   9.885   7.802   4.821 -0.0732 -2.2852 -0.5344
10234SOL     OW34743   2.861   8.386   4.092 -0.5110 -0.3254  0.0150
10234SOL    HW134744   2.771   8.364   4.117  0.0141 -1.0601  1.3243
10234SOL    HW234745   2.852   8.465   4.039 -2.1275 -1.6591 -1.8409
10235SOL     OW34746   7.783   7.229   7.946  0.5522  0.2426  0.0318
10235SOL    HW134747   7.697   7.187   7.952  0.4054  0.4231 -0.7446
10235SOL    HW234748   7.765   7.322   7.958  0.5907  0.3192 -0.4981
10236SOL     OW34749   7.418   0.253  10.167 -0.1311 -0.0626 -0.0046
10236SOL    HW134750   7.420   0.319  10.098 -0.4174 -0.9863 -0.9230
10236SOL    HW234751   7.336   0.206  10.153  1.0110 -1.9706 -0.7021
10237SOL     OW34752   4.823   1.106   7.466  0.0642 -0.1456 -0.2821
10237SOL    HW134753   4.907   1.128   7.505 -0.5766  1.4348  0.2795
10237SOL    HW234754   4.774   1.065   7.536 -0.8917  2.2073  0.5289
10238SOL     OW34755   9.841   2.922   8.979 -0.0784  0.3902  0.0902
10238SOL    HW134756   9.873   2.935   8.890 -2.3604 -0.6195 -0.9684
10238SOL    HW234757   9.879   2.838   9.006 -0.1746  0.2138 -0.3202
10239SOL     OW34758   5.010   0.107   8.165 -0.0845  0.4138  0.2696
10239SOL    HW134759   4.992   0.186   8.216 -2.0801 -1.0246  1.9534
10239SOL    HW234760   4.969   0.122   8.080  0.0313  1.3806  0.3752
10240SOL     OW34761   7.279   6.841   0.093 -0.0111 -0.0045 -0.5837
10240SOL    HW134762   7.335   6.786   0.038  0.1280 -0.3896 -0.0743
10240SOL    HW234763   7.215   6.780   0.130 -0.2169  0.2802 -0.4678
10241SOL     OW34764   5.171   3.869   9.110 -0.6439 -0.8248 -0.3464
10241SOL    HW134765   5.194   3.786   9.150 -0.6495  0.0344  1.5424
10241SOL    HW234766   5.190   3.857   9.017  2.1624 -1.9679  0.2873
10242SOL     OW34767   4.410   4.388   0.129  0.4815  0.1855 -0.3162
10242SOL    HW134768   4.331   4.353   0.170  1.5986 -0.8649  1.0490
10242SOL    HW234769   4.412   4.349   0.042 -1.2347  1.3924 -0.9527
10243SOL     OW34770   8.174   8.952   3.421  0.3499 -0.2546 -0.3535
10243SOL    HW134771   8.207   9.013   3.487 -0.0015 -0.3888 -0.0514
10243SOL    HW234772   8.213   8.982   3.339  1.9733 -0.9415  0.1185
10244SOL     OW34773   8.260   2.222   2.978  0.5432 -0.2679  0.8630
10244SOL    HW134774   8.295   2.137   3.006  1.0453 -0.3305  0.0700
10244SOL    HW234775   8.320   2.285   3.018  1.9543 -0.3904 -0.9343
10245SOL     OW34776   9.275   1.965  10.258 -0.1359 -0.6131 -0.1755
10245SOL    HW134777   9.232   1.919  10.185 -2.3531  0.7066  0.2196
10245SOL    HW234778   9.251   2.056  10.246  0.0847 -0.2621  1.8173
10246SOL     OW34779   7.821  10.039  10.091 -0.0412 -0.5358  0.3741
10246SOL    HW134780   7.741  10.021  10.141  0.2561  0.3377  1.1930
10246SOL    HW234781   7.858   9.952  10.073 -0.9799 -0.9330  0.2875
10247SOL     OW34782   9.364   5.097   8.770 -0.3239  0.2051  0.3689
10247SOL    HW134783   9.295   5.096   8.837  0.3584 -1.1271  1.1006
10247SOL    HW234784   9.443   5.070   8.817  0.4912  0.6944 -0.6768
10248SOL     OW34785   0.144   7.218   8.192  0.1705 -0.0138 -0.1774
10248SOL    HW134786   0.078   7.263   8.246  0.8492  2.0204 -0.9237
10248SOL    HW234787   0.223   7.217   8.246 -0.2903 -1.9885  0.5195
10249SOL     OW34788   1.726   8.971   8.293 -0.1834 -0.2875 -0.2075
10249SOL    HW134789   1.688   8.927   8.217 -0.5078  0.9661 -0.8027
10249SOL    HW234790   1.816   8.938   8.297 -0.7553 -1.8904  0.1041
10250SOL     OW34791   7.374   3.532   6.631  0.2231  0.0256  0.0556
10250SOL    HW134792   7.465   3.562   6.631 -0.0242  1.0944 -3.1915
10250SOL    HW234793   7.380   3.437   6.619  0.9553  0.2693 -1.8112
10251SOL     OW34794   1.769   4.205   7.287 -0.2246  0.1692  0.3895
10251SOL    HW134795   1.842   4.142   7.284 -0.7775 -0.4669  0.1471
10251SOL    HW234796   1.754   4.228   7.196 -0.8704 -0.3378  0.3653
10252SOL     OW34797   1.362   0.507   0.068  0.0239  0.1702  0.3403
10252SOL    HW134798   1.454   0.489   0.050  0.0691  0.3721  0.3599
10252SOL    HW234799   1.361   0.539   0.159 -0.1368 -0.3530  0.5252
10253SOL     OW34800   2.127   0.345   7.532  0.6658 -0.0316  0.1546
10253SOL    HW134801   2.061   0.392   7.481  1.1706  1.5366  0.8579
10253SOL    HW234802   2.193   0.412   7.551  1.1640 -0.9211  1.6647
10254SOL     OW34803   0.319   7.971   5.569  0.0081 -0.4568  0.1453
10254SOL    HW134804   0.335   8.064   5.556 -0.6044 -0.3210  0.3317
10254SOL    HW234805   0.319   7.933   5.481 -1.4236  0.0057 -0.0875
10255SOL     OW34806   9.488   3.420   2.128  0.3723 -0.0982 -0.5765
10255SOL    HW134807   9.432   3.475   2.073 -0.0019  0.2946  0.1768
10255SOL    HW234808   9.558   3.478   2.157  0.2577 -0.1484 -0.1933
10256SOL     OW34809   0.688   2.851   7.551  0.1072 -0.6715  0.4287
10256SOL    HW134810   0.634   2.780   7.586  0.7003 -0.9274  0.8367
10256SOL    HW234811   0.742   2.879   7.624  1.4488 -1.2990 -0.2871
10257SOL     OW34812   0.954   1.210   9.484  0.0493  0.9325  0.5959
10257SOL    HW134813   0.877   1.254   9.449 -1.5872 -2.6020 -0.7182
10257SOL    HW234814   0.950   1.228   9.578 -3.2960 -0.2250  0.8115
10258SOL     OW34815   7.078   1.057   5.035 -1.0195  0.7008 -0.1938
10258SOL    HW134816   7.130   1.106   5.099 -0.8963  0.4323 -0.0879
10258SOL    HW234817   7.015   1.008   5.087 -1.2136  0.8275 -0.3072
10259SOL     OW34818   4.125   7.282   1.771 -0.0154  0.9827 -0.3227
10259SOL    HW134819   4.190   7.233   1.722  1.5101  1.4048  1.1972
10259SOL    HW234820   4.110   7.230   1.850  0.6609  2.2833  0.6946
10260SOL     OW34821   6.900   7.722   2.082 -0.0688  0.3203 -0.5462
10260SOL    HW134822   6.887   7.628   2.090 -0.9948  0.3811 -1.1919
10260SOL    HW234823   6.813   7.757   2.063  0.1622  1.3765  0.2549
10261SOL     OW34824   6.830   5.253   1.800 -0.1288  0.0559 -0.4227
10261SOL    HW134825   6.787   5.209   1.873 -0.7408  1.0660 -0.1569
10261SOL    HW234826   6.772   5.238   1.725  0.3956 -0.8041 -0.6780
10262SOL     OW34827   9.179   9.638   8.848  0.0732  0.0440 -0.2529
10262SOL    HW134828   9.088   9.618   8.824  0.3289 -1.3861 -0.0752
10262SOL    HW234829   9.231   9.581   8.792  0.7550 -1.9240  2.2334
10263SOL     OW34830   1.437   0.619   1.914  0.5683  0.6256  0.4655
10263SOL    HW134831   1.424   0.708   1.947 -0.4286  0.1857  1.2962
10263SOL    HW234832   1.467   0.631   1.824 -0.2881  1.8033  0.3185
10264SOL     OW34833   6.944   1.201   0.132  0.0139 -0.7867  0.3845
10264SOL    HW134834   6.991   1.181   0.213  2.9636  1.4513 -0.5924
10264SOL    HW234835   6.953   1.122   0.079  0.0677 -1.4508  1.3660
10265SOL     OW34836   0.245   5.808   7.230  0.7721 -0.0474 -0.4211
10265SOL    HW134837   0.233   5.748   7.303  0.8594 -0.2421 -0.5655
10265SOL    HW234838   0.165   5.861   7.229  1.7875  1.6535  1.3508
10266SOL     OW34839   6.624   5.204   3.784 -0.2721  0.4307  0.3194
10266SOL    HW134840   6.591   5.270   3.723  0.2160  1.6889  1.3463
10266SOL    HW234841   6.710   5.237   3.811  0.0807 -0.7423  0.7127
10267SOL     OW34842   9.757   4.771   8.606 -0.2815 -0.1590  0.4258
10267SOL    HW134843   9.748   4.756   8.512 -0.0164  0.7064  0.2483
10267SOL    HW234844   9.690   4.836   8.626  0.5176  0.6423  0.5674
10268SOL     OW34845   0.804   9.652   8.853 -0.1294 -0.3366 -0.1637
10268SOL    HW134846   0.879   9.601   8.884 -0.3882 -0.5373  0.1398
10268SOL    HW234847   0.830   9.682   8.766  0.3857 -0.2277  0.0242
10269SOL     OW34848   5.624   2.496   6.920  0.1784  0.1287 -0.2154
10269SOL    HW134849   5.657   2.506   6.831  0.5361 -0.8520 -0.2097
10269SOL    HW234850   5.565   2.421   6.916  0.7420 -0.3769  0.5066
10270SOL     OW34851   6.607   4.782   1.187 -0.6792 -0.5591  0.0902
10270SOL    HW134852   6.606   4.875   1.164  1.5651 -0.0671  1.7134
10270SOL    HW234853   6.529   4.747   1.144 -0.7091  1.7066 -1.9629
10271SOL     OW34854   9.778   4.838   1.794  0.1628 -0.1531  0.3914
10271SOL    HW134855   9.752   4.824   1.703  0.0078 -2.3015  0.7172
10271SOL    HW234856   9.812   4.753   1.823 -0.8537  0.1449  2.6676
10272SOL     OW34857   8.629   5.165   8.790 -1.2405  0.2382  0.0375
10272SOL    HW134858   8.572   5.091   8.811 -1.4951  0.9296  1.8770
10272SOL    HW234859   8.686   5.131   8.720 -3.0688 -0.8357 -1.0276
10273SOL     OW34860   3.385  10.083   2.013 -0.8987 -0.3641  0.1381
10273SOL    HW134861   3.372  10.152   1.948 -1.0341 -0.4546  0.0671
10273SOL    HW234862   3.479  10.064   2.010 -0.3101  1.7581  2.1398
10274SOL     OW34863   8.462   8.172   9.977 -0.4041  0.1079  0.3747
10274SOL    HW134864   8.455   8.167  10.073  0.5078 -1.1279  0.4015
10274SOL    HW234865   8.372   8.180   9.947 -0.6425  1.5360  1.3696
10275SOL     OW34866   3.811   4.982   5.053  0.0688 -0.2716  0.1018
10275SOL    HW134867   3.845   5.002   5.140 -0.9846 -0.3032  0.5310
10275SOL    HW234868   3.821   4.888   5.043  2.9152  0.0346 -1.0150
10276SOL     OW34869   6.492   4.507   8.633 -0.0658 -0.2218  0.5911
10276SOL    HW134870   6.562   4.476   8.576  1.5523  0.7804  1.9594
10276SOL    HW234871   6.525   4.589   8.670 -2.0897  0.4381  1.0709
10277SOL     OW34872   2.921   9.700   5.267 -0.4078  0.7442 -0.0226
10277SOL    HW134873   2.829   9.715   5.243 -0.9054  0.4239  1.5373
10277SOL    HW234874   2.955   9.787   5.288  0.5405  1.2894 -3.2995
10278SOL     OW34875   9.391   7.998   7.211  0.2898 -0.3506 -0.0576
10278SOL    HW134876   9.305   7.963   7.187  0.6089 -2.2855  1.3656
10278SOL    HW234877   9.375   8.048   7.291  0.7376 -2.5981  1.5357
10279SOL     OW34878   6.189   5.521   9.580 -0.1662 -0.1336 -0.3694
10279SOL    HW134879   6.227   5.590   9.634 -2.7109  1.2377 -0.1887
10279SOL    HW234880   6.109   5.496   9.626  0.8471 -3.6603 -0.1656
10280SOL     OW34881   3.285   8.635   1.044  0.2840  0.8282  0.4140
10280SOL    HW134882   3.353   8.634   1.112  0.4119 -0.5171  0.3060
10280SOL    HW234883   3.214   8.583   1.082 -0.6699  2.1371  0.4818
10281SOL     OW34884   9.568   0.080   4.922  0.0004 -0.6667  0.2830
10281SOL    HW134885   9.590   0.128   4.842  0.5780 -0.2937  0.6632
10281SOL    HW234886   9.485   0.119   4.951  0.9606  0.8250  1.1439
10282SOL     OW34887   1.190   9.801   2.273  0.3338  0.6671  0.1490
10282SOL    HW134888   1.204   9.718   2.319 -0.8131 -0.3640 -1.2733
10282SOL    HW234889   1.206   9.780   2.181 -0.5263  1.8862 -0.3036
10283SOL     OW34890   4.026   1.938   3.738  1.1305  0.2501 -0.3705
10283SOL    HW134891   3.985   1.862   3.779 -0.2892  1.2964  0.2106
10283SOL    HW234892   4.084   1.974   3.805  0.1586  0.9205  0.1285
10284SOL     OW34893   1.639   9.211   5.348  0.0183 -0.5756 -0.6847
10284SOL    HW134894   1.651   9.131   5.297 -0.0595  0.4592 -2.4173
10284SOL    HW234895   1.654   9.281   5.285  0.0331  0.7772  0.7821
10285SOL     OW34896   4.700   1.423   2.249  0.1283 -0.1808  0.2323
10285SOL    HW134897   4.709   1.432   2.344 -0.8660 -0.4341  0.3689
10285SOL    HW234898   4.779   1.462   2.213 -0.3482  1.6616  1.0925
10286SOL     OW34899   0.709   1.269   2.990 -0.2013  0.3622  0.1489
10286SOL    HW134900   0.715   1.325   3.068  0.8633  0.0633  0.3078
10286SOL    HW234901   0.787   1.292   2.939 -0.0702 -0.5438 -0.0735
10287SOL     OW34902   2.535   0.129   6.506  0.1140  0.1223 -0.5302
10287SOL    HW134903   2.470   0.082   6.559 -0.5537  2.2395  0.6602
10287SOL    HW234904   2.485   0.167   6.434  0.6384 -0.8770 -1.4531
10288SOL     OW34905   9.234   3.332   0.099 -0.0349 -0.0168  0.4151
10288SOL    HW134906   9.241   3.410   0.043  0.1326  0.2024  0.7355
10288SOL    HW234907   9.239   3.367   0.188 -2.7410 -0.0895  0.6603
10289SOL     OW34908   3.744   0.848   5.623  0.5230  0.1325  0.1394
10289SOL    HW134909   3.753   0.780   5.690 -0.9632 -0.1260  0.1181
10289SOL    HW234910   3.798   0.920   5.655 -0.2367  0.0622  1.6936
10290SOL     OW34911  10.206   8.702  10.228 -0.1781 -0.0521  0.4912
10290SOL    HW134912  10.273   8.770  10.238  0.2616 -0.1838 -1.2584
10290SOL    HW234913  10.126   8.741  10.263  0.3442  0.8926  0.6580
10291SOL     OW34914   5.421   7.881   3.125 -0.7607 -0.1955  0.9426
10291SOL    HW134915   5.348   7.882   3.188 -0.8760  0.6460  0.7967
10291SOL    HW234916   5.481   7.948   3.156 -1.8567  1.8483 -1.0372
10292SOL     OW34917   7.421   8.013   7.757  0.2087  0.0673 -0.5510
10292SOL    HW134918   7.502   7.963   7.762 -0.4527 -0.9211  0.7914
10292SOL    HW234919   7.440   8.092   7.808 -0.0111 -0.6918  0.7539
10293SOL     OW34920   9.238   9.344   9.142  0.0960 -0.2089  0.3186
10293SOL    HW134921   9.155   9.321   9.185 -0.0262  1.3373  0.9593
10293SOL    HW234922   9.240   9.290   9.063 -1.6696 -0.0542  0.1350
10294SOL     OW34923   2.820   0.685   5.702  0.1802 -0.1953 -0.0497
10294SOL    HW134924   2.727   0.707   5.708  0.2161 -0.1849  0.5324
10294SOL    HW234925   2.823   0.591   5.721  0.3853  0.0002  0.9930
10295SOL     OW34926   4.394   6.686   1.880  0.1301 -0.2307  0.2212
10295SOL    HW134927   4.343   6.743   1.938 -1.6131 -0.7603 -0.7333
10295SOL    HW234928   4.381   6.598   1.915 -0.2996 -0.4655 -0.5137
10296SOL     OW34929   0.015   8.383   7.814  0.3347  0.0267  0.2290
10296SOL    HW134930   0.055   8.460   7.775 -0.8689  0.2099 -0.7287
10296SOL    HW234931   0.014   8.319   7.743  0.9543 -0.7477  0.8966
10297SOL     OW34932   8.879   1.138   8.044 -0.2995  0.3810 -0.3936
10297SOL    HW134933   8.802   1.082   8.051 -0.2789  0.2226 -1.2819
10297SOL    HW234934   8.928   1.123   8.125 -0.4307 -0.6733 -0.5026
10298SOL     OW34935   9.311   8.653   8.453 -0.1534 -0.0249 -0.1719
10298SOL    HW134936   9.285   8.634   8.363 -0.1534 -0.9171  0.0004
10298SOL    HW234937   9.399   8.688   8.446 -0.6106  1.0667 -0.6065
10299SOL     OW34938   3.076   8.188   8.039 -0.3967  0.3655 -1.0901
10299SOL    HW134939   3.111   8.273   8.067  2.9898 -0.9405 -0.8946
10299SOL    HW234940   3.008   8.168   8.104 -0.7207  2.4930 -0.6690
10300SOL     OW34941   0.024   1.915   2.803 -0.4892 -0.2444  0.0724
10300SOL    HW134942   0.115   1.889   2.813 -0.0909 -1.0309 -3.8067
10300SOL    HW234943  -0.025   1.833   2.799 -0.9755  0.0495 -0.3194
10301SOL     OW34944   0.703   0.356   3.900 -0.4101 -0.1984 -0.1404
10301SOL    HW134945   0.619   0.399   3.917 -1.4978 -1.9501 -0.8032
10301SOL    HW234946   0.696   0.272   3.944  0.0838 -1.2869 -2.0344
10302SOL     OW34947   6.372   4.592   8.367 -0.7553  0.3662  0.6409
10302SOL    HW134948   6.317   4.621   8.295 -0.6213  0.5527  0.6130
10302SOL    HW234949   6.449   4.554   8.326 -1.3405 -0.8756  0.6585
10303SOL     OW34950   7.890   6.942   6.396 -0.3461 -0.1858  0.0734
10303SOL    HW134951   7.941   6.972   6.471  0.0084  1.1776 -0.6743
10303SOL    HW234952   7.822   7.009   6.385 -0.3002 -0.2790 -0.8958
10304SOL     OW34953   2.171   7.731   3.377  0.2680  0.6171  0.1912
10304SOL    HW134954   2.217   7.700   3.300 -0.6532 -0.5295  0.0802
10304SOL    HW234955   2.214   7.814   3.399  1.3849  0.3124 -0.7689
10305SOL     OW34956   1.963   6.377   6.469  0.2775  0.3424 -0.4149
10305SOL    HW134957   1.917   6.382   6.385  1.1086  2.6944 -0.8187
10305SOL    HW234958   1.894   6.389   6.535 -0.0335  1.4058 -0.9090
10306SOL     OW34959   4.850   9.699   9.273 -0.6011  0.2558 -0.3925
10306SOL    HW134960   4.917   9.761   9.302 -0.1822 -0.2702 -0.2259
10306SOL    HW234961   4.896   9.641   9.213 -0.3879 -1.3782  1.2689
10307SOL     OW34962   1.788   5.588   9.048 -0.4317  0.5106 -0.3734
10307SOL    HW134963   1.812   5.585   8.955 -0.8397  0.3148 -0.4760
10307SOL    HW234964   1.714   5.648   9.052 -1.1697 -0.3742 -0.3561
10308SOL     OW34965   3.731   5.373   1.959  0.0070 -0.0396 -0.2383
10308SOL    HW134966   3.727   5.335   2.047 -0.2031  0.0025 -0.2299
10308SOL    HW234967   3.819   5.351   1.928  0.9934  2.0471  0.9307
10309SOL     OW34968   2.277   8.436   2.909  0.3693 -0.1243 -0.0289
10309SOL    HW134969   2.273   8.361   2.849 -0.6956 -0.3338  0.2749
10309SOL    HW234970   2.238   8.403   2.990  1.6346  0.1986  0.7447
10310SOL     OW34971   2.648   5.896   7.123 -0.1630  0.0661  0.2650
10310SOL    HW134972   2.700   5.910   7.202  1.0636  0.0919 -0.5193
10310SOL    HW234973   2.666   5.806   7.098  0.3244  0.3968 -0.5924
10311SOL     OW34974   5.408   7.406   2.651 -0.2575  0.4528  0.5421
10311SOL    HW134975   5.431   7.499   2.644 -0.6989  0.4857 -0.7519
10311SOL    HW234976   5.312   7.405   2.646 -0.1921 -0.1902 -1.6926
10312SOL     OW34977   2.997   0.258   4.563  0.0025  0.0031 -0.5359
10312SOL    HW134978   2.986   0.332   4.503 -0.6727  1.5613  1.3922
10312SOL    HW234979   3.084   0.270   4.601  0.0750 -0.4564 -0.5471
10313SOL     OW34980   7.212   1.034   3.423 -0.4457  0.0787  0.4072
10313SOL    HW134981   7.305   1.034   3.399 -0.5046 -0.5953  0.1496
10313SOL    HW234982   7.204   1.103   3.489  0.3771 -0.3631  0.9864
10314SOL     OW34983   1.131   9.100   9.132 -0.4356 -0.2954  0.0974
10314SOL    HW134984   1.083   9.110   9.215 -0.2508 -1.2223  0.3313
10314SOL    HW234985   1.135   9.188   9.096 -2.0621 -0.1414  0.2114
10315SOL     OW34986  10.081   0.773  10.069 -0.2423 -0.1780  0.1502
10315SOL    HW134987  10.162   0.731  10.095 -0.9800 -2.1290 -0.5039
10315SOL    HW234988  10.012   0.721  10.111 -1.1961  0.3390 -0.7283
10316SOL     OW34989   0.522   1.343   2.793 -0.5924  0.5325 -0.5051
10316SOL    HW134990   0.595   1.315   2.849 -1.0511 -0.2883 -0.2911
10316SOL    HW234991   0.527   1.284   2.717 -1.3699  0.0720 -0.2132
10317SOL     OW34992   6.271   9.348   4.045 -0.2783 -0.0061 -0.0598
10317SOL    HW134993   6.241   9.370   3.957  0.9884  0.7503 -0.3305
10317SOL    HW234994   6.191   9.325   4.093 -0.8655 -1.5554 -1.6981
10318SOL     OW34995   4.770   9.781   6.285 -0.4160 -0.5053 -0.4374
10318SOL    HW134996   4.687   9.812   6.249 -0.3192 -0.8218 -0.9364
10318SOL    HW234997   4.767   9.806   6.378 -1.2839 -0.9560 -0.3356
10319SOL     OW34998   2.969   8.413   6.422  0.1557  0.5033  0.4708
10319SOL    HW134999   3.042   8.357   6.447  0.6264  1.6076  1.6741
10319SOL    HW235000   2.999   8.459   6.344  0.9253  1.2319  1.1765
10320SOL     OW35001   0.044   8.585   5.798 -0.0100 -0.1520 -0.6072
10320SOL    HW135002   0.112   8.624   5.744  0.6941 -0.0421  0.3435
10320SOL    HW235003   0.070   8.494   5.807  0.7137  0.1671  0.7956
10321SOL     OW35004   5.633   9.986   1.192 -0.5109  0.2858  0.7663
10321SOL    HW135005   5.659   9.928   1.120 -0.2351  0.0908  1.0219
10321SOL    HW235006   5.538   9.996   1.181 -0.4403  0.4229  0.2551
10322SOL     OW35007   0.784   2.381  10.013 -0.1319 -0.5439  0.6553
10322SOL    HW135008   0.724   2.383  10.088 -1.7816  2.9737 -0.5365
10322SOL    HW235009   0.852   2.445  10.035 -0.8591  0.8341 -0.9363
10323SOL     OW35010   7.459   1.326   3.878 -0.1296  0.4053 -0.2692
10323SOL    HW135011   7.363   1.325   3.873 -0.1295 -0.3046 -0.1902
10323SOL    HW235012   7.482   1.241   3.915  0.4994  0.8249  0.3289
10324SOL     OW35013   9.442   4.325   0.514  0.3086 -0.0525 -0.0470
10324SOL    HW135014   9.532   4.333   0.482  0.6665  0.2415  1.0224
10324SOL    HW235015   9.450   4.313   0.608 -0.8113  1.0938  0.2204
10325SOL     OW35016   3.617   6.973  10.116 -0.3286 -0.0658 -0.4314
10325SOL    HW135017   3.697   6.925  10.097  0.7470  0.8646  1.4459
10325SOL    HW235018   3.564   6.913  10.168 -1.7950 -1.3903 -3.2614
10326SOL     OW35019   1.113   5.306   8.864 -0.4421 -1.2728  0.2187
10326SOL    HW135020   1.199   5.264   8.860  0.4893  0.4272  1.3974
10326SOL    HW235021   1.105   5.336   8.955 -1.0664  1.0403 -0.5369
10327SOL     OW35022   5.377   8.091   2.441 -0.1601  0.1470 -0.1074
10327SOL    HW135023   5.451   8.057   2.491  0.2468  0.7586 -0.2803
10327SOL    HW235024   5.323   8.137   2.506 -1.0528 -1.3201  0.2516
10328SOL     OW35025   8.569   2.340   6.987  0.7375 -0.1984  0.3094
10328SOL    HW135026   8.557   2.342   7.082 -0.3557  0.3104  0.1769
10328SOL    HW235027   8.480   2.337   6.951  1.1395 -0.5583 -0.6977
10329SOL     OW35028   1.513   4.903   8.263 -0.3586  0.5244 -0.1831
10329SOL    HW135029   1.507   4.918   8.357 -0.0447 -1.5573  0.2061
10329SOL    HW235030   1.467   4.820   8.249  0.2692  0.4078 -1.7432
10330SOL     OW35031   2.173   1.743   2.707  0.0328 -0.4048 -0.0129
10330SOL    HW135032   2.181   1.659   2.663  0.9675 -0.3136 -0.0420
10330SOL    HW235033   2.080   1.762   2.708 -0.5354 -2.7629  2.4728
10331SOL     OW35034   5.243   1.614   3.573  0.1067  0.2529  0.2263
10331SOL    HW135035   5.230   1.566   3.491  0.1613 -1.8298  1.3956
10331SOL    HW235036   5.335   1.641   3.570 -0.3478  1.8631 -1.1972
10332SOL     OW35037   1.181   0.236   7.468  0.0359  0.8439 -0.0393
10332SOL    HW135038   1.211   0.278   7.549 -1.1362 -0.7569  1.2996
10332SOL    HW235039   1.088   0.217   7.483  0.1890 -1.0050 -1.0423
10333SOL     OW35040  10.121  10.215   9.670  0.0693  0.1750  0.1518
10333SOL    HW135041  10.078  10.164   9.601 -0.0370  1.9196 -1.1235
10333SOL    HW235042  10.048  10.249   9.723  0.1511 -1.2017  1.2368
10334SOL     OW35043   9.763   7.223   1.622  0.3428  0.1484  0.2383
10334SOL    HW135044   9.807   7.197   1.703 -0.3987 -1.2094  0.2302
10334SOL    HW235045   9.785   7.154   1.559  2.0916  1.8926 -1.2042
10335SOL     OW35046   2.148   3.241   2.248  0.2680 -0.1428  0.2162
10335SOL    HW135047   2.130   3.220   2.339 -0.9419  0.4981  0.1395
10335SOL    HW235048   2.242   3.262   2.246  0.3567 -0.4228  1.2536
10336SOL     OW35049   4.603   5.531   3.571 -0.0703  0.0996 -0.2268
10336SOL    HW135050   4.618   5.586   3.494 -0.4161 -0.4031 -0.6566
10336SOL    HW235051   4.514   5.552   3.599  0.9124  2.2133  1.6247
10337SOL     OW35052   7.914   2.667   3.586 -0.0621  0.3057 -0.1436
10337SOL    HW135053   7.992   2.688   3.534 -0.9435  2.5775 -0.6938
10337SOL    HW235054   7.948   2.644   3.672  1.2394  1.1074 -0.4082
10338SOL     OW35055   6.335   3.906   1.085  0.3740  0.0169  0.3929
10338SOL    HW135056   6.402   3.889   1.151  2.6734  0.7964 -1.5939
10338SOL    HW235057   6.315   3.820   1.048  0.4647 -0.1903  0.8168
10339SOL     OW35058   0.074   1.005   0.204  0.6556 -0.3705  0.1895
10339SOL    HW135059   0.166   1.019   0.183 -0.1916  2.5729 -2.2480
10339SOL    HW235060   0.036   0.973   0.122 -0.6230 -0.9349  0.9727
10340SOL     OW35061   8.241   1.064   1.783 -0.0951  0.0920 -0.1270
10340SOL    HW135062   8.306   1.110   1.836 -1.8913  2.0172  0.5617
10340SOL    HW235063   8.281   1.057   1.697  1.5180  0.0189  0.5874
10341SOL     OW35064   5.475   6.291   9.362  0.4600  0.5677  0.5924
10341SOL    HW135065   5.406   6.225   9.356  2.2083 -1.2933  0.2930
10341SOL    HW235066   5.453   6.341   9.441 -0.9209 -0.3039  0.7924
10342SOL     OW35067   1.600   8.316   7.591 -0.0918  0.3541  0.1435
10342SOL    HW135068   1.683   8.362   7.574  0.0823  0.1063  0.3229
10342SOL    HW235069   1.578   8.340   7.681  0.0331  0.0378  0.2601
10343SOL     OW35070   3.197   1.490   3.830  0.4419 -0.4436  0.0453
10343SOL    HW135071   3.269   1.551   3.811 -0.7834  1.4427  1.1798
10343SOL    HW235072   3.198   1.479   3.925 -0.4022 -0.8628  0.0199
10344SOL     OW35073   5.680   7.722  10.041 -0.8023  0.8779  0.7061
10344SOL    HW135074   5.616   7.651  10.046 -0.1362  0.3317  2.0001
10344SOL    HW235075   5.684   7.757  10.130  1.2031  0.4266  0.8271
10345SOL     OW35076   3.474   8.242   6.201 -0.6095  0.3481 -0.1970
10345SOL    HW135077   3.395   8.195   6.228 -1.0908  0.2352 -1.6753
10345SOL    HW235078   3.544   8.204   6.254 -1.4803  0.1752  0.8626
10346SOL     OW35079   7.081   0.990   2.355 -0.4559  0.3296 -0.4627
10346SOL    HW135080   7.097   1.082   2.333  1.7136  0.1927  0.3078
10346SOL    HW235081   7.001   0.991   2.407  1.0558  2.2262  2.0479
10347SOL     OW35082   2.500   7.782   5.529  0.3006 -0.3642 -0.5187
10347SOL    HW135083   2.421   7.812   5.483  0.5717  1.5751  0.1686
10347SOL    HW235084   2.570   7.792   5.465  0.2378 -0.5192 -0.6129
10348SOL     OW35085   7.726   2.332   6.803  0.3956  0.7439  0.8378
10348SOL    HW135086   7.775   2.282   6.869  3.8705  3.2559  0.4713
10348SOL    HW235087   7.694   2.409   6.851 -1.1098  0.3457  0.5080
10349SOL     OW35088   5.811   0.390   0.470 -0.3580 -0.2181  0.2119
10349SOL    HW135089   5.719   0.362   0.468  0.1548 -1.9383 -0.0909
10349SOL    HW235090   5.830   0.417   0.380 -0.6102  0.3501  0.3221
10350SOL     OW35091   7.821   6.736   2.949  0.1450  0.2385  0.1263
10350SOL    HW135092   7.783   6.649   2.955 -1.5009  0.8360 -1.0715
10350SOL    HW235093   7.864   6.750   3.033  1.3307 -2.0974 -0.0215
10351SOL     OW35094   2.577   3.595   0.816 -0.1083  0.2497  0.0866
10351SOL    HW135095   2.555   3.529   0.881  2.2706 -0.4591  0.2740
10351SOL    HW235096   2.604   3.671   0.867  1.6839 -0.2802 -0.0060
10352SOL     OW35097   3.541   5.625   5.235  0.3803  0.3739 -0.1973
10352SOL    HW135098   3.576   5.640   5.322  1.2808 -3.2944  0.2476
10352SOL    HW235099   3.613   5.649   5.176  0.8407  0.1185  0.2540
10353SOL     OW35100   6.936   0.686   5.203 -0.2742 -0.2229 -0.5717
10353SOL    HW135101   6.852   0.645   5.224 -0.4051  0.4857  0.3436
10353SOL    HW235102   6.951   0.662   5.111 -1.0292 -1.1118 -0.4880
10354SOL     OW35103   7.971   8.910   2.724  0.3144 -0.0625 -0.2002
10354SOL    HW135104   7.935   8.835   2.770  0.9295  0.1758  0.7141
10354SOL    HW235105   8.065   8.893   2.720  0.4886  0.7427  0.2074
10355SOL     OW35106   2.909   0.734   7.457 -0.1345 -0.8938  0.1928
10355SOL    HW135107   2.960   0.727   7.538 -0.8870 -1.2214  0.6534
10355SOL    HW235108   2.971   0.713   7.387  1.0986  1.4525  0.4752
10356SOL     OW35109   7.966   6.163   1.368 -1.0889 -0.7784  0.1925
10356SOL    HW135110   7.989   6.089   1.425 -0.1455 -0.8311 -0.2246
10356SOL    HW235111   8.046   6.216   1.365 -0.6866 -1.4337 -2.0570
10357SOL     OW35112   4.213   2.001   0.905 -0.1413  0.0213  0.6190
10357SOL    HW135113   4.292   1.970   0.949 -0.1160 -1.0324 -0.1225
10357SOL    HW235114   4.197   1.936   0.837 -0.8824  0.9400 -0.1164
10358SOL     OW35115   5.449   6.887   1.380 -0.0432 -0.6700  0.2321
10358SOL    HW135116   5.400   6.891   1.298 -1.2742 -0.9724  0.9379
10358SOL    HW235117   5.516   6.820   1.365  0.1501 -0.2793 -0.7286
10359SOL     OW35118   4.868   1.507   9.807 -0.5309  0.2940 -0.1907
10359SOL    HW135119   4.854   1.565   9.732  1.2914 -0.1223 -0.9139
10359SOL    HW235120   4.815   1.430   9.789 -0.7128  0.5266 -0.6535
10360SOL     OW35121   2.227   4.998   6.437  0.4017 -0.2031 -0.5652
10360SOL    HW135122   2.141   4.963   6.462  0.7619  0.2286  1.4003
10360SOL    HW235123   2.209   5.088   6.411  0.3248  0.1116  0.5191
10361SOL     OW35124   9.036   7.303   8.306  0.0765 -0.3043  0.5833
10361SOL    HW135125   9.010   7.213   8.286  1.1633 -0.6332  0.6206
10361SOL    HW235126   9.128   7.296   8.333  0.0014  0.7407  1.1525
10362SOL     OW35127   0.648   4.428   2.016  0.3768  0.2381  0.0465
10362SOL    HW135128   0.578   4.492   2.018 -0.8348 -1.0505  0.4467
10362SOL    HW235129   0.651   4.398   1.925  0.4620  0.3346  0.0167
10363SOL     OW35130   4.003   0.574   4.382 -0.4650 -0.0828  0.2963
10363SOL    HW135131   4.082   0.610   4.342 -0.0405 -2.5238 -1.2491
10363SOL    HW235132   4.027   0.562   4.474 -0.5287  3.0714  0.8151
10364SOL     OW35133   2.564   3.515   6.362  0.5271  0.0559 -0.0135
10364SOL    HW135134   2.629   3.540   6.428  0.6267  0.5825 -0.3064
10364SOL    HW235135   2.518   3.441   6.401  0.0302  0.8813  1.0181
10365SOL     OW35136   0.754   5.523   8.650  0.1329  0.3200  0.3242
10365SOL    HW135137   0.663   5.553   8.647 -0.2796 -0.9644 -1.0470
10365SOL    HW235138   0.791   5.551   8.567  1.2062  1.3662  1.1182
10366SOL     OW35139   7.020   1.631   5.280 -0.6153  0.2812  0.0767
10366SOL    HW135140   7.030   1.726   5.269  1.7754  0.0304 -0.6206
10366SOL    HW235141   7.036   1.616   5.374 -2.0059  0.6244  0.3921
10367SOL     OW35142   4.042   1.645   4.130 -0.6582  0.3498 -0.1099
10367SOL    HW135143   4.096   1.628   4.207 -1.3956 -0.6664  0.2044
10367SOL    HW235144   4.101   1.685   4.067 -0.3711  2.7820  1.5533
10368SOL     OW35145   1.461   0.657   6.449 -0.3699 -0.0696  0.9172
10368SOL    HW135146   1.478   0.564   6.467 -0.0326  0.0243  1.0962
10368SOL    HW235147   1.524   0.704   6.503  1.1783  0.2030 -1.0021
10369SOL     OW35148   8.312   4.508   1.524  0.1622  0.1856  0.3203
10369SOL    HW135149   8.306   4.571   1.453 -0.6757  1.0882  1.1538
10369SOL    HW235150   8.267   4.430   1.491  0.4523  0.3257 -0.4140
10370SOL     OW35151   4.402   7.204   9.532  0.8598  0.5142  0.7247
10370SOL    HW135152   4.422   7.294   9.556 -0.5344  1.4740 -1.3291
10370SOL    HW235153   4.306   7.201   9.527  0.9188 -0.3971 -1.3930
10371SOL     OW35154   3.872   5.410   3.046 -0.2646  0.3540 -0.0348
10371SOL    HW135155   3.920   5.426   3.127  1.6466  0.8688 -1.2017
10371SOL    HW235156   3.887   5.489   2.993 -1.1506 -0.1165 -1.0419
10372SOL     OW35157   4.850   9.849   1.070  0.3630 -0.0334  0.2488
10372SOL    HW135158   4.930   9.811   1.107  0.6852  1.9509  1.7439
10372SOL    HW235159   4.788   9.849   1.143 -0.3539  0.2795 -0.3493
10373SOL     OW35160   7.162   3.507   3.541 -0.0111 -0.5229 -0.2378
10373SOL    HW135161   7.154   3.564   3.618  0.5644 -0.7571  0.0031
10373SOL    HW235162   7.166   3.567   3.467 -1.0494 -0.3098 -0.1326
10374SOL     OW35163   3.187   6.588   6.564  0.0119 -0.2272 -0.0125
10374SOL    HW135164   3.225   6.503   6.541  1.1969  0.5496 -1.0350
10374SOL    HW235165   3.256   6.633   6.612 -0.0385  0.7439 -0.8323
10375SOL     OW35166   5.363   2.883   3.862 -0.1758 -0.5126 -0.2890
10375SOL    HW135167   5.394   2.818   3.925 -0.4233 -0.4170 -0.0651
10375SOL    HW235168   5.381   2.844   3.776  0.5254 -0.4728 -0.1636
10376SOL     OW35169   8.251   3.364   7.790  0.0976  0.3840 -0.6634
10376SOL    HW135170   8.335   3.408   7.777  0.5519 -0.4993 -0.8602
10376SOL    HW235171   8.260   3.281   7.742 -0.4769 -0.2110  0.2154
10377SOL     OW35172   8.371   2.041   1.861 -0.1896 -0.5280  0.1205
10377SOL    HW135173   8.385   2.056   1.955  1.9823 -0.3863 -0.1741
10377SOL    HW235174   8.276   2.033   1.852 -0.5267  0.5099  2.1701
10378SOL     OW35175   9.652   8.543   6.059  0.2000 -0.0444 -0.1270
10378SOL    HW135176   9.620   8.633   6.056  0.7372  0.2219  1.3901
10378SOL    HW235177   9.660   8.517   5.967 -2.1640  0.6415 -0.5931
10379SOL     OW35178   9.569   5.575   0.263 -0.1611  0.4923 -0.0718
10379SOL    HW135179   9.581   5.652   0.318  1.2234  0.2606 -0.0021
10379SOL    HW235180   9.492   5.531   0.299 -0.9703  1.8059 -0.0981
10380SOL     OW35181  10.118   9.098   9.777  0.1193 -0.3347 -0.8307
10380SOL    HW135182  10.025   9.087   9.759  0.0172 -1.0747  0.0372
10380SOL    HW235183  10.160   9.095   9.692 -0.8224  2.2409 -1.4768
10381SOL     OW35184   3.851  10.001   1.799 -0.3424 -0.2279 -0.4263
10381SOL    HW135185   3.783  10.068   1.808  0.7850  1.0450 -1.0073
10381SOL    HW235186   3.853   9.981   1.706 -0.1077 -0.4385 -0.3775
10382SOL     OW35187   4.075   0.997   1.040  0.5912 -0.0959  0.1655
10382SOL    HW135188   4.080   1.091   1.058  1.0735  0.0906 -0.8878
10382SOL    HW235189   3.991   0.986   0.996  0.4018 -0.2163  0.5474
10383SOL     OW35190   7.519   1.628   3.144  0.0582 -0.5291  0.1358
10383SOL    HW135191   7.450   1.694   3.150  0.5199 -0.1070  0.9997
10383SOL    HW235192   7.484   1.562   3.084 -0.3829  0.5352 -0.8224
10384SOL     OW35193   1.147   8.830   9.151 -0.4698  0.1460 -0.4463
10384SOL    HW135194   1.146   8.926   9.155  4.9997  0.5145 -0.0827
10384SOL    HW235195   1.139   8.802   9.242  1.6059  0.6223 -0.0662
10385SOL     OW35196   7.107   9.734   3.813  0.0957  0.2255  0.5168
10385SOL    HW135197   7.180   9.795   3.823 -1.0963  1.6393  1.0584
10385SOL    HW235198   7.081   9.743   3.721  0.4118 -0.0666  0.3961
10386SOL     OW35199   6.318   8.024   5.615 -0.3060  0.7194 -0.1096
10386SOL    HW135200   6.410   8.019   5.641  0.5976  1.6756 -2.8223
10386SOL    HW235201   6.301   8.117   5.603 -1.2341  0.4717 -0.9123
10387SOL     OW35202   6.767  10.281   2.564 -0.7824 -0.2388 -0.1008
10387SOL    HW135203   6.726  10.200   2.535 -0.6297  0.1095 -1.3566
10387SOL    HW235204   6.821  10.255   2.639 -0.1535 -1.4526 -0.9335
10388SOL     OW35205   8.138   7.482   3.229 -0.2346 -0.0518  0.0579
10388SOL    HW135206   8.127   7.406   3.173  1.4342 -0.5635  0.3643
10388SOL    HW235207   8.080   7.548   3.191 -0.1396 -0.8003 -1.4728
10389SOL     OW35208   3.654   9.932  10.232 -0.1957 -0.2012 -0.5830
10389SOL    HW135209   3.678   9.878  10.156 -2.6041 -1.0700 -0.8106
10389SOL    HW235210   3.675   9.877  10.307 -0.0342 -0.3193 -0.7132
10390SOL     OW35211   8.427   3.783   8.686 -0.3128  0.6876  0.3531
10390SOL    HW135212   8.459   3.871   8.668  0.4190  0.3221 -0.2163
10390SOL    HW235213   8.468   3.758   8.769  1.0194  0.1893 -0.4136
10391SOL     OW35214   9.970   4.139   1.020  0.3650 -0.0268  0.5910
10391SOL    HW135215   9.980   4.217   1.076  1.0845  0.6290 -0.4211
10391SOL    HW235216   9.931   4.074   1.078 -0.5977  1.1912  1.3831
10392SOL     OW35217   3.823   6.591   9.596 -0.2374  0.2534  0.6270
10392SOL    HW135218   3.850   6.500   9.590 -2.3155 -0.3660 -0.1738
10392SOL    HW235219   3.772   6.606   9.517 -1.1971  1.6491  1.4597
10393SOL     OW35220   3.786   8.229   1.833  0.3841 -0.0213 -0.6145
10393SOL    HW135221   3.873   8.192   1.817 -0.1518 -1.8233  0.4427
10393SOL    HW235222   3.795   8.272   1.919 -0.5657 -3.2071  1.2510
10394SOL     OW35223   1.791   2.118   1.254  0.4181 -0.3522  0.2316
10394SOL    HW135224   1.837   2.134   1.336  1.6268  0.1878 -0.5343
10394SOL    HW235225   1.817   2.190   1.197 -0.7993 -0.4391 -0.4757
10395SOL     OW35226   0.049   6.825   0.241 -0.1165  0.3039 -0.1876
10395SOL    HW135227   0.001   6.906   0.253 -2.1382 -1.0539  1.5679
10395SOL    HW235228  -0.012   6.768   0.194  1.4407 -0.1044 -1.8390
10396SOL     OW35229   3.106   6.006   8.402 -0.0369 -0.5962  0.2277
10396SOL    HW135230   3.110   6.099   8.423 -0.7350 -0.7519  1.1052
10396SOL    HW235231   3.169   5.995   8.331 -0.5435  0.6876 -0.4513
10397SOL     OW35232   7.077   8.971   7.015  0.3433  0.2898  0.2675
10397SOL    HW135233   7.075   8.883   7.055 -1.0952  0.3545  0.3942
10397SOL    HW235234   7.004   9.017   7.057  1.4139  1.7350  0.5860
10398SOL     OW35235   3.588   8.645   7.461 -0.3636 -0.4318  0.0330
10398SOL    HW135236   3.582   8.707   7.388 -1.3677  0.5763  0.9343
10398SOL    HW235237   3.636   8.692   7.529  0.4231 -1.3063  0.1143
10399SOL     OW35238   1.317   5.517   3.355  0.1254  0.8017 -0.1878
10399SOL    HW135239   1.239   5.521   3.411 -0.2013 -0.9822 -0.4655
10399SOL    HW235240   1.389   5.501   3.415 -0.1901 -0.8361 -0.1960
10400SOL     OW35241   3.791   9.924   0.977 -0.0318 -0.0286  0.1970
10400SOL    HW135242   3.705   9.965   0.985 -0.1130 -0.5361  4.0106
10400SOL    HW235243   3.772   9.834   0.949 -0.9126 -0.4107  1.8877
10401SOL     OW35244   6.983   2.544   5.517  0.0268  0.0706 -0.0388
10401SOL    HW135245   6.990   2.448   5.523 -1.3003  0.0376  1.6894
10401SOL    HW235246   7.069   2.576   5.543 -0.1099 -0.6389  1.4029
10402SOL     OW35247   0.726   1.824   1.811  0.0256  0.1488 -0.5585
10402SOL    HW135248   0.636   1.823   1.842  0.8424  0.7389  2.1087
10402SOL    HW235249   0.765   1.902   1.851  2.4610 -1.6351  0.8322
10403SOL     OW35250   7.829   4.603   4.354  0.5824 -0.0853  0.7214
10403SOL    HW135251   7.854   4.694   4.374 -0.5845  0.2579  0.6887
10403SOL    HW235252   7.755   4.611   4.294 -1.0845 -1.0005  2.5459
10404SOL     OW35253   3.680  10.208   7.625 -0.3565  0.2470  0.8327
10404SOL    HW135254   3.711  10.120   7.647 -0.9405 -0.3870 -0.7675
10404SOL    HW235255   3.586  10.198   7.608  0.0697  0.5425 -2.2689
10405SOL     OW35256   0.132   6.202   4.359 -0.4360  0.3654 -0.4229
10405SOL    HW135257   0.205   6.211   4.299 -0.7308  3.0634 -0.4925
10405SOL    HW235258   0.069   6.268   4.330 -1.6254  0.0938  1.3975
10406SOL     OW35259   4.552   9.912   3.844  0.3820 -0.4196 -0.0985
10406SOL    HW135260   4.511   9.985   3.891  0.3745 -0.3316 -0.2427
10406SOL    HW235261   4.645   9.920   3.862  0.2360 -1.3962  1.3501
10407SOL     OW35262   3.213   2.502   7.887 -0.2461  0.4823 -0.4580
10407SOL    HW135263   3.122   2.485   7.912 -0.0388  0.5378  0.3367
10407SOL    HW235264   3.226   2.448   7.808 -1.2440  1.1932 -1.1288
10408SOL     OW35265   3.724  10.094   6.940  0.0359 -0.0928  0.1782
10408SOL    HW135266   3.808  10.054   6.918  0.8407  1.6258 -0.0223
10408SOL    HW235267   3.668  10.074   6.865  1.0424  0.8595 -0.8678
10409SOL     OW35268   4.442  10.192   3.269  0.4605  0.3398  0.0571
10409SOL    HW135269   4.470  10.283   3.280 -0.1488  0.4743  0.5481
10409SOL    HW235270   4.505  10.155   3.208  0.5884  1.1524 -0.3173
10410SOL     OW35271   0.187   2.300   6.576  0.1570 -0.4298 -0.0213
10410SOL    HW135272   0.226   2.382   6.605  0.4901 -1.0331  1.3079
10410SOL    HW235273   0.156   2.259   6.656 -1.2152 -1.0010 -0.8072
10411SOL     OW35274   7.563   8.558  10.090  0.2157  0.2591 -0.2567
10411SOL    HW135275   7.474   8.573  10.058 -1.1830 -1.7074  2.3855
10411SOL    HW235276   7.571   8.615  10.167  0.9297 -0.2257  0.0392
10412SOL     OW35277   5.390   5.436   9.911 -0.9572  0.3210  0.6382
10412SOL    HW135278   5.315   5.420   9.968 -0.8036  0.9371  1.0223
10412SOL    HW235279   5.379   5.526   9.882 -0.2532  0.4904  0.8728
10413SOL     OW35280   8.813   2.229   9.574  0.0713  0.1272 -0.3561
10413SOL    HW135281   8.790   2.154   9.629  1.7165 -0.2775 -0.1709
10413SOL    HW235282   8.770   2.212   9.491  1.8117 -1.9668 -0.9162
10414SOL     OW35283   7.612   5.147   0.956 -0.7348  0.1733 -0.4935
10414SOL    HW135284   7.701   5.114   0.967 -0.8872 -0.2823 -0.6433
10414SOL    HW235285   7.601   5.210   1.028 -0.9799 -1.1998  0.7272
10415SOL     OW35286   7.940   3.948   5.581 -0.1163  0.0707 -0.0823
10415SOL    HW135287   7.920   3.932   5.489  1.6456 -1.4379 -0.2662
10415SOL    HW235288   7.887   3.884   5.629  0.2052 -0.2511 -0.1602
10416SOL     OW35289   6.206   9.567   6.022  0.0234  0.4526 -0.1589
10416SOL    HW135290   6.142   9.497   6.037  0.8014 -0.2664 -0.1269
10416SOL    HW235291   6.257   9.571   6.103  0.7085  0.2937 -0.5772
10417SOL     OW35292   4.329   1.247   7.738  0.2752  0.2131 -0.2350
10417SOL    HW135293   4.301   1.309   7.671  0.1115 -1.0228 -1.3556
10417SOL    HW235294   4.265   1.257   7.809 -1.7215 -0.9119 -1.7632
10418SOL     OW35295   3.427   5.919   8.494 -0.0772  0.0739 -0.1289
10418SOL    HW135296   3.513   5.935   8.455  0.2264  1.1198  0.9104
10418SOL    HW235297   3.366   5.924   8.420  0.6454  0.4214 -0.7139
10419SOL     OW35298   2.755   5.301   7.662  0.2313  0.1228  0.1244
10419SOL    HW135299   2.782   5.392   7.652  1.2115 -0.0085  1.3786
10419SOL    HW235300   2.785   5.259   7.581 -0.6815  0.9822 -0.6984
10420SOL     OW35301   8.204   9.104   1.396  0.3024  0.3856  0.2187
10420SOL    HW135302   8.196   9.081   1.489  1.2157 -1.9367 -0.2140
10420SOL    HW235303   8.114   9.109   1.365 -0.0827  2.7674  1.5294
10421SOL     OW35304   8.583   4.945   6.214 -0.0676 -0.3128  0.3920
10421SOL    HW135305   8.527   4.898   6.153 -1.1247  0.8108  0.4506
10421SOL    HW235306   8.655   4.885   6.232 -0.2263 -1.0283 -1.2173
10422SOL     OW35307  10.269   9.910   7.089 -0.0410  0.5860  1.2657
10422SOL    HW135308  10.183   9.953   7.081  0.7224  1.8160 -1.3796
10422SOL    HW235309  10.299   9.933   7.177 -2.2033  0.4958  2.0863
10423SOL     OW35310   4.867   1.611   3.932 -0.2674 -0.4029 -0.3308
10423SOL    HW135311   4.921   1.688   3.913 -2.2578  1.8145  2.2312
10423SOL    HW235312   4.911   1.569   4.005 -0.9185  0.3177  0.5033
10424SOL     OW35313   3.813   6.284   7.525 -0.3195 -0.4776  0.2856
10424SOL    HW135314   3.809   6.209   7.466 -0.2219  0.8575 -1.4837
10424SOL    HW235315   3.807   6.360   7.468 -0.0155  0.8861  1.9918
10425SOL     OW35316   2.651   5.838   9.300 -0.0209  0.0882  0.3071
10425SOL    HW135317   2.669   5.878   9.215  0.9009  1.3321  1.0282
10425SOL    HW235318   2.605   5.757   9.281 -0.9098  0.9410 -1.3065
10426SOL     OW35319   5.976   4.079  10.153 -0.5019 -0.1555  0.1486
10426SOL    HW135320   5.884   4.103  10.159 -1.0483 -2.3446  1.4199
10426SOL    HW235321   5.986   4.041  10.065 -0.3284  1.6721 -0.6812
10427SOL     OW35322   0.025   7.648   1.762  0.4400 -0.0501 -0.2255
10427SOL    HW135323   0.055   7.643   1.672 -2.3226 -2.8242 -1.2039
10427SOL    HW235324   0.087   7.593   1.811  2.0285  1.5794 -0.3344
10428SOL     OW35325   1.469   2.385  10.163  0.4523 -0.0133  0.6160
10428SOL    HW135326   1.534   2.413  10.098 -0.0371  0.0827  0.1596
10428SOL    HW235327   1.392   2.363  10.111 -0.0331  0.3092  1.1888
10429SOL     OW35328   9.906   4.936   2.609  0.1434 -0.1511  0.2737
10429SOL    HW135329   9.919   4.861   2.550  0.7516 -0.9320  1.3655
10429SOL    HW235330   9.970   5.001   2.580 -0.7016  0.1591 -0.9802
10430SOL     OW35331  10.080   6.426   8.123  0.4596 -0.2347 -0.2668
10430SOL    HW135332  10.061   6.358   8.059 -0.1566 -0.6582  0.3482
10430SOL    HW235333  10.090   6.506   8.071 -0.5673 -0.4682 -0.8574
10431SOL     OW35334   6.983   9.774   9.750  0.0544 -0.5667 -0.1316
10431SOL    HW135335   6.978   9.809   9.839 -1.0140  1.9421 -1.1021
10431SOL    HW235336   6.891   9.768   9.722  0.4249  0.1746 -1.5878
10432SOL     OW35337   3.823   1.546   3.110  0.0276 -0.4697  0.3340
10432SOL    HW135338   3.743   1.554   3.163 -1.3779  0.3658 -1.7526
10432SOL    HW235339   3.851   1.456   3.121 -0.4746 -0.4430  2.0920
10433SOL     OW35340   2.295   7.972   3.430 -0.3142 -0.3621 -0.1626
10433SOL    HW135341   2.339   7.990   3.347  0.5760  1.2285  0.6019
10433SOL    HW235342   2.268   8.059   3.461 -0.0531 -0.8602  1.5199
10434SOL     OW35343  10.200   2.908   9.021  0.2660 -0.0087  0.4360
10434SOL    HW135344  10.233   2.833   9.070  1.2002  0.9603  1.3560
10434SOL    HW235345  10.256   2.980   9.048 -0.6816  1.0533 -0.3387
10435SOL     OW35346   1.730   9.044   6.481 -0.4660  0.0918  0.0332
10435SOL    HW135347   1.642   9.008   6.479 -0.0975 -0.8851  0.6473
10435SOL    HW235348   1.787   8.967   6.479  0.4270  0.7499 -2.2610
10436SOL     OW35349   8.409   2.303   1.797 -0.0039  0.3227 -0.0423
10436SOL    HW135350   8.425   2.338   1.885 -3.1550  0.4136  0.6267
10436SOL    HW235351   8.401   2.209   1.810  1.0437  0.1610 -0.5225
10437SOL     OW35352   3.049   9.766   3.604 -0.2099 -0.0423 -0.7212
10437SOL    HW135353   3.010   9.680   3.590  0.5281 -0.5371  0.1691
10437SOL    HW235354   3.130   9.765   3.553  1.6523 -1.2537  1.9998
10438SOL     OW35355   1.738   0.313   3.204 -0.0054 -0.3039 -0.3141
10438SOL    HW135356   1.712   0.221   3.202  1.1320 -0.6535  0.2248
10438SOL    HW235357   1.659   0.360   3.232 -0.3334 -1.2167  0.3431
10439SOL     OW35358   1.618   4.613   3.069  0.1118 -0.5021  0.3132
10439SOL    HW135359   1.584   4.637   3.155 -0.5226 -1.3731  0.3143
10439SOL    HW235360   1.624   4.518   3.070 -0.0107 -0.5348 -0.6440
10440SOL     OW35361   2.209   7.888   0.584 -0.2397  0.1539 -0.1496
10440SOL    HW135362   2.269   7.818   0.558 -1.1522 -1.7001  2.3172
10440SOL    HW235363   2.262   7.945   0.641 -0.2764 -0.2867  0.3276
10441SOL     OW35364   0.124   5.363   6.381 -0.0318 -0.3339 -0.2109
10441SOL    HW135365   0.058   5.307   6.421 -1.3109 -0.5024 -2.4065
10441SOL    HW235366   0.077   5.442   6.354  1.2146  0.6867  0.4563
10442SOL     OW35367   3.854   8.239   6.623  0.1345  0.0616  0.3144
10442SOL    HW135368   3.812   8.199   6.699 -0.4273  0.3843  0.1873
10442SOL    HW235369   3.845   8.175   6.553 -1.0916  0.5211  0.0117
10443SOL     OW35370   1.494   2.078   2.579  0.2120  0.4858  0.1803
10443SOL    HW135371   1.517   2.009   2.642  3.2613  1.1614 -0.0535
10443SOL    HW235372   1.477   2.031   2.497  1.1070 -0.0927  0.3150
10444SOL     OW35373   2.076   9.728   7.619  1.0869 -0.3572 -0.3562
10444SOL    HW135374   2.009   9.769   7.563  0.2364 -2.7872 -1.2410
10444SOL    HW235375   2.159   9.756   7.581  0.5438  0.2962 -1.0986
10445SOL     OW35376   7.285   1.034   1.604 -0.5805  0.4739 -0.2651
10445SOL    HW135377   7.334   1.068   1.529  1.1318  2.9729  1.7937
10445SOL    HW235378   7.330   0.952   1.626 -1.8083 -0.8997 -2.5121
10446SOL     OW35379   2.608   0.389   1.646  0.2192  0.2702  0.0146
10446SOL    HW135380   2.586   0.478   1.674 -2.1607 -0.8330  1.9471
10446SOL    HW235381   2.585   0.387   1.553 -3.4563  0.6985  0.7645
10447SOL     OW35382   2.280   8.773   9.932 -0.0134  0.1644 -0.8986
10447SOL    HW135383   2.193   8.778   9.971 -0.3743 -1.8895 -1.2926
10447SOL    HW235384   2.282   8.686   9.890  1.8743  0.5610 -1.7385
10448SOL     OW35385   9.930   2.800   8.675 -0.2273 -0.4675 -0.0562
10448SOL    HW135386   9.893   2.731   8.729  0.2431 -0.4534  0.2884
10448SOL    HW235387   9.855   2.854   8.650 -0.3485 -0.0014  1.2626
10449SOL     OW35388   9.644   3.212   4.355  0.3696 -0.6040  0.2723
10449SOL    HW135389   9.702   3.287   4.343  2.5379 -1.6828  2.9302
10449SOL    HW235390   9.561   3.249   4.383  1.0439  0.8575  0.4079
10450SOL     OW35391   3.186   1.287   5.954  0.4400 -0.2370  0.6758
10450SOL    HW135392   3.175   1.213   5.895 -0.3441 -0.4404  1.0718
10450SOL    HW235393   3.281   1.292   5.969  0.4842 -1.2470  0.7629
10451SOL     OW35394  10.015   1.498   0.178  0.0772 -0.0629 -0.0991
10451SOL    HW135395   9.926   1.531   0.190 -0.6547 -2.5835  2.7413
10451SOL    HW235396  10.066   1.539   0.249  0.6244 -0.3723 -0.3033
10452SOL     OW35397   4.707   4.737   0.176  0.5639 -0.6670 -0.6140
10452SOL    HW135398   4.612   4.748   0.182  0.6979 -0.0012  0.5408
10452SOL    HW235399   4.731   4.784   0.096  0.1920  1.2344  0.3403
10453SOL     OW35400   7.171   8.694   7.623 -0.1029 -0.1567  0.2482
10453SOL    HW135401   7.145   8.722   7.535  0.6202  1.8995  0.6285
10453SOL    HW235402   7.088   8.686   7.671 -0.5157 -1.4638 -0.6185
10454SOL     OW35403   8.011   5.071   1.878 -0.2847  0.2207 -0.4649
10454SOL    HW135404   7.995   4.981   1.907 -0.4290  0.5712  0.5963
10454SOL    HW235405   8.106   5.075   1.867 -0.1996  0.1203  0.1686
10455SOL     OW35406   3.174   7.498   9.323  0.2141  0.1877 -0.4184
10455SOL    HW135407   3.252   7.471   9.276 -0.1440  1.7069 -2.0071
10455SOL    HW235408   3.196   7.489   9.416  1.7178 -0.8212 -0.8510
10456SOL     OW35409   4.684   0.327   5.819 -0.3903 -0.0636  0.1052
10456SOL    HW135410   4.622   0.388   5.860  0.7560  1.6576 -0.5835
10456SOL    HW235411   4.654   0.319   5.729 -0.6628 -0.7230  0.2488
10457SOL     OW35412   0.671   5.884   3.567  0.1328 -0.4032 -0.0673
10457SOL    HW135413   0.633   5.797   3.563 -0.3029 -0.1810 -3.3433
10457SOL    HW235414   0.754   5.871   3.613  0.0392 -2.5240 -0.3799
10458SOL     OW35415   5.517   1.145   2.971 -0.1342  0.5643 -0.2841
10458SOL    HW135416   5.593   1.130   2.915 -0.1428  1.2687 -0.4983
10458SOL    HW235417   5.552   1.192   3.047 -0.2208  0.1575  0.0082
10459SOL     OW35418   7.703   2.588  10.083  0.4768 -0.4003 -0.3111
10459SOL    HW135419   7.617   2.548  10.072 -0.0987  0.8043 -0.3418
10459SOL    HW235420   7.763   2.530  10.035 -0.3438 -1.1328 -0.4725
10460SOL     OW35421   2.388   7.964   7.831  0.2306  0.2734 -0.1918
10460SOL    HW135422   2.327   8.031   7.799  1.2561  1.5413  0.4050
10460SOL    HW235423   2.465   7.974   7.775  0.5207 -0.1979  0.1227
10461SOL     OW35424   3.537  10.095   0.283 -0.6846 -0.1644 -0.5485
10461SOL    HW135425   3.499  10.013   0.253 -0.7418 -0.4169  0.2051
10461SOL    HW235426   3.632  10.080   0.280 -0.6875 -0.1532 -0.6970
10462SOL     OW35427   3.087   9.817   6.843 -0.0930  0.7648  0.1463
10462SOL    HW135428   3.152   9.870   6.890  1.4981 -2.0425  1.3188
10462SOL    HW235429   3.009   9.822   6.897  0.6521  0.3600  1.2883
10463SOL     OW35430   5.045   6.310   9.559  0.2833  0.0962  0.5805
10463SOL    HW135431   5.030   6.384   9.617 -1.0104  0.0893  0.2786
10463SOL    HW235432   4.979   6.320   9.490  0.1626 -1.2741  0.4753
10464SOL     OW35433   5.468   6.642   8.763  0.3968  0.3549 -0.4939
10464SOL    HW135434   5.487   6.736   8.767  1.0466  0.2100 -0.2343
10464SOL    HW235435   5.448   6.617   8.853  2.4912 -0.2285 -0.1509
10465SOL     OW35436   9.273   3.283   8.946  0.1812  0.5166 -0.3395
10465SOL    HW135437   9.338   3.282   8.876  0.0139  0.1430 -0.4900
10465SOL    HW235438   9.298   3.209   9.002  0.5838  1.0775  0.2455
10466SOL     OW35439   1.370   3.710   7.486 -0.3205  0.2618 -0.5538
10466SOL    HW135440   1.341   3.799   7.505  1.0797  0.3343  1.5245
10466SOL    HW235441   1.451   3.721   7.435 -0.0109  0.2038 -0.0832
10467SOL     OW35442   1.671   0.414   3.577  0.2748  0.0085  0.2698
10467SOL    HW135443   1.657   0.497   3.530  0.0407  0.6946  1.5012
10467SOL    HW235444   1.707   0.441   3.662 -0.3010 -1.1208  0.8918
10468SOL     OW35445   2.235   0.892   4.016  0.1096  0.0733 -0.1620
10468SOL    HW135446   2.227   0.826   4.085 -2.2879  2.0991  1.6512
10468SOL    HW235447   2.311   0.944   4.042 -0.7853  0.8344  1.0470
10469SOL     OW35448   4.896   5.536   4.086  0.6051  0.2751 -0.4414
10469SOL    HW135449   4.968   5.473   4.092  0.1614 -0.1040  1.6972
10469SOL    HW235450   4.939   5.622   4.088  1.1259  0.0673 -1.8932
10470SOL     OW35451   3.337   8.560   0.153 -0.5723 -0.5141  0.0969
10470SOL    HW135452   3.419   8.600   0.180 -2.3179  2.4933  1.4812
10470SOL    HW235453   3.311   8.506   0.227 -0.2096 -0.9071 -0.0567
10471SOL     OW35454   5.972   0.938   1.526 -0.0114  0.3906  0.0482
10471SOL    HW135455   5.886   0.896   1.521 -0.6242  1.7013 -1.2924
10471SOL    HW235456   5.994   0.959   1.435  1.3254  0.8699  0.4548
10472SOL     OW35457   5.266   6.669   6.509  0.5014  0.5126 -0.2802
10472SOL    HW135458   5.237   6.726   6.437 -0.0985  0.2662 -0.2379
10472SOL    HW235459   5.270   6.582   6.470 -2.4322 -0.1149  0.6102
10473SOL     OW35460   9.366   8.397   4.089  0.0238  0.3558  0.6669
10473SOL    HW135461   9.321   8.329   4.039  0.9953  1.0888 -1.3318
10473SOL    HW235462   9.311   8.474   4.081 -1.2857 -0.2145  3.2815
10474SOL     OW35463   4.077   9.177   7.448 -0.1207 -0.2017  0.2801
10474SOL    HW135464   4.111   9.090   7.468  2.0710  0.5799  0.2474
10474SOL    HW235465   4.151   9.236   7.464 -1.0109  1.4791 -1.3672
10475SOL     OW35466   0.302   1.834   5.745 -0.0343 -0.8746  0.0523
10475SOL    HW135467   0.210   1.840   5.719  0.3698 -0.3872 -1.3525
10475SOL    HW235468   0.302   1.775   5.821 -1.4784 -0.9857 -0.0123
10476SOL     OW35469   1.260   2.129   0.913  0.0165  0.0127  0.9139
10476SOL    HW135470   1.303   2.141   0.828 -3.0565 -0.3691 -0.8089
10476SOL    HW235471   1.332   2.107   0.973  2.0514 -2.2912 -2.0821
10477SOL     OW35472   9.632   8.201   9.441  0.5491 -0.3865 -0.6248
10477SOL    HW135473   9.605   8.217   9.351 -0.9580  1.7012  0.1115
10477SOL    HW235474   9.698   8.268   9.459 -0.2025  0.1482  0.2255
10478SOL     OW35475   3.536   0.756   2.252 -0.5354  0.0121  0.3311
10478SOL    HW135476   3.564   0.742   2.162 -1.5648  0.6673 -0.1029
10478SOL    HW235477   3.537   0.669   2.291  2.2057 -0.0042  0.4071
10479SOL     OW35478   8.935   6.762   4.285  0.7171  0.6076  0.3542
10479SOL    HW135479   8.944   6.837   4.227  0.6375  1.4689  1.4316
10479SOL    HW235480   8.955   6.686   4.229  1.9145  1.4998 -0.4781
10480SOL     OW35481   5.759   9.573   2.227 -0.3112  0.1678 -0.3772
10480SOL    HW135482   5.692   9.637   2.204 -0.7263  0.1937  0.8527
10480SOL    HW235483   5.719   9.520   2.296 -0.3618 -2.0786 -2.0109
10481SOL     OW35484   3.238   9.526   4.747  0.3835  0.1252 -0.4883
10481SOL    HW135485   3.165   9.490   4.798 -0.7476 -1.0300 -2.7676
10481SOL    HW235486   3.231   9.620   4.759  0.6170 -0.0857  1.9781
10482SOL     OW35487   9.210   7.479   9.088 -0.1046 -0.0366  0.3640
10482SOL    HW135488   9.293   7.496   9.133  0.8871  0.4515 -1.5341
10482SOL    HW235489   9.190   7.388   9.108  0.5698  0.0078  1.3149
10483SOL     OW35490   3.726   7.995   8.596 -0.1526 -0.1165 -0.6286
10483SOL    HW135491   3.661   7.942   8.550 -0.0113  0.2479 -1.2579
10483SOL    HW235492   3.679   8.029   8.672 -0.8983  0.6826 -1.4312
10484SOL     OW35493   3.576  10.263   8.851 -0.7593 -0.1267  0.3630
10484SOL    HW135494   3.668  10.261   8.824 -0.2371 -2.0184  2.0557
10484SOL    HW235495   3.575  10.220   8.936 -3.2568 -0.3540  0.2851
10485SOL     OW35496   7.651   2.023   4.000 -0.1689 -0.6800 -0.0243
10485SOL    HW135497   7.595   1.991   3.929 -0.8363 -0.6266  0.4639
10485SOL    HW235498   7.731   1.971   3.992 -0.4593 -1.0769 -0.4608
10486SOL     OW35499   3.301   4.283   8.933  0.2905 -0.3841 -0.1870
10486SOL    HW135500   3.225   4.322   8.891  0.5472  0.7425  0.3474
10486SOL    HW235501   3.266   4.215   8.990 -0.2668 -0.2055 -0.3181
10487SOL     OW35502   8.629   5.350   3.497  0.0994 -0.0727 -0.0975
10487SOL    HW135503   8.608   5.257   3.490 -2.0670  0.3262  0.4333
10487SOL    HW235504   8.716   5.352   3.538 -0.2460 -1.8617  0.8011
10488SOL     OW35505   5.314   2.530   3.945 -0.2347  0.3412 -0.3300
10488SOL    HW135506   5.289   2.473   3.872 -0.9843 -0.5135  0.5667
10488SOL    HW235507   5.231   2.560   3.981  0.0860 -0.2544  0.9452
10489SOL     OW35508   9.169   4.946   3.819  0.1878  0.1571  0.1823
10489SOL    HW135509   9.261   4.919   3.815 -0.4891 -2.2549 -1.9450
10489SOL    HW235510   9.127   4.880   3.874 -0.6519 -0.2879 -0.9354
10490SOL     OW35511   9.321   7.635   9.732  0.2809 -1.0250  0.3608
10490SOL    HW135512   9.257   7.625   9.803  1.0012 -1.1305  1.0042
10490SOL    HW235513   9.351   7.725   9.739 -0.9388 -0.4744 -0.9406
10491SOL     OW35514   3.292   1.517   0.269 -0.0824 -0.5441 -0.1751
10491SOL    HW135515   3.241   1.597   0.264 -1.3387 -1.3454 -0.7921
10491SOL    HW235516   3.355   1.524   0.196  0.5071  0.3052  0.3961
10492SOL     OW35517   0.903   9.461   2.778  0.1548  0.2136  0.1810
10492SOL    HW135518   0.905   9.380   2.828 -0.0621  1.1457  1.7580
10492SOL    HW235519   0.988   9.503   2.797  0.4707  0.1427 -1.0109
10493SOL     OW35520   8.763   4.486   2.346 -0.1234 -0.0789  0.3043
10493SOL    HW135521   8.800   4.570   2.374 -0.9767 -0.1950  1.8299
10493SOL    HW235522   8.681   4.478   2.394 -1.5797 -0.4064 -2.0718
10494SOL     OW35523   3.559   8.969   9.468 -0.3982 -0.4340 -0.0910
10494SOL    HW135524   3.598   8.881   9.469 -1.2197 -0.8024 -0.0509
10494SOL    HW235525   3.627   9.024   9.428  1.7043 -0.3068  3.2756
10495SOL     OW35526   2.246   8.418   8.867 -0.4196 -0.3816 -0.3213
10495SOL    HW135527   2.165   8.434   8.820  0.8875  1.6725 -2.1062
10495SOL    HW235528   2.289   8.348   8.818  0.0045  0.3191 -0.9755
10496SOL     OW35529   8.350   4.708   1.799  0.5138  0.0335 -0.1661
10496SOL    HW135530   8.398   4.783   1.763  0.0709 -0.0876 -1.0502
10496SOL    HW235531   8.418   4.650   1.833  0.9867  0.0168 -1.1062
10497SOL     OW35532   5.269   0.881   1.376  0.0415  0.5955 -0.1167
10497SOL    HW135533   5.362   0.867   1.359 -0.4999 -0.7316 -2.4915
10497SOL    HW235534   5.229   0.795   1.361 -1.6844  1.3702 -0.1977
10498SOL     OW35535   3.592   7.600   8.680  0.3484 -0.0365  0.6358
10498SOL    HW135536   3.680   7.598   8.716  0.2593  1.5952  1.0271
10498SOL    HW235537   3.604   7.627   8.589  0.2313  0.5904  0.8037
10499SOL     OW35538   2.805   0.048   8.510  0.2870  0.2233  0.3246
10499SOL    HW135539   2.727  -0.007   8.508  1.1569 -1.0603 -0.3172
10499SOL    HW235540   2.818   0.075   8.419  1.7728 -1.4169 -0.0219
10500SOL     OW35541   4.122   6.221   8.798 -0.2406 -0.7009  0.1609
10500SOL    HW135542   4.188   6.269   8.749 -0.6478  1.9465  1.9788
10500SOL    HW235543   4.170   6.148   8.837  0.7807 -0.9284 -1.4528
10501SOL     OW35544   5.240   0.525   5.764  0.4532  0.5311 -0.0899
10501SOL    HW135545   5.144   0.525   5.761  0.4739  0.4256 -1.0171
10501SOL    HW235546   5.261   0.514   5.857 -0.4332  0.4483  0.1097
10502SOL     OW35547   2.561   9.461   5.389 -0.5524  0.1069  0.4403
10502SOL    HW135548   2.586   9.546   5.353  2.7641 -1.5084 -1.4560
10502SOL    HW235549   2.480   9.439   5.343 -1.1900  1.9707  0.5833
10503SOL     OW35550   4.193   2.953   3.319  0.1088  0.5386 -0.0431
10503SOL    HW135551   4.152   2.874   3.356  2.5867  0.7263  3.5501
10503SOL    HW235552   4.287   2.937   3.327  0.6962  3.5315  0.0339
10504SOL     OW35553   6.126   8.232   6.739 -0.0442 -0.1682  0.8523
10504SOL    HW135554   6.031   8.231   6.723  0.0062 -0.1652  0.5496
10504SOL    HW235555   6.152   8.323   6.725  0.0163 -0.1849  0.8562
10505SOL     OW35556   8.905   5.880   8.112  0.2805 -0.2521 -0.5420
10505SOL    HW135557   8.942   5.934   8.042 -1.8149  0.1709 -1.3907
10505SOL    HW235558   8.841   5.936   8.155 -0.5627 -1.4329 -0.1863
10506SOL     OW35559   2.492   1.130   8.324 -0.0949 -0.3764  0.3434
10506SOL    HW135560   2.569   1.153   8.375  0.8478 -1.2591 -0.6299
10506SOL    HW235561   2.508   1.040   8.294 -1.5403 -0.6140  0.1819
10507SOL     OW35562   6.488   2.310   4.440  0.2557 -0.8375  0.2230
10507SOL    HW135563   6.417   2.256   4.405 -0.0670 -0.0988 -0.2934
10507SOL    HW235564   6.460   2.332   4.529 -0.8849  0.6499 -0.4597
10508SOL     OW35565   3.236   9.371   7.421  0.1967  0.0644  0.3052
10508SOL    HW135566   3.239   9.343   7.513 -0.7986 -0.3684  0.2271
10508SOL    HW235567   3.293   9.447   7.417  1.8716 -1.1070  0.8424
10509SOL     OW35568  10.156   9.110   2.192  0.3606  0.1104  0.4833
10509SOL    HW135569  10.126   9.019   2.201  1.1927 -0.2293 -0.0923
10509SOL    HW235570  10.177   9.137   2.282 -0.7379  0.0513  0.7816
10510SOL     OW35571   8.696  10.296   4.705 -0.0294 -0.7077 -0.4949
10510SOL    HW135572   8.665  10.385   4.689 -0.1467 -0.4951  0.8060
10510SOL    HW235573   8.791  10.304   4.712  0.1637 -1.0209 -2.3532
10511SOL     OW35574   7.387   3.012   0.565  0.7529 -0.1480 -0.2046
10511SOL    HW135575   7.449   3.077   0.598  0.8282  0.2355 -1.0834
10511SOL    HW235576   7.312   3.018   0.624 -0.0557  2.0970 -1.3437
10512SOL     OW35577   1.515   2.141   1.361  0.1372 -0.0509  0.1058
10512SOL    HW135578   1.433   2.111   1.320 -0.2954  2.0052 -0.6732
10512SOL    HW235579   1.582   2.123   1.295  0.1697 -0.8323  0.3414
10513SOL     OW35580   1.960   4.145   5.744 -0.2315  0.1528 -0.0741
10513SOL    HW135581   1.906   4.066   5.751 -0.9787  0.6402 -0.1783
10513SOL    HW235582   2.007   4.150   5.826 -1.5096  0.5325  0.6723
10514SOL     OW35583   8.743   5.368   5.462 -0.0710 -0.3782 -0.1210
10514SOL    HW135584   8.768   5.460   5.455 -0.0075 -0.3776  0.1084
10514SOL    HW235585   8.812   5.321   5.415  0.2644 -0.3615  0.3589
10515SOL     OW35586   7.861   5.989   8.464 -0.5507 -0.0065 -0.0046
10515SOL    HW135587   7.866   5.901   8.502  1.0616 -0.1834 -0.5522
10515SOL    HW235588   7.808   6.039   8.526 -0.5219 -1.0681  0.9096
10516SOL     OW35589   9.966   6.218   4.379 -0.0091 -0.2155 -0.3908
10516SOL    HW135590   9.949   6.263   4.461 -0.4270  0.5959 -0.9107
10516SOL    HW235591   9.990   6.129   4.405 -2.5283 -0.7090  0.5314
10517SOL     OW35592   6.846   0.126   8.211 -0.7921 -0.5512 -0.1277
10517SOL    HW135593   6.910   0.189   8.244 -0.8031 -0.1013 -0.9344
10517SOL    HW235594   6.762   0.169   8.222 -0.9173 -0.9623  0.5239
10518SOL     OW35595   3.840   1.785   3.895  0.5150  0.5441  0.1650
10518SOL    HW135596   3.811   1.854   3.955  0.4641 -0.5095  1.4069
10518SOL    HW235597   3.890   1.725   3.951 -1.8753 -1.9756 -0.1867
10519SOL     OW35598   2.714   2.783   5.767  0.5544  0.2033  0.5884
10519SOL    HW135599   2.790   2.790   5.824  0.3350  0.1769  0.8821
10519SOL    HW235600   2.725   2.700   5.721  0.0945 -0.3747  1.5071
10520SOL     OW35601   4.651   6.886   0.480  0.2993  0.0016  0.0812
10520SOL    HW135602   4.573   6.875   0.535 -0.2607 -3.1104 -1.0738
10520SOL    HW235603   4.721   6.908   0.540 -0.9106 -0.1438  1.5954
10521SOL     OW35604   9.199   1.473   6.452 -0.0350 -0.4909  0.0163
10521SOL    HW135605   9.211   1.524   6.372  1.1357  0.0402  0.5039
10521SOL    HW235606   9.286   1.440   6.472 -0.0435  0.3985  1.7216
10522SOL     OW35607   6.698   4.378   5.384 -0.5402 -0.4093 -0.2295
10522SOL    HW135608   6.695   4.448   5.318  2.4751  0.7344  0.6626
10522SOL    HW235609   6.613   4.383   5.428 -0.3445  3.0152  0.0189
10523SOL     OW35610   2.884   2.458   2.308  0.2687  0.4988 -0.2397
10523SOL    HW135611   2.826   2.470   2.383  0.2690  0.1520 -0.1823
10523SOL    HW235612   2.824   2.445   2.234  0.2698  0.7324 -0.2838
10524SOL     OW35613   3.659   8.017   4.042 -0.1561  0.0489 -0.0045
10524SOL    HW135614   3.570   8.048   4.060 -0.5465 -1.0357 -0.0103
10524SOL    HW235615   3.681   7.963   4.118  0.0113 -0.7164 -0.5891
10525SOL     OW35616   3.459   1.018   0.379 -0.2683  0.1207 -0.6406
10525SOL    HW135617   3.465   1.105   0.339 -0.2822  0.9871  1.1421
10525SOL    HW235618   3.517   1.023   0.455 -0.3589 -1.3999 -0.4517
10526SOL     OW35619   2.518   9.615   2.419  0.0626 -0.2633  0.3225
10526SOL    HW135620   2.503   9.535   2.470 -2.1509  0.2961  0.6254
10526SOL    HW235621   2.439   9.667   2.431  1.1714  1.7008 -0.4281
10527SOL     OW35622   0.584   3.580   2.805 -0.6352 -0.4274  0.3149
10527SOL    HW135623   0.641   3.527   2.749  0.6240  0.0871  1.0854
10527SOL    HW235624   0.551   3.648   2.746  0.1831 -0.2590  0.0343
10528SOL     OW35625   8.378   5.802   5.684  0.2326 -0.0970  0.0072
10528SOL    HW135626   8.297   5.852   5.678 -0.2582 -0.7053  1.2630
10528SOL    HW235627   8.380   5.749   5.605 -1.7445 -1.7050  0.9500
10529SOL     OW35628   5.476   8.356   7.896  0.1267  0.4847 -0.1237
10529SOL    HW135629   5.484   8.412   7.973  0.6897  0.8064 -0.4090
10529SOL    HW235630   5.547   8.385   7.837  1.7958 -1.8800  0.5638
10530SOL     OW35631   6.679   7.578   8.676 -0.5167 -0.1860 -1.0447
10530SOL    HW135632   6.672   7.670   8.702 -0.7836  0.1653 -2.2834
10530SOL    HW235633   6.772   7.564   8.663 -0.1672 -0.8368  1.5867
10531SOL     OW35634   1.927   8.762   6.843  0.1517 -0.0419 -0.0762
10531SOL    HW135635   1.952   8.775   6.935  0.0506  0.5599 -0.1281
10531SOL    HW235636   1.980   8.688   6.814 -1.0547 -1.3856  0.9549
10532SOL     OW35637   5.836   4.600   8.282 -0.2590  0.4563  0.1836
10532SOL    HW135638   5.787   4.580   8.361  1.2011 -0.5248  0.8834
10532SOL    HW235639   5.914   4.646   8.312 -0.1763  1.0056 -0.7990
10533SOL     OW35640   8.709   8.571   7.713  0.7030 -0.0944  0.5277
10533SOL    HW135641   8.681   8.662   7.703  0.9577 -0.1861 -1.2910
10533SOL    HW235642   8.685   8.529   7.631  3.1976 -0.9584  0.1528
10534SOL     OW35643   5.151   7.975   1.402 -0.1322 -0.8156  0.1908
10534SOL    HW135644   5.168   7.883   1.381  0.6483 -0.6351 -0.0091
10534SOL    HW235645   5.112   8.011   1.322 -2.1887 -1.3994  0.8841
10535SOL     OW35646   6.804   8.810   1.040  0.1559  0.3290 -0.1867
10535SOL    HW135647   6.771   8.739   0.986 -0.9915  1.6267 -1.2739
10535SOL    HW235648   6.893   8.826   1.008  0.5469 -0.8031  0.2939
10536SOL     OW35649   0.128   3.058   3.395 -0.1486 -0.0642  0.4305
10536SOL    HW135650   0.198   3.117   3.368 -1.3295  1.5218  0.7033
10536SOL    HW235651   0.067   3.058   3.321 -0.0194 -1.2255  0.3009
10537SOL     OW35652   5.950   7.055   3.677 -0.3153 -0.2196  0.1889
10537SOL    HW135653   5.977   6.972   3.717  0.0232 -0.2542 -0.1095
10537SOL    HW235654   5.862   7.038   3.643 -0.5854 -0.2078  0.8661
10538SOL     OW35655   1.904   2.495   4.986 -0.5514  0.0361  0.0218
10538SOL    HW135656   1.910   2.410   5.030  3.6974 -0.4241 -0.9830
10538SOL    HW235657   1.920   2.474   4.894  0.3301  1.8845 -0.2757
10539SOL     OW35658   1.595   7.951   1.285  0.4907  0.0468 -0.1422
10539SOL    HW135659   1.669   7.915   1.333  0.3175 -0.0887  0.0237
10539SOL    HW235660   1.570   8.030   1.333  0.3643 -0.0486 -0.0499
10540SOL     OW35661   8.186   8.062   7.479 -0.2312 -0.6284 -0.3004
10540SOL    HW135662   8.097   8.042   7.450 -0.6960  2.7990 -1.6762
10540SOL    HW235663   8.241   7.997   7.434 -1.7939 -1.0671 -1.6646
10541SOL     OW35664   1.674   4.942   9.248  0.3385  0.3752  0.1946
10541SOL    HW135665   1.758   4.897   9.262 -0.1305 -0.5154  0.2623
10541SOL    HW235666   1.698   5.032   9.227  1.3750 -0.2273 -1.3576
10542SOL     OW35667   1.444   4.571   5.503 -0.6272 -0.2708  0.1340
10542SOL    HW135668   1.496   4.617   5.569  0.1243 -0.4165 -0.3569
10542SOL    HW235669   1.354   4.575   5.537 -0.4827  0.9971  0.4030
10543SOL     OW35670   4.186   3.141   0.089  0.3663 -0.0194 -0.3395
10543SOL    HW135671   4.092   3.150   0.103  0.3765  4.5981 -1.4739
10543SOL    HW235672   4.225   3.158   0.175  0.1088  2.3996 -0.6355
10544SOL     OW35673   4.086   4.819   0.341  0.1481  0.1802  0.3510
10544SOL    HW135674   4.145   4.846   0.412 -0.7514  1.7959  0.5334
10544SOL    HW235675   4.096   4.887   0.274 -3.5481  2.2548  1.5950
10545SOL     OW35676   7.107   4.563   2.820 -0.1601  0.5407  0.2462
10545SOL    HW135677   7.185   4.568   2.876 -0.7759 -3.6319  1.7931
10545SOL    HW235678   7.055   4.640   2.845  2.2250  2.0278  1.0330
10546SOL     OW35679   4.367   9.735   8.315 -0.8809  0.1424  0.7257
10546SOL    HW135680   4.339   9.687   8.394  1.1991 -0.4037  1.1855
10546SOL    HW235681   4.461   9.721   8.311 -0.5396  2.3687 -0.4093
10547SOL     OW35682   5.297   7.759   2.374  0.3497 -0.3557 -0.0982
10547SOL    HW135683   5.313   7.714   2.291 -0.3352 -1.0069  0.1111
10547SOL    HW235684   5.287   7.851   2.349 -1.2026 -0.7048 -0.9541
10548SOL     OW35685   2.804   7.593   4.398 -0.1196 -0.2567 -0.2564
10548SOL    HW135686   2.888   7.638   4.408  0.3315 -0.9346 -0.9238
10548SOL    HW235687   2.757   7.612   4.479  0.7523 -0.0373  0.2109
10549SOL     OW35688   3.794   2.051   9.628 -0.6128  0.1028 -0.0162
10549SOL    HW135689   3.857   2.083   9.692 -0.3805 -0.8999  0.2755
10549SOL    HW235690   3.825   2.086   9.544  1.1483 -1.4786 -0.0879
10550SOL     OW35691   2.981   6.420  10.141 -0.1917 -0.3606  0.5102
10550SOL    HW135692   2.928   6.386  10.214 -0.4616  1.3024  1.1343
10550SOL    HW235693   2.921   6.420  10.067 -0.3594 -0.6904  0.6425
10551SOL     OW35694   1.270   6.686   1.865 -0.5131 -0.5806 -0.3610
10551SOL    HW135695   1.176   6.699   1.854 -1.0996 -1.2206  2.7872
10551SOL    HW235696   1.292   6.616   1.804 -2.1439 -0.6701 -0.8968
10552SOL     OW35697   2.707   5.968   3.334 -0.8371 -0.2996 -0.1470
10552SOL    HW135698   2.708   5.898   3.399 -0.5620 -2.0060 -1.8590
10552SOL    HW235699   2.624   5.958   3.289 -0.6600  0.2809 -0.6185
10553SOL     OW35700   3.647   4.823   6.756 -0.4498 -0.2851  0.1985
10553SOL    HW135701   3.649   4.771   6.676  0.2669 -0.7695  0.5173
10553SOL    HW235702   3.724   4.794   6.805 -1.8422 -1.3068  1.8907
10554SOL     OW35703  10.103   8.903   5.403  0.1413  0.5745 -0.4804
10554SOL    HW135704  10.067   8.883   5.489  0.2398  1.3764 -0.2435
10554SOL    HW235705  10.185   8.948   5.421  1.5733 -1.6660 -1.0108
10555SOL     OW35706   5.747   5.649   6.250 -0.0672 -0.4354 -0.4754
10555SOL    HW135707   5.837   5.667   6.276  0.6908 -0.2031 -2.9706
10555SOL    HW235708   5.705   5.735   6.249 -0.3206 -0.5313  0.5852
10556SOL     OW35709   8.306   2.414   8.884  0.5671  0.2741 -0.1191
10556SOL    HW135710   8.224   2.452   8.853  1.1244  0.1691 -1.8145
10556SOL    HW235711   8.331   2.470   8.958 -1.4741 -0.2631  1.0581
10557SOL     OW35712   4.494   6.061   6.043  0.1580  0.3514  0.1739
10557SOL    HW135713   4.563   6.124   6.021  1.0051 -0.5076  0.2634
10557SOL    HW235714   4.542   5.985   6.078 -0.8837 -0.0357  0.7934
10558SOL     OW35715   2.205   8.195   2.300 -0.0906  0.1008 -0.0858
10558SOL    HW135716   2.135   8.247   2.341  0.2185  0.3614  0.1203
10558SOL    HW235717   2.283   8.250   2.309  0.7767 -1.3536  2.3028
10559SOL     OW35718   3.515   0.363   4.217 -0.6002 -0.8065 -0.4706
10559SOL    HW135719   3.597   0.412   4.213 -0.6548 -0.7083 -0.4006
10559SOL    HW235720   3.519   0.304   4.142  0.0408 -1.6008  0.1801
10560SOL     OW35721   5.772   0.469   3.802  0.1963 -0.9224 -0.0499
10560SOL    HW135722   5.726   0.532   3.748 -0.8130 -1.9147 -0.3930
10560SOL    HW235723   5.709   0.444   3.870  1.0609 -0.5247  0.9343
10561SOL     OW35724   1.975   9.731   9.726  0.2999  0.0287 -0.1461
10561SOL    HW135725   1.935   9.788   9.792  0.6696  0.5451 -0.3545
10561SOL    HW235726   2.039   9.680   9.775 -2.0029 -2.3497  0.6046
10562SOL     OW35727   1.233   5.019   6.016 -0.4526  0.0039  0.7240
10562SOL    HW135728   1.263   4.954   5.952 -0.5349  1.4133 -0.7996
10562SOL    HW235729   1.312   5.069   6.037 -0.9771  1.4370 -0.5738
10563SOL     OW35730   1.674   0.651   5.798 -0.2312  0.1094  0.2388
10563SOL    HW135731   1.617   0.619   5.868 -2.5847  1.9382 -0.7214
10563SOL    HW235732   1.633   0.620   5.717 -0.3474  2.0647 -0.5057
10564SOL     OW35733   6.289   4.723   3.863 -0.2923  0.4898 -0.9501
10564SOL    HW135734   6.264   4.713   3.955 -2.3938  3.1347 -1.1225
10564SOL    HW235735   6.226   4.669   3.815 -0.8305  1.1211 -0.9611
10565SOL     OW35736   2.981   6.826   5.007 -0.2660 -0.1572  0.3912
10565SOL    HW135737   2.926   6.758   4.969  2.9556 -1.2672 -2.9069
10565SOL    HW235738   2.993   6.800   5.098 -0.3283 -3.2581 -0.3847
10566SOL     OW35739   0.308   2.242   0.011 -0.1579  0.2327  0.0658
10566SOL    HW135740   0.335   2.180  -0.057 -1.3865 -0.5587  0.2713
10566SOL    HW235741   0.366   2.317  -0.001 -0.0688 -0.0562 -1.5953
10567SOL     OW35742   8.051   6.144   8.322 -0.2336  0.2948 -0.1254
10567SOL    HW135743   8.002   6.198   8.261 -0.0158 -0.1749 -0.7296
10567SOL    HW235744   7.984   6.103   8.377 -0.4630  0.3758 -0.3434
10568SOL     OW35745   1.097   1.059   1.567 -0.2474  0.3060 -0.1474
10568SOL    HW135746   1.190   1.057   1.544 -0.5173 -1.3165 -1.2474
10568SOL    HW235747   1.094   1.107   1.649  1.3330  2.0813 -1.0469
10569SOL     OW35748   2.602   7.608   4.198 -0.6601 -0.4711  0.3057
10569SOL    HW135749   2.665   7.638   4.264 -0.8864  1.4951 -0.3270
10569SOL    HW235750   2.529   7.669   4.205 -1.7725 -1.7069 -0.1335
10570SOL     OW35751   1.855   6.842   9.011 -0.1199  0.1949  0.2868
10570SOL    HW135752   1.896   6.755   9.016  0.1492  0.0715 -2.4435
10570SOL    HW235753   1.763   6.825   9.029  0.0674 -0.5133  0.6379
10571SOL     OW35754   7.727   3.027   0.153  0.2699  0.0009  0.2078
10571SOL    HW135755   7.815   3.020   0.188  0.9457  2.0350 -0.9304
10571SOL    HW235756   7.670   3.005   0.227  1.6949 -1.0424  1.0436
10572SOL     OW35757   5.458   7.327   7.298 -0.0880  0.6782 -0.0126
10572SOL    HW135758   5.380   7.324   7.242  0.0427  2.5774 -0.3515
10572SOL    HW235759   5.516   7.390   7.255  1.7042 -0.7595  0.1815
10573SOL     OW35760   3.281   6.323   6.026  0.4617 -0.0929  0.4182
10573SOL    HW135761   3.335   6.387   5.979  1.0868 -0.1656  1.0233
10573SOL    HW235762   3.267   6.362   6.112  0.7061 -0.6924  0.7321
10574SOL     OW35763   1.382   9.510   5.600  0.5557  0.5016  0.4770
10574SOL    HW135764   1.424   9.596   5.593  0.5969  0.5166  0.8494
10574SOL    HW235765   1.454   9.451   5.623  0.6142  0.2788 -0.2577
10575SOL     OW35766   4.247   0.924   4.180  0.3988  0.0889  0.2026
10575SOL    HW135767   4.247   0.962   4.092 -0.5016 -0.7512 -0.1820
10575SOL    HW235768   4.251   0.999   4.239 -1.2263  0.8095 -0.5392
10576SOL     OW35769   4.553   5.716   3.086  0.2222 -0.1524 -0.0153
10576SOL    HW135770   4.486   5.648   3.081 -2.0519  2.0447 -2.5926
10576SOL    HW235771   4.626   5.681   3.036 -0.6412 -0.9652 -0.7548
10577SOL     OW35772   5.208   9.791   0.770  0.1069 -0.0253  0.3225
10577SOL    HW135773   5.174   9.874   0.736  0.0699 -0.4413 -0.6850
10577SOL    HW235774   5.130   9.738   0.785  0.2177 -0.6973 -1.2463
10578SOL     OW35775   5.314   0.591   9.116 -0.2442  0.3471  0.9407
10578SOL    HW135776   5.358   0.520   9.069  0.4503 -0.1903  2.3348
10578SOL    HW235777   5.240   0.548   9.160 -0.1471  0.5919  1.3447
10579SOL     OW35778   6.383   2.701   1.118  0.0077  0.5307  0.8492
10579SOL    HW135779   6.424   2.697   1.031 -0.7851 -0.1754  0.4921
10579SOL    HW235780   6.431   2.770   1.164 -0.9624  2.4834 -0.8890
10580SOL     OW35781   2.610   1.245   5.320  0.0408  0.4115 -0.2705
10580SOL    HW135782   2.529   1.263   5.271  0.3988  0.6817 -0.7642
10580SOL    HW235783   2.585   1.175   5.382 -0.2523 -0.4172 -1.2958
10581SOL     OW35784  10.209   2.256   5.731 -0.3622 -0.3499  1.0425
10581SOL    HW135785  10.299   2.229   5.712 -1.0257 -1.9827 -0.0104
10581SOL    HW235786  10.176   2.290   5.648 -0.2888  1.7322  1.7963
10582SOL     OW35787   3.969   4.042   4.413 -0.3634  0.6310 -0.2141
10582SOL    HW135788   4.049   4.034   4.463 -0.8997  0.1800  0.5847
10582SOL    HW235789   3.955   4.136   4.405  0.5346  0.7282 -0.8625
10583SOL     OW35790  10.143   8.546   9.079  0.5583 -0.3478 -0.9458
10583SOL    HW135791  10.206   8.475   9.087 -1.8814 -2.5071  0.4693
10583SOL    HW235792  10.192   8.625   9.101  3.0868 -1.6968 -1.4619
10584SOL     OW35793   8.138   5.073   5.628  0.4896  0.2040 -0.0981
10584SOL    HW135794   8.185   5.149   5.660  0.6470  0.7131 -1.4548
10584SOL    HW235795   8.207   5.010   5.605  0.3838 -0.1199  0.4559
10585SOL     OW35796   7.173   5.177   8.315  0.1274 -0.0207 -0.4230
10585SOL    HW135797   7.242   5.158   8.378  0.2019 -1.8565 -1.0035
10585SOL    HW235798   7.095   5.134   8.350 -0.5815  1.4167 -0.1439
10586SOL     OW35799   7.250   6.248   3.218 -0.2578 -0.1631  0.1801
10586SOL    HW135800   7.255   6.202   3.134  0.6169 -0.4481  0.3728
10586SOL    HW235801   7.219   6.336   3.196 -0.0474 -0.2364 -0.4380
10587SOL     OW35802   7.282   1.766   3.057 -0.1930  0.2622 -0.5567
10587SOL    HW135803   7.213   1.711   3.094  0.3598  0.0345  0.1432
10587SOL    HW235804   7.237   1.846   3.031 -0.3970  0.9994  1.8723
10588SOL     OW35805   6.446   0.819  10.219 -0.4228  0.1024 -0.4148
10588SOL    HW135806   6.410   0.902  10.190 -2.1037 -1.0296 -1.7668
10588SOL    HW235807   6.370   0.769  10.249  0.5478 -0.9629  0.3707
10589SOL     OW35808   5.685   2.215   7.137  0.0020 -0.4967  0.3567
10589SOL    HW135809   5.628   2.212   7.214 -0.0348 -0.6944  0.3219
10589SOL    HW235810   5.625   2.212   7.063 -0.1434  2.1584  0.2720
10590SOL     OW35811   5.055   1.548   8.130  0.9020 -0.5066  0.1194
10590SOL    HW135812   5.141   1.541   8.171  0.7127  1.1006  0.8640
10590SOL    HW235813   5.066   1.616   8.063  0.3432 -0.6705 -0.1490
10591SOL     OW35814   1.592   0.004   6.025 -0.3828 -0.0745 -0.6359
10591SOL    HW135815   1.562  -0.033   6.108 -1.4709  0.3254 -0.8390
10591SOL    HW235816   1.518  -0.006   5.965 -0.2181  1.1753 -1.0844
10592SOL     OW35817   8.424   8.237   6.062  0.0201  0.2418 -0.3716
10592SOL    HW135818   8.504   8.267   6.104 -0.1514 -1.6265  1.3864
10592SOL    HW235819   8.394   8.164   6.115 -2.7132  0.6854 -1.1358
10593SOL     OW35820   7.255   7.305   4.107  0.2159  0.0569 -0.2480
10593SOL    HW135821   7.308   7.384   4.097 -0.6443  0.5293 -1.2486
10593SOL    HW235822   7.212   7.293   4.023 -0.0370 -1.2217  0.0369
10594SOL     OW35823   9.783   3.710   9.006 -0.0362 -0.2813 -0.0483
10594SOL    HW135824   9.741   3.793   8.980  0.3312  0.2094  0.8849
10594SOL    HW235825   9.873   3.734   9.025  0.1412 -0.9506 -0.0263
10595SOL     OW35826   6.315   4.112   2.339 -0.1037 -0.1807 -0.0112
10595SOL    HW135827   6.339   4.041   2.398 -0.6268 -2.0222 -1.8743
10595SOL    HW235828   6.367   4.187   2.368  0.5721 -1.3376  1.9516
10596SOL     OW35829   4.091   0.783   8.610 -0.3096  0.4474  0.1774
10596SOL    HW135830   4.020   0.722   8.593  1.4957 -1.2148 -2.0769
10596SOL    HW235831   4.065   0.865   8.568 -0.1696 -0.6914 -2.2530
10597SOL     OW35832   3.628   4.883   7.423 -0.8804 -0.4979  0.2524
10597SOL    HW135833   3.547   4.922   7.456 -1.1236 -0.5642 -0.2452
10597SOL    HW235834   3.698   4.938   7.458 -1.1999  0.2122 -0.1941
10598SOL     OW35835   7.217   3.997   9.870  0.5992 -0.3227  0.2527
10598SOL    HW135836   7.274   4.072   9.887  1.1428 -0.5521 -0.4935
10598SOL    HW235837   7.198   4.002   9.776 -0.5753 -0.2803  0.4786
10599SOL     OW35838   7.563   1.917   3.376  0.0164  0.3674 -0.3993
10599SOL    HW135839   7.607   1.890   3.296 -0.5236 -0.9116 -0.2874
10599SOL    HW235840   7.632   1.923   3.442  0.1098 -1.1816 -0.3317
10600SOL     OW35841   5.449   7.295   3.644 -0.4132 -0.2233  0.3888
10600SOL    HW135842   5.437   7.201   3.650 -0.6946 -0.1031  2.6365
10600SOL    HW235843   5.360   7.331   3.655 -0.2809  0.3252 -0.2372
10601SOL     OW35844   5.733   3.587   1.220  0.3568 -0.1104  0.1689
10601SOL    HW135845   5.664   3.645   1.252 -0.0257 -0.5882  0.2238
10601SOL    HW235846   5.686   3.524   1.164  1.2312  2.1999 -3.5583
10602SOL     OW35847   4.145   2.021   6.505  0.0318  0.1404  0.2932
10602SOL    HW135848   4.196   1.966   6.447 -0.0170 -0.1191  0.4932
10602SOL    HW235849   4.054   2.010   6.476  0.1362  0.9977 -0.3882
10603SOL     OW35850   7.366   5.924   9.362 -0.6949 -0.3456 -0.2764
10603SOL    HW135851   7.399   5.903   9.275  0.2521  1.4038 -0.3778
10603SOL    HW235852   7.367   6.020   9.366 -1.2946 -0.3711  1.4446
10604SOL     OW35853   9.757   7.953   8.205  0.2154 -0.0396  0.3083
10604SOL    HW135854   9.822   8.006   8.160 -1.2596  1.5674 -0.0247
10604SOL    HW235855   9.760   7.984   8.296 -1.3113  1.3816 -0.0786
10605SOL     OW35856   6.261   0.112   5.827 -0.0007 -0.1464  0.0220
10605SOL    HW135857   6.209   0.142   5.752 -1.1387  0.1197  0.8963
10605SOL    HW235858   6.201   0.056   5.877  1.3019 -1.8402 -0.2206
10606SOL     OW35859   4.191   7.370   3.783 -0.5793  0.6567 -0.3819
10606SOL    HW135860   4.121   7.382   3.847 -0.7987  0.3700 -0.5674
10606SOL    HW235861   4.270   7.364   3.836 -0.7466  0.5362 -0.1447
10607SOL     OW35862   7.443   7.923   2.043 -0.6143 -0.4061  0.1999
10607SOL    HW135863   7.441   7.832   2.013 -1.9938  0.4681 -2.7347
10607SOL    HW235864   7.352   7.953   2.036  0.0982  1.7226 -0.7458
10608SOL     OW35865   5.996   6.166   2.052 -0.2300  0.2751  0.2757
10608SOL    HW135866   5.979   6.242   2.107  1.1675  0.3678  0.6009
10608SOL    HW235867   6.067   6.119   2.097 -0.8909 -1.0964 -0.0426
10609SOL     OW35868   3.737   3.627   6.333 -0.1340 -0.3440 -0.2861
10609SOL    HW135869   3.795   3.622   6.409 -0.7910 -0.9865  0.1908
10609SOL    HW235870   3.784   3.580   6.264  0.3244 -0.0364 -0.1863
10610SOL     OW35871   2.840   1.636   5.862 -0.1082  0.0678 -0.0554
10610SOL    HW135872   2.909   1.651   5.798 -0.2456  0.2134 -0.1697
10610SOL    HW235873   2.842   1.541   5.878 -1.9177 -0.4442 -2.3961
10611SOL     OW35874   4.886   0.982   7.922  0.5994 -0.2790 -0.4631
10611SOL    HW135875   4.877   0.967   8.016 -0.9410  0.1629 -0.5144
10611SOL    HW235876   4.796   0.990   7.890  1.0998  2.9278 -1.4272
10612SOL     OW35877   9.775   9.849   0.188  0.5449  0.1893 -0.5534
10612SOL    HW135878   9.813   9.781   0.244  0.1122  0.5305  0.1708
10612SOL    HW235879   9.729   9.907   0.249  0.9908  1.1887 -1.1439
10613SOL     OW35880   0.744   5.544  10.019  0.5442 -0.5843  0.1181
10613SOL    HW135881   0.653   5.575  10.014  0.8780  0.4308  0.1408
10613SOL    HW235882   0.792   5.616  10.061  1.0671 -1.7712  1.6576
10614SOL     OW35883   8.261   6.556   6.261  0.0088  0.2262 -0.0917
10614SOL    HW135884   8.297   6.638   6.295  1.3621 -0.0281 -0.8632
10614SOL    HW235885   8.326   6.525   6.199 -1.1141 -0.7601 -0.8189
10615SOL     OW35886   8.873   0.629   2.174  0.4049 -0.0714 -0.3505
10615SOL    HW135887   8.813   0.699   2.199  0.5339 -0.6740  1.8755
10615SOL    HW235888   8.823   0.548   2.190  1.8622 -0.6011  2.0139
10616SOL     OW35889   7.749   0.352   0.239  0.0341 -0.3749  0.3938
10616SOL    HW135890   7.815   0.394   0.293  0.0454  0.3761 -0.1952
10616SOL    HW235891   7.795   0.279   0.197  0.4766  0.0990  0.0414
10617SOL     OW35892   2.272   0.730   0.181  0.3960  0.0772 -0.1387
10617SOL    HW135893   2.284   0.638   0.202 -0.8897  0.1265  0.9026
10617SOL    HW235894   2.274   0.732   0.085 -0.6043 -1.2013 -0.2197
10618SOL     OW35895   7.686   4.233   9.768 -0.1410 -0.4157 -0.0629
10618SOL    HW135896   7.711   4.305   9.710  1.0757 -0.0755  0.8462
10618SOL    HW235897   7.770   4.198   9.799 -0.7252 -1.9285 -0.1175
10619SOL     OW35898   4.608   7.659   9.104 -0.0546  0.0097 -0.2063
10619SOL    HW135899   4.615   7.752   9.083 -0.7683  0.0587 -0.2583
10619SOL    HW235900   4.528   7.631   9.061 -0.0156 -0.5556  0.0824
10620SOL     OW35901   8.358   8.355   4.580 -0.0293  0.0849  0.0128
10620SOL    HW135902   8.285   8.347   4.641  1.1612  1.0011  1.6393
10620SOL    HW235903   8.335   8.430   4.525 -0.6929 -0.1526 -0.0316
10621SOL     OW35904   8.373   6.520   8.306 -0.3299 -0.0659 -0.7236
10621SOL    HW135905   8.382   6.497   8.399 -0.8414 -3.0937 -1.3339
10621SOL    HW235906   8.460   6.550   8.280  0.2203 -0.6545  0.3788
10622SOL     OW35907   2.285   7.423   6.867  0.4975 -0.1541  0.5573
10622SOL    HW135908   2.254   7.376   6.944  0.2743 -0.6016  0.1907
10622SOL    HW235909   2.380   7.430   6.880  0.5698 -0.9592  0.4695
10623SOL     OW35910   9.541   3.073   0.141 -0.0931  0.1268  0.0919
10623SOL    HW135911   9.569   3.036   0.225  0.4775 -0.2267 -0.2473
10623SOL    HW235912   9.599   3.147   0.127 -0.3921  0.3741  0.1555
10624SOL     OW35913   8.316   7.557   5.650  0.1649 -0.2832  0.3092
10624SOL    HW135914   8.227   7.525   5.664 -0.4075  1.3129  0.4876
10624SOL    HW235915   8.311   7.607   5.568  1.3592 -1.7545 -0.7292
10625SOL     OW35916  10.051   2.409   0.470  0.1855 -0.2451 -0.7366
10625SOL    HW135917  10.133   2.416   0.422 -0.5492 -1.2118 -2.1994
10625SOL    HW235918  10.036   2.497   0.505  2.1397 -0.2025  0.1422
10626SOL     OW35919   6.999   5.703   5.069  0.8861 -0.1124  0.1472
10626SOL    HW135920   7.080   5.652   5.063  0.7680 -0.3743  0.7919
10626SOL    HW235921   6.977   5.704   5.162 -0.1349 -0.4734 -0.0779
10627SOL     OW35922   9.851   1.749   8.650  0.6789 -0.3974 -0.4640
10627SOL    HW135923   9.779   1.689   8.635 -0.6277  0.5026  1.8078
10627SOL    HW235924   9.848   1.809   8.575  0.3786 -1.5713 -1.4196
10628SOL     OW35925   7.515   2.409   8.684  0.2504  0.1548  0.6055
10628SOL    HW135926   7.495   2.369   8.600  2.2274 -0.2640  0.2775
10628SOL    HW235927   7.540   2.336   8.740  0.4501  0.5832  1.0867
10629SOL     OW35928   1.462   3.257   3.234  0.7297 -0.0364  0.1003
10629SOL    HW135929   1.398   3.307   3.183  0.7730 -0.1630 -0.0782
10629SOL    HW235930   1.491   3.188   3.175  1.0574  0.0406  0.1688
10630SOL     OW35931   5.255   5.672   9.756 -0.0857  0.0377  0.2111
10630SOL    HW135932   5.218   5.590   9.723  2.3639 -1.1947  0.3138
10630SOL    HW235933   5.190   5.704   9.819 -1.4948 -1.3506 -0.4656
10631SOL     OW35934   9.824   7.755   6.345 -0.6728  0.4895  0.2687
10631SOL    HW135935   9.753   7.798   6.392 -0.2543  0.3138  1.0895
10631SOL    HW235936   9.833   7.805   6.264 -1.1512  1.0430  0.5473
10632SOL     OW35937   7.035   8.068   8.919 -0.2865  0.3163  0.2833
10632SOL    HW135938   7.074   8.064   8.832  1.9328  0.6940  1.1938
10632SOL    HW235939   7.051   7.981   8.957 -0.4875  0.4269  0.6288
10633SOL     OW35940   8.546   0.675   9.813 -0.1870 -0.7174 -0.7545
10633SOL    HW135941   8.497   0.741   9.862 -0.3952  0.6663 -2.6817
10633SOL    HW235942   8.500   0.593   9.830 -0.0485 -0.3922  1.5542
10634SOL     OW35943   9.617   8.234   1.961 -0.6320 -0.3979 -0.1122
10634SOL    HW135944   9.693   8.292   1.971  0.2400 -1.7991  1.9880
10634SOL    HW235945   9.653   8.146   1.969 -2.2858 -1.1621 -0.7404
10635SOL     OW35946   9.757   2.524   8.350  0.1053  0.1246  0.0581
10635SOL    HW135947   9.685   2.533   8.287  0.9038 -0.5579 -0.9851
10635SOL    HW235948   9.810   2.603   8.338  1.4006 -0.9184 -1.6795
10636SOL     OW35949   8.788   8.343   0.747  0.0863  0.5171  0.1900
10636SOL    HW135950   8.709   8.370   0.794  1.2787  1.7801  1.5943
10636SOL    HW235951   8.787   8.395   0.667 -1.9286 -1.5889 -1.2665
10637SOL     OW35952   5.230   0.510   8.726 -0.1443 -0.1587 -0.4738
10637SOL    HW135953   5.219   0.416   8.741  0.3551 -0.3772 -1.4052
10637SOL    HW235954   5.199   0.551   8.807 -0.1984 -1.1333  0.0137
10638SOL     OW35955   1.203   4.700   3.514 -0.3315 -0.3527 -0.2373
10638SOL    HW135956   1.196   4.692   3.419  1.8347 -0.4989 -0.4275
10638SOL    HW235957   1.276   4.759   3.528 -0.3630 -0.6408  1.3495
10639SOL     OW35958   1.514   5.610   5.756  0.0326 -0.0401  0.2545
10639SOL    HW135959   1.604   5.628   5.730  0.4154 -1.1570  0.7377
10639SOL    HW235960   1.495   5.673   5.825 -0.0782  1.1774 -0.8574
10640SOL     OW35961   7.841   3.295   3.254  0.3360  0.0326  0.3161
10640SOL    HW135962   7.874   3.272   3.167 -0.9553 -1.3743  0.1538
10640SOL    HW235963   7.754   3.256   3.258  0.8273 -1.0026  2.6951
10641SOL     OW35964   7.784   0.560   8.682 -0.4207  0.0680 -0.0451
10641SOL    HW135965   7.769   0.474   8.723 -0.4495 -1.3373 -2.7481
10641SOL    HW235966   7.875   0.558   8.655  0.1925  1.8207  1.6799
10642SOL     OW35967   6.177   5.742   7.611  0.3674  0.1714 -0.0957
10642SOL    HW135968   6.271   5.754   7.605  0.6249 -1.5588  0.0486
10642SOL    HW235969   6.160   5.724   7.703  0.5209 -3.5610 -0.6278
10643SOL     OW35970   9.747   0.420   9.251  0.2951 -0.4947  0.1189
10643SOL    HW135971   9.685   0.493   9.253  1.8471  0.9521 -1.6230
10643SOL    HW235972   9.696   0.346   9.217 -0.6284  0.4999 -0.7166
10644SOL     OW35973   7.868   8.427   9.210 -0.0766  0.1547 -0.1366
10644SOL    HW135974   7.922   8.504   9.229 -0.2048  0.1701  0.1681
10644SOL    HW235975   7.780   8.462   9.196  0.2194  0.2677 -1.8857
10645SOL     OW35976   0.977   8.565   5.261 -0.0842 -0.5612 -0.2299
10645SOL    HW135977   0.939   8.495   5.208 -0.4646 -1.8508  1.6301
10645SOL    HW235978   1.026   8.518   5.329 -1.5230  0.9181  1.9322
10646SOL     OW35979   2.638   4.930   9.774  0.0433 -0.0854  0.3312
10646SOL    HW135980   2.547   4.914   9.751  0.0330 -0.1613  0.4278
10646SOL    HW235981   2.641   5.023   9.797  0.1392  0.0930 -0.3934
10647SOL     OW35982   6.638   9.484   1.425  0.1798  0.2239  0.1826
10647SOL    HW135983   6.652   9.416   1.360  1.8144  0.1924  0.5467
10647SOL    HW235984   6.600   9.439   1.501  0.5974 -0.1538  0.1637
10648SOL     OW35985   2.191   9.617   0.111  0.5279  0.4715 -0.0661
10648SOL    HW135986   2.197   9.535   0.159 -0.2571 -0.8453 -2.1132
10648SOL    HW235987   2.282   9.641   0.092  0.7425 -0.0989  0.2375
10649SOL     OW35988   6.880   4.579   5.436 -0.3893 -0.3295  0.1749
10649SOL    HW135989   6.887   4.611   5.346 -2.3202 -1.0692 -0.2828
10649SOL    HW235990   6.813   4.511   5.433 -1.7771  0.7997  2.4607
10650SOL     OW35991   6.998   9.491   2.103 -0.1294 -1.2749 -0.1324
10650SOL    HW135992   7.081   9.537   2.118 -1.5406  0.9536  1.6458
10650SOL    HW235993   6.991   9.431   2.178 -0.6694 -0.5252  0.4329
10651SOL     OW35994   4.255   3.308   1.254 -0.7169 -0.2221  0.0201
10651SOL    HW135995   4.292   3.387   1.216  0.8352 -0.6311  0.6115
10651SOL    HW235996   4.161   3.317   1.242 -0.5780  1.7638  0.1903
10652SOL     OW35997   4.448   9.334   6.378 -0.2134  0.0552  0.2909
10652SOL    HW135998   4.432   9.247   6.342  2.8291 -0.7822  0.7096
10652SOL    HW235999   4.419   9.394   6.309 -2.3830 -1.2023  0.0006
10653SOL     OW36000   3.297   7.317   9.797  0.2246 -0.2465  0.2939
10653SOL    HW136001   3.275   7.225   9.811 -4.6623  0.5439 -0.3891
10653SOL    HW236002   3.284   7.359   9.882  3.3155 -0.1626  0.8313
10654SOL     OW36003   9.229   5.022   3.236  0.1426 -0.4182 -0.1014
10654SOL    HW136004   9.303   5.060   3.283 -1.0416 -0.5677  2.0637
10654SOL    HW236005   9.244   4.927   3.242 -2.0202 -0.7571  3.9916
10655SOL     OW36006   9.414   8.395   8.654  0.1384 -0.4304 -0.1625
10655SOL    HW136007   9.337   8.352   8.615 -1.1128  2.3747 -1.0289
10655SOL    HW236008   9.378   8.455   8.719  1.8140 -0.6168  1.0119
10656SOL     OW36009   3.490   1.664   1.595 -0.0229  0.3330 -0.5979
10656SOL    HW136010   3.537   1.712   1.663 -0.6129  0.5862 -0.3532
10656SOL    HW236011   3.549   1.593   1.570 -0.1938 -0.3949  0.9232
10657SOL     OW36012   8.501   9.093   1.172  0.5774 -0.2961  0.3904
10657SOL    HW136013   8.582   9.113   1.125 -0.0735  0.1838 -0.5666
10657SOL    HW236014   8.464   9.018   1.126 -1.0723  1.3885 -1.2089
10658SOL     OW36015   3.964   6.561   8.153 -0.0108 -0.3090  0.0396
10658SOL    HW136016   4.059   6.553   8.147 -0.1128 -1.1841 -0.7117
10658SOL    HW236017   3.937   6.488   8.207 -0.3265 -0.6202 -0.5281
10659SOL     OW36018   4.229   6.390   5.643 -0.3503 -0.5722  0.1859
10659SOL    HW136019   4.324   6.392   5.637 -0.3488 -2.1514 -0.9417
10659SOL    HW236020   4.199   6.428   5.561 -0.6529 -1.5081 -0.1539
10660SOL     OW36021   8.685   3.091   8.218 -0.2257  0.3760  0.0178
10660SOL    HW136022   8.767   3.094   8.169  0.7093 -1.3726  1.3899
10660SOL    HW236023   8.688   3.168   8.275  1.6329 -0.9294  1.7813
10661SOL     OW36024   7.773   4.658   7.160  0.7288  0.1081 -0.0707
10661SOL    HW136025   7.734   4.674   7.073  1.0440 -1.3473 -0.5130
10661SOL    HW236026   7.722   4.585   7.195 -2.3713  3.3633  2.9536
10662SOL     OW36027   9.406  10.168   8.461  0.7000  0.9210  0.3914
10662SOL    HW136028   9.434  10.081   8.433  0.0903  1.6860 -2.9825
10662SOL    HW236029   9.393  10.159   8.555  2.8391 -1.9941  0.5613
10663SOL     OW36030   7.135   3.532   6.850  0.1265  0.1510 -0.3153
10663SOL    HW136031   7.182   3.614   6.834  0.0919  0.6840  1.9711
10663SOL    HW236032   7.090   3.546   6.934 -1.1076 -1.6821 -0.6100
10664SOL     OW36033   2.508   5.846   4.374  1.0015 -0.1541  0.5593
10664SOL    HW136034   2.494   5.940   4.372 -0.2105 -0.3393 -0.3890
10664SOL    HW236035   2.584   5.832   4.317  2.1927  0.3754  1.9502
10665SOL     OW36036   6.463   2.582   5.190  0.3690  0.1245  0.2542
10665SOL    HW136037   6.540   2.639   5.187 -0.8243  1.7573 -0.9109
10665SOL    HW236038   6.472   2.534   5.273  3.1137 -0.4913 -0.3029
10666SOL     OW36039   5.429   6.302   3.635 -0.4915  0.4869  0.6496
10666SOL    HW136040   5.444   6.223   3.687 -1.0719 -0.3441 -0.3906
10666SOL    HW236041   5.508   6.310   3.581 -0.5090  0.5081  0.6274
10667SOL     OW36042   3.700   8.690   7.072 -0.1347 -0.1266  0.2671
10667SOL    HW136043   3.644   8.766   7.060 -0.5326 -0.4081  0.3186
10667SOL    HW236044   3.670   8.627   7.006  0.7019  0.0445 -0.3037
10668SOL     OW36045   9.972   4.395   8.753  0.3973 -0.2516  0.1591
10668SOL    HW136046  10.040   4.377   8.687  0.0311  1.8957 -0.9007
10668SOL    HW236047   9.988   4.331   8.822  2.7954 -0.5541 -0.5842
10669SOL     OW36048   8.864   8.491   9.217 -0.0654 -0.3924  0.1235
10669SOL    HW136049   8.801   8.563   9.206  1.4756  1.0562  0.4215
10669SOL    HW236050   8.871   8.481   9.312  0.7277 -0.0005  0.1128
10670SOL     OW36051   4.100  10.242   5.667 -0.4255  0.6664 -0.0927
10670SOL    HW136052   4.081  10.335   5.667 -1.4913  0.4648  0.3376
10670SOL    HW236053   4.015  10.200   5.655  0.0773 -0.2455 -0.5754
10671SOL     OW36054   3.159   1.077   5.800 -0.1520  0.1923 -0.4283
10671SOL    HW136055   3.183   1.013   5.867 -0.1215  0.8106  0.1628
10671SOL    HW236056   3.140   1.024   5.722  0.0574 -0.5182 -0.0089
10672SOL     OW36057   8.424   6.339   7.776 -0.4699  0.2199 -0.1861
10672SOL    HW136058   8.403   6.422   7.733  0.1294 -0.3679 -1.7117
10672SOL    HW236059   8.345   6.315   7.823 -1.6897  0.2663 -2.0856
10673SOL     OW36060   1.635   8.899   7.471 -0.3867  0.4803  0.0286
10673SOL    HW136061   1.555   8.890   7.418 -2.5950 -1.1004  3.2643
10673SOL    HW236062   1.629   8.986   7.510  0.1646  0.8433 -0.6750
10674SOL     OW36063   5.148   0.115   1.342 -0.2200  0.4976 -0.1605
10674SOL    HW136064   5.178   0.206   1.341  1.6879 -0.0892  0.5822
10674SOL    HW236065   5.221   0.065   1.305 -0.3992 -0.9556  1.3602
10675SOL     OW36066   7.551   2.300   4.005  0.1734 -0.2550  0.3961
10675SOL    HW136067   7.546   2.204   4.008 -2.1911 -0.1810  1.1452
10675SOL    HW236068   7.553   2.327   4.096  1.8325  0.4132  0.1846
10676SOL     OW36069   8.415   0.459   6.517  0.3298  0.4111 -0.4321
10676SOL    HW136070   8.344   0.522   6.506 -0.9594 -0.7431  0.8360
10676SOL    HW236071   8.485   0.509   6.560 -0.0023  1.3676 -0.9685
10677SOL     OW36072   9.328   4.361   1.918  0.4274 -0.1325  0.0509
10677SOL    HW136073   9.391   4.348   1.848  0.0886 -0.6338 -0.1694
10677SOL    HW236074   9.288   4.275   1.931  0.8611 -0.1749  1.2331
10678SOL     OW36075   5.752   7.369   4.673 -0.1102 -0.0134 -0.0740
10678SOL    HW136076   5.754   7.424   4.595 -0.9892 -0.7566 -0.6305
10678SOL    HW236077   5.699   7.294   4.648 -1.5097  0.3446  1.6357
10679SOL     OW36078   9.709  10.256   5.409  0.0080  0.3141  0.0015
10679SOL    HW136079   9.803  10.262   5.429  0.2571 -1.4360 -0.4905
10679SOL    HW236080   9.673  10.206   5.482 -0.5566  0.9783  0.1825
10680SOL     OW36081   8.647   2.128   4.209 -0.0374  0.2799  0.3666
10680SOL    HW136082   8.709   2.144   4.280 -0.1305 -0.3082  0.5807
10680SOL    HW236083   8.566   2.170   4.237  0.4032  1.5301 -0.1564
10681SOL     OW36084   1.708   7.706   8.231 -0.5911  0.5781 -0.8360
10681SOL    HW136085   1.688   7.632   8.173  0.3089  0.2782 -0.7801
10681SOL    HW236086   1.648   7.775   8.204 -2.7378 -0.7306  0.3014
10682SOL     OW36087   3.517   1.599   4.155  0.2188  0.0167 -0.8058
10682SOL    HW136088   3.599   1.625   4.197  0.3238  0.7715 -1.4691
10682SOL    HW236089   3.544   1.545   4.081  0.0513 -0.9041 -0.2149
10683SOL     OW36090   9.215  10.007   3.511  0.3226 -0.6819 -0.3173
10683SOL    HW136091   9.214  10.011   3.415  2.7003 -1.6205 -0.4393
10683SOL    HW236092   9.296  10.051   3.536  0.7749 -2.2295  1.1217
10684SOL     OW36093   7.679   1.556   7.299 -0.3092  0.2882 -0.2481
10684SOL    HW136094   7.724   1.549   7.214  0.1634  1.3819 -0.1051
10684SOL    HW236095   7.615   1.627   7.286 -0.1660  0.5260  0.3321
10685SOL     OW36096   8.846   1.519   3.806 -0.1318 -0.5115  0.0078
10685SOL    HW136097   8.807   1.551   3.888 -1.5616 -0.5373 -0.6402
10685SOL    HW236098   8.902   1.446   3.833  3.4464  2.4347  1.6115
10686SOL     OW36099   4.166   8.768   2.571 -0.1225  0.1350  0.0467
10686SOL    HW136100   4.185   8.858   2.544  2.4196 -0.6166 -1.0168
10686SOL    HW236101   4.235   8.747   2.634 -0.5899 -1.1118  0.1675
10687SOL     OW36102   9.749   6.993   4.218  0.1499  0.2501 -0.2555
10687SOL    HW136103   9.740   6.907   4.178  0.1136  0.2411 -0.2284
10687SOL    HW236104   9.680   7.046   4.177 -0.3604  0.0421  0.3175
10688SOL     OW36105   5.485   6.052  10.252  0.0630 -0.1588  0.4476
10688SOL    HW136106   5.463   6.095  10.335 -0.1954 -0.7510  0.6950
10688SOL    HW236107   5.455   5.961  10.264  0.2504 -0.3092 -0.2022
10689SOL     OW36108   0.675   8.927   6.544  0.3471 -0.1398  0.2303
10689SOL    HW136109   0.656   8.865   6.614  0.7231  0.4718  0.8953
10689SOL    HW236110   0.602   8.917   6.482 -1.3864  1.0781  1.9426
10690SOL     OW36111   1.538   5.414   3.133  0.0106  0.2750 -0.0949
10690SOL    HW136112   1.571   5.464   3.207 -0.1629  0.4329 -0.1226
10690SOL    HW236113   1.602   5.429   3.063 -0.5194  1.2440 -0.4070
10691SOL     OW36114  10.248   0.874  10.296 -0.3348  0.5592  0.2500
10691SOL    HW136115  10.280   0.802  10.242  0.6710  0.4670  0.9539
10691SOL    HW236116  10.153   0.863  10.296 -0.1649 -1.2305  0.9812
10692SOL     OW36117   5.064   4.417   6.054  0.1034  0.1139 -0.6342
10692SOL    HW136118   5.158   4.411   6.070  0.1332  0.2519 -0.7588
10692SOL    HW236119   5.036   4.495   6.102  0.4245  1.3104 -2.3120
10693SOL     OW36120   5.303  10.027   5.918  0.3517  0.4785 -0.0479
10693SOL    HW136121   5.256  10.049   5.998 -0.8052 -0.6014 -0.4003
10693SOL    HW236122   5.240   9.976   5.866  1.7143 -0.5306 -0.7877
10694SOL     OW36123   9.541   2.349   2.359 -0.1765  0.7479  0.2072
10694SOL    HW136124   9.565   2.289   2.429 -0.6526 -0.2448 -0.4605
10694SOL    HW236125   9.493   2.419   2.402 -0.6821  0.0175  0.8444
10695SOL     OW36126   1.981   2.203   7.836 -0.9525  0.3655 -0.0309
10695SOL    HW136127   1.979   2.209   7.740 -1.4532 -2.3319 -0.2738
10695SOL    HW236128   1.893   2.232   7.863 -0.5399  1.9288 -0.2752
10696SOL     OW36129   9.598   7.122   9.975  0.2968 -0.4354  0.1121
10696SOL    HW136130   9.634   7.065   9.907  1.0704 -1.4353  1.3158
10696SOL    HW236131   9.674   7.163  10.015 -0.1766  0.4264  0.1504
10697SOL     OW36132   1.245   3.517   0.196 -0.1112 -0.7079 -0.1105
10697SOL    HW136133   1.338   3.529   0.180  0.5407 -2.0210  2.3015
10697SOL    HW236134   1.231   3.423   0.190 -1.6203 -0.4464 -1.7846
10698SOL     OW36135   6.744   0.341   5.917 -0.3666 -0.1700  0.0230
10698SOL    HW136136   6.664   0.295   5.892  0.1383 -1.2903  0.4121
10698SOL    HW236137   6.713   0.423   5.957 -1.3309 -0.7179  0.4282
10699SOL     OW36138   7.061   5.558   8.986  0.1149  0.3874  0.3669
10699SOL    HW136139   7.032   5.481   8.937 -0.1784  0.1578  0.9001
10699SOL    HW236140   7.112   5.522   9.059  1.1114  0.7508 -0.1228
10700SOL     OW36141   9.319   1.986   0.704 -0.0431 -0.5171  0.1769
10700SOL    HW136142   9.365   2.052   0.652 -1.4604  0.3866  0.0277
10700SOL    HW236143   9.388   1.941   0.752  0.9279  1.4132  0.6791
10701SOL     OW36144  10.142   9.994   8.842  0.1194 -0.4693 -0.6734
10701SOL    HW136145  10.057  10.018   8.877  0.5978 -1.5770  1.3860
10701SOL    HW236146  10.163   9.910   8.883  1.7707 -0.7220 -1.9056
10702SOL     OW36147   2.209   6.955   2.338 -0.4513  0.6593  0.2037
10702SOL    HW136148   2.128   6.990   2.301 -1.1325 -0.9140  0.1053
10702SOL    HW236149   2.202   6.972   2.432 -1.6876 -0.8705  0.4261
10703SOL     OW36150   7.810   2.882   6.332  1.0210  0.4563 -0.3557
10703SOL    HW136151   7.900   2.882   6.300  1.4812  2.7744  0.7647
10703SOL    HW236152   7.791   2.789   6.349  3.2123 -0.0814 -0.5290
10704SOL     OW36153   0.444   1.952   1.383  0.1727  0.8067 -0.1841
10704SOL    HW136154   0.446   1.935   1.289  0.2730  0.7276 -0.1691
10704SOL    HW236155   0.359   1.991   1.399  0.1185  0.7340 -0.2937
10705SOL     OW36156   3.157   5.668   9.881  0.6649  0.0610 -0.4220
10705SOL    HW136157   3.196   5.581   9.891 -0.0254 -0.2706 -0.5451
10705SOL    HW236158   3.212   5.725   9.935  1.1939 -0.4244 -0.4300
10706SOL     OW36159   2.564   0.151   6.104  0.0022  0.2619  0.2063
10706SOL    HW136160   2.602   0.229   6.146  1.4286 -0.1340 -0.3140
10706SOL    HW236161   2.594   0.078   6.158 -0.9392  0.0098  0.4114
10707SOL     OW36162   1.043   9.013   5.566  0.1616 -0.1262  0.2586
10707SOL    HW136163   1.114   9.001   5.502  0.4341 -1.6593  0.7954
10707SOL    HW236164   1.074   9.085   5.622  0.9762 -0.2917  0.0439
10708SOL     OW36165   2.081   4.688   6.587  0.0024  0.2180 -0.7470
10708SOL    HW136166   2.002   4.634   6.580 -0.1781  0.5723 -1.6425
10708SOL    HW236167   2.151   4.626   6.605 -0.5934 -0.0122  0.9614
10709SOL     OW36168   9.288   9.598   2.012 -0.0984  0.0300  0.1997
10709SOL    HW136169   9.288   9.527   1.948 -0.1434  0.1569  0.0553
10709SOL    HW236170   9.216   9.577   2.071  1.3138 -1.2572  1.5526
10710SOL     OW36171   8.660   4.364   2.715  0.2669 -0.1186 -0.0401
10710SOL    HW136172   8.573   4.374   2.676  0.4880 -0.9007 -0.7838
10710SOL    HW236173   8.645   4.358   2.809 -0.1988  2.8918  0.1570
10711SOL     OW36174   2.381   2.593   7.862  0.4224 -0.0385  0.1663
10711SOL    HW136175   2.440   2.518   7.868  0.0977 -0.2048  1.7868
10711SOL    HW236176   2.398   2.644   7.941  1.1590  2.0277 -1.2360
10712SOL     OW36177   6.306   4.664   3.267  0.4688  0.2214 -0.5102
10712SOL    HW136178   6.386   4.628   3.306 -0.7888 -3.0070 -0.6105
10712SOL    HW236179   6.334   4.698   3.182  1.7954 -0.5432 -0.4090
10713SOL     OW36180   0.733   3.832   2.688 -0.2849  0.3742 -0.1081
10713SOL    HW136181   0.805   3.803   2.632 -0.1257  0.5527  0.0032
10713SOL    HW236182   0.693   3.904   2.640 -0.3906  0.2728 -0.1714
10714SOL     OW36183   3.123   2.029   0.732  0.4640 -0.3870  0.2724
10714SOL    HW136184   3.141   2.091   0.661  0.8539  0.4738  1.0891
10714SOL    HW236185   3.176   2.062   0.805 -0.7594 -0.6115  1.2912
10715SOL     OW36186   1.765   7.894   4.286 -0.6104  0.2912 -0.1345
10715SOL    HW136187   1.703   7.840   4.335  0.6974 -0.7752  0.4040
10715SOL    HW236188   1.851   7.865   4.317  0.1575  2.1541 -0.4001
10716SOL     OW36189   1.624   2.068   7.495  0.4992  0.6575 -0.3423
10716SOL    HW136190   1.683   2.142   7.507  0.3877  0.6549  0.2833
10716SOL    HW236191   1.619   2.027   7.582  0.3739  0.0588 -0.6262
10717SOL     OW36192   1.946   9.647   8.363 -0.7424 -0.3055 -0.0730
10717SOL    HW136193   1.871   9.601   8.400  0.8570 -1.9004  1.3620
10717SOL    HW236194   1.969   9.596   8.285  0.3191 -1.3464  0.8759
10718SOL     OW36195   2.033   1.302   3.462  0.1804 -0.0096  0.6548
10718SOL    HW136196   1.944   1.307   3.497 -0.0710 -2.5439  0.5221
10718SOL    HW236197   2.089   1.323   3.536 -0.4915  0.8800  0.9295
10719SOL     OW36198   4.638   8.536   7.197 -0.3440  0.3700  0.1296
10719SOL    HW136199   4.592   8.526   7.114  0.0306 -0.3005 -0.0019
10719SOL    HW236200   4.623   8.628   7.222  1.0051  1.1131 -1.5669
10720SOL     OW36201   7.455   7.772   3.666 -0.3729 -0.2265  0.3193
10720SOL    HW136202   7.442   7.859   3.627 -0.0473  0.4109  1.5668
10720SOL    HW236203   7.538   7.742   3.629 -0.4391  0.0337 -0.0504
10721SOL     OW36204   6.115   0.562   2.305  0.0832  0.2556 -0.1860
10721SOL    HW136205   6.044   0.573   2.242  0.8449 -0.6179 -1.2165
10721SOL    HW236206   6.193   0.544   2.252  0.5507 -1.5414  1.0191
10722SOL     OW36207   3.992   0.807   8.873  0.0696  0.0367 -0.2972
10722SOL    HW136208   4.031   0.768   8.795  1.8683 -2.6701  1.7665
10722SOL    HW236209   4.041   0.888   8.887 -0.8962  1.0370 -2.3897
10723SOL     OW36210   5.640   7.597   8.020 -0.9455  0.3313  0.5468
10723SOL    HW136211   5.576   7.667   8.017 -0.5576  0.7105  0.8900
10723SOL    HW236212   5.695   7.618   8.096 -0.9121 -0.4154  0.7361
10724SOL     OW36213   2.429   8.604   0.424 -0.4663 -0.1782  0.9260
10724SOL    HW136214   2.339   8.616   0.392 -0.6481 -3.3902 -0.1875
10724SOL    HW236215   2.484   8.631   0.351 -0.6184 -0.2547  0.7816
10725SOL     OW36216   4.709   1.642   5.528 -0.3274 -0.4391  0.0216
10725SOL    HW136217   4.727   1.612   5.618 -1.6304  0.1851  0.5127
10725SOL    HW236218   4.680   1.733   5.539 -1.1516 -0.5744 -0.9757
10726SOL     OW36219   7.691   4.565   5.607  0.0395  0.4795 -0.0476
10726SOL    HW136220   7.618   4.523   5.561 -0.0397 -0.3221  0.7791
10726SOL    HW236221   7.733   4.493   5.655 -0.1070  1.3435  1.4350
10727SOL     OW36222   5.318   9.118   8.033 -0.0675 -0.2704 -0.3690
10727SOL    HW136223   5.336   9.195   8.088  1.5712 -0.1897 -0.9507
10727SOL    HW236224   5.405   9.082   8.013 -0.7013 -1.1970 -1.6231
10728SOL     OW36225   2.684   4.471   4.681 -0.1700 -0.1131 -0.2645
10728SOL    HW136226   2.660   4.429   4.599  0.7105  0.2258 -0.7123
10728SOL    HW236227   2.760   4.525   4.659  2.2353 -2.5304  1.4041
10729SOL     OW36228   0.314   2.732   3.389 -0.0783 -0.0485  0.1763
10729SOL    HW136229   0.221   2.751   3.405 -0.2201  0.9389 -1.5526
10729SOL    HW236230   0.357   2.749   3.473 -1.1764  1.4821  0.4744
10730SOL     OW36231   3.185   8.880   6.224 -0.1485  0.1712  0.2877
10730SOL    HW136232   3.124   8.941   6.182 -1.1746 -1.0461 -0.0584
10730SOL    HW236233   3.271   8.911   6.198 -0.6531  1.2200 -0.2226
10731SOL     OW36234   1.463   4.149   4.274  0.7318 -0.1684 -0.2654
10731SOL    HW136235   1.498   4.238   4.284 -0.2604  0.0589  1.4038
10731SOL    HW236236   1.509   4.097   4.341 -0.2940 -0.4162  0.2571
10732SOL     OW36237   8.866   6.196   9.556  0.6608  0.0766  0.1019
10732SOL    HW136238   8.960   6.178   9.554  0.8118  0.6473  1.0839
10732SOL    HW236239   8.838   6.170   9.644 -0.7151 -2.7802 -1.0307
10733SOL     OW36240   5.538   3.650   2.874  0.3558 -0.0387  0.5556
10733SOL    HW136241   5.457   3.700   2.875 -0.2331 -0.7944 -2.3128
10733SOL    HW236242   5.606   3.713   2.848  0.3809  0.1658  1.0966
10734SOL     OW36243   1.806   6.765   4.812 -0.7177 -0.4165 -0.1148
10734SOL    HW136244   1.783   6.843   4.762  0.0120  1.8599  2.8183
10734SOL    HW236245   1.738   6.701   4.789 -1.6908  1.2529 -2.2003
10735SOL     OW36246   8.630   9.330   7.844  0.1208 -0.4258 -0.0253
10735SOL    HW136247   8.605   9.271   7.915  0.0914  0.4620  0.7165
10735SOL    HW236248   8.689   9.393   7.885 -0.9581  0.9196 -0.4716
10736SOL     OW36249   6.557   8.490   9.780 -0.5018  0.0812 -0.0746
10736SOL    HW136250   6.610   8.456   9.852  0.9480 -0.7497 -1.4469
10736SOL    HW236251   6.522   8.412   9.737  0.9980  0.3483 -1.9163
10737SOL     OW36252   9.544   4.029   7.843  0.1674  0.1769  0.0430
10737SOL    HW136253   9.507   3.983   7.768 -1.1592  0.5560  0.4388
10737SOL    HW236254   9.603   4.093   7.805  0.0043 -0.0677 -0.6450
10738SOL     OW36255   8.000   6.684   8.651 -0.2479 -0.7153 -0.1238
10738SOL    HW136256   8.058   6.643   8.587 -1.6772 -2.6091 -0.2679
10738SOL    HW236257   7.912   6.666   8.619 -0.9795  1.2945  0.5890
10739SOL     OW36258   1.160   6.708   6.117 -0.0423 -0.0499  0.2419
10739SOL    HW136259   1.124   6.796   6.115 -0.1800 -0.1028  0.3373
10739SOL    HW236260   1.170   6.688   6.210 -0.8394 -0.4664  0.2489
10740SOL     OW36261   8.913   9.992   9.989 -0.3877  0.1898 -0.0855
10740SOL    HW136262   8.878  10.073  10.026 -0.5863  0.0667 -0.0031
10740SOL    HW236263   8.919  10.010   9.895  0.5485  0.6654  0.0517
10741SOL     OW36264   2.134   6.401   7.172  0.2453 -0.4353  0.2059
10741SOL    HW136265   2.073   6.386   7.244 -1.0067 -0.3054 -0.7885
10741SOL    HW236266   2.187   6.321   7.168 -0.5802 -1.0023  0.4143
10742SOL     OW36267   8.859   9.480   7.894 -0.5145 -0.0312  0.3263
10742SOL    HW136268   8.884   9.569   7.917  1.7349 -0.2030 -1.1490
10742SOL    HW236269   8.939   9.429   7.907 -1.2166 -1.4633 -0.7023
10743SOL     OW36270   9.915   9.679   4.478  0.2064  0.0457 -0.0742
10743SOL    HW136271   9.978   9.665   4.549  1.0165 -0.9023 -0.9533
10743SOL    HW236272   9.842   9.724   4.520 -0.0403 -1.8840  1.7411
10744SOL     OW36273   5.635   1.191   0.389 -0.3684  0.2413  0.1091
10744SOL    HW136274   5.590   1.146   0.461 -0.7005  1.1603  0.5038
10744SOL    HW236275   5.707   1.238   0.431 -0.6607  0.9153 -0.1185
10745SOL     OW36276   9.585   7.038   8.392 -0.1949  0.5163 -0.3305
10745SOL    HW136277   9.620   6.988   8.318  1.8683  0.1256  0.8267
10745SOL    HW236278   9.539   6.973   8.445  0.4487  0.2826 -0.0428
10746SOL     OW36279   1.782   2.213   3.521  0.0458 -0.2206 -0.0238
10746SOL    HW136280   1.763   2.221   3.427 -2.2179 -0.9621  0.3101
10746SOL    HW236281   1.870   2.175   3.524  0.3317  0.2001 -1.8269
10747SOL     OW36282   4.969   0.477   5.725  0.0717 -0.3339 -0.0153
10747SOL    HW136283   4.886   0.519   5.750  0.1154 -1.7245  2.9914
10747SOL    HW236284   4.957   0.452   5.634 -1.9939  1.3671 -0.2987
10748SOL     OW36285   5.479  10.292   3.123  0.5706  0.0084  0.1014
10748SOL    HW136286   5.508  10.312   3.212 -0.4171  1.7513  0.0862
10748SOL    HW236287   5.560  10.284   3.073  1.1600 -1.5366  1.2302
10749SOL     OW36288   0.179   0.955  10.016  0.2592  0.3852  1.4302
10749SOL    HW136289   0.131   0.885  10.061 -0.9520 -0.5652 -1.1213
10749SOL    HW236290   0.257   0.911   9.982 -0.3105  0.3165  0.1538
10750SOL     OW36291   4.006   7.671   4.499 -0.5045 -0.6279 -0.2159
10750SOL    HW136292   3.914   7.647   4.506 -0.3743 -0.7996  1.4485
10750SOL    HW236293   4.007   7.765   4.518 -0.4153 -0.4630 -1.0255
10751SOL     OW36294   1.908   0.195  10.158 -0.2774  0.5591  0.5625
10751SOL    HW136295   1.917   0.154  10.244  1.3537 -0.0712  0.1422
10751SOL    HW236296   1.969   0.269  10.161  0.5837 -0.0880 -0.3820
10752SOL     OW36297   7.131   0.443   3.497 -0.3790 -0.0339 -0.0475
10752SOL    HW136298   7.090   0.528   3.480 -0.2002 -0.1801 -1.3486
10752SOL    HW236299   7.070   0.397   3.554  0.9341  2.1002  3.4038
10753SOL     OW36300   2.946   1.232   3.707  0.3680 -0.1780  0.3335
10753SOL    HW136301   2.868   1.226   3.652 -0.5397  1.6119  1.3512
10753SOL    HW236302   3.008   1.170   3.667 -0.6654  0.1727 -1.9649
10754SOL     OW36303   5.101   4.658   2.703 -0.0332 -0.3257  0.4771
10754SOL    HW136304   5.163   4.702   2.645 -0.2341 -0.0557  0.4627
10754SOL    HW236305   5.108   4.705   2.786 -1.7923  1.1502 -0.1515
10755SOL     OW36306   0.878   6.998   9.289 -0.6151  0.0282 -0.3317
10755SOL    HW136307   0.966   7.037   9.294 -0.1867 -0.8366 -0.8147
10755SOL    HW236308   0.868   6.950   9.371 -0.1614 -0.8231 -0.7675
10756SOL     OW36309   1.903   4.831   7.889 -0.2487  0.4312 -0.1977
10756SOL    HW136310   1.942   4.761   7.940  0.0988  0.4204 -0.4738
10756SOL    HW236311   1.813   4.802   7.872  0.1937 -0.4271 -1.1860
10757SOL     OW36312   5.956   6.116   9.343 -0.0821  0.1033 -0.1801
10757SOL    HW136313   5.905   6.191   9.370 -1.0961 -0.8495  0.6300
10757SOL    HW236314   6.016   6.099   9.415  0.6035  0.5121 -0.6387
10758SOL     OW36315   5.738   8.346   9.375  0.0138  0.5260 -0.1079
10758SOL    HW136316   5.804   8.404   9.337  1.0412 -1.1589 -1.0882
10758SOL    HW236317   5.776   8.258   9.365 -2.0362 -0.4346  0.0636
10759SOL     OW36318   7.301   2.201   0.340 -0.2924  0.5203  0.0694
10759SOL    HW136319   7.286   2.225   0.432 -0.7508 -0.9811  0.4178
10759SOL    HW236320   7.219   2.222   0.296 -1.5357 -2.2638  0.8128
10760SOL     OW36321   8.662   0.274   1.330  0.2413 -0.0311 -0.7574
10760SOL    HW136322   8.573   0.286   1.362  0.5820  1.5712 -0.2825
10760SOL    HW236323   8.683   0.183   1.350 -0.5372  0.1589  1.1314
10761SOL     OW36324   1.685   3.404   0.446 -0.5262  0.3252  0.2148
10761SOL    HW136325   1.666   3.497   0.432 -0.8394 -0.1181 -3.1266
10761SOL    HW236326   1.599   3.364   0.460 -0.5601  0.2911 -0.0998
10762SOL     OW36327   3.469   9.122   2.078 -0.4008 -0.3746  0.6243
10762SOL    HW136328   3.500   9.201   2.033 -2.2904 -0.2690 -0.6169
10762SOL    HW236329   3.526   9.113   2.154  1.5979  0.6377 -0.6829
10763SOL     OW36330   4.021  10.045   8.147 -0.0982  0.2229 -0.1847
10763SOL    HW136331   4.052  10.099   8.074  1.0194  0.8428  0.7098
10763SOL    HW236332   4.099  10.032   8.202 -1.0226  0.1987  1.1626
10764SOL     OW36333   7.824   8.693   2.849  0.4822 -0.7947 -0.3408
10764SOL    HW136334   7.823   8.616   2.792  1.6136  0.0927 -1.6148
10764SOL    HW236335   7.733   8.704   2.876  0.0039 -1.5516 -1.5685
10765SOL     OW36336   4.203   0.808   2.186 -0.4337  0.1359  0.2910
10765SOL    HW136337   4.220   0.720   2.153  1.4124  0.7115 -0.4325
10765SOL    HW236338   4.269   0.822   2.254  1.1927  1.9072 -1.5113
10766SOL     OW36339   8.823   4.151   1.745  0.1321  0.2481  0.2723
10766SOL    HW136340   8.890   4.185   1.687 -0.8110  0.8986 -0.4700
10766SOL    HW236341   8.867   4.141   1.830  1.1414  0.6867 -0.1876
10767SOL     OW36342  10.262   7.890   4.548  0.4772  0.3199 -0.0814
10767SOL    HW136343  10.205   7.827   4.592  0.0602  1.1177  0.5632
10767SOL    HW236344  10.320   7.923   4.617  0.0264  1.3563 -0.1668
10768SOL     OW36345   6.248   3.807   3.605 -0.1676  0.3920 -0.9975
10768SOL    HW136346   6.201   3.804   3.689  0.3040  2.0515 -0.6388
10768SOL    HW236347   6.180   3.791   3.539 -1.2070  2.2869 -0.4687
10769SOL     OW36348   4.793   0.682   7.586  0.2039  0.1339  0.6809
10769SOL    HW136349   4.765   0.768   7.617 -1.0127 -0.0588  0.1775
10769SOL    HW236350   4.782   0.624   7.662  0.4474  0.3028  0.8452
10770SOL     OW36351   7.125   9.647   6.347  0.5207  0.0506  0.1814
10770SOL    HW136352   7.187   9.636   6.419 -0.6531  0.5932  1.3196
10770SOL    HW236353   7.154   9.728   6.304  3.1353 -1.8500 -2.0268
10771SOL     OW36354   1.092   2.310   6.579 -0.3048 -0.2383  0.5779
10771SOL    HW136355   1.052   2.257   6.647 -1.8860  0.8744  0.5693
10771SOL    HW236356   1.019   2.343   6.527  0.5769  1.8260  0.5225
10772SOL     OW36357   0.967   9.328   1.604 -0.0140 -0.2954  0.6164
10772SOL    HW136358   1.041   9.289   1.558 -0.8490 -1.4210  0.1766
10772SOL    HW236359   0.974   9.295   1.694 -0.4552 -1.1155  0.3594
10773SOL     OW36360   6.884   4.173   3.731 -0.2465 -0.3185 -0.4595
10773SOL    HW136361   6.821   4.231   3.774 -0.0772 -0.5521  0.1227
10773SOL    HW236362   6.966   4.188   3.779 -0.2345 -1.1400 -0.2081
10774SOL     OW36363   6.296   6.302   7.478 -0.4449  0.0691  0.2388
10774SOL    HW136364   6.367   6.343   7.528 -1.5129  0.5626  1.3799
10774SOL    HW236365   6.311   6.331   7.388  0.3920  0.7367  0.5742
10775SOL     OW36366   7.634   3.046   9.920 -0.4920 -0.0905 -0.1908
10775SOL    HW136367   7.630   3.142   9.915 -2.6340 -0.0726  0.6803
10775SOL    HW236368   7.665   3.029  10.009  0.8761 -0.2356 -0.6789
10776SOL     OW36369   1.207   4.348   0.802 -0.2652  0.3494  0.2862
10776SOL    HW136370   1.193   4.316   0.891  0.9932  2.7045  1.4168
10776SOL    HW236371   1.272   4.288   0.766 -0.2549 -0.2164  1.1941
10777SOL     OW36372   7.913   9.152   6.387 -0.1473  0.1103  0.1188
10777SOL    HW136373   7.894   9.120   6.298  1.8262 -1.0416  0.0616
10777SOL    HW236374   7.982   9.095   6.419 -1.1816  0.1423  2.6588
10778SOL     OW36375   5.882   5.431   6.529 -0.6443 -0.2737 -0.0197
10778SOL    HW136376   5.800   5.383   6.544 -0.4602 -0.4290  0.5482
10778SOL    HW236377   5.944   5.363   6.502 -1.0139  0.0322 -1.7167
10779SOL     OW36378   9.886   4.047   2.987  0.5987 -0.4664 -0.1034
10779SOL    HW136379   9.811   3.995   2.957 -0.0611  0.1294  0.4840
10779SOL    HW236380   9.904   4.106   2.914 -0.5006  0.4395  0.3188
10780SOL     OW36381   6.557   6.580   8.506 -0.4141  0.3125  0.1218
10780SOL    HW136382   6.474   6.547   8.473 -1.6662  2.8428  0.4510
10780SOL    HW236383   6.534   6.625   8.588  1.6738 -0.8037  1.4263
10781SOL     OW36384   7.194   9.925   6.295  0.4060 -0.3961 -0.2040
10781SOL    HW136385   7.242   9.993   6.248 -0.3341 -1.5014 -2.7766
10781SOL    HW236386   7.113   9.915   6.245 -0.4162 -1.7605  1.3098
10782SOL     OW36387   4.196   2.886   5.204  0.3868  0.3140  0.7479
10782SOL    HW136388   4.173   2.967   5.159  0.2056 -0.9008 -1.4406
10782SOL    HW236389   4.128   2.876   5.272 -2.3769 -0.2755 -1.8896
10783SOL     OW36390   3.511   3.417   7.295 -0.1178  0.0647 -0.0231
10783SOL    HW136391   3.489   3.435   7.386 -0.2258  1.0824 -0.2333
10783SOL    HW236392   3.598   3.376   7.298  1.3996  3.0336  0.4024
10784SOL     OW36393   8.751   6.495   9.525  0.1908 -0.0477 -0.3677
10784SOL    HW136394   8.769   6.589   9.518  1.7265 -0.3493 -0.9796
10784SOL    HW236395   8.815   6.463   9.589  0.7043 -0.8966 -1.2733
10785SOL     OW36396   5.162  10.146  10.264  0.1346 -0.2140  0.6683
10785SOL    HW136397   5.134  10.139  10.356 -1.3678 -2.3850  0.1112
10785SOL    HW236398   5.135  10.234  10.238 -1.8237 -0.4852  1.5865
10786SOL     OW36399   4.597   6.572   4.945  0.0360  0.2527 -0.8486
10786SOL    HW136400   4.643   6.572   4.861  0.5487  2.0514 -0.6117
10786SOL    HW236401   4.666   6.556   5.010 -0.2216 -0.3062 -0.7087
10787SOL     OW36402   9.784   0.082   3.922 -0.0449  0.1393  0.1218
10787SOL    HW136403   9.746   0.144   3.984  0.2180 -0.9777  1.4441
10787SOL    HW236404   9.878   0.101   3.924 -0.2282  1.4482 -1.5093
10788SOL     OW36405   2.714   6.747   4.591  0.0588 -0.4597 -0.2610
10788SOL    HW136406   2.693   6.839   4.575 -0.2969 -0.4280  0.3447
10788SOL    HW236407   2.629   6.705   4.603  0.2301 -0.8331 -0.3464
10789SOL     OW36408   8.891   0.833   9.301 -0.2555 -0.3065 -0.6016
10789SOL    HW136409   8.822   0.866   9.243 -0.0591 -0.3741 -0.8721
10789SOL    HW236410   8.874   0.738   9.306 -0.8979 -0.1629  0.2783
10790SOL     OW36411   6.881   0.887   9.195 -0.0258 -0.4117 -0.5058
10790SOL    HW136412   6.805   0.897   9.252  1.3940  1.1961  1.2302
10790SOL    HW236413   6.907   0.795   9.206 -1.8337 -1.0841 -1.3866
10791SOL     OW36414   7.175   3.253   6.097  0.1513  0.2503  0.1461
10791SOL    HW136415   7.258   3.256   6.050  0.9088  2.4826  1.4897
10791SOL    HW236416   7.145   3.162   6.087  2.5340 -0.5136 -0.7249
10792SOL     OW36417   3.748   7.382   5.470  0.4382 -0.1577 -0.0948
10792SOL    HW136418   3.727   7.304   5.419  0.1424 -0.5347  0.5979
10792SOL    HW236419   3.669   7.436   5.465  0.1009 -0.5788  0.6714
10793SOL     OW36420   6.543  10.029   3.544 -0.2899 -0.2325 -0.4952
10793SOL    HW136421   6.494  10.041   3.625  0.8023 -0.4200  0.2121
10793SOL    HW236422   6.540  10.115   3.501 -0.9043 -0.1408 -0.2814
10794SOL     OW36423   8.430   7.678   9.209  0.2348  0.0089  0.2869
10794SOL    HW136424   8.486   7.616   9.256  0.0767 -0.3070  0.0626
10794SOL    HW236425   8.483   7.758   9.203  0.5804 -0.2176  0.2702
10795SOL     OW36426   8.322   2.222   4.808 -0.6271 -0.1610  0.0987
10795SOL    HW136427   8.359   2.204   4.722 -0.5994  0.9873 -0.1565
10795SOL    HW236428   8.242   2.271   4.790  0.2630  1.6280  0.7275
10796SOL     OW36429   2.772   9.465   1.686 -0.5104  0.1257 -0.2021
10796SOL    HW136430   2.742   9.418   1.764  0.8672  1.4927  1.2238
10796SOL    HW236431   2.742   9.555   1.699 -0.6016  0.2929 -1.4578
10797SOL     OW36432   8.340   4.789   3.936  0.4226 -0.0612  0.2349
10797SOL    HW136433   8.329   4.738   4.016  1.1367  0.0179  0.3955
10797SOL    HW236434   8.294   4.871   3.953 -0.4250 -0.5055  0.1103
10798SOL     OW36435   3.310   1.588   4.974 -0.2391  0.0973  0.7568
10798SOL    HW136436   3.401   1.592   5.002 -0.0422 -1.6324  0.4486
10798SOL    HW236437   3.310   1.631   4.888  0.0739  1.0100  1.2002
10799SOL     OW36438   3.324   2.112   0.406 -0.2750 -0.5917  0.6763
10799SOL    HW136439   3.323   2.158   0.490 -0.4934  0.3351  0.1885
10799SOL    HW236440   3.305   2.021   0.427 -3.0961  0.0664  1.3922
10800SOL     OW36441   1.304   3.695   2.370  0.5373 -0.3955  0.5728
10800SOL    HW136442   1.343   3.781   2.385  0.8207 -0.0351 -1.7946
10800SOL    HW236443   1.217   3.714   2.334  0.7664 -1.0447 -0.3765
10801SOL     OW36444   7.814  10.170   9.016  0.0658  0.0576  0.0012
10801SOL    HW136445   7.811  10.150   9.110  1.8869  2.6443  0.7356
10801SOL    HW236446   7.820  10.084   8.974 -1.2510 -1.2028  2.1777
10802SOL     OW36447   4.795   1.976   9.938 -0.4666 -0.6044  0.0282
10802SOL    HW136448   4.774   2.029  10.015 -0.4180  0.1133 -0.4511
10802SOL    HW236449   4.738   1.900   9.946 -0.2201 -0.7104  0.9581
10803SOL     OW36450   7.852   5.544   4.086 -0.1247  0.1126  0.1404
10803SOL    HW136451   7.944   5.526   4.069 -0.4474  0.3756 -2.0996
10803SOL    HW236452   7.813   5.457   4.099  0.5465  0.0397  2.0995
10804SOL     OW36453   7.432   8.344   4.809 -0.3431  0.1556  0.6309
10804SOL    HW136454   7.375   8.411   4.847  1.4232  0.6631  2.5981
10804SOL    HW236455   7.512   8.348   4.862  1.7923 -0.1329 -2.3190
10805SOL     OW36456   7.962   0.984   7.528 -0.1681  0.5734  0.0444
10805SOL    HW136457   7.948   0.934   7.448  0.5288  0.6503 -0.1268
10805SOL    HW236458   8.051   1.016   7.522  0.4166 -0.6283  1.5216
10806SOL     OW36459   7.915   3.057   4.878 -0.5072 -0.4206 -0.0317
10806SOL    HW136460   7.937   3.061   4.785 -0.3362 -0.4913  0.0043
10806SOL    HW236461   7.963   2.981   4.911  0.8771  0.6246  0.4767
10807SOL     OW36462   2.285   6.573   1.820 -0.3653 -0.6542 -0.5484
10807SOL    HW136463   2.342   6.556   1.895  0.2638  2.8225 -0.0718
10807SOL    HW236464   2.204   6.527   1.841  0.5721 -1.6537  1.1469
10808SOL     OW36465   9.268   8.167   2.602 -0.5136  0.2503 -0.0849
10808SOL    HW136466   9.353   8.127   2.622 -0.8094 -1.0485 -1.2394
10808SOL    HW236467   9.221   8.165   2.685  0.3418  0.3615  0.4173
10809SOL     OW36468   6.818  10.278   2.195 -0.0496  0.1786  0.5665
10809SOL    HW136469   6.889  10.255   2.256 -1.0391  0.8627  2.0519
10809SOL    HW236470   6.813  10.373   2.200  1.7766  0.6191 -2.9194
10810SOL     OW36471   0.113   1.768   9.423 -0.5331 -0.1198 -0.4525
10810SOL    HW136472   0.103   1.863   9.431 -3.0417 -0.1124 -2.4411
10810SOL    HW236473   0.157   1.755   9.339 -2.4663 -0.6750 -1.4577
10811SOL     OW36474   7.440   3.703   4.355  0.6690 -0.0290  0.3787
10811SOL    HW136475   7.491   3.624   4.373 -1.4486 -1.6370 -0.2774
10811SOL    HW236476   7.364   3.672   4.305  0.2570  2.5690 -0.7818
10812SOL     OW36477   2.466   3.109   1.648 -0.1039  0.0333  0.0213
10812SOL    HW136478   2.387   3.162   1.651  0.3234  0.6277  2.0032
10812SOL    HW236479   2.449   3.045   1.579 -1.7176  1.0435 -0.5775
10813SOL     OW36480   0.921   5.294   6.076  0.2746  0.0712 -0.1991
10813SOL    HW136481   1.014   5.318   6.081  0.4138 -0.6771  1.1758
10813SOL    HW236482   0.883   5.328   6.157 -1.2535  2.6615 -1.8633
10814SOL     OW36483   4.117   0.183   9.559 -0.3708  0.1540 -1.1678
10814SOL    HW136484   4.092   0.266   9.518  0.0573  0.2529 -1.2305
10814SOL    HW236485   4.196   0.156   9.513 -0.1008  0.0733 -0.6659
10815SOL     OW36486   0.359   4.744   4.549 -0.2320 -0.2755 -0.2207
10815SOL    HW136487   0.424   4.812   4.567 -0.1829  0.2111 -2.0478
10815SOL    HW236488   0.401   4.686   4.486 -0.6585 -1.4451  0.5335
10816SOL     OW36489   2.650   4.693   1.080 -0.4695  0.5796 -0.2654
10816SOL    HW136490   2.570   4.651   1.111  0.4298  1.1459  3.1352
10816SOL    HW236491   2.647   4.681   0.985 -2.6927 -2.7453  0.0440
10817SOL     OW36492   9.076   8.097   7.235  0.1797  0.0879  0.7459
10817SOL    HW136493   9.081   8.030   7.304 -0.6919  0.6121  1.3364
10817SOL    HW236494   9.003   8.069   7.180  0.6046 -0.0976  0.2599
10818SOL     OW36495   6.406   5.885   2.703  0.2384 -0.0291 -0.1889
10818SOL    HW136496   6.451   5.927   2.630 -0.3048 -0.9491 -1.0797
10818SOL    HW236497   6.378   5.800   2.668 -1.8584  0.3603  0.4228
10819SOL     OW36498   3.475   0.730   8.096 -0.7094 -0.0447  0.6919
10819SOL    HW136499   3.518   0.650   8.127  0.6997 -0.5455 -2.2363
10819SOL    HW236500   3.383   0.707   8.088 -0.3297 -1.3765 -0.0250
10820SOL     OW36501   2.990   7.125   9.964  0.2625 -0.5890 -0.0188
10820SOL    HW136502   2.978   7.167   9.879  0.0097 -2.8105 -1.1531
10820SOL    HW236503   2.907   7.140  10.010  0.1310  0.0231 -0.4443
10821SOL     OW36504   0.695   7.785   9.248 -0.3450  0.3065 -0.0160
10821SOL    HW136505   0.657   7.729   9.180 -0.9976  0.7894 -0.0610
10821SOL    HW236506   0.619   7.822   9.294  0.0543  1.4592 -0.2482
10822SOL     OW36507   6.152   6.765   9.043  0.2187 -0.1085  0.0224
10822SOL    HW136508   6.095   6.733   9.113 -0.2189 -0.9916 -0.7159
10822SOL    HW236509   6.119   6.853   9.023 -0.5976 -0.4350 -0.0889
10823SOL     OW36510   1.529   7.397   8.345 -0.0251 -0.1853  0.0222
10823SOL    HW136511   1.437   7.419   8.326  0.1987  0.6861 -0.0961
10823SOL    HW236512   1.525   7.308   8.379 -0.9272 -0.1443  0.0712
10824SOL     OW36513   0.854   7.667   9.965  0.4224 -0.0158 -0.7103
10824SOL    HW136514   0.890   7.678  10.053 -0.2742 -2.3194 -0.0825
10824SOL    HW236515   0.789   7.737   9.957  0.3508  0.0989  0.6872
10825SOL     OW36516   7.054   7.643   5.818  0.6933  0.0963 -0.0266
10825SOL    HW136517   6.968   7.601   5.818  0.1433  1.1332 -1.6611
10825SOL    HW236518   7.111   7.581   5.865 -0.9458 -0.5496  1.2048
10826SOL     OW36519   1.976   3.610   7.756 -0.2201 -0.3985  0.0660
10826SOL    HW136520   2.044   3.549   7.727  0.4799  0.3840  0.0151
10826SOL    HW236521   1.977   3.603   7.851 -0.3311 -0.6655  0.0483
10827SOL     OW36522   4.186   2.965   0.799  0.0168  0.7595 -0.2583
10827SOL    HW136523   4.163   2.882   0.840  0.4274 -0.6651 -2.7134
10827SOL    HW236524   4.234   3.013   0.866 -0.3068 -0.9450  1.2446
10828SOL     OW36525   9.684   9.742   7.648 -0.2230 -0.4620  0.4310
10828SOL    HW136526   9.675   9.793   7.568 -0.8650 -0.7847  0.2851
10828SOL    HW236527   9.723   9.803   7.711  2.3973 -0.8459 -0.7183
10829SOL     OW36528   7.724   4.562   4.926 -0.4087  0.1047  0.8206
10829SOL    HW136529   7.793   4.629   4.922 -1.7493  1.4980 -0.1871
10829SOL    HW236530   7.679   4.579   5.009 -0.9929  0.7518  0.3872
10830SOL     OW36531   5.419   1.251   8.593 -0.0069  0.8255 -0.1077
10830SOL    HW136532   5.341   1.251   8.650 -0.0992 -1.3112 -0.1560
10830SOL    HW236533   5.487   1.209   8.646  0.9923  2.2134 -0.2561
10831SOL     OW36534   4.487   3.673  10.206 -0.3144 -0.4686  0.5475
10831SOL    HW136535   4.484   3.609  10.135  1.2833 -1.8871  1.6800
10831SOL    HW236536   4.401   3.715  10.204 -0.8487 -1.5319 -1.2363
10832SOL     OW36537   3.936   0.248   5.021 -0.4255  0.1818 -0.3038
10832SOL    HW136538   3.994   0.317   5.053  0.6134 -1.5340  1.7677
10832SOL    HW236539   3.849   0.273   5.052 -0.3571  1.3379 -0.9822
10833SOL     OW36540   0.954   2.347   9.456  0.0641  0.1124  0.1594
10833SOL    HW136541   0.923   2.258   9.440  0.2717  0.1133 -0.2794
10833SOL    HW236542   0.881   2.403   9.432  0.7755  0.1806 -2.1153
10834SOL     OW36543   9.189   6.390   9.072 -0.2254 -0.5518 -0.1561
10834SOL    HW136544   9.163   6.303   9.103 -3.0866 -0.2246 -1.3446
10834SOL    HW236545   9.159   6.450   9.140  0.2220 -0.3537 -0.1301
10835SOL     OW36546   5.215   6.565   9.918 -0.7547  0.2756 -0.0691
10835SOL    HW136547   5.226   6.483   9.966 -1.0464  1.2531  1.7351
10835SOL    HW236548   5.124   6.562   9.886 -0.9281  0.1342  0.4350
10836SOL     OW36549   5.676  10.177   5.903  0.1080  0.7815  0.2934
10836SOL    HW136550   5.667  10.179   5.998 -1.0697  0.6152  0.2091
10836SOL    HW236551   5.640  10.092   5.878  1.1925  0.4655 -0.2420
10837SOL     OW36552   9.772   0.233   8.270 -0.0402 -0.6412  0.2349
10837SOL    HW136553   9.754   0.194   8.356  1.3534 -0.6850  0.5379
10837SOL    HW236554   9.777   0.158   8.210 -0.4793 -0.6560  0.2148
10838SOL     OW36555   0.224   6.611   9.311  0.1637  0.2965  0.1633
10838SOL    HW136556   0.288   6.596   9.380 -0.0478  0.6570  0.4424
10838SOL    HW236557   0.258   6.686   9.263  0.2020  0.1790  0.0050
10839SOL     OW36558   2.892   0.134   8.756 -0.5209 -0.3289  0.0296
10839SOL    HW136559   2.824   0.122   8.822 -0.7355  1.8059  0.2789
10839SOL    HW236560   2.847   0.122   8.673 -0.7196 -0.9610  0.2208
10840SOL     OW36561   0.837   7.919   8.554  0.1308 -0.6107 -0.0419
10840SOL    HW136562   0.920   7.965   8.563  0.5961 -1.0639 -1.7378
10840SOL    HW236563   0.781   7.978   8.504 -0.3903 -0.5677  0.5636
10841SOL     OW36564   4.774   4.015   0.555  0.0047  0.1344  0.2482
10841SOL    HW136565   4.842   3.947   0.555  0.2502  0.3528  1.5197
10841SOL    HW236566   4.819   4.093   0.524  0.4079  0.3304  1.2940
10842SOL     OW36567   3.702   4.376   6.944  0.3187 -0.4216 -0.0500
10842SOL    HW136568   3.631   4.429   6.982  0.1299  0.5203 -1.6365
10842SOL    HW236569   3.777   4.394   7.001 -0.4711 -0.7500  1.1460
10843SOL     OW36570   8.127   9.040   1.666 -0.1447 -0.0818 -0.0715
10843SOL    HW136571   8.034   9.035   1.686 -0.3190 -0.6631 -0.9589
10843SOL    HW236572   8.160   9.111   1.721 -0.4073 -2.0401  2.8690
10844SOL     OW36573   2.342   7.404   2.042 -0.2417  0.0566 -0.0482
10844SOL    HW136574   2.334   7.338   1.973 -1.0520 -1.2121  1.2028
10844SOL    HW236575   2.252   7.414   2.075 -0.0112  1.2895  0.2506
10845SOL     OW36576   0.217   5.652   8.936  0.3567  0.4142  0.4971
10845SOL    HW136577   0.243   5.731   8.984 -1.2026  3.0406 -2.5711
10845SOL    HW236578   0.289   5.638   8.874 -0.0395  0.3300  0.0546
10846SOL     OW36579   7.468   0.952   4.703  0.4999  0.0462 -0.1370
10846SOL    HW136580   7.472   0.890   4.775 -2.3091 -1.2342 -0.9063
10846SOL    HW236581   7.451   1.036   4.744 -2.3531 -0.8587  0.7993
10847SOL     OW36582   9.429   2.334   7.215 -0.1162 -0.6499 -0.2483
10847SOL    HW136583   9.342   2.367   7.192 -0.2948 -1.4169 -0.7184
10847SOL    HW236584   9.459   2.289   7.136  1.2370  0.6385 -0.5269
10848SOL     OW36585   2.819  10.117   5.986  0.6613 -0.5227 -0.4632
10848SOL    HW136586   2.904  10.103   5.943  0.2956 -1.4183 -0.9097
10848SOL    HW236587   2.839  10.117   6.079  1.2135 -0.3196 -0.5771
10849SOL     OW36588   4.049   6.842   8.211  0.1835  0.0886  0.2325
10849SOL    HW136589   4.013   6.766   8.165 -1.0954  1.2367 -0.7163
10849SOL    HW236590   3.990   6.854   8.285  1.3993 -0.8596  1.4214
10850SOL     OW36591   4.729   2.402   9.693  0.0479  0.3105 -0.4084
10850SOL    HW136592   4.805   2.375   9.745 -0.2293 -1.3587 -0.7937
10850SOL    HW236593   4.725   2.338   9.621 -0.7924  1.3197 -1.3040
10851SOL     OW36594  10.202   4.613   4.441  1.0156 -0.1107  0.1231
10851SOL    HW136595  10.145   4.567   4.502  2.3094 -0.0500  1.4193
10851SOL    HW236596  10.142   4.667   4.388 -0.2950 -1.5955  0.0412
10852SOL     OW36597   8.381   9.389   1.213 -0.5701 -0.3472 -0.0782
10852SOL    HW136598   8.349   9.372   1.302 -1.1411  0.8008 -0.0513
10852SOL    HW236599   8.393   9.302   1.175 -3.2830 -0.8776  0.0805
10853SOL     OW36600   7.044   7.556   4.617 -0.0533  0.7103  0.3857
10853SOL    HW136601   6.955   7.548   4.652  0.1637 -0.6725  0.6951
10853SOL    HW236602   7.100   7.548   4.694  0.3694  0.2685  0.0334
10854SOL     OW36603   4.857   6.010   2.447  1.0018 -0.2847  0.2143
10854SOL    HW136604   4.850   6.103   2.425 -0.9063 -0.6412 -0.9854
10854SOL    HW236605   4.925   5.977   2.388  0.1691 -0.0381 -0.9234
10855SOL     OW36606   7.124   8.947   1.662 -0.3356  0.2749  0.5148
10855SOL    HW136607   7.042   8.900   1.647 -0.6938  0.7105  1.0404
10855SOL    HW236608   7.165   8.900   1.735  0.7373 -1.0049 -0.8743
10856SOL     OW36609   2.383   6.242   9.409 -0.3920  0.2541 -0.2701
10856SOL    HW136610   2.455   6.304   9.410 -0.5669  0.5914 -2.5221
10856SOL    HW236611   2.360   6.229   9.501  1.6667  1.1283  0.4159
10857SOL     OW36612   7.696   0.336   8.299  0.1481 -0.1514  0.1674
10857SOL    HW136613   7.615   0.311   8.343 -0.6134 -0.3149 -1.2860
10857SOL    HW236614   7.714   0.424   8.331 -0.7584 -0.0021  0.3015
10858SOL     OW36615   8.562   6.025   6.371  0.4775  0.3459 -0.6410
10858SOL    HW136616   8.591   5.946   6.417  1.4331 -1.3422 -3.7983
10858SOL    HW236617   8.641   6.079   6.365  0.5264  0.2536 -0.8463
10859SOL     OW36618   0.988   4.195   9.641 -0.1978 -0.4578  0.4565
10859SOL    HW136619   1.046   4.200   9.717  1.0704  0.0871 -0.4933
10859SOL    HW236620   0.970   4.286   9.619 -0.4385 -0.6091  0.0202
10860SOL     OW36621   2.591   5.482   8.860 -0.2976 -0.1290 -0.6000
10860SOL    HW136622   2.587   5.388   8.873  2.3648 -0.1724  0.5537
10860SOL    HW236623   2.584   5.494   8.765 -0.5110 -1.4714 -0.7703
10861SOL     OW36624   8.915   0.023   3.459  0.1446 -0.2001 -0.3809
10861SOL    HW136625   8.992   0.065   3.422 -0.2077  1.0372  0.2290
10861SOL    HW236626   8.876  -0.025   3.386  1.2917 -0.5736 -0.7694
10862SOL     OW36627   7.108   7.827   8.926 -0.2219  0.6988  0.6479
10862SOL    HW136628   7.138   7.756   8.983  0.1986  1.7461  1.7795
10862SOL    HW236629   7.173   7.831   8.856  0.5751  0.8930  1.3736
10863SOL     OW36630   4.538   5.113   5.332  0.7967 -0.6540  0.4386
10863SOL    HW136631   4.562   5.044   5.269 -0.3580 -0.2210 -0.5093
10863SOL    HW236632   4.614   5.119   5.391  0.7787 -3.0002  0.7991
10864SOL     OW36633   6.310   6.392   6.080  0.2601  1.0378 -0.1241
10864SOL    HW136634   6.315   6.389   5.985 -0.6814  2.1143 -0.2277
10864SOL    HW236635   6.399   6.369   6.110  0.7738  1.4663 -1.2732
10865SOL     OW36636   5.390  10.201   2.310 -0.2487 -0.1837  0.5934
10865SOL    HW136637   5.474  10.201   2.356 -0.6129 -0.1016  1.2713
10865SOL    HW236638   5.330  10.155   2.369 -0.8431  0.3493  0.4173
10866SOL     OW36639   3.966   8.581   2.512 -0.2157  0.5180 -0.2411
10866SOL    HW136640   4.026   8.649   2.542  1.1161 -0.2682 -0.9856
10866SOL    HW236641   3.975   8.511   2.577 -0.2339  0.3467 -0.4223
10867SOL     OW36642   2.506   9.869   3.718  0.0744 -0.0439 -0.9419
10867SOL    HW136643   2.430   9.872   3.659 -0.6854 -1.0770 -0.0569
10867SOL    HW236644   2.503   9.781   3.757  2.0932 -0.3536 -1.3404
10868SOL     OW36645   4.022   1.024   5.605 -0.7927  0.3014 -1.1785
10868SOL    HW136646   4.019   0.929   5.610 -2.1018  0.3860  2.6220
10868SOL    HW236647   4.100   1.043   5.553 -0.4451 -2.7999 -1.9621
10869SOL     OW36648   6.118   8.019   0.536 -0.6590 -0.2841 -0.6585
10869SOL    HW136649   6.075   8.035   0.451 -0.2700 -0.4221 -0.8797
10869SOL    HW236650   6.206   7.991   0.514 -0.0528  1.1390 -0.1875
10870SOL     OW36651   9.360   2.403  10.015 -0.0037 -0.2777 -0.6364
10870SOL    HW136652   9.381   2.349  10.091  1.5299 -0.3725 -1.0863
10870SOL    HW236653   9.421   2.476  10.020  0.9645 -0.9076 -2.3907
10871SOL     OW36654   3.107   5.604   1.105  0.2689  0.4933  0.5586
10871SOL    HW136655   3.039   5.604   1.037  1.6425 -1.5416 -0.9487
10871SOL    HW236656   3.161   5.681   1.086  1.1115 -0.4796 -1.2554
10872SOL     OW36657   3.377   6.226  10.179 -0.3051 -0.1624  0.1445
10872SOL    HW136658   3.387   6.300  10.119 -0.6542  3.4408  3.9855
10872SOL    HW236659   3.466   6.201  10.202 -0.1304  0.5725  0.3150
10873SOL     OW36660   3.761   6.168   6.099 -0.0539  0.3271  0.0175
10873SOL    HW136661   3.773   6.262   6.113 -1.7779  0.8614 -1.6574
10873SOL    HW236662   3.751   6.159   6.004 -0.8967 -1.4175  0.2289
10874SOL     OW36663  10.204   2.547   2.751  0.1153 -0.3039  0.5987
10874SOL    HW136664  10.139   2.563   2.820  1.0663  1.4667  1.1495
10874SOL    HW236665  10.211   2.630   2.705  0.1935 -1.1938 -1.0772
10875SOL     OW36666   7.488   1.910   5.593  0.1285 -0.3319  0.2130
10875SOL    HW136667   7.416   1.879   5.539  0.1987 -0.3812  0.1486
10875SOL    HW236668   7.559   1.848   5.577  0.6836  0.5635 -0.8733
10876SOL     OW36669   1.763   5.696   5.743  0.3437 -0.3666 -0.6520
10876SOL    HW136670   1.791   5.709   5.834  0.3586 -0.9250 -0.5748
10876SOL    HW236671   1.843   5.706   5.691  0.3656 -0.2193 -0.5919
10877SOL     OW36672   0.428   7.486   2.001  0.0979  0.1525  0.4644
10877SOL    HW136673   0.412   7.395   2.023 -0.7776  0.5591  1.6214
10877SOL    HW236674   0.499   7.484   1.937 -0.5470 -1.3792 -0.2158
10878SOL     OW36675   1.651   3.923   2.131  0.0385  0.0552 -0.2452
10878SOL    HW136676   1.644   3.950   2.040  0.0235  0.0769 -0.2375
10878SOL    HW236677   1.742   3.897   2.142 -0.2076 -1.0347 -0.5785
10879SOL     OW36678   1.598   9.764   7.928  0.5109  0.6111 -0.1152
10879SOL    HW136679   1.662   9.712   7.977  0.4010 -0.5674 -1.1838
10879SOL    HW236680   1.558   9.821   7.994  1.8680  0.5915  0.7669
10880SOL     OW36681   2.112   1.913   7.145  0.0352 -0.3145 -0.2589
10880SOL    HW136682   2.194   1.908   7.193 -0.5805 -0.0120  0.8702
10880SOL    HW236683   2.051   1.955   7.206 -0.8609 -0.2024 -1.1990
10881SOL     OW36684   8.755   7.234   2.668 -0.1301  0.0957  0.1723
10881SOL    HW136685   8.714   7.150   2.690  0.3811  0.0305  0.9339
10881SOL    HW236686   8.731   7.250   2.577 -1.5983 -0.0804  0.4990
10882SOL     OW36687   9.233   3.822   3.949  0.0137  0.0514  0.2772
10882SOL    HW136688   9.187   3.750   3.907 -0.7462 -0.0595  1.2927
10882SOL    HW236689   9.326   3.800   3.939 -0.0311  0.6450 -2.4538
10883SOL     OW36690   0.546   4.920   3.673  0.4098 -0.2421 -0.0336
10883SOL    HW136691   0.586   4.932   3.759  1.6660  1.6063 -0.8148
10883SOL    HW236692   0.464   4.970   3.677 -0.0100 -0.9412  0.3613
10884SOL     OW36693   7.974   7.926   2.486  0.2745  0.4799  0.3461
10884SOL    HW136694   7.955   7.893   2.574  2.1384 -0.5816  0.4031
10884SOL    HW236695   7.975   7.848   2.430 -0.3918  1.0851 -0.5349
10885SOL     OW36696   1.217   5.873   3.797 -0.1484 -0.4940 -0.0484
10885SOL    HW136697   1.208   5.940   3.729  0.4262 -0.0519  0.3015
10885SOL    HW236698   1.265   5.917   3.868 -0.6313 -0.9845  0.5935
10886SOL     OW36699   2.657   3.391   0.149  0.5951 -0.3212  0.0635
10886SOL    HW136700   2.666   3.471   0.097 -2.8787 -0.2519 -0.7198
10886SOL    HW236701   2.660   3.420   0.240  1.9526  0.2857 -0.1641
10887SOL     OW36702   8.561   8.567   9.447  0.1070 -0.0448  0.0512
10887SOL    HW136703   8.508   8.638   9.485 -1.0098 -0.7289 -0.1728
10887SOL    HW236704   8.546   8.574   9.353  0.4196 -0.2491 -0.0161
10888SOL     OW36705   7.385   8.826   5.874  0.0825 -0.0704 -0.6038
10888SOL    HW136706   7.335   8.879   5.813  0.1144  0.6633 -0.0100
10888SOL    HW236707   7.332   8.824   5.954  1.4765  1.7378  0.4641
10889SOL     OW36708   9.010   1.011   6.859 -0.4401 -0.0865 -0.1474
10889SOL    HW136709   9.031   0.995   6.950  2.1187 -0.0897 -0.6647
10889SOL    HW236710   8.994   0.924   6.821 -0.3006 -0.1870  0.0281
10890SOL     OW36711   9.738   8.269   8.270 -0.2286  0.3911  0.6503
10890SOL    HW136712   9.746   8.232   8.358  0.6250  1.9633  1.2956
10890SOL    HW236713   9.657   8.319   8.272 -0.6347 -0.2487  0.2628
10891SOL     OW36714   2.584   1.676   8.125 -0.2025 -0.1957  0.0200
10891SOL    HW136715   2.503   1.726   8.132  0.1820  0.3744  0.5295
10891SOL    HW236716   2.637   1.706   8.199 -0.1296 -1.6765  0.6097
10892SOL     OW36717   6.623   9.293   8.001 -0.3252 -0.0201 -0.3181
10892SOL    HW136718   6.603   9.272   8.092 -0.0048 -1.0238 -0.4666
10892SOL    HW236719   6.710   9.256   7.987  0.5069  1.8827 -0.4638
10893SOL     OW36720   3.863   2.240   4.087  0.1725  0.3343 -0.4982
10893SOL    HW136721   3.806   2.307   4.125 -1.2324 -0.7511 -0.5763
10893SOL    HW236722   3.944   2.245   4.137 -0.4558  1.1093  0.4731
10894SOL     OW36723   3.515   8.816   0.219 -0.5084 -0.5882  0.4344
10894SOL    HW136724   3.542   8.780   0.135 -0.7124  0.1839  0.0297
10894SOL    HW236725   3.551   8.905   0.220 -1.1599 -0.3178  0.8224
10895SOL     OW36726   1.536   1.899   6.911 -0.4638  0.6746 -0.0438
10895SOL    HW136727   1.508   1.986   6.882  0.0376  0.7735 -0.2415
10895SOL    HW236728   1.492   1.838   6.851 -2.4030  0.6574  1.3034
10896SOL     OW36729   1.650   3.483   9.451 -0.3137  0.3198 -0.0023
10896SOL    HW136730   1.593   3.509   9.524  0.4720 -0.1857  0.8207
10896SOL    HW236731   1.727   3.445   9.494 -0.2471 -0.8694 -1.1019
10897SOL     OW36732   9.623   6.685   9.081 -0.8200  0.3047 -0.2524
10897SOL    HW136733   9.673   6.629   9.141 -0.7800  0.0916 -0.4849
10897SOL    HW236734   9.541   6.638   9.067 -1.9175  1.4988  1.5941
10898SOL     OW36735   7.806   5.519   5.878 -0.4200 -0.3298 -0.7150
10898SOL    HW136736   7.852   5.490   5.799 -1.1496  0.5460 -1.4918
10898SOL    HW236737   7.840   5.607   5.895  0.6854 -0.9951  0.7392
10899SOL     OW36738   3.306   6.906   4.391  0.0534 -0.1338  0.2503
10899SOL    HW136739   3.313   6.815   4.420 -3.5275 -1.1960 -1.6946
10899SOL    HW236740   3.354   6.909   4.309 -0.1447 -0.3637  0.1261
10900SOL     OW36741   2.533   0.488   9.960  0.4675 -0.3217 -0.0702
10900SOL    HW136742   2.475   0.509   9.887  0.4085 -2.2765 -0.6355
10900SOL    HW236743   2.483   0.427  10.014  0.8424  0.4173  1.1768
10901SOL     OW36744   8.283   4.178   9.118  0.3394 -0.0608 -0.2046
10901SOL    HW136745   8.241   4.156   9.035  1.9113  0.8105 -1.2819
10901SOL    HW236746   8.350   4.109   9.130 -0.6738 -0.8899  1.0011
10902SOL     OW36747   0.170   1.702   2.387  0.6234 -0.5711  0.6897
10902SOL    HW136748   0.134   1.614   2.377  0.2008 -0.3429  0.1515
10902SOL    HW236749   0.159   1.743   2.301 -0.8674  0.6296  1.4012
10903SOL     OW36750   8.738   9.807   3.026 -0.3993  0.1125  0.6695
10903SOL    HW136751   8.695   9.846   2.950  0.5407  1.8033  0.9592
10903SOL    HW236752   8.818   9.859   3.038  1.5501 -2.6082  0.4212
10904SOL     OW36753   3.301   8.629   8.922  0.0413 -0.2413 -0.2111
10904SOL    HW136754   3.346   8.661   9.000  0.3807  0.2397 -0.5898
10904SOL    HW236755   3.210   8.621   8.948  0.3213 -1.1209  0.5365
10905SOL     OW36756   0.198   3.307   8.872  0.4789 -0.1073  0.4167
10905SOL    HW136757   0.106   3.286   8.888  0.3811 -0.9095 -0.9690
10905SOL    HW236758   0.229   3.235   8.818  1.6363  0.6724  0.0080
10906SOL     OW36759   5.918   8.577   2.001 -0.1197 -0.3554 -0.3343
10906SOL    HW136760   5.873   8.644   2.052  0.9387  0.5353 -0.5170
10906SOL    HW236761   6.010   8.585   2.027  0.4983  0.2423 -2.4393
10907SOL     OW36762   0.420   0.405   1.729  0.4177  0.5707 -0.4801
10907SOL    HW136763   0.445   0.496   1.748  0.3403  0.5493 -0.2715
10907SOL    HW236764   0.480   0.377   1.660 -0.7741  1.3989 -1.9048
10908SOL     OW36765   2.913   4.356   4.017  0.2451  0.3085  0.1907
10908SOL    HW136766   2.946   4.425   4.075  1.6763  0.5510 -0.8591
10908SOL    HW236767   2.829   4.390   3.986  0.8871  1.5719 -0.2446
10909SOL     OW36768   7.698   7.724  10.207  0.1706  0.1923 -0.0941
10909SOL    HW136769   7.698   7.774  10.288  0.3766  1.5597 -0.9202
10909SOL    HW236770   7.624   7.758  10.157  0.6738  0.0902 -0.9217
10910SOL     OW36771   8.776   7.267   5.859 -0.3465  0.1990  0.1692
10910SOL    HW136772   8.803   7.247   5.949 -2.3098  4.0231  1.8289
10910SOL    HW236773   8.844   7.326   5.827 -0.5980  0.3166 -0.1491
10911SOL     OW36774   1.001   8.909   8.562  0.7632 -0.0431  0.1276
10911SOL    HW136775   1.050   8.973   8.614 -0.2513  0.0108  1.0642
10911SOL    HW236776   0.940   8.869   8.625 -0.9710  0.4780 -1.1544
10912SOL     OW36777   1.965   9.648   9.104 -0.4400 -0.2500 -0.5920
10912SOL    HW136778   2.016   9.720   9.143  1.0115 -1.3510 -0.3589
10912SOL    HW236779   2.001   9.639   9.016  0.1789 -1.3959 -0.2389
10913SOL     OW36780   2.707   9.184   3.830  0.1523 -0.3118 -0.5833
10913SOL    HW136781   2.673   9.231   3.754 -0.6619 -0.9552 -0.6379
10913SOL    HW236782   2.672   9.232   3.905  0.1361 -0.2534 -0.6277
10914SOL     OW36783   1.025   0.650   7.722  0.2534 -0.1732  0.1532
10914SOL    HW136784   1.002   0.608   7.805  0.3639 -1.0448 -0.2549
10914SOL    HW236785   0.968   0.727   7.719  0.1956 -0.1681  1.0029
10915SOL     OW36786   8.768   2.784   6.101 -0.4035 -0.0022  0.3337
10915SOL    HW136787   8.680   2.820   6.097  0.5190  2.4015 -0.4190
10915SOL    HW236788   8.813   2.824   6.027  1.7129 -0.0049  1.5362
10916SOL     OW36789   6.111   9.519   8.936 -0.6583 -0.5339 -0.3670
10916SOL    HW136790   6.094   9.593   8.878 -0.9163  0.2946  0.7181
10916SOL    HW236791   6.035   9.517   8.994  0.4431 -0.1122  1.1600
10917SOL     OW36792   3.700   5.869   1.008  0.2219  0.1504 -0.0029
10917SOL    HW136793   3.674   5.930   1.077  0.7485  0.3517  0.0190
10917SOL    HW236794   3.689   5.919   0.927  0.8912  0.3626  0.0321
10918SOL     OW36795   3.527   2.744   9.381 -0.1798  0.5687 -0.4298
10918SOL    HW136796   3.582   2.777   9.310  1.9635 -0.7060  0.5327
10918SOL    HW236797   3.544   2.804   9.454 -0.1033  0.1976 -0.1411
10919SOL     OW36798   8.681   9.847   8.676 -0.6346  0.3604 -0.2657
10919SOL    HW136799   8.645   9.766   8.710 -1.2307  0.0724 -1.5111
10919SOL    HW236800   8.605   9.906   8.669 -0.4151  0.6247 -0.4550
10920SOL     OW36801   7.094   3.090   3.855 -0.5387 -0.6252 -0.3818
10920SOL    HW136802   7.051   3.079   3.939 -1.5024  0.7858 -0.6555
10920SOL    HW236803   7.115   3.001   3.827 -0.6140 -1.1396  1.1232
10921SOL     OW36804   0.062   9.493   1.052  0.6455 -0.4222  0.2418
10921SOL    HW136805   0.066   9.556   1.123 -0.8002 -0.2606  0.2139
10921SOL    HW236806  -0.015   9.519   1.001 -0.0437 -2.2485  0.2795
10922SOL     OW36807   1.872   0.600   0.171  0.0675 -0.3793 -0.5282
10922SOL    HW136808   1.893   0.611   0.078 -0.6564  0.0066 -0.6526
10922SOL    HW236809   1.938   0.538   0.203  0.4930 -0.3063 -1.2324
10923SOL     OW36810   3.623   4.093   5.444 -0.5877 -0.8150  0.1012
10923SOL    HW136811   3.556   4.155   5.473 -0.8415 -0.6904 -0.7277
10923SOL    HW236812   3.683   4.145   5.392  0.2526 -0.8978  0.9513
10924SOL     OW36813   9.683   9.137   3.125 -0.5328  0.2156  0.2671
10924SOL    HW136814   9.694   9.104   3.214  1.2826  1.0524  0.3983
10924SOL    HW236815   9.755   9.097   3.076 -0.1331  1.5548 -0.2727
10925SOL     OW36816   9.643   6.360   6.265  0.1337  0.2273 -0.3361
10925SOL    HW136817   9.697   6.324   6.194  1.0300 -1.8659  1.3040
10925SOL    HW236818   9.586   6.288   6.290 -0.5401  1.1004  0.7290
10926SOL     OW36819   1.977   3.128   1.798 -0.6195  0.7576 -0.3337
10926SOL    HW136820   1.979   3.036   1.824 -0.9493  0.6168 -0.7889
10926SOL    HW236821   1.990   3.177   1.880  1.6016  0.3000 -0.3546
10927SOL     OW36822   0.884   1.062   8.773  0.2351  0.5718  0.1572
10927SOL    HW136823   0.868   1.102   8.687 -0.3133  0.4997  0.2219
10927SOL    HW236824   0.936   0.983   8.753  0.2653  0.6522 -0.0902
10928SOL     OW36825   4.838   2.430   2.138 -0.4468  0.3192 -0.3838
10928SOL    HW136826   4.917   2.478   2.163 -0.6862  0.4530  0.1326
10928SOL    HW236827   4.797   2.484   2.071 -1.2926  1.4197  0.9593
10929SOL     OW36828   1.982   8.170   1.252 -0.2776 -0.4897 -0.3549
10929SOL    HW136829   2.031   8.218   1.319 -2.8138  1.7360  0.0722
10929SOL    HW236830   2.036   8.174   1.174  1.2877 -0.3289  0.6955
10930SOL     OW36831   2.167   0.519   4.941 -0.2003 -0.0660 -0.2252
10930SOL    HW136832   2.108   0.580   4.985  0.8192  0.8614 -0.1113
10930SOL    HW236833   2.139   0.432   4.972 -0.7427  0.4385  0.7368
10931SOL     OW36834   7.178   0.326   9.491  0.0013  0.0614 -0.0359
10931SOL    HW136835   7.087   0.312   9.463 -0.4809  0.4534  1.2426
10931SOL    HW236836   7.201   0.245   9.536 -0.2002  0.4827  0.8379
10932SOL     OW36837   0.846   8.124   5.852 -1.0664 -0.5063 -0.5719
10932SOL    HW136838   0.910   8.193   5.871 -1.9068 -0.3629  2.1330
10932SOL    HW236839   0.899   8.053   5.816  0.1668  0.6880 -1.2153
10933SOL     OW36840   3.392   0.462   3.322  0.2343 -0.0211  0.0015
10933SOL    HW136841   3.387   0.367   3.327 -0.7337 -0.1145 -1.7966
10933SOL    HW236842   3.305   0.493   3.346  0.4151  0.3782  0.1540
10934SOL     OW36843   1.390   3.155   6.040 -0.5051 -0.1052  0.2727
10934SOL    HW136844   1.434   3.223   5.988  0.7684 -0.0969  1.3070
10934SOL    HW236845   1.310   3.136   5.991 -0.6198  1.7205 -0.3489
10935SOL     OW36846   9.622   9.236   6.193  0.0092 -0.0452 -0.5835
10935SOL    HW136847   9.627   9.331   6.205  2.4625  0.1891 -2.6425
10935SOL    HW236848   9.529   9.219   6.180 -0.7092  1.7972  1.5016
10936SOL     OW36849   4.299   0.515   2.426  0.3101  0.1622  0.0215
10936SOL    HW136850   4.372   0.508   2.364  0.1053  1.5276 -0.4120
10936SOL    HW236851   4.235   0.452   2.394  0.8504 -0.2711 -0.2328
10937SOL     OW36852   2.769   9.604   4.600 -0.0971 -0.2322  0.0608
10937SOL    HW136853   2.772   9.673   4.666  1.4333  0.0282 -0.2552
10937SOL    HW236854   2.678   9.605   4.570 -0.5145  0.4956  1.2480
10938SOL     OW36855   3.213   8.987   3.657 -0.4970  0.1714  0.1125
10938SOL    HW136856   3.188   8.905   3.699 -1.8670  0.6460  0.2954
10938SOL    HW236857   3.260   8.961   3.578  0.6409 -0.7488  1.0500
10939SOL     OW36858   4.992   3.009   9.829  0.1891  0.2787 -0.0602
10939SOL    HW136859   4.975   3.043   9.741  1.9607 -0.8054 -0.8715
10939SOL    HW236860   4.907   2.973   9.858 -0.4486  0.7732 -1.2558
10940SOL     OW36861   3.438   7.046   2.685 -0.4610  0.1609 -0.0046
10940SOL    HW136862   3.498   7.032   2.758 -0.3123  0.0235 -0.1524
10940SOL    HW236863   3.404   6.959   2.664 -1.1231  0.3036  0.4213
10941SOL     OW36864   3.704   3.199   0.356  0.1471  0.0128 -0.4965
10941SOL    HW136865   3.671   3.218   0.444 -0.6821  0.0629 -0.8151
10941SOL    HW236866   3.783   3.253   0.348 -0.2774  0.6964 -0.1243
10942SOL     OW36867   3.066   6.815   3.883 -0.2883 -0.0373 -0.2009
10942SOL    HW136868   3.160   6.810   3.863 -0.4961  0.4500 -1.3377
10942SOL    HW236869   3.023   6.782   3.805 -1.0753 -0.6844  0.4844
10943SOL     OW36870   8.695   8.960   9.722 -0.3938  0.3242 -0.2070
10943SOL    HW136871   8.725   9.051   9.713  0.4737 -0.0138 -0.9028
10943SOL    HW236872   8.743   8.913   9.654 -2.6099 -0.2525 -1.4437
10944SOL     OW36873   1.088   9.134   0.968 -0.2328 -0.4668 -0.1523
10944SOL    HW136874   1.070   9.146   1.061 -0.8969  0.2260 -0.3583
10944SOL    HW236875   1.090   9.222   0.932  0.3657 -0.7142 -0.7374
10945SOL     OW36876   0.869   6.463   7.678 -0.1038 -0.4983  0.4295
10945SOL    HW136877   0.932   6.535   7.666  1.0199 -1.3939  0.8035
10945SOL    HW236878   0.836   6.446   7.589  1.3682 -1.0532 -0.0334
10946SOL     OW36879   9.210   7.795   3.757  0.3430  0.6143  0.1474
10946SOL    HW136880   9.250   7.789   3.843  1.2409 -0.3997 -0.3179
10946SOL    HW236881   9.281   7.778   3.695 -0.4755  0.3552 -0.7621
10947SOL     OW36882   1.037   7.706   5.057  0.5300  0.3365  0.4472
10947SOL    HW136883   0.998   7.780   5.104 -0.1013  0.0352  0.4131
10947SOL    HW236884   0.966   7.672   5.004  0.7507 -0.4411  0.6387
10948SOL     OW36885   1.342   2.415   6.494 -0.0473  0.3819  0.1803
10948SOL    HW136886   1.389   2.331   6.501 -0.3103  0.2446  0.3146
10948SOL    HW236887   1.267   2.405   6.551 -1.2784 -0.0996 -1.4407
10949SOL     OW36888   5.213   5.562   1.646  0.2202  0.1159  0.2322
10949SOL    HW136889   5.169   5.630   1.698 -0.2144  1.0755 -1.3081
10949SOL    HW236890   5.304   5.565   1.675  0.1486  1.1623  0.4129
10950SOL     OW36891   5.988   4.763   9.426  0.3530 -0.0940 -0.4831
10950SOL    HW136892   5.971   4.762   9.331  0.1242 -0.9108 -0.4444
10950SOL    HW236893   5.934   4.834   9.459 -0.7628 -0.7801 -0.7672
10951SOL     OW36894   8.670   5.634   1.200 -0.1934 -0.4316 -0.1710
10951SOL    HW136895   8.753   5.617   1.244  0.1276  0.9061 -0.2222
10951SOL    HW236896   8.631   5.705   1.250 -1.3397 -1.0586 -0.1345
10952SOL     OW36897   3.622   3.679  10.146  0.3272 -0.1842  0.2984
10952SOL    HW136898   3.581   3.612  10.091 -1.0058  0.0199  0.9906
10952SOL    HW236899   3.628   3.639  10.232  0.9344  0.0494  0.3672
10953SOL     OW36900   1.134   3.271   8.966 -0.3316  0.4647 -0.4338
10953SOL    HW136901   1.174   3.186   8.983  0.5399  0.6193 -1.6041
10953SOL    HW236902   1.040   3.253   8.961 -0.1426 -0.4690 -0.8163
10954SOL     OW36903   6.830   6.912   6.038 -0.5620 -0.3859 -0.0017
10954SOL    HW136904   6.912   6.864   6.039  0.5715  1.4280 -0.3829
10954SOL    HW236905   6.805   6.920   6.130 -0.1301 -0.6675  0.1416
10955SOL     OW36906   7.823  10.282   7.892  0.0269 -0.3151 -0.2677
10955SOL    HW136907   7.770  10.311   7.966  0.0347  0.8507 -0.6876
10955SOL    HW236908   7.894  10.232   7.931  0.4195  0.8667  0.5787
10956SOL     OW36909   7.494   8.962  10.023  0.1098 -0.7810 -0.1370
10956SOL    HW136910   7.555   8.989  10.092  0.0597 -0.6348 -0.1510
10956SOL    HW236911   7.533   8.882   9.987 -0.3919 -1.4693  0.7694
10957SOL     OW36912   9.204   9.893   0.585  0.5723  0.0052 -0.1053
10957SOL    HW136913   9.209   9.860   0.675 -2.2509  0.3612  0.2629
10957SOL    HW236914   9.240   9.823   0.531  2.1447 -0.2904  1.2441
10958SOL     OW36915   8.296   7.447   9.172  0.6298 -0.5214 -0.3751
10958SOL    HW136916   8.304   7.538   9.201  0.1646 -1.1926  2.1149
10958SOL    HW236917   8.355   7.440   9.097  2.5900  1.2462  0.8934
10959SOL     OW36918   8.687   6.369   5.895 -0.0028 -0.0664 -0.3004
10959SOL    HW136919   8.655   6.432   5.831  0.5731 -0.0312 -0.5643
10959SOL    HW236920   8.656   6.284   5.863 -0.2414  0.0172 -0.2896
10960SOL     OW36921   7.954   7.374   7.415 -0.5606  0.3710  0.0985
10960SOL    HW136922   8.007   7.386   7.337  1.0703 -3.2903  0.4409
10960SOL    HW236923   8.018   7.375   7.487 -1.0367 -2.3962  0.6835
10961SOL     OW36924   7.775   9.012   4.050  0.5007  0.3636  0.2830
10961SOL    HW136925   7.695   8.963   4.069  1.2205 -0.6765  0.7796
10961SOL    HW236926   7.769   9.035   3.958  0.5139 -1.4413 -0.2040
10962SOL     OW36927   5.061   7.580   8.453 -0.1242 -0.1673  0.4269
10962SOL    HW136928   5.085   7.627   8.373  0.5479 -2.1500 -0.5990
10962SOL    HW236929   5.030   7.648   8.512  0.5896  1.5262 -1.0546
10963SOL     OW36930   6.629   3.672   9.684 -0.0350  0.5325 -0.4685
10963SOL    HW136931   6.681   3.749   9.661 -1.0824  0.6914 -2.5439
10963SOL    HW236932   6.544   3.687   9.642 -1.1631 -0.5466  1.3224
10964SOL     OW36933   8.855   4.105   4.098 -0.0552 -0.3225 -0.6785
10964SOL    HW136934   8.801   4.135   4.171  1.0584  0.9286 -0.3281
10964SOL    HW236935   8.936   4.155   4.106  1.0933 -2.0014 -1.3001
10965SOL     OW36936   3.551   3.299   9.506  0.2918  0.4503 -0.0856
10965SOL    HW136937   3.478   3.324   9.448 -0.9136  1.3998  1.7274
10965SOL    HW236938   3.604   3.239   9.454 -0.7957  1.1444 -2.1060
10966SOL     OW36939   6.399   7.445   9.502 -0.5672  0.2597 -0.3687
10966SOL    HW136940   6.317   7.475   9.542  0.6421  2.4697  0.5955
10966SOL    HW236941   6.450   7.525   9.488  3.1060 -1.2581  2.7222
10967SOL     OW36942   7.515   0.046   1.179 -0.2743 -0.1554 -0.2295
10967SOL    HW136943   7.505   0.069   1.087 -2.3347  0.6888  0.1634
10967SOL    HW236944   7.430   0.064   1.218  1.1208  1.5727  2.2835
10968SOL     OW36945   1.874   4.537   4.699 -0.3127 -0.0625 -1.1633
10968SOL    HW136946   1.807   4.592   4.661 -1.4668 -1.3526 -1.0831
10968SOL    HW236947   1.890   4.573   4.786 -1.7035 -0.3655 -0.7677
10969SOL     OW36948   2.973   8.668   7.459 -0.0292 -0.7728  0.1139
10969SOL    HW136949   2.896   8.705   7.501 -1.8105 -3.0515 -0.9147
10969SOL    HW236950   3.047   8.715   7.498 -1.8600  0.8712  1.8078
10970SOL     OW36951   0.769   4.137   6.319  0.2026 -0.2236  0.5136
10970SOL    HW136952   0.715   4.100   6.390 -0.9249  1.6113  0.6740
10970SOL    HW236953   0.709   4.192   6.269  1.2970 -0.4132 -1.0922
10971SOL     OW36954   3.869   0.307   8.599 -0.1157 -0.8133 -0.2020
10971SOL    HW136955   3.932   0.260   8.546  0.1449  0.5874 -1.1902
10971SOL    HW236956   3.785   0.291   8.556 -0.4127 -2.3493  0.8830
10972SOL     OW36957   1.216   5.847   3.116 -0.0716  0.3885 -0.1653
10972SOL    HW136958   1.131   5.821   3.080 -0.5354  3.8735 -2.0744
10972SOL    HW236959   1.280   5.815   3.053 -0.0860 -0.8121  0.4104
10973SOL     OW36960   7.033   5.849   2.883 -0.1497 -0.4652  0.8118
10973SOL    HW136961   7.077   5.934   2.891  0.2243 -0.4208 -1.2203
10973SOL    HW236962   7.082   5.791   2.942  0.5480  0.3716  1.0666
10974SOL     OW36963   4.027   0.489   5.677 -0.3306  0.5954 -0.5927
10974SOL    HW136964   4.104   0.482   5.734 -0.1658  1.0529 -0.7566
10974SOL    HW236965   3.972   0.554   5.720 -1.0523 -0.3750  0.0028
10975SOL     OW36966   8.400   1.482   8.256  0.0432  0.2017  0.0642
10975SOL    HW136967   8.336   1.425   8.214 -0.9180  1.1474  0.2112
10975SOL    HW236968   8.485   1.445   8.231 -0.5337 -1.8504  0.9324
10976SOL     OW36969   9.595   1.946   1.232 -0.3625 -0.3780 -0.0374
10976SOL    HW136970   9.563   2.036   1.222 -2.0289 -0.9547 -0.2047
10976SOL    HW236971   9.516   1.892   1.233  0.4913 -1.7184  1.6628
10977SOL     OW36972   8.828   7.968   1.240 -0.6006 -0.1039 -0.5538
10977SOL    HW136973   8.867   7.945   1.325  0.2836  2.1769 -0.2718
10977SOL    HW236974   8.903   7.974   1.181 -0.8165  1.4580 -0.7042
10978SOL     OW36975   8.972   5.557   6.978  0.3959 -0.5567 -0.0848
10978SOL    HW136976   8.930   5.593   6.899 -0.0737 -0.4857  0.1906
10978SOL    HW236977   9.046   5.615   6.994  0.4353 -0.5097 -0.4148
10979SOL     OW36978   8.846   2.568   4.495 -0.4019  0.0170 -0.2022
10979SOL    HW136979   8.857   2.537   4.405 -1.9654 -1.1165 -0.0545
10979SOL    HW236980   8.919   2.529   4.543 -1.1797 -1.8685 -0.4409
10980SOL     OW36981   8.343   5.161   6.047  0.4956 -0.5829 -0.0615
10980SOL    HW136982   8.404   5.106   5.999 -0.8604 -2.7594  0.5889
10980SOL    HW236983   8.291   5.100   6.100 -1.8784  1.1947 -0.1631
10981SOL     OW36984   4.456   1.243   3.264  0.4127 -0.2568  0.0712
10981SOL    HW136985   4.361   1.234   3.259  0.3628  0.4120 -0.3781
10981SOL    HW236986   4.489   1.168   3.213  0.1240 -0.3910  0.0762
10982SOL     OW36987   3.814   2.485   8.695 -0.2413  0.3505 -0.3619
10982SOL    HW136988   3.795   2.441   8.778  0.6120  2.0877  0.8140
10982SOL    HW236989   3.892   2.537   8.712  0.6382 -0.0878 -2.6138
10983SOL     OW36990   6.030   3.769   5.825 -0.8189  0.1666 -0.1168
10983SOL    HW136991   6.031   3.831   5.751 -0.5429  0.5036  0.1627
10983SOL    HW236992   6.039   3.825   5.902 -0.9495 -0.1981  0.1631
10984SOL     OW36993   0.449   5.204   9.069 -0.1479 -0.3877  0.4356
10984SOL    HW136994   0.373   5.167   9.024 -0.0154  0.4501 -0.5118
10984SOL    HW236995   0.460   5.291   9.030  1.7068 -0.7451  0.0839
10985SOL     OW36996   4.344   8.151   8.914 -0.6984  0.2226 -0.2482
10985SOL    HW136997   4.329   8.234   8.869  0.0500 -0.2739 -1.4712
10985SOL    HW236998   4.418   8.112   8.868  0.8611  0.1614  2.1461
10986SOL     OW36999   0.725   6.191   1.785 -0.1497  0.0676  0.2796
10986SOL    HW137000   0.672   6.112   1.793  1.2102 -0.8405  0.6157
10986SOL    HW237001   0.813   6.160   1.762  0.5794  1.4216  1.0424
10987SOL     OW37002   4.777   2.185   8.712 -0.3718  0.5097  0.0932
10987SOL    HW137003   4.793   2.090   8.709  1.0283  0.7402 -0.3844
10987SOL    HW237004   4.682   2.193   8.717 -0.4935 -0.9309  0.4749
10988SOL     OW37005   0.463   8.920   2.283 -0.1990 -0.3642 -0.2872
10988SOL    HW137006   0.501   8.999   2.245 -1.7592  0.0184 -1.1038
10988SOL    HW237007   0.533   8.854   2.275  0.4429  0.4114 -1.3584
10989SOL     OW37008   2.095   9.246   2.651 -0.0147 -0.2101 -0.2477
10989SOL    HW137009   2.023   9.240   2.589 -0.5229  2.5044 -0.0542
10989SOL    HW237010   2.171   9.212   2.604 -0.5284  1.1129 -2.1404
10990SOL     OW37011   1.339   0.958   5.862 -0.3772  1.0231 -0.4777
10990SOL    HW137012   1.394   1.023   5.818 -0.7697  1.4460 -0.3573
10990SOL    HW237013   1.343   0.982   5.954 -0.2407  0.6563 -0.3879
10991SOL     OW37014   0.575   0.339   0.096 -0.0404 -0.5299 -0.2070
10991SOL    HW137015   0.628   0.419   0.102  0.5484 -0.9307  0.1121
10991SOL    HW237016   0.558   0.315   0.187  0.1373 -0.9928 -0.2946
10992SOL     OW37017   0.220   5.677   6.998  0.5055  0.1931  0.4988
10992SOL    HW137018   0.242   5.736   7.071  1.9582  0.6920 -0.3041
10992SOL    HW237019   0.137   5.710   6.965  0.9365  1.3519  0.5243
10993SOL     OW37020   2.056   4.448   3.655  0.3017  0.5836 -0.0010
10993SOL    HW137021   2.043   4.383   3.724  0.8128  0.3824 -0.0947
10993SOL    HW237022   1.983   4.509   3.666  0.5000  0.6835  0.8774
10994SOL     OW37023   3.429   5.412   2.379 -0.3744  0.0209  0.1955
10994SOL    HW137024   3.512   5.383   2.418  0.9138  0.6042 -1.9436
10994SOL    HW237025   3.423   5.505   2.400 -0.7678 -0.1449  0.8177
10995SOL     OW37026   0.253   5.767   6.080 -0.2162 -0.5213  0.2755
10995SOL    HW137027   0.184   5.770   6.145 -0.0965 -0.7153  0.4143
10995SOL    HW237028   0.252   5.676   6.049 -1.8964  0.1071 -1.7598
10996SOL     OW37029   6.891   5.136  10.000 -0.2581  0.6202 -0.0751
10996SOL    HW137030   6.923   5.169  10.084  2.5980  0.2059 -0.8745
10996SOL    HW237031   6.847   5.211   9.960 -0.2498  1.2868  1.1065
10997SOL     OW37032   8.497   3.488   4.865 -0.1324  0.3428 -0.5731
10997SOL    HW137033   8.588   3.518   4.874  0.3173 -1.1716  0.2418
10997SOL    HW237034   8.474   3.456   4.952 -1.8082  1.5925 -0.5109
10998SOL     OW37035   1.083   3.012   4.649 -0.4107  0.5287 -0.0596
10998SOL    HW137036   1.139   3.063   4.590  0.2647 -0.1021  0.0298
10998SOL    HW237037   1.021   2.968   4.590  0.8933 -0.8986 -0.4323
10999SOL     OW37038   3.422   9.742   7.238 -0.3768  0.0114 -0.2616
10999SOL    HW137039   3.509   9.732   7.197 -0.4737 -1.9573 -0.0802
10999SOL    HW237040   3.393   9.828   7.210  1.4363  0.5269 -0.7291
11000SOL     OW37041   1.453   5.875   4.377 -0.0990 -0.1262  0.1430
11000SOL    HW137042   1.533   5.900   4.331  0.3402 -0.4550  0.7317
11000SOL    HW237043   1.383   5.915   4.325  0.4765  0.6377 -0.0610
11001SOL     OW37044   5.388   0.836   1.067 -0.0580  0.3090 -0.0893
11001SOL    HW137045   5.344   0.797   0.991  0.7333 -0.0967 -0.3530
11001SOL    HW237046   5.329   0.905   1.096 -1.8409 -1.4942  0.7832
11002SOL     OW37047   8.294   5.826   6.531  0.1554  0.2766  0.4248
11002SOL    HW137048   8.208   5.822   6.574 -0.5227  0.8925 -0.8158
11002SOL    HW237049   8.335   5.905   6.565 -0.9356  1.5115 -0.9849
11003SOL     OW37050   2.843   7.645   7.450 -0.0569  0.5898 -0.3759
11003SOL    HW137051   2.837   7.551   7.433 -0.9913  0.6201 -0.2514
11003SOL    HW237052   2.801   7.686   7.375 -0.9716  0.8463  0.2521
11004SOL     OW37053   4.774   6.270   2.454  1.0458 -0.1846  0.1186
11004SOL    HW137054   4.802   6.358   2.429  2.0893 -0.6442 -0.3496
11004SOL    HW237055   4.689   6.284   2.497  1.3071  1.0704  0.2629
11005SOL     OW37056   9.677   3.305   9.983 -0.7260  0.4891 -0.3914
11005SOL    HW137057   9.636   3.294   9.896 -0.3456 -0.0054 -0.5098
11005SOL    HW237058   9.606   3.285  10.045 -0.7815  0.0405 -0.5942
11006SOL     OW37059   7.899   0.003   4.144  0.6972  0.2239  0.0346
11006SOL    HW137060   7.975  -0.021   4.091  1.3877  1.4375  0.4477
11006SOL    HW237061   7.859   0.076   4.097 -1.1870 -1.4105 -1.0295
11007SOL     OW37062   5.880   9.782   5.218 -0.3180  0.1267 -0.8692
11007SOL    HW137063   5.864   9.688   5.213 -0.1775  0.0130  0.5058
11007SOL    HW237064   5.972   9.792   5.195  0.0589 -0.2521  0.3894
11008SOL     OW37065   0.848   0.358   6.642 -0.3651 -0.1255 -0.4781
11008SOL    HW137066   0.799   0.384   6.564  0.1330 -0.4418 -0.8996
11008SOL    HW237067   0.937   0.342   6.611 -0.1695 -0.2915  0.1490
11009SOL     OW37068   8.167   7.618   3.716  0.0988  0.0792 -0.4352
11009SOL    HW137069   8.241   7.664   3.679  1.4024 -2.1997 -0.8344
11009SOL    HW237070   8.090   7.661   3.677  1.2665  0.9681 -1.8697
11010SOL     OW37071   8.642   0.002   6.796  0.0777 -0.2734  0.1517
11010SOL    HW137072   8.701   0.045   6.734  0.9356 -1.1534  0.3239
11010SOL    HW237073   8.678   0.024   6.882 -1.0473  0.8610  0.3644
11011SOL     OW37074   2.631   5.251   8.649  0.1625 -0.3146 -0.0423
11011SOL    HW137075   2.584   5.233   8.730 -0.3566  0.4960 -0.1546
11011SOL    HW237076   2.566   5.241   8.580  0.2544  0.3573 -0.2377
11012SOL     OW37077   6.003   2.261   5.979  0.3734  0.2256 -0.2884
11012SOL    HW137078   5.987   2.224   5.893 -1.1770 -0.6714  0.3573
11012SOL    HW237079   6.041   2.348   5.961 -1.2234  0.6449 -1.8957
11013SOL     OW37080   1.642   1.418   6.735 -0.0346 -0.1736 -0.3997
11013SOL    HW137081   1.696   1.467   6.797  1.0095  1.4899 -2.4992
11013SOL    HW237082   1.573   1.380   6.789  0.7707  1.2440  1.7689
11014SOL     OW37083   3.704   5.791   0.067  0.4532  0.6905  0.5469
11014SOL    HW137084   3.678   5.770  -0.023  0.8305 -1.3033  0.8492
11014SOL    HW237085   3.786   5.840   0.058 -0.3402  1.9245 -0.2167
11015SOL     OW37086   7.826   5.837   4.083  0.0671  1.1123  0.2370
11015SOL    HW137087   7.753   5.847   4.144 -1.8529 -1.6577 -1.3903
11015SOL    HW237088   7.835   5.742   4.072  3.5462  1.3545 -0.1741
11016SOL     OW37089   7.954   0.654  10.069 -0.7117  0.2268  0.4256
11016SOL    HW137090   7.906   0.664  10.151  1.6057  0.3042  1.8581
11016SOL    HW237091   8.018   0.725  10.071  0.4908 -0.7977 -0.6463
11017SOL     OW37092   9.486   4.750   9.007 -0.7922 -0.9610 -0.1050
11017SOL    HW137093   9.488   4.655   9.009 -0.1402 -0.9418  1.6497
11017SOL    HW237094   9.395   4.772   8.991 -1.0607 -1.8720  0.1447
11018SOL     OW37095   2.456   1.514   1.292  0.5905 -0.4884  0.0335
11018SOL    HW137096   2.488   1.599   1.260 -1.9292  0.7423  0.5706
11018SOL    HW237097   2.477   1.514   1.385  1.2673 -0.8294 -0.1080
11019SOL     OW37098   3.311   2.671   1.910  0.4545 -0.4149  0.6925
11019SOL    HW137099   3.381   2.728   1.941 -0.9791  0.5384  2.3965
11019SOL    HW237100   3.341   2.583   1.930  0.4125  0.0717  3.2353
11020SOL     OW37101   9.621   0.035   8.841  0.2400 -0.2521  0.6067
11020SOL    HW137102   9.638   0.045   8.747 -0.2370 -1.8145  0.3171
11020SOL    HW237103   9.705   0.011   8.878 -0.0532 -2.1670  0.1304
11021SOL     OW37104   9.327   3.151   2.635  0.1078 -0.3221 -0.1968
11021SOL    HW137105   9.359   3.238   2.660 -0.8570  0.7416 -2.3807
11021SOL    HW237106   9.249   3.138   2.688  0.3597  0.0563  0.2808
11022SOL     OW37107   9.759   7.687   8.105 -0.8788  0.1028  0.3881
11022SOL    HW137108   9.688   7.691   8.042 -1.5251 -1.4979  0.9647
11022SOL    HW237109   9.762   7.775   8.143 -1.1776  0.7780 -1.0767
11023SOL     OW37110   1.593   0.728   8.640  0.0878  0.3530 -0.5243
11023SOL    HW137111   1.635   0.777   8.569 -0.7317  1.5489 -0.2075
11023SOL    HW237112   1.535   0.791   8.682 -0.9295 -0.8655 -0.0280
11024SOL     OW37113   7.712   6.423   9.285 -0.4121  0.2596  0.2651
11024SOL    HW137114   7.759   6.486   9.340  0.2893  0.3537 -0.4326
11024SOL    HW237115   7.772   6.404   9.213 -0.3709 -1.6579  0.7460
11025SOL     OW37116   5.656   5.909   7.126  0.5189  0.1255 -0.1901
11025SOL    HW137117   5.615   5.915   7.040 -3.1390 -0.7578  1.2992
11025SOL    HW237118   5.649   5.816   7.149  1.7103  0.2968  0.9600
11026SOL     OW37119  10.195   4.032   7.911  0.1238 -0.3087  0.1073
11026SOL    HW137120  10.197   3.962   7.977  1.0437 -0.4807 -0.0891
11026SOL    HW237121  10.187   4.113   7.963 -0.6704 -0.5302  0.3466
11027SOL     OW37122   2.343   2.154  10.076 -0.5948  0.5231  0.0403
11027SOL    HW137123   2.270   2.129  10.020  0.5403  1.3969 -1.9217
11027SOL    HW237124   2.409   2.087  10.061 -1.1825 -0.7093  2.4040
11028SOL     OW37125   9.250   8.077   7.613  0.7422 -0.0327 -0.4254
11028SOL    HW137126   9.209   8.149   7.661  2.8190  0.9891 -0.0553
11028SOL    HW237127   9.319   8.045   7.672  0.6031 -1.5957 -1.0517
11029SOL     OW37128   6.531   9.693   8.467  0.1803 -0.2633 -0.3024
11029SOL    HW137129   6.473   9.646   8.526 -0.2452 -0.7435 -1.0910
11029SOL    HW237130   6.476   9.763   8.431  0.0789 -0.7021 -1.0291
11030SOL     OW37131   9.586   7.857   5.982 -0.1618  0.4253 -0.8823
11030SOL    HW137132   9.664   7.809   5.956 -0.4114  0.3315 -1.4636
11030SOL    HW237133   9.573   7.834   6.074  0.7674  0.8170 -0.6399
11031SOL     OW37134   3.127   4.447   6.133 -0.4229  0.0529 -0.2013
11031SOL    HW137135   3.093   4.478   6.217  0.5080 -1.7505  0.9026
11031SOL    HW237136   3.194   4.511   6.109  0.8337 -0.4996  1.5713
11032SOL     OW37137   7.199   0.112   2.172 -0.2254  0.2582  0.0717
11032SOL    HW137138   7.163   0.073   2.252 -2.2102  0.7318 -0.5424
11032SOL    HW237139   7.218   0.036   2.115 -0.1063 -0.0037  0.4573
11033SOL     OW37140   1.341   8.565   2.566 -0.5437  0.2849  0.2193
11033SOL    HW137141   1.265   8.617   2.539 -0.5778 -0.4632 -1.2613
11033SOL    HW237142   1.414   8.602   2.516 -0.2579 -0.0658  0.3767
11034SOL     OW37143   2.413   8.046   0.346  0.3531 -0.2015  0.5343
11034SOL    HW137144   2.362   8.125   0.328 -0.4259 -0.7999  0.0793
11034SOL    HW237145   2.376   7.980   0.288  0.6103 -1.0646  1.3390
11035SOL     OW37146   0.303   0.467   9.491  0.1300  0.3106  0.3404
11035SOL    HW137147   0.327   0.408   9.419 -1.4261 -0.7532  0.6346
11035SOL    HW237148   0.245   0.531   9.451  0.1344  0.3729  0.4346
11036SOL     OW37149   3.897   1.591   0.678 -0.5652  0.0040  0.5701
11036SOL    HW137150   3.811   1.549   0.674  0.6208 -2.6017  0.2323
11036SOL    HW237151   3.932   1.564   0.763 -0.6098  2.2698  1.3599
11037SOL     OW37152   0.667   1.661   6.671 -0.2803  0.3260  0.5706
11037SOL    HW137153   0.606   1.587   6.670 -0.0673  0.1088  2.0064
11037SOL    HW237154   0.614   1.737   6.646 -0.5091 -0.2773 -0.8849
11038SOL     OW37155   1.057   4.194   4.985  0.0253  0.2079 -0.4191
11038SOL    HW137156   1.061   4.103   5.015 -0.3481  0.5676  0.7927
11038SOL    HW237157   0.995   4.236   5.045  0.6782  1.4128 -0.5563
11039SOL     OW37158   3.498   5.546   9.173 -0.4864 -0.1453 -0.2055
11039SOL    HW137159   3.425   5.561   9.233  1.4813 -0.4291  2.4784
11039SOL    HW237160   3.559   5.618   9.192  0.8612 -1.0876 -0.7763
11040SOL     OW37161   5.613   9.773   7.075 -0.5890  1.3760 -0.5543
11040SOL    HW137162   5.625   9.820   6.993  1.2993 -0.3388 -1.3478
11040SOL    HW237163   5.675   9.814   7.136  3.1850 -1.5841 -2.0284
11041SOL     OW37164   9.513   8.201   0.043 -0.4550 -0.0514  0.1264
11041SOL    HW137165   9.546   8.115   0.068  0.2134  0.3185  0.5669
11041SOL    HW237166   9.444   8.184  -0.020  0.1449 -0.8795 -0.3162
11042SOL     OW37167   5.834   6.499   9.834 -0.2101 -0.0473 -0.3921
11042SOL    HW137168   5.814   6.478   9.743 -0.6305 -0.9035 -0.1126
11042SOL    HW237169   5.900   6.435   9.859 -0.0175  0.2554 -0.1224
11043SOL     OW37170   0.433   2.891   0.009 -0.5533  0.5371 -0.1385
11043SOL    HW137171   0.391   2.899  -0.076 -0.3439  0.3574 -0.2602
11043SOL    HW237172   0.362   2.899   0.072 -0.8658 -0.3659 -0.3572
11044SOL     OW37173   3.579   1.378   2.401 -0.8781 -0.0257 -0.5504
11044SOL    HW137174   3.674   1.367   2.410 -1.0588 -0.8184  0.7385
11044SOL    HW237175   3.568   1.435   2.325  0.7029  1.4438  0.2590
11045SOL     OW37176  10.111   6.604   1.615  0.5799  1.1162 -0.3860
11045SOL    HW137177  10.070   6.674   1.667 -0.0029  0.5977 -0.1420
11045SOL    HW237178  10.202   6.632   1.607  1.1705  0.3637  2.4782
11046SOL     OW37179  10.096   6.612   7.933  0.2502  0.1931  0.3265
11046SOL    HW137180  10.089   6.705   7.954  0.6205  0.5008 -0.8378
11046SOL    HW237181  10.171   6.606   7.874  0.0205 -0.7928  0.1165
11047SOL     OW37182   7.669   4.863   6.707 -0.3372 -0.1194 -0.0080
11047SOL    HW137183   7.764   4.863   6.718 -0.1758 -1.0596 -1.2381
11047SOL    HW237184   7.638   4.794   6.766 -0.2196 -0.1108  0.0638
11048SOL     OW37185   8.520   6.743   7.412  0.0463 -0.2247  0.0070
11048SOL    HW137186   8.605   6.755   7.370 -0.4193  2.3321 -0.3584
11048SOL    HW237187   8.536   6.761   7.505  0.1601 -1.1548  0.1741
11049SOL     OW37188   1.769   6.993   4.687 -0.6607  0.0964 -0.1604
11049SOL    HW137189   1.747   7.052   4.615 -0.2913 -1.7016 -1.8100
11049SOL    HW237190   1.706   7.015   4.756  0.4815  3.5123 -0.0082
11050SOL     OW37191   2.951   3.105   5.597  0.8283 -0.0722  0.1437
11050SOL    HW137192   3.029   3.144   5.556  0.2450  1.3060  0.3010
11050SOL    HW237193   2.896   3.081   5.523  1.6685 -1.7038  0.0016
11051SOL     OW37194   5.185   7.765   8.260  0.1517  0.1276  0.2822
11051SOL    HW137195   5.158   7.786   8.170 -0.3414 -0.3884  0.3061
11051SOL    HW237196   5.146   7.834   8.314 -0.5505 -0.2248  0.2351
11052SOL     OW37197   4.904   4.338   4.100 -0.0162  0.1876  0.0008
11052SOL    HW137198   4.974   4.403   4.093 -0.2263  0.2347 -2.4867
11052SOL    HW237199   4.890   4.328   4.194  1.8701  1.7349  0.5086
11053SOL     OW37200   6.868   6.924   0.143 -0.1632 -0.4645  0.7486
11053SOL    HW137201   6.897   6.834   0.156 -0.6643 -0.6420  0.6599
11053SOL    HW237202   6.848   6.957   0.231  1.6682  0.1396  0.9786
11054SOL     OW37203   5.457   4.747   8.019 -0.2471  0.5681 -0.3638
11054SOL    HW137204   5.503   4.668   8.048  0.7172  1.5775  1.0193
11054SOL    HW237205   5.524   4.797   7.973 -0.8131  0.6729 -1.0935
11055SOL     OW37206   2.377   7.896   8.871 -0.3663  0.3723 -0.2456
11055SOL    HW137207   2.440   7.890   8.943 -0.4399 -2.2497 -0.3034
11055SOL    HW237208   2.423   7.860   8.795 -1.1829  0.5528 -0.8461
11056SOL     OW37209   6.165   0.027   3.106  0.0156 -0.9130  0.4636
11056SOL    HW137210   6.136   0.117   3.121  0.7147 -0.7441  0.8335
11056SOL    HW237211   6.147  -0.018   3.188 -1.3898 -1.4101 -0.0911
11057SOL     OW37212   9.219   6.446   8.092  0.2877 -0.3338  0.3899
11057SOL    HW137213   9.146   6.507   8.106 -1.0545 -1.6158 -0.7233
11057SOL    HW237214   9.222   6.393   8.172 -0.6208 -0.8786  0.0724
11058SOL     OW37215   3.162   5.010   7.475 -0.0442  0.0090 -0.0856
11058SOL    HW137216   3.253   5.037   7.478 -0.2908  0.9456 -0.5968
11058SOL    HW237217   3.115   5.082   7.518 -0.6207 -0.0866 -0.5512
11059SOL     OW37218   4.683   8.641   5.910  0.0341  0.3193  0.3472
11059SOL    HW137219   4.628   8.614   5.983  0.0557  0.6917  0.5075
11059SOL    HW237220   4.674   8.737   5.909  1.9066  0.5523  1.3824
11060SOL     OW37221   0.237   0.400   5.180 -0.0067  0.4434  0.3143
11060SOL    HW137222   0.148   0.425   5.206  0.0300  0.0915  0.7918
11060SOL    HW237223   0.282   0.382   5.262  0.6290  1.0080  0.0958
11061SOL     OW37224   8.884   4.159  10.292 -0.1399  0.3505 -0.0440
11061SOL    HW137225   8.842   4.156  10.206 -1.0652 -0.7616  0.4307
11061SOL    HW237226   8.911   4.251  10.302  1.0976  0.2606 -2.0191
11062SOL     OW37227   9.914   5.753   5.383  0.3016 -0.4205  0.1756
11062SOL    HW137228   9.947   5.711   5.303 -0.0684 -1.4941  0.5700
11062SOL    HW237229   9.827   5.714   5.396 -0.6095  1.3811 -0.1127
11063SOL     OW37230   0.952   2.626   5.747 -0.6452  0.3270  0.0454
11063SOL    HW137231   0.883   2.586   5.693  0.1620 -0.5529 -0.3772
11063SOL    HW237232   1.017   2.556   5.757 -0.1157  0.9392  0.9727
11064SOL     OW37233   2.852   1.596   0.352  0.3084  0.1679  0.0149
11064SOL    HW137234   2.810   1.611   0.267  1.1006  1.6170 -0.1532
11064SOL    HW237235   2.833   1.505   0.372 -1.4269  0.2913 -0.8628
11065SOL     OW37236   4.943   6.301   4.419  0.1697 -0.1216 -0.1266
11065SOL    HW137237   4.965   6.365   4.350  0.2444 -0.0812 -0.0656
11065SOL    HW237238   4.932   6.219   4.372  1.3791 -0.3462 -0.0498
11066SOL     OW37239   9.627   1.074   5.371  0.1271 -0.2391 -0.4474
11066SOL    HW137240   9.569   1.067   5.446 -0.9258  4.0169 -0.6154
11066SOL    HW237241   9.570   1.068   5.295  0.3882  0.5726 -0.7190
11067SOL     OW37242   6.155   2.147   1.145  0.0663 -0.3506  0.4194
11067SOL    HW137243   6.083   2.158   1.083  1.3659 -0.0788 -1.1057
11067SOL    HW237244   6.114   2.113   1.224 -1.7894  0.2427 -0.2517
11068SOL     OW37245   8.739   6.808   5.969  0.1727 -0.1724  0.2404
11068SOL    HW137246   8.747   6.846   6.057  1.5629 -1.0944  0.5550
11068SOL    HW237247   8.681   6.733   5.981  1.5970 -1.2554  0.7637
11069SOL     OW37248   2.175   1.138  10.112  0.4008  0.4191 -0.0695
11069SOL    HW137249   2.092   1.092  10.104  0.8718 -0.3789 -0.4798
11069SOL    HW237250   2.169   1.211  10.050 -0.1233  0.5773  0.1628
11070SOL     OW37251   2.808   5.414   9.184  0.2009  0.3976 -0.0812
11070SOL    HW137252   2.847   5.441   9.268 -0.4867 -3.0841  1.5225
11070SOL    HW237253   2.724   5.376   9.208 -0.6524  0.5424 -2.5677
11071SOL     OW37254   8.229   3.892   1.131  0.2293 -0.0288 -0.5193
11071SOL    HW137255   8.200   3.980   1.109  0.6772  0.3172  0.2459
11071SOL    HW237256   8.309   3.904   1.181 -0.5544 -0.7907  0.9879
11072SOL     OW37257   5.989   6.453   3.551  0.8842 -0.5542  0.1618
11072SOL    HW137258   5.927   6.504   3.604  1.2680 -0.1012  0.1819
11072SOL    HW237259   6.075   6.483   3.581  1.1577  1.1906 -2.0779
11073SOL     OW37260   8.447   9.511   2.821 -0.2619 -0.8879  0.1208
11073SOL    HW137261   8.520   9.461   2.859 -0.5544 -0.0656  1.8364
11073SOL    HW237262   8.412   9.453   2.754  1.1983 -1.8079  0.0887
11074SOL     OW37263   6.970   1.489   9.535 -0.4956 -0.2967  0.1442
11074SOL    HW137264   7.055   1.451   9.558 -0.9531  0.2620  3.3298
11074SOL    HW237265   6.991   1.558   9.472  1.3305 -0.6672  0.2920
11075SOL     OW37266   9.750   0.758   4.205  0.3533  0.5806 -0.2442
11075SOL    HW137267   9.758   0.821   4.276 -0.1053 -0.9905  1.2734
11075SOL    HW237268   9.703   0.684   4.244 -0.6033 -0.0313 -2.3988
11076SOL     OW37269   8.519   8.802   2.618  0.0133 -0.0680  0.1986
11076SOL    HW137270   8.536   8.747   2.541  0.5021  0.2014  0.1047
11076SOL    HW237271   8.603   8.845   2.634  0.6190 -1.8350  2.2739
11077SOL     OW37272   9.396   2.095   6.198  0.1619  0.1699  0.7315
11077SOL    HW137273   9.468   2.102   6.135 -1.2673 -0.2679 -1.0746
11077SOL    HW237274   9.358   2.008   6.180 -0.8403  0.4097  1.5872
11078SOL     OW37275   6.033   5.715   6.323  0.3192 -0.1812  0.1969
11078SOL    HW137276   6.044   5.804   6.356 -0.8149  0.7745 -1.7790
11078SOL    HW237277   6.053   5.659   6.398 -1.2821  1.7683  2.2350
11079SOL     OW37278   7.945   0.977   0.616 -0.3897  0.0200  0.3764
11079SOL    HW137279   7.870   1.016   0.661 -0.8129  0.0629 -0.3490
11079SOL    HW237280   8.006   1.049   0.605 -0.7159  0.2390 -0.0141
11080SOL     OW37281   3.127   5.320   2.093  0.2092  0.4206 -0.5518
11080SOL    HW137282   3.107   5.403   2.048 -1.6667  0.7913  0.8641
11080SOL    HW237283   3.222   5.323   2.106  0.4030  1.6020 -1.9387
11081SOL     OW37284   0.595   1.143   5.356  0.4706 -0.1044 -0.1970
11081SOL    HW137285   0.647   1.072   5.319  0.2651 -0.5079  0.2798
11081SOL    HW237286   0.650   1.180   5.425 -0.2844 -1.2451  1.0606
11082SOL     OW37287   5.876   3.473   0.095  0.5571 -0.0627 -0.2386
11082SOL    HW137288   5.958   3.456   0.048  0.7585 -0.0822  0.1179
11082SOL    HW237289   5.893   3.553   0.144  0.4838 -0.2723  0.1286
11083SOL     OW37290   3.333   0.725   7.447 -0.0685 -0.0017 -0.0290
11083SOL    HW137291   3.384   0.645   7.461 -0.1118 -0.7215 -3.3074
11083SOL    HW237292   3.394   0.785   7.404 -0.6280  0.9891  0.5271
11084SOL     OW37293   2.411  10.103   9.540  0.0829 -0.6102 -0.0027
11084SOL    HW137294   2.402  10.043   9.614  0.0771 -0.7993 -0.1581
11084SOL    HW237295   2.382  10.188   9.575 -1.9960 -1.1077 -0.3786
11085SOL     OW37296   6.236   3.879   4.749  0.2270 -0.1382  0.0440
11085SOL    HW137297   6.198   3.928   4.822 -1.6392 -1.0530 -0.2286
11085SOL    HW237298   6.307   3.828   4.787  1.8379  2.2434  0.4427
11086SOL     OW37299   2.607   4.595   3.700 -0.0870 -0.3688  0.5341
11086SOL    HW137300   2.523   4.611   3.741 -0.0972  1.6143 -0.1573
11086SOL    HW237301   2.598   4.629   3.611  1.8262  1.2127  0.8609
11087SOL     OW37302   9.565   8.774   5.185  0.3908  0.3992 -0.1763
11087SOL    HW137303   9.593   8.858   5.221 -1.2571  0.6950  0.4848
11087SOL    HW237304   9.595   8.709   5.248 -0.5393  0.7331  0.6423
11088SOL     OW37305   7.159   6.164   0.977  0.2966 -0.1982 -0.3031
11088SOL    HW137306   7.150   6.142   1.069 -1.9479  0.0517 -0.4038
11088SOL    HW237307   7.214   6.095   0.940 -1.7920 -2.4376  0.5171
11089SOL     OW37308   0.357  10.166   9.242  0.0850 -0.0196  0.3171
11089SOL    HW137309   0.398  10.127   9.319  0.1128 -0.3415  0.1415
11089SOL    HW237310   0.306  10.239   9.277  0.3167  0.0071  0.6076
11090SOL     OW37311   4.686   0.930   7.657 -0.4294 -0.3562  0.4602
11090SOL    HW137312   4.641   0.898   7.736  0.0510  0.6770  1.1835
11090SOL    HW237313   4.630   1.001   7.625 -0.2141 -0.2353  0.3468
11091SOL     OW37314   2.657   5.754   5.713 -0.1773 -0.2697 -0.1274
11091SOL    HW137315   2.628   5.813   5.783 -0.6881 -1.5932  0.8087
11091SOL    HW237316   2.639   5.802   5.632  1.0285  1.5692  0.6213
11092SOL     OW37317   5.695   4.603   6.439 -0.1008  0.4582 -0.6033
11092SOL    HW137318   5.701   4.598   6.343 -0.3830 -0.3254 -0.5874
11092SOL    HW237319   5.607   4.637   6.455  0.8146  3.0580 -0.6502
11093SOL     OW37320   2.662  10.162   9.862  0.0674  0.1579 -0.2902
11093SOL    HW137321   2.754  10.167   9.886  0.6268 -3.8228 -0.9618
11093SOL    HW237322   2.662  10.133   9.771 -1.6699 -2.8585  0.5277
11094SOL     OW37323   5.418   8.886   4.926  0.1137  0.3266  0.2233
11094SOL    HW137324   5.386   8.943   4.856 -1.0516  0.4592  0.8585
11094SOL    HW237325   5.494   8.932   4.962 -0.1444  0.9358 -0.0057
11095SOL     OW37326   2.753   4.555   8.276 -0.1398  0.0064 -0.1428
11095SOL    HW137327   2.691   4.483   8.289 -1.1958  0.9561  0.2130
11095SOL    HW237328   2.721   4.600   8.198 -0.0831  0.6946  0.2276
11096SOL     OW37329  10.254   2.684  10.087 -0.2252 -0.1794  0.1195
11096SOL    HW137330  10.174   2.654  10.045  1.4373  0.0968 -3.7005
11096SOL    HW237331  10.268   2.623  10.160 -2.4213 -1.9731 -0.8542
11097SOL     OW37332   3.251   5.099   5.873 -0.0204 -0.0981 -0.0674
11097SOL    HW137333   3.165   5.132   5.901  1.0192  2.2958  0.5070
11097SOL    HW237334   3.261   5.131   5.784 -0.1471 -1.3392 -0.5548
11098SOL     OW37335   8.588   0.410   7.195  0.0428 -0.1381 -0.0261
11098SOL    HW137336   8.556   0.346   7.130 -0.0948  0.9043 -1.0261
11098SOL    HW237337   8.510   0.460   7.218  0.3401  0.3397 -0.0452
11099SOL     OW37338   2.434   6.540   4.967  0.0385 -0.2940  0.5476
11099SOL    HW137339   2.383   6.460   4.979 -0.1008 -0.3143 -0.1612
11099SOL    HW237340   2.492   6.543   5.044  1.2231 -1.9458 -0.2334
11100SOL     OW37341  10.012   4.056   7.693  0.3705 -0.1763 -0.7399
11100SOL    HW137342   9.969   4.141   7.698  1.7657  0.5150  0.1174
11100SOL    HW237343  10.060   4.047   7.776 -0.4780 -2.2238 -0.3991
11101SOL     OW37344   0.032   1.469   2.482  0.3544  0.1626  0.4360
11101SOL    HW137345  -0.049   1.425   2.508  0.1159  0.2106 -0.2072
11101SOL    HW237346   0.087   1.466   2.560 -1.8353  3.9394  2.4537
11102SOL     OW37347   4.690   9.061   9.531  0.1120 -0.1404  0.9225
11102SOL    HW137348   4.596   9.078   9.530 -0.0519 -1.0068  1.0701
11102SOL    HW237349   4.708   9.019   9.447  0.4598  0.4332  0.6971
11103SOL     OW37350   7.789   8.732   7.153  0.2355 -0.4590  0.1053
11103SOL    HW137351   7.848   8.753   7.080  0.7700 -1.6737  0.1646
11103SOL    HW237352   7.842   8.748   7.231 -0.3014  0.7304  0.2548
11104SOL     OW37353   9.961   0.640   4.837 -0.1948  0.7486  0.3695
11104SOL    HW137354  10.020   0.608   4.905  1.8341 -1.4060 -2.1199
11104SOL    HW237355   9.884   0.583   4.843  0.0364  0.4760  0.7768
11105SOL     OW37356   8.425   6.974   0.351 -0.2885  0.1209 -0.6304
11105SOL    HW137357   8.517   6.956   0.335 -0.5130  0.1774 -2.2156
11105SOL    HW237358   8.414   7.067   0.330 -0.1489  0.9340  2.5156
11106SOL     OW37359   0.224   0.626   2.266  0.3604  0.2968  0.4591
11106SOL    HW137360   0.182   0.616   2.181  1.1062 -0.0138  0.1111
11106SOL    HW237361   0.301   0.681   2.248 -0.7510  2.2689  1.3710
11107SOL     OW37362   1.652   9.543   7.243  0.3688 -0.2854  0.2865
11107SOL    HW137363   1.733   9.533   7.294 -0.8869  0.7923  2.6492
11107SOL    HW237364   1.673   9.609   7.177  1.8073 -1.1181 -0.1392
11108SOL     OW37365   5.946   1.087   7.286 -0.3039 -0.2992  0.3011
11108SOL    HW137366   5.857   1.119   7.301 -0.7153 -1.3914  0.2837
11108SOL    HW237367   5.969   1.119   7.199 -0.7053 -0.0693  0.2775
11109SOL     OW37368   1.838   9.768   5.556  0.0298  0.5729 -0.4113
11109SOL    HW137369   1.861   9.675   5.561  0.2028  0.6639  0.7223
11109SOL    HW237370   1.922   9.813   5.554 -0.0360  0.7796  0.9271
11110SOL     OW37371   6.231   0.343   7.942  0.2325  0.4212  0.2736
11110SOL    HW137372   6.160   0.316   7.884  0.9767 -1.1655  0.0500
11110SOL    HW237373   6.187   0.367   8.024 -0.6320  0.4335 -0.1806
11111SOL     OW37374   9.904   8.718   9.455 -0.2428  0.2345 -0.2178
11111SOL    HW137375   9.830   8.704   9.515  1.0764 -0.9550  1.2273
11111SOL    HW237376   9.865   8.756   9.377 -2.1508  1.2069  1.1321
11112SOL     OW37377   5.594   3.798   2.149 -0.1385 -0.8469  0.2374
11112SOL    HW137378   5.657   3.757   2.089 -1.0491 -1.5401 -0.2643
11112SOL    HW237379   5.571   3.729   2.211  0.6010 -0.2068  1.2708
11113SOL     OW37380   3.075   0.578   0.089 -0.2595 -0.2939  0.1105
11113SOL    HW137381   3.023   0.637   0.144  2.3198  0.7681  1.6099
11113SOL    HW237382   3.037   0.491   0.104 -1.0465  0.3005  1.8347
11114SOL     OW37383   2.856   0.894   3.034  0.1703  0.2952  0.3726
11114SOL    HW137384   2.821   0.809   3.060 -1.8677  0.9228 -0.1156
11114SOL    HW237385   2.780   0.942   3.001  1.9746  0.5605 -4.1515
11115SOL     OW37386   8.295   7.478   6.726  0.4942  0.1352 -0.0247
11115SOL    HW137387   8.330   7.452   6.641 -1.7763  0.1223 -1.0127
11115SOL    HW237388   8.335   7.564   6.744  0.0649  0.7132 -1.7096
11116SOL     OW37389   7.124   5.534   1.109 -0.3556  0.0655 -0.0330
11116SOL    HW137390   7.039   5.545   1.065  0.8634 -3.2446 -3.8268
11116SOL    HW237391   7.111   5.458   1.167  0.1734 -1.1813 -1.4799
11117SOL     OW37392   3.516   6.980   7.493  0.2838 -0.1779  0.4395
11117SOL    HW137393   3.528   7.032   7.573  0.5231 -1.1281  1.0317
11117SOL    HW237394   3.457   6.909   7.518 -2.0967  1.1720 -1.0122
11118SOL     OW37395   9.509   5.938   3.579  0.6354 -0.0677 -0.1043
11118SOL    HW137396   9.442   5.871   3.563  0.5698  0.3479 -1.7180
11118SOL    HW237397   9.569   5.897   3.642 -0.3837 -0.9542  0.3263
11119SOL     OW37398   4.147   1.067   8.080  0.4374  0.8374 -0.3817
11119SOL    HW137399   4.058   1.063   8.114 -0.1425  1.3323 -1.7619
11119SOL    HW237400   4.202   1.042   8.154 -0.9697 -2.4133 -0.2611
11120SOL     OW37401   0.540   9.725   2.931 -0.1618  0.0389  0.0812
11120SOL    HW137402   0.605   9.734   3.000  1.1324 -0.7012 -0.9952
11120SOL    HW237403   0.522   9.631   2.927  0.2530 -0.0067 -0.9928
11121SOL     OW37404   1.412   9.876   5.377 -0.1540  0.5709  0.2431
11121SOL    HW137405   1.331   9.825   5.380 -0.2857  0.7976  1.0998
11121SOL    HW237406   1.441   9.871   5.286 -0.0934 -1.1280  0.3150
11122SOL     OW37407   1.716   3.857   8.132  0.2365 -0.5712  0.2588
11122SOL    HW137408   1.694   3.849   8.225 -0.1765 -0.7495  0.1489
11122SOL    HW237409   1.661   3.791   8.089 -1.2267  1.0034 -0.3657
11123SOL     OW37410   9.697   4.557   5.283 -0.1100  0.0689  0.7793
11123SOL    HW137411   9.766   4.565   5.217  0.0985  0.1164  1.0053
11123SOL    HW237412   9.647   4.480   5.256 -0.1549  0.2101  0.4453
11124SOL     OW37413   8.598   4.198   7.766  0.2269  0.1345  0.1975
11124SOL    HW137414   8.519   4.204   7.820  0.4291 -0.8410  0.6310
11124SOL    HW237415   8.599   4.279   7.715 -1.1816  0.0653  0.0144
11125SOL     OW37416   9.161   8.044   1.809  0.7188 -0.2283 -0.0399
11125SOL    HW137417   9.111   7.972   1.770 -0.8047  0.3827  0.7570
11125SOL    HW237418   9.224   8.000   1.866  0.3763 -0.9632 -0.2130
11126SOL     OW37419   1.177   2.919   1.053 -0.8442 -0.6781  0.1916
11126SOL    HW137420   1.098   2.865   1.045 -0.6773 -0.9494  0.3535
11126SOL    HW237421   1.203   2.909   1.145 -0.4813 -0.7864  0.0776
11127SOL     OW37422   9.977   5.722   7.119  0.5167 -0.3752 -0.0355
11127SOL    HW137423   9.960   5.803   7.167  0.1275 -0.3946 -0.1381
11127SOL    HW237424  10.031   5.669   7.178 -0.3759 -0.6104  0.5794
11128SOL     OW37425   9.539   2.042   1.534 -0.0366  0.1561  0.1744
11128SOL    HW137426   9.448   2.054   1.561  0.3112 -0.1937  1.5632
11128SOL    HW237427   9.539   1.959   1.486 -0.7131  0.9332 -1.2459
11129SOL     OW37428   5.519   9.191   9.326 -0.2087  0.2792  0.1397
11129SOL    HW137429   5.574   9.177   9.404 -1.5546  0.0579  1.0942
11129SOL    HW237430   5.525   9.109   9.277 -1.1193 -0.4589  1.2023
11130SOL     OW37431   6.719   8.047   2.137 -0.1945 -0.2256 -0.0241
11130SOL    HW137432   6.795   8.062   2.193  0.5564 -0.3944 -0.9543
11130SOL    HW237433   6.728   7.955   2.110  0.3414  0.2681 -1.6405
11131SOL     OW37434   6.985   9.024   9.686  0.4717  1.1699  0.4983
11131SOL    HW137435   7.042   9.090   9.647 -0.0724  0.8231 -0.9618
11131SOL    HW237436   7.042   8.948   9.699  1.0416  1.8141  1.9557
11132SOL     OW37437   3.138   1.278   8.720 -0.2008 -0.1378  0.0534
11132SOL    HW137438   3.115   1.213   8.653 -1.2342 -0.1951  0.4392
11132SOL    HW237439   3.061   1.280   8.778  0.8666 -0.4709  1.5330
11133SOL     OW37440   6.933   8.451   8.649  0.0539 -0.1499 -0.3194
11133SOL    HW137441   6.940   8.443   8.553  1.1392  0.0955 -0.2697
11133SOL    HW237442   6.984   8.529   8.670  0.9191 -0.9471  0.5945
11134SOL     OW37443   6.981   6.148   2.353  0.5095 -0.4059  0.0606
11134SOL    HW137444   6.916   6.217   2.340  0.7937 -0.2014 -0.2806
11134SOL    HW237445   7.046   6.162   2.284  2.9081  1.6356  2.5544
11135SOL     OW37446   9.457   2.688   5.156  0.9221 -0.5848 -0.3215
11135SOL    HW137447   9.386   2.625   5.142 -0.7764  1.6663 -2.9501
11135SOL    HW237448   9.529   2.636   5.191 -1.0080 -3.5749 -0.4589
11136SOL     OW37449   5.220   5.782   4.664  0.3244 -0.5582 -0.5879
11136SOL    HW137450   5.206   5.764   4.571  0.6577 -0.0207 -0.7486
11136SOL    HW237451   5.133   5.778   4.703 -0.2714  2.0780 -1.4402
11137SOL     OW37452   8.257   8.382   2.822 -0.4954  0.6056 -0.5712
11137SOL    HW137453   8.304   8.460   2.792  0.0967  0.0652 -1.0944
11137SOL    HW237454   8.232   8.337   2.741 -1.3595  0.5524 -0.2860
11138SOL     OW37455  10.206   6.109   7.015  0.0074  0.0015 -0.1924
11138SOL    HW137456  10.150   6.179   6.981 -0.9572 -1.4000 -1.6384
11138SOL    HW237457  10.291   6.125   6.974 -0.7517 -0.8003 -2.1944
11139SOL     OW37458   2.287   1.598   3.756 -0.0268 -0.3604 -0.0119
11139SOL    HW137459   2.229   1.643   3.694  2.2187  4.2213  0.7754
11139SOL    HW237460   2.245   1.612   3.841  0.5458  0.0873  0.2063
11140SOL     OW37461   1.785   2.703   5.308 -0.1173 -0.1601  0.1803
11140SOL    HW137462   1.754   2.665   5.226  2.0353  0.4721 -1.0320
11140SOL    HW237463   1.871   2.663   5.322 -0.5906 -0.5123  2.3544
11141SOL     OW37464   4.522   8.539  10.168  0.1772 -0.1454  0.0250
11141SOL    HW137465   4.472   8.466  10.131  1.4993 -0.6193 -0.9271
11141SOL    HW237466   4.465   8.615  10.159 -0.7795 -0.8470 -0.0182
11142SOL     OW37467   0.083   9.931   6.720 -0.3300  0.0150  0.4278
11142SOL    HW137468   0.152   9.865   6.707  1.7343  2.3950 -1.9070
11142SOL    HW237469   0.114   9.985   6.792  0.5356  1.2805 -0.8292
11143SOL     OW37470   2.267   7.796   7.449 -0.2475 -0.1792 -0.5475
11143SOL    HW137471   2.238   7.712   7.413 -4.4969  0.8951 -0.1624
11143SOL    HW237472   2.222   7.803   7.533  1.1269  1.9097  0.0816
11144SOL     OW37473   1.624   8.742   4.025  1.0164  0.3245  0.2575
11144SOL    HW137474   1.548   8.724   4.081  0.3343  1.4087 -0.2752
11144SOL    HW237475   1.685   8.790   4.081 -0.1207  2.3652 -0.1553
11145SOL     OW37476   2.356   1.739   9.369  0.2496  0.6016 -0.0752
11145SOL    HW137477   2.286   1.729   9.305  0.3508 -0.7396 -0.0196
11145SOL    HW237478   2.311   1.743   9.453  0.1318  2.0714 -0.1977
11146SOL     OW37479  10.122   7.225   3.970 -0.0864  0.2153 -0.2128
11146SOL    HW137480  10.079   7.209   4.054 -0.1726 -0.4321 -0.3742
11146SOL    HW237481  10.172   7.306   3.983 -0.6389  0.4877  0.2509
11147SOL     OW37482   3.652   9.333   5.370  0.0020 -0.0982  0.0545
11147SOL    HW137483   3.694   9.374   5.446 -0.5567  1.4463 -0.4310
11147SOL    HW237484   3.629   9.406   5.313 -3.4244 -0.7612  0.3271
11148SOL     OW37485   0.211  10.014   5.901  0.1704  0.1322 -0.1563
11148SOL    HW137486   0.181   9.996   5.990  1.5174 -0.0229  0.2833
11148SOL    HW237487   0.257   9.934   5.875 -2.0007 -0.6803 -1.8130
11149SOL     OW37488   1.469   2.220   4.049  0.3427  0.5223 -0.1498
11149SOL    HW137489   1.550   2.172   4.061 -0.7003 -1.7988 -1.7118
11149SOL    HW237490   1.408   2.180   4.110 -0.2186  0.6858 -0.5901
11150SOL     OW37491   9.813   4.837   5.250  0.1240 -0.0358  0.1145
11150SOL    HW137492   9.738   4.792   5.290 -0.6173  0.1593 -0.9909
11150SOL    HW237493   9.809   4.925   5.286  0.9592 -0.5278  1.4903
11151SOL     OW37494  10.072   3.940   8.515  0.1549  0.3059 -0.6744
11151SOL    HW137495  10.156   3.985   8.511 -0.1901  0.9966 -0.4027
11151SOL    HW237496  10.026   3.983   8.588 -0.6516  0.3389 -1.1882
11152SOL     OW37497   1.002   4.114   1.969 -0.0548  0.3101 -0.3228
11152SOL    HW137498   0.945   4.124   2.045 -0.7028  2.3581 -1.0164
11152SOL    HW237499   1.090   4.108   2.006 -0.3524  1.3299  0.6080
11153SOL     OW37500   4.504   9.792   0.988 -0.1265 -0.1893  0.1861
11153SOL    HW137501   4.452   9.720   0.953 -0.0817 -0.7460  1.2383
11153SOL    HW237502   4.595   9.767   0.971 -0.1303 -0.0873  0.0094
11154SOL     OW37503   1.167   3.393   8.717  0.0639  0.0956 -0.3000
11154SOL    HW137504   1.188   3.348   8.799  1.8126 -0.2963 -0.9302
11154SOL    HW237505   1.074   3.376   8.704  0.3734 -2.2503  0.1523
11155SOL     OW37506   3.389   6.877   9.245 -0.4825  0.1058 -0.4398
11155SOL    HW137507   3.472   6.847   9.208 -0.3380 -1.0810  0.7701
11155SOL    HW237508   3.413   6.926   9.323 -0.8756  0.7283 -0.7014
11156SOL     OW37509   0.087   3.958   0.675 -0.6979 -0.4095 -0.2009
11156SOL    HW137510   0.016   4.011   0.713  0.0333  0.7384 -0.4109
11156SOL    HW237511   0.056   3.937   0.587 -0.1626  1.3699 -0.8500
11157SOL     OW37512   4.107   8.104   9.785 -0.0302 -0.7255  0.1541
11157SOL    HW137513   4.135   8.019   9.753  0.8776  0.3917 -2.2285
11157SOL    HW237514   4.188   8.151   9.802 -0.4610  0.4142 -0.7787
11158SOL     OW37515   9.591   5.980   4.206  0.4423 -0.5850 -0.4572
11158SOL    HW137516   9.614   6.055   4.261 -1.9718  0.0047 -0.1116
11158SOL    HW237517   9.561   6.019   4.124  0.9312 -1.2992 -0.9886
11159SOL     OW37518   9.318   4.760   7.420  0.1617  0.2213 -0.5980
11159SOL    HW137519   9.340   4.749   7.512 -1.6689 -1.0155 -0.2615
11159SOL    HW237520   9.252   4.829   7.420  0.6133  0.6665 -1.0815
11160SOL     OW37521   7.749   9.974   4.616 -0.0399 -0.1984 -0.1077
11160SOL    HW137522   7.737   9.889   4.574  0.9118 -0.4680  0.1452
11160SOL    HW237523   7.723   9.961   4.707 -0.6643 -0.0019 -0.2522
11161SOL     OW37524   8.801   1.229   5.236 -0.0305 -0.4859 -0.6037
11161SOL    HW137525   8.763   1.141   5.233 -0.6963 -0.3032  1.2515
11161SOL    HW237526   8.892   1.217   5.209 -0.5027 -1.4866 -1.8133
11162SOL     OW37527   0.375   9.509   8.652  0.6924 -0.1388 -0.8981
11162SOL    HW137528   0.395   9.472   8.738  0.1338  1.1335 -0.1901
11162SOL    HW237529   0.458   9.548   8.623  0.4089  1.2073  0.0093
11163SOL     OW37530   5.408   6.077   2.246  0.3473  0.2621 -0.7356
11163SOL    HW137531   5.467   6.004   2.266  0.2595  0.2713 -0.4437
11163SOL    HW237532   5.321   6.044   2.267  0.1021 -0.1793 -2.3405
11164SOL     OW37533   2.189   2.577   0.819  0.1646 -0.2985  0.0439
11164SOL    HW137534   2.231   2.571   0.733  1.2661 -0.3300  0.5725
11164SOL    HW237535   2.259   2.604   0.879 -0.5402 -0.4570  0.9657
11165SOL     OW37536  10.174  10.164   4.485  0.1465 -0.5184 -0.2010
11165SOL    HW137537  10.247  10.211   4.445  0.1153  0.3726  0.7496
11165SOL    HW237538  10.117  10.141   4.412  0.4615  0.4037 -0.7530
11166SOL     OW37539   9.836   5.754   1.396 -0.9558  0.1028 -0.1183
11166SOL    HW137540   9.783   5.695   1.449 -0.9323 -1.9082 -2.1963
11166SOL    HW237541   9.914   5.704   1.373 -0.9333  0.9005 -1.9741
11167SOL     OW37542   7.974   9.508   8.335 -0.0226  0.5674  0.5104
11167SOL    HW137543   7.934   9.559   8.265 -0.5966  1.2302  1.3148
11167SOL    HW237544   8.068   9.510   8.316 -0.1003  1.4260  0.2125
11168SOL     OW37545   1.057   1.351   2.146 -0.4665 -0.4735  0.4262
11168SOL    HW137546   1.058   1.410   2.221  1.6827 -0.0966  0.1546
11168SOL    HW237547   1.057   1.409   2.070 -0.4057 -0.8341  0.1493
11169SOL     OW37548   3.664   5.770   2.201  0.1044  0.9338 -0.6991
11169SOL    HW137549   3.737   5.738   2.255 -0.7247 -0.8926 -0.5816
11169SOL    HW237550   3.587   5.757   2.256 -1.1773 -3.6474 -3.0676
11170SOL     OW37551   0.894   9.896   1.213 -0.0324  0.0807 -0.0428
11170SOL    HW137552   0.890   9.954   1.289 -1.7719  1.1617 -0.8776
11170SOL    HW237553   0.871   9.952   1.139  1.7301 -0.9046 -1.4251
11171SOL     OW37554   3.211  10.207   2.514 -0.4137 -0.5024  0.0615
11171SOL    HW137555   3.134  10.150   2.516 -1.9852  1.4256 -1.3161
11171SOL    HW237556   3.238  10.208   2.422 -2.1394  2.9252 -0.5792
11172SOL     OW37557  10.084   5.809   8.284 -0.4718 -0.0511  0.4189
11172SOL    HW137558  10.118   5.744   8.345  0.5466 -2.5193 -2.4880
11172SOL    HW237559  10.155   5.873   8.275  0.0788 -0.6361  0.5214
11173SOL     OW37560   3.475   7.157   1.356 -0.1043  0.5493  0.1828
11173SOL    HW137561   3.509   7.105   1.284  0.4467 -1.0390  1.5378
11173SOL    HW237562   3.546   7.160   1.420  0.0142  3.2940  0.0424
11174SOL     OW37563   8.129   5.266   7.202 -0.2548  0.4377  0.2764
11174SOL    HW137564   8.181   5.330   7.154  0.7259  0.0705  0.8304
11174SOL    HW237565   8.166   5.181   7.177  0.8488  0.2748  2.2903
11175SOL     OW37566  10.095   1.290   2.223 -0.1877 -0.2706  0.4191
11175SOL    HW137567  10.153   1.274   2.149  0.0260  0.4308  0.4286
11175SOL    HW237568  10.145   1.260   2.299 -0.3332 -0.8122  0.3100
11176SOL     OW37569   1.842   2.826   2.254 -0.2776  0.3716  0.5558
11176SOL    HW137570   1.884   2.892   2.309 -0.5223  1.0118 -0.0120
11176SOL    HW237571   1.886   2.745   2.277  0.5121  0.8436  0.7651
11177SOL     OW37572   0.155   1.447   2.710  0.0169  0.4466  0.5610
11177SOL    HW137573   0.108   1.381   2.760  0.5191 -0.4744 -0.1415
11177SOL    HW237574   0.192   1.505   2.776  0.0296 -0.3038  1.2334
11178SOL     OW37575   2.953   4.288   4.383 -0.5062 -0.0448 -0.0646
11178SOL    HW137576   2.991   4.291   4.471 -0.2194 -0.5995 -0.1630
11178SOL    HW237577   2.978   4.371   4.343  0.9935 -0.5771 -0.2852
11179SOL     OW37578   2.235   0.953   3.608 -0.0907  0.1565  0.0246
11179SOL    HW137579   2.140   0.962   3.606 -0.1257  0.0318  0.9448
11179SOL    HW237580   2.265   1.022   3.667  0.2995 -0.4530  0.5539
11180SOL     OW37581   6.144   8.394   5.373  0.1667  0.4936 -0.1288
11180SOL    HW137582   6.178   8.444   5.299 -0.4170  0.3349 -0.5125
11180SOL    HW237583   6.220   8.376   5.427  0.4411  1.5085 -0.1528
11181SOL     OW37584   7.208   6.750   5.836 -0.2789 -0.3833  0.7187
11181SOL    HW137585   7.159   6.830   5.816 -1.0425 -0.6828  1.3494
11181SOL    HW237586   7.275   6.746   5.768 -1.0362  0.1135 -0.0840
11182SOL     OW37587   3.851   3.821   0.882  0.2488 -0.5066  0.2808
11182SOL    HW137588   3.899   3.742   0.858 -1.2190 -1.3571  0.0172
11182SOL    HW237589   3.890   3.890   0.829  1.3078 -1.1152  0.2383
11183SOL     OW37590   6.345   2.711  10.194  0.5674 -0.3523  0.0551
11183SOL    HW137591   6.385   2.778  10.250  0.8641 -0.5903  0.1298
11183SOL    HW237592   6.408   2.697  10.123 -0.0788  0.3797 -0.6742
11184SOL     OW37593   7.278   1.659   1.535  0.1547 -0.8743  0.4013
11184SOL    HW137594   7.300   1.665   1.442 -0.1674 -2.0455  0.2361
11184SOL    HW237595   7.313   1.739   1.573  2.4849 -1.4891 -0.2879
11185SOL     OW37596   2.703   3.184   1.764 -0.2961 -0.2118  0.2600
11185SOL    HW137597   2.626   3.171   1.708 -0.4918 -1.4197  0.7871
11185SOL    HW237598   2.774   3.139   1.719 -0.3679 -0.8549  0.7682
11186SOL     OW37599   0.517   8.542   1.756  0.0364 -0.0911 -0.4650
11186SOL    HW137600   0.449   8.528   1.822  0.6768 -1.6995 -0.0896
11186SOL    HW237601   0.538   8.635   1.762 -1.3883  0.2148  0.1276
11187SOL     OW37602   8.519   7.026   8.617 -0.0174 -0.1611  0.0924
11187SOL    HW137603   8.429   6.996   8.605 -0.3616  0.5897  0.7119
11187SOL    HW237604   8.515   7.121   8.602  0.6243 -0.0872  0.3494
11188SOL     OW37605   2.216   3.604   9.939  0.1971  0.1493  0.4416
11188SOL    HW137606   2.173   3.520   9.954 -0.5964  0.8769  2.7233
11188SOL    HW237607   2.298   3.598   9.987  0.5813  0.3484 -0.1830
11189SOL     OW37608   8.471   5.690   9.271  0.8136 -0.4509 -0.6265
11189SOL    HW137609   8.383   5.678   9.235 -0.1472  0.3447  1.3498
11189SOL    HW237610   8.491   5.782   9.255  1.6346 -0.8104 -1.7578
11190SOL     OW37611   2.165   3.745   5.603  0.4941 -0.6222  0.8071
11190SOL    HW137612   2.183   3.662   5.647  1.2777  0.3104  2.3004
11190SOL    HW237613   2.087   3.779   5.647  1.3249  0.3526  1.5504
11191SOL     OW37614   4.028   9.296   4.630  0.1205 -0.4335 -0.4877
11191SOL    HW137615   3.934   9.282   4.642  0.0039 -0.0353 -0.9349
11191SOL    HW237616   4.036   9.336   4.544  0.6928 -0.3731 -0.4114
11192SOL     OW37617   1.506   9.384   8.387  0.2554  0.0933 -0.0837
11192SOL    HW137618   1.422   9.360   8.427 -0.4548  0.8962 -1.0549
11192SOL    HW237619   1.527   9.310   8.330  0.5411 -0.3919  0.6271
11193SOL     OW37620   6.365   6.006   7.836  0.3536  0.3344  0.1892
11193SOL    HW137621   6.332   5.971   7.919 -0.6023 -0.7808 -0.6214
11193SOL    HW237622   6.429   6.072   7.861 -1.0479  1.1492  1.8381
11194SOL     OW37623   0.174  10.077   0.510  0.3387 -0.3493  0.7980
11194SOL    HW137624   0.215  10.140   0.450 -0.2856 -0.5137  0.1817
11194SOL    HW237625   0.235  10.003   0.511 -1.6704 -2.4235 -3.3895
11195SOL     OW37626   2.978   9.280   4.032 -0.1616  0.0543 -0.4840
11195SOL    HW137627   3.034   9.204   4.017 -1.9393 -1.2692 -0.8127
11195SOL    HW237628   2.921   9.254   4.104  0.9880  2.1841  1.3406
11196SOL     OW37629   0.867   5.625   7.053  0.0067  0.4676 -0.1396
11196SOL    HW137630   0.890   5.629   6.960  1.5511  0.5486  0.2207
11196SOL    HW237631   0.789   5.570   7.056  0.3793 -0.1639 -1.4199
11197SOL     OW37632   8.113   0.818   4.525  0.2939 -0.0938  0.2669
11197SOL    HW137633   8.055   0.879   4.479 -2.2761 -3.2108 -1.0291
11197SOL    HW237634   8.191   0.811   4.470 -1.1312 -0.9460 -1.7674
11198SOL     OW37635   4.089   8.415   2.730  0.5992 -0.3080  0.6912
11198SOL    HW137636   4.018   8.433   2.792 -0.8921 -0.2933 -0.9449
11198SOL    HW237637   4.116   8.325   2.750  1.2749  0.2188  2.3775
11199SOL     OW37638   6.530   7.425   2.557  0.4579  0.2940  0.2624
11199SOL    HW137639   6.527   7.516   2.588 -0.1902  0.5554 -0.5398
11199SOL    HW237640   6.561   7.431   2.467  0.7997 -0.3248  0.3329
11200SOL     OW37641   9.167  10.148   7.229  0.3963  0.4078  0.3373
11200SOL    HW137642   9.122  10.067   7.203 -0.3788  0.2731  2.0053
11200SOL    HW237643   9.259  10.124   7.231  0.0349 -1.1092  2.8933
11201SOL     OW37644   2.092   3.502   6.100  0.1834  0.6124 -0.3128
11201SOL    HW137645   2.113   3.570   6.164 -0.1668  1.2995 -0.9171
11201SOL    HW237646   2.127   3.534   6.017 -0.3049  0.2315 -0.6787
11202SOL     OW37647   8.955   9.911   9.102 -0.5370 -0.1429  0.0956
11202SOL    HW137648   8.935  10.004   9.094 -0.8687  0.3360  4.2822
11202SOL    HW237649   9.039   9.901   9.058 -1.4273  1.5956 -2.2358
11203SOL     OW37650   1.750   0.578   1.540 -0.1526  0.3518  0.2079
11203SOL    HW137651   1.826   0.572   1.597  0.8165  0.3148 -1.0281
11203SOL    HW237652   1.758   0.664   1.499 -0.2124 -0.0294 -0.6453
11204SOL     OW37653   5.084   3.400   2.711 -0.3553  0.6280  0.4221
11204SOL    HW137654   5.045   3.339   2.648 -0.6869  1.6452 -0.3753
11204SOL    HW237655   5.053   3.368   2.796 -0.5853 -0.2683  0.0172
11205SOL     OW37656   3.468   1.306   1.549 -0.2808  1.0842 -0.3566
11205SOL    HW137657   3.402   1.237   1.555 -1.1672  1.8883 -0.5605
11205SOL    HW237658   3.429   1.372   1.491  0.5944  1.6977 -0.2711
11206SOL     OW37659   2.527   5.778   6.403 -0.0153 -0.2578  0.3383
11206SOL    HW137660   2.588   5.705   6.409 -0.3721 -0.5869  0.0602
11206SOL    HW237661   2.578   5.855   6.428  0.3277 -0.6197  0.7663
11207SOL     OW37662   8.201   8.435   1.905  0.2214  0.3442 -0.2215
11207SOL    HW137663   8.255   8.382   1.963 -2.2078 -0.1645  1.7423
11207SOL    HW237664   8.246   8.432   1.821  1.4161 -2.8665  0.4031
11208SOL     OW37665   0.686   9.626   3.720  0.0194  0.3003 -0.0084
11208SOL    HW137666   0.710   9.677   3.642  1.6625 -1.3223 -0.6331
11208SOL    HW237667   0.592   9.611   3.710  0.2328 -0.0944 -1.8575
11209SOL     OW37668   5.378   0.646   5.166 -0.4153  0.1804  0.2379
11209SOL    HW137669   5.412   0.586   5.232  0.5206  1.9062  1.3789
11209SOL    HW237670   5.455   0.696   5.137 -1.5114  2.4694  1.0799
11210SOL     OW37671   7.880   0.123   3.351 -0.4250  0.0611 -0.0277
11210SOL    HW137672   7.921   0.051   3.304  1.3629  0.1769  1.2380
11210SOL    HW237673   7.911   0.202   3.306 -0.5782  0.1053 -0.0566
11211SOL     OW37674   1.973   0.308   2.765 -0.2311 -0.2381 -0.1884
11211SOL    HW137675   1.993   0.390   2.810 -2.2359  0.7936 -1.0462
11211SOL    HW237676   2.020   0.314   2.682  0.5593 -0.5043  0.2319
11212SOL     OW37677   9.318   2.714   8.113  0.1443  0.0169  0.4244
11212SOL    HW137678   9.246   2.675   8.063 -0.4757  1.1396  0.4163
11212SOL    HW237679   9.353   2.783   8.056  0.0364  0.6898  1.1483
11213SOL     OW37680   7.738  10.000   2.825  0.0960 -0.0157 -0.4548
11213SOL    HW137681   7.732  10.080   2.877 -0.0927  0.6338 -1.4478
11213SOL    HW237682   7.651   9.961   2.830  0.2650 -0.3126  0.2557
11214SOL     OW37683   0.403   4.881   6.125  0.0066  0.3148  0.4102
11214SOL    HW137684   0.323   4.927   6.097  0.1938 -0.1049 -0.8726
11214SOL    HW237685   0.372   4.794   6.150 -0.0304  0.3952  0.6521
11215SOL     OW37686   0.621   3.597   5.383 -0.1738 -0.3765 -0.3820
11215SOL    HW137687   0.570   3.609   5.302  0.2517 -0.1033 -0.6145
11215SOL    HW237688   0.705   3.562   5.353  0.4365  0.8523 -0.1902
11216SOL     OW37689   3.108   6.330   6.766  0.1254  0.0811 -0.1066
11216SOL    HW137690   3.071   6.265   6.705 -0.0136 -0.2721  0.3486
11216SOL    HW237691   3.179   6.371   6.717  1.3001 -1.5488  0.1272
11217SOL     OW37692   3.787   7.131   7.608 -0.1293  0.3615 -0.4762
11217SOL    HW137693   3.845   7.191   7.655  1.8188  0.3405 -2.6655
11217SOL    HW237694   3.699   7.156   7.635  0.7973  0.2808  3.1670
11218SOL     OW37695   7.046   8.440   6.355  0.1380 -0.1577  0.6091
11218SOL    HW137696   7.026   8.367   6.296  0.4446 -0.2163  0.5761
11218SOL    HW237697   6.979   8.506   6.336  1.1357  0.4668 -0.8964
11219SOL     OW37698   5.933   1.754   6.522  0.4316  0.1563 -0.0162
11219SOL    HW137699   5.919   1.833   6.470  2.1228 -1.1489 -2.7019
11219SOL    HW237700   5.867   1.692   6.491 -0.2023  0.1376  1.3064
11220SOL     OW37701   1.593   4.774   2.620  0.1866 -0.1885  0.4949
11220SOL    HW137702   1.668   4.803   2.569 -0.7129  0.9198 -0.2273
11220SOL    HW237703   1.544   4.718   2.560 -1.3399  1.8205 -0.2125
11221SOL     OW37704   5.736  10.211   4.355 -0.5041  0.5824 -0.3996
11221SOL    HW137705   5.733  10.230   4.261 -0.2401  1.0990 -0.3073
11221SOL    HW237706   5.829  10.208   4.376 -0.5344 -0.5841 -0.3542
11222SOL     OW37707  10.237   2.062   9.792  0.2145 -0.4081 -0.9524
11222SOL    HW137708  10.324   2.068   9.831 -0.3745 -1.6458  0.7004
11222SOL    HW237709  10.213   2.152   9.772  0.5272  0.3865  1.7871
11223SOL     OW37710   5.009   8.302   0.339  0.1000  0.3463 -0.9254
11223SOL    HW137711   4.938   8.244   0.367 -1.7416  2.7743 -0.2737
11223SOL    HW237712   5.016   8.286   0.245 -0.6419 -0.6028 -0.8451
11224SOL     OW37713   3.133   9.663   3.929  0.6666 -0.0829  0.4886
11224SOL    HW137714   3.171   9.578   3.951  0.0746 -0.6049 -0.4161
11224SOL    HW237715   3.161   9.679   3.839  0.9920  0.8168  0.7357
11225SOL     OW37716   7.039  10.186   6.345  0.4493  0.3210 -0.1151
11225SOL    HW137717   7.101  10.178   6.272 -1.6593 -0.4086 -1.9456
11225SOL    HW237718   7.015  10.279   6.345  0.3180  0.2903 -0.4975
11226SOL     OW37719   8.590   3.405  10.016  0.5460 -0.1374 -0.0267
11226SOL    HW137720   8.581   3.369   9.928  0.6126 -0.8207  0.2399
11226SOL    HW237721   8.602   3.328  10.073 -0.6057  0.2066  0.7231
11227SOL     OW37722   5.726   7.578   2.540  0.0022 -0.8646 -0.1094
11227SOL    HW137723   5.778   7.637   2.485  0.5820 -0.1157  1.1649
11227SOL    HW237724   5.635   7.599   2.519  0.2083 -0.1832 -0.3645
11228SOL     OW37725   6.613   9.469   8.702 -0.0572 -0.2333  0.0369
11228SOL    HW137726   6.583   9.558   8.721  0.3113  0.3370 -1.8447
11228SOL    HW237727   6.554   9.413   8.753  0.0477  1.0699  1.6782
11229SOL     OW37728   5.890   9.414   8.207 -0.0251  0.2764  0.5374
11229SOL    HW137729   5.826   9.391   8.274 -0.5958 -1.2378 -0.4545
11229SOL    HW237730   5.838   9.447   8.134  0.4800  0.7921  0.4077
11230SOL     OW37731   9.068   8.990   5.037  0.1976  0.0108  0.4028
11230SOL    HW137732   9.101   8.929   5.102 -0.4074 -0.4401  0.2966
11230SOL    HW237733   9.087   8.948   4.953  1.8210  1.0111  0.2264
11231SOL     OW37734   4.565   6.789   1.298 -0.5009  0.0220 -0.4153
11231SOL    HW137735   4.520   6.862   1.254  0.7182  0.6093 -0.7411
11231SOL    HW237736   4.657   6.815   1.297 -0.2106 -0.9345  0.6460
11232SOL     OW37737   5.245   1.509   2.399 -0.3669 -0.1889 -0.6132
11232SOL    HW137738   5.292   1.506   2.483  2.3164 -1.8885 -2.0515
11232SOL    HW237739   5.282   1.584   2.354  0.5607 -1.1389 -1.4855
11233SOL     OW37740   3.600   7.968   9.997  0.0587 -0.4996  0.2404
11233SOL    HW137741   3.549   7.935   9.924  1.1109 -0.7989 -0.3792
11233SOL    HW237742   3.536   7.984  10.066 -1.1666  1.0842 -1.1688
11234SOL     OW37743  10.245   4.723   2.623  0.0054 -0.2657 -0.2859
11234SOL    HW137744  10.297   4.737   2.702  0.3399  0.7145 -0.6683
11234SOL    HW237745  10.159   4.757   2.644  1.2229  4.3926 -1.7591
11235SOL     OW37746   3.026   3.021   0.767 -0.0908 -0.3219 -0.3683
11235SOL    HW137747   2.975   2.956   0.815  0.0807  0.0410  0.3182
11235SOL    HW237748   3.079   3.065   0.834 -2.1428  2.3836 -0.3362
11236SOL     OW37749   5.641   3.211   0.396 -0.1558 -0.9064  0.3207
11236SOL    HW137750   5.660   3.278   0.461  0.7877 -0.2227 -0.6198
11236SOL    HW237751   5.715   3.152   0.400  0.5067 -0.1987 -0.9249
11237SOL     OW37752   5.262   5.567   0.938 -0.3308  0.0295 -0.0126
11237SOL    HW137753   5.288   5.544   0.849 -0.0218 -1.1467  0.3592
11237SOL    HW237754   5.181   5.518   0.952 -0.5695  0.4930  0.2342
11238SOL     OW37755   0.829   2.971   5.298  0.2249 -0.3237  0.9012
11238SOL    HW137756   0.766   3.042   5.310 -0.8787 -1.4604  2.1392
11238SOL    HW237757   0.788   2.914   5.233  0.4244 -0.5769  0.9972
11239SOL     OW37758   9.966   6.565   8.814 -0.0417 -0.4908 -0.6160
11239SOL    HW137759  10.034   6.540   8.877 -0.6546 -0.7157 -0.0369
11239SOL    HW237760  10.013   6.572   8.730  1.2442  2.0046  0.2009
11240SOL     OW37761   7.987   2.043   4.213 -0.3496  0.6564 -0.2129
11240SOL    HW137762   7.917   1.978   4.208 -0.0949  0.4188 -0.9340
11240SOL    HW237763   7.949   2.118   4.258  0.0677 -0.9002  3.0169
11241SOL     OW37764   0.538   3.970   7.016  0.3636 -0.0836 -0.1804
11241SOL    HW137765   0.446   3.980   7.038 -0.5217 -0.6421 -3.1262
11241SOL    HW237766   0.560   3.882   7.047  0.1496  0.2874  1.1044
11242SOL     OW37767   5.794   9.662   4.689 -0.3198 -1.2133 -0.6091
11242SOL    HW137768   5.788   9.668   4.785 -1.1985 -3.6189 -0.4358
11242SOL    HW237769   5.822   9.749   4.661 -0.1678 -0.4019  1.8196
11243SOL     OW37770  10.167   6.942   8.349 -0.1329  0.2338 -0.3954
11243SOL    HW137771  10.173   7.015   8.287 -0.2486  1.4782  0.9913
11243SOL    HW237772  10.080   6.905   8.332  0.6888 -0.9344 -2.4793
11244SOL     OW37773   1.243   1.460   3.525 -0.3896 -0.8763  0.3137
11244SOL    HW137774   1.280   1.546   3.502 -1.3525 -1.2414 -3.0715
11244SOL    HW237775   1.320   1.405   3.540  0.2896 -0.0219  0.0652
11245SOL     OW37776   9.377   4.557   9.870 -0.5601 -0.0828  0.3086
11245SOL    HW137777   9.296   4.578   9.824  0.8865 -0.3514 -2.6476
11245SOL    HW237778   9.418   4.642   9.885  0.2308 -0.0677 -1.5987
11246SOL     OW37779   2.662   0.405   6.623 -0.5869  0.0508 -0.1530
11246SOL    HW137780   2.582   0.442   6.584 -0.7328 -2.2218 -2.2106
11246SOL    HW237781   2.631   0.332   6.676  0.1127 -0.9110 -1.0503
11247SOL     OW37782   0.543   2.325   8.646  0.0824 -0.2143 -0.5539
11247SOL    HW137783   0.634   2.311   8.672 -0.6619 -1.1716  1.8424
11247SOL    HW237784   0.548   2.374   8.564  2.7706 -2.9677 -2.2296
11248SOL     OW37785   8.238   0.573   5.261 -0.1405  0.1884 -0.1239
11248SOL    HW137786   8.258   0.492   5.214 -1.2738 -0.8724  1.1246
11248SOL    HW237787   8.147   0.593   5.238 -0.0074  0.8667 -0.0821
11249SOL     OW37788   3.878   8.706   4.680  0.1998  0.4391  0.4480
11249SOL    HW137789   3.891   8.611   4.680 -0.0841  0.3970  0.0124
11249SOL    HW237790   3.856   8.727   4.771 -0.5749 -0.0364  0.3792
11250SOL     OW37791   6.692   6.492   1.754 -0.3177  0.2725 -0.1501
11250SOL    HW137792   6.670   6.524   1.666 -0.4863  1.6251  0.3665
11250SOL    HW237793   6.710   6.399   1.741 -1.3001  0.2283 -1.4530
11251SOL     OW37794   1.481   7.410   4.915 -0.3996  0.1474  0.7690
11251SOL    HW137795   1.576   7.423   4.915 -0.2908 -0.3670 -1.1718
11251SOL    HW237796   1.468   7.324   4.875 -1.7432  1.1537 -1.1195
11252SOL     OW37797   6.793   3.147   0.629 -0.2796  0.4937  0.0339
11252SOL    HW137798   6.861   3.114   0.688  0.2045 -0.2988 -0.9392
11252SOL    HW237799   6.742   3.208   0.683 -0.4915 -0.9691  1.5656
11253SOL     OW37800   2.305   2.424   3.557 -0.6522 -0.0978 -0.8124
11253SOL    HW137801   2.226   2.454   3.602  0.6018  1.1033  0.7094
11253SOL    HW237802   2.354   2.377   3.624  0.9926  1.2191 -1.0211
11254SOL     OW37803   6.431   8.349   6.216  1.1019  0.4842  0.0277
11254SOL    HW137804   6.384   8.271   6.187  0.2676  1.3603 -1.0671
11254SOL    HW237805   6.509   8.352   6.162  1.5371 -0.0124  0.6204
11255SOL     OW37806   4.299  10.010   9.022  0.2085 -0.0719  0.0365
11255SOL    HW137807   4.288   9.978   9.111 -0.2487  0.2868  0.1136
11255SOL    HW237808   4.386  10.050   9.020 -0.1416  0.7381  0.5790
11256SOL     OW37809   7.560   9.133   9.512 -0.1173  0.3108 -0.1605
11256SOL    HW137810   7.571   9.045   9.477 -1.9546  0.7152 -1.9309
11256SOL    HW237811   7.565   9.122   9.607  0.2815 -1.5920 -0.3627
11257SOL     OW37812   0.182   9.449   2.812  0.3098 -0.0898  0.0155
11257SOL    HW137813   0.129   9.526   2.790  3.0673  1.8196 -0.3842
11257SOL    HW237814   0.197   9.406   2.728 -1.0886 -1.0170  0.2160
11258SOL     OW37815   3.631   4.796   1.839 -0.0479 -0.5699  0.4804
11258SOL    HW137816   3.581   4.718   1.815 -0.9173  0.1250 -0.0045
11258SOL    HW237817   3.722   4.771   1.826 -0.3314 -1.4067  0.0307
11259SOL     OW37818   2.510   2.597   8.536  0.0091  0.1649  0.1318
11259SOL    HW137819   2.454   2.672   8.517 -0.4170 -0.5949 -1.8197
11259SOL    HW237820   2.484   2.570   8.625 -0.9050  1.3772  0.2625
11260SOL     OW37821   2.485   1.951   1.719 -0.7400  0.0359 -0.1404
11260SOL    HW137822   2.535   1.904   1.653 -1.9426 -1.7595  0.1554
11260SOL    HW237823   2.519   1.918   1.802 -1.5259 -0.2577  0.0740
11261SOL     OW37824   1.141   5.352   5.910 -0.1546 -0.1820  0.5548
11261SOL    HW137825   1.235   5.348   5.929 -0.0408 -0.0851  0.0166
11261SOL    HW237826   1.115   5.441   5.937  0.3358  0.5267 -1.1884
11262SOL     OW37827   6.673   8.167   7.510  0.3563  0.1860  0.3305
11262SOL    HW137828   6.613   8.241   7.524  1.2265  0.7634  1.1531
11262SOL    HW237829   6.619   8.100   7.469 -0.6870  0.9377  0.4228
11263SOL     OW37830   6.177   6.444   0.339  0.2945 -0.2300 -0.3406
11263SOL    HW137831   6.205   6.355   0.362  2.6558  0.5142 -0.1138
11263SOL    HW237832   6.207   6.499   0.411 -1.9423  0.7156 -0.0191
11264SOL     OW37833   6.368   9.722   4.436 -0.2749 -0.2180 -0.2658
11264SOL    HW137834   6.421   9.644   4.452  0.7829  0.2634 -1.2276
11264SOL    HW237835   6.309   9.697   4.365 -0.7725 -0.5062  0.2484
11265SOL     OW37836   4.520   7.798   5.606 -0.2626 -0.2581 -0.2253
11265SOL    HW137837   4.522   7.719   5.551  0.4927 -0.8079  0.5591
11265SOL    HW237838   4.567   7.864   5.556 -1.0787 -0.2430 -0.9830
11266SOL     OW37839   3.308   9.269   1.406  0.0962 -0.0136  0.0701
11266SOL    HW137840   3.259   9.309   1.335 -0.8666 -1.2673 -0.0112
11266SOL    HW237841   3.320   9.178   1.379  1.8496  0.0677  0.4206
11267SOL     OW37842   9.774   5.532   3.303  0.0004  0.3067 -0.0943
11267SOL    HW137843   9.721   5.514   3.381 -1.1697  1.7506 -0.5112
11267SOL    HW237844   9.862   5.502   3.327 -0.3292  0.6611  1.7667
11268SOL     OW37845   2.424   1.776   0.313  0.4033  0.5640 -0.0614
11268SOL    HW137846   2.444   1.788   0.220  2.2718  1.3600  0.3951
11268SOL    HW237847   2.386   1.859   0.340 -2.5601 -0.4820 -0.6018
11269SOL     OW37848   8.684   9.723   3.499  0.1948  0.6102  0.0738
11269SOL    HW137849   8.711   9.712   3.590  0.8047  0.3980 -0.1297
11269SOL    HW237850   8.596   9.759   3.505  0.9504  2.4740  0.7566
11270SOL     OW37851   8.532   0.654   0.830  0.1306  0.2225 -0.2234
11270SOL    HW137852   8.503   0.694   0.748  2.8351 -0.3546 -1.5719
11270SOL    HW237853   8.586   0.580   0.803  2.0518  0.6988  2.0385
11271SOL     OW37854   0.686   5.501   3.129  0.1471 -0.4424 -0.4991
11271SOL    HW137855   0.779   5.491   3.151 -0.3263 -0.5146  1.7971
11271SOL    HW237856   0.677   5.592   3.103  0.8424 -0.4054 -0.6306
11272SOL     OW37857   4.378   2.654   0.670 -0.4753  0.0895  0.1777
11272SOL    HW137858   4.364   2.637   0.763 -1.7132  0.2036  0.0286
11272SOL    HW237859   4.299   2.699   0.641 -0.5221 -0.7498 -1.1240
11273SOL     OW37860  10.103   5.751   3.491 -0.0167 -0.0941 -0.1241
11273SOL    HW137861  10.015   5.766   3.524  0.2837  0.6704  0.3671
11273SOL    HW237862  10.095   5.762   3.396 -0.6236 -0.9704 -0.1796
11274SOL     OW37863   1.374   2.429   6.841  0.7188 -0.3419 -0.0523
11274SOL    HW137864   1.463   2.406   6.871  1.5855  0.7492 -1.6639
11274SOL    HW237865   1.330   2.344   6.832  2.1360 -1.0327 -0.8028
11275SOL     OW37866   8.177   3.777   6.204 -0.8442 -0.2878  0.1594
11275SOL    HW137867   8.202   3.829   6.128 -0.3832 -0.0582  0.4560
11275SOL    HW237868   8.131   3.839   6.261  2.0257  0.5817  1.7344
11276SOL     OW37869   8.470   6.943   6.385 -0.7147 -0.0470  0.4344
11276SOL    HW137870   8.503   6.860   6.348 -0.8260  0.6346 -1.3076
11276SOL    HW237871   8.532   7.009   6.352 -0.9181  0.6324  1.3875
11277SOL     OW37872   6.061   9.242   0.430  0.3871 -0.1219  0.0776
11277SOL    HW137873   5.976   9.284   0.421 -0.0822 -0.9397  0.5794
11277SOL    HW237874   6.054   9.162   0.378  1.0427  0.0739 -0.3273
11278SOL     OW37875   8.197   3.145   9.129 -0.1176  0.1105 -0.4497
11278SOL    HW137876   8.163   3.104   9.209  2.1206  1.0044  1.0503
11278SOL    HW237877   8.245   3.222   9.160  0.0377  1.0252 -2.7703
11279SOL     OW37878   2.093   1.125   4.038  0.4795  0.3635  0.0399
11279SOL    HW137879   2.141   1.043   4.028  0.8527  0.1245  2.9364
11279SOL    HW237880   2.157   1.187   4.072 -0.7208  0.5789  2.0789
11280SOL     OW37881   4.381   7.329   2.360 -0.4821 -0.3859  0.3023
11280SOL    HW137882   4.392   7.245   2.314  1.3446  0.7000 -1.4085
11280SOL    HW237883   4.397   7.395   2.293 -0.4702  1.3451  1.9323
11281SOL     OW37884   9.119   3.600   8.271  0.4030 -0.1844 -0.0395
11281SOL    HW137885   9.190   3.536   8.280  1.3307  0.7845 -0.2764
11281SOL    HW237886   9.132   3.661   8.344 -0.1298  0.0543 -0.1396
11282SOL     OW37887   5.419   4.802   0.524 -0.0354 -0.2645  0.3496
11282SOL    HW137888   5.347   4.739   0.526 -0.2116 -0.2486 -2.3428
11282SOL    HW237889   5.488   4.759   0.474  0.0628  1.4087 -1.0651
11283SOL     OW37890   7.753   1.765   8.653 -0.1456  0.1236 -0.1319
11283SOL    HW137891   7.659   1.747   8.655 -0.2694  0.4658 -1.5830
11283SOL    HW237892   7.789   1.713   8.724 -1.5950  1.0526  1.3662
11284SOL     OW37893   4.019   0.532   9.929  0.3823 -0.3232  0.6321
11284SOL    HW137894   4.020   0.577   9.844 -0.5571  0.3563  0.9686
11284SOL    HW237895   3.986   0.445   9.910 -0.4533  0.0398  0.3953
11285SOL     OW37896   2.956   0.363   0.195  0.5046 -0.1896  0.0462
11285SOL    HW137897   2.981   0.408   0.275 -0.1768 -1.0109  0.7363
11285SOL    HW237898   2.869   0.327   0.213  1.6928 -3.3302  0.2259
11286SOL     OW37899   0.688   6.293   3.189 -0.0318 -0.2224 -0.1119
11286SOL    HW137900   0.757   6.304   3.123  1.1637 -0.1657  1.1086
11286SOL    HW237901   0.704   6.364   3.251 -1.8084  0.3879 -0.2985
11287SOL     OW37902   8.739   4.077  10.030 -0.0908  0.0006 -0.2088
11287SOL    HW137903   8.713   4.108   9.943  0.6442 -0.8105 -0.7302
11287SOL    HW237904   8.658   4.045  10.069 -0.4437  0.4640 -0.5520
11288SOL     OW37905   8.718   5.256   0.497 -0.1429  0.2177  0.3607
11288SOL    HW137906   8.798   5.208   0.515 -0.4050  0.0587  1.1635
11288SOL    HW237907   8.648   5.198   0.526 -0.5785  0.1904 -0.7015
11289SOL     OW37908   4.651   0.613   3.482  0.4214  0.2320  0.3647
11289SOL    HW137909   4.703   0.670   3.425  0.3043  0.2804  0.3047
11289SOL    HW237910   4.658   0.653   3.568  3.2453 -1.5708  1.1094
11290SOL     OW37911   2.082   9.309   6.478 -0.6706  0.3208 -0.3060
11290SOL    HW137912   1.990   9.307   6.452 -0.5352  0.8783 -0.8633
11290SOL    HW237913   2.085   9.372   6.550 -0.7315  0.2820 -0.2694
11291SOL     OW37914   9.104   3.744   7.329  0.5802 -0.1888  0.1020
11291SOL    HW137915   9.057   3.793   7.261 -2.1990 -2.6910  0.0198
11291SOL    HW237916   9.151   3.676   7.281 -0.4046 -1.2081  0.5460
11292SOL     OW37917   7.265   9.108   3.319  0.1719 -0.1995 -0.2196
11292SOL    HW137918   7.322   9.102   3.242 -0.5585 -2.5195 -0.6423
11292SOL    HW237919   7.234   9.199   3.318  0.9960  0.1158 -2.0761
11293SOL     OW37920   3.337   5.434   2.968 -0.2295  0.1077  0.3497
11293SOL    HW137921   3.353   5.498   3.037  1.4259  1.1681 -0.9407
11293SOL    HW237922   3.406   5.369   2.978  0.4295  0.6227 -0.6617
11294SOL     OW37923  10.283   2.669   6.826 -0.0010  0.0610 -0.1333
11294SOL    HW137924  10.297   2.647   6.734 -2.0234 -0.2168 -0.4254
11294SOL    HW237925  10.226   2.599   6.858  2.1050 -0.8570  1.8675
11295SOL     OW37926   4.619   7.101   0.296 -0.1576  0.2802  0.3754
11295SOL    HW137927   4.654   7.023   0.339  0.5273 -0.6160 -1.6817
11295SOL    HW237928   4.529   7.078   0.272  0.1416  0.0095 -0.4946
11296SOL     OW37929   4.428   3.319   9.111  0.5538 -0.1953 -0.2893
11296SOL    HW137930   4.450   3.276   9.028 -0.0757 -0.8881 -0.1113
11296SOL    HW237931   4.488   3.393   9.116 -0.5710  0.9382 -2.2102
11297SOL     OW37932   7.812   7.915   6.830  0.1442  0.0391 -0.3457
11297SOL    HW137933   7.875   7.971   6.784  0.4965  0.1513  0.2620
11297SOL    HW237934   7.794   7.960   6.912  0.0550 -0.4969 -0.0639
11298SOL     OW37935   3.371   6.453   2.810  0.6422 -0.0760 -0.0671
11298SOL    HW137936   3.466   6.456   2.815  0.7641 -1.0091 -1.2476
11298SOL    HW237937   3.349   6.515   2.740  0.3525  0.3799  0.4245
11299SOL     OW37938   4.340   5.586   3.643 -0.0265  0.2765  0.3510
11299SOL    HW137939   4.315   5.619   3.730 -0.5945 -1.0626  0.7140
11299SOL    HW237940   4.264   5.536   3.614  0.2963  0.4155 -0.7866
11300SOL     OW37941   1.185   2.777   3.037 -0.0764  0.0961 -0.0570
11300SOL    HW137942   1.158   2.827   3.114 -0.9624 -1.0919  0.4197
11300SOL    HW237943   1.241   2.707   3.071  1.4824  0.9382 -0.7635
11301SOL     OW37944   1.134   8.363   8.955 -0.1167 -0.3769 -0.8405
11301SOL    HW137945   1.045   8.350   8.987 -0.8396  0.1336 -2.5208
11301SOL    HW237946   1.152   8.455   8.974  0.0876 -0.5005 -0.4287
11302SOL     OW37947   6.173   4.727   4.631  0.2882  0.2152  0.2885
11302SOL    HW137948   6.179   4.817   4.661 -0.8910 -0.6317  3.4488
11302SOL    HW237949   6.095   4.724   4.576  1.2532  1.3738 -1.2263
11303SOL     OW37950   7.157   8.098   3.129 -0.1277 -0.3796  0.3260
11303SOL    HW137951   7.136   8.028   3.191  0.9799 -1.5832 -0.5922
11303SOL    HW237952   7.139   8.060   3.043  2.2246 -0.2687 -0.3047
11304SOL     OW37953   0.519   2.027   1.645  0.3458 -0.4202  0.3301
11304SOL    HW137954   0.490   1.936   1.650  0.5061 -0.4720  0.2987
11304SOL    HW237955   0.562   2.034   1.560  0.9048 -0.4794  0.6060
11305SOL     OW37956   8.024   7.973   1.312 -0.7590  0.1451 -0.5148
11305SOL    HW137957   7.979   7.897   1.275  0.2519 -0.4373 -0.5604
11305SOL    HW237958   7.998   8.045   1.254 -1.4556 -0.2141 -0.6681
11306SOL     OW37959   7.472   4.562   3.375  0.0464  0.1321 -0.3397
11306SOL    HW137960   7.538   4.624   3.344 -1.6958  1.9332 -0.6391
11306SOL    HW237961   7.444   4.515   3.296 -0.2970  0.6550 -0.5350
11307SOL     OW37962   2.075   3.966   8.831 -0.6575  0.0887 -0.5356
11307SOL    HW137963   2.005   3.952   8.894  1.1866 -1.0449  1.3908
11307SOL    HW237964   2.096   4.059   8.838 -0.2254 -0.0940  0.8527
11308SOL     OW37965   3.709   5.695   5.042  0.2569  0.4437  0.3275
11308SOL    HW137966   3.769   5.642   4.989 -0.6912  1.0970 -1.4834
11308SOL    HW237967   3.752   5.780   5.050  0.1459  0.5233  0.0971
11309SOL     OW37968   0.773   0.875   6.992 -0.2124  0.0215 -0.2595
11309SOL    HW137969   0.824   0.944   6.949 -0.2041 -0.3189 -0.7965
11309SOL    HW237970   0.835   0.804   7.006 -0.9428 -1.1948 -2.7226
11310SOL     OW37971   9.652   3.011   1.916 -0.4031  0.5582  0.0790
11310SOL    HW137972   9.614   2.924   1.909  0.7092  0.1742 -1.8739
11310SOL    HW237973   9.577   3.068   1.933 -1.1436 -0.7380  1.3778
11311SOL     OW37974   8.742   7.659   2.952 -0.5274  0.2734  0.4539
11311SOL    HW137975   8.736   7.617   3.038  2.8861  0.8606  1.1303
11311SOL    HW237976   8.730   7.588   2.889 -0.6164 -0.6223  1.4569
11312SOL     OW37977  10.283   8.249   6.202  0.5311  0.3178  0.3293
11312SOL    HW137978  10.239   8.170   6.232  0.8182  0.8996  2.4493
11312SOL    HW237979  10.358   8.218   6.152  0.3638 -0.7388  0.7195
11313SOL     OW37980   1.995   9.085   9.696 -0.3895  0.2531  0.6578
11313SOL    HW137981   2.005   9.174   9.661  0.2676 -0.0095  0.1692
11313SOL    HW237982   2.084   9.058   9.718 -0.5636 -0.3743  0.5980
11314SOL     OW37983   8.939   6.147   8.203 -0.5107  0.2870 -0.3786
11314SOL    HW137984   8.954   6.128   8.110 -1.9984 -3.4792 -0.0488
11314SOL    HW237985   9.025   6.139   8.243  0.0725  1.4811 -1.3181
11315SOL     OW37986   7.183   9.442   7.696 -0.6488  0.0300 -0.0553
11315SOL    HW137987   7.205   9.523   7.651  0.9117  0.1991  0.9199
11315SOL    HW237988   7.093   9.454   7.725 -0.1102  1.9283  1.0293
11316SOL     OW37989   6.917   9.190   8.902  0.1798 -0.1999  0.3073
11316SOL    HW137990   6.919   9.285   8.893  1.4482 -0.2114  0.2886
11316SOL    HW237991   6.827   9.165   8.879  0.1343  0.8763 -0.7651
11317SOL     OW37992  10.186   0.879   0.364  0.6584 -0.4086 -0.9791
11317SOL    HW137993  10.244   0.896   0.290  0.8369 -0.4616 -0.8503
11317SOL    HW237994  10.134   0.959   0.372 -0.4408 -0.9755 -2.1394
11318SOL     OW37995  10.049   1.483   9.236  0.1716  0.3407 -0.1555
11318SOL    HW137996  10.081   1.543   9.303  0.5080  1.1113 -0.9903
11318SOL    HW237997  10.126   1.462   9.183 -0.3562  0.8753 -1.1569
11319SOL     OW37998   5.877   1.570   9.464 -0.1426 -0.3958  0.3946
11319SOL    HW137999   5.939   1.635   9.497 -1.4935  1.0497  0.2105
11319SOL    HW238000   5.909   1.548   9.377 -0.9304  1.8937 -0.5530
11320SOL     OW38001   5.641   1.830   7.009  0.0645  0.2953  0.2236
11320SOL    HW138002   5.706   1.899   7.020 -0.4118  0.8075 -0.1525
11320SOL    HW238003   5.605   1.844   6.921  0.0769 -0.5284  0.0728
11321SOL     OW38004   7.009   0.487   4.566  0.3598 -0.0300  0.2981
11321SOL    HW138005   7.031   0.580   4.580 -2.0281  1.3035 -3.3513
11321SOL    HW238006   7.090   0.447   4.535  0.9762  1.2952  0.1289
11322SOL     OW38007   4.984   2.408   7.938 -0.5299 -0.3897  0.2502
11322SOL    HW138008   5.079   2.412   7.929 -0.5712 -0.1907 -0.1230
11322SOL    HW238009   4.960   2.490   7.982 -0.3007 -1.4842  2.5708
11323SOL     OW38010   0.840   9.071   2.193 -0.0323  0.5757  0.4041
11323SOL    HW138011   0.886   9.046   2.272 -0.9675 -2.9726 -0.0143
11323SOL    HW238012   0.903   9.056   2.122  0.3505  2.4132  0.3086
11324SOL     OW38013   4.516   5.392   1.779 -0.5322  0.7113  0.2641
11324SOL    HW138014   4.583   5.423   1.840 -1.0715  1.3611  0.5469
11324SOL    HW238015   4.565   5.357   1.705  0.1601 -1.0605  1.5060
11325SOL     OW38016   5.874   4.643   6.154 -0.0198  0.1131  0.0864
11325SOL    HW138017   5.781   4.655   6.138 -0.3302 -0.8062  1.0778
11325SOL    HW238018   5.898   4.567   6.100 -0.0470 -0.1890  0.4957
11326SOL     OW38019  10.153   2.792   8.483  0.1571  0.4388 -0.2541
11326SOL    HW138020  10.079   2.790   8.543 -0.2100  0.1597 -0.7082
11326SOL    HW238021  10.135   2.722   8.420  0.7269  0.4741 -0.4643
11327SOL     OW38022   4.770   6.580   6.269 -0.4226 -0.3615 -0.5824
11327SOL    HW138023   4.844   6.558   6.325  0.0893  0.8327 -0.7606
11327SOL    HW238024   4.768   6.512   6.202  1.4431  0.3738 -1.4536
11328SOL     OW38025   5.988   1.916   9.336 -0.3827 -0.1694  0.0965
11328SOL    HW138026   6.031   1.851   9.392 -1.0397 -0.9118 -0.2429
11328SOL    HW238027   6.058   1.949   9.279 -0.0385 -0.5508  0.2960
11329SOL     OW38028   6.209   0.819   9.435  0.2218 -0.3041  0.3664
11329SOL    HW138029   6.134   0.865   9.474 -0.1080 -1.6051  1.3196
11329SOL    HW238030   6.285   0.859   9.478 -0.0181 -0.1858  0.6883
11330SOL     OW38031   9.109   8.351  10.010 -0.3083  0.0732  0.2160
11330SOL    HW138032   9.019   8.324   9.991  0.0555 -1.6459  0.8129
11330SOL    HW238033   9.100   8.439  10.047 -1.5521  0.8026 -1.6509
11331SOL     OW38034   5.020   6.819   8.607  0.1731 -0.2830  0.1860
11331SOL    HW138035   5.092   6.863   8.653  0.0948 -0.6545  0.6635
11331SOL    HW238036   5.022   6.857   8.518  0.5101  0.2188  0.4015
11332SOL     OW38037  10.011   4.797   2.837 -0.3924 -0.1875  0.3221
11332SOL    HW138038   9.975   4.713   2.864 -2.8948  0.9938  0.9187
11332SOL    HW238039   9.960   4.822   2.760  0.7604  0.5033 -0.2422
11333SOL     OW38040   8.304   7.423   7.033 -0.2110 -0.4161 -0.3902
11333SOL    HW138041   8.287   7.413   6.940  0.0632  0.1806 -0.5054
11333SOL    HW238042   8.285   7.515   7.052 -2.1153 -0.9455  0.5376
11334SOL     OW38043   9.285   2.509   6.682 -0.4066  1.2302  0.5536
11334SOL    HW138044   9.264   2.559   6.603 -1.4630 -0.2869 -0.1777
11334SOL    HW238045   9.370   2.469   6.663  0.2309  2.3674  0.9636
11335SOL     OW38046   6.718   1.568   5.678  0.4271  0.5022  0.0589
11335SOL    HW138047   6.750   1.659   5.681  0.6122  0.4906 -1.1588
11335SOL    HW238048   6.762   1.530   5.602 -0.3216 -0.3624  0.0493
11336SOL     OW38049   6.187   3.549   8.444 -0.1449  0.0626  0.2666
11336SOL    HW138050   6.148   3.506   8.521 -1.1183  0.1926 -0.1392
11336SOL    HW238051   6.113   3.569   8.388  0.4011  1.3463 -0.0326
11337SOL     OW38052   9.480   6.499   6.552 -0.0628 -0.1936 -0.0296
11337SOL    HW138053   9.575   6.509   6.561 -0.1518  0.5220  0.2128
11337SOL    HW238054   9.466   6.487   6.458  0.1758  0.9810 -0.2394
11338SOL     OW38055   9.887   2.697   4.803 -0.6644 -0.1437 -0.0915
11338SOL    HW138056   9.909   2.758   4.873 -0.1670 -1.1074  0.6203
11338SOL    HW238057   9.946   2.720   4.731  1.5719 -1.5455  1.1573
11339SOL     OW38058   6.379   5.501   3.425 -0.3138 -0.1455 -0.2669
11339SOL    HW138059   6.461   5.541   3.398  0.2478  0.0849  1.6656
11339SOL    HW238060   6.368   5.426   3.366  0.7638  0.3893 -1.1746
11340SOL     OW38061   7.160   7.656   0.605 -0.0842  0.1014  0.0487
11340SOL    HW138062   7.121   7.733   0.564 -5.1847 -0.6265  2.7797
11340SOL    HW238063   7.139   7.584   0.544 -0.8478  0.0706  0.3372
11341SOL     OW38064   2.073   4.510   1.274 -0.4625 -0.2674 -0.4970
11341SOL    HW138065   2.018   4.438   1.243  0.9918 -0.7572 -2.1297
11341SOL    HW238066   2.013   4.585   1.279 -1.2801 -0.7261 -2.4193
11342SOL     OW38067   2.783   1.738   0.621 -0.6022 -0.5467 -0.1593
11342SOL    HW138068   2.721   1.691   0.678 -1.2516  0.0383 -0.3608
11342SOL    HW238069   2.759   1.710   0.532 -1.3182  0.5049 -0.3187
11343SOL     OW38070   8.922   8.812   3.130  0.3446  0.2203  0.3409
11343SOL    HW138071   8.864   8.819   3.207 -0.3869 -2.0882  0.0810
11343SOL    HW238072   8.882   8.742   3.077  2.2597 -0.0111 -0.8655
11344SOL     OW38073   4.346   6.132   3.008  0.0488  0.6064  0.4684
11344SOL    HW138074   4.290   6.205   3.035 -0.2487 -0.2028  2.2101
11344SOL    HW238075   4.411   6.125   3.078 -0.5441 -1.4032  0.8837
11345SOL     OW38076   1.986   7.415   2.403  0.3444  0.7028 -0.7200
11345SOL    HW138077   1.897   7.417   2.436  0.8295  0.8828  0.6150
11345SOL    HW238078   2.037   7.373   2.472  1.7610  3.0064 -0.2632
11346SOL     OW38079   2.190   1.077   0.932  0.1535  0.0653 -0.4911
11346SOL    HW138080   2.154   1.156   0.972 -2.1392 -1.8398  1.5215
11346SOL    HW238081   2.164   1.082   0.840  0.0944  1.6105 -0.4249
11347SOL     OW38082   8.208   7.917   6.442  0.0178 -0.4259  0.7006
11347SOL    HW138083   8.298   7.885   6.450  0.6766  0.8103 -1.1383
11347SOL    HW238084   8.157   7.862   6.502  1.7817 -1.9876  0.8466
11348SOL     OW38085  10.021   4.305   5.286  0.3750  0.1172 -0.2585
11348SOL    HW138086   9.948   4.343   5.334 -0.4653 -0.1585 -1.2807
11348SOL    HW238087  10.003   4.211   5.285 -0.4836  0.2352 -2.4128
11349SOL     OW38088   5.297   9.919   0.114 -0.1183  0.2443 -0.3391
11349SOL    HW138089   5.202   9.914   0.128 -0.0086 -0.3654  0.2276
11349SOL    HW238090   5.323   9.829   0.094  0.3272  0.4284 -0.6096
11350SOL     OW38091   5.670   4.891   1.001  0.5663  0.0573  0.1310
11350SOL    HW138092   5.731   4.859   1.067 -1.6137  1.2623  2.9483
11350SOL    HW238093   5.702   4.979   0.979 -0.8498  1.4081  2.8851
11351SOL     OW38094  10.110   4.594   9.227 -0.1808  0.6231  0.0003
11351SOL    HW138095  10.178   4.564   9.166  0.6136  0.7953  0.7869
11351SOL    HW238096  10.029   4.590   9.176  0.3624  0.0760 -0.8473
11352SOL     OW38097   5.142   2.154   0.703 -0.0500  0.7080  0.1041
11352SOL    HW138098   5.182   2.138   0.788 -0.4725  0.0625  0.1888
11352SOL    HW238099   5.081   2.227   0.719  0.3528  1.0259  0.1992
11353SOL     OW38100   5.083   7.714   7.693  0.1382 -0.1836  0.5188
11353SOL    HW138101   5.101   7.744   7.783  2.3786 -0.8439  0.3534
11353SOL    HW238102   5.119   7.782   7.637 -0.6997 -0.0686  0.1088
11354SOL     OW38103   4.823   1.329   1.935 -0.0828 -0.3730  0.6035
11354SOL    HW138104   4.808   1.368   1.849  0.3249 -2.7224 -0.6104
11354SOL    HW238105   4.736   1.306   1.967 -0.1761 -0.2031  0.4689
11355SOL     OW38106   8.974   3.543   2.221 -0.1574 -0.0768 -0.3138
11355SOL    HW138107   8.972   3.639   2.214  0.2321 -0.0544 -0.1142
11355SOL    HW238108   9.050   3.524   2.276  0.0074 -0.5234 -0.6893
11356SOL     OW38109   1.298   1.734   7.488  0.6829  0.5877 -0.1768
11356SOL    HW138110   1.300   1.821   7.448  2.9116  0.7723  0.1631
11356SOL    HW238111   1.313   1.674   7.415  0.3287  0.5776 -0.2421
11357SOL     OW38112   1.270   3.492   5.083  0.4875  0.3216 -0.0535
11357SOL    HW138113   1.255   3.482   4.989 -0.2477  0.0326  0.0838
11357SOL    HW238114   1.198   3.444   5.124  0.6019  0.7323  0.6573
11358SOL     OW38115   1.498   0.978   9.280  0.0181  0.6058  0.4337
11358SOL    HW138116   1.433   0.909   9.288 -1.3600  1.6001 -1.4117
11358SOL    HW238117   1.451   1.058   9.304  1.0819  1.1345  0.8190
11359SOL     OW38118   2.767   3.381   9.734  0.3808 -0.3192  0.3071
11359SOL    HW138119   2.807   3.296   9.719  2.6589  0.8323 -0.6969
11359SOL    HW238120   2.699   3.388   9.666  2.1986 -0.1934 -1.5888
11360SOL     OW38121   5.260   6.412   6.354 -0.1754  0.0312  0.0598
11360SOL    HW138122   5.258   6.352   6.429 -0.3163  0.3999  0.3565
11360SOL    HW238123   5.353   6.427   6.338 -0.0358 -1.8161 -1.2927
11361SOL     OW38124   8.844   2.426   0.647 -0.1274 -0.3793  0.1956
11361SOL    HW138125   8.760   2.472   0.646  0.4125  0.7246  1.5450
11361SOL    HW238126   8.846   2.377   0.564 -2.2309 -0.7287  0.3004
11362SOL     OW38127   6.844   6.137   9.551 -0.3584  0.0679 -0.3130
11362SOL    HW138128   6.911   6.069   9.554  0.2101  0.6321  2.3738
11362SOL    HW238129   6.764   6.093   9.581  0.0398  0.5100  1.5629
11363SOL     OW38130   1.018   9.689   6.604 -0.2142  0.3116 -0.2137
11363SOL    HW138131   1.081   9.688   6.532 -1.9988 -1.6401 -1.8377
11363SOL    HW238132   0.988   9.599   6.611 -1.8160  0.9241  1.4454
11364SOL     OW38133   4.985   7.847   5.148  0.2330 -0.2061 -0.4543
11364SOL    HW138134   5.064   7.793   5.159 -0.0669 -0.1800  2.6646
11364SOL    HW238135   4.919   7.786   5.114  0.5678 -1.2592  0.6996
11365SOL     OW38136   0.793   3.566   7.592 -0.1756 -0.0622  0.1077
11365SOL    HW138137   0.784   3.650   7.638 -0.2855 -0.1149  0.1809
11365SOL    HW238138   0.723   3.512   7.627 -2.1527  0.8261 -2.2454
11366SOL     OW38139   5.101   6.611   8.925  0.0297 -0.0814 -0.3048
11366SOL    HW138140   5.115   6.654   9.009 -0.5328  1.0308 -0.7612
11366SOL    HW238141   5.162   6.537   8.925 -0.4053 -0.4644  1.3250
11367SOL     OW38142   3.485   2.870   2.919 -0.3148  0.0298 -0.1904
11367SOL    HW138143   3.572   2.832   2.921  0.1588  1.1114  0.3885
11367SOL    HW238144   3.426   2.796   2.905  0.7501 -0.6104 -1.4277
11368SOL     OW38145   9.575   8.188   5.189  0.3726 -0.2701 -0.3102
11368SOL    HW138146   9.591   8.186   5.283 -0.6593 -2.0411 -0.1292
11368SOL    HW238147   9.491   8.232   5.180  0.1191 -0.7482 -0.3261
11369SOL     OW38148   0.067   2.262   0.846  0.4574  0.2199  0.8181
11369SOL    HW138149   0.136   2.328   0.859 -0.1192  1.2686 -1.0407
11369SOL    HW238150  -0.010   2.301   0.887  0.5094 -0.0700  1.1921
11370SOL     OW38151   8.345   0.352   0.652  0.5853 -0.4840  0.1780
11370SOL    HW138152   8.309   0.435   0.684  0.4402 -1.0616  1.5945
11370SOL    HW238153   8.286   0.285   0.688  0.9539 -1.2313 -0.5727
11371SOL     OW38154   4.008   5.164   1.084  0.2940  0.1351  1.1732
11371SOL    HW138155   4.102   5.149   1.074 -0.1757 -1.8114 -1.1349
11371SOL    HW238156   4.001   5.257   1.105  2.8152 -0.1390  3.7574
11372SOL     OW38157   8.949   5.391   6.682  0.3812 -0.3275 -0.5066
11372SOL    HW138158   8.858   5.364   6.673  0.0477 -0.1561  1.8917
11372SOL    HW238159   8.947   5.486   6.670  0.2325 -0.3137 -0.3694
11373SOL     OW38160   3.393   3.027   5.718  0.0259 -0.7347 -0.4522
11373SOL    HW138161   3.317   2.989   5.675 -0.7766  0.2173  0.0639
11373SOL    HW238162   3.428   3.090   5.655 -1.2239  0.7508  0.2754
11374SOL     OW38163   3.519  10.155  10.186 -0.0643  0.1711 -0.3236
11374SOL    HW138164   3.437  10.150  10.236 -0.4222 -0.8111 -0.9685
11374SOL    HW238165   3.563  10.072  10.205 -0.2528 -0.2676 -1.6706
11375SOL     OW38166   2.575   4.630   9.567 -0.4426 -0.0924 -0.0001
11375SOL    HW138167   2.646   4.643   9.630 -1.4942  2.4230  0.7741
11375SOL    HW238168   2.602   4.553   9.517  2.1059 -0.1043  1.2257
11376SOL     OW38169   4.764   8.351   1.798  0.1493  0.3499  0.1127
11376SOL    HW138170   4.706   8.426   1.803  0.3128  0.4662  0.2844
11376SOL    HW238171   4.786   8.344   1.705 -0.7561 -0.1756 -0.0737
11377SOL     OW38172   9.922   5.669   0.127 -0.0006 -0.0278 -0.4927
11377SOL    HW138173   9.910   5.635   0.216 -0.3772 -0.8208 -0.8393
11377SOL    HW238174   9.835   5.667   0.088  0.1509  0.3804 -0.8677
11378SOL     OW38175   5.307   4.095   5.081  0.5174  0.2225 -0.2270
11378SOL    HW138176   5.252   4.116   5.156 -0.5568 -0.3517 -0.8415
11378SOL    HW238177   5.261   4.131   5.006  1.1783  0.0835 -0.7122
11379SOL     OW38178   2.149  10.236   3.945  0.4452  0.0994  0.2261
11379SOL    HW138179   2.118  10.262   4.031  1.0869  0.0341  0.4834
11379SOL    HW238180   2.225  10.180   3.962  0.0078 -0.6898 -0.3617
11380SOL     OW38181   4.664   2.233   4.514  0.2445 -0.1354  0.1199
11380SOL    HW138182   4.638   2.164   4.575 -2.5199  1.0580  0.4441
11380SOL    HW238183   4.658   2.193   4.428 -1.9324 -0.2374  0.2583
11381SOL     OW38184   0.839   1.509   6.053 -1.0906  0.0847  0.2054
11381SOL    HW138185   0.888   1.512   6.136 -0.6678  0.5674 -0.0612
11381SOL    HW238186   0.873   1.582   6.002 -2.4599  0.7434  0.2097
11382SOL     OW38187   4.292   6.305   7.931  0.5327  0.4046 -0.4741
11382SOL    HW138188   4.267   6.230   7.985  0.2970  1.3165  0.7270
11382SOL    HW238189   4.365   6.273   7.879  1.0580 -0.3969  0.6938
11383SOL     OW38190   4.710   7.921   1.265  0.0860 -0.0792  0.2269
11383SOL    HW138191   4.645   7.965   1.211  1.8452  1.6667 -0.5913
11383SOL    HW238192   4.785   7.909   1.207  0.1084 -3.2387  0.7471
11384SOL     OW38193   3.555   8.004   0.685  0.0571  0.2499 -0.2401
11384SOL    HW138194   3.612   8.045   0.750 -1.4974  3.0220 -0.4745
11384SOL    HW238195   3.576   8.049   0.603 -0.7916 -0.4121 -0.8343
11385SOL     OW38196   5.139   6.613   7.107 -0.0278 -0.0866 -0.0355
11385SOL    HW138197   5.200   6.650   7.043  3.3540  0.7852  3.3025
11385SOL    HW238198   5.159   6.520   7.109  0.6101  0.0583  0.4596
11386SOL     OW38199   8.633   4.150   7.175 -0.1001 -0.1516  0.4428
11386SOL    HW138200   8.643   4.152   7.270  1.1900  0.7297  0.3134
11386SOL    HW238201   8.722   4.158   7.141 -0.6883  1.6283 -0.8378
11387SOL     OW38202   8.546   2.982   0.880  0.4735  0.0935  0.4380
11387SOL    HW138203   8.475   2.922   0.858  1.0926  0.0929 -1.9024
11387SOL    HW238204   8.526   3.062   0.831  1.0918  0.7839  1.2877
11388SOL     OW38205   4.642   1.200   0.737  0.3009 -0.2211 -0.1866
11388SOL    HW138206   4.672   1.269   0.678 -0.2806 -0.8787 -1.2927
11388SOL    HW238207   4.681   1.120   0.702 -2.1127 -1.0058 -1.2938
11389SOL     OW38208   2.580  10.070   3.249  0.2702 -0.0731 -0.0723
11389SOL    HW138209   2.513  10.022   3.200 -1.4241  0.4696  1.5885
11389SOL    HW238210   2.632  10.115   3.182 -0.2631 -1.4545 -1.4672
11390SOL     OW38211   7.406   9.195   8.793 -1.0020  0.0203  0.3009
11390SOL    HW138212   7.340   9.139   8.834 -1.9521  0.4006 -0.6721
11390SOL    HW238213   7.367   9.282   8.793  0.1390  0.5521  1.0771
11391SOL     OW38214   6.562   0.025  10.029 -0.2301  0.0498 -0.3633
11391SOL    HW138215   6.554   0.037  10.124  2.9727  0.6282 -0.0694
11391SOL    HW238216   6.593  -0.065  10.019  3.5062  1.1934 -0.4268
11392SOL     OW38217   4.628   1.616   6.897 -0.3601  0.0475 -0.2302
11392SOL    HW138218   4.641   1.522   6.911  0.5806  0.2651  0.4518
11392SOL    HW238219   4.660   1.657   6.977 -0.9194  0.9487 -0.4519
11393SOL     OW38220   1.819   1.961   2.470 -0.2018 -0.9403 -0.0884
11393SOL    HW138221   1.853   1.985   2.556  2.0061 -0.0184 -1.1346
11393SOL    HW238222   1.757   2.030   2.448 -0.8444 -1.2284  0.7728
11394SOL     OW38223   7.999   1.740   2.136 -0.0765  0.0646  0.0654
11394SOL    HW138224   8.045   1.686   2.200  2.8076 -0.5736 -2.3134
11394SOL    HW238225   8.067   1.797   2.099 -1.7130  0.8880 -1.8894
11395SOL     OW38226   7.872   0.667   5.371 -0.3760  0.0207  0.1725
11395SOL    HW138227   7.880   0.608   5.447 -1.0635 -0.4212 -0.0862
11395SOL    HW238228   7.918   0.622   5.301 -0.8232 -0.1713 -0.0014
11396SOL     OW38229   9.797   3.060   7.995  0.2339 -0.1181  0.1679
11396SOL    HW138230   9.752   3.106   8.066  1.0477  0.2174  0.4803
11396SOL    HW238231   9.831   3.130   7.939 -0.4712 -0.3781 -0.6157
11397SOL     OW38232   1.838   4.320   0.576 -0.4972 -0.3243  0.1653
11397SOL    HW138233   1.808   4.398   0.622  0.5269 -1.1161  2.2979
11397SOL    HW238234   1.922   4.345   0.538 -0.7857 -0.0102 -0.2646
11398SOL     OW38235   4.047   2.760   2.703  0.2618  0.6139  0.2149
11398SOL    HW138236   4.000   2.843   2.703 -1.8279 -0.4823 -0.1592
11398SOL    HW238237   4.046   2.731   2.795  0.7269  0.8561  0.2980
11399SOL     OW38238   0.982   0.319   9.831 -0.1484 -0.1405 -0.7405
11399SOL    HW138239   0.899   0.339   9.874  0.5679 -1.9214  1.6484
11399SOL    HW238240   1.030   0.402   9.835 -0.6938  0.1506  0.5541
11400SOL     OW38241   1.987   5.348   0.452  0.1529 -0.5759 -0.7329
11400SOL    HW138242   2.022   5.344   0.541  0.4751 -0.2018 -0.8424
11400SOL    HW238243   1.893   5.340   0.464  0.2146 -0.8346 -0.3799
11401SOL     OW38244   7.272   7.716  10.122 -0.1279 -0.1989 -0.8828
11401SOL    HW138245   7.192   7.768  10.129  1.4109  2.1220  0.7777
11401SOL    HW238246   7.240   7.625  10.115 -2.8867  0.6968 -1.2721
11402SOL     OW38247   0.554   7.477   8.830  0.2706  0.7340  0.0715
11402SOL    HW138248   0.642   7.441   8.841  0.5278  1.6919  1.5177
11402SOL    HW238249   0.496   7.412   8.870  0.1813 -0.3943 -1.8209
11403SOL     OW38250   2.735   1.933   5.204 -0.5514 -0.8146 -0.4298
11403SOL    HW138251   2.807   1.983   5.244 -1.6321 -0.1140  0.7126
11403SOL    HW238252   2.779   1.861   5.158  0.8171 -1.3192  1.5277
11404SOL     OW38253   2.885   5.231   4.038  0.2645 -0.1899  0.7138
11404SOL    HW138254   2.836   5.249   3.958  0.3802 -1.4187  0.3572
11404SOL    HW238255   2.898   5.318   4.077 -0.9713  0.2993  0.1134
11405SOL     OW38256   2.408   5.110   2.439  0.3630  0.1539 -0.0804
11405SOL    HW138257   2.454   5.081   2.361  0.5081 -1.1034  0.4560
11405SOL    HW238258   2.400   5.205   2.428  0.8788  0.0702 -1.3410
11406SOL     OW38259   4.170   7.523   8.294  0.9013  0.1619 -0.4809
11406SOL    HW138260   4.152   7.474   8.214  1.0445  0.5011 -0.7227
11406SOL    HW238261   4.172   7.456   8.363  3.1352 -0.4579 -1.0854
11407SOL     OW38262  10.110   4.277   7.429  0.3442  0.6741 -0.2579
11407SOL    HW138263  10.079   4.264   7.340  0.1693  2.6316 -0.5254
11407SOL    HW238264  10.031   4.293   7.480  0.5606  1.0982 -0.0500
11408SOL     OW38265   2.747   7.355   9.712  0.2455  0.2319 -0.0120
11408SOL    HW138266   2.743   7.364   9.617  0.4853 -0.9543 -0.1483
11408SOL    HW238267   2.675   7.409   9.744  2.7607  4.3167 -0.5306
11409SOL     OW38268   6.571   4.722   2.675 -0.4917  0.5635 -0.0853
11409SOL    HW138269   6.651   4.773   2.661  0.0412 -0.9876 -3.8459
11409SOL    HW238270   6.565   4.713   2.770  4.1798  0.2487  0.4320
11410SOL     OW38271   8.028   0.928   8.241 -0.1740 -0.5127  0.0337
11410SOL    HW138272   7.940   0.932   8.204 -0.1047  1.7576 -0.0225
11410SOL    HW238273   8.085   0.922   8.164 -0.2253 -0.6316  0.0044
11411SOL     OW38274  10.075   5.329   4.220  0.4276 -0.5188  0.2248
11411SOL    HW138275  10.023   5.264   4.173 -3.9275  2.6614  0.0671
11411SOL    HW238276  10.100   5.393   4.153  0.6926  0.2697  1.0585
11412SOL     OW38277   7.266   1.320   4.231  0.4038  0.0757  0.0652
11412SOL    HW138278   7.187   1.339   4.283  0.5256  1.3584 -0.1889
11412SOL    HW238279   7.232   1.277   4.152 -0.0550  0.7547 -0.1109
11413SOL     OW38280   2.937   4.257   6.081 -0.2735  0.4061 -0.9760
11413SOL    HW138281   2.870   4.315   6.044 -0.2955  1.4651  0.6254
11413SOL    HW238282   3.007   4.316   6.109  0.5840 -0.5421 -1.0916
11414SOL     OW38283   5.147   6.750   0.739  0.0749  0.2980  1.0182
11414SOL    HW138284   5.098   6.678   0.699  0.6293  1.0622 -1.1914
11414SOL    HW238285   5.098   6.828   0.715  1.6223  0.9637 -0.1371
11415SOL     OW38286   7.504   6.263   3.620  0.5518  0.0382  0.5798
11415SOL    HW138287   7.492   6.298   3.708 -0.6028 -0.1101  0.5016
11415SOL    HW238288   7.577   6.312   3.584 -0.7040  2.0606  0.6454
11416SOL     OW38289   7.752   0.266   7.299  0.4383  0.0469  0.2531
11416SOL    HW138290   7.671   0.218   7.282  0.3763  1.0596 -2.9118
11416SOL    HW238291   7.818   0.221   7.246  1.2134  1.1305  0.2703
11417SOL     OW38292   7.310   7.091   4.939  0.5707 -0.0339  0.2197
11417SOL    HW138293   7.375   7.047   4.885 -0.3534 -0.8191 -0.2890
11417SOL    HW238294   7.346   7.088   5.028  1.8572  0.7860 -0.2485
11418SOL     OW38295  10.255   6.221   0.326  0.0085 -0.1163 -0.5092
11418SOL    HW138296  10.273   6.128   0.336  1.4748  0.3016  1.1699
11418SOL    HW238297  10.268   6.239   0.233  1.1465 -1.3198 -0.6028
11419SOL     OW38298   9.109   3.456   7.687 -0.1292 -0.5339  0.0304
11419SOL    HW138299   9.148   3.400   7.620  1.2163 -0.1680  0.4791
11419SOL    HW238300   9.083   3.396   7.756  4.1877 -0.4953  1.9509
11420SOL     OW38301   0.507   4.961   4.684 -0.1516 -0.0316  0.4841
11420SOL    HW138302   0.581   4.985   4.627  0.0273 -0.1887  0.6492
11420SOL    HW238303   0.542   4.967   4.772 -0.4187  0.1672  0.5768
11421SOL     OW38304   6.864   7.625   4.235  0.3351 -0.2710 -0.2979
11421SOL    HW138305   6.842   7.704   4.285  0.5032 -1.8167  2.4069
11421SOL    HW238306   6.798   7.622   4.166  0.7718  2.5889 -0.9958
11422SOL     OW38307   5.485   8.535   5.697  0.2854 -0.1008 -0.8158
11422SOL    HW138308   5.459   8.596   5.766  2.0174 -1.2249  0.9187
11422SOL    HW238309   5.487   8.450   5.740  3.4842 -0.5523 -1.6291
11423SOL     OW38310   5.794   8.569   0.217  0.1741 -0.1391 -0.3252
11423SOL    HW138311   5.717   8.518   0.193 -1.4722  1.6515  0.7944
11423SOL    HW238312   5.785   8.651   0.168  1.3073  0.1484 -0.0823
11424SOL     OW38313   4.760   3.712   3.281 -0.1961  0.3296  0.2253
11424SOL    HW138314   4.785   3.622   3.301  0.3827  0.0991 -1.3887
11424SOL    HW238315   4.780   3.760   3.361  1.5069 -0.6065  0.4226
11425SOL     OW38316   1.352   9.333   1.804  0.3255  0.3050  0.4409
11425SOL    HW138317   1.332   9.376   1.721 -1.9684 -0.5911  0.4636
11425SOL    HW238318   1.444   9.308   1.797  0.4463  1.1560 -1.4044
11426SOL     OW38319   5.401   0.292   6.622 -0.0126 -0.8559  0.2421
11426SOL    HW138320   5.430   0.328   6.538 -0.5193  0.1350  0.4883
11426SOL    HW238321   5.331   0.231   6.598 -0.6888 -0.0010 -0.0047
11427SOL     OW38322   5.644   2.599   6.654  0.5106 -0.0935 -0.0703
11427SOL    HW138323   5.669   2.531   6.591  0.8945  0.5290 -0.6097
11427SOL    HW238324   5.559   2.630   6.624 -0.3594 -1.3369  1.0316
11428SOL     OW38325   1.033   7.645   8.187  0.0588  0.1298 -0.1811
11428SOL    HW138326   1.036   7.551   8.171 -0.0228  0.0493  0.2483
11428SOL    HW238327   0.980   7.654   8.267  0.6200  0.4806  0.1627
11429SOL     OW38328   0.377   8.778   8.839 -0.5893  0.0581 -0.0156
11429SOL    HW138329   0.330   8.808   8.917 -0.1725  0.7821 -0.0365
11429SOL    HW238330   0.382   8.683   8.849  0.1273  0.2027  1.2197
11430SOL     OW38331   7.395   3.406   5.861  0.6565  0.1649 -0.2722
11430SOL    HW138332   7.407   3.405   5.956  1.3269 -0.9171 -0.3565
11430SOL    HW238333   7.459   3.470   5.830  1.5318 -0.6228 -0.1228
11431SOL     OW38334   0.142   0.058   9.232 -0.4506  0.1068 -0.0418
11431SOL    HW138335   0.101   0.097   9.156 -0.0623  0.9285  0.1549
11431SOL    HW238336   0.134   0.124   9.301 -0.9668 -0.6912  0.6990
11432SOL     OW38337   7.221   0.579   4.889  0.0364  0.2299  0.3703
11432SOL    HW138338   7.290   0.528   4.848 -1.0912  0.7434 -2.3434
11432SOL    HW238339   7.192   0.526   4.963  1.2162 -1.4236 -0.3142
11433SOL     OW38340   1.882   5.755   9.499 -0.3322  0.3810 -0.1903
11433SOL    HW138341   1.822   5.684   9.476 -1.1488  0.3531  1.8676
11433SOL    HW238342   1.959   5.712   9.536 -0.7550  0.5365  0.8980
11434SOL     OW38343   4.419   2.647   9.491  0.0091  0.6876  0.6072
11434SOL    HW138344   4.397   2.692   9.410  2.5413 -0.9488 -1.1424
11434SOL    HW238345   4.334   2.619   9.527 -1.3204  3.2765 -0.2819
11435SOL     OW38346   7.677   9.293   1.886  0.2032  0.2178  0.1817
11435SOL    HW138347   7.598   9.342   1.862 -1.1423 -1.8962  0.0042
11435SOL    HW238348   7.646   9.204   1.899  2.1764 -0.2278  2.4901
11436SOL     OW38349   7.313   1.043   6.031 -0.1703  0.2656 -0.4511
11436SOL    HW138350   7.239   0.993   5.997  1.0514 -1.2346 -1.0248
11436SOL    HW238351   7.277   1.090   6.107 -1.7601 -0.2008 -0.8789
11437SOL     OW38352   8.695   4.520  10.087  0.2591 -0.4986  0.0116
11437SOL    HW138353   8.658   4.442  10.046  0.8676 -0.3601 -0.8212
11437SOL    HW238354   8.638   4.592  10.060 -0.1488 -0.6061  0.5644
11438SOL     OW38355   8.525   4.292   0.270 -0.1653  0.2397 -0.1818
11438SOL    HW138356   8.601   4.239   0.294 -0.0608  0.1072 -0.7826
11438SOL    HW238357   8.485   4.245   0.197 -1.6589 -0.4377  1.0045
11439SOL     OW38358   9.531   8.584   2.808 -0.1406 -0.2462  0.8431
11439SOL    HW138359   9.484   8.587   2.891 -0.0098  0.2833  0.9008
11439SOL    HW238360   9.623   8.575   2.832 -0.1589 -0.6883  0.7434
11440SOL     OW38361   3.620   0.822   7.900  0.0282 -0.5300  0.0120
11440SOL    HW138362   3.567   0.898   7.878  1.1445  0.4030  0.4786
11440SOL    HW238363   3.586   0.791   7.983 -0.8938 -0.9885 -0.5240
11441SOL     OW38364   8.535   8.875   6.410  0.4544 -0.3601  0.2409
11441SOL    HW138365   8.465   8.890   6.475  0.6370  0.2603  0.3068
11441SOL    HW238366   8.488   8.857   6.329  0.2135 -0.2241  0.3454
11442SOL     OW38367   5.432   5.977   4.627 -0.4413  0.2071  0.2134
11442SOL    HW138368   5.345   6.002   4.596 -0.0886 -0.1444 -1.1015
11442SOL    HW238369   5.433   6.005   4.719 -1.7700  0.6273  0.1253
11443SOL     OW38370   7.104   6.362   2.904  0.2811 -0.3110  0.0855
11443SOL    HW138371   7.022   6.382   2.860  0.2433  0.1210  0.3474
11443SOL    HW238372   7.084   6.366   2.998  0.6480  0.0419  0.1569
11444SOL     OW38373   3.204   7.379  10.233 -0.4732 -0.4060  0.8983
11444SOL    HW138374   3.194   7.297  10.281 -1.2086 -0.3841  0.7948
11444SOL    HW238375   3.293   7.409  10.254  0.0420 -1.5456  0.4183
11445SOL     OW38376  10.264   8.857   1.557 -0.3814 -0.7611  0.4898
11445SOL    HW138377  10.337   8.805   1.592  0.6322  0.1384 -0.2314
11445SOL    HW238378  10.222   8.894   1.635 -0.1293 -1.3467  0.9174
11446SOL     OW38379   9.638   8.646   2.185  0.0249  0.6171  0.2971
11446SOL    HW138380   9.677   8.559   2.193  0.7944  0.9603  0.4216
11446SOL    HW238381   9.602   8.665   2.271  0.3404  0.6366  0.4280
11447SOL     OW38382   3.966   2.192   6.263  0.0092  0.5965 -0.2659
11447SOL    HW138383   3.937   2.139   6.337  1.5998 -0.6157 -0.4826
11447SOL    HW238384   4.061   2.196   6.270  0.2417  0.2324 -2.3769
11448SOL     OW38385   8.407   3.988   9.486  0.3007  0.1987 -0.0853
11448SOL    HW138386   8.406   3.975   9.581  0.9503 -2.5398 -0.3505
11448SOL    HW238387   8.362   4.071   9.472 -2.0185 -0.4627  2.4707
11449SOL     OW38388   5.391   4.172   5.746 -0.0119 -0.5909 -0.7385
11449SOL    HW138389   5.448   4.096   5.763  0.1051 -0.3031  0.1773
11449SOL    HW238390   5.303   4.142   5.769  0.1279 -0.2446  0.2807
11450SOL     OW38391   2.602   5.209   0.936 -0.5853 -0.2424  0.2462
11450SOL    HW138392   2.644   5.140   0.885 -2.2179 -0.1841 -1.2873
11450SOL    HW238393   2.511   5.180   0.946 -1.1209  1.3278  0.2198
11451SOL     OW38394   1.271   1.291   6.027  0.3183 -0.5307 -0.3978
11451SOL    HW138395   1.363   1.291   6.002  0.4177 -0.1028 -0.0403
11451SOL    HW238396   1.262   1.217   6.086  0.0346 -1.6922 -1.8384
11452SOL     OW38397   8.538   2.355   5.720  0.4757  0.1011  0.4678
11452SOL    HW138398   8.541   2.444   5.756 -0.9681 -0.5374  2.3395
11452SOL    HW238399   8.559   2.299   5.794 -1.9388 -1.2593  0.2305
11453SOL     OW38400   2.634   4.857   2.848  0.0001 -0.1814 -0.2666
11453SOL    HW138401   2.720   4.885   2.879  0.8796 -1.4945 -1.3941
11453SOL    HW238402   2.621   4.905   2.766 -0.3077 -0.0596 -0.1495
11454SOL     OW38403   5.165   5.269   5.834  0.0871  0.3077 -0.3201
11454SOL    HW138404   5.219   5.199   5.796  1.7053  0.5130  1.4594
11454SOL    HW238405   5.209   5.350   5.809 -0.1407  0.5542  0.0658
11455SOL     OW38406   1.068   0.648   3.853  0.1914  0.3620  0.1786
11455SOL    HW138407   1.039   0.679   3.767  0.5515  0.2732  0.0229
11455SOL    HW238408   1.079   0.553   3.842 -0.3342  0.2607  0.4883
11456SOL     OW38409   1.196   5.608   0.258  0.2462 -0.1115  0.4498
11456SOL    HW138410   1.207   5.538   0.322 -0.4492  0.4014  1.1444
11456SOL    HW238411   1.128   5.664   0.295 -0.1569  0.2051 -0.7341
11457SOL     OW38412   0.504   5.849   7.162 -0.3714  0.8944  0.2561
11457SOL    HW138413   0.409   5.855   7.178 -0.2833  1.1010  0.7132
11457SOL    HW238414   0.543   5.908   7.226  0.1843 -0.5366  1.2805
11458SOL     OW38415   7.904   6.611   4.187 -0.6602  0.3683 -0.5000
11458SOL    HW138416   7.933   6.521   4.203  0.5524  0.4989 -1.8002
11458SOL    HW238417   7.886   6.646   4.274  1.5390 -0.2615  0.2613
11459SOL     OW38418   6.101   4.106   0.122  0.2973  0.3647 -0.1740
11459SOL    HW138419   6.063   4.096   0.035  0.8133 -0.1892 -0.3448
11459SOL    HW238420   6.140   4.021   0.141  0.1218  0.4569  0.6372
11460SOL     OW38421   1.633  10.195   8.662  0.3040 -0.4548  0.2009
11460SOL    HW138422   1.591  10.161   8.741 -0.9410  0.0439 -0.2241
11460SOL    HW238423   1.725  10.205   8.687 -0.1496  0.2234  1.7855
11461SOL     OW38424   2.695   2.309   1.879 -0.3457 -0.8201 -0.6401
11461SOL    HW138425   2.611   2.338   1.844  0.1488  0.6528 -0.6731
11461SOL    HW238426   2.747   2.289   1.801 -0.5281 -1.3526 -0.6290
11462SOL     OW38427   7.016   4.484   4.859  0.2335 -0.1532  0.1770
11462SOL    HW138428   7.086   4.419   4.858  0.9567  0.6163 -0.3487
11462SOL    HW238429   6.937   4.433   4.879  0.5449 -1.4344 -1.5591
11463SOL     OW38430   2.815   9.922  10.049  0.3229  0.4265 -0.3692
11463SOL    HW138431   2.783  10.001  10.092  0.4682 -1.7353  4.4466
11463SOL    HW238432   2.908   9.940  10.033  0.6162  0.9916  1.6378
11464SOL     OW38433   4.947   4.112   8.338 -0.0475 -0.3417  1.1231
11464SOL    HW138434   4.896   4.033   8.359 -0.5742  0.0745  1.4293
11464SOL    HW238435   5.031   4.098   8.382  0.1775 -1.1019  0.4876
11465SOL     OW38436   1.817   1.379   9.497  0.3117 -0.2284 -0.2553
11465SOL    HW138437   1.823   1.310   9.431  2.1098  1.3318 -1.8255
11465SOL    HW238438   1.880   1.354   9.564  0.5942 -0.3479 -0.5656
11466SOL     OW38439  10.076   2.091   3.377  0.1551 -0.2460  0.4821
11466SOL    HW138440  10.127   2.058   3.451 -0.5936  0.0396  1.1285
11466SOL    HW238441   9.985   2.089   3.407  0.0715  2.6761  0.6674
11467SOL     OW38442   0.740   4.996   5.131 -0.7441  0.4212 -0.0083
11467SOL    HW138443   0.755   5.053   5.206 -0.5550 -0.8133  0.9138
11467SOL    HW238444   0.645   4.998   5.118 -0.6619  1.7232 -0.6439
11468SOL     OW38445   8.192   0.897   8.801 -0.7674  0.2503 -0.1152
11468SOL    HW138446   8.272   0.847   8.784 -1.7648 -0.9285 -1.6467
11468SOL    HW238447   8.183   0.895   8.897  0.3750 -0.6432  0.0032
11469SOL     OW38448   3.408   2.397   6.576 -0.5278 -0.7233 -0.4040
11469SOL    HW138449   3.449   2.405   6.662 -1.6344  1.0992  0.0140
11469SOL    HW238450   3.480   2.407   6.513  0.2428 -1.7630  0.2895
11470SOL     OW38451   9.009   2.182   6.771  0.2707 -0.1165 -0.3463
11470SOL    HW138452   8.924   2.173   6.815  1.0289 -0.6182  1.1005
11470SOL    HW238453   9.008   2.270   6.734 -0.6963  0.0597  0.0720
11471SOL     OW38454   7.115   6.162   8.885 -0.0317  0.3245  0.4675
11471SOL    HW138455   7.057   6.122   8.821  0.6417  0.1694 -0.0499
11471SOL    HW238456   7.060   6.226   8.930 -1.3108 -1.5691  1.7441
11472SOL     OW38457   1.616   9.532   5.886 -0.3439 -0.0464 -0.5754
11472SOL    HW138458   1.608   9.457   5.827 -0.9498 -0.7870  0.4206
11472SOL    HW238459   1.702   9.522   5.926  0.1302  0.5383 -1.4148
11473SOL     OW38460   7.366   9.304   1.024 -0.3873  0.2326  0.0438
11473SOL    HW138461   7.416   9.286   1.104 -0.3379 -0.4617 -0.1393
11473SOL    HW238462   7.275   9.310   1.054 -0.2754  0.8095  0.2752
11474SOL     OW38463   4.857   6.853   7.740 -0.2605 -0.2478 -0.1084
11474SOL    HW138464   4.889   6.816   7.658  0.1548 -0.7740  0.2867
11474SOL    HW238465   4.843   6.778   7.797  1.7135  0.2321  1.1081
11475SOL     OW38466   0.751   5.120   2.653 -0.1454  0.1404  0.3583
11475SOL    HW138467   0.688   5.154   2.590  0.4074 -0.9460 -0.8303
11475SOL    HW238468   0.702   5.056   2.704 -0.1310 -0.3950 -0.2822
11476SOL     OW38469   4.587   8.446   1.037 -0.2173  0.1552  0.3106
11476SOL    HW138470   4.648   8.420   1.106 -0.8057 -1.2162  0.3582
11476SOL    HW238471   4.526   8.505   1.080 -0.4154 -0.4729  0.9103
11477SOL     OW38472   9.222   6.096   5.269 -0.2872 -0.9661  0.5156
11477SOL    HW138473   9.203   6.079   5.361  1.3671 -2.5038  0.6078
11477SOL    HW238474   9.153   6.157   5.242 -1.1994 -0.9998  2.5720
11478SOL     OW38475  10.213   4.098   0.923  0.0496  0.1250  0.3399
11478SOL    HW138476  10.193   4.118   0.831  0.3838 -1.2985 -0.0677
11478SOL    HW238477  10.128   4.095   0.966 -0.1853 -0.1509 -0.1299
11479SOL     OW38478   6.616   0.403   4.970  0.2206  0.0539 -0.4794
11479SOL    HW138479   6.623   0.311   4.946 -0.4502 -0.4137  1.0152
11479SOL    HW238480   6.707   0.433   4.977  0.4857 -0.9782  0.7338
11480SOL     OW38481   9.762   1.951   3.118 -0.4537  0.2685 -0.1252
11480SOL    HW138482   9.842   1.971   3.069  0.2779 -0.3886  0.7707
11480SOL    HW238483   9.755   1.856   3.115 -0.6059  0.2463  0.7073
11481SOL     OW38484   8.050   7.737   6.566  0.1314 -0.5984 -0.1891
11481SOL    HW138485   7.956   7.736   6.546  0.2816 -0.1203 -0.9893
11481SOL    HW238486   8.055   7.725   6.660 -0.7223 -0.9146 -0.1754
11482SOL     OW38487   2.525  10.127   7.179 -0.1460  0.0370 -0.1594
11482SOL    HW138488   2.495  10.047   7.222 -1.5082  1.1358  1.0281
11482SOL    HW238489   2.549  10.186   7.250  0.3551  0.8850 -1.0030
11483SOL     OW38490   8.318   6.682   9.425 -0.0111  0.0895 -0.1962
11483SOL    HW138491   8.373   6.738   9.479 -3.5027  1.6352  2.1479
11483SOL    HW238492   8.325   6.596   9.465 -0.0554  0.4962  0.7012
11484SOL     OW38493   1.591   9.873   4.605 -0.1388  0.1696 -0.3302
11484SOL    HW138494   1.511   9.837   4.566  0.2484  0.2197 -1.1883
11484SOL    HW238495   1.662   9.830   4.558  0.3382  0.3299  0.2406
11485SOL     OW38496   1.065   0.895   5.890 -0.6808 -0.0950  0.9058
11485SOL    HW138497   1.071   0.808   5.850 -0.0782  0.5328 -0.4194
11485SOL    HW238498   1.154   0.929   5.888 -0.7335  0.1977  2.3036
11486SOL     OW38499   4.367   8.453   2.832  0.3077  0.2617  0.2134
11486SOL    HW138500   4.277   8.439   2.805  0.6131 -0.0790 -0.6560
11486SOL    HW238501   4.380   8.393   2.905 -0.2415  0.5168  0.5328
11487SOL     OW38502   8.409   2.889   9.212 -0.0462 -0.1199  0.0368
11487SOL    HW138503   8.436   2.980   9.205 -0.6786  0.1163  0.6598
11487SOL    HW238504   8.348   2.887   9.285  0.1422 -1.0857  0.1801
11488SOL     OW38505   0.063   5.119   8.729  0.2748 -0.5409  0.1409
11488SOL    HW138506  -0.024   5.102   8.693  0.3774  0.6620 -0.7257
11488SOL    HW238507   0.085   5.207   8.699  2.4124 -1.3763 -0.9266
11489SOL     OW38508   0.054   0.933   8.761 -0.2305 -0.5437  0.2672
11489SOL    HW138509   0.098   0.857   8.726 -0.1253 -0.2856 -0.1682
11489SOL    HW238510   0.043   0.914   8.854  2.4628  0.1570  0.8142
11490SOL     OW38511   5.538   2.330   2.722  0.2192  0.4284  0.2000
11490SOL    HW138512   5.442   2.327   2.726  0.0999  1.3263 -1.2773
11490SOL    HW238513   5.565   2.239   2.732 -0.8203  0.0922  0.0994
11491SOL     OW38514   9.569   5.648   7.039 -0.0286  0.1622 -0.0773
11491SOL    HW138515   9.639   5.632   6.976  0.9026  1.4707  0.5841
11491SOL    HW238516   9.609   5.632   7.124 -0.8628 -0.1713  0.2683
11492SOL     OW38517   7.271   2.530   9.432  0.2300  0.3893 -0.6526
11492SOL    HW138518   7.320   2.454   9.464  0.5123  0.5117 -0.7919
11492SOL    HW238519   7.318   2.557   9.353 -0.4537  0.0890 -1.1809
11493SOL     OW38520   1.951   5.328   6.422  0.3865 -0.5182 -0.6779
11493SOL    HW138521   1.899   5.248   6.432 -0.2178 -0.1272 -0.6525
11493SOL    HW238522   2.031   5.299   6.378  0.6600 -1.3245  0.2883
11494SOL     OW38523   3.974  10.107   6.241  0.6262  0.0998  0.6496
11494SOL    HW138524   4.007  10.188   6.201 -0.4448  0.5426  0.6295
11494SOL    HW238525   4.009  10.037   6.186 -3.2062  0.7326 -3.0983
11495SOL     OW38526   9.423   6.884   9.734  0.2272  0.6063 -0.1808
11495SOL    HW138527   9.340   6.923   9.761  0.2225  0.0526  0.6429
11495SOL    HW238528   9.405   6.790   9.732  0.0611  0.6109 -2.7338
11496SOL     OW38529   0.719   1.265   1.206 -0.0904 -0.7311 -0.9670
11496SOL    HW138530   0.808   1.234   1.223 -0.2068 -0.6404 -0.1774
11496SOL    HW238531   0.697   1.228   1.120  0.4536 -1.3184 -0.8619
11497SOL     OW38532   7.328   6.076   5.435 -0.1735  0.0403  0.3354
11497SOL    HW138533   7.396   6.009   5.444  1.5325  1.9086  2.8459
11497SOL    HW238534   7.246   6.029   5.447  0.7424 -1.9780 -0.7527
11498SOL     OW38535   9.158   1.327   7.316  0.0365 -0.1155  0.4395
11498SOL    HW138536   9.155   1.421   7.334 -1.4137  0.3412 -1.7315
11498SOL    HW238537   9.191   1.321   7.227 -1.8900 -1.4667 -0.2465
11499SOL     OW38538   1.416   9.023   1.759  0.4470  0.0306 -0.9038
11499SOL    HW138539   1.491   8.970   1.787 -0.3812  0.5655  2.9104
11499SOL    HW238540   1.455   9.102   1.723  1.6912 -0.7722 -1.3858
11500SOL     OW38541   4.671   1.957   9.674  0.4059 -1.0131  0.3007
11500SOL    HW138542   4.709   1.999   9.751  2.1163 -0.8126 -0.6043
11500SOL    HW238543   4.716   1.873   9.668  0.2603 -1.0439 -0.4366
11501SOL     OW38544   8.820   8.842   0.919 -0.2001  0.1855  0.1099
11501SOL    HW138545   8.913   8.831   0.937  0.4680  0.1648 -2.8460
11501SOL    HW238546   8.778   8.765   0.958  0.8744  0.4408  1.9137
11502SOL     OW38547   1.714   1.549   6.060  0.2626  0.5419 -0.4755
11502SOL    HW138548   1.804   1.555   6.030  1.4461 -0.5572  2.4261
11502SOL    HW238549   1.705   1.621   6.122 -0.4235 -0.0869  0.1792
11503SOL     OW38550   2.792   3.866   4.224  0.2908 -0.1462 -0.0649
11503SOL    HW138551   2.787   3.906   4.138  0.7965  0.0132 -0.0215
11503SOL    HW238552   2.782   3.939   4.285 -0.1030 -0.2628  0.0178
11504SOL     OW38553   6.889   0.966   8.935 -0.0275 -0.8039 -0.2816
11504SOL    HW138554   6.836   1.044   8.918  1.5180  0.4428  0.3708
11504SOL    HW238555   6.862   0.937   9.023  0.6055  0.0512  0.2092
11505SOL     OW38556   6.257   9.736   9.892 -0.6477  0.3224  0.1141
11505SOL    HW138557   6.259   9.788   9.973 -0.0418  1.0933 -0.3760
11505SOL    HW238558   6.245   9.801   9.823 -2.8705 -0.4837 -0.3253
11506SOL     OW38559   9.517   8.350   7.929  0.4580 -0.5701 -0.1090
11506SOL    HW138560   9.532   8.444   7.937  2.8803 -0.9485  0.9026
11506SOL    HW238561   9.459   8.340   7.854  0.4717  1.6985 -0.4738
11507SOL     OW38562   9.100   0.011   8.730 -0.2705  0.2288 -0.6271
11507SOL    HW138563   9.039  -0.061   8.745 -1.0222  1.1641  1.0743
11507SOL    HW238564   9.056   0.088   8.766  2.5377  0.6796  2.2579
11508SOL     OW38565   1.880   6.905   5.945  0.4115 -0.2728  0.2416
11508SOL    HW138566   1.855   6.854   5.868 -0.9809  0.3886  0.2268
11508SOL    HW238567   1.799   6.947   5.973  1.2048  0.6616  1.2019
11509SOL     OW38568   1.943   0.080   0.713 -0.3671  0.1376  0.1977
11509SOL    HW138569   2.002   0.023   0.761 -0.6920 -0.1128  0.3086
11509SOL    HW238570   1.863   0.081   0.766 -0.5011  0.3773 -0.0071
11510SOL     OW38571   3.044   1.154   2.325 -0.2594  0.0775  0.0502
11510SOL    HW138572   3.127   1.200   2.309 -0.4060  0.7991  1.2182
11510SOL    HW238573   3.062   1.064   2.299  0.7513  0.3220 -0.1694
11511SOL     OW38574   0.469   3.378   5.732  0.1412 -0.3575  0.1673
11511SOL    HW138575   0.465   3.448   5.797 -2.6854  1.6295 -1.8886
11511SOL    HW238576   0.443   3.300   5.780 -1.5724  0.9684  1.5637
11512SOL     OW38577   2.292   6.085   2.647  0.1053  0.1234 -0.2645
11512SOL    HW138578   2.359   6.046   2.590 -0.7769 -1.4768 -0.2771
11512SOL    HW238579   2.215   6.030   2.633 -0.1532 -0.3113  2.4586
11513SOL     OW38580   2.673   3.199   6.961  0.1390  0.1952 -0.0731
11513SOL    HW138581   2.688   3.189   6.867  0.7317 -1.2430  0.1333
11513SOL    HW238582   2.587   3.160   6.976  0.6603 -0.9028  0.1610
11514SOL     OW38583   4.001   3.159   5.392  0.4475  0.4235 -0.2079
11514SOL    HW138584   3.953   3.233   5.429 -1.5790 -0.0645 -1.7152
11514SOL    HW238585   3.966   3.082   5.438  1.3600  0.2313  0.1895
11515SOL     OW38586   7.319   3.076   5.433 -0.0163  0.1428  0.5663
11515SOL    HW138587   7.412   3.061   5.416  0.1117 -0.5109  1.7482
11515SOL    HW238588   7.280   3.080   5.346  1.2306  1.3124  0.0166
11516SOL     OW38589   9.585   6.885   0.529 -0.3211  0.2934 -0.1543
11516SOL    HW138590   9.675   6.856   0.514 -0.6510 -0.0330 -1.6771
11516SOL    HW238591   9.576   6.963   0.473 -0.9834  0.3164 -0.0130
11517SOL     OW38592   9.370   2.619   3.793 -0.8851 -0.1499  0.7565
11517SOL    HW138593   9.452   2.634   3.745 -0.0141 -0.4970  2.0806
11517SOL    HW238594   9.356   2.525   3.787 -0.9182 -0.1580  0.9566
11518SOL     OW38595   7.474   7.653   7.643 -0.4320  0.1278 -0.2794
11518SOL    HW138596   7.416   7.666   7.568 -1.0762 -0.8381  0.0320
11518SOL    HW238597   7.531   7.580   7.616 -1.3714 -0.9511  0.5450
11519SOL     OW38598   6.743   9.886   4.312 -0.0307  0.0460 -0.5675
11519SOL    HW138599   6.828   9.923   4.287  0.6458 -0.0114  1.4750
11519SOL    HW238600   6.717   9.936   4.389 -1.1967 -0.8607 -0.3461
11520SOL     OW38601   1.428   8.418   6.928  0.2508 -0.3501  0.2470
11520SOL    HW138602   1.430   8.373   7.013 -1.2466  0.8354  0.9686
11520SOL    HW238603   1.409   8.509   6.951  1.3008  0.2837 -1.2903
11521SOL     OW38604   1.762   2.114   3.019  0.4691 -0.5380 -0.2808
11521SOL    HW138605   1.683   2.167   3.005  0.7336  0.2984  1.1038
11521SOL    HW238606   1.789   2.086   2.932 -0.2624  0.7833 -0.9608
11522SOL     OW38607   4.575   7.319   3.111 -0.1694  0.3668  0.3187
11522SOL    HW138608   4.671   7.314   3.113 -0.2413 -1.5845  1.9107
11522SOL    HW238609   4.550   7.258   3.041 -0.2746  2.4939 -1.6364
11523SOL     OW38610  10.241   2.560   3.097  0.1115  0.2613  0.0391
11523SOL    HW138611  10.153   2.580   3.064 -0.5227  0.7457  1.8862
11523SOL    HW238612  10.247   2.465   3.092 -0.5218  0.2175 -0.0766
11524SOL     OW38613   8.715   8.942   2.095  0.0929 -0.3557  0.6266
11524SOL    HW138614   8.703   8.896   2.178 -0.7915 -0.7106  0.3171
11524SOL    HW238615   8.632   8.928   2.048  0.7996 -0.6687 -0.5584
11525SOL     OW38616  10.225   3.422   6.813 -0.4119  0.1451 -0.2862
11525SOL    HW138617  10.194   3.362   6.744  0.0953  0.1943 -0.5608
11525SOL    HW238618  10.217   3.509   6.774 -0.7429  0.2284 -0.0404
11526SOL     OW38619   7.015   4.806   2.342  0.4654  0.4620 -0.3909
11526SOL    HW138620   7.007   4.803   2.438 -1.3820  0.4357 -0.4952
11526SOL    HW238621   7.096   4.759   2.323  0.7248  0.2262  1.1576
11527SOL     OW38622   0.868   7.889   1.634  0.6007  0.3614 -0.4386
11527SOL    HW138623   0.818   7.853   1.561  0.6991 -0.2681 -0.2064
11527SOL    HW238624   0.844   7.981   1.637  0.9657  0.5025 -1.5646
11528SOL     OW38625   9.178   8.689   3.160  0.4388  0.2796 -0.2708
11528SOL    HW138626   9.169   8.733   3.245  0.1177  0.3356 -0.3325
11528SOL    HW238627   9.095   8.706   3.116  0.4830 -0.0236 -0.4685
11529SOL     OW38628   2.062   6.628   3.076 -0.1234 -0.1604  0.2450
11529SOL    HW138629   1.970   6.605   3.085 -0.1800  0.1847  0.5404
11529SOL    HW238630   2.088   6.658   3.162  0.4471 -0.8994  0.3445
11530SOL     OW38631   6.249   1.403  10.259 -0.2967 -0.1501 -0.2685
11530SOL    HW138632   6.336   1.392  10.298 -0.2631 -0.5623 -0.4519
11530SOL    HW238633   6.205   1.320  10.277 -0.6945  0.1008 -0.0713
11531SOL     OW38634   0.868   4.704   4.317  0.2416 -0.2612 -0.6561
11531SOL    HW138635   0.782   4.695   4.278  0.3619 -2.2342 -0.5391
11531SOL    HW238636   0.860   4.663   4.403  1.0903  0.2902 -0.2958
11532SOL     OW38637   1.050   5.284   8.073  0.0926 -0.3237 -0.1470
11532SOL    HW138638   1.041   5.259   8.165  2.1235 -1.2576 -0.1436
11532SOL    HW238639   1.127   5.236   8.043  0.9380  1.8336 -1.6790
11533SOL     OW38640   7.630   4.313   6.930 -0.6554  0.4459  0.1596
11533SOL    HW138641   7.617   4.400   6.968  1.9659  1.1437 -0.3871
11533SOL    HW238642   7.617   4.253   7.004  0.8256  1.5382  1.3725
11534SOL     OW38643   6.991   9.165   5.528 -0.2275 -0.5156 -0.2332
11534SOL    HW138644   6.955   9.249   5.501  1.6194  0.5627  0.5045
11534SOL    HW238645   6.931   9.100   5.490 -2.5446  1.1192  0.4132
11535SOL     OW38646   3.012   7.804   3.994  0.0484 -0.1743  0.0593
11535SOL    HW138647   3.011   7.746   3.918  0.2091  2.0448 -1.7169
11535SOL    HW238648   2.923   7.800   4.028  0.1272 -1.6385  0.1756
11536SOL     OW38649   4.403   0.311   5.247 -0.2191 -0.3967  0.2002
11536SOL    HW138650   4.483   0.353   5.279  0.2725 -1.2556  0.1284
11536SOL    HW238651   4.386   0.241   5.310 -2.9584  1.9139  2.3056
11537SOL     OW38652   2.496   2.439   0.462 -0.0201 -0.1239  0.3224
11537SOL    HW138653   2.503   2.433   0.367 -0.4357  3.0004 -0.0208
11537SOL    HW238654   2.562   2.378   0.495  0.2807 -1.1286 -1.9456
11538SOL     OW38655  10.284   4.294   0.312 -0.5322 -0.2649  0.5186
11538SOL    HW138656  10.231   4.215   0.299  0.8358 -0.8207 -2.5764
11538SOL    HW238657  10.373   4.268   0.289  0.7619  1.2341  3.3334
11539SOL     OW38658   6.149   2.980   3.149  0.2121  0.2381 -0.0128
11539SOL    HW138659   6.089   2.992   3.075 -0.3024  1.3709  0.5555
11539SOL    HW238660   6.220   2.927   3.114 -0.3675  0.1616 -1.1277
11540SOL     OW38661   1.717   8.581   5.176  0.3970  0.2488  0.5850
11540SOL    HW138662   1.778   8.614   5.110  1.6144  0.5628  1.8267
11540SOL    HW238663   1.644   8.642   5.173  1.0307  1.0223  0.4212
11541SOL     OW38664   1.655   5.119   2.964 -0.4313  0.2176 -0.0184
11541SOL    HW138665   1.678   5.051   2.901  0.2367 -0.1908  0.6597
11541SOL    HW238666   1.723   5.185   2.955 -0.7358  0.5086 -0.2325
11542SOL     OW38667   3.279   1.284   8.361 -0.0505  0.0275 -0.1170
11542SOL    HW138668   3.362   1.329   8.345 -1.6955  2.3908 -3.0236
11542SOL    HW238669   3.226   1.348   8.408 -1.0460 -0.4487 -0.5642
11543SOL     OW38670   8.291   3.905   4.244 -0.2589 -0.2918  0.0562
11543SOL    HW138671   8.217   3.964   4.262 -0.4330 -0.9766  1.8609
11543SOL    HW238672   8.264   3.856   4.167 -0.7056  1.0248 -0.6583
11544SOL     OW38673   2.863   2.212   9.547  0.1434 -0.6795 -0.4114
11544SOL    HW138674   2.880   2.144   9.481 -0.6191  0.1743 -1.5328
11544SOL    HW238675   2.941   2.268   9.544 -0.1131 -0.3436 -0.9886
11545SOL     OW38676   8.736   5.629   2.835  0.1067 -0.1654 -0.5127
11545SOL    HW138677   8.678   5.704   2.820 -0.2189 -0.4582 -0.7483
11545SOL    HW238678   8.785   5.620   2.753 -0.4286 -0.6996 -0.7792
11546SOL     OW38679   9.565   2.750   7.548  0.1524 -0.1418 -0.1175
11546SOL    HW138680   9.601   2.669   7.512  1.9529  1.1515 -1.4045
11546SOL    HW238681   9.640   2.808   7.557 -1.1796  1.6575  0.0104
11547SOL     OW38682   9.495   2.350   6.602  0.1709  0.7478 -0.1067
11547SOL    HW138683   9.571   2.329   6.548  0.7032  1.7039  0.2312
11547SOL    HW238684   9.426   2.293   6.571  1.4530 -1.3129  0.6294
11548SOL     OW38685   1.621   1.675   3.092 -0.3313 -0.0798  0.1192
11548SOL    HW138686   1.614   1.582   3.111  0.1438  0.0158  0.7835
11548SOL    HW238687   1.567   1.688   3.013 -2.5085 -0.4538  1.4577
11549SOL     OW38688   8.267   3.598   2.756 -0.3102 -0.1803 -0.3352
11549SOL    HW138689   8.262   3.518   2.807  0.1678  0.2476  0.4066
11549SOL    HW238690   8.343   3.586   2.700  0.5384  0.2428  0.6806
11550SOL     OW38691  10.007   8.636   7.102 -0.2313  0.7634 -0.4285
11550SOL    HW138692   9.958   8.631   7.185 -0.8713 -0.6621 -0.8636
11550SOL    HW238693   9.987   8.554   7.058  2.0832  0.3998 -0.9160
11551SOL     OW38694   4.329   4.212   4.740  0.1083  0.2202  0.3154
11551SOL    HW138695   4.378   4.293   4.753  0.1470  0.2451  0.0197
11551SOL    HW238696   4.239   4.234   4.767  0.0081  0.5095 -0.2436
11552SOL     OW38697   7.336   7.889   1.641  0.1344  0.2412  0.4253
11552SOL    HW138698   7.422   7.932   1.638  0.9944 -1.4214 -2.3597
11552SOL    HW238699   7.274   7.961   1.646  1.6137  1.5119  2.1350
11553SOL     OW38700   4.956   6.605   8.272  0.1037  0.1023  0.4919
11553SOL    HW138701   4.929   6.538   8.209  0.3036 -1.6407  2.1871
11553SOL    HW238702   4.974   6.682   8.218  2.6949 -1.9815 -1.9020
11554SOL     OW38703   1.476   2.696   9.483  0.0456  0.5165 -0.2572
11554SOL    HW138704   1.450   2.605   9.499  0.3514  0.4069 -0.3740
11554SOL    HW238705   1.558   2.706   9.531 -1.0482  1.3611  1.5490
11555SOL     OW38706   1.551   6.351   7.840  0.0009  0.1625  0.1502
11555SOL    HW138707   1.538   6.401   7.921 -0.5826 -2.1064  1.5426
11555SOL    HW238708   1.463   6.332   7.809  0.2228  0.4219 -0.6670
11556SOL     OW38709   1.204   9.075   5.380 -0.2426 -0.3706  0.5582
11556SOL    HW138710   1.150   9.149   5.354 -0.7014 -0.5954  0.8659
11556SOL    HW238711   1.279   9.114   5.425  0.7251  0.0549 -1.2934
11557SOL     OW38712   6.617   4.867   6.259 -0.6012  0.0324  0.2752
11557SOL    HW138713   6.632   4.840   6.168  1.2555  0.3300  0.4387
11557SOL    HW238714   6.597   4.961   6.254 -0.5358  0.0397  0.1574
11558SOL     OW38715   2.418   1.807   1.322 -0.1619 -0.2065 -0.1645
11558SOL    HW138716   2.338   1.803   1.374 -0.9033 -0.4800 -1.2751
11558SOL    HW238717   2.488   1.794   1.384 -1.0175 -0.5195  0.7594
11559SOL     OW38718   2.629   1.779   4.248 -0.2401 -0.3817 -0.4702
11559SOL    HW138719   2.716   1.807   4.277 -0.1465 -0.3875 -0.7437
11559SOL    HW238720   2.598   1.852   4.194 -0.8955  0.1443  0.5939
11560SOL     OW38721   2.862   1.967   2.096 -0.3274 -0.0027  0.2064
11560SOL    HW138722   2.908   1.891   2.062 -0.7027 -1.0395  1.8668
11560SOL    HW238723   2.864   1.955   2.191 -1.5465  1.3858  0.4436
11561SOL     OW38724   6.671   8.384   9.003 -0.2606  0.3858 -0.3735
11561SOL    HW138725   6.602   8.420   8.947  1.0952  2.7979 -0.6399
11561SOL    HW238726   6.740   8.357   8.943 -0.4925 -0.9825 -0.0536
11562SOL     OW38727   2.135   3.863   4.337  0.1589  0.4382  0.4870
11562SOL    HW138728   2.167   3.822   4.417 -1.6499  0.8906  1.5138
11562SOL    HW238729   2.081   3.937   4.368 -1.9748 -0.3734 -1.0345
11563SOL     OW38730   6.436   0.370   3.511  0.1214 -0.0498  0.3781
11563SOL    HW138731   6.359   0.409   3.553 -0.1942 -1.1942  0.8992
11563SOL    HW238732   6.509   0.422   3.542 -0.2610 -0.0160  1.2651
11564SOL     OW38733   6.722   7.103   2.841 -0.1507  0.1717 -0.0569
11564SOL    HW138734   6.722   7.011   2.812  0.6024  0.0956  0.1785
11564SOL    HW238735   6.673   7.102   2.923  1.0167 -0.2603  0.6581
11565SOL     OW38736   6.548   8.384   4.784 -0.1160 -0.4916  0.0984
11565SOL    HW138737   6.638   8.388   4.754  0.5947  1.9409  2.1714
11565SOL    HW238738   6.503   8.454   4.736 -0.8169 -1.3896 -0.5879
11566SOL     OW38739   9.383   5.941   2.078  0.0319 -0.4064 -0.2165
11566SOL    HW138740   9.402   6.013   2.018 -0.3846 -0.6776 -0.6801
11566SOL    HW238741   9.451   5.877   2.061  0.7477  0.1187  0.6097
11567SOL     OW38742   2.623   3.163  10.258 -0.0242 -0.1307  0.0939
11567SOL    HW138743   2.687   3.096  10.281 -0.2969 -0.7988 -0.9942
11567SOL    HW238744   2.624   3.224  10.332  2.4273  0.3263 -0.2374
11568SOL     OW38745   9.245   3.601   7.170  0.1431  0.3346  0.1223
11568SOL    HW138746   9.294   3.542   7.227  1.9463  1.9277  0.3382
11568SOL    HW238747   9.312   3.649   7.122 -1.1987  2.5213  0.2967
11569SOL     OW38748   0.537   5.997   8.032  0.6091  0.1259  0.2098
11569SOL    HW138749   0.445   6.022   8.040  0.0978 -1.8185  1.0593
11569SOL    HW238750   0.537   5.901   8.038  2.7612  0.1111  1.1105
11570SOL     OW38751   2.621   1.126   3.754  0.5085 -0.3070 -0.0333
11570SOL    HW138752   2.649   1.045   3.712  2.7727  1.6977 -2.7240
11570SOL    HW238753   2.690   1.145   3.818  1.4823  0.8277 -1.3684
11571SOL     OW38754   1.264   3.333   3.057 -0.1590  0.1648  0.4076
11571SOL    HW138755   1.227   3.246   3.071 -1.3088  0.3608 -1.1223
11571SOL    HW238756   1.269   3.342   2.962 -3.1447  2.9174  0.3008
11572SOL     OW38757   3.928   7.815   6.707  0.1761 -0.1424 -0.0605
11572SOL    HW138758   3.969   7.897   6.736  1.9831 -0.7902 -0.6679
11572SOL    HW238759   3.872   7.789   6.781 -0.4146  1.5860  0.1537
11573SOL     OW38760   1.909   4.694   9.990 -0.3638 -0.3681  0.0630
11573SOL    HW138761   1.854   4.745  10.049 -0.5788  0.7814 -1.0789
11573SOL    HW238762   1.907   4.606  10.025 -0.0381  0.3775  2.0882
11574SOL     OW38763   8.708   1.342   1.448 -0.2595 -0.1689  0.8307
11574SOL    HW138764   8.799   1.321   1.469  0.5351  1.4002 -0.7819
11574SOL    HW238765   8.663   1.258   1.450  1.0176 -0.8712  2.4971
11575SOL     OW38766   6.025   5.676   5.894 -0.0336 -0.0435 -0.0801
11575SOL    HW138767   5.967   5.634   5.830  0.6259 -1.4192  0.1840
11575SOL    HW238768   6.002   5.768   5.890 -0.9506 -0.2955 -1.3211
11576SOL     OW38769   5.303   4.400   0.025  0.2581 -0.1050 -0.1534
11576SOL    HW138770   5.251   4.344   0.082  0.7656 -0.2711  0.1525
11576SOL    HW238771   5.371   4.342  -0.011  1.0730  0.4060  0.5306
11577SOL     OW38772   5.221   2.244   6.916  0.0260 -0.3783  0.1144
11577SOL    HW138773   5.226   2.163   6.864 -3.8981  0.4249 -1.8725
11577SOL    HW238774   5.128   2.266   6.919  0.8199  3.8458  0.9380
11578SOL     OW38775   9.155   0.483   7.130  0.2582  0.6299  0.3583
11578SOL    HW138776   9.152   0.556   7.068  2.6355  0.0305 -0.5835
11578SOL    HW238777   9.231   0.502   7.186  0.0582 -0.4282  1.0263
11579SOL     OW38778   6.742   3.928   9.198  0.3868 -0.5977 -0.0761
11579SOL    HW138779   6.705   3.923   9.287 -0.1662 -0.8802 -0.3168
11579SOL    HW238780   6.685   3.872   9.146  1.3651 -1.3331 -0.3926
11580SOL     OW38781   9.598   5.521   4.222 -0.2455  0.1470 -0.1251
11580SOL    HW138782   9.630   5.518   4.131 -1.9047 -2.0200 -0.7136
11580SOL    HW238783   9.669   5.482   4.273  0.6728  1.3176 -0.4641
11581SOL     OW38784  10.166   8.146   0.782  0.0730 -0.1409 -0.4414
11581SOL    HW138785  10.083   8.114   0.817 -0.5057 -0.5582 -2.0846
11581SOL    HW238786  10.148   8.235   0.753  1.6745  1.9329  4.1088
11582SOL     OW38787   7.875   4.126   1.534  0.1307  0.2218  0.1904
11582SOL    HW138788   7.902   4.122   1.442 -0.2367 -0.6398  0.1193
11582SOL    HW238789   7.842   4.039   1.554  0.0589  0.4463  1.1023
11583SOL     OW38790   5.707   1.375   8.607 -0.5860 -0.0454  0.4129
11583SOL    HW138791   5.675   1.316   8.675 -0.3219  0.4099  0.9424
11583SOL    HW238792   5.765   1.320   8.554 -0.2576 -0.2396  0.9627
11584SOL     OW38793   2.142   3.539   2.527 -0.0717 -0.3731  0.4770
11584SOL    HW138794   2.103   3.453   2.543  0.7755 -0.8329  0.1602
11584SOL    HW238795   2.232   3.531   2.560  0.0194  0.3825  0.4232
11585SOL     OW38796   4.765   2.286   5.036 -0.0482  0.5011  0.0149
11585SOL    HW138797   4.844   2.266   4.985 -0.3005  0.2383 -0.2770
11585SOL    HW238798   4.739   2.202   5.074  0.0482  0.6668  0.4538
11586SOL     OW38799  10.183   6.541   5.774 -0.1766  0.0962 -0.0606
11586SOL    HW138800  10.238   6.483   5.827 -1.7938 -1.2711  0.2082
11586SOL    HW238801  10.234   6.557   5.695  0.8179 -0.7048  0.3930
11587SOL     OW38802   0.036   1.529   8.673 -0.3232 -0.1689  0.5764
11587SOL    HW138803  -0.046   1.568   8.705  0.2720  1.8664 -0.2383
11587SOL    HW238804   0.054   1.459   8.735 -2.7342 -0.7532  0.7166
11588SOL     OW38805   3.368   6.568   1.943  0.3160 -0.2529  0.7035
11588SOL    HW138806   3.347   6.522   1.861  0.2880  0.4133  0.3280
11588SOL    HW238807   3.396   6.498   2.003  1.0929 -0.6688 -0.1104
11589SOL     OW38808   6.234   4.732   0.105 -0.2853 -0.0641 -0.2853
11589SOL    HW138809   6.303   4.701   0.163 -0.5265  0.4390  0.2813
11589SOL    HW238810   6.158   4.745   0.162  0.1022  2.6722 -0.2304
11590SOL     OW38811   6.476   8.510   2.211 -0.1914  0.2074  0.1777
11590SOL    HW138812   6.557   8.558   2.229 -1.0781  0.9317  2.5571
11590SOL    HW238813   6.406   8.573   2.224 -1.2226 -0.2630 -2.3407
11591SOL     OW38814   2.154   5.502   3.060 -0.1358  0.3380  0.3037
11591SOL    HW138815   2.060   5.518   3.059 -0.3104 -0.0166 -3.2865
11591SOL    HW238816   2.194   5.588   3.047 -0.1774  0.1462 -1.2713
11592SOL     OW38817   4.975   8.820   7.470  0.1361 -0.2241  0.2215
11592SOL    HW138818   5.048   8.775   7.428 -0.7932 -1.4879 -0.1029
11592SOL    HW238819   5.013   8.860   7.548  1.0339 -1.4787  0.4560
11593SOL     OW38820   3.646   1.512   2.648  0.2340  0.3006 -0.4233
11593SOL    HW138821   3.610   1.485   2.564  0.4356 -1.8661  0.1109
11593SOL    HW238822   3.572   1.509   2.708  0.4155  0.1536 -0.2027
11594SOL     OW38823   1.285   0.102   5.509  0.4527 -0.7640 -0.3903
11594SOL    HW138824   1.243   0.187   5.502  3.0185  0.7273  1.0575
11594SOL    HW238825   1.216   0.044   5.544 -2.0342 -0.0128 -3.5540
11595SOL     OW38826   8.077   6.786   7.529  0.6536  0.0503  0.0571
11595SOL    HW138827   8.061   6.843   7.604  1.6238  0.7903 -0.2678
11595SOL    HW238828   8.068   6.697   7.563 -2.0997  0.3476  0.2992
11596SOL     OW38829  10.157   3.853   2.260 -0.4377  0.0563  0.6201
11596SOL    HW138830  10.199   3.928   2.303  1.7217 -0.6121 -0.1509
11596SOL    HW238831  10.071   3.847   2.301 -0.8835  3.1629  0.4551
11597SOL     OW38832   3.280   2.106   7.811 -0.2097  0.7552 -0.0837
11597SOL    HW138833   3.365   2.068   7.791 -0.5745 -1.3684  1.9294
11597SOL    HW238834   3.277   2.188   7.762  2.0687 -0.1779 -1.9220
11598SOL     OW38835   8.994   4.804   7.700 -0.9167 -0.2347  0.0568
11598SOL    HW138836   9.087   4.793   7.678 -0.7706 -0.9286  0.9200
11598SOL    HW238837   8.972   4.891   7.668  0.7966  1.1503  2.2711
11599SOL     OW38838   1.049   1.575   2.300 -0.0258  0.1636 -0.1121
11599SOL    HW138839   0.975   1.633   2.285  0.2513  0.1663 -1.6419
11599SOL    HW238840   1.126   1.632   2.294  0.1964 -0.1790 -0.5541
11600SOL     OW38841   5.510   3.816   0.906 -0.3026  0.0599  0.1589
11600SOL    HW138842   5.594   3.775   0.886  0.5145  1.5230  0.4722
11600SOL    HW238843   5.533   3.894   0.956 -1.8483  0.5469  0.1459
11601SOL     OW38844   4.255   0.302   1.340 -0.4386  0.5358  0.2775
11601SOL    HW138845   4.234   0.221   1.293 -0.1597 -0.2782  1.5202
11601SOL    HW238846   4.310   0.352   1.278 -1.0333  0.0171 -0.6931
11602SOL     OW38847   9.475   6.143  10.233  0.4645 -0.6757 -0.2601
11602SOL    HW138848   9.436   6.212  10.288  0.6380 -0.5105 -0.3430
11602SOL    HW238849   9.569   6.158  10.240  0.4784 -0.5014 -0.7930
11603SOL     OW38850   5.264   8.855   7.861  0.1738 -0.3128 -0.0995
11603SOL    HW138851   5.185   8.853   7.807  0.3486 -0.4875 -0.3527
11603SOL    HW238852   5.232   8.843   7.951 -0.1768  0.5703 -0.0924
11604SOL     OW38853   2.464   3.969  10.001 -0.4909  0.2439 -0.4194
11604SOL    HW138854   2.383   3.933   9.966 -2.6469  1.3161  2.9508
11604SOL    HW238855   2.491   3.906  10.068  1.8718 -0.3699 -1.8486
11605SOL     OW38856   1.092   6.645   7.797 -0.3311 -0.1781 -0.6535
11605SOL    HW138857   1.112   6.648   7.704  1.2345  0.3829 -0.3289
11605SOL    HW238858   1.138   6.720   7.834 -1.4051 -0.0424  0.5050
11606SOL     OW38859   7.265   9.539   6.578  0.0394 -0.1220 -0.6547
11606SOL    HW138860   7.195   9.578   6.630 -0.3657 -0.6806 -0.7686
11606SOL    HW238861   7.337   9.525   6.639 -0.7023 -1.4792 -0.0528
11607SOL     OW38862   3.539   8.353   5.480  0.5583 -0.1000  0.2175
11607SOL    HW138863   3.467   8.330   5.539  1.0567 -0.9624  0.4998
11607SOL    HW238864   3.511   8.318   5.395 -0.2845  1.3807 -0.1563
11608SOL     OW38865   5.193   4.634   8.036 -0.2095  0.3957 -0.2992
11608SOL    HW138866   5.289   4.633   8.030 -0.0946 -2.3936  0.5584
11608SOL    HW238867   5.175   4.647   8.129 -0.6410  0.1997 -0.3544
11609SOL     OW38868   9.707   9.935   1.922  0.3132  0.5463  0.2330
11609SOL    HW138869   9.668   9.953   2.008 -1.8636  1.3924 -0.8451
11609SOL    HW238870   9.648   9.978   1.860  0.6350 -1.8130 -1.8517
11610SOL     OW38871   0.641   2.575   6.492  0.9181 -0.1928  0.0193
11610SOL    HW138872   0.632   2.666   6.464  0.9360  0.3373  1.6244
11610SOL    HW238873   0.582   2.567   6.567  1.2532 -1.3749  0.1781
11611SOL     OW38874   7.297   4.692   1.006  0.3123  0.1877  0.1340
11611SOL    HW138875   7.323   4.713   1.096  0.4000  0.6677 -0.0037
11611SOL    HW238876   7.204   4.667   1.013  0.4036 -0.0877  0.4016
11612SOL     OW38877   6.640   4.223   1.425 -0.3057 -0.3600  0.2180
11612SOL    HW138878   6.646   4.171   1.345  0.4643  1.2162 -0.7747
11612SOL    HW238879   6.651   4.313   1.397 -0.7033  0.2917  2.0268
11613SOL     OW38880   1.293   6.661   0.667  0.1091  0.0371 -0.4298
11613SOL    HW138881   1.319   6.588   0.725  1.0809  0.0589 -0.8174
11613SOL    HW238882   1.246   6.721   0.724  0.6455 -0.1683  0.2410
11614SOL     OW38883   3.161   0.734   0.700 -0.2373  0.3030 -0.5687
11614SOL    HW138884   3.228   0.700   0.760 -0.9398  1.1538  0.7539
11614SOL    HW238885   3.210   0.768   0.625  0.8301  1.0167  0.4266
11615SOL     OW38886   1.587  10.079   6.918  0.3010 -0.1687 -0.0549
11615SOL    HW138887   1.657  10.135   6.885 -0.9082  1.9515  0.7416
11615SOL    HW238888   1.584  10.098   7.012  0.4297 -2.3206  0.4383
11616SOL     OW38889   1.847   8.985   1.957  0.3531 -0.0268 -0.3981
11616SOL    HW138890   1.848   9.043   2.034  0.2351 -0.9852  0.3409
11616SOL    HW238891   1.896   8.908   1.984 -1.3532 -1.2392 -0.5771
11617SOL     OW38892   1.237   7.269   7.319 -0.3932  0.2151  0.1180
11617SOL    HW138893   1.297   7.213   7.269 -0.3665 -0.2742  0.6842
11617SOL    HW238894   1.287   7.349   7.335 -0.6642  0.6811 -1.2639
11618SOL     OW38895   7.668   0.621   0.184 -0.4235  0.3316  0.2060
11618SOL    HW138896   7.671   0.599   0.091  0.7895  0.7142  0.1391
11618SOL    HW238897   7.676   0.537   0.230  1.3126  0.3183 -0.0509
11619SOL     OW38898   3.577   0.176   3.588  0.3507  0.0987  0.0924
11619SOL    HW138899   3.494   0.223   3.577  0.1417 -0.0107  1.1590
11619SOL    HW238900   3.629   0.230   3.647  0.4715 -0.5405  0.5811
11620SOL     OW38901   7.593   1.590   9.871 -0.1636  0.4852  0.7760
11620SOL    HW138902   7.523   1.634   9.821 -1.1078 -2.1775 -0.4081
11620SOL    HW238903   7.673   1.615   9.825 -0.7022  0.7101 -0.0795
11621SOL     OW38904   7.434   0.380   1.924 -0.3391  0.2963  0.5414
11621SOL    HW138905   7.498   0.314   1.952 -0.9876  0.0410  1.4895
11621SOL    HW238906   7.423   0.364   1.830  0.1910 -0.3643  0.5813
11622SOL     OW38907   5.665   2.013   0.290  0.2727 -0.1178  0.0210
11622SOL    HW138908   5.745   1.989   0.338 -0.7674  2.3428  3.4239
11622SOL    HW238909   5.669   2.109   0.285 -0.9952 -0.1098 -2.7346
11623SOL     OW38910   5.337   4.314   2.021 -0.1760 -0.4413  0.7386
11623SOL    HW138911   5.330   4.282   1.930 -0.5496  0.5458  0.4052
11623SOL    HW238912   5.262   4.274   2.065 -1.2306  0.7245  0.0734
11624SOL     OW38913   6.157   2.328   1.507  0.4524 -0.3530 -0.0551
11624SOL    HW138914   6.155   2.324   1.603  0.0647 -0.6928 -0.0791
11624SOL    HW238915   6.177   2.238   1.480 -0.5103 -0.4894 -0.3279
11625SOL     OW38916   0.247   9.433   2.524 -0.5173 -0.4791 -0.5009
11625SOL    HW138917   0.258   9.446   2.430  1.7349  0.0464 -0.2305
11625SOL    HW238918   0.336   9.419   2.557 -1.0099  1.0674  1.7765
11626SOL     OW38919   5.561   6.918   0.292  0.1679  0.4527  0.5064
11626SOL    HW138920   5.617   6.986   0.255 -0.4632 -0.1330 -1.6414
11626SOL    HW238921   5.611   6.837   0.280  0.0923  0.2786  1.2983
11627SOL     OW38922   6.004   2.591   7.808 -0.0184  1.0994 -0.6254
11627SOL    HW138923   5.960   2.552   7.884 -0.3109 -0.2636 -1.4458
11627SOL    HW238924   5.943   2.576   7.736  1.2244  0.3044 -1.5498
11628SOL     OW38925   5.516   4.108   3.847  0.0874 -0.4996  0.4680
11628SOL    HW138926   5.479   4.122   3.760 -3.4488  1.0551  2.0147
11628SOL    HW238927   5.532   4.196   3.881  0.6841 -1.0483  1.6763
11629SOL     OW38928   5.853   5.297   4.317 -0.3586 -0.1214  0.1429
11629SOL    HW138929   5.838   5.213   4.360 -0.3007 -0.3697 -0.3090
11629SOL    HW238930   5.939   5.287   4.275  0.6296  0.9090  1.8310
11630SOL     OW38931   9.398   5.565   2.483 -0.1125 -0.1849 -0.2529
11630SOL    HW138932   9.373   5.654   2.458  1.3264  0.6764  1.1191
11630SOL    HW238933   9.485   5.553   2.445 -0.4605 -1.1780 -0.7623
11631SOL     OW38934   9.262   2.738   8.851 -0.4004 -0.2095 -0.0043
11631SOL    HW138935   9.190   2.677   8.838  0.4244 -1.3405  0.5772
11631SOL    HW238936   9.288   2.764   8.763  0.6620 -2.4361 -0.4065
11632SOL     OW38937   5.862   1.624   5.210  0.2680 -0.3525 -0.1874
11632SOL    HW138938   5.946   1.606   5.166 -0.3588 -1.0180 -1.1469
11632SOL    HW238939   5.811   1.671   5.144 -0.5793 -1.0836 -0.0553
11633SOL     OW38940   8.569   4.545   1.934  0.5506 -0.3391  0.3133
11633SOL    HW138941   8.661   4.570   1.945  0.1834  0.7871  1.0217
11633SOL    HW238942   8.547   4.502   2.017  0.9070 -2.2682 -0.5310
11634SOL     OW38943   7.333   3.283   7.845  0.0380 -0.5385 -0.5416
11634SOL    HW138944   7.389   3.341   7.794 -0.9034 -0.0077 -1.0065
11634SOL    HW238945   7.244   3.304   7.816 -0.4550 -0.8725  0.6639
11635SOL     OW38946   2.057   2.255   2.837  0.0421 -0.3391 -0.0358
11635SOL    HW138947   2.083   2.291   2.752 -0.6695 -1.3704 -0.7232
11635SOL    HW238948   2.028   2.330   2.888  0.4627  0.2929 -0.7072
11636SOL     OW38949  10.244   3.398   3.791  0.8848  0.0218  0.1266
11636SOL    HW138950  10.286   3.336   3.851  0.2026 -0.8096 -0.2226
11636SOL    HW238951  10.231   3.348   3.710  0.6865  0.7522 -0.3042
11637SOL     OW38952   4.241   0.468   7.227  0.2772  0.1392  0.6041
11637SOL    HW138953   4.263   0.553   7.188 -0.3770 -0.7988 -1.9915
11637SOL    HW238954   4.153   0.480   7.263  0.2281  0.5828  0.3416
11638SOL     OW38955   4.305   7.053   7.437  0.1289 -0.0094  0.0740
11638SOL    HW138956   4.387   7.102   7.447  0.0578 -0.1755  1.6906
11638SOL    HW238957   4.325   6.966   7.470  0.3188 -1.2676 -2.9838
11639SOL     OW38958   4.941   1.383   4.422  0.0446  0.3681  0.3323
11639SOL    HW138959   4.920   1.450   4.487  0.1972  0.5932  0.1517
11639SOL    HW238960   5.026   1.348   4.449  1.4615  2.3208 -1.1864
11640SOL     OW38961   9.081   8.873   8.072  0.6163 -0.7368  0.0511
11640SOL    HW138962   9.047   8.962   8.063  0.1031 -0.7363  1.6732
11640SOL    HW238963   9.139   8.877   8.148  3.3905 -1.0199 -1.8914
11641SOL     OW38964   8.581   2.790   9.860  0.1526  0.6892  0.0357
11641SOL    HW138965   8.597   2.880   9.830 -0.8658  0.4842 -1.2354
11641SOL    HW238966   8.657   2.740   9.829  0.7903  1.1204  0.8710
11642SOL     OW38967   9.770   2.073   1.677  0.1784  0.2829  0.0761
11642SOL    HW138968   9.691   2.076   1.624  0.2581  0.6906 -0.0207
11642SOL    HW238969   9.771   2.157   1.724  1.0386  0.6854 -0.6353
11643SOL     OW38970   5.390   7.049   9.511  0.3642  0.3841  0.1137
11643SOL    HW138971   5.351   7.103   9.442  1.3326  0.6657 -0.2271
11643SOL    HW238972   5.458   7.104   9.549 -0.7648  0.5939  1.9533
11644SOL     OW38973   0.453   9.325   9.966 -0.1308 -0.0080  0.2324
11644SOL    HW138974   0.449   9.394  10.032 -0.6266 -0.4505  0.6680
11644SOL    HW238975   0.379   9.269   9.986  0.3957 -0.7875  0.0126
11645SOL     OW38976   3.916   8.354   9.313  0.6113 -0.0692 -0.3547
11645SOL    HW138977   3.846   8.320   9.369  0.5775 -0.2214 -0.4886
11645SOL    HW238978   3.969   8.278   9.291  0.2557 -0.1213 -1.0524
11646SOL     OW38979   2.362   8.296   9.926 -0.3882 -0.2400  0.0868
11646SOL    HW138980   2.375   8.201   9.932 -1.3025 -0.3350  0.9326
11646SOL    HW238981   2.450   8.333   9.934 -0.2666 -0.9117  2.8231
11647SOL     OW38982   9.942   1.158   2.699 -0.2959 -0.0897  0.1205
11647SOL    HW138983   9.915   1.138   2.610  1.1463 -1.1638 -0.1037
11647SOL    HW238984   9.906   1.087   2.752 -1.0655  0.4926  0.4026
11648SOL     OW38985  10.181   9.636   9.553 -0.2780  0.5146  0.1827
11648SOL    HW138986  10.140   9.721   9.570 -0.8517  0.1134  0.8676
11648SOL    HW238987  10.240   9.623   9.627 -0.1212  0.3622  0.0307
11649SOL     OW38988   0.543   1.822   5.158  0.6005  0.2384  0.0541
11649SOL    HW138989   0.499   1.746   5.197 -0.8843  0.5669 -0.9085
11649SOL    HW238990   0.472   1.884   5.142  1.4847  0.9533 -1.1839
11650SOL     OW38991   2.746   2.299   7.110 -0.0577  0.8240 -0.3076
11650SOL    HW138992   2.692   2.265   7.038 -0.9148  1.3600  0.0704
11650SOL    HW238993   2.706   2.382   7.132 -1.4798 -0.4853  2.5771
11651SOL     OW38994   5.677   8.112   7.659 -0.5244 -0.1418 -0.8243
11651SOL    HW138995   5.724   8.031   7.640 -0.7239 -0.3470 -0.4588
11651SOL    HW238996   5.659   8.108   7.753  1.3596  1.3286 -0.3293
11652SOL     OW38997   9.949   2.420   6.388  0.8617 -0.0189  0.5812
11652SOL    HW138998   9.993   2.435   6.305 -0.4884  1.7691  0.1182
11652SOL    HW238999  10.013   2.444   6.455  0.8793  1.8584 -0.0534
11653SOL     OW39000   7.736   6.344   8.718 -0.4343  0.1510 -0.3974
11653SOL    HW139001   7.814   6.364   8.667  1.2028  1.1610  2.2790
11653SOL    HW239002   7.756   6.260   8.760  0.0807  1.2214  1.6630
11654SOL     OW39003   3.190   0.050   3.034  0.3453  0.3641  0.0367
11654SOL    HW139004   3.141   0.060   3.115 -0.3198  0.2489 -0.3362
11654SOL    HW239005   3.258   0.117   3.037  0.5807  0.1002  0.8613
11655SOL     OW39006   7.897   2.185   2.049 -0.2105 -0.7751  0.0758
11655SOL    HW139007   7.941   2.102   2.067 -1.8943 -1.7867 -0.2196
11655SOL    HW239008   7.824   2.162   1.991  0.2992  1.1929 -1.4380
11656SOL     OW39009   2.561   4.403   8.394 -0.1544 -0.1588  0.3597
11656SOL    HW139010   2.559   4.370   8.484 -1.1948 -0.8103  0.1228
11656SOL    HW239011   2.525   4.331   8.342  0.5109  0.1772 -0.5930
11657SOL     OW39012   5.927   6.927   0.231 -0.0095 -0.2208 -0.2571
11657SOL    HW139013   5.881   6.940   0.148  1.5333  0.5192 -1.0405
11657SOL    HW239014   5.983   6.851   0.216  0.6258  0.1951 -0.0845
11658SOL     OW39015   3.199   4.277   3.568 -0.0609  0.1796 -0.0685
11658SOL    HW139016   3.253   4.202   3.541 -2.3035 -1.2477 -0.9235
11658SOL    HW239017   3.148   4.244   3.642 -1.2007  0.7833 -0.5594
11659SOL     OW39018   6.955   7.128   8.842 -0.6061 -0.4385 -0.1460
11659SOL    HW139019   7.018   7.200   8.849 -1.1479  0.0588 -0.3746
11659SOL    HW239020   6.907   7.146   8.762 -0.7960 -1.0212 -0.1688
11660SOL     OW39021   5.711   1.262   3.113 -0.0937  0.1486 -0.4565
11660SOL    HW139022   5.660   1.338   3.143  0.5169  0.3575  0.0868
11660SOL    HW239023   5.791   1.300   3.076 -0.2111 -0.1866 -1.0557
11661SOL     OW39024   6.277   0.518   8.502 -0.2444 -0.1970  0.5665
11661SOL    HW139025   6.209   0.473   8.552 -1.6199  0.8407 -0.2948
11661SOL    HW239026   6.329   0.564   8.567 -1.8992  1.0103  1.1181
11662SOL     OW39027   7.455   3.723  10.079  0.7033 -0.5121 -0.5386
11662SOL    HW139028   7.366   3.723  10.045 -0.2536  1.3440  1.7254
11662SOL    HW239029   7.503   3.781  10.019 -0.7581  2.0920  0.6774
11663SOL     OW39030   9.033   8.520   8.970 -0.9327  0.9233 -0.2309
11663SOL    HW139031   9.074   8.458   9.031 -2.1383 -0.9667 -1.2526
11663SOL    HW239032   8.959   8.472   8.933  0.0815  1.7247 -3.6792
11664SOL     OW39033   9.511   9.896   0.955 -0.8710  0.2687  0.1445
11664SOL    HW139034   9.462   9.846   0.890 -2.7087  0.7424  1.0936
11664SOL    HW239035   9.460   9.887   1.036  0.3874  1.1704  1.0808
11665SOL     OW39036   7.207  10.212   9.972 -0.3031 -0.0835  0.1690
11665SOL    HW139037   7.260  10.220  10.052 -0.4165  1.5235  0.1212
11665SOL    HW239038   7.271  10.214   9.901 -0.3248  0.5973  0.1589
11666SOL     OW39039   1.843   0.866   8.550  0.1028 -0.2953 -0.9219
11666SOL    HW139040   1.857   0.795   8.612  2.1527  0.6261 -0.2434
11666SOL    HW239041   1.916   0.926   8.566 -0.0405  0.6139 -3.3524
11667SOL     OW39042   8.615   8.468   1.519 -0.2054  0.4561  0.2372
11667SOL    HW139043   8.570   8.385   1.500 -0.3610  1.0153 -2.0857
11667SOL    HW239044   8.545   8.533   1.522  0.1075  0.7965  0.1921
11668SOL     OW39045   7.585   8.774   1.229  0.1869 -0.1101  0.0018
11668SOL    HW139046   7.521   8.720   1.183  1.9254 -2.2532 -0.0540
11668SOL    HW239047   7.646   8.803   1.161 -0.6713  1.9892  0.0360
11669SOL     OW39048   6.459   0.020   7.522  0.0682 -0.1268 -0.0737
11669SOL    HW139049   6.537  -0.025   7.490  0.8626  0.5080  0.9037
11669SOL    HW239050   6.493   0.092   7.575 -1.1829  0.6004 -0.2190
11670SOL     OW39051   8.720   1.766   3.390 -0.4062  0.1614  0.2231
11670SOL    HW139052   8.706   1.834   3.323  0.9463  1.1702  0.9053
11670SOL    HW239053   8.813   1.745   3.383 -1.0281 -2.6331 -0.8459
11671SOL     OW39054  10.203   5.962   4.938 -0.2278 -0.2814  0.1466
11671SOL    HW139055  10.116   6.001   4.927 -0.1734 -0.2287 -0.0864
11671SOL    HW239056  10.220   5.915   4.857 -0.5420 -1.2917  0.6469
11672SOL     OW39057   3.871   4.620   9.990 -0.2060  0.1585  0.3110
11672SOL    HW139058   3.800   4.571  10.031 -1.2637  0.9486 -0.5212
11672SOL    HW239059   3.856   4.711  10.016 -0.0362  0.4555 -0.5765
11673SOL     OW39060   4.414   7.059   6.109  0.6344  0.2897  0.4820
11673SOL    HW139061   4.341   7.086   6.053 -0.3861 -0.8372  1.1953
11673SOL    HW239062   4.399   7.104   6.192 -0.3013 -1.2639  1.2157
11674SOL     OW39063   0.071   8.784   5.195  0.0952  0.2235 -0.2248
11674SOL    HW139064   0.120   8.703   5.189 -0.8762 -0.7061  2.6847
11674SOL    HW239065   0.137   8.852   5.206  0.8461 -0.4341 -0.6571
11675SOL     OW39066   8.734   7.285   3.511  0.1194 -0.1376  0.1558
11675SOL    HW139067   8.737   7.355   3.446 -1.0636 -0.1284  0.0852
11675SOL    HW239068   8.642   7.283   3.540  0.2580 -1.2714  0.5747
11676SOL     OW39069   4.674   7.043   1.997 -0.0132  0.2100 -0.2412
11676SOL    HW139070   4.678   6.954   2.033  0.0762  0.3928  0.2012
11676SOL    HW239071   4.748   7.089   2.036  0.3400  0.2936 -0.9888
11677SOL     OW39072   4.836   0.460   0.369 -0.4041  0.7666 -0.0743
11677SOL    HW139073   4.894   0.520   0.415  1.7557 -1.4110  0.2365
11677SOL    HW239074   4.760   0.451   0.426  0.3640  1.2891  1.0559
11678SOL     OW39075   1.845   2.218  10.059  0.3408  0.2549  0.5831
11678SOL    HW139076   1.915   2.155  10.076  0.2521 -0.0725 -0.2224
11678SOL    HW239077   1.765   2.166  10.060  0.3422  0.1922 -0.9185
11679SOL     OW39078   4.962   3.063   1.178  0.8315  0.1326 -0.1708
11679SOL    HW139079   4.915   2.999   1.126 -0.4460  0.1283  0.9453
11679SOL    HW239080   5.040   3.083   1.126  0.4850 -1.1610 -1.2456
11680SOL     OW39081   5.031   6.900   1.947 -0.1657 -0.3013 -0.4375
11680SOL    HW139082   5.005   6.904   2.040 -0.5284 -0.7465 -0.5135
11680SOL    HW239083   5.004   6.985   1.911  0.0518 -0.0944 -0.1167
11681SOL     OW39084   5.259   9.213   5.025 -0.3114  0.0182  0.0450
11681SOL    HW139085   5.200   9.265   4.970  0.5942  1.5674  0.4561
11681SOL    HW239086   5.303   9.154   4.964  0.0478  1.0984 -0.7704
11682SOL     OW39087   7.109   2.320   1.692 -0.0189 -0.0163  0.0657
11682SOL    HW139088   7.188   2.284   1.651 -0.0407 -0.2053  0.1895
11682SOL    HW239089   7.092   2.263   1.767  1.5437  1.8679  1.9734
11683SOL     OW39090   6.304   1.132   2.158  0.2450 -0.1296 -0.1759
11683SOL    HW139091   6.271   1.221   2.171  0.7015  0.0017  0.0778
11683SOL    HW239092   6.296   1.117   2.063 -0.1036  0.0725 -0.1783
11684SOL     OW39093   7.971   9.836   8.002 -0.2863 -0.0493 -0.0019
11684SOL    HW139094   7.899   9.816   7.942 -1.5352  1.1114  1.0473
11684SOL    HW239095   8.018   9.908   7.959 -1.3798  1.0093  0.5459
11685SOL     OW39096   0.982   1.665   7.897  0.6968  0.2199  0.1427
11685SOL    HW139097   0.919   1.645   7.966 -0.4811  1.0257 -0.6594
11685SOL    HW239098   0.954   1.613   7.822  0.0538  1.6975 -0.6872
11686SOL     OW39099   4.673   3.318   2.125  0.0971 -0.0705 -0.8572
11686SOL    HW139100   4.691   3.404   2.087 -0.0368  0.5369  0.3982
11686SOL    HW239101   4.716   3.320   2.210 -1.4074 -0.5695 -0.0548
11687SOL     OW39102   9.853   0.796   9.130  0.5847  0.5626  0.2471
11687SOL    HW139103   9.867   0.751   9.214  0.5265 -2.2723 -1.1429
11687SOL    HW239104   9.941   0.806   9.094  0.4628 -0.7471 -0.4986
11688SOL     OW39105   6.850   7.782   7.718  0.1040  0.6393 -0.1913
11688SOL    HW139106   6.872   7.846   7.651 -0.2242  0.5337 -0.3991
11688SOL    HW239107   6.933   7.766   7.764  0.4990  0.1352 -1.0659
11689SOL     OW39108   7.395   2.332   8.455  0.0510  0.4295  0.4173
11689SOL    HW139109   7.404   2.269   8.384  2.5985  1.2399 -0.0651
11689SOL    HW239110   7.399   2.417   8.412  0.1281  0.9364  1.3930
11690SOL     OW39111   2.253   3.023   5.796  0.0551  0.2933  0.7165
11690SOL    HW139112   2.321   2.989   5.853 -0.7161 -0.3458  1.2700
11690SOL    HW239113   2.210   2.946   5.760 -0.9313  0.6673  1.0471
11691SOL     OW39114   1.984   6.474   0.848 -0.8928  0.0308  0.6567
11691SOL    HW139115   2.070   6.482   0.807 -0.8460 -0.3675  0.6709
11691SOL    HW239116   2.002   6.468   0.941 -1.0029  0.9835  0.7493
11692SOL     OW39117   2.851   6.160   9.799 -0.5249  0.3304 -0.1075
11692SOL    HW139118   2.946   6.173   9.805 -0.5261  0.3779 -0.1816
11692SOL    HW239119   2.838   6.114   9.716 -0.4707 -0.6965  0.4390
11693SOL     OW39120   4.837   6.519   2.350  0.0483 -0.3882  0.4377
11693SOL    HW139121   4.825   6.556   2.438 -0.9923  0.2432  0.0494
11693SOL    HW239122   4.820   6.592   2.291 -0.7041 -1.1467 -0.3185
11694SOL     OW39123   4.840   4.150   6.959 -0.4973  0.1091 -0.2477
11694SOL    HW139124   4.889   4.222   6.919 -1.9705  0.9047 -0.6869
11694SOL    HW239125   4.767   4.192   7.003 -2.3922 -1.1791 -1.9456
11695SOL     OW39126   2.268   4.284   2.049  0.2325  0.2490  0.1725
11695SOL    HW139127   2.351   4.243   2.027 -0.7144 -0.8208 -1.7370
11695SOL    HW239128   2.238   4.323   1.966 -0.9659  0.9815  0.9194
11696SOL     OW39129   5.987   0.807   3.053 -0.2616  0.3206 -0.4535
11696SOL    HW139130   5.985   0.832   3.145 -0.8926  0.2486 -0.4373
11696SOL    HW239131   5.905   0.843   3.017 -0.0364  0.3254 -0.9786
11697SOL     OW39132   3.145   3.761   2.488 -0.3820 -0.2786  0.1259
11697SOL    HW139133   3.207   3.692   2.467  0.0528  0.1560 -0.0251
11697SOL    HW239134   3.194   3.822   2.543 -0.3160  0.6781 -0.9631
11698SOL     OW39135   5.457   1.300   1.828 -0.1811  0.0013 -0.2753
11698SOL    HW139136   5.408   1.285   1.909 -0.2987 -0.3674 -0.4133
11698SOL    HW239137   5.406   1.255   1.760 -0.2899  0.6274 -0.6207
11699SOL     OW39138   6.081   6.744   4.113 -0.0717 -0.4920 -0.2259
11699SOL    HW139139   6.126   6.675   4.065  0.4165  0.2853 -0.9119
11699SOL    HW239140   6.132   6.755   4.193 -1.7215 -2.8272  1.2919
11700SOL     OW39141   6.184   6.337   3.363 -0.2268  0.0493 -0.0596
11700SOL    HW139142   6.095   6.301   3.368 -0.2777  0.1260 -0.4334
11700SOL    HW239143   6.219   6.326   3.452  0.5332 -2.9563 -0.6163
11701SOL     OW39144   4.224   4.095   4.517  0.1048 -0.7485  0.0767
11701SOL    HW139145   4.260   4.156   4.581 -3.4423  2.4102 -0.5673
11701SOL    HW239146   4.244   4.134   4.432 -1.1451 -1.1314 -0.4167
11702SOL     OW39147   1.627   0.484   0.997  0.7994  0.0856  0.0459
11702SOL    HW139148   1.678   0.492   1.078  0.6838 -1.5603  0.3109
11702SOL    HW239149   1.560   0.419   1.018  0.2950  0.2083 -1.1481
11703SOL     OW39150   8.480   3.310   7.478 -0.1320 -0.3668 -0.0117
11703SOL    HW139151   8.485   3.382   7.541 -0.9621  0.5297 -0.9506
11703SOL    HW239152   8.422   3.246   7.520  0.9076 -0.7011  0.9883
11704SOL     OW39153   4.317   7.983   7.901 -0.2500  0.4264 -0.3215
11704SOL    HW139154   4.350   8.007   7.987  1.2404  1.0319 -1.0290
11704SOL    HW239155   4.249   7.918   7.918  0.2761  0.2636  1.2746
11705SOL     OW39156   9.701   4.679   3.408  0.5817  0.3719  0.6091
11705SOL    HW139157   9.761   4.739   3.364  0.8805 -0.5974 -0.3415
11705SOL    HW239158   9.666   4.624   3.338 -0.6408  0.2500  1.2890
11706SOL     OW39159   8.940   1.540   0.810  0.5287 -0.0591  0.2369
11706SOL    HW139160   9.008   1.606   0.799 -0.9311  1.6506  1.1665
11706SOL    HW239161   8.883   1.551   0.734  0.0431  0.0380  0.6108
11707SOL     OW39162   9.733   2.324   2.142 -0.6981 -0.2917  0.0556
11707SOL    HW139163   9.669   2.319   2.213 -0.8193 -1.1540 -0.1060
11707SOL    HW239164   9.766   2.413   2.146 -0.5055 -0.4106  1.3603
11708SOL     OW39165   8.578  10.171   2.645  0.0269 -0.1265 -0.3488
11708SOL    HW139166   8.604  10.224   2.569  1.9087 -0.2528  0.1480
11708SOL    HW239167   8.489  10.144   2.625  0.3823  0.0136 -2.4411
11709SOL     OW39168   4.341   0.276   5.716 -0.2314 -0.0842  0.0254
11709SOL    HW139169   4.328   0.341   5.786  0.7838  0.4899 -0.2922
11709SOL    HW239170   4.334   0.327   5.635  0.9222 -0.2978 -0.2207
11710SOL     OW39171   8.600   2.689   5.801  0.0075 -0.2071 -0.2975
11710SOL    HW139172   8.658   2.733   5.863 -1.5581  2.3364 -0.5086
11710SOL    HW239173   8.542   2.637   5.856  0.2393  0.0261  0.1794
11711SOL     OW39174   2.810   2.337   0.918  0.1219 -0.2963  0.1598
11711SOL    HW139175   2.903   2.357   0.925  0.0531  1.2894 -2.2420
11711SOL    HW239176   2.805   2.268   0.852 -0.3728 -1.0661  0.9779
11712SOL     OW39177   1.217   6.002   2.354 -0.3497 -0.0049  1.0379
11712SOL    HW139178   1.209   5.943   2.429  0.4414 -0.9146  0.4425
11712SOL    HW239179   1.306   6.035   2.358 -0.5974  0.6817  1.0170
11713SOL     OW39180   8.292   8.684   4.914 -0.1321  0.2278  0.6094
11713SOL    HW139181   8.307   8.679   4.819 -0.4925  1.8437  0.4469
11713SOL    HW239182   8.198   8.673   4.923 -0.0174 -0.6347  0.8620
11714SOL     OW39183   0.843   4.253   1.358  0.1139  0.2306 -0.1144
11714SOL    HW139184   0.748   4.257   1.365 -0.1024 -0.8093 -1.7879
11714SOL    HW239185   0.860   4.248   1.264  1.8523  0.7147  0.1327
11715SOL     OW39186   2.509   6.352   8.437  0.4230 -0.3307 -0.0200
11715SOL    HW139187   2.491   6.262   8.407  2.2764 -1.3977  1.7960
11715SOL    HW239188   2.603   6.353   8.453  0.1070  1.2499  2.1572
11716SOL     OW39189   4.736   9.696   0.271 -0.2929  0.1678 -0.2903
11716SOL    HW139190   4.725   9.791   0.267  0.4044  0.2607 -0.0669
11716SOL    HW239191   4.700   9.672   0.356 -2.3617 -0.0437 -1.1758
11717SOL     OW39192   6.768   8.316   4.431 -0.6114  0.0954 -0.3066
11717SOL    HW139193   6.821   8.394   4.416 -1.4148  0.2938 -2.4995
11717SOL    HW239194   6.831   8.244   4.436  0.0439  0.7064  0.3042
11718SOL     OW39195   8.667   7.627   4.378 -0.1550  0.1666 -0.1876
11718SOL    HW139196   8.590   7.680   4.353  0.1575  0.7439  0.0507
11718SOL    HW239197   8.700   7.670   4.457  0.2485 -0.2531 -0.1273
11719SOL     OW39198   6.105   5.229   4.139 -0.3330 -0.3896 -0.1711
11719SOL    HW139199   6.140   5.144   4.114 -0.1094 -0.5650  0.7124
11719SOL    HW239200   6.143   5.246   4.225 -0.0832  0.7682 -0.4895
11720SOL     OW39201   3.790   7.782   1.633  0.3628  0.1321  0.0095
11720SOL    HW139202   3.765   7.847   1.567 -0.7025 -2.2819 -2.1149
11720SOL    HW239203   3.730   7.799   1.706 -1.7630 -0.0813 -1.5715
11721SOL     OW39204   3.694   1.051   0.581 -0.0381  0.5476 -0.0834
11721SOL    HW139205   3.734   1.001   0.510  0.4002  0.0366  0.5103
11721SOL    HW239206   3.767   1.073   0.640 -0.2946  1.5084 -0.1034
11722SOL     OW39207   3.835   8.006   3.821  0.4002  0.4102 -0.9033
11722SOL    HW139208   3.763   7.994   3.883  1.6935  0.9001  0.7751
11722SOL    HW239209   3.803   7.969   3.739 -0.3249 -3.1119  0.7826
11723SOL     OW39210   7.223   3.787   6.954  0.2436 -0.0761  0.2428
11723SOL    HW139211   7.277   3.784   7.033 -0.6369 -1.2900  0.8205
11723SOL    HW239212   7.256   3.863   6.906 -0.5181  1.9994  2.7329
11724SOL     OW39213   9.857   0.186  10.034  0.1889 -0.1828  0.2778
11724SOL    HW139214   9.776   0.221  10.069 -0.3105 -1.4616  0.4680
11724SOL    HW239215   9.916   0.183  10.109 -0.4402 -1.6409  0.7507
11725SOL     OW39216   8.835   2.550   3.906  0.2141 -0.7776 -0.2363
11725SOL    HW139217   8.807   2.640   3.921  0.7317  0.0716 -3.5980
11725SOL    HW239218   8.917   2.542   3.954 -0.8199 -0.2103  1.7661
11726SOL     OW39219   1.867   7.187   6.117  0.3547 -0.3451 -0.2075
11726SOL    HW139220   1.961   7.209   6.117  0.4467 -0.7344 -0.3071
11726SOL    HW239221   1.823   7.272   6.121  0.7158 -0.1669  0.1714
11727SOL     OW39222   1.977   2.581   0.101 -0.4722  0.8296 -0.0811
11727SOL    HW139223   1.929   2.557   0.022  0.6319 -0.1940 -0.4647
11727SOL    HW239224   1.999   2.498   0.142  0.8582  1.2640  0.1345
11728SOL     OW39225   0.734   4.004   7.484 -0.2179 -0.2955  0.3832
11728SOL    HW139226   0.736   3.928   7.542 -0.5234 -0.2772  0.4202
11728SOL    HW239227   0.790   4.069   7.528 -0.7187 -0.1583  0.8404
11729SOL     OW39228   5.435  10.279   2.670  0.1541  0.0735  0.0987
11729SOL    HW139229   5.420  10.188   2.695 -0.8249  0.0906 -0.4003
11729SOL    HW239230   5.513  10.275   2.614  1.3585 -0.1754  1.6923
11730SOL     OW39231   7.048   9.723   3.542  0.4528 -0.3811 -0.2399
11730SOL    HW139232   7.109   9.721   3.468  1.3993 -2.4812  0.5157
11730SOL    HW239233   6.980   9.661   3.518 -0.9558  1.2625 -0.6620
11731SOL     OW39234   2.903   6.267   0.064  0.0134 -0.2834 -0.1652
11731SOL    HW139235   2.933   6.209   0.133  1.0560  0.9440  0.4507
11731SOL    HW239236   2.900   6.212  -0.014 -0.9813 -1.6392  0.7792
11732SOL     OW39237   5.038   7.443   1.490  0.1624 -0.2026  0.5591
11732SOL    HW139238   5.101   7.511   1.512  1.2539 -0.2577 -2.1449
11732SOL    HW239239   4.997   7.472   1.409 -2.5048 -0.7556  1.5777
11733SOL     OW39240   4.066   9.717   1.059  0.3509 -0.1075 -0.3303
11733SOL    HW139241   3.997   9.742   0.998  0.0491  0.1388  0.1051
11733SOL    HW239242   4.043   9.629   1.088  1.3803 -0.8999 -1.8173
11734SOL     OW39243  10.165   9.742   3.124 -0.4809 -0.4069 -0.1660
11734SOL    HW139244  10.179   9.649   3.144  1.3199 -0.9582 -3.2526
11734SOL    HW239245  10.094   9.742   3.059 -1.6401  0.5983  1.0546
11735SOL     OW39246   2.276   2.934   0.914 -0.2257 -0.5251  0.1343
11735SOL    HW139247   2.257   3.016   0.960 -0.6852  0.2854 -1.4349
11735SOL    HW239248   2.197   2.881   0.925 -1.4066  0.6886 -1.7933
11736SOL     OW39249   3.170   5.284   5.683  0.7481 -0.1019  0.4554
11736SOL    HW139250   3.086   5.247   5.656  0.3282  0.4936  0.9082
11736SOL    HW239251   3.184   5.358   5.624  1.6813 -1.0671 -0.5753
11737SOL     OW39252   2.100  10.072   9.854  0.2075  0.3190  0.3330
11737SOL    HW139253   2.026  10.013   9.850  1.0073 -0.7471  0.8541
11737SOL    HW239254   2.080  10.133   9.925 -0.8384  1.0166 -0.5270
11738SOL     OW39255  10.009   9.076   1.777 -0.1493  0.2176 -0.4318
11738SOL    HW139256   9.972   9.083   1.865  0.0731  0.0365 -0.3203
11738SOL    HW239257  10.098   9.109   1.786 -0.5349  1.4289 -0.8754
11739SOL     OW39258   2.943   6.271   4.867  0.0476 -0.2754  0.0278
11739SOL    HW139259   3.011   6.244   4.805 -0.3873  3.0817 -2.1838
11739SOL    HW239260   2.988   6.328   4.928 -0.3768  0.2407 -0.1350
11740SOL     OW39261   9.934   4.918   8.138  0.2286 -0.3428 -0.2082
11740SOL    HW139262   9.961   4.872   8.058  0.5341  2.0183 -1.5623
11740SOL    HW239263   9.971   4.866   8.209  0.4241 -2.2352 -1.5976
11741SOL     OW39264   3.395  10.274   0.726 -0.6944 -0.1895  0.5019
11741SOL    HW139265   3.396  10.343   0.659 -2.7078 -0.8157 -0.2542
11741SOL    HW239266   3.456  10.305   0.793  2.8771 -0.3702 -2.3513
11742SOL     OW39267   6.537   3.893   4.773  0.0770 -0.4603 -0.6472
11742SOL    HW139268   6.545   3.988   4.777  1.1464 -0.5365 -0.6291
11742SOL    HW239269   6.604   3.866   4.710 -0.0271 -1.2213 -0.4411
11743SOL     OW39270   9.617   4.411   5.743 -0.0228  0.3568 -0.6316
11743SOL    HW139271   9.677   4.342   5.712  0.9845  0.3389  1.1966
11743SOL    HW239272   9.538   4.399   5.690 -0.3162 -2.9260  0.3274
11744SOL     OW39273   3.391   7.515   0.697  0.0900  0.3263  0.0887
11744SOL    HW139274   3.398   7.596   0.748 -2.0522 -0.3549  1.6001
11744SOL    HW239275   3.390   7.445   0.762  1.9294 -0.9828 -1.1849
11745SOL     OW39276   9.582   8.168   7.122  0.0324  0.2856 -0.8235
11745SOL    HW139277   9.503   8.123   7.152  0.4154 -0.3970 -0.8121
11745SOL    HW239278   9.630   8.101   7.073 -0.2739  1.1900 -2.4345
11746SOL     OW39279   7.906   1.984   6.328  0.0922 -0.0199 -0.1820
11746SOL    HW139280   7.913   2.068   6.372 -1.0854 -0.8992  1.8145
11746SOL    HW239281   7.825   1.945   6.363 -0.3422 -1.2406 -2.3605
11747SOL     OW39282   7.879   3.157   8.575 -0.0803  0.1044 -0.3601
11747SOL    HW139283   7.917   3.071   8.590  2.4897  1.3234  0.7449
11747SOL    HW239284   7.953   3.218   8.579 -1.7001  2.3476 -1.6053
11748SOL     OW39285   1.930   0.764   4.176 -0.0939  0.4416 -0.0111
11748SOL    HW139286   2.018   0.725   4.176 -0.1675  0.2629 -0.5691
11748SOL    HW239287   1.918   0.796   4.265  0.2244 -0.2550  0.2913
11749SOL     OW39288   0.014   0.745   5.075  0.5388  0.3313 -0.4917
11749SOL    HW139289  -0.047   0.818   5.088  1.3342  0.9795 -0.3476
11749SOL    HW239290   0.086   0.763   5.136  0.8697 -0.4277 -0.6552
11750SOL     OW39291   4.507   3.160   8.908 -0.0970 -0.3829 -0.2404
11750SOL    HW139292   4.534   3.074   8.942  1.2255  0.2899  0.5120
11750SOL    HW239293   4.481   3.143   8.818  0.8060 -1.4688 -0.3191
11751SOL     OW39294   5.970   4.721   8.491  0.0881 -0.2359  0.5016
11751SOL    HW139295   6.021   4.694   8.568 -1.1961 -2.2386  0.7154
11751SOL    HW239296   5.893   4.765   8.528  0.2946  0.3250  0.2782
11752SOL     OW39297   5.291   9.886   9.616 -0.0423 -0.2012 -0.2604
11752SOL    HW139298   5.369   9.849   9.658  1.2829  0.0433 -2.3089
11752SOL    HW239299   5.223   9.882   9.683  2.1569  1.2739  2.2673
11753SOL     OW39300   5.548   3.464   8.715  0.2485 -0.1594  0.2210
11753SOL    HW139301   5.521   3.548   8.752 -1.3297 -0.3464 -0.4348
11753SOL    HW239302   5.619   3.434   8.771 -0.6758  0.5501  1.8260
11754SOL     OW39303   0.835   1.844   3.184  0.0418  0.0432  0.1649
11754SOL    HW139304   0.807   1.837   3.093  0.4301  0.6000 -0.0035
11754SOL    HW239305   0.918   1.795   3.187 -1.6438 -3.0444  1.0281
11755SOL     OW39306   0.429   7.751  10.287 -0.4845 -0.1485 -0.4050
11755SOL    HW139307   0.354   7.714  10.241  0.9607  0.1369 -3.2137
11755SOL    HW239308   0.391   7.808  10.354 -2.7766  0.2347 -1.9248
11756SOL     OW39309   7.332   7.162   2.915  0.5018 -0.2026  0.1185
11756SOL    HW139310   7.375   7.101   2.975 -2.4434  0.1047  2.7858
11756SOL    HW239311   7.294   7.105   2.847  1.2800 -0.8563  0.2021
11757SOL     OW39312   2.803   3.966   1.129 -0.8339 -0.9203  0.1311
11757SOL    HW139313   2.778   4.026   1.060  1.0023 -1.3873 -1.0049
11757SOL    HW239314   2.801   4.019   1.209 -3.0960 -0.4014 -0.1841
11758SOL     OW39315   3.741   3.019   5.223  0.1219 -0.2391 -0.0960
11758SOL    HW139316   3.764   3.031   5.131  1.2017  2.4324  0.4099
11758SOL    HW239317   3.646   3.012   5.224  0.1965 -2.0027 -1.5048
11759SOL     OW39318   5.688   4.524   8.486 -0.1781  0.0696  0.0624
11759SOL    HW139319   5.631   4.452   8.512  0.0854 -0.3047 -0.3724
11759SOL    HW239320   5.771   4.506   8.529  0.7292 -1.3646 -2.1447
11760SOL     OW39321   9.586   6.524   3.124 -0.1450 -0.1574 -0.1067
11760SOL    HW139322   9.515   6.490   3.179  1.5166  0.6988  2.7371
11760SOL    HW239323   9.546   6.596   3.076 -1.5343 -0.5620  0.3748
11761SOL     OW39324   1.244   3.457   2.523 -0.1660  0.1571  0.2441
11761SOL    HW139325   1.268   3.540   2.481  0.2048  0.5332  1.1791
11761SOL    HW239326   1.265   3.391   2.457 -0.1614  0.7735 -0.3934
11762SOL     OW39327   6.532   5.365   1.077 -0.0857  0.0417 -0.1610
11762SOL    HW139328   6.526   5.443   1.022 -0.6038  1.1035  1.3298
11762SOL    HW239329   6.478   5.385   1.153  0.5496 -1.4020  0.7168
11763SOL     OW39330   4.805   0.069   6.548 -0.0712 -0.1253 -0.5727
11763SOL    HW139331   4.868   0.111   6.489  0.5245  1.1908  0.9453
11763SOL    HW239332   4.720   0.092   6.511  0.2632  1.5958 -0.3813
11764SOL     OW39333  10.050   7.531   2.120 -0.5629 -0.7890  0.2190
11764SOL    HW139334  10.085   7.457   2.071  1.8375 -0.5843  1.4731
11764SOL    HW239335  10.045   7.500   2.210  0.1200  0.4509  0.7013
11765SOL     OW39336   7.690   1.994  10.279  0.1389  0.6945  0.2229
11765SOL    HW139337   7.612   1.978  10.225 -0.5684  2.4073  0.6586
11765SOL    HW239338   7.699   2.089  10.280  1.4226  0.5938  1.3528
11766SOL     OW39339   5.380   2.948   7.682  0.2659  0.3545  0.4435
11766SOL    HW139340   5.290   2.916   7.679 -0.2397  1.4600  2.2345
11766SOL    HW239341   5.416   2.927   7.596 -1.7341  0.0040 -0.3574
11767SOL     OW39342   1.855   6.537   1.165 -0.0504  0.3952  0.4339
11767SOL    HW139343   1.861   6.442   1.160  1.3991  0.3908  1.3851
11767SOL    HW239344   1.765   6.554   1.192  0.5974 -0.9835  4.0617
11768SOL     OW39345   8.288   0.854   7.716  0.0282  0.0334  0.0228
11768SOL    HW139346   8.227   0.787   7.749 -1.2920  0.3830 -1.5644
11768SOL    HW239347   8.244   0.937   7.734  0.6444  0.3654  0.0111
11769SOL     OW39348   3.627   3.621   8.812 -0.2995 -0.1127  0.0099
11769SOL    HW139349   3.701   3.672   8.844  0.2718 -0.1286 -1.2391
11769SOL    HW239350   3.591   3.672   8.740 -1.9109  0.1903  0.9780
11770SOL     OW39351   8.510   1.691   9.933  0.1338  0.4697  0.0339
11770SOL    HW139352   8.481   1.600   9.941 -4.7245  1.7370 -0.1784
11770SOL    HW239353   8.547   1.696   9.845 -0.8324 -1.0421 -0.5073
11771SOL     OW39354   4.718   6.700   6.726  0.1754 -0.6102 -0.1665
11771SOL    HW139355   4.685   6.613   6.704  2.8888 -1.5353 -0.9250
11771SOL    HW239356   4.766   6.728   6.647  0.2771  1.1018  0.4647
11772SOL     OW39357   1.547   2.198   5.987 -0.1728 -0.2222 -0.2010
11772SOL    HW139358   1.531   2.104   5.978  0.6230 -0.3287 -0.5538
11772SOL    HW239359   1.512   2.237   5.907  1.3217 -0.4672 -1.0193
11773SOL     OW39360   8.272   6.567   1.807 -0.1864 -0.2845  0.1705
11773SOL    HW139361   8.181   6.541   1.824 -1.0608  1.9908 -0.6479
11773SOL    HW239362   8.312   6.572   1.893 -1.5610  1.0156  0.7709
11774SOL     OW39363   9.778   6.132   9.921  0.1714 -0.0606  0.1572
11774SOL    HW139364   9.698   6.085   9.943 -0.4263  0.1768 -1.3463
11774SOL    HW239365   9.747   6.212   9.878  1.1990  0.8724  1.0926
11775SOL     OW39366   0.871   5.196   1.228 -0.5631  0.3309 -0.0551
11775SOL    HW139367   0.958   5.233   1.217 -0.1154 -0.4750  0.6616
11775SOL    HW239368   0.836   5.188   1.140  0.1044  0.6166 -0.3489
11776SOL     OW39369   7.368   0.083   7.052  0.2047 -0.0438  0.5266
11776SOL    HW139370   7.356  -0.003   7.014 -0.2409 -0.2715  1.1683
11776SOL    HW239371   7.285   0.128   7.037  1.5476  1.6131 -3.0520
11777SOL     OW39372   2.554   0.048   7.936 -0.0231  0.0149 -0.3390
11777SOL    HW139373   2.611  -0.013   7.982 -0.8636 -0.9987 -0.5858
11777SOL    HW239374   2.576   0.134   7.970  0.3481 -0.5674  0.9161
11778SOL     OW39375   8.315   8.792   9.360 -0.2024  0.4286 -0.0606
11778SOL    HW139376   8.337   8.847   9.284 -0.3856  0.0829 -0.3675
11778SOL    HW239377   8.236   8.832   9.396 -0.6890  0.0185 -0.6493
11779SOL     OW39378   5.216   5.821   2.085  0.0453 -0.4723 -0.2158
11779SOL    HW139379   5.205   5.815   2.180 -0.2446  0.1962 -0.2071
11779SOL    HW239380   5.248   5.734   2.059  1.0272 -0.3648  0.6114
11780SOL     OW39381   6.850   4.415   1.277 -0.0263  0.6799 -0.2359
11780SOL    HW139382   6.759   4.427   1.303 -0.3120 -1.0832 -0.2923
11780SOL    HW239383   6.846   4.400   1.182  0.3872  1.1580 -0.3351
11781SOL     OW39384   1.464   2.167   4.537  0.1753 -0.3081 -0.2572
11781SOL    HW139385   1.408   2.090   4.527  0.4299 -0.6843  0.9629
11781SOL    HW239386   1.457   2.189   4.630  2.0293 -0.3631 -0.0611
11782SOL     OW39387   7.953   7.612  10.161 -0.2205  0.3381  0.2840
11782SOL    HW139388   7.874   7.660  10.187  0.7310  1.7805  0.6367
11782SOL    HW239389   8.012   7.679  10.127  1.3163 -0.5118  1.1421
11783SOL     OW39390   6.919   8.786   6.644  0.0242  0.2209 -0.0632
11783SOL    HW139391   6.985   8.844   6.682  0.9697 -0.6596 -0.3101
11783SOL    HW239392   6.867   8.842   6.588  2.2958  0.4802 -2.0688
11784SOL     OW39393   2.120   4.394   5.901  0.6832 -0.2296  0.0919
11784SOL    HW139394   2.111   4.365   5.992  1.7931 -1.7409 -0.2271
11784SOL    HW239395   2.053   4.461   5.890 -0.3770 -0.9643  1.6399
11785SOL     OW39396   5.797   2.606   7.130 -0.6318 -0.4595 -0.3398
11785SOL    HW139397   5.805   2.530   7.189 -0.1910 -0.2703 -0.1559
11785SOL    HW239398   5.729   2.580   7.068 -1.1000 -0.6677  0.2443
11786SOL     OW39399   0.212   6.584   0.754 -0.2771  0.1230 -0.1490
11786SOL    HW139400   0.168   6.665   0.776  0.2618  0.6768 -1.0461
11786SOL    HW239401   0.172   6.518   0.811 -1.4264  0.8169 -0.1290
11787SOL     OW39402   1.365   7.368   9.830  0.4955 -0.0699 -0.1834
11787SOL    HW139403   1.336   7.335   9.745 -0.6681 -1.1403  0.5925
11787SOL    HW239404   1.321   7.452   9.840  0.0878 -0.2592 -0.3587
11788SOL     OW39405   5.412   8.140   9.704 -0.6768  0.1891 -0.3334
11788SOL    HW139406   5.366   8.137   9.621 -2.5635 -0.0135  0.6625
11788SOL    HW239407   5.353   8.186   9.763 -0.0812 -1.0035  1.2794
11789SOL     OW39408   3.701   0.162   5.779 -0.0110  0.3381  0.0925
11789SOL    HW139409   3.645   0.205   5.843 -1.0622 -1.2008  0.2349
11789SOL    HW239410   3.697   0.219   5.702  0.0810  1.4203  0.8545
11790SOL     OW39411   4.611   0.478   7.848  0.0789 -0.0768  0.0084
11790SOL    HW139412   4.693   0.527   7.844 -0.5161  1.0214  0.5300
11790SOL    HW239413   4.637   0.387   7.861  1.2330  0.0592 -1.1901
11791SOL     OW39414   1.260   7.144   8.692  0.3320  0.3876 -0.3493
11791SOL    HW139415   1.218   7.158   8.776  0.8100 -0.7675  0.1105
11791SOL    HW239416   1.190   7.153   8.627 -0.4345 -0.5238  0.3228
11792SOL     OW39417   9.753   4.875   2.082 -0.0053  0.2655  0.2854
11792SOL    HW139418   9.841   4.865   2.047 -0.8340 -3.7173 -1.1152
11792SOL    HW239419   9.713   4.944   2.028  0.7030 -1.4435 -2.6145
11793SOL     OW39420   9.163   2.404   2.425 -0.5318 -0.3219 -0.3829
11793SOL    HW139421   9.192   2.359   2.505  1.1418 -2.2795 -1.9621
11793SOL    HW239422   9.235   2.463   2.403 -0.5092 -0.5488 -0.9499
11794SOL     OW39423   0.363   7.127   8.652 -0.3770 -0.3828  0.0865
11794SOL    HW139424   0.399   7.211   8.622  1.7968 -0.7948  1.2815
11794SOL    HW239425   0.432   7.064   8.632 -1.2872 -1.6120  0.7238
11795SOL     OW39426   9.336   4.959   6.631  0.3203 -0.1984 -0.2268
11795SOL    HW139427   9.342   4.897   6.557  0.9389  0.0758 -0.4165
11795SOL    HW239428   9.262   4.928   6.682  0.9899 -1.4798  0.0163
11796SOL     OW39429   4.463   3.952   3.037  0.3304 -0.0107 -0.3112
11796SOL    HW139430   4.549   3.963   3.078 -1.0087  2.6495  2.1702
11796SOL    HW239431   4.423   3.878   3.083  0.7828 -0.3916 -0.5267
11797SOL     OW39432   1.722   8.785   4.720  0.1084 -0.0502  0.1118
11797SOL    HW139433   1.779   8.745   4.653  1.3314 -0.3118  1.2681
11797SOL    HW239434   1.684   8.710   4.766  1.3055  0.0665  1.3638
11798SOL     OW39435   2.468   7.985   4.095  0.6215  0.2670  0.0643
11798SOL    HW139436   2.373   7.976   4.087  0.6094 -0.5916  0.9965
11798SOL    HW239437   2.492   8.046   4.025 -0.9391  2.6206  1.4296
11799SOL     OW39438   3.264   8.940   1.829  0.3753  0.5049 -0.2750
11799SOL    HW139439   3.258   9.030   1.860  1.5161  0.9386 -1.2573
11799SOL    HW239440   3.187   8.930   1.771 -0.6339  0.3182  1.0553
11800SOL     OW39441   8.240   1.723   6.555 -0.4746 -0.2011 -0.3932
11800SOL    HW139442   8.303   1.761   6.617 -0.4126 -1.1593  0.1458
11800SOL    HW239443   8.238   1.786   6.483  0.5467  0.2172 -0.0866
11801SOL     OW39444   1.347   4.037   7.564 -0.6654  0.1913  0.0810
11801SOL    HW139445   1.369   4.114   7.617 -0.1425 -0.5294  0.9528
11801SOL    HW239446   1.264   4.006   7.600  0.0596 -0.7364  1.0239
11802SOL     OW39447   7.939   6.498   7.921 -1.0445  0.1591  0.5607
11802SOL    HW139448   7.951   6.450   7.839 -0.6537  0.3820  0.4830
11802SOL    HW239449   8.025   6.494   7.964 -1.4264 -0.5505  1.2914
11803SOL     OW39450   4.100   6.712  10.013 -0.7940 -0.7974  0.0865
11803SOL    HW139451   4.153   6.782   9.974 -0.3631 -0.7894  0.6718
11803SOL    HW239452   4.158   6.637  10.017 -1.3018 -1.2418 -0.6726
11804SOL     OW39453   4.386   3.254   2.668  0.1318  0.0538 -0.1473
11804SOL    HW139454   4.410   3.315   2.599 -0.1922 -0.4201 -0.6850
11804SOL    HW239455   4.391   3.306   2.749  0.7111  0.5536 -0.4978
11805SOL     OW39456   3.699   5.466   1.627 -0.2690 -0.0477 -0.2815
11805SOL    HW139457   3.789   5.435   1.628 -0.0864  0.4758 -0.0547
11805SOL    HW239458   3.658   5.424   1.703 -0.2775 -0.4483 -0.5041
11806SOL     OW39459   4.037   4.359   4.203  0.2912 -0.1940  0.0766
11806SOL    HW139460   4.089   4.428   4.162  1.8542 -0.7900  0.9380
11806SOL    HW239461   4.043   4.286   4.142  0.9688 -0.4412  0.4228
11807SOL     OW39462   5.677   2.419   0.608 -0.1454  0.0523  0.3131
11807SOL    HW139463   5.604   2.370   0.645 -0.0839 -0.2921 -0.0154
11807SOL    HW239464   5.726   2.451   0.684 -0.4023 -0.0706  0.5304
11808SOL     OW39465   1.867   2.813   8.186  0.1309 -0.0184 -0.2858
11808SOL    HW139466   1.880   2.758   8.264  0.4197  0.4422 -0.0052
11808SOL    HW239467   1.780   2.789   8.155 -1.8371  2.6110  2.5271
11809SOL     OW39468   1.978   3.523   3.655  0.1984 -0.4001 -0.4323
11809SOL    HW139469   2.027   3.466   3.595 -0.1782 -0.3390 -0.8071
11809SOL    HW239470   1.949   3.464   3.725  0.3839 -0.5330 -0.4652
11810SOL     OW39471   0.712   9.672   4.427 -0.3527  0.4248 -0.5611
11810SOL    HW139472   0.650   9.744   4.418 -0.8505 -0.1130 -1.6505
11810SOL    HW239473   0.704   9.623   4.345  1.6116  0.4202 -0.8021
11811SOL     OW39474   9.771   9.270   5.106  0.0233 -0.6668 -0.3396
11811SOL    HW139475   9.718   9.315   5.172  0.2454 -0.1192 -0.5233
11811SOL    HW239476   9.717   9.273   5.027  0.8142  1.0180 -0.8640
11812SOL     OW39477   7.585   3.096   4.634  0.3523 -0.0590  0.3158
11812SOL    HW139478   7.582   3.139   4.548 -1.4317  1.1468  0.9141
11812SOL    HW239479   7.671   3.119   4.669  0.8013  0.0720 -0.8247
11813SOL     OW39480   2.227   1.473   2.966  0.4840 -0.1197  0.1248
11813SOL    HW139481   2.220   1.488   3.061  2.2849  1.3354  0.0670
11813SOL    HW239482   2.136   1.474   2.935 -0.0661  0.5080  1.6640
11814SOL     OW39483   7.944   4.176   7.996 -0.6662  0.2731  0.2772
11814SOL    HW139484   7.964   4.265   7.965  2.8700 -1.0610 -1.8586
11814SOL    HW239485   7.901   4.134   7.922 -0.5450 -0.3463  0.5506
11815SOL     OW39486   3.089   4.830   5.884  0.0326 -0.2209  0.0588
11815SOL    HW139487   3.160   4.892   5.865  1.0334 -0.9326  1.3785
11815SOL    HW239488   3.056   4.856   5.970 -0.0960 -1.0165  0.2560
11816SOL     OW39489   7.143  10.191   4.347 -0.2452 -0.1547 -0.1973
11816SOL    HW139490   7.230  10.208   4.383 -0.1750  0.6229 -0.6994
11816SOL    HW239491   7.096  10.274   4.359 -1.2537 -0.8742  0.9944
11817SOL     OW39492   9.930   6.842   8.309  0.8193 -0.0656 -0.0233
11817SOL    HW139493   9.905   6.752   8.286  1.8536 -0.0573 -1.3169
11817SOL    HW239494   9.853   6.895   8.289  0.7733 -0.4517 -0.8985
11818SOL     OW39495   2.957   8.974   2.579  0.5362 -0.4921 -0.1579
11818SOL    HW139496   2.954   8.924   2.660  0.3838 -0.5412 -0.1931
11818SOL    HW239497   2.877   8.950   2.532  0.4727 -0.2346 -0.1864
11819SOL     OW39498   9.208   6.818   3.869  0.3236 -0.4444 -0.7766
11819SOL    HW139499   9.231   6.791   3.780 -1.0621  1.6409 -1.8672
11819SOL    HW239500   9.115   6.799   3.877  0.2970 -0.0443 -0.0156
11820SOL     OW39501   3.770   1.267  10.086  0.3756 -0.2837 -1.0113
11820SOL    HW139502   3.700   1.264  10.021  0.7532 -2.2648 -1.4023
11820SOL    HW239503   3.774   1.178  10.122  1.6404  0.1924  0.1320
11821SOL     OW39504   1.743   4.532   3.948 -0.3306 -0.2315 -0.1837
11821SOL    HW139505   1.828   4.514   3.989 -1.2991 -1.2683  1.4809
11821SOL    HW239506   1.745   4.626   3.931 -0.1310  0.4892  3.0540
11822SOL     OW39507   8.860   9.605   4.242 -0.0683 -0.1711 -0.0077
11822SOL    HW139508   8.781   9.645   4.280 -0.0896 -0.9547  0.8180
11822SOL    HW239509   8.901   9.559   4.316  0.7214 -0.4565 -0.6142
11823SOL     OW39510   7.938   8.113   7.309  0.0765  0.8498  0.3003
11823SOL    HW139511   7.962   8.022   7.292  4.2759  1.2888  2.6486
11823SOL    HW239512   7.909   8.147   7.224 -1.3403 -2.4897 -0.7007
11824SOL     OW39513   5.120   3.057   6.600  0.2551  0.0797  0.2805
11824SOL    HW139514   5.197   3.099   6.561  0.7827 -0.5995  0.5834
11824SOL    HW239515   5.138   2.964   6.597 -0.4984 -0.0826  0.4889
11825SOL     OW39516   8.158   0.625   7.786 -0.6404  0.1779  0.0994
11825SOL    HW139517   8.095   0.587   7.847  1.1348 -2.2924  0.5582
11825SOL    HW239518   8.115   0.619   7.700 -1.8611  0.6127  0.6559
11826SOL     OW39519   8.167   7.907   2.036 -0.1014 -0.1093  0.6787
11826SOL    HW139520   8.232   7.955   2.088 -0.0454  0.3241  0.2080
11826SOL    HW239521   8.207   7.821   2.023  0.4285  0.1895  0.3027
11827SOL     OW39522   0.951   9.133  10.266 -0.3079  0.5346 -0.0588
11827SOL    HW139523   0.899   9.115  10.345 -0.2204 -0.1958 -0.1670
11827SOL    HW239524   1.036   9.093  10.283 -0.5852 -0.4538 -0.8966
11828SOL     OW39525   5.189   5.128   7.239 -0.3500  0.0718  0.5938
11828SOL    HW139526   5.284   5.119   7.237 -0.3703 -0.3098  1.3170
11828SOL    HW239527   5.157   5.054   7.185 -0.2772 -0.5375  1.3708
11829SOL     OW39528   7.621   1.853   2.036  0.1544 -0.0077  0.6571
11829SOL    HW139529   7.531   1.825   2.021  0.1393  0.3946 -0.0480
11829SOL    HW239530   7.672   1.772   2.031 -0.2746 -0.4070  2.1875
11830SOL     OW39531  10.004   1.739   3.445  0.3978 -0.3539 -0.6172
11830SOL    HW139532  10.092   1.758   3.412  0.7470  0.5286  0.7610
11830SOL    HW239533   9.970   1.823   3.473 -0.1123 -0.9646  0.6749
11831SOL     OW39534   7.862   0.060   1.978  0.4379  0.1009 -0.1315
11831SOL    HW139535   7.858   0.135   2.038  1.3860  0.1406 -0.1116
11831SOL    HW239536   7.875  -0.015   2.036 -3.2303 -0.5212  0.1444
11832SOL     OW39537   2.032   2.731   7.303  0.2617 -0.0653 -0.1896
11832SOL    HW139538   1.946   2.769   7.283  0.8502  1.8591  0.7034
11832SOL    HW239539   2.026   2.706   7.396  0.7350  0.2680 -0.0681
11833SOL     OW39540   4.532   1.129   4.282 -0.1853 -0.8169 -0.0124
11833SOL    HW139541   4.580   1.161   4.358  0.5234 -1.4056 -0.1947
11833SOL    HW239542   4.589   1.150   4.208 -0.2303 -1.4843 -0.2400
11834SOL     OW39543   0.878   9.805   6.220 -0.1015 -0.1096 -0.6592
11834SOL    HW139544   0.851   9.844   6.303 -1.3612  1.1275 -1.6145
11834SOL    HW239545   0.964   9.845   6.202  0.8109 -1.3892  0.6583
11835SOL     OW39546   1.888   7.451   0.590 -0.0967 -0.1083 -0.3171
11835SOL    HW139547   1.843   7.513   0.647  0.6195 -0.6330  0.8660
11835SOL    HW239548   1.946   7.506   0.537  0.4974  0.2740  0.6862
11836SOL     OW39549   7.822   0.502   6.154  0.1219  0.0679 -0.4232
11836SOL    HW139550   7.774   0.426   6.188  2.6552 -1.8519 -0.8183
11836SOL    HW239551   7.850   0.549   6.233 -2.2550  1.2369 -0.1871
11837SOL     OW39552   8.019   0.646   8.208 -0.0653 -0.1874  0.0941
11837SOL    HW139553   8.035   0.587   8.281  2.7742  0.9067  0.5089
11837SOL    HW239554   8.033   0.734   8.244 -0.2746  0.4892 -1.3694
11838SOL     OW39555   0.933   8.618   8.486  0.3073 -0.2907 -0.1708
11838SOL    HW139556   1.014   8.630   8.535  1.4309 -0.4075 -1.9016
11838SOL    HW239557   0.899   8.534   8.516  1.8987 -1.2001 -0.8092
11839SOL     OW39558   3.847   7.251   2.325  0.1189 -0.2422 -0.7127
11839SOL    HW139559   3.800   7.170   2.307 -2.0905  0.9707 -0.7033
11839SOL    HW239560   3.858   7.292   2.239 -0.7411  0.4561 -0.5026
11840SOL     OW39561   1.292   7.431   5.097  0.1305 -0.5896  0.1011
11840SOL    HW139562   1.367   7.434   5.037  0.8172  0.4919  0.9532
11840SOL    HW239563   1.229   7.492   5.058 -0.0628 -1.0466 -0.3078
11841SOL     OW39564   2.560   9.923   6.987  0.1569 -0.0642 -0.3743
11841SOL    HW139565   2.653   9.902   6.991  0.0777 -0.9062 -1.8718
11841SOL    HW239566   2.552  10.008   7.031  1.9292  0.8876 -1.7283
11842SOL     OW39567   1.100   6.744   8.886  0.5264 -0.0059 -0.0019
11842SOL    HW139568   1.196   6.752   8.885  0.5771 -0.3451  0.8175
11842SOL    HW239569   1.072   6.807   8.952  0.5018 -2.4267  2.4693
11843SOL     OW39570   5.138   9.242   9.642 -0.7111 -0.1191  1.1572
11843SOL    HW139571   5.121   9.301   9.569  0.6108  1.1362  1.8079
11843SOL    HW239572   5.097   9.160   9.617  0.3640  0.0170 -1.3526
11844SOL     OW39573   0.802   5.152   0.350  0.1049 -0.2441  0.3019
11844SOL    HW139574   0.864   5.204   0.401 -0.6797  0.5201  0.5055
11844SOL    HW239575   0.830   5.165   0.259 -0.6840  1.3925  0.2636
11845SOL     OW39576   1.304   7.890   1.244 -0.0462  0.9827 -0.1860
11845SOL    HW139577   1.286   7.917   1.154 -1.1978 -1.6100 -0.8179
11845SOL    HW239578   1.397   7.907   1.257  0.5124 -0.0553 -2.4385
11846SOL     OW39579   4.844   8.188   6.387  0.4174 -0.7100 -0.5198
11846SOL    HW139580   4.870   8.247   6.457 -0.1626 -0.3048 -0.6411
11846SOL    HW239581   4.781   8.128   6.428  0.1933 -0.5685 -0.6534
11847SOL     OW39582  10.116   2.888   6.941 -0.5473 -0.2657  0.4393
11847SOL    HW139583  10.036   2.842   6.915 -0.1594 -0.0431 -1.2803
11847SOL    HW239584  10.187   2.835   6.904  0.2455 -1.2691  3.1919
11848SOL     OW39585   9.065   2.812   9.623 -0.0171 -0.1607 -0.1830
11848SOL    HW139586   9.098   2.730   9.585 -0.4763 -0.3137 -0.2597
11848SOL    HW239587   9.143   2.859   9.650  0.2274 -0.9486  0.5238
11849SOL     OW39588   6.952   3.170   4.617 -0.3260 -0.1235 -0.1506
11849SOL    HW139589   6.906   3.161   4.701  0.7574 -0.1052  0.4604
11849SOL    HW239590   6.929   3.091   4.568 -2.1090  0.5218 -0.4273
11850SOL     OW39591   6.413   1.507   1.075 -0.3210 -0.4787 -0.2145
11850SOL    HW139592   6.492   1.486   1.026 -1.3846 -1.0826 -1.7709
11850SOL    HW239593   6.390   1.426   1.120  0.8217  0.1560  1.6425
11851SOL     OW39594  10.167   3.376   7.102  0.4653  0.2726  0.6347
11851SOL    HW139595  10.201   3.362   7.014 -1.0586  1.9274 -0.2847
11851SOL    HW239596  10.095   3.314   7.111 -2.0333  2.7120 -0.9417
11852SOL     OW39597   7.124   6.727   3.578 -0.0436 -0.3498 -0.4722
11852SOL    HW139598   7.039   6.688   3.595 -0.4108  0.5870 -0.0313
11852SOL    HW239599   7.161   6.743   3.666  0.9704 -1.5288 -0.6579
11853SOL     OW39600   3.760   6.797   2.309 -0.0107  0.3123 -0.4784
11853SOL    HW139601   3.780   6.886   2.278 -0.2281  2.0011  3.6509
11853SOL    HW239602   3.845   6.754   2.315  0.7279  1.9017  1.7170
11854SOL     OW39603   5.894  10.180   5.733 -0.2533 -0.9660 -0.2643
11854SOL    HW139604   5.875  10.235   5.657  2.2105 -1.5228 -1.3786
11854SOL    HW239605   5.808  10.164   5.773 -1.4681  0.4564 -2.1274
11855SOL     OW39606   7.340   3.329   9.897  0.3627 -0.5932 -0.1658
11855SOL    HW139607   7.435   3.327   9.884  0.6923  1.6935  1.2653
11855SOL    HW239608   7.307   3.386   9.828  0.6051  1.8665  1.6490
11856SOL     OW39609   8.346   5.832   3.566 -0.4374 -0.2604 -0.2367
11856SOL    HW139610   8.393   5.852   3.484  1.8785 -3.0903  0.2350
11856SOL    HW239611   8.262   5.797   3.537 -1.2049  2.1144 -1.1971
11857SOL     OW39612   0.667   5.278   0.594 -0.1921 -0.4539 -0.1282
11857SOL    HW139613   0.676   5.198   0.542  0.7660 -1.2129  1.1442
11857SOL    HW239614   0.757   5.300   0.619 -0.6227 -0.0639  1.1281
11858SOL     OW39615   5.577   7.669   6.571  0.8106 -0.0815 -0.3868
11858SOL    HW139616   5.644   7.730   6.601  1.3092 -0.8463  0.1109
11858SOL    HW239617   5.580   7.674   6.476  0.8799  0.6203 -0.3534
11859SOL     OW39618   3.544   8.517   8.915 -0.1233  0.3682 -0.1513
11859SOL    HW139619   3.563   8.485   9.004 -0.8322  1.8210  0.5638
11859SOL    HW239620   3.452   8.543   8.919  0.0511  1.1653 -1.0965
11860SOL     OW39621   9.924   8.488   8.113 -0.4719 -0.2857 -0.4873
11860SOL    HW139622   9.847   8.532   8.150 -0.5092 -1.8221  1.3545
11860SOL    HW239623   9.996   8.549   8.131 -1.0545  0.6825 -1.2850
11861SOL     OW39624   8.447   5.280   4.529 -0.2127 -0.2184 -0.2092
11861SOL    HW139625   8.402   5.252   4.450 -1.8481 -1.0645  0.9553
11861SOL    HW239626   8.424   5.214   4.595  1.0120  0.4992  1.0059
11862SOL     OW39627   0.088   6.667   2.750  0.7242 -0.1198  0.7118
11862SOL    HW139628   0.030   6.626   2.814 -0.9710  1.0481  0.0125
11862SOL    HW239629   0.128   6.740   2.797 -0.4643  0.6949  0.4931
11863SOL     OW39630  10.283   9.310   3.030 -0.4733 -0.0191 -0.2979
11863SOL    HW139631  10.231   9.370   3.083 -2.3024 -1.1055 -0.7602
11863SOL    HW239632  10.228   9.231   3.023  0.5566 -0.6237 -2.1655
11864SOL     OW39633   5.331  10.286   9.676  0.0758 -0.0829  0.3187
11864SOL    HW139634   5.324  10.381   9.677 -3.3979 -0.1487 -1.2005
11864SOL    HW239635   5.370  10.263   9.760  0.7738  2.6337  0.8280
11865SOL     OW39636   1.064   1.852   3.879 -0.4300  0.7465  0.2550
11865SOL    HW139637   1.105   1.784   3.826  0.7458  1.2531  0.4909
11865SOL    HW239638   0.995   1.888   3.823 -0.1197  0.3356 -0.4016
11866SOL     OW39639   8.985   7.566   3.835 -0.5960  0.2204  0.2871
11866SOL    HW139640   8.954   7.648   3.873 -1.0141  0.4110 -0.4460
11866SOL    HW239641   8.909   7.507   3.839 -0.9346  0.5390 -1.0807
11867SOL     OW39642   1.603   3.500   3.290  0.1117  0.4417 -0.1277
11867SOL    HW139643   1.581   3.433   3.225 -0.7317 -0.6706  1.2544
11867SOL    HW239644   1.682   3.467   3.333  0.9456  1.4032 -0.8443
11868SOL     OW39645   8.647   1.987   1.003 -0.1544  0.3196  0.3338
11868SOL    HW139646   8.681   1.911   1.049 -1.6197  0.2291  1.3566
11868SOL    HW239647   8.621   1.954   0.917  3.4141  0.6656 -1.0570
11869SOL     OW39648   0.065   7.358   3.852  0.2089 -0.0124  0.1428
11869SOL    HW139649   0.088   7.384   3.763  2.2971 -0.3074  0.5553
11869SOL    HW239650   0.072   7.262   3.852 -0.2597 -0.0549  0.5133
11870SOL     OW39651   9.699   2.194   3.026  0.3082  0.0646  0.1518
11870SOL    HW139652   9.732   2.111   3.059 -0.9825 -0.2129  0.8248
11870SOL    HW239653   9.677   2.244   3.105 -0.5122  0.3676 -0.2614
11871SOL     OW39654   9.987   9.034   3.863  0.0135 -0.5719 -0.6052
11871SOL    HW139655   9.983   9.105   3.928  1.1043 -0.3980 -0.7080
11871SOL    HW239656   9.990   8.954   3.914 -0.2629 -0.4991 -0.4717
11872SOL     OW39657   0.562   6.811   5.496 -0.6197 -0.3289  0.1800
11872SOL    HW139658   0.477   6.822   5.540 -1.0009  1.2772 -0.8749
11872SOL    HW239659   0.539   6.792   5.405  0.0529  2.6303 -0.7131
11873SOL     OW39660   5.900   6.029   6.228 -0.1849  0.4509  0.4383
11873SOL    HW139661   5.863   5.982   6.302 -0.0456  0.1968  0.3508
11873SOL    HW239662   5.844   6.005   6.154  0.7171 -0.7208  0.1048
11874SOL     OW39663   6.562   2.256   4.168 -0.0713  0.0157 -0.2202
11874SOL    HW139664   6.489   2.280   4.225 -1.1092  0.9930 -1.8684
11874SOL    HW239665   6.623   2.330   4.173 -0.6786  0.6000 -1.1572
11875SOL     OW39666   7.072   7.045   7.669 -0.1122 -0.0584 -0.3073
11875SOL    HW139667   6.981   7.015   7.663  0.0754 -0.6901  0.0014
11875SOL    HW239668   7.065   7.135   7.700 -0.6432 -0.0151 -0.5346
11876SOL     OW39669   0.471   4.025   0.380  0.7064  0.2869 -0.5901
11876SOL    HW139670   0.561   4.001   0.400  0.5823 -0.5406 -0.9990
11876SOL    HW239671   0.420   3.991   0.454  0.5430 -0.6672 -1.1235
11877SOL     OW39672   1.287   5.141   8.578  0.4097  0.5908 -0.6720
11877SOL    HW139673   1.198   5.151   8.545  0.1196  0.0254 -0.0646
11877SOL    HW239674   1.277   5.115   8.669  1.1920 -0.0346 -0.7522
11878SOL     OW39675   0.577  10.079   9.416  0.3976 -0.0840  0.1525
11878SOL    HW139676   0.619  10.158   9.381  1.9921 -0.7426  0.4860
11878SOL    HW239677   0.600  10.010   9.355 -2.4784 -0.0463 -1.1210
11879SOL     OW39678   4.235   9.715   2.745 -0.5227  0.1030  0.5934
11879SOL    HW139679   4.174   9.680   2.810 -0.3687 -1.6869 -0.1901
11879SOL    HW239680   4.236   9.651   2.674  0.9963  0.9103 -0.1842
11880SOL     OW39681   7.829   0.477   3.232  0.7025 -0.0731 -0.3370
11880SOL    HW139682   7.840   0.564   3.271 -1.3648  0.2790 -0.4451
11880SOL    HW239683   7.735   0.461   3.235  0.8728 -1.6206 -1.8174
11881SOL     OW39684   5.626   5.711   9.961 -0.0204 -0.2068  0.0602
11881SOL    HW139685   5.566   5.784   9.949  0.0739  0.0026  0.7893
11881SOL    HW239686   5.612   5.682  10.051  0.7645 -0.3350  0.1556
11882SOL     OW39687   2.008   7.708   8.407  0.2753  0.0013 -0.6681
11882SOL    HW139688   2.039   7.660   8.483  0.3586  0.7664 -0.2088
11882SOL    HW239689   2.076   7.696   8.341  0.2524 -0.5750 -0.5930
11883SOL     OW39690   7.629   2.759   8.299  0.3008 -0.5777 -0.0239
11883SOL    HW139691   7.677   2.712   8.367  1.5003 -1.0929 -1.1813
11883SOL    HW239692   7.679   2.743   8.219 -1.0593  0.0176 -1.0341
11884SOL     OW39693   6.115   8.648   4.912  0.0286 -0.0505  0.0436
11884SOL    HW139694   6.179   8.677   4.847 -0.9423  0.3659 -0.7489
11884SOL    HW239695   6.146   8.685   4.994 -0.3255  1.9991 -0.6750
11885SOL     OW39696   1.094   1.076   8.393  0.0509 -0.0822  0.4708
11885SOL    HW139697   1.130   1.157   8.357 -0.2407  0.3520  1.1419
11885SOL    HW239698   1.002   1.095   8.407  0.0903 -0.3536  1.1327
11886SOL     OW39699   8.571   4.317   6.188 -0.3269 -0.3543  0.2021
11886SOL    HW139700   8.609   4.254   6.126  0.2837  1.7012 -1.6414
11886SOL    HW239701   8.518   4.263   6.247 -0.4495 -2.5239 -1.7290
11887SOL     OW39702   9.608   3.333   1.884  0.5784  0.1401 -0.3772
11887SOL    HW139703   9.564   3.363   1.964 -0.6993 -2.4599 -0.0156
11887SOL    HW239704   9.701   3.339   1.904  0.3822  2.4189  0.1405
11888SOL     OW39705   9.479   1.440   7.797  0.3423 -0.4527 -0.0122
11888SOL    HW139706   9.574   1.429   7.793  0.4202 -0.7761  1.8818
11888SOL    HW239707   9.444   1.351   7.795  0.1446 -0.3861  0.4794
11889SOL     OW39708   7.279   4.783   7.851 -0.1312 -0.4208 -0.0752
11889SOL    HW139709   7.331   4.733   7.913  0.5004 -0.3351 -0.5250
11889SOL    HW239710   7.188   4.759   7.870 -0.0242  0.2450  1.4511
11890SOL     OW39711   9.833   5.105   7.395  0.1788  0.0547 -0.1137
11890SOL    HW139712   9.913   5.068   7.433 -0.2123  1.1729  2.0117
11890SOL    HW239713   9.854   5.197   7.379  0.6052 -0.5340 -3.6883
11891SOL     OW39714   8.808   4.562   7.722 -0.3684 -0.0648  0.3871
11891SOL    HW139715   8.886   4.510   7.701 -0.0162 -0.4431  2.4418
11891SOL    HW239716   8.833   4.652   7.700  0.5471 -0.2303  0.7030
11892SOL     OW39717   7.043   4.517   2.522 -0.0097  0.0096  0.0588
11892SOL    HW139718   7.039   4.500   2.428 -0.0441  2.0496 -0.3651
11892SOL    HW239719   7.126   4.479   2.550  0.1876 -0.2695 -0.8756
11893SOL     OW39720   6.190   6.583   0.582 -0.2367 -0.4333  0.7090
11893SOL    HW139721   6.159   6.667   0.549 -3.8090 -1.6125  0.6581
11893SOL    HW239722   6.204   6.597   0.675  0.1751  0.4474  0.5232
11894SOL     OW39723   8.519   7.638   4.725 -0.2626 -0.5296 -0.0600
11894SOL    HW139724   8.433   7.619   4.686  0.1960 -1.0462 -0.8350
11894SOL    HW239725   8.554   7.553   4.749 -0.2009 -0.2736  0.7789
11895SOL     OW39726   5.927   3.794   1.505  0.1083  0.2972  0.2800
11895SOL    HW139727   5.859   3.842   1.457  1.8890  0.0148 -2.7970
11895SOL    HW239728   5.981   3.862   1.544 -1.1470  0.5377  1.7233
11896SOL     OW39729   6.834   8.445   9.301 -0.2357  0.1581  0.9708
11896SOL    HW139730   6.787   8.470   9.221  0.8298 -2.0583 -0.4714
11896SOL    HW239731   6.797   8.360   9.324  0.2907  0.2350  2.1488
11897SOL     OW39732   1.245   1.567   6.103  0.3485 -0.4149 -0.4385
11897SOL    HW139733   1.326   1.516   6.101  0.4142 -0.5347  2.2690
11897SOL    HW239734   1.186   1.520   6.044  1.7289 -1.2225 -1.2331
11898SOL     OW39735   9.923   6.470   5.874 -0.0399  0.5641 -0.7457
11898SOL    HW139736   9.923   6.376   5.860 -0.0152 -0.1016  2.7964
11898SOL    HW239737  10.003   6.501   5.832  0.7051 -1.2365 -0.7459
11899SOL     OW39738   0.951   5.655   6.793 -0.6619 -0.6339  0.7422
11899SOL    HW139739   0.895   5.640   6.717  0.6348 -2.4042  0.0451
11899SOL    HW239740   1.002   5.733   6.771 -1.8460  0.1653  0.7860
11900SOL     OW39741   7.466   1.640   0.825  0.0516 -0.1450  0.3756
11900SOL    HW139742   7.559   1.659   0.835  0.1236 -0.2516 -0.0824
11900SOL    HW239743   7.434   1.707   0.765 -0.2562  0.1414  0.8563
11901SOL     OW39744   2.509   0.093   9.084 -0.2325 -0.1606  0.3691
11901SOL    HW139745   2.441   0.122   9.023  0.1679 -0.6811 -0.3507
11901SOL    HW239746   2.461   0.044   9.151 -0.6122 -0.2318  0.0538
11902SOL     OW39747   7.494   1.235   1.839 -0.0465 -0.1455 -0.3157
11902SOL    HW139748   7.443   1.255   1.917  0.0873  0.2516 -0.3275
11902SOL    HW239749   7.454   1.156   1.804  0.3221 -0.7181  0.5268
11903SOL     OW39750   8.110   5.840   6.311  0.6326 -0.3559 -0.1558
11903SOL    HW139751   8.036   5.887   6.349  1.2555 -0.0538  0.7451
11903SOL    HW239752   8.175   5.838   6.382  1.5645 -0.4262 -0.9900
11904SOL     OW39753   2.882   0.867   6.831  0.7025 -0.4430 -0.3646
11904SOL    HW139754   2.922   0.953   6.846 -0.5930  0.1592 -0.1798
11904SOL    HW239755   2.809   0.864   6.894 -1.4519 -0.1842 -2.6689
11905SOL     OW39756   1.064   7.022   1.571 -0.3190  0.0168 -0.1187
11905SOL    HW139757   1.048   7.013   1.664  3.7896 -1.9037  0.6578
11905SOL    HW239758   1.026   6.944   1.532  0.9007 -0.9589  0.5673
11906SOL     OW39759   3.263   6.734   1.696  0.3068  0.1984  0.1973
11906SOL    HW139760   3.187   6.740   1.637 -0.4245  0.7026  1.1610
11906SOL    HW239761   3.267   6.819   1.739  0.7479 -0.1990  0.9708
11907SOL     OW39762   1.561   9.741   3.834 -0.8286 -0.4569 -0.3125
11907SOL    HW139763   1.608   9.658   3.824 -0.7258 -0.5255  0.6446
11907SOL    HW239764   1.612   9.804   3.782  1.0733 -0.2555  1.6514
11908SOL     OW39765   0.580   8.177   5.837  0.7200 -0.4808 -0.5074
11908SOL    HW139766   0.673   8.165   5.820  0.6300 -2.6680  0.1667
11908SOL    HW239767   0.544   8.088   5.835 -0.9917  0.1006  1.2002
11909SOL     OW39768   8.142   0.210   0.836  0.5202 -0.0900 -0.3132
11909SOL    HW139769   8.181   0.140   0.889  1.0440 -0.4299 -1.1306
11909SOL    HW239770   8.144   0.176   0.747 -1.3840  0.0096 -0.4359
11910SOL     OW39771   4.007   6.040   4.071  0.4599 -0.1551 -0.5689
11910SOL    HW139772   4.098   6.050   4.043  0.1416 -0.4490 -1.8053
11910SOL    HW239773   4.001   6.089   4.153  1.2829  1.4959 -1.4443
11911SOL     OW39774   1.907   7.823   5.415  0.3353 -0.0165  0.0794
11911SOL    HW139775   1.854   7.903   5.412 -0.8574 -0.8019 -0.3570
11911SOL    HW239776   1.863   7.768   5.480  0.4708 -0.7888 -0.4810
11912SOL     OW39777   6.465   8.376   3.935 -0.3580  0.1480  0.1698
11912SOL    HW139778   6.454   8.472   3.934 -0.5871  0.1307 -0.9760
11912SOL    HW239779   6.451   8.350   3.843  1.6115 -0.7738  0.0872
11913SOL     OW39780   2.929   6.112   1.907 -0.4187  0.1133 -0.5379
11913SOL    HW139781   2.952   6.030   1.863  0.6346  0.0357  0.1474
11913SOL    HW239782   2.835   6.122   1.890 -0.4628 -0.9898 -1.0230
11914SOL     OW39783   7.916   5.935   8.970  0.1061  0.4741 -0.2649
11914SOL    HW139784   7.833   5.914   9.013 -0.0016  0.0103 -0.6912
11914SOL    HW239785   7.962   5.852   8.965 -0.3207  0.3036 -1.9637
11915SOL     OW39786   9.856   1.379   5.881  0.0906  0.2328  0.5372
11915SOL    HW139787   9.893   1.459   5.843  0.0393  0.3629  0.7555
11915SOL    HW239788   9.786   1.411   5.939  1.0935  0.1345  1.8384
11916SOL     OW39789   8.546   8.310   6.630 -0.1314  0.4931  0.4748
11916SOL    HW139790   8.469   8.365   6.640  1.1198  2.5662 -0.4580
11916SOL    HW239791   8.620   8.371   6.641  1.3916 -1.4430  1.5903
11917SOL     OW39792   9.463   6.426   7.429  0.1307 -0.7474 -0.3476
11917SOL    HW139793   9.376   6.432   7.468 -0.7746  0.7693 -2.3706
11917SOL    HW239794   9.515   6.377   7.492 -1.3183  1.0363  2.4231
11918SOL     OW39795   4.286   1.700   1.259  0.3402  1.1331  0.3304
11918SOL    HW139796   4.197   1.734   1.257  0.0175  0.5244  2.3399
11918SOL    HW239797   4.333   1.759   1.318  1.1126  1.0838 -0.2219
11919SOL     OW39798   9.968   7.406   6.147 -0.1409  0.0554 -0.0752
11919SOL    HW139799   9.959   7.343   6.218 -0.0197  0.7510  0.5702
11919SOL    HW239800   9.881   7.446   6.140  0.1039  0.6640  0.3306
11920SOL     OW39801   6.598   0.628   9.521  0.2397  0.1963 -0.2581
11920SOL    HW139802   6.531   0.687   9.554 -0.9398 -1.5356  0.5863
11920SOL    HW239803   6.645   0.599   9.599  1.0096  0.2600 -0.6924
11921SOL     OW39804   8.312   4.076   0.808  0.2544 -0.3419 -0.4145
11921SOL    HW139805   8.233   4.038   0.771  0.2245  0.7424 -1.5202
11921SOL    HW239806   8.295   4.170   0.811  0.1547 -0.3557  2.6552
11922SOL     OW39807   9.391   6.088   6.125 -0.2879 -0.7288 -0.3822
11922SOL    HW139808   9.396   5.995   6.101 -0.2698 -0.4442 -1.5684
11922SOL    HW239809   9.410   6.134   6.043 -1.3598  0.3261 -0.0525
11923SOL     OW39810   2.549   1.976   0.548 -0.3986 -0.2632 -0.3907
11923SOL    HW139811   2.494   1.943   0.619 -0.0640  0.6375  0.3129
11923SOL    HW239812   2.488   2.020   0.488 -0.3666  1.9652  1.0919
11924SOL     OW39813   0.461   0.437   2.768  0.6452 -0.1994 -0.0917
11924SOL    HW139814   0.506   0.521   2.760 -0.8319  0.5119 -2.0291
11924SOL    HW239815   0.468   0.413   2.860  1.7213  1.6948  0.3553
11925SOL     OW39816   5.680   8.422   5.230 -0.2972 -0.3660 -0.7432
11925SOL    HW139817   5.720   8.470   5.303  1.9413 -0.7961 -1.5953
11925SOL    HW239818   5.615   8.482   5.195 -0.4522  0.3856  0.7423
11926SOL     OW39819   1.534   4.938   5.361  0.2023 -0.1091  0.2609
11926SOL    HW139820   1.476   4.901   5.427 -0.3632  0.6501  0.1905
11926SOL    HW239821   1.478   4.955   5.286  0.3020  1.5580  0.5392
11927SOL     OW39822   2.377   8.703   3.383  0.6621 -0.4863  0.2062
11927SOL    HW139823   2.292   8.660   3.386 -0.8775  1.9714 -2.7884
11927SOL    HW239824   2.416   8.677   3.299  1.4076  0.8615  0.0932
11928SOL     OW39825   0.179   0.089   1.134  0.0537  0.1384  0.3715
11928SOL    HW139826   0.114   0.032   1.093  0.2120  1.8980 -2.6636
11928SOL    HW239827   0.186   0.164   1.074  2.7593  1.4132  2.0806
11929SOL     OW39828   7.953   4.314   6.384 -0.7642 -0.0194  0.3282
11929SOL    HW139829   7.903   4.289   6.306 -0.6286  0.5278  0.0561
11929SOL    HW239830   7.963   4.233   6.434 -1.3038 -0.2726  0.0335
11930SOL     OW39831   7.112   5.733   8.766 -0.5045  0.4127  0.1134
11930SOL    HW139832   7.069   5.675   8.829 -1.1672  1.3327  0.5224
11930SOL    HW239833   7.167   5.790   8.819 -0.8572  1.0184 -0.1643
11931SOL     OW39834   5.357   5.642   2.389 -0.2648  0.7449 -0.2571
11931SOL    HW139835   5.451   5.629   2.376 -0.3851 -1.1200  0.5326
11931SOL    HW239836   5.346   5.738   2.389  2.1535  1.2096  2.9894
11932SOL     OW39837   1.450   4.705   8.067 -0.0829  0.4635  0.6852
11932SOL    HW139838   1.534   4.710   8.020 -1.0241  0.5017 -1.0874
11932SOL    HW239839   1.394   4.768   8.023 -1.8538 -1.4304  0.0456
11933SOL     OW39840   5.788   3.352   8.831  0.4772 -0.0914 -0.0878
11933SOL    HW139841   5.825   3.305   8.757  1.5480 -1.4091  1.2331
11933SOL    HW239842   5.831   3.438   8.829 -0.6249  0.4750 -1.8249
11934SOL     OW39843   8.775   6.171   3.628  0.1539  0.1357 -0.0151
11934SOL    HW139844   8.722   6.161   3.550 -0.3941  0.9412  0.2440
11934SOL    HW239845   8.733   6.114   3.693 -0.3767  0.7335  0.1752
11935SOL     OW39846   0.723   9.524   2.403 -0.2853  0.3366 -0.5079
11935SOL    HW139847   0.785   9.452   2.413  0.5882  0.5620 -3.2919
11935SOL    HW239848   0.778   9.603   2.407 -1.2061  0.9235  2.3559
11936SOL     OW39849   6.685   8.102  10.118  0.9481 -0.4230 -0.4365
11936SOL    HW139850   6.742   8.040  10.163  1.5665 -0.1210 -0.7889
11936SOL    HW239851   6.740   8.179  10.103 -0.1615  0.7410  1.1361
11937SOL     OW39852   4.120   2.281   4.182  0.1477  0.2159 -0.1800
11937SOL    HW139853   4.141   2.210   4.242 -0.9029 -0.2427 -0.3251
11937SOL    HW239854   4.110   2.358   4.237  0.3300  0.0432  0.0929
11938SOL     OW39855   8.404   7.594  10.110  0.0821  0.5632 -0.1755
11938SOL    HW139856   8.487   7.592  10.063 -0.1635 -1.4538 -0.6348
11938SOL    HW239857   8.399   7.508  10.153 -3.1421 -0.7800 -2.7580
11939SOL     OW39858   4.879   6.201   9.803 -0.0448 -0.4733  0.1656
11939SOL    HW139859   4.852   6.182   9.713 -1.2681  1.5238  0.0370
11939SOL    HW239860   4.920   6.287   9.797  3.1762 -1.8071  1.0016
11940SOL     OW39861   5.498   3.900   5.742 -0.2695 -0.5009 -0.0510
11940SOL    HW139862   5.528   3.827   5.795 -0.2777  0.6962  1.6940
11940SOL    HW239863   5.404   3.888   5.733  0.0081 -1.8324 -1.6617
11941SOL     OW39864   3.280   2.007   8.613 -1.1334  0.0089  0.3919
11941SOL    HW139865   3.236   2.056   8.682 -0.0716  1.5325  0.0330
11941SOL    HW239866   3.272   2.062   8.535 -0.3652 -0.6412 -0.1691
11942SOL     OW39867   4.220   2.459   4.573  0.2526  0.1793  0.1014
11942SOL    HW139868   4.213   2.457   4.668 -0.3330  2.2551  0.1500
11942SOL    HW239869   4.309   2.427   4.555  0.3625 -0.2593  1.3143
11943SOL     OW39870   3.358   6.236   8.365 -0.0865 -0.6237 -0.0223
11943SOL    HW139871   3.433   6.207   8.418 -0.1212  0.1400  0.4722
11943SOL    HW239872   3.293   6.264   8.430 -0.6329 -0.8670 -0.4569
11944SOL     OW39873   3.704   4.734   9.042  0.1222  0.0929 -0.0420
11944SOL    HW139874   3.690   4.775   9.127  0.6585 -0.9867  0.5781
11944SOL    HW239875   3.690   4.641   9.057 -1.6155  0.0359 -1.5466
11945SOL     OW39876   8.837  10.103   3.758  0.1058  0.5803 -0.4708
11945SOL    HW139877   8.907  10.135   3.701  1.5002  0.0188  0.8415
11945SOL    HW239878   8.771  10.068   3.699  1.1665  0.6608 -1.7425
11946SOL     OW39879   7.621   0.138  10.265 -0.1714 -0.7073  0.6908
11946SOL    HW139880   7.692   0.201  10.253  0.0418 -1.3672 -2.2898
11946SOL    HW239881   7.547   0.175  10.217 -0.6728 -1.7747  0.5994
11947SOL     OW39882   1.013   4.500   0.625 -0.0696  0.0871 -0.5409
11947SOL    HW139883   1.104   4.470   0.632 -0.0800  0.4506  1.7217
11947SOL    HW239884   0.961   4.419   0.626  0.1554 -0.0584  0.2230
11948SOL     OW39885   9.748   7.828   4.657  0.1933  0.2676 -0.1495
11948SOL    HW139886   9.766   7.835   4.563  0.2730  0.3951 -0.1246
11948SOL    HW239887   9.673   7.769   4.662  1.0214 -0.8182 -0.2192
11949SOL     OW39888   7.289   1.160   6.777  0.4239 -0.8795  0.0322
11949SOL    HW139889   7.381   1.138   6.765  0.9570  1.6695 -1.0739
11949SOL    HW239890   7.245   1.121   6.701  0.8343 -0.8288 -0.2332
11950SOL     OW39891   9.785   3.040   5.883  0.3202 -0.0401 -0.0056
11950SOL    HW139892   9.778   3.058   5.977  0.0388  0.0236 -0.0399
11950SOL    HW239893   9.701   3.001   5.859 -0.3887  1.7524 -0.6348
11951SOL     OW39894   9.031   5.226   7.929 -0.2070 -0.5400  0.6436
11951SOL    HW139895   9.017   5.238   7.836  0.1338 -1.4801  0.4628
11951SOL    HW239896   9.095   5.294   7.953 -1.1875  0.4799  0.4535
11952SOL     OW39897   9.955   6.315   8.717 -0.2841  0.6461 -0.4611
11952SOL    HW139898  10.001   6.368   8.652  1.4139  1.6897  1.4686
11952SOL    HW239899   9.930   6.378   8.785 -0.6985 -0.6176  0.5861
11953SOL     OW39900   1.044   2.425   0.023  0.1901  0.2722 -0.6804
11953SOL    HW139901   1.128   2.385   0.042  0.7815  1.7525 -0.0253
11953SOL    HW239902   0.980   2.356   0.041  1.0656 -0.0101  1.7164
11954SOL     OW39903   4.793   7.838   0.356  0.2632  0.0340 -0.2990
11954SOL    HW139904   4.883   7.872   0.364  0.9067 -1.3598 -1.1991
11954SOL    HW239905   4.785   7.774   0.426 -0.7127  1.4749  0.9633
11955SOL     OW39906   3.980   5.990   8.274  0.0275  0.6113  0.0153
11955SOL    HW139907   4.075   5.987   8.287  0.4790 -0.3226 -2.7410
11955SOL    HW239908   3.953   5.898   8.277 -0.6244  0.7933 -0.1480
11956SOL     OW39909  10.115   8.334   4.256  0.0351  0.4330 -0.1398
11956SOL    HW139910  10.196   8.381   4.277 -0.1536  0.5065  0.4504
11956SOL    HW239911  10.062   8.342   4.335  0.2650 -1.3582  0.2398
11957SOL     OW39912   7.091   1.618   2.659  0.1662 -0.1401 -0.3928
11957SOL    HW139913   7.084   1.707   2.623  1.0415 -0.2530 -0.8812
11957SOL    HW239914   7.162   1.625   2.724  0.2861 -0.4935 -0.4845
11958SOL     OW39915   1.821   8.881   9.589 -0.0253  0.0235 -0.1475
11958SOL    HW139916   1.747   8.875   9.649  0.3286 -0.0820  0.2839
11958SOL    HW239917   1.874   8.953   9.624 -1.0978  1.7054 -1.7743
11959SOL     OW39918   0.376   6.905   9.168 -0.1393 -0.3137 -0.0167
11959SOL    HW139919   0.285   6.931   9.160 -0.0698 -0.1065 -0.1280
11959SOL    HW239920   0.396   6.858   9.087 -0.2698 -0.7356  0.1912
11960SOL     OW39921   3.052   4.442   7.998  0.8042  0.7677 -0.3510
11960SOL    HW139922   2.963   4.462   7.970 -0.6590  0.0398  3.2189
11960SOL    HW239923   3.065   4.350   7.972  0.1696  0.6199 -0.1584
11961SOL     OW39924   9.745   4.295   1.396  0.1553 -0.5191 -0.0098
11961SOL    HW139925   9.694   4.360   1.347 -0.7900 -0.6519  0.7708
11961SOL    HW239926   9.811   4.346   1.443 -0.0794 -0.2011 -0.0219
11962SOL     OW39927   7.232   3.161   5.194 -0.5885  0.5298  0.4033
11962SOL    HW139928   7.220   3.138   5.102  0.1445  0.0209  0.4229
11962SOL    HW239929   7.321   3.196   5.198 -0.2077 -0.4542  1.0914
11963SOL     OW39930   0.338   1.238   9.439 -0.0225 -0.6489 -0.0441
11963SOL    HW139931   0.369   1.147   9.443  1.4808 -0.4965 -4.0261
11963SOL    HW239932   0.243   1.230   9.428 -0.0584 -1.6321  0.7892
11964SOL     OW39933   5.375   4.572   6.270 -0.1115  0.0255  0.5437
11964SOL    HW139934   5.350   4.490   6.312  0.5981 -0.5620 -0.1562
11964SOL    HW239935   5.311   4.636   6.302 -1.2529 -0.9991  0.3809
11965SOL     OW39936   0.746   2.824   2.823  0.4056 -0.3918 -0.2599
11965SOL    HW139937   0.730   2.768   2.899 -1.6455  0.1470 -0.2360
11965SOL    HW239938   0.666   2.817   2.771  1.8013 -0.8816 -2.5059
11966SOL     OW39939   7.176   3.771   1.122  0.0826 -0.0148 -0.8184
11966SOL    HW139940   7.118   3.787   1.197  0.9542  1.5482 -0.4392
11966SOL    HW239941   7.221   3.689   1.144 -1.0878 -0.6151 -0.5615
11967SOL     OW39942   6.228   2.718   8.762  0.0760 -0.1659 -0.2449
11967SOL    HW139943   6.259   2.683   8.846 -1.9501 -1.3224  0.0969
11967SOL    HW239944   6.135   2.733   8.776  0.1118  1.6714 -1.6621
11968SOL     OW39945   7.572   2.330   0.266  0.3100 -0.1033  0.1502
11968SOL    HW139946   7.603   2.277   0.339 -0.8173 -0.8554  0.1046
11968SOL    HW239947   7.477   2.330   0.274  0.2518  3.6443  1.3476
11969SOL     OW39948   1.158   9.545   2.362  0.2605  0.0110 -0.2497
11969SOL    HW139949   1.177   9.495   2.283  0.6625  0.8667 -0.7069
11969SOL    HW239950   1.199   9.494   2.432 -0.2918 -0.8673 -0.5497
11970SOL     OW39951   7.728   9.468   7.870  0.0601  0.5181  0.4299
11970SOL    HW139952   7.783   9.443   7.795  0.5516  1.2976  0.5179
11970SOL    HW239953   7.784   9.525   7.923 -1.6327  3.7459 -0.9277
11971SOL     OW39954   0.833   9.950   9.308  0.2899 -0.1173 -0.3758
11971SOL    HW139955   0.757   9.903   9.275  1.3024 -0.6295 -2.0893
11971SOL    HW239956   0.888   9.883   9.349 -0.0249  0.2058  0.6065
11972SOL     OW39957   9.177   0.933   9.781  0.1958 -0.1911 -0.3246
11972SOL    HW139958   9.174   0.840   9.805 -0.3692  0.0187  0.4950
11972SOL    HW239959   9.153   0.935   9.688  0.1973 -0.8610 -0.3430
11973SOL     OW39960   5.988   9.435   4.806 -0.3834  0.3545  0.0310
11973SOL    HW139961   6.035   9.396   4.732 -0.7129 -0.9882  0.5099
11973SOL    HW239962   6.003   9.529   4.796 -0.9686  0.2760 -2.1231
11974SOL     OW39963   6.107   0.075   3.756 -0.1624  0.5739 -0.5068
11974SOL    HW139964   6.151   0.081   3.671 -1.2500  1.2128 -1.0400
11974SOL    HW239965   6.041   0.144   3.753 -1.0014 -0.1787  0.3944
11975SOL     OW39966   5.490   7.894   9.768  0.1758  0.6530 -0.7348
11975SOL    HW139967   5.580   7.885   9.737  0.5233 -0.3212  0.4586
11975SOL    HW239968   5.473   7.988   9.768  2.1738  1.1117  1.5950
11976SOL     OW39969   9.423  10.211   4.316 -0.0151  0.5957  0.4579
11976SOL    HW139970   9.493  10.247   4.370 -0.7389  0.0183  1.8282
11976SOL    HW239971   9.425  10.264   4.236  2.3955  0.1491  0.1495
11977SOL     OW39972   1.708   4.841   3.791  0.0887  0.2793 -0.5082
11977SOL    HW139973   1.785   4.894   3.770  0.2312  0.1609 -0.2725
11977SOL    HW239974   1.696   4.851   3.885 -0.4004  0.5913 -0.5951
11978SOL     OW39975   7.731   7.918   8.898  0.2835  0.0265 -0.1182
11978SOL    HW139976   7.822   7.899   8.873  0.2535 -1.1525  0.5974
11978SOL    HW239977   7.734   8.008   8.931  0.9879  0.3553 -1.0428
11979SOL     OW39978   7.623   3.207   8.497 -0.7064  0.6000 -0.1509
11979SOL    HW139979   7.711   3.186   8.529 -0.6362  0.2275 -0.5616
11979SOL    HW239980   7.581   3.121   8.486 -0.3079  0.6173 -2.1816
11980SOL     OW39981   8.713   3.632   7.602  0.2457 -0.0014  0.0386
11980SOL    HW139982   8.760   3.584   7.533  1.9614  0.7378  0.6241
11980SOL    HW239983   8.760   3.609   7.682 -0.7226  0.4117  0.7354
11981SOL     OW39984   2.517   0.632   7.231 -0.5669 -0.1858  0.0302
11981SOL    HW139985   2.533   0.626   7.326 -1.2951 -1.4340  0.1040
11981SOL    HW239986   2.432   0.674   7.224 -0.7385 -0.5342 -0.0335
11982SOL     OW39987   9.552   5.001   2.368 -0.1904  0.1337  0.9872
11982SOL    HW139988   9.628   5.052   2.340 -0.1892 -0.7026 -0.5792
11982SOL    HW239989   9.573   4.911   2.346 -1.9200 -0.0378 -0.1783
11983SOL     OW39990   8.779   0.992   2.039 -0.3609  0.2009  0.1655
11983SOL    HW139991   8.861   1.028   2.006  0.2125  0.2898  1.6022
11983SOL    HW239992   8.712   1.055   2.012  0.2669  0.9750  0.3790
11984SOL     OW39993   3.610   1.853   2.865 -0.6607  0.4445  0.5613
11984SOL    HW139994   3.528   1.859   2.817 -1.3703  0.2064  1.6927
11984SOL    HW239995   3.617   1.937   2.911 -1.1474 -0.1472  1.7747
11985SOL     OW39996   4.185   0.465   1.643  0.1878 -0.2949 -0.4069
11985SOL    HW139997   4.109   0.432   1.595  0.1588 -0.8817  0.0366
11985SOL    HW239998   4.195   0.405   1.717  1.0238 -0.1692 -0.4064
11986SOL     OW39999   4.326   2.158   0.306  0.0653 -0.1805  0.6171
11986SOL    HW140000   4.390   2.166   0.376  0.5833 -0.2769  0.1645
11986SOL    HW240001   4.244   2.190   0.344  0.6483  1.1379  0.8432
11987SOL     OW40002   0.440  10.209   6.689  0.1343  0.2362 -0.1346
11987SOL    HW140003   0.435  10.294   6.645 -1.0943  0.9795  1.3460
11987SOL    HW240004   0.417  10.145   6.622  0.1173  1.1708 -1.0308
11988SOL     OW40005   6.504   5.893   1.675 -0.5386 -0.2947  0.9182
11988SOL    HW140006   6.558   5.949   1.620  0.1534 -0.2949  1.5741
11988SOL    HW240007   6.446   5.848   1.614  0.5472 -0.6732  0.1337
11989SOL     OW40008   0.950   2.164   4.260 -0.1084  0.3548  0.1023
11989SOL    HW140009   0.992   2.249   4.248 -0.4119  0.5427  0.3563
11989SOL    HW240010   0.970   2.116   4.180  1.4202  0.0742  0.6149
11990SOL     OW40011   9.746   9.815   4.860 -0.2524 -0.0105  0.1662
11990SOL    HW140012   9.736   9.740   4.801  1.1236  1.9972 -2.8472
11990SOL    HW240013   9.662   9.861   4.856 -0.3816 -0.2332  0.2980
11991SOL     OW40014   3.039   8.913   0.373  0.0203 -0.7943  0.4238
11991SOL    HW140015   2.975   8.909   0.302  0.6535 -1.8132 -0.1062
11991SOL    HW240016   3.111   8.964   0.338 -1.2639  2.1069  1.6944
11992SOL     OW40017   5.443   6.715   3.686 -0.0733 -0.1065 -0.3031
11992SOL    HW140018   5.535   6.690   3.678  0.2627  0.7049  0.8011
11992SOL    HW240019   5.403   6.644   3.737  0.4125  0.5136  0.9917
11993SOL     OW40020   1.403   6.879   5.362 -0.1021  0.6369  0.1150
11993SOL    HW140021   1.337   6.822   5.322  0.4811  0.2351 -0.2833
11993SOL    HW240022   1.362   6.910   5.442 -0.8199  0.4722 -0.1801
11994SOL     OW40023   2.859   2.421   4.406 -0.4108 -0.0283 -0.3696
11994SOL    HW140024   2.766   2.419   4.429 -0.2127  0.4376  0.5265
11994SOL    HW240025   2.871   2.348   4.345 -1.3886 -0.0077 -0.5965
11995SOL     OW40026   5.959   1.758   1.838  0.3859  0.5249 -0.0662
11995SOL    HW140027   5.915   1.674   1.826 -1.0643  1.0946  1.0316
11995SOL    HW240028   5.929   1.789   1.923 -0.6012  3.0435 -1.2270
11996SOL     OW40029   2.548   3.863   3.353 -0.0104  0.2412 -0.3826
11996SOL    HW140030   2.593   3.918   3.289  2.1666  0.0834  0.9118
11996SOL    HW240031   2.600   3.871   3.433 -2.8548  0.7649  1.5648
11997SOL     OW40032   5.304   6.799   1.603  0.0355  0.7220  0.1214
11997SOL    HW140033   5.350   6.839   1.529  0.7394  0.3189  0.3258
11997SOL    HW240034   5.229   6.755   1.564 -1.0330  2.5832 -0.0663
11998SOL     OW40035   7.978   4.159   2.937  0.0501 -0.0334 -0.1511
11998SOL    HW140036   8.020   4.087   2.983  0.3806  1.0051  1.2425
11998SOL    HW240037   7.890   4.126   2.915  0.4674 -1.1110 -0.2728
11999SOL     OW40038   9.795   9.931   1.240 -0.0876  0.1397  0.2136
11999SOL    HW140039   9.794   9.836   1.253 -0.4042  0.3542  2.0122
11999SOL    HW240040   9.844   9.965   1.315  1.9984  1.2922 -1.5374
12000SOL     OW40041   1.531   7.318   3.308  0.3930 -0.4938 -0.3369
12000SOL    HW140042   1.619   7.298   3.277  0.4232  0.9016 -1.1951
12000SOL    HW240043   1.517   7.410   3.286 -1.3889 -0.7619 -0.4651
12001SOL     OW40044   2.627   1.346   0.209  0.0150 -0.2749  0.3278
12001SOL    HW140045   2.536   1.326   0.230  0.7753 -0.0357  4.5566
12001SOL    HW240046   2.622   1.404   0.133 -3.0598 -2.9664 -1.8193
12002SOL     OW40047   6.098   6.009   7.728  0.2990  0.1706 -0.5326
12002SOL    HW140048   6.084   6.083   7.670 -1.9565 -2.2332 -3.3673
12002SOL    HW240049   6.193   6.000   7.734  0.7700  4.3605  1.6652
12003SOL     OW40050   1.200   3.225   4.479 -0.1267  0.2821 -0.3217
12003SOL    HW140051   1.237   3.296   4.532  0.7487 -0.0907 -0.4147
12003SOL    HW240052   1.272   3.198   4.422 -0.7422 -0.0356 -0.9639
12004SOL     OW40053   3.822   1.495   4.141  0.2979 -0.8565  0.0506
12004SOL    HW140054   3.849   1.411   4.179  1.0055 -1.0053 -0.7393
12004SOL    HW240055   3.904   1.541   4.125 -0.0919  0.0823  0.6517
12005SOL     OW40056   1.226   7.595   5.681  0.0853 -0.2761  0.0200
12005SOL    HW140057   1.194   7.667   5.627  0.2358 -0.3073 -0.1090
12005SOL    HW240058   1.228   7.520   5.621  1.3048 -0.0690 -0.2222
12006SOL     OW40059   0.248   2.445   0.930 -0.1377  0.7622 -0.2061
12006SOL    HW140060   0.224   2.490   1.011 -1.4825 -2.2243  1.2146
12006SOL    HW240061   0.308   2.376   0.958 -0.7447 -0.4326 -1.7243
12007SOL     OW40062   4.421   4.008   9.725  0.4077 -0.2252 -0.0304
12007SOL    HW140063   4.378   3.988   9.808  3.9321  0.4825  2.1990
12007SOL    HW240064   4.507   3.966   9.733  2.3481  3.0921 -1.5801
12008SOL     OW40065   8.703   0.175   7.044  0.1187 -0.3298 -0.2746
12008SOL    HW140066   8.717   0.148   7.135 -1.5233 -1.2879 -0.2599
12008SOL    HW240067   8.790   0.199   7.013  0.6135  0.7647  1.7615
12009SOL     OW40068   7.102   0.836   1.477  0.0712  0.3557 -0.0074
12009SOL    HW140069   7.154   0.796   1.407  1.1653  1.5621  0.0780
12009SOL    HW240070   7.154   0.824   1.556  0.2028  1.5027  0.0968
12010SOL     OW40071   7.100   1.286   8.756  0.0670  0.2311 -0.0818
12010SOL    HW140072   7.128   1.209   8.706 -1.1128 -0.6421  0.5274
12010SOL    HW240073   7.070   1.250   8.839 -1.7404  1.1978 -0.2713
12011SOL     OW40074   7.793   7.209   8.982 -0.1771 -0.0227 -0.0876
12011SOL    HW140075   7.738   7.287   8.982  0.6816  0.7427 -3.5024
12011SOL    HW240076   7.881   7.242   8.963  0.4802 -1.6823 -0.0965
12012SOL     OW40077   5.976   7.041   1.508 -0.2375  0.2023  0.1869
12012SOL    HW140078   5.940   6.961   1.546 -2.8372  0.4700 -1.4561
12012SOL    HW240079   6.028   7.010   1.434 -0.1525 -0.0329  0.3439
12013SOL     OW40080   2.563   1.033   6.339  0.0177 -0.0607 -1.0285
12013SOL    HW140081   2.546   1.048   6.246  0.8632 -1.8742 -1.5414
12013SOL    HW240082   2.576   0.938   6.345  2.2630  0.2664  0.5356
12014SOL     OW40083   5.716   4.665  10.008 -0.4011  0.1092 -0.3814
12014SOL    HW140084   5.648   4.732  10.014 -0.3723  0.1743 -0.7337
12014SOL    HW240085   5.684   4.593  10.062  1.0967  1.6492  2.8668
12015SOL     OW40086   3.345   6.918   7.130  0.4319  0.1262  0.0770
12015SOL    HW140087   3.310   6.829   7.138  0.4999 -0.1466 -2.0866
12015SOL    HW240088   3.271   6.975   7.150  0.6120 -0.3390  2.3991
12016SOL     OW40089   6.934   4.231   5.303  0.5855  0.2242  0.3352
12016SOL    HW140090   6.850   4.267   5.331  0.4874  0.5477 -0.3454
12016SOL    HW240091   6.998   4.272   5.362  0.3954  0.9754  0.0277
12017SOL     OW40092   4.742   2.654   1.972  0.2568 -0.0229  0.6168
12017SOL    HW140093   4.806   2.715   2.009  2.3939 -2.3387  1.0778
12017SOL    HW240094   4.750   2.665   1.877  1.4010 -0.2594  0.6677
12018SOL     OW40095   4.511   4.381   5.651 -0.2366  0.1105 -0.3852
12018SOL    HW140096   4.569   4.388   5.576  0.6045 -2.1304 -0.0037
12018SOL    HW240097   4.448   4.313   5.627 -0.5526  0.0511  0.5608
12019SOL     OW40098   5.763   2.261   0.375 -0.6744 -0.1776 -0.0311
12019SOL    HW140099   5.690   2.307   0.415 -1.4233  0.3081 -1.8477
12019SOL    HW240100   5.824   2.245   0.447 -2.4530 -0.4202  1.5042
12020SOL     OW40101   6.649   5.178   2.990  0.2248  0.1366  0.4057
12020SOL    HW140102   6.600   5.187   2.908  1.0103  3.3222  0.1575
12020SOL    HW240103   6.687   5.264   3.004  1.7729 -0.8902  3.1240
12021SOL     OW40104   0.869   3.769   6.848 -0.0919 -0.3763 -0.5176
12021SOL    HW140105   0.830   3.830   6.912 -1.1666 -0.8971 -0.6519
12021SOL    HW240106   0.963   3.785   6.854 -0.3708  1.9081 -1.1389
12022SOL     OW40107   8.155   3.104   2.307 -0.1717 -0.5445  0.2266
12022SOL    HW140108   8.177   3.170   2.242  1.4601  0.4684  1.7196
12022SOL    HW240109   8.120   3.154   2.381 -0.2928 -1.4931  0.8301
12023SOL     OW40110   4.362   8.559   2.110  0.0476  0.0020  0.6972
12023SOL    HW140111   4.364   8.620   2.035 -0.7805  0.2221  0.8397
12023SOL    HW240112   4.326   8.611   2.182 -2.7971 -1.1759  0.2765
12024SOL     OW40113   5.197   0.379  10.123  0.6113 -0.1983  0.1208
12024SOL    HW140114   5.105   0.360  10.141 -0.1358  3.2019  0.5713
12024SOL    HW240115   5.198   0.412  10.033  1.1633  0.8277  0.4808
12025SOL     OW40116   6.232   9.865   0.501 -0.5920  0.1043  0.1172
12025SOL    HW140117   6.325   9.864   0.527 -0.4177 -2.5338 -0.3244
12025SOL    HW240118   6.230   9.814   0.420 -2.4130  0.1927  0.0827
12026SOL     OW40119   6.117   3.294   5.223  0.1875  0.1777  0.0260
12026SOL    HW140120   6.147   3.288   5.314  1.7050  1.7871 -0.3283
12026SOL    HW240121   6.051   3.363   5.224 -0.5846 -0.5293  0.0464
12027SOL     OW40122   6.707   0.814   7.531 -0.3387  0.4526  0.0696
12027SOL    HW140123   6.713   0.735   7.585  1.4774  0.1841 -0.4386
12027SOL    HW240124   6.798   0.834   7.508 -0.8767  1.8882 -0.9950
12028SOL     OW40125   6.347   8.957   4.516  0.1144 -0.4207  0.3685
12028SOL    HW140126   6.315   8.955   4.606 -0.8751  0.1041  0.0405
12028SOL    HW240127   6.349   9.050   4.492 -3.7252 -0.5954 -1.5001
12029SOL     OW40128   1.517   1.463   8.089  0.0852 -0.9833  0.2886
12029SOL    HW140129   1.493   1.428   8.003 -0.1892 -0.5153  0.1765
12029SOL    HW240130   1.613   1.465   8.087  0.0894 -1.2466  0.1043
12030SOL     OW40131   5.320   0.704   2.492 -0.1934  0.0497 -0.1624
12030SOL    HW140132   5.347   0.795   2.503 -0.5079  0.1223  0.0225
12030SOL    HW240133   5.393   0.663   2.445 -0.2384  0.4953 -0.6296
12031SOL     OW40134   6.893   7.737   4.988  0.3033 -0.6203  0.3378
12031SOL    HW140135   6.973   7.774   5.026  1.6856 -0.4817 -2.4811
12031SOL    HW240136   6.852   7.810   4.942 -1.3700 -0.7672  1.4903
12032SOL     OW40137   7.826   0.629   6.784  0.0197 -0.2750 -0.2224
12032SOL    HW140138   7.794   0.547   6.820 -1.2072  0.6109  0.7825
12032SOL    HW240139   7.748   0.675   6.753  0.7766  0.1246 -1.6843
12033SOL     OW40140   9.151   2.162   4.334  0.2723  0.3827  0.1837
12033SOL    HW140141   9.109   2.144   4.250  0.1468  1.4554 -0.0051
12033SOL    HW240142   9.082   2.204   4.386 -0.1294 -1.6522  1.4086
12034SOL     OW40143  10.201   3.506   5.893  0.4747  0.4186  0.2692
12034SOL    HW140144  10.249   3.589   5.888 -0.9488  1.2687  0.0535
12034SOL    HW240145  10.110   3.531   5.880 -0.2152 -0.9484  2.0496
12035SOL     OW40146   6.956   5.574   2.480  0.4157 -0.3800 -0.5836
12035SOL    HW140147   7.015   5.644   2.508 -0.1368 -0.5802  1.2173
12035SOL    HW240148   7.015   5.507   2.445  1.0661  0.3231 -0.8832
12036SOL     OW40149   8.715   4.054   3.346 -0.3956 -0.8175 -0.1791
12036SOL    HW140150   8.699   4.072   3.439  2.6339 -0.2835  0.3180
12036SOL    HW240151   8.714   4.140   3.305 -2.6672 -1.1149 -0.9125
12037SOL     OW40152   8.336   4.466   1.113 -0.0243 -0.1556  0.6599
12037SOL    HW140153   8.281   4.510   1.178 -0.9755  1.0197 -0.8510
12037SOL    HW240154   8.418   4.515   1.113  0.1388 -0.4154  1.2285
12038SOL     OW40155  10.093   2.405   6.624  0.8486  0.3252 -0.4453
12038SOL    HW140156  10.181   2.440   6.636  0.7616 -0.0770  1.7559
12038SOL    HW240157  10.095   2.320   6.668 -1.2314  1.3235  1.8279
12039SOL     OW40158   5.758   2.612   9.341 -0.3169 -0.4372 -0.1308
12039SOL    HW140159   5.766   2.519   9.360  0.1184 -0.1006  1.4779
12039SOL    HW240160   5.795   2.622   9.253  0.9821 -1.5625  0.2563
12040SOL     OW40161   7.826   7.080   9.848  0.0162  0.0065 -0.0838
12040SOL    HW140162   7.800   7.151   9.789 -0.9767  2.0727  2.6449
12040SOL    HW240163   7.921   7.087   9.854  0.0304  0.3872 -0.6868
12041SOL     OW40164   0.945   8.563   0.500 -0.1197 -0.0233 -0.5300
12041SOL    HW140165   0.980   8.641   0.457 -0.3631  0.6902  0.4975
12041SOL    HW240166   0.989   8.562   0.585  0.1784 -1.2560 -0.6920
12042SOL     OW40167   9.799   7.822   4.066  0.1370  0.5785  0.5474
12042SOL    HW140168   9.870   7.830   4.130 -0.5172  1.8012  1.1459
12042SOL    HW240169   9.740   7.895   4.085 -1.1035 -0.1895 -0.1773
12043SOL     OW40170   8.968   0.102   5.310 -0.0989 -0.2607 -0.2824
12043SOL    HW140171   8.876   0.117   5.289 -0.1685 -0.7949 -0.3760
12043SOL    HW240172   9.013   0.181   5.281 -0.4429 -0.2551 -0.8101
12044SOL     OW40173   3.351   3.776   1.154  0.2461 -0.3746  0.0739
12044SOL    HW140174   3.413   3.757   1.084 -1.5035 -2.0119 -1.1048
12044SOL    HW240175   3.289   3.703   1.153  0.2624 -0.6226  3.5205
12045SOL     OW40176   3.213   8.314   0.985 -0.3312 -0.2198 -0.0306
12045SOL    HW140177   3.227   8.221   0.964 -0.4792 -0.2807  0.1304
12045SOL    HW240178   3.224   8.360   0.902 -0.2883 -0.3857 -0.1177
12046SOL     OW40179   3.774   4.266   8.401 -0.0716 -0.1134  0.6352
12046SOL    HW140180   3.700   4.326   8.390 -0.0482 -0.1101  0.4919
12046SOL    HW240181   3.758   4.197   8.337  0.3540  0.1867  0.1974
12047SOL     OW40182   5.827   7.128   8.812  0.4870  0.0043  0.0532
12047SOL    HW140183   5.871   7.119   8.728 -1.4971  1.6488 -1.2552
12047SOL    HW240184   5.855   7.214   8.845 -0.8027  0.5825 -0.2771
12048SOL     OW40185   5.283   4.961   8.756  0.1240  0.3733 -0.4618
12048SOL    HW140186   5.250   4.874   8.735 -2.4904  1.4092 -1.0728
12048SOL    HW240187   5.359   4.945   8.812 -2.0825 -2.2823  2.1447
12049SOL     OW40188   7.552   7.027   2.556  0.1398  0.0463 -0.3996
12049SOL    HW140189   7.591   7.014   2.643 -0.4625 -0.3300 -0.1737
12049SOL    HW240190   7.476   6.969   2.556  0.2072 -0.0463 -1.2321
12050SOL     OW40191   9.971   2.732   1.017  0.0437  0.1465 -0.2315
12050SOL    HW140192  10.024   2.735   1.097  0.5326 -0.9117 -0.5029
12050SOL    HW240193  10.034   2.713   0.947 -0.7700 -2.2413 -0.4216
12051SOL     OW40194   0.366   6.238   1.691  0.2932 -0.0143  0.2346
12051SOL    HW140195   0.334   6.328   1.687  0.1076 -0.0857 -3.3139
12051SOL    HW240196   0.418   6.228   1.612 -1.7223 -3.6642 -0.8687
12052SOL     OW40197   9.192   8.559   3.953 -0.2225 -0.3192 -0.3054
12052SOL    HW140198   9.125   8.508   3.908 -1.8482  1.2503  0.2239
12052SOL    HW240199   9.204   8.637   3.899 -0.5887  0.5337  0.7931
12053SOL     OW40200   4.062   8.993   8.014 -0.3670 -0.1639  0.0029
12053SOL    HW140201   4.118   9.070   8.023  0.6657 -0.8171 -0.5453
12053SOL    HW240202   4.123   8.919   8.019 -0.8811 -0.8548 -2.5380
12054SOL     OW40203   7.196   0.974   9.486 -0.5353 -0.5542  0.9947
12054SOL    HW140204   7.248   0.942   9.560 -1.9419 -2.1879  1.3404
12054SOL    HW240205   7.253   1.038   9.443  1.3756 -1.5469  1.8958
12055SOL     OW40206   4.405   5.342   7.322  0.0576 -0.1689  0.0950
12055SOL    HW140207   4.313   5.368   7.324 -0.6582 -2.4760  1.1670
12055SOL    HW240208   4.453   5.422   7.342 -1.8300  0.6939  1.4954
12056SOL     OW40209   4.466   2.286   2.760  0.5986 -0.1987 -0.7820
12056SOL    HW140210   4.456   2.195   2.786 -0.0596  0.0894  0.0331
12056SOL    HW240211   4.536   2.320   2.817  1.3162 -0.3679 -1.5557
12057SOL     OW40212   0.188   5.202   8.164 -0.5669  0.4862 -0.2705
12057SOL    HW140213   0.195   5.287   8.207  2.0748  1.1887 -1.8201
12057SOL    HW240214   0.147   5.221   8.079 -0.1868  0.2047 -0.5244
12058SOL     OW40215   3.920   6.222   0.619  0.2914  0.0274  0.5079
12058SOL    HW140216   3.996   6.182   0.578  0.1735  0.1879  0.1262
12058SOL    HW240217   3.933   6.208   0.713  1.1077  0.6188  0.4934
12059SOL     OW40218   5.421   0.732   4.317  0.0759 -0.3889 -0.0105
12059SOL    HW140219   5.515   0.749   4.311  0.6220 -2.5624  1.3143
12059SOL    HW240220   5.393   0.776   4.398 -0.1901  0.6912 -0.6703
12060SOL     OW40221   8.272   7.610   5.031 -0.6770  0.2293  0.2881
12060SOL    HW140222   8.344   7.652   5.078 -0.2629  0.2330 -0.3378
12060SOL    HW240223   8.314   7.541   4.980 -1.1965 -0.1562  0.3820
12061SOL     OW40224   8.454   6.454   2.229  0.5197 -0.3663 -0.3053
12061SOL    HW140225   8.514   6.402   2.176  0.0468 -1.1380 -0.0973
12061SOL    HW240226   8.401   6.390   2.276  0.3213  0.3043  0.4176
12062SOL     OW40227   9.443   2.914   4.711  0.1320 -0.0070 -0.6311
12062SOL    HW140228   9.434   3.002   4.675 -1.1628  0.5609  0.9653
12062SOL    HW240229   9.436   2.925   4.806 -3.5593 -2.1173 -0.4449
12063SOL     OW40230   4.033   8.596   3.646  0.0909  0.3378  0.2705
12063SOL    HW140231   3.967   8.642   3.594 -0.6282 -1.1242 -0.1810
12063SOL    HW240232   4.059   8.659   3.713 -2.5875  0.6655  1.1638
12064SOL     OW40233   0.473   5.916   3.337  0.3384 -0.4993 -0.3410
12064SOL    HW140234   0.411   5.961   3.395  0.5219  0.8081 -1.1051
12064SOL    HW240235   0.539   5.880   3.396 -0.2801 -0.5019  0.3637
12065SOL     OW40236   8.148   1.484   6.927 -0.2001  0.1315 -0.0242
12065SOL    HW140237   8.074   1.424   6.916  1.1051 -1.7938  1.1207
12065SOL    HW240238   8.213   1.453   6.863  0.5794  0.1696  0.7370
12066SOL     OW40239   3.728   2.347   8.491  0.3306 -0.3406  0.2787
12066SOL    HW140240   3.766   2.418   8.542  1.9050  0.0995 -1.4169
12066SOL    HW240241   3.718   2.275   8.554  1.1696  0.5189  1.4356
12067SOL     OW40242   4.848   3.574   8.331 -0.2437  0.1029  0.9107
12067SOL    HW140243   4.906   3.507   8.366  1.5830  1.3442  0.4459
12067SOL    HW240244   4.852   3.646   8.394  0.5685  1.1023 -0.2255
12068SOL     OW40245   9.483   1.911   4.457 -0.0343  0.0068  0.6313
12068SOL    HW140246   9.457   1.920   4.549 -0.3725  1.0915  0.4509
12068SOL    HW240247   9.457   1.994   4.417 -0.4103 -0.6676 -0.5772
12069SOL     OW40248   8.040   4.112   4.791  0.5034 -0.5671  0.0462
12069SOL    HW140249   7.994   4.176   4.844  0.0182 -1.4331  0.6997
12069SOL    HW240250   8.068   4.160   4.713 -0.3402  0.2953  0.2602
12070SOL     OW40251   9.356   1.008   8.799  0.4464  0.3981  0.1070
12070SOL    HW140252   9.441   1.025   8.758 -0.3238  2.9336 -0.6375
12070SOL    HW240253   9.365   1.044   8.887  0.7049 -1.0623  0.6999
12071SOL     OW40254   2.712   1.079   4.202  0.2671 -0.0272 -0.1624
12071SOL    HW140255   2.657   1.158   4.197  0.7515  0.3732  0.5303
12071SOL    HW240256   2.788   1.099   4.147 -0.0442 -0.3882 -0.7324
12072SOL     OW40257   7.289   6.357   4.789  0.4028  0.1272  0.0474
12072SOL    HW140258   7.377   6.336   4.819  0.6719  2.0315  0.7284
12072SOL    HW240259   7.301   6.425   4.722 -0.5149  0.0366 -0.2292
12073SOL     OW40260   6.734   6.760   8.048  0.2369 -0.5381 -0.2137
12073SOL    HW140261   6.661   6.772   7.987  0.6872  1.9006 -0.3787
12073SOL    HW240262   6.693   6.758   8.135 -0.1561 -0.9263 -0.4068
12074SOL     OW40263   6.896   5.776   7.339 -0.5596  0.5984 -0.0531
12074SOL    HW140264   6.826   5.840   7.352 -1.1198 -0.0304  0.1215
12074SOL    HW240265   6.855   5.707   7.287 -0.4508 -0.3700  1.0956
12075SOL     OW40266   4.169   0.899   9.785 -0.1226 -0.1358  0.4905
12075SOL    HW140267   4.243   0.889   9.845  0.8913  0.8136 -0.5644
12075SOL    HW240268   4.150   0.809   9.756  1.8628 -0.2590 -0.6400
12076SOL     OW40269   7.706   8.886   5.931 -0.3491  0.0196  0.0992
12076SOL    HW140270   7.632   8.836   5.965 -0.4717  0.4620  0.4850
12076SOL    HW240271   7.779   8.823   5.930 -0.5345 -0.1996  0.4559
12077SOL     OW40272   4.668   0.292   0.737 -0.5016 -0.2658 -0.1519
12077SOL    HW140273   4.760   0.304   0.712 -0.9106  2.1867 -0.7214
12077SOL    HW240274   4.638   0.220   0.682  0.7900 -0.3913 -0.7487
12078SOL     OW40275   4.057   0.150   7.596 -0.2627  0.1676 -0.1301
12078SOL    HW140276   3.977   0.155   7.648  0.5777  3.5700  1.1334
12078SOL    HW240277   4.125   0.128   7.660 -0.0276 -2.2716 -1.1132
12079SOL     OW40278   9.742   6.101   3.221 -0.7137  0.2741  0.1013
12079SOL    HW140279   9.756   6.135   3.132 -0.4629 -0.6313 -0.2188
12079SOL    HW240280   9.696   6.018   3.208  0.9176 -0.7850  0.6785
12080SOL     OW40281   5.938   0.315   9.907 -0.5600  0.0562 -0.2677
12080SOL    HW140282   5.942   0.407   9.879  0.3660 -0.2132 -1.0469
12080SOL    HW240283   5.940   0.265   9.826  2.3146 -0.7348  0.1905
12081SOL     OW40284   7.998   6.998   4.552 -0.0234  0.1932 -0.3349
12081SOL    HW140285   7.921   6.968   4.505  1.1044 -0.2488 -1.9893
12081SOL    HW240286   7.987   6.964   4.641 -0.6431 -1.8704 -1.1359
12082SOL     OW40287   7.935   0.859   6.503 -0.5817  0.3030  0.1679
12082SOL    HW140288   7.904   0.933   6.556  0.1395  1.5093 -1.0175
12082SOL    HW240289   7.856   0.808   6.485 -1.4813  1.8555 -0.5593
12083SOL     OW40290   9.198   6.621   0.676 -0.6079  0.3235  1.0306
12083SOL    HW140291   9.176   6.552   0.614 -3.3209  0.7556  1.4053
12083SOL    HW240292   9.280   6.592   0.716 -0.3972 -1.4471 -0.5385
12084SOL     OW40293   2.548   2.351   3.441  0.2886  0.1290 -0.0271
12084SOL    HW140294   2.547   2.257   3.460  0.9166  0.2799  0.7946
12084SOL    HW240295   2.458   2.379   3.456  0.3597 -0.1220  0.9369
12085SOL     OW40296  10.248   0.229   7.855 -0.0624  0.0211 -0.0672
12085SOL    HW140297  10.253   0.148   7.906 -1.9978  0.8875  1.6274
12085SOL    HW240298  10.177   0.279   7.896 -0.3291  1.6791 -2.3638
12086SOL     OW40299   0.958   7.512   9.761  0.2904 -0.4249 -0.2834
12086SOL    HW140300   0.917   7.557   9.834 -0.8399  1.6168 -2.0497
12086SOL    HW240301   1.050   7.539   9.765  0.4820 -1.1826  0.9393
12087SOL     OW40302  10.229   6.285   7.533 -0.0234 -0.3029 -0.0040
12087SOL    HW140303  10.169   6.356   7.557  2.5894  2.4078 -0.8417
12087SOL    HW240304  10.172   6.213   7.509 -2.8967  0.5628  3.2626
12088SOL     OW40305   2.506   8.561   9.304  0.5240 -0.0712  0.3836
12088SOL    HW140306   2.473   8.477   9.273  0.0410  0.0358  0.5898
12088SOL    HW240307   2.587   8.540   9.349 -0.4764 -0.6992  2.0032
12089SOL     OW40308   3.996   3.195   7.787  0.1337  0.0020 -0.2834
12089SOL    HW140309   3.991   3.280   7.830  0.1081  0.1771 -0.6259
12089SOL    HW240310   3.927   3.143   7.829 -0.8306  0.6058 -1.0490
12090SOL     OW40311   4.477   3.211   3.622 -0.5331  0.4527  0.3516
12090SOL    HW140312   4.460   3.225   3.715 -1.0897 -0.5028  0.4061
12090SOL    HW240313   4.529   3.131   3.619 -1.9575 -0.4986 -0.2355
12091SOL     OW40314   7.326   6.298   5.613 -0.0325  0.1123  0.4231
12091SOL    HW140315   7.305   6.368   5.551 -2.2535  0.4987  1.5008
12091SOL    HW240316   7.328   6.219   5.561 -0.3136  0.6211 -0.3733
12092SOL     OW40317   0.565  10.144   3.542  0.2510 -0.3473  0.9203
12092SOL    HW140318   0.489  10.186   3.503  0.9850  0.0919 -0.0707
12092SOL    HW240319   0.597  10.207   3.607  1.9672  1.2040 -1.2791
12093SOL     OW40320   5.042   3.664   0.766  0.4733  0.0856  0.3675
12093SOL    HW140321   5.060   3.755   0.792  0.6797  0.1688 -0.0613
12093SOL    HW240322   5.129   3.628   0.748  0.3115  0.1210 -0.5146
12094SOL     OW40323  10.198   1.732   8.528 -0.1525  0.1688  0.5627
12094SOL    HW140324  10.255   1.804   8.553 -0.2297  0.8547 -1.1113
12094SOL    HW240325  10.244   1.653   8.558  0.9197  0.7989  0.6134
12095SOL     OW40326   8.801   0.021   2.218  0.0515  0.2953  0.1990
12095SOL    HW140327   8.885   0.003   2.176 -0.6496 -1.6887 -0.4661
12095SOL    HW240328   8.792   0.116   2.215  2.1645  0.5309  0.1242
12096SOL     OW40329   7.363   1.386   0.924  0.5279 -0.5405 -0.2341
12096SOL    HW140330   7.275   1.423   0.937  0.6552 -0.1746 -0.4122
12096SOL    HW240331   7.403   1.441   0.857  0.3280 -1.6707 -1.3216
12097SOL     OW40332   4.853   2.531   8.167 -0.3124 -0.1048 -0.0454
12097SOL    HW140333   4.799   2.457   8.193 -1.0527  0.8159  1.1807
12097SOL    HW240334   4.921   2.536   8.235 -0.7383  0.7828  0.3392
12098SOL     OW40335   5.148   6.000  10.228  0.0823 -0.7966 -0.1274
12098SOL    HW140336   5.083   6.016  10.160 -0.3751 -3.2352 -0.3275
12098SOL    HW240337   5.186   6.087  10.245 -1.8381  0.3607 -1.3694
12099SOL     OW40338   7.658   6.334  10.128  0.1946 -0.5278  0.0852
12099SOL    HW140339   7.710   6.408  10.156 -2.0627  0.2650  2.5416
12099SOL    HW240340   7.621   6.361  10.044  2.2583 -0.4524 -0.8677
12100SOL     OW40341   4.007   0.998   7.546 -0.5779 -0.6151 -0.4251
12100SOL    HW140342   4.079   1.029   7.601 -0.7305 -1.6025  0.3662
12100SOL    HW240343   3.958   0.938   7.603 -1.0503 -1.2421 -1.4712
12101SOL     OW40344   2.317   1.300   4.845 -0.2558  0.0326  0.3251
12101SOL    HW140345   2.410   1.304   4.867  0.3759 -0.5051 -1.9805
12101SOL    HW240346   2.305   1.211   4.811 -1.1833  0.6492 -1.0436
12102SOL     OW40347   4.638   2.602   4.014 -0.3210  0.3247  0.2742
12102SOL    HW140348   4.722   2.561   4.034 -1.0933 -0.6014  1.8290
12102SOL    HW240349   4.610   2.560   3.933  1.1333  1.3694 -0.8264
12103SOL     OW40350   1.442   3.450   2.045 -0.2838 -0.1059  0.1601
12103SOL    HW140351   1.355   3.481   2.020  0.0378 -0.0099 -0.8538
12103SOL    HW240352   1.472   3.397   1.971  0.5374 -0.1093  0.4773
12104SOL     OW40353   1.694   1.617   4.200 -0.2902  0.3574  0.3471
12104SOL    HW140354   1.701   1.630   4.295 -0.7432  1.0728  0.2913
12104SOL    HW240355   1.600   1.611   4.183 -0.2053  0.1156 -0.0434
12105SOL     OW40356   5.467   7.511   9.495 -0.1674  0.1876  0.2207
12105SOL    HW140357   5.415   7.581   9.534  0.1068  1.3652 -1.4166
12105SOL    HW240358   5.427   7.497   9.409  2.4188  1.4899 -1.3220
12106SOL     OW40359   9.286   0.859   1.932 -0.9110 -0.2936  0.1132
12106SOL    HW140360   9.299   0.797   2.004 -0.2252 -0.3299 -0.0369
12106SOL    HW240361   9.305   0.945   1.972 -1.5530 -0.2006  0.2391
12107SOL     OW40362   5.107   9.310   4.819  0.1026  0.1881 -0.2519
12107SOL    HW140363   5.058   9.393   4.822  1.2518  0.8810  0.1119
12107SOL    HW240364   5.166   9.320   4.745 -0.6969 -0.8817 -1.0579
12108SOL     OW40365   1.657   8.825   8.775  0.5516 -0.1502 -0.4807
12108SOL    HW140366   1.574   8.796   8.814  0.5789  1.3067  0.7628
12108SOL    HW240367   1.689   8.749   8.727 -0.7693 -1.2133  0.2561
12109SOL     OW40368   7.742   3.655   3.431  0.0147  0.1137  0.4134
12109SOL    HW140369   7.666   3.647   3.374  0.2244 -0.1795  0.1757
12109SOL    HW240370   7.730   3.740   3.475 -0.7725 -0.2209  0.8550
12110SOL     OW40371   6.007   2.207   5.704  0.6947  0.3855 -0.7265
12110SOL    HW140372   6.088   2.155   5.708 -0.1007 -0.7885  1.2292
12110SOL    HW240373   5.968   2.184   5.620  1.8364  0.1552 -1.2212
12111SOL     OW40374   8.899   3.762   6.631 -0.6816 -0.0421 -0.6693
12111SOL    HW140375   8.931   3.672   6.620 -0.6798 -0.1624  0.1930
12111SOL    HW240376   8.954   3.798   6.701 -0.9028  0.5231 -0.7814
12112SOL     OW40377   6.658   4.268   3.017  0.1981 -0.5282 -0.2927
12112SOL    HW140378   6.598   4.295   3.087 -0.1736 -0.0184 -0.8021
12112SOL    HW240379   6.730   4.330   3.023  0.4493 -0.8454  0.0102
12113SOL     OW40380   5.214   0.506   2.643  0.6475 -0.0113 -0.4623
12113SOL    HW140381   5.199   0.552   2.725  1.9549 -3.0755  1.7092
12113SOL    HW240382   5.272   0.564   2.593  2.0916  0.8421  2.0063
12114SOL     OW40383   4.269   4.459   4.073  0.0044 -0.1636 -0.2563
12114SOL    HW140384   4.335   4.478   4.007  0.4557 -1.2921 -0.1604
12114SOL    HW240385   4.289   4.517   4.146 -0.8969  1.5733 -1.3222
12115SOL     OW40386   9.397   1.985   4.707 -0.4220 -0.1062  0.5620
12115SOL    HW140387   9.480   2.002   4.753  0.4124  0.3243 -1.0247
12115SOL    HW240388   9.362   2.072   4.689 -1.9562 -0.2732  2.3743
12116SOL     OW40389   2.951   5.889   5.502  0.3876 -0.3144  0.0070
12116SOL    HW140390   2.989   5.808   5.536  1.2805 -0.8232 -2.0577
12116SOL    HW240391   2.995   5.903   5.419 -1.0751  1.3209 -0.5515
12117SOL     OW40392   3.684   5.180   1.354 -0.4141  0.1899  0.1392
12117SOL    HW140393   3.597   5.221   1.351 -0.9015 -0.8557 -2.0385
12117SOL    HW240394   3.702   5.156   1.263  2.1927  0.3714  0.5352
12118SOL     OW40395   2.448   3.494   1.763  0.2742  0.0470 -0.1366
12118SOL    HW140396   2.369   3.440   1.766 -0.0491  0.5173 -0.1387
12118SOL    HW240397   2.467   3.515   1.855 -1.2557  2.3054 -0.2623
12119SOL     OW40398   2.986   1.233   0.760  0.5040  0.6814  1.0606
12119SOL    HW140399   3.048   1.194   0.699 -0.4785 -0.5730  0.8072
12119SOL    HW240400   3.038   1.253   0.838  1.0847 -1.2511  1.2379
12120SOL     OW40401   1.566   7.184   9.730  0.3057 -0.0210 -0.1244
12120SOL    HW140402   1.507   7.244   9.775  0.6981 -0.9577  1.7615
12120SOL    HW240403   1.639   7.172   9.791  1.2108 -0.8609 -1.3114
12121SOL     OW40404   4.090   4.239   8.282  0.8421  0.2357 -0.0764
12121SOL    HW140405   4.182   4.258   8.301  0.8201  1.6535 -1.1891
12121SOL    HW240406   4.091   4.206   8.192  0.3377 -0.5970  0.2148
12122SOL     OW40407   9.686   3.318   4.756  0.3922 -0.0215 -0.0047
12122SOL    HW140408   9.758   3.365   4.713  1.0035 -0.0651  0.9306
12122SOL    HW240409   9.631   3.387   4.793  0.0299  0.0083 -0.5930
12123SOL     OW40410   6.694   0.489   3.548  0.1047 -0.1203 -0.0103
12123SOL    HW140411   6.740   0.424   3.600 -0.7098 -1.0174 -0.3739
12123SOL    HW240412   6.737   0.488   3.463 -0.2693 -0.6148 -0.1988
12124SOL     OW40413   1.079   1.635   2.714 -0.3539 -0.5684  0.1622
12124SOL    HW140414   1.100   1.630   2.808 -2.4945 -1.7702  0.6331
12124SOL    HW240415   0.988   1.664   2.712  0.0204  0.6013 -1.6236
12125SOL     OW40416   1.950   4.108   9.923  0.6843 -0.7368  0.1379
12125SOL    HW140417   1.912   4.077   9.841  0.0347  0.3273  0.0254
12125SOL    HW240418   2.019   4.168   9.896  1.7051 -1.7662  0.3625
12126SOL     OW40419   6.834   6.999   9.410  0.5316  0.1343  0.5875
12126SOL    HW140420   6.770   6.987   9.480  0.1003 -2.1075 -0.1174
12126SOL    HW240421   6.807   6.938   9.342  2.1654  0.7280 -0.6598
12127SOL     OW40422   4.068   3.015   6.901  0.0090  0.1879 -0.2455
12127SOL    HW140423   3.980   3.032   6.868  0.3268  2.8771  0.0985
12127SOL    HW240424   4.058   3.017   6.996  0.5836  1.5725 -0.1990
12128SOL     OW40425   0.578   7.120   6.111  0.5568  0.0399 -0.0349
12128SOL    HW140426   0.614   7.171   6.038  1.3034 -1.0384 -0.4495
12128SOL    HW240427   0.504   7.072   6.073 -1.3556  2.1679  0.7909
12129SOL     OW40428   8.572   0.637   5.120 -0.1526  0.8256 -0.3077
12129SOL    HW140429   8.619   0.709   5.078  2.3614  0.5360  1.7681
12129SOL    HW240430   8.540   0.584   5.047  0.9258  2.2060 -1.8618
12130SOL     OW40431   2.848   1.602   1.498 -0.0059 -0.1671  0.0344
12130SOL    HW140432   2.878   1.561   1.579 -0.9079  0.3712  0.6595
12130SOL    HW240433   2.888   1.688   1.498  0.1471 -0.2392 -0.1854
12131SOL     OW40434   0.355   7.846   5.326  0.3042  0.2490 -0.2937
12131SOL    HW140435   0.325   7.842   5.236  1.8032  1.8726 -0.9222
12131SOL    HW240436   0.373   7.755   5.350 -3.4753 -0.6847 -0.3370
12132SOL     OW40437   1.697   1.519   0.950 -0.0449  0.1689  0.2586
12132SOL    HW140438   1.788   1.547   0.957  1.1907 -2.8307 -1.9547
12132SOL    HW240439   1.696   1.429   0.983 -2.2214  0.1107  0.1982
12133SOL     OW40440   9.469   1.774   9.144  0.5557 -0.1372 -0.0036
12133SOL    HW140441   9.393   1.833   9.144  0.0629 -0.7600 -0.3107
12133SOL    HW240442   9.541   1.828   9.175  0.2899  0.8554 -1.0720
12134SOL     OW40443   6.647   2.928   2.184  0.3713 -0.4290 -0.2967
12134SOL    HW140444   6.670   2.971   2.101  3.4337 -2.1119 -0.4723
12134SOL    HW240445   6.696   2.977   2.251 -0.7816 -0.0869  0.3145
12135SOL     OW40446   9.362   5.582   6.857 -0.0611  0.0140 -0.1658
12135SOL    HW140447   9.361   5.492   6.825 -3.3375 -0.4176  0.7707
12135SOL    HW240448   9.428   5.583   6.925  0.1082 -1.6637 -0.2751
12136SOL     OW40449   6.300   2.539   3.226  0.2240 -0.5817 -0.1170
12136SOL    HW140450   6.249   2.491   3.161  0.0261 -1.7395  0.8560
12136SOL    HW240451   6.385   2.496   3.226  0.5054 -0.0311 -0.2149
12137SOL     OW40452   0.454   7.395   6.753  0.1138 -0.2008  0.2383
12137SOL    HW140453   0.419   7.351   6.831 -1.4260 -0.9062 -0.8075
12137SOL    HW240454   0.523   7.336   6.722 -0.2935 -0.6764  0.2215
12138SOL     OW40455   7.302   7.299   2.633 -0.5949  0.0438  0.2689
12138SOL    HW140456   7.376   7.316   2.575  1.0248 -0.7913  1.9608
12138SOL    HW240457   7.343   7.266   2.714 -2.7768  0.3117  1.5547
12139SOL     OW40458   1.724   1.369   2.789 -0.2013  0.0262 -0.1118
12139SOL    HW140459   1.706   1.283   2.827  0.8777  0.0044  0.3882
12139SOL    HW240460   1.645   1.420   2.807 -0.1799 -0.3450  1.1288
12140SOL     OW40461   9.726   7.174   0.058 -0.0845 -0.2471 -0.4913
12140SOL    HW140462   9.778   7.157  -0.021 -1.3097  0.8654 -1.6014
12140SOL    HW240463   9.644   7.127   0.043  0.7341 -2.4658  1.4907
12141SOL     OW40464   3.466   3.560   9.276  0.0784 -0.5335  0.4602
12141SOL    HW140465   3.413   3.484   9.299  2.1623 -1.8534  1.2180
12141SOL    HW240466   3.533   3.563   9.345  3.0408 -1.0855 -2.1852
12142SOL     OW40467   7.100   7.897   7.001 -0.2108  0.4786 -0.8065
12142SOL    HW140468   7.021   7.856   7.037  0.3929 -0.1929 -0.2176
12142SOL    HW240469   7.169   7.875   7.063  0.6511  0.1745 -1.8430
12143SOL     OW40470   5.922   4.351   2.950  0.3718  0.4197 -0.4506
12143SOL    HW140471   5.936   4.258   2.930  0.8108 -0.2203  2.3752
12143SOL    HW240472   5.833   4.369   2.919 -0.2287 -1.3293  0.1380
12144SOL     OW40473   4.018   0.007   5.198 -0.1322  0.1544  0.2759
12144SOL    HW140474   3.960   0.044   5.131  0.2870 -0.0588 -0.2115
12144SOL    HW240475   4.001   0.060   5.276 -3.3656 -1.8730  1.1570
12145SOL     OW40476   1.178   7.635   7.267 -0.6982 -0.0088 -0.3952
12145SOL    HW140477   1.128   7.600   7.340 -1.6378 -0.0825 -1.0539
12145SOL    HW240478   1.131   7.605   7.189 -0.2817  0.8837 -1.0129
12146SOL     OW40479   8.134   0.275   5.225  0.3754 -0.1760 -0.1054
12146SOL    HW140480   8.056   0.325   5.251  0.0091 -0.2313 -1.0688
12146SOL    HW240481   8.128   0.269   5.130  2.1383  0.7520 -0.3173
12147SOL     OW40482   5.034   3.542   9.613  0.3576  0.3375  0.0146
12147SOL    HW140483   5.109   3.584   9.572  1.5371 -1.4523  0.2195
12147SOL    HW240484   5.046   3.558   9.706  0.9796 -0.6236  0.1217
12148SOL     OW40485   8.046   8.358   0.319  0.2860  0.9661 -0.2333
12148SOL    HW140486   8.120   8.302   0.295 -0.6778 -0.2582 -0.4531
12148SOL    HW240487   7.985   8.349   0.246 -0.0520  2.0359 -0.0959
12149SOL     OW40488   9.572   5.872   8.515  0.1565  0.9675  0.1937
12149SOL    HW140489   9.512   5.863   8.589  0.1225  1.6017  0.2434
12149SOL    HW240490   9.637   5.803   8.528  0.9627  1.9495  1.5815
12150SOL     OW40491   6.487   6.419   9.280  0.2541 -0.1383 -0.1060
12150SOL    HW140492   6.544   6.492   9.257  0.5591 -0.3915 -0.1681
12150SOL    HW240493   6.476   6.370   9.198  0.5305 -0.4837  0.0567
12151SOL     OW40494   5.791   2.710   1.540 -0.1629  0.2265  0.7989
12151SOL    HW140495   5.864   2.647   1.535 -1.0243 -0.7872  0.5808
12151SOL    HW240496   5.807   2.758   1.621  0.4063 -0.4323  1.0882
12152SOL     OW40497   2.257   8.020   7.105 -0.0402  0.0811  0.0933
12152SOL    HW140498   2.185   7.957   7.100  0.1935 -0.1398 -0.7795
12152SOL    HW240499   2.225   8.096   7.055 -0.2162  0.5513  0.9136
12153SOL     OW40500   1.132   0.214   9.074 -0.0110  0.4072  0.4027
12153SOL    HW140501   1.086   0.184   8.995  0.7570 -1.7513  0.6970
12153SOL    HW240502   1.216   0.247   9.041 -0.0979  0.4657  0.2374
12154SOL     OW40503   0.629   4.429   9.454 -0.0205 -0.2431 -0.0337
12154SOL    HW140504   0.720   4.412   9.477 -0.2275 -1.2691  0.0556
12154SOL    HW240505   0.600   4.495   9.517  0.3495 -0.6869  0.6106
12155SOL     OW40506   6.857   6.606   3.546 -0.2332  0.1916 -0.2875
12155SOL    HW140507   6.889   6.520   3.520  1.6797  0.6634  0.3223
12155SOL    HW240508   6.801   6.634   3.473  0.4934 -0.8343 -1.2708
12156SOL     OW40509   8.752   8.676   6.255 -0.4398 -0.2396  0.1157
12156SOL    HW140510   8.754   8.761   6.211 -1.1650  0.5458  1.5323
12156SOL    HW240511   8.672   8.634   6.224 -0.5775  0.0012  0.1451
12157SOL     OW40512   3.720   0.391   3.845 -0.1750 -0.0021  0.0135
12157SOL    HW140513   3.719   0.487   3.843 -0.6566  0.0161  0.7460
12157SOL    HW240514   3.790   0.367   3.784 -1.5605  0.7410 -1.9888
12158SOL     OW40515   0.821   6.476   0.463  0.0267  0.0136 -0.1077
12158SOL    HW140516   0.737   6.521   0.466  0.6964  2.1554 -4.4735
12158SOL    HW240517   0.800   6.383   0.473 -2.5472  0.6361  0.8925
12159SOL     OW40518   6.720   8.518   4.136  0.2343  0.7209  0.1593
12159SOL    HW140519   6.688   8.443   4.085  0.0160 -0.8506  2.4865
12159SOL    HW240520   6.815   8.516   4.124  0.2877 -0.3031  0.6712
12160SOL     OW40521   5.619   6.013   6.770 -0.2488  0.0363 -0.6344
12160SOL    HW140522   5.559   6.045   6.837  2.0955  0.0599  1.5793
12160SOL    HW240523   5.596   5.921   6.758  0.3475 -0.4268  1.4916
12161SOL     OW40524   0.735   6.446   3.422  0.2333 -0.3064  0.2604
12161SOL    HW140525   0.785   6.425   3.500  1.0794 -1.0896 -0.4676
12161SOL    HW240526   0.734   6.542   3.419  0.1008 -0.2727  1.2744
12162SOL     OW40527   4.957   9.618   2.152  0.2355  0.5235 -0.0029
12162SOL    HW140528   4.959   9.583   2.063 -3.0132  2.0679 -0.8433
12162SOL    HW240529   5.011   9.697   2.147  0.2449  0.4874 -0.5717
12163SOL     OW40530   3.130   4.990   0.809  0.1486 -0.1656  0.0337
12163SOL    HW140531   3.095   5.078   0.797  1.5840  0.6656  1.5264
12163SOL    HW240532   3.156   4.987   0.901  0.3888 -2.0788 -0.0418
12164SOL     OW40533   4.732   4.293   8.546 -0.3652 -0.3714  0.3167
12164SOL    HW140534   4.815   4.253   8.574 -0.6562  0.3290  2.2729
12164SOL    HW240535   4.753   4.386   8.537 -0.6263 -0.3881 -0.5070
12165SOL     OW40536   3.770   4.906   3.043 -0.1761 -0.0373  0.2079
12165SOL    HW140537   3.697   4.900   3.105 -0.3247 -2.2897 -0.1002
12165SOL    HW240538   3.836   4.959   3.089 -1.1007  0.1413  1.4031
12166SOL     OW40539   7.747   9.459   5.868 -0.7179  0.1856 -0.0797
12166SOL    HW140540   7.782   9.379   5.830 -0.1138  0.0859  0.6680
12166SOL    HW240541   7.653   9.441   5.878 -0.1894 -1.5559  2.7014
12167SOL     OW40542   7.563   5.152   8.018  0.1630  0.2354  0.4348
12167SOL    HW140543   7.486   5.095   8.026  0.4911 -0.0936  1.3510
12167SOL    HW240544   7.553   5.216   8.088  1.5383 -0.8131  1.6452
12168SOL     OW40545   0.253   9.516   7.437  0.1257  0.0182 -0.9893
12168SOL    HW140546   0.186   9.452   7.464  0.8160 -0.2198  0.1906
12168SOL    HW240547   0.335   9.468   7.442  0.7352  1.1423  0.5095
12169SOL     OW40548   3.156   1.593   9.345 -0.6183 -0.2040  0.3847
12169SOL    HW140549   3.111   1.603   9.429  0.6689 -0.6516  1.1466
12169SOL    HW240550   3.239   1.639   9.356 -1.8905  3.0388 -1.9194
12170SOL     OW40551   2.378   3.188   4.985 -0.0548  0.4612 -0.1392
12170SOL    HW140552   2.437   3.248   4.941  2.5327 -1.0264  1.0494
12170SOL    HW240553   2.391   3.206   5.078  0.4396 -1.5176  0.2252
12171SOL     OW40554   9.212   4.369   5.821  0.1495  0.2126  0.0886
12171SOL    HW140555   9.193   4.284   5.860 -4.9967  0.6427 -0.7068
12171SOL    HW240556   9.251   4.348   5.736  0.4830 -1.2602  0.5759
12172SOL     OW40557   9.413   9.880   9.179 -0.1922  0.4253 -0.3965
12172SOL    HW140558   9.501   9.915   9.187  0.1081 -0.3108 -0.4229
12172SOL    HW240559   9.379   9.879   9.268  0.1406 -0.0780 -0.2710
12173SOL     OW40560   6.203   4.899   8.403 -0.1664 -0.4998  0.5735
12173SOL    HW140561   6.247   4.856   8.477 -0.2721  1.7533  2.0505
12173SOL    HW240562   6.110   4.885   8.419 -0.2289  0.7118  1.3955
12174SOL     OW40563   0.839   4.326   2.199  0.1404 -0.0223  0.4500
12174SOL    HW140564   0.792   4.244   2.217 -1.1088  0.9957  2.1809
12174SOL    HW240565   0.775   4.379   2.151  1.6361 -0.7106 -2.5663
12175SOL     OW40566   8.675   7.368   6.899  0.6134 -0.7049  0.1585
12175SOL    HW140567   8.589   7.359   6.858  0.0346  3.3424  0.0432
12175SOL    HW240568   8.658   7.363   6.993  0.2966 -0.3313  0.1235
12176SOL     OW40569   8.749   5.128   9.057  0.0179 -0.0541  0.7255
12176SOL    HW140570   8.727   5.148   8.966  0.7881  1.3595  0.8261
12176SOL    HW240571   8.755   5.213   9.100  0.0652 -0.6759  2.0214
12177SOL     OW40572   1.898   5.859   6.179  0.6493 -0.1074  0.5425
12177SOL    HW140573   1.818   5.880   6.130  0.2220  1.4307  1.8169
12177SOL    HW240574   1.926   5.943   6.216  1.9941 -0.9017  1.4019
12178SOL     OW40575   7.818   5.006   7.566 -0.0282  0.0974 -0.0704
12178SOL    HW140576   7.776   5.058   7.635 -0.5020 -0.9606  0.4674
12178SOL    HW240577   7.874   4.944   7.613 -0.5982 -0.8470 -0.5957
12179SOL     OW40578   8.686   6.979   3.899 -0.0235  0.2341  0.6936
12179SOL    HW140579   8.756   6.956   3.838  0.6861  2.2970  0.6412
12179SOL    HW240580   8.613   7.005   3.842  0.0656  0.5404  0.7140
12180SOL     OW40581   9.797   0.300   0.578  0.5434  0.6654 -0.7039
12180SOL    HW140582   9.890   0.295   0.556  0.9715  0.5166  0.9966
12180SOL    HW240583   9.796   0.301   0.674 -1.0856  2.6443 -0.6754
12181SOL     OW40584   5.406   4.395   4.830 -0.0452  0.0423  0.6280
12181SOL    HW140585   5.484   4.401   4.776 -0.6022  0.1012 -0.1860
12181SOL    HW240586   5.414   4.467   4.892 -0.3505  1.2232 -0.6671
12182SOL     OW40587   3.237   7.583   3.646  0.6003  0.4507 -0.3956
12182SOL    HW140588   3.309   7.628   3.601  3.8701 -2.5445  1.2832
12182SOL    HW240589   3.185   7.544   3.576  2.4940  0.1099 -1.6866
12183SOL     OW40590   3.583   9.259   2.451  0.4415 -0.4300  0.0286
12183SOL    HW140591   3.557   9.207   2.527 -0.8663  0.9114  0.5255
12183SOL    HW240592   3.676   9.278   2.465  0.3161 -0.5670  1.0574
12184SOL     OW40593   9.858   6.393   3.150  0.1459 -0.2713  0.1218
12184SOL    HW140594   9.777   6.444   3.156  1.4859  2.3343 -1.8486
12184SOL    HW240595   9.849   6.344   3.068 -0.0649 -1.2769  0.7268
12185SOL     OW40596   6.102   1.387   1.804  0.0385 -0.0605 -0.0070
12185SOL    HW140597   6.106   1.360   1.895  1.2175 -1.2924 -0.3748
12185SOL    HW240598   6.137   1.311   1.756  2.4584  1.6976 -1.2175
12186SOL     OW40599   5.623   4.148   6.779  0.2636  0.1105 -0.0335
12186SOL    HW140600   5.659   4.065   6.814 -0.1058  0.5084  1.3637
12186SOL    HW240601   5.671   4.216   6.826 -1.1625  0.6688  0.6675
12187SOL     OW40602   4.521   6.335   2.472  0.4471  0.2761  0.1005
12187SOL    HW140603   4.503   6.382   2.390 -0.6204  1.0107  0.7431
12187SOL    HW240604   4.506   6.243   2.450 -0.8654  0.5636 -0.2567
12188SOL     OW40605   8.161   1.226   2.729  0.0626  0.5486  0.4028
12188SOL    HW140606   8.254   1.218   2.749  0.1421  1.0240  0.2258
12188SOL    HW240607   8.132   1.136   2.714  0.5475  0.4237  0.2072
12189SOL     OW40608  10.242   0.078   0.790  0.1965 -0.3648 -0.4924
12189SOL    HW140609  10.324   0.040   0.760  0.3916  0.7965 -1.4999
12189SOL    HW240610  10.181   0.064   0.717  0.2233  1.0348 -0.8125
12190SOL     OW40611   0.858   6.505   0.097  0.2460  0.0846  0.5449
12190SOL    HW140612   0.793   6.575   0.098 -0.3852 -0.4953  1.2599
12190SOL    HW240613   0.939   6.546   0.129  0.0116  0.5911  0.4974
12191SOL     OW40614   3.437   2.266   1.679 -0.3070 -0.0274  0.0291
12191SOL    HW140615   3.495   2.303   1.745 -0.5891  0.0227  0.2548
12191SOL    HW240616   3.379   2.207   1.728 -0.3954 -0.1339 -0.2010
12192SOL     OW40617   5.380   0.865   7.390  0.0711 -0.3778 -0.2913
12192SOL    HW140618   5.293   0.884   7.357 -0.3014 -0.2334  0.7329
12192SOL    HW240619   5.400   0.937   7.450  0.6561 -0.7040 -0.0819
12193SOL     OW40620   4.635   9.659   8.325  0.2953 -0.2642  0.2587
12193SOL    HW140621   4.718   9.673   8.371  1.1806 -1.9936 -0.7238
12193SOL    HW240622   4.651   9.582   8.270 -1.7273 -0.1595 -0.5392
12194SOL     OW40623   9.991   0.865   9.388  0.4271 -0.2575 -0.8601
12194SOL    HW140624  10.039   0.944   9.365  3.1796 -1.6277 -0.2687
12194SOL    HW240625  10.040   0.794   9.345 -1.5449 -1.7153 -0.8281
12195SOL     OW40626   5.378   8.821   6.421 -0.1959 -0.2815 -0.0279
12195SOL    HW140627   5.336   8.857   6.343 -0.5390 -1.6444 -0.5019
12195SOL    HW240628   5.319   8.842   6.493  0.4638  1.5990  0.0093
12196SOL     OW40629   6.846   6.859   5.747 -0.3242  0.3891  0.4825
12196SOL    HW140630   6.910   6.928   5.766 -0.7680  0.3678  2.2644
12196SOL    HW240631   6.845   6.804   5.825  0.5954 -2.1820 -1.1866
12197SOL     OW40632   5.785  10.224   9.468  0.2890 -0.0041 -0.6084
12197SOL    HW140633   5.772  10.242   9.561 -0.4227  0.0763 -0.7136
12197SOL    HW240634   5.696  10.227   9.431  0.6594  1.1332 -1.4892
12198SOL     OW40635   1.418   9.928   3.345 -0.1720 -0.0758  0.2356
12198SOL    HW140636   1.453   9.986   3.277 -1.2748  0.7849  0.3645
12198SOL    HW240637   1.363   9.866   3.298 -0.5974  0.2591  0.2722
12199SOL     OW40638   0.195   4.259   8.422 -0.0697  0.4171 -0.2166
12199SOL    HW140639   0.140   4.332   8.391  0.7919  0.2506 -2.2877
12199SOL    HW240640   0.162   4.240   8.510  0.3815  4.0513  0.9187
12200SOL     OW40641   6.810   2.775   5.531 -0.5399 -0.2892 -0.3787
12200SOL    HW140642   6.884   2.716   5.522  0.1274 -0.0953  2.7248
12200SOL    HW240643   6.735   2.717   5.548 -0.4149 -0.3572 -0.0537
12201SOL     OW40644   7.670   6.930   9.473  0.3870 -0.6017 -0.0712
12201SOL    HW140645   7.761   6.958   9.480  0.3216  0.5019 -2.7265
12201SOL    HW240646   7.623   7.008   9.445 -1.4311 -1.1341  1.3112
12202SOL     OW40647   2.994   6.682   0.125 -0.4544 -0.0192  0.8106
12202SOL    HW140648   2.972   6.599   0.083 -1.9273  1.4544 -1.6077
12202SOL    HW240649   2.909   6.727   0.135  0.3895  1.5994  1.0504
12203SOL     OW40650   0.312   9.053   6.759 -0.0290 -0.0759  0.1788
12203SOL    HW140651   0.267   9.119   6.705 -0.8461 -0.2749  0.5931
12203SOL    HW240652   0.263   8.972   6.743  1.6793 -0.8853 -1.2354
12204SOL     OW40653   9.900   7.159   1.835  0.3232 -0.4366 -0.6305
12204SOL    HW140654   9.930   7.152   1.926 -1.4804  0.3335  0.0857
12204SOL    HW240655   9.979   7.150   1.783  1.6283  0.5096  1.0706
12205SOL     OW40656   2.079   0.407   4.410 -0.1330 -0.2426  0.3580
12205SOL    HW140657   2.162   0.412   4.362 -0.4591 -0.9527 -0.3103
12205SOL    HW240658   2.063   0.497   4.439 -0.5997  0.5344 -2.0689
12206SOL     OW40659   0.020   5.991   2.452  0.0651 -0.3278  0.0991
12206SOL    HW140660   0.085   5.936   2.408 -1.0311 -1.5918 -0.0106
12206SOL    HW240661   0.064   6.023   2.530  1.6471  0.9680 -1.2524
12207SOL     OW40662   0.949   4.546   7.017 -0.7805 -0.4050  0.3526
12207SOL    HW140663   0.950   4.454   6.992  0.9505 -0.3329  0.0462
12207SOL    HW240664   1.014   4.553   7.087  1.2411  1.0238 -1.5117
12208SOL     OW40665   6.995   2.746   5.305  0.6719  0.4371 -0.1994
12208SOL    HW140666   6.951   2.672   5.262 -1.4745  0.9672  0.8961
12208SOL    HW240667   7.046   2.705   5.375  0.2869 -0.0807 -0.2100
12209SOL     OW40668   9.365   7.322   9.318 -0.0738 -0.1479  0.0980
12209SOL    HW140669   9.286   7.274   9.294 -0.0757  0.8037 -1.9857
12209SOL    HW240670   9.435   7.277   9.271  0.0011  1.4901 -1.4444
12210SOL     OW40671   8.179   1.765   3.370  0.0382  0.2377  0.0168
12210SOL    HW140672   8.183   1.709   3.448 -1.5312  0.6033  0.3913
12210SOL    HW240673   8.265   1.756   3.330  0.4280 -1.0099  1.0633
12211SOL     OW40674   2.981   0.039   0.793 -0.2408  0.2886 -0.4086
12211SOL    HW140675   2.950   0.011   0.706 -0.1902 -0.3577 -0.2159
12211SOL    HW240676   2.911   0.096   0.825 -0.4920  0.1224 -0.6574
12212SOL     OW40677   4.482   3.293   8.402 -0.2141  0.0731 -0.1655
12212SOL    HW140678   4.456   3.205   8.378 -0.9521  0.3609 -0.4576
12212SOL    HW240679   4.486   3.292   8.498 -0.9073 -0.0956 -0.1340
12213SOL     OW40680   1.837   7.652   0.783  0.0758 -0.2273 -0.2871
12213SOL    HW140681   1.809   7.669   0.873 -1.2764  0.3908 -0.7924
12213SOL    HW240682   1.931   7.637   0.789 -0.3736 -2.9644  1.5878
12214SOL     OW40683   9.462   6.436   9.084  0.6658 -0.2089  0.0534
12214SOL    HW140684   9.367   6.427   9.076  0.6892  0.0497 -0.5447
12214SOL    HW240685   9.493   6.347   9.101  0.4181 -0.4922 -0.8990
12215SOL     OW40686   3.092   7.372   3.796 -0.0328  0.2504  0.3618
12215SOL    HW140687   3.048   7.432   3.856  2.8718  0.4597  2.5322
12215SOL    HW240688   3.151   7.429   3.746 -2.3245  0.0693 -2.8295
12216SOL     OW40689   8.167   4.344   0.882  0.0719 -0.2029  0.3765
12216SOL    HW140690   8.073   4.354   0.901  0.5253 -0.0715  2.8863
12216SOL    HW240691   8.209   4.414   0.932  1.4769  0.6480 -1.8293
12217SOL     OW40692   0.911   8.772   8.782  0.1136  0.1996  0.2849
12217SOL    HW140693   0.823   8.799   8.757  1.2138  4.4898  0.3187
12217SOL    HW240694   0.903   8.740   8.872 -1.4451 -0.0582  0.0779
12218SOL     OW40695   5.173   0.358   3.606 -0.2582 -0.1644  0.5134
12218SOL    HW140696   5.174   0.341   3.512  0.8015  0.7210  0.3423
12218SOL    HW240697   5.192   0.273   3.646  1.6996 -0.0969 -0.1787
12219SOL     OW40698   5.003   3.178   8.247 -0.1514  0.3723 -0.0064
12219SOL    HW140699   5.012   3.254   8.189 -0.4651  0.4867  0.0916
12219SOL    HW240700   4.972   3.108   8.190  1.0781  0.0435 -0.2943
12220SOL     OW40701   5.113   3.618   5.407  0.9857  0.3094 -0.6156
12220SOL    HW140702   5.081   3.630   5.496  0.4591 -2.0126 -0.4438
12220SOL    HW240703   5.171   3.693   5.392  0.6308  1.0459  1.4465
12221SOL     OW40704   5.349   9.941   1.599 -0.5797  0.3444  0.5996
12221SOL    HW140705   5.287   9.899   1.659 -1.6660  1.4076  0.2550
12221SOL    HW240706   5.434   9.926   1.640 -0.8508 -2.2795  0.4280
12222SOL     OW40707   0.818  10.009   8.608 -0.0831  0.2624 -0.3441
12222SOL    HW140708   0.764  10.086   8.623 -0.7768 -0.0755 -1.0234
12222SOL    HW240709   0.828   9.969   8.694 -0.0653  0.8818 -0.0537
12223SOL     OW40710   3.191   9.852   9.043  0.7593 -0.0601  0.2773
12223SOL    HW140711   3.101   9.864   9.073  0.7817  0.9965 -0.0426
12223SOL    HW240712   3.236   9.813   9.118  0.4062  0.8976  1.0136
12224SOL     OW40713   3.519   1.697   1.228 -0.1996 -0.2953 -0.7570
12224SOL    HW140714   3.564   1.741   1.301  0.3270 -0.3843 -1.0232
12224SOL    HW240715   3.481   1.619   1.267  1.9146 -1.5078 -0.9705
12225SOL     OW40716   7.283   7.496   1.719 -0.0371 -0.4257 -0.2070
12225SOL    HW140717   7.276   7.406   1.750  0.4454 -0.6815 -0.8170
12225SOL    HW240718   7.340   7.490   1.642 -0.2541  0.3546 -0.4328
12226SOL     OW40719   3.956   1.197   3.657 -0.1702 -0.2004 -0.3362
12226SOL    HW140720   3.869   1.160   3.674 -0.4666  1.1897  1.5063
12226SOL    HW240721   4.014   1.149   3.717 -0.0719  0.3899  0.0462
12227SOL     OW40722   4.961   2.619   5.018 -0.3267  0.1670 -0.2527
12227SOL    HW140723   4.883   2.673   5.006 -0.4768  0.6677  2.4744
12227SOL    HW240724   4.937   2.535   4.980 -1.4414  0.8971 -1.2509
12228SOL     OW40725   7.461   9.437   5.680 -0.5196  0.0782  0.3557
12228SOL    HW140726   7.381   9.389   5.659 -0.8193  0.6829  0.1044
12228SOL    HW240727   7.479   9.417   5.772 -1.5273  0.7515  0.7118
12229SOL     OW40728   2.391   8.604   4.855 -0.3400  0.2309 -0.2071
12229SOL    HW140729   2.374   8.532   4.916  0.8953  0.3627  0.3257
12229SOL    HW240730   2.462   8.571   4.799 -0.1899  0.8007 -0.3556
12230SOL     OW40731   7.797   4.369   5.812 -0.2027 -0.0375  0.3461
12230SOL    HW140732   7.794   4.323   5.729  0.6819 -0.7354  0.6820
12230SOL    HW240733   7.720   4.338   5.860 -0.5868  0.1959 -0.1225
12231SOL     OW40734   3.350   1.950   3.423 -0.3321  0.4748 -0.3247
12231SOL    HW140735   3.443   1.943   3.402  0.2699 -0.4268  2.2244
12231SOL    HW240736   3.318   1.860   3.423 -0.3383  0.4058  1.9386
12232SOL     OW40737   3.055   5.692   3.637 -0.3242  0.5810  0.0106
12232SOL    HW140738   3.063   5.618   3.698  1.8359 -0.1270 -1.0117
12232SOL    HW240739   3.005   5.758   3.686 -0.0785 -0.5680  1.9343
12233SOL     OW40740   3.313   5.703   8.157  0.1961 -0.1079  0.2808
12233SOL    HW140741   3.406   5.686   8.139  0.3254 -0.4497  1.2307
12233SOL    HW240742   3.313   5.789   8.198 -0.0701  0.5527 -1.0667
12234SOL     OW40743   7.886   3.072   0.862  0.1457 -0.1555 -0.1799
12234SOL    HW140744   7.894   3.001   0.798  0.4993  0.0359 -0.3497
12234SOL    HW240745   7.856   3.147   0.812 -2.1649 -0.6703  0.3292
12235SOL     OW40746   5.915   7.307   2.973 -0.1683  0.2127 -0.1718
12235SOL    HW140747   5.932   7.350   2.890 -1.3405  0.3336 -0.3731
12235SOL    HW240748   5.927   7.214   2.955  1.2918  0.3519 -0.0148
12236SOL     OW40749   3.921   3.046   8.452 -0.0569  0.3213  0.1578
12236SOL    HW140750   3.861   3.032   8.525  0.2409  0.3512  0.4118
12236SOL    HW240751   3.946   3.138   8.460 -1.4430  0.8416 -1.0728
12237SOL     OW40752   9.367   9.408   9.381  0.2831  0.0459 -0.3425
12237SOL    HW140753   9.310   9.402   9.457  1.5632 -1.1194  0.5890
12237SOL    HW240754   9.318   9.366   9.310 -0.0819 -0.8280  0.4112
12238SOL     OW40755   1.837   2.274   3.866 -0.0863 -0.0737  0.3684
12238SOL    HW140756   1.863   2.229   3.785  0.5377 -0.8903  0.9963
12238SOL    HW240757   1.852   2.209   3.935 -3.1685 -0.3651  0.9017
12239SOL     OW40758   3.093   7.381   7.930  0.3058  0.0684 -0.4220
12239SOL    HW140759   3.179   7.392   7.972  1.6117 -2.0329 -2.3506
12239SOL    HW240760   3.113   7.355   7.840 -2.3793 -0.8710 -0.8331
12240SOL     OW40761   0.357   4.997   8.097  0.2533 -0.1116  0.1828
12240SOL    HW140762   0.403   4.941   8.161  1.6802  0.6512 -0.1218
12240SOL    HW240763   0.329   5.073   8.148  1.4722  0.5397 -0.0795
12241SOL     OW40764   3.645  10.022   1.997  0.7095  0.1820 -0.2491
12241SOL    HW140765   3.639   9.964   1.921  1.0638  0.4810 -0.5064
12241SOL    HW240766   3.731  10.063   1.990 -0.0577  1.7644 -0.7996
12242SOL     OW40767   4.399   7.072   1.288  0.0648 -0.4029  0.2606
12242SOL    HW140768   4.331   7.140   1.298  0.9155  0.6028 -0.4938
12242SOL    HW240769   4.407   7.061   1.193 -0.1445 -1.6697  0.3773
12243SOL     OW40770   1.150   4.373   3.625  0.0773 -0.2857 -0.0470
12243SOL    HW140771   1.208   4.375   3.549 -0.2543 -1.8295 -0.3710
12243SOL    HW240772   1.194   4.427   3.690  0.7053  0.5002 -1.0882
12244SOL     OW40773   0.441   9.201   4.854 -0.1674  0.1539  0.5232
12244SOL    HW140774   0.373   9.249   4.807 -0.0270 -0.1863 -0.0438
12244SOL    HW240775   0.464   9.257   4.928 -1.6128 -0.0776  1.1780
12245SOL     OW40776   6.124   0.050   7.970 -0.0124 -0.5010 -0.3462
12245SOL    HW140777   6.064   0.020   8.038 -0.5129  0.5830 -0.2971
12245SOL    HW240778   6.067   0.093   7.906  0.7533  0.9881 -0.0547
12246SOL     OW40779   8.506   1.889   8.087 -0.8124  0.3751 -0.3854
12246SOL    HW140780   8.580   1.882   8.147 -0.4061 -2.2548 -1.0501
12246SOL    HW240781   8.438   1.835   8.128 -1.7202  1.2853 -0.6741
12247SOL     OW40782   9.165   3.455   2.421 -0.4080  0.0197  0.4660
12247SOL    HW140783   9.112   3.397   2.475 -4.9849  2.0102 -1.3551
12247SOL    HW240784   9.155   3.541   2.460  0.5160  0.6708 -0.6530
12248SOL     OW40785   0.970  10.222   2.880 -0.3405 -0.1712 -0.0720
12248SOL    HW140786   0.969  10.131   2.911 -2.1455 -0.3305 -0.4493
12248SOL    HW240787   0.940  10.217   2.790 -1.0667  0.8417  0.0917
12249SOL     OW40788   4.499   9.121   2.324  0.0118  0.1740 -0.0792
12249SOL    HW140789   4.522   9.053   2.387  0.6526 -0.7475 -1.2887
12249SOL    HW240790   4.447   9.076   2.258 -0.1304  1.0065 -0.5449
12250SOL     OW40791   4.431   6.881   0.809 -0.5314  0.8087 -0.6143
12250SOL    HW140792   4.372   6.812   0.839 -0.7926  1.0729 -0.5182
12250SOL    HW240793   4.405   6.897   0.718  0.2124  0.0580 -0.9749
12251SOL     OW40794   6.130   7.259   6.357 -0.0497 -0.2772  0.1417
12251SOL    HW140795   6.151   7.169   6.331 -0.9591 -0.9078  1.4694
12251SOL    HW240796   6.106   7.302   6.275  3.5217 -0.2487 -1.0996
12252SOL     OW40797   8.145   4.468   5.470 -0.6472  0.6553  0.2829
12252SOL    HW140798   8.115   4.469   5.561  0.5191 -0.9270  0.7332
12252SOL    HW240799   8.239   4.482   5.476 -0.6671  1.3037 -0.7565
12253SOL     OW40800   7.708   6.071   1.603  0.4243 -0.1366  0.7975
12253SOL    HW140801   7.778   6.134   1.617  1.3073 -0.8831 -0.0586
12253SOL    HW240802   7.750   5.985   1.612 -0.1477 -0.6096 -0.6366
12254SOL     OW40803   5.149   3.426   8.888  0.0662 -0.3199 -0.4132
12254SOL    HW140804   5.213   3.357   8.872 -1.2973 -2.0576  1.2413
12254SOL    HW240805   5.191   3.484   8.951  0.2640 -1.1120  0.1971
12255SOL     OW40806   6.006   9.072   1.858  0.3630 -0.2676 -0.2003
12255SOL    HW140807   6.079   9.114   1.811  0.3704 -0.4448 -0.3491
12255SOL    HW240808   5.938   9.138   1.860  1.1013  0.4910  1.3722
12256SOL     OW40809   1.503   5.453   9.865 -0.4110  0.4826  0.0738
12256SOL    HW140810   1.515   5.548   9.858 -1.9145  0.7478  0.6610
12256SOL    HW240811   1.469   5.428   9.779  2.3532  0.0178 -0.9703
12257SOL     OW40812   1.369   7.744   0.117  0.6023 -0.0668  0.4476
12257SOL    HW140813   1.351   7.650   0.107 -0.6809  0.0363  1.5929
12257SOL    HW240814   1.449   7.758   0.066  1.4870 -2.0212  1.2056
12258SOL     OW40815   4.395   7.708   8.211  0.3654  1.1254 -0.2061
12258SOL    HW140816   4.447   7.731   8.288  1.1829 -0.8106 -0.1316
12258SOL    HW240817   4.327   7.649   8.244  1.2700 -0.4505 -1.0421
12259SOL     OW40818   4.173   2.116   3.436  0.0230 -0.5447 -0.3183
12259SOL    HW140819   4.098   2.057   3.447 -0.3823  0.3140  2.0582
12259SOL    HW240820   4.217   2.114   3.520  1.5647  0.4867 -1.0723
12260SOL     OW40821   7.139   1.629   7.784 -0.4518  0.0207 -0.4373
12260SOL    HW140822   7.115   1.547   7.827  2.0562 -0.5097  0.1198
12260SOL    HW240823   7.163   1.604   7.695  1.1278 -0.0442 -0.0257
12261SOL     OW40824   6.643   4.134   1.155 -0.0032 -0.3565  0.4030
12261SOL    HW140825   6.558   4.149   1.114 -0.1337  0.1802  0.8515
12261SOL    HW240826   6.702   4.113   1.083 -0.1315  0.9826 -0.1212
12262SOL     OW40827   4.146   9.463   6.263  0.4524 -0.7379 -0.0702
12262SOL    HW140828   4.145   9.442   6.357 -0.0475  0.2970  0.1771
12262SOL    HW240829   4.225   9.516   6.252  0.2176 -0.3892 -0.1109
12263SOL     OW40830   3.251   8.074   4.451 -0.3691  0.1730 -0.3009
12263SOL    HW140831   3.163   8.088   4.416 -0.8811 -0.1804  0.7895
12263SOL    HW240832   3.303   8.048   4.376 -0.5277  3.0209 -1.5137
12264SOL     OW40833   7.955   3.441   5.421  0.1735 -0.0297  0.2372
12264SOL    HW140834   8.008   3.433   5.342  0.9071  0.3505  0.6797
12264SOL    HW240835   8.018   3.438   5.493 -0.6561 -3.3863  1.0172
12265SOL     OW40836   6.828   6.779   5.262  0.3883  0.6839 -0.1034
12265SOL    HW140837   6.815   6.872   5.247  0.6737  1.0275  1.5967
12265SOL    HW240838   6.878   6.774   5.344  0.2174 -0.9598 -0.0539
12266SOL     OW40839   5.472   0.915   7.872 -0.2383  0.6314 -0.6695
12266SOL    HW140840   5.411   0.857   7.917 -0.7062  1.5849 -0.0266
12266SOL    HW240841   5.558   0.892   7.907 -0.0773 -1.2384 -2.1252
12267SOL     OW40842   2.467   9.009   3.180  0.0230  0.1696 -0.0493
12267SOL    HW140843   2.542   8.953   3.162 -0.3933 -0.2926 -0.3555
12267SOL    HW240844   2.399   8.978   3.121 -0.4940  0.4189  0.4084
12268SOL     OW40845   0.570   0.019   5.206  0.0663  0.1069  0.0531
12268SOL    HW140846   0.600   0.071   5.132  1.6563 -1.6778 -0.6280
12268SOL    HW240847   0.481  -0.006   5.182  0.2185  0.3498 -0.8014
12269SOL     OW40848   5.959   0.132   8.764 -0.4460 -0.4562 -0.0637
12269SOL    HW140849   5.886   0.164   8.712 -1.0300  2.7767  2.4218
12269SOL    HW240850   5.920   0.104   8.846  0.9042 -0.1607  0.7177
12270SOL     OW40851   2.045   7.132   7.395  0.4986 -0.0370  0.1130
12270SOL    HW140852   2.046   7.043   7.430 -0.1365 -0.3795 -0.7144
12270SOL    HW240853   2.137   7.150   7.372  0.5959 -0.5615  0.0924
12271SOL     OW40854   0.666   3.022   8.276 -0.0910 -0.1048  0.2838
12271SOL    HW140855   0.659   2.980   8.362 -0.1597  0.9547  0.8189
12271SOL    HW240856   0.643   3.114   8.293 -0.4933  0.0319 -0.9453
12272SOL     OW40857  10.133   8.871   1.097  0.1863 -0.1917 -0.1769
12272SOL    HW140858  10.165   8.816   1.169 -0.5809 -0.4524 -0.0366
12272SOL    HW240859  10.040   8.853   1.091  0.4837 -1.3318 -2.2482
12273SOL     OW40860   7.119   6.091   3.692  0.5309 -0.4135  0.1156
12273SOL    HW140861   7.107   6.136   3.775  0.8506 -0.0262 -0.0455
12273SOL    HW240862   7.052   6.022   3.692  0.0897  0.0038  0.4025
12274SOL     OW40863   9.650   0.193   2.671  0.1753 -0.3591 -0.2699
12274SOL    HW140864   9.566   0.238   2.672  0.5922  0.4340 -0.2272
12274SOL    HW240865   9.659   0.158   2.760  0.4913  0.7069  0.1326
12275SOL     OW40866   2.034   0.918   1.816 -0.2437  0.1826  0.0902
12275SOL    HW140867   2.048   1.005   1.779 -1.3355  0.4290  0.2113
12275SOL    HW240868   2.072   0.857   1.752 -0.2639  0.7075 -0.4258
12276SOL     OW40869   2.437   8.525   0.872  0.3777 -0.2227  0.0617
12276SOL    HW140870   2.532   8.535   0.862  0.7831 -0.7467  2.6999
12276SOL    HW240871   2.423   8.523   0.966 -1.9582 -3.0158 -0.2144
12277SOL     OW40872   2.054   3.346   9.933 -0.3557 -0.4892 -0.2651
12277SOL    HW140873   2.067   3.251   9.924 -1.0740 -0.5695 -0.4562
12277SOL    HW240874   2.047   3.360  10.027 -2.7548 -0.9713 -0.3275
12278SOL     OW40875   8.271   2.208   7.519  0.4491  0.4517 -0.4891
12278SOL    HW140876   8.344   2.260   7.554  0.6591 -0.2260  0.0901
12278SOL    HW240877   8.303   2.175   7.435  1.5962 -1.4804  0.6364
12279SOL     OW40878   7.960   5.783   7.134 -0.1301  0.0865 -0.4033
12279SOL    HW140879   7.987   5.736   7.054  1.5494  1.8535 -0.9392
12279SOL    HW240880   7.974   5.875   7.114  0.0554  0.6074  1.8511
12280SOL     OW40881   4.445   0.384   1.148 -0.0331  1.1082  0.6568
12280SOL    HW140882   4.497   0.369   1.069 -0.4559 -1.7463  0.8192
12280SOL    HW240883   4.505   0.367   1.221  0.2546  3.3775  1.0333
12281SOL     OW40884   8.205   7.526   0.761  0.3989  0.0784  0.0040
12281SOL    HW140885   8.267   7.546   0.692 -0.9465  2.6939 -0.5829
12281SOL    HW240886   8.250   7.550   0.842  0.9555 -0.2734 -0.1995
12282SOL     OW40887   8.289   1.583   8.652 -0.3608 -0.0911  0.0923
12282SOL    HW140888   8.206   1.590   8.700 -1.0223  0.2565 -1.0576
12282SOL    HW240889   8.315   1.492   8.662 -1.2238 -0.3643 -0.0573
12283SOL     OW40890   0.857   3.882   0.837 -0.2807  0.4158 -0.5379
12283SOL    HW140891   0.949   3.858   0.838 -0.4163 -0.1071 -0.1478
12283SOL    HW240892   0.832   3.885   0.930 -0.8809 -0.3416 -0.6646
12284SOL     OW40893   0.796   8.037   4.502 -0.2696  0.6516  0.1722
12284SOL    HW140894   0.721   7.984   4.477 -1.3995  1.7879  1.0367
12284SOL    HW240895   0.762   8.099   4.566  1.1112  2.0574 -0.3752
12285SOL     OW40896   0.932   6.818   0.174  0.1809  0.4214 -0.6082
12285SOL    HW140897   0.989   6.742   0.180 -0.4297  0.0240  0.4284
12285SOL    HW240898   0.991   6.892   0.163  0.8285 -0.0909 -0.6015
12286SOL     OW40899   8.313   3.340   0.850 -0.1789  0.0500  0.0078
12286SOL    HW140900   8.235   3.324   0.797  0.3457  1.5518 -1.3158
12286SOL    HW240901   8.373   3.270   0.827  0.6469  1.4909 -2.7361
12287SOL     OW40902   5.889   4.771   0.848  0.1137 -0.1047 -0.0914
12287SOL    HW140903   5.904   4.717   0.925  0.4768 -0.5430 -0.4670
12287SOL    HW240904   5.966   4.829   0.844  0.5959 -0.7624 -0.6833
12288SOL     OW40905   3.827   1.198   6.335  0.1924 -0.0669 -0.4583
12288SOL    HW140906   3.868   1.183   6.251  0.5639 -1.3018 -0.0771
12288SOL    HW240907   3.796   1.112   6.363  2.0065 -0.1306  1.6596
12289SOL     OW40908   2.756   1.554   2.120  0.0360  0.7414 -0.2953
12289SOL    HW140909   2.817   1.618   2.085  1.5318  0.2500  1.2432
12289SOL    HW240910   2.806   1.472   2.125 -0.8550  0.2112  0.6323
12290SOL     OW40911   9.891   2.050   9.776  0.1964  0.6290  0.4130
12290SOL    HW140912   9.946   1.973   9.760  1.0821  1.2864  0.2171
12290SOL    HW240913   9.909   2.074   9.867 -0.0221  0.6471  0.4510
12291SOL     OW40914   4.815   7.664   5.050  0.0203 -0.1547  0.5023
12291SOL    HW140915   4.747   7.618   5.001 -1.4282  1.0784  1.2785
12291SOL    HW240916   4.838   7.604   5.121  0.0021 -0.7253  0.0389
12292SOL     OW40917   3.915   2.402   9.966  0.0424  0.0813 -0.3022
12292SOL    HW140918   3.986   2.456  10.001  1.1402 -0.6046 -1.3996
12292SOL    HW240919   3.838   2.429  10.016  1.0545  0.8772  0.8959
12293SOL     OW40920   1.629   1.809   4.002 -0.3928 -0.1861 -0.1969
12293SOL    HW140921   1.684   1.845   3.933  0.1175 -0.8191 -0.1300
12293SOL    HW240922   1.686   1.747   4.048 -1.8423 -2.7433 -1.6618
12294SOL     OW40923   7.453   6.763   7.619  0.2463 -0.1224  0.2545
12294SOL    HW140924   7.396   6.800   7.687  2.8793  1.1979  1.8819
12294SOL    HW240925   7.483   6.839   7.569  0.0398 -0.8767 -1.0638
12295SOL     OW40926   1.233   1.686   6.367 -0.4419  0.5702 -0.1616
12295SOL    HW140927   1.228   1.646   6.280  1.8053 -1.0707  0.3669
12295SOL    HW240928   1.216   1.613   6.427  2.3562  0.6438  0.8201
12296SOL     OW40929   2.446   1.718   5.609 -0.2896  0.7257  0.5113
12296SOL    HW140930   2.510   1.756   5.669 -0.3240  1.7859 -0.0965
12296SOL    HW240931   2.485   1.729   5.522 -0.7735  0.3156  0.2350
12297SOL     OW40932   2.492   7.864   7.004  0.0588 -0.0477 -0.0851
12297SOL    HW140933   2.490   7.771   7.024  1.3537  0.2352  1.4715
12297SOL    HW240934   2.402   7.893   7.018 -0.8574 -1.3834 -2.5238
12298SOL     OW40935   2.442   4.105   0.581  0.4738 -0.3913  0.4250
12298SOL    HW140936   2.442   4.125   0.675  0.3046  1.3294  0.1051
12298SOL    HW240937   2.480   4.183   0.540  0.1604 -0.9345 -0.9692
12299SOL     OW40938   7.182   2.279   3.331  0.3753 -0.8608 -0.2373
12299SOL    HW140939   7.270   2.242   3.342  0.2167 -0.5030  3.2363
12299SOL    HW240940   7.197   2.372   3.317  0.5892 -0.5500  1.8120
12300SOL     OW40941   6.710   3.060   1.041 -0.0580 -0.0824  0.1556
12300SOL    HW140942   6.752   3.071   1.126  1.1609 -1.3604 -0.2362
12300SOL    HW240943   6.630   3.113   1.046  0.6360  0.8773  1.6203
12301SOL     OW40944   6.506   8.263   3.300 -0.0437 -0.7176 -0.1239
12301SOL    HW140945   6.539   8.321   3.368  1.2319 -0.4652 -0.9349
12301SOL    HW240946   6.429   8.222   3.339 -0.5823  1.0047  0.6990
12302SOL     OW40947   3.129   1.788   1.809 -0.3438  0.7347 -0.4256
12302SOL    HW140948   3.076   1.724   1.857  0.5276 -0.1191 -0.5675
12302SOL    HW240949   3.208   1.797   1.861  0.4139  0.1549 -1.4400
12303SOL     OW40950  10.180   2.178   4.363 -0.0454  0.1113  0.7793
12303SOL    HW140951  10.110   2.114   4.375 -0.0056 -0.0768  0.0572
12303SOL    HW240952  10.235   2.141   4.294  0.4052  0.5664  0.8854
12304SOL     OW40953   3.237   8.498   0.801  0.2995 -0.4957  0.1766
12304SOL    HW140954   3.275   8.554   0.869  0.1034 -0.4535  0.2530
12304SOL    HW240955   3.313   8.459   0.757  0.4162 -1.1890  0.9727
12305SOL     OW40956   4.467   4.485   4.570 -0.2624  0.5410 -0.1579
12305SOL    HW140957   4.511   4.414   4.522  0.4045  0.2801  0.8096
12305SOL    HW240958   4.376   4.481   4.540 -0.2151 -0.6557 -0.1953
12306SOL     OW40959   8.114   3.606   6.981  0.0148 -0.6780  0.1879
12306SOL    HW140960   8.092   3.565   7.065 -0.8982 -1.3478 -0.3472
12306SOL    HW240961   8.206   3.631   6.989  0.8656 -3.4690  0.3336
12307SOL     OW40962   1.086   1.649   7.633  0.2958 -0.3162 -0.0735
12307SOL    HW140963   1.165   1.680   7.588  0.8399 -0.2511  0.8954
12307SOL    HW240964   1.085   1.699   7.714 -1.8766  1.2181 -0.9535
12308SOL     OW40965   4.678   4.967   9.074 -0.1374 -0.3589 -0.0793
12308SOL    HW140966   4.761   5.003   9.106  0.5996  0.2918 -2.5167
12308SOL    HW240967   4.649   4.908   9.144  0.6617  1.8600  2.2995
12309SOL     OW40968   3.724   9.458   4.475 -0.0955 -0.2370 -0.1659
12309SOL    HW140969   3.799   9.508   4.507 -1.5669  1.3321  1.0210
12309SOL    HW240970   3.703   9.498   4.391 -0.8367  0.7162  0.4559
12310SOL     OW40971   7.665   9.534   8.176  0.0293 -0.5411 -0.3073
12310SOL    HW140972   7.713   9.552   8.256 -0.3317 -0.8669 -0.0148
12310SOL    HW240973   7.732   9.523   8.109  0.3278 -0.1778 -0.0720
12311SOL     OW40974   4.961   9.939   9.647 -0.2242 -0.0215 -0.4793
12311SOL    HW140975   4.880   9.901   9.683 -0.2477  1.3569  1.0438
12311SOL    HW240976   5.029   9.912   9.708  0.1398  0.4263 -0.6786
12312SOL     OW40977   7.569   2.441   4.252 -0.8019 -0.1439 -0.0959
12312SOL    HW140978   7.622   2.417   4.328  0.5195 -1.1605 -1.2875
12312SOL    HW240979   7.535   2.528   4.273  1.7830  0.7958  0.5351
12313SOL     OW40980   6.438  10.137   3.790 -0.1456  0.6490  0.0292
12313SOL    HW140981   6.461  10.229   3.783 -0.7324  0.7055 -1.4047
12313SOL    HW240982   6.362  10.135   3.848 -1.3015  1.2893 -1.4161
12314SOL     OW40983   0.333  10.185   2.719  0.5283 -0.0391  0.2245
12314SOL    HW140984   0.422  10.213   2.698 -0.1327  0.3437 -2.3929
12314SOL    HW240985   0.343  10.097   2.755  1.9649  0.0869  0.1856
12315SOL     OW40986   6.964   7.417   7.977 -0.6042 -0.1091 -0.2411
12315SOL    HW140987   6.884   7.471   7.981 -0.4204  0.1016  0.9199
12315SOL    HW240988   7.032   7.474   8.013  0.1942 -0.1153 -1.6721
12316SOL     OW40989   6.129   1.240   9.437  0.9369 -0.6157  0.2372
12316SOL    HW140990   6.144   1.248   9.343 -0.3627  0.0791  0.0724
12316SOL    HW240991   6.202   1.289   9.477  0.3473  0.9295 -0.4885
12317SOL     OW40992   9.107   9.079   3.081  0.0343  0.4113 -0.0517
12317SOL    HW140993   9.111   9.010   3.148 -1.4178 -0.4201 -0.7488
12317SOL    HW240994   9.194   9.080   3.041 -0.1671 -1.7630 -0.6830
12318SOL     OW40995   5.368   3.139   4.539 -0.0329 -0.3339  0.1920
12318SOL    HW140996   5.384   3.106   4.450 -3.3765  2.3596 -1.6855
12318SOL    HW240997   5.435   3.206   4.552  1.2470 -1.5837  0.3141
12319SOL     OW40998   2.733   7.286   1.300  0.1974  0.1403 -0.5627
12319SOL    HW140999   2.761   7.264   1.211 -1.5890 -1.3956 -0.8172
12319SOL    HW241000   2.786   7.228   1.356  1.2903  1.0763 -0.5905
12320SOL     OW41001   6.883   9.345  10.031  0.3052 -0.3826 -0.2713
12320SOL    HW141002   6.849   9.311   9.949  0.0550 -0.3163 -0.1958
12320SOL    HW241003   6.976   9.323  10.029  0.0984 -1.3555 -0.0897
12321SOL     OW41004   5.735   3.916   6.892  0.5220  0.8700  0.1506
12321SOL    HW141005   5.794   3.913   6.817 -0.0888  0.0810 -0.3181
12321SOL    HW241006   5.793   3.917   6.968  1.1404  0.9321 -0.3086
12322SOL     OW41007   1.076   3.845   3.827  0.2169 -0.3030  0.7059
12322SOL    HW141008   1.141   3.869   3.893 -1.6907 -1.2041  3.0688
12322SOL    HW241009   1.109   3.763   3.789 -0.1579 -1.6089  2.9854
12323SOL     OW41010   3.841   4.563   5.605 -0.1644  0.0394 -0.1917
12323SOL    HW141011   3.802   4.628   5.664  0.2415 -0.5374  0.7344
12323SOL    HW241012   3.819   4.594   5.518 -0.6231  1.0194  0.2540
12324SOL     OW41013   7.861   2.777   2.075 -0.3652 -0.0817  0.5120
12324SOL    HW141014   7.933   2.814   2.127 -0.4208 -1.1907  1.4273
12324SOL    HW241015   7.809   2.728   2.138 -0.1207 -1.9485 -0.6461
12325SOL     OW41016   2.559   5.173   2.150  0.3114  0.0075 -0.6635
12325SOL    HW141017   2.601   5.176   2.236 -0.1932  1.8882 -0.4408
12325SOL    HW241018   2.623   5.132   2.093  0.0673 -2.7632  0.8866
12326SOL     OW41019   5.971   7.960  10.243 -0.4488 -0.1006  0.5676
12326SOL    HW141020   6.038   7.895  10.222 -0.6079  0.2345 -1.1675
12326SOL    HW241021   5.889   7.910  10.242 -0.3720 -0.2454  1.2732
12327SOL     OW41022   4.902   2.056   6.149  0.2608 -0.1267  0.0572
12327SOL    HW141023   4.986   2.096   6.127  0.3045 -0.5595 -0.5967
12327SOL    HW241024   4.925   1.978   6.200  0.3378 -0.8296 -0.9965
12328SOL     OW41025   8.251   8.348   3.099  0.4153  0.3000 -0.3051
12328SOL    HW141026   8.323   8.287   3.115  1.6071  1.7028 -0.1303
12328SOL    HW241027   8.246   8.356   3.004 -0.5897 -0.9991 -0.3899
12329SOL     OW41028   9.825   4.640   9.113 -0.1033  0.7128  0.0733
12329SOL    HW141029   9.795   4.731   9.122 -2.5832 -0.0158  0.0927
12329SOL    HW241030   9.783   4.610   9.032  0.6926 -0.4086  0.0668
12330SOL     OW41031   1.304   8.656   2.154  0.3741 -0.1788  0.4612
12330SOL    HW141032   1.257   8.612   2.083  1.3677 -0.3240 -0.1413
12330SOL    HW241033   1.276   8.747   2.149  1.2270  0.0406 -0.8371
12331SOL     OW41034   2.646   5.072   2.631 -0.3054 -0.6491 -0.6153
12331SOL    HW141035   2.693   5.012   2.574 -0.6152  0.0707 -1.6467
12331SOL    HW241036   2.607   5.136   2.572  1.2271  1.4487  0.5204
12332SOL     OW41037   0.567   6.990   7.919  0.0368  0.1135 -0.1416
12332SOL    HW141038   0.663   6.995   7.925  0.2287 -1.7214 -0.9514
12332SOL    HW241039   0.540   6.951   8.002  0.1537 -0.7296 -0.4885
12333SOL     OW41040   7.561   2.686   1.282  0.0666  0.1960  0.1514
12333SOL    HW141041   7.604   2.746   1.343  0.4848 -1.2337  1.3310
12333SOL    HW241042   7.514   2.624   1.338 -0.9998 -0.1173 -1.0425
12334SOL     OW41043   3.528   3.472   7.848  0.0884 -0.1880  0.3473
12334SOL    HW141044   3.613   3.432   7.867 -0.0706 -0.6523  0.0954
12334SOL    HW241045   3.485   3.478   7.933 -0.0198 -0.8750  0.3518
12335SOL     OW41046   4.089   1.723   2.748 -0.8584 -0.2388 -0.3537
12335SOL    HW141047   4.042   1.806   2.738 -0.7561 -0.2685 -1.1465
12335SOL    HW241048   4.025   1.662   2.783 -0.3142  0.7889  2.7262
12336SOL     OW41049   9.810   9.054   7.241  0.6319 -0.0280 -0.1759
12336SOL    HW141050   9.716   9.049   7.221  0.6371  0.2341 -0.2620
12336SOL    HW241051   9.836   9.143   7.217  0.7362  0.1536  0.5648
12337SOL     OW41052   9.462   5.359   6.723  0.0558 -0.6919 -0.0398
12337SOL    HW141053   9.444   5.319   6.638 -3.1507  1.7946 -0.7445
12337SOL    HW241054   9.462   5.287   6.785  0.6581 -2.3739 -1.9080
12338SOL     OW41055   0.437   9.588   4.846  0.4576 -0.4775  0.3355
12338SOL    HW141056   0.415   9.657   4.783  0.4664 -0.9341 -0.1676
12338SOL    HW241057   0.479   9.520   4.794  0.4627 -0.8599  0.8353
12339SOL     OW41058   7.662   8.255   2.245 -0.1082 -0.2554 -0.3628
12339SOL    HW141059   7.718   8.205   2.304  0.0752 -0.2583 -0.5417
12339SOL    HW241060   7.586   8.199   2.230 -0.7820  0.2687  0.9126
12340SOL     OW41061   3.436   1.217   9.050  0.7733 -0.0045 -0.4294
12340SOL    HW141062   3.389   1.288   9.093 -3.0398 -2.6492  0.3055
12340SOL    HW241063   3.436   1.241   8.957  0.4859  1.4024 -0.0903
12341SOL     OW41064   0.906   2.575   4.367 -0.3092 -0.3523  0.4162
12341SOL    HW141065   0.998   2.601   4.358 -0.8225  1.2734 -0.3399
12341SOL    HW241066   0.886   2.529   4.285 -0.1516 -0.8301  0.6391
12342SOL     OW41067   8.117   4.963   4.833 -0.0508 -0.3868 -0.2654
12342SOL    HW141068   8.080   4.886   4.790 -0.5718  0.0954 -0.6746
12342SOL    HW241069   8.142   5.021   4.762  1.0405 -0.4777  0.0136
12343SOL     OW41070   3.798   1.544  10.071 -0.0337  0.4825 -0.3052
12343SOL    HW141071   3.780   1.453  10.092 -0.9407  0.5702 -0.6569
12343SOL    HW241072   3.892   1.547  10.056  0.2688 -0.0739  1.2663
12344SOL     OW41073   2.458   1.422   8.411 -0.3934 -0.0846 -0.5974
12344SOL    HW141074   2.499   1.380   8.335 -0.3140 -0.9380 -0.1011
12344SOL    HW241075   2.377   1.459   8.377  1.3538  2.8972 -1.9335
12345SOL     OW41076   0.149   6.583   7.115 -0.0826 -0.1650 -0.4131
12345SOL    HW141077   0.139   6.557   7.207 -2.2118 -0.3514 -0.6481
12345SOL    HW241078   0.110   6.670   7.111  0.5665  0.1039 -1.0311
12346SOL     OW41079   8.589   1.020   3.554 -0.2140 -0.0658  0.4696
12346SOL    HW141080   8.623   1.095   3.505  3.4424 -2.1460 -0.5445
12346SOL    HW241081   8.535   1.059   3.623  0.8077  3.4241 -0.4841
12347SOL     OW41082  10.223   0.848   0.680 -0.1904 -0.3593 -0.3532
12347SOL    HW141083  10.173   0.783   0.630  1.7200 -1.4798 -0.8976
12347SOL    HW241084  10.311   0.812   0.684  0.2648  0.8275  1.8512
12348SOL     OW41085   0.992   9.985   2.309  0.1451 -0.0627  0.0912
12348SOL    HW141086   0.911   9.935   2.299 -0.6902  1.3049 -0.2761
12348SOL    HW241087   1.059   9.919   2.326 -0.7716 -1.3628 -1.1081
12349SOL     OW41088   6.488   7.254   7.443 -0.5539  0.2867 -0.6299
12349SOL    HW141089   6.517   7.226   7.356 -2.0082 -3.3079 -0.1537
12349SOL    HW241090   6.480   7.172   7.493 -2.4395  1.9297  2.0403
12350SOL     OW41091   0.942   6.060   3.150  0.1992 -0.2593 -0.4382
12350SOL    HW141092   0.910   6.131   3.095  0.9657  0.5591  0.1304
12350SOL    HW241093   0.959   5.988   3.089  2.0042  0.9517 -1.4653
12351SOL     OW41094  10.110   5.083   2.495 -0.3398 -0.4594 -0.1519
12351SOL    HW141095  10.172   5.155   2.505  1.1076 -1.7444  0.4413
12351SOL    HW241096  10.056   5.108   2.419  0.8099  0.7426 -0.6079
12352SOL     OW41097   4.781   7.975   0.628 -0.0694 -0.2341 -0.4788
12352SOL    HW141098   4.829   8.003   0.550 -1.2407 -0.2449 -1.2207
12352SOL    HW241099   4.704   8.032   0.630  0.8966  1.1289  1.7820
12353SOL     OW41100   0.429   1.470   9.534 -0.0453 -0.3774 -0.4169
12353SOL    HW141101   0.388   1.394   9.494  0.7205 -0.3085 -1.3826
12353SOL    HW241102   0.470   1.517   9.461 -0.8860  1.2308  0.0755
12354SOL     OW41103   7.885   8.269   8.474  0.1556  0.2811 -0.0917
12354SOL    HW141104   7.917   8.350   8.435  0.8099  0.6928  1.2108
12354SOL    HW241105   7.962   8.234   8.520 -0.2640 -0.8010 -0.1923
12355SOL     OW41106   3.368   8.028   4.169  0.1767 -0.1867  0.1068
12355SOL    HW141107   3.280   8.024   4.130  0.2688  0.5065 -0.1738
12355SOL    HW241108   3.400   7.938   4.163 -0.2435 -0.3080 -0.4109
12356SOL     OW41109   3.011   6.088   1.522  0.2687  0.3881  0.3906
12356SOL    HW141110   2.986   6.176   1.549  0.2357  0.6990 -0.6180
12356SOL    HW241111   3.003   6.089   1.426 -0.2444 -0.8552  0.3958
12357SOL     OW41112   2.274   5.057   7.986 -0.8942  0.5878 -0.4392
12357SOL    HW141113   2.209   5.110   7.941 -0.8451  0.5878 -0.5115
12357SOL    HW241114   2.356   5.105   7.975 -0.7307  0.1845 -1.0509
12358SOL     OW41115   0.608   9.741   7.391  0.1713 -0.4595 -0.2301
12358SOL    HW141116   0.574   9.822   7.429  0.7400 -1.0409  1.6397
12358SOL    HW241117   0.608   9.679   7.464 -0.6998 -2.3078 -1.7084
12359SOL     OW41118   9.867   3.449   0.583  0.0199 -0.5614  0.4744
12359SOL    HW141119   9.802   3.486   0.523 -0.1140 -1.9907 -0.2975
12359SOL    HW241120   9.817   3.388   0.637  0.3436 -0.0910  1.3215
12360SOL     OW41121  10.216   2.455   4.260  0.0160  0.4352 -0.2683
12360SOL    HW141122  10.214   2.361   4.274 -3.0218  0.4894  0.2901
12360SOL    HW241123  10.124   2.482   4.259  0.7787  3.5580  0.7282
12361SOL     OW41124   3.070   5.306   7.302  0.2908 -0.0233 -0.6892
12361SOL    HW141125   3.054   5.371   7.235 -0.9445 -0.3678 -0.7556
12361SOL    HW241126   3.070   5.222   7.255 -0.4814 -0.2559 -0.2941
12362SOL     OW41127   6.023   0.822   6.706  0.3701  0.0188 -0.0837
12362SOL    HW141128   5.960   0.893   6.695  0.6384  0.5416  1.4807
12362SOL    HW241129   6.068   0.817   6.622 -0.7832  0.5824 -0.7587
12363SOL     OW41130   3.306   8.875   7.919  0.3337 -0.4820 -0.0776
12363SOL    HW141131   3.267   8.922   7.992 -2.6878 -1.6694 -0.7576
12363SOL    HW241132   3.399   8.868   7.941  0.0089  1.4965  2.3032
12364SOL     OW41133   6.453   6.688  10.231  0.3534 -0.6992 -0.1582
12364SOL    HW141134   6.546   6.670  10.240  0.3048 -1.3283 -0.8163
12364SOL    HW241135   6.428   6.646  10.149 -0.3956 -0.0737 -0.2698
12365SOL     OW41136   5.845   4.200   0.407 -0.4163 -0.3642 -0.5253
12365SOL    HW141137   5.790   4.127   0.380 -0.3305 -0.3710 -0.6823
12365SOL    HW241138   5.861   4.186   0.501 -2.4755  0.7942  0.0536
12366SOL     OW41139   0.384   7.238   3.390  0.2046 -0.2699 -0.3904
12366SOL    HW141140   0.445   7.206   3.324 -1.1955 -0.2164 -1.7678
12366SOL    HW241141   0.387   7.333   3.380  0.0342 -0.2601 -0.3444
12367SOL     OW41142   1.277   2.952   8.955  0.4096 -0.5182 -0.0532
12367SOL    HW141143   1.206   2.924   8.898  0.8171 -1.2417 -0.2240
12367SOL    HW241144   1.271   2.894   9.031  1.3509 -1.1740 -0.4709
12368SOL     OW41145   1.480   2.190   6.519  0.3030 -0.1690 -0.7309
12368SOL    HW141146   1.572   2.199   6.494 -0.1676  0.7336 -2.2888
12368SOL    HW241147   1.467   2.095   6.530  2.1113 -0.1823  2.6041
12369SOL     OW41148  10.221   8.423   3.853 -0.2179  0.0346 -0.3671
12369SOL    HW141149  10.201   8.330   3.848  1.3897 -0.3632 -0.1386
12369SOL    HW241150  10.165   8.457   3.923 -0.4670 -0.8645 -0.1190
12370SOL     OW41151   1.684   2.297   2.662 -0.4617 -0.3837 -0.3388
12370SOL    HW141152   1.622   2.232   2.627 -1.1252  1.0322 -1.9038
12370SOL    HW241153   1.689   2.364   2.594  0.8113  0.8296  0.9046
12371SOL     OW41154   8.249   0.842   0.444  0.3681  0.4685 -0.2977
12371SOL    HW141155   8.259   0.830   0.349 -2.2518  1.4907 -0.8118
12371SOL    HW241156   8.269   0.934   0.458  2.2331 -0.0209  0.4414
12372SOL     OW41157   6.420   4.900   1.429 -0.2799  0.1564  0.2845
12372SOL    HW141158   6.359   4.970   1.409 -1.3333 -0.8184 -0.0444
12372SOL    HW241159   6.497   4.944   1.464 -1.2079  1.4157  0.8068
12373SOL     OW41160   3.140   0.396   7.632 -0.6471  0.3219  0.1346
12373SOL    HW141161   3.161   0.489   7.627  1.7654  0.0879  3.0186
12373SOL    HW241162   3.075   0.390   7.702 -0.6096 -0.1552  0.1311
12374SOL     OW41163   1.457   7.758   9.298  0.3628  0.2431  0.1433
12374SOL    HW141164   1.422   7.830   9.350 -0.9592  0.1338 -0.5612
12374SOL    HW241165   1.466   7.686   9.360  0.7508  0.7063  0.6374
12375SOL     OW41166   4.925   9.033   5.957  0.0371 -0.0224  0.2267
12375SOL    HW141167   4.992   9.086   5.913 -3.0907  5.3531  1.1226
12375SOL    HW241168   4.881   8.987   5.885 -0.2473  2.6943 -1.4764
12376SOL     OW41169   1.200   8.621   9.005 -0.5146 -0.3006 -0.2154
12376SOL    HW141170   1.281   8.583   9.040 -0.6042 -0.3283 -0.0323
12376SOL    HW241171   1.190   8.702   9.054 -1.3466 -0.9800  0.7972
12377SOL     OW41172   1.401   1.645   5.355 -0.0583 -0.2291  0.2270
12377SOL    HW141173   1.326   1.586   5.364 -0.3846  0.2039  0.4049
12377SOL    HW241174   1.415   1.678   5.444  0.5816 -0.5887  0.2672
12378SOL     OW41175   5.871  10.120   3.559  0.4726 -0.4440 -0.1525
12378SOL    HW141176   5.819  10.042   3.542 -0.5705 -0.1125  1.3044
12378SOL    HW241177   5.952  10.087   3.599  0.2487 -0.8099  0.0050
12379SOL     OW41178   6.706   7.971   0.871  0.3054 -0.4625  0.0069
12379SOL    HW141179   6.714   7.997   0.963  0.9247 -0.2446 -0.1048
12379SOL    HW241180   6.763   7.895   0.862 -0.9080 -1.4230  0.1487
12380SOL     OW41181   8.647   7.983   7.593 -0.2867 -0.2263 -0.2292
12380SOL    HW141182   8.565   8.008   7.636 -0.0245 -1.0657  0.8200
12380SOL    HW241183   8.627   7.984   7.500 -0.9533  1.4076 -0.1023
12381SOL     OW41184   3.657   6.258   6.479  0.1517 -0.5459 -0.3324
12381SOL    HW141185   3.684   6.286   6.567  2.1583 -0.3129 -0.9766
12381SOL    HW241186   3.565   6.282   6.474 -0.0096 -0.5027  1.6805
12382SOL     OW41187   0.419   5.624   8.757 -0.0380  0.1726 -0.0230
12382SOL    HW141188   0.413   5.604   8.664  2.3874  1.7557 -0.6282
12382SOL    HW241189   0.472   5.704   8.760 -0.2549  0.2923  2.7091
12383SOL     OW41190   2.851   7.841   2.618  0.5085 -0.4128 -0.1967
12383SOL    HW141191   2.888   7.927   2.602 -0.5608  0.1959  0.4829
12383SOL    HW241192   2.839   7.837   2.713  0.9170 -1.4647 -0.1798
12384SOL     OW41193   5.253   2.217   0.474 -0.5409  0.5075 -0.1440
12384SOL    HW141194   5.297   2.139   0.440 -1.6885  0.0947 -0.7113
12384SOL    HW241195   5.210   2.188   0.554  2.1512  1.4728  1.8444
12385SOL     OW41196   0.901   5.584   8.435 -0.3997 -0.2632  0.3298
12385SOL    HW141197   0.902   5.655   8.371  0.2935  0.0442  0.6660
12385SOL    HW241198   0.930   5.507   8.386  0.0301 -0.0508  0.2456
12386SOL     OW41199   9.371   3.170   8.135  0.3160 -0.0146 -0.1644
12386SOL    HW141200   9.412   3.151   8.219  0.0555  0.2516  0.0274
12386SOL    HW241201   9.413   3.251   8.105  1.2922 -0.7531 -0.8882
12387SOL     OW41202   2.574   0.623   0.467 -0.9382  0.1028  1.0111
12387SOL    HW141203   2.526   0.631   0.384  1.5252 -2.4019 -0.8467
12387SOL    HW241204   2.645   0.687   0.460 -0.9223  0.1172  1.3257
12388SOL     OW41205   3.765   8.194   1.574  0.0446 -0.0090  0.4188
12388SOL    HW141206   3.674   8.218   1.557  0.0413  0.6862  1.3502
12388SOL    HW241207   3.772   8.191   1.669  0.8856 -0.4989  0.3499
12389SOL     OW41208   9.772   9.984   8.717  0.8201 -0.0163  0.4238
12389SOL    HW141209   9.852   9.931   8.722  1.9612  1.5969 -0.1341
12389SOL    HW241210   9.790  10.061   8.771 -0.4280  0.3183  0.4085
12390SOL     OW41211   1.384   6.760   5.989  0.2861 -0.2577 -0.3946
12390SOL    HW141212   1.437   6.680   5.985  0.3913 -0.1529 -1.3438
12390SOL    HW241213   1.309   6.736   6.043  0.0241 -1.1819 -1.1371
12391SOL     OW41214   4.073   6.994   3.833  0.1492 -0.4164 -0.3946
12391SOL    HW141215   4.002   6.951   3.784 -1.7731 -0.3127  2.1340
12391SOL    HW241216   4.150   6.939   3.816 -1.4465 -2.9298  0.0106
12392SOL     OW41217   1.840   0.660   7.563 -0.5235 -0.4009 -0.5135
12392SOL    HW141218   1.904   0.714   7.515 -0.2235 -0.3964 -0.1151
12392SOL    HW241219   1.846   0.574   7.522 -1.8368  0.1393 -1.9244
12393SOL     OW41220   6.154   6.656   8.771 -0.1100 -0.0257  0.0484
12393SOL    HW141221   6.102   6.576   8.786 -0.1883 -0.1197 -0.6568
12393SOL    HW241222   6.158   6.699   8.856 -0.9085 -0.2867  0.2295
12394SOL     OW41223   5.666   9.400  10.209 -0.1894  0.4129 -0.0129
12394SOL    HW141224   5.742   9.414  10.265 -0.0700 -0.1069 -0.0359
12394SOL    HW241225   5.703   9.366  10.127 -0.5997 -2.5064  0.9137
12395SOL     OW41226   4.359   6.419   1.872  0.9235  0.0049 -0.0139
12395SOL    HW141227   4.283   6.362   1.861 -0.9451  2.3588 -0.0790
12395SOL    HW241228   4.413   6.402   1.794 -0.2633 -0.6694 -0.7195
12396SOL     OW41229   4.424   8.506   5.855  0.3933  0.3218 -0.0674
12396SOL    HW141230   4.516   8.480   5.850  0.5737  0.8911  0.2907
12396SOL    HW241231   4.403   8.502   5.949  0.6037  2.0659  0.0819
12397SOL     OW41232   1.505   9.478   8.737  0.5495 -0.3284  0.3522
12397SOL    HW141233   1.421   9.446   8.703  1.5613 -1.8148 -0.9009
12397SOL    HW241234   1.546   9.521   8.662  1.7165 -1.3262  0.3972
12398SOL     OW41235   6.767   9.342   5.862  0.0000  0.3690  1.0721
12398SOL    HW141236   6.770   9.369   5.770 -0.4194  1.7275  1.4291
12398SOL    HW241237   6.705   9.270   5.864 -1.7437  1.7885  0.6100
12399SOL     OW41238   6.995   8.579   0.793 -0.2812 -0.2190  0.0148
12399SOL    HW141239   6.912   8.603   0.752 -0.3859 -0.9419 -0.2140
12399SOL    HW241240   6.987   8.485   0.810  0.2048 -0.1516  0.6629
12400SOL     OW41241   4.735   3.042   9.999  0.1514  0.3277 -0.1321
12400SOL    HW141242   4.822   3.004  10.014 -0.1364  0.2022  1.4135
12400SOL    HW241243   4.703   3.064  10.087 -1.0319  1.1640 -0.7433
12401SOL     OW41244   5.527   7.511   0.375 -0.0805 -0.0491 -0.0304
12401SOL    HW141245   5.598   7.566   0.408 -0.3503  0.1547  0.2043
12401SOL    HW241246   5.540   7.511   0.280 -0.3276  0.7554 -0.0699
12402SOL     OW41247   4.468   8.190   0.920 -0.0697  0.2778 -0.2854
12402SOL    HW141248   4.472   8.278   0.955  3.7415  0.7235 -1.4089
12402SOL    HW241249   4.450   8.202   0.826  0.0970 -0.1807 -0.3791
12403SOL     OW41250   8.527   9.879   5.655 -0.1345  0.0517  0.0015
12403SOL    HW141251   8.600   9.936   5.628  0.0452 -1.3667 -2.9806
12403SOL    HW241252   8.451   9.913   5.608 -0.1645 -1.6743 -1.3109
12404SOL     OW41253   0.615   6.162   0.325  0.1636  0.2521  0.5343
12404SOL    HW141254   0.537   6.206   0.289  0.3322 -0.4616 -0.7717
12404SOL    HW241255   0.689   6.203   0.280  0.2787 -1.9682 -1.5413
12405SOL     OW41256   7.910   8.194   5.620  0.2293 -0.0058  0.1610
12405SOL    HW141257   7.980   8.201   5.555  0.0321  0.3513 -0.0163
12405SOL    HW241258   7.935   8.253   5.690  0.0945  0.1383  0.0876
12406SOL     OW41259  10.008   3.470   2.434 -0.1588 -0.5136 -0.0364
12406SOL    HW141260  10.055   3.481   2.516 -1.2578  1.1795  0.4378
12406SOL    HW241261  10.071   3.429   2.374  1.4246  0.3666  0.9680
12407SOL     OW41262   1.061   1.948   8.171 -0.1059 -0.2159  0.1218
12407SOL    HW141263   0.966   1.961   8.165  0.0054  1.0039  0.7275
12407SOL    HW241264   1.094   2.030   8.206  1.0348 -1.0959  1.2089
12408SOL     OW41265   7.444   0.269   0.167  0.0316  0.4889 -0.0912
12408SOL    HW141266   7.448   0.264   0.072 -1.2263 -1.5415 -0.0812
12408SOL    HW241267   7.422   0.181   0.195  2.9815  0.3460  2.2789
12409SOL     OW41268   0.407   9.576   3.699  0.1525  0.1056  0.4128
12409SOL    HW141269   0.412   9.504   3.762 -0.3765 -0.0017  0.3357
12409SOL    HW241270   0.349   9.640   3.741 -2.8552 -1.3306 -1.2779
12410SOL     OW41271   4.503   5.671   6.928 -0.0235  0.6747  0.0948
12410SOL    HW141272   4.526   5.578   6.917  0.2313  0.7036  0.3744
12410SOL    HW241273   4.588   5.716   6.935 -0.0463  1.2142 -2.1850
12411SOL     OW41274   3.032  10.033   4.758  0.1362 -0.6887 -0.1973
12411SOL    HW141275   2.952  10.083   4.772 -0.6946 -2.2812  1.1653
12411SOL    HW241276   3.082  10.084   4.695 -0.4021  2.0804  1.4473
12412SOL     OW41277   5.152   5.379   4.172  0.1803 -0.2362  0.3175
12412SOL    HW141278   5.103   5.380   4.254  0.6933 -0.8987  0.6466
12412SOL    HW241279   5.224   5.318   4.188 -0.0596 -0.8624 -0.8169
12413SOL     OW41280   9.534   0.527   2.265 -0.0115  0.2571  0.1083
12413SOL    HW141281   9.574   0.614   2.273  1.6051 -0.5818  1.9673
12413SOL    HW241282   9.597   0.468   2.307 -0.6918 -1.9598 -1.7960
12414SOL     OW41283   7.595   9.107   0.751  0.1840  0.5587  0.4590
12414SOL    HW141284   7.596   9.114   0.655 -2.6054  0.5029  0.3394
12414SOL    HW241285   7.525   9.045   0.769  1.7906 -0.7415  2.5405
12415SOL     OW41286   7.422   5.803   1.367 -0.2758 -0.2661 -0.4537
12415SOL    HW141287   7.502   5.854   1.378 -0.1710 -0.3954 -0.6247
12415SOL    HW241288   7.451   5.716   1.339 -0.5581  0.1585 -2.1746
12416SOL     OW41289   2.237   5.524  10.237 -0.2045 -0.3703  0.5511
12416SOL    HW141290   2.202   5.581  10.305  0.2739 -0.7319  1.1041
12416SOL    HW241291   2.234   5.578  10.157  1.5368  0.9597  1.3129
12417SOL     OW41292   9.073   2.371   6.113  0.4298  0.1029  0.6312
12417SOL    HW141293   8.984   2.405   6.106  0.4437  0.1323  0.5991
12417SOL    HW241294   9.126   2.448   6.136  0.2124 -0.1960  2.2317
12418SOL     OW41295   8.580   9.962   5.254  0.4283 -0.1936 -0.0795
12418SOL    HW141296   8.590   9.954   5.159 -0.9513  1.9645 -0.4814
12418SOL    HW241297   8.499   9.916   5.275  0.3012  0.0266 -0.0831
12419SOL     OW41298   3.558   5.793   5.883 -0.4934 -0.0643 -0.2260
12419SOL    HW141299   3.539   5.701   5.902 -2.5873  0.0489 -1.4081
12419SOL    HW241300   3.555   5.836   5.969  0.5277 -1.0714  0.3405
12420SOL     OW41301   8.775   8.289   5.632 -0.2420 -0.2246 -0.4920
12420SOL    HW141302   8.765   8.208   5.682  0.3604 -0.3430 -0.5567
12420SOL    HW241303   8.775   8.262   5.540  0.3539 -0.2005 -0.5031
12421SOL     OW41304   4.329   6.218   1.288  0.0225 -0.4614 -0.3103
12421SOL    HW141305   4.305   6.172   1.207 -2.5059 -0.8335  0.5413
12421SOL    HW241306   4.245   6.249   1.323  1.2363  1.3648  1.2127
12422SOL     OW41307   3.261   0.842   0.451 -0.2218  0.0986  0.5245
12422SOL    HW141308   3.340   0.895   0.438  0.4503 -1.0788 -0.3510
12422SOL    HW241309   3.223   0.835   0.363 -1.2947  0.6094  0.9307
12423SOL     OW41310   8.002   1.774   1.012  0.2601 -0.3289 -0.1828
12423SOL    HW141311   8.070   1.710   0.991 -0.6921 -1.2772 -0.4515
12423SOL    HW241312   8.026   1.851   0.962  1.0697 -0.6904 -0.3737
12424SOL     OW41313   1.433   7.877   3.020 -0.1251 -0.1224  0.0101
12424SOL    HW141314   1.421   7.959   2.973 -1.5579 -0.3260 -0.0368
12424SOL    HW241315   1.513   7.889   3.070 -1.6810  2.3711  2.1433
12425SOL     OW41316   8.782  10.167  10.162 -0.0841  0.1663  0.2088
12425SOL    HW141317   8.698  10.198  10.128 -0.9628 -0.0295  2.0385
12425SOL    HW241318   8.760  10.128  10.247  1.9108  0.4071  0.8932
12426SOL     OW41319   7.269   7.884   4.769  0.5828  0.9340  0.6057
12426SOL    HW141320   7.274   7.893   4.673  0.9429  1.7667  0.6953
12426SOL    HW241321   7.189   7.930   4.793  0.3316  0.4662  0.6860
12427SOL     OW41322   6.457   5.598   1.635 -0.0510  0.2772 -0.3359
12427SOL    HW141323   6.527   5.616   1.698  1.3080  0.5844 -1.8753
12427SOL    HW241324   6.470   5.506   1.610 -0.4589  0.2147 -0.3223
12428SOL     OW41325   4.501   2.565   1.748  0.4132 -0.2753  0.4171
12428SOL    HW141326   4.465   2.526   1.828  0.2567 -2.1107 -0.4857
12428SOL    HW241327   4.555   2.495   1.710  0.9709  0.7660 -0.7746
12429SOL     OW41328   1.401   5.823   2.921 -0.7720  0.3956  0.0216
12429SOL    HW141329   1.476   5.871   2.955 -1.2582  1.0506  0.1891
12429SOL    HW241330   1.412   5.824   2.826  0.1433 -0.7044  0.0893
12430SOL     OW41331   4.090   9.323   9.101 -0.1918 -0.4167  0.3947
12430SOL    HW141332   4.040   9.315   9.020 -0.7253 -0.2596  0.7013
12430SOL    HW241333   4.130   9.409   9.096  0.6981 -0.8492 -0.2052
12431SOL     OW41334   6.016   3.280   3.626 -0.1993  0.3502  0.2322
12431SOL    HW141335   5.995   3.346   3.561  1.6993 -0.5223 -1.3678
12431SOL    HW241336   6.053   3.207   3.576  1.9820 -0.0960  2.2915
12432SOL     OW41337   3.772   3.815   2.112  0.5927  0.0352  0.0248
12432SOL    HW141338   3.859   3.785   2.140  0.2024  0.9342  2.3216
12432SOL    HW241339   3.781   3.909   2.101  0.5423 -0.1777 -2.3927
12433SOL     OW41340   7.901   6.299   8.157  0.0517 -0.3808  0.3511
12433SOL    HW141341   7.818   6.276   8.115  0.8469 -1.0754 -0.8990
12433SOL    HW241342   7.884   6.385   8.197 -0.4854  0.9067 -2.3600
12434SOL     OW41343   2.523   4.194   3.844  0.1825 -0.2720 -0.2466
12434SOL    HW141344   2.517   4.120   3.784  1.1243  1.7154 -3.0545
12434SOL    HW241345   2.613   4.227   3.832  0.1478  0.6779  1.7306
12435SOL     OW41346   4.534   7.970   9.792  0.5082 -0.5916 -0.3543
12435SOL    HW141347   4.596   7.935   9.727 -0.4795 -0.8587 -1.1902
12435SOL    HW241348   4.487   7.892   9.824  1.3559 -0.5294  1.1072
12436SOL     OW41349   0.216   0.955   3.967  0.7390 -0.5372 -0.3719
12436SOL    HW141350   0.289   0.993   4.016  0.3957 -0.4723  0.0973
12436SOL    HW241351   0.170   0.900   4.031 -0.7364  0.8933 -0.1372
12437SOL     OW41352   2.402   3.064   7.940 -0.5919 -0.7000 -0.0004
12437SOL    HW141353   2.367   3.066   7.851 -0.4856  0.5846 -0.0329
12437SOL    HW241354   2.492   3.098   7.931 -0.7220 -0.1636  0.6450
12438SOL     OW41355   6.232  10.189   6.716  0.2086  0.1317  0.0971
12438SOL    HW141356   6.277  10.180   6.632 -0.2302 -0.0836 -0.1199
12438SOL    HW241357   6.173  10.114   6.720  3.5147 -2.6513  2.6947
12439SOL     OW41358   9.817   9.703   6.790  0.6323 -0.2902 -0.6476
12439SOL    HW141359   9.869   9.783   6.791 -0.7263  0.6329  0.3039
12439SOL    HW241360   9.782   9.697   6.879  0.6318 -1.9105 -0.7249
12440SOL     OW41361   0.975   1.714   5.980  0.9061  0.0531 -0.0059
12440SOL    HW141362   1.018   1.793   6.012  4.0764 -2.1395  1.6414
12440SOL    HW241363   1.027   1.687   5.905  0.1117 -0.7353 -0.2886
12441SOL     OW41364   2.730   5.832   0.614 -0.7211 -0.5444  0.2955
12441SOL    HW141365   2.768   5.917   0.592 -1.3232  0.4490  2.6907
12441SOL    HW241366   2.805   5.775   0.628 -0.2887 -0.1977 -0.5397
12442SOL     OW41367   2.148   8.025   8.540  0.3774 -0.3504  0.5367
12442SOL    HW141368   2.190   7.942   8.522  2.0788  0.5162  0.2991
12442SOL    HW241369   2.214   8.091   8.519 -1.4484  1.1646 -0.8846
12443SOL     OW41370   4.394   8.779   6.191  0.2968 -0.3033  0.3428
12443SOL    HW141371   4.446   8.843   6.241  1.5718  1.0591 -2.4636
12443SOL    HW241372   4.445   8.698   6.197  1.2731  0.2590 -0.0040
12444SOL     OW41373   3.748   8.475   2.336  0.0662  0.9616 -0.0042
12444SOL    HW141374   3.817   8.511   2.392  0.2177  2.1306 -0.8862
12444SOL    HW241375   3.669   8.522   2.363 -1.4841 -3.1836  3.8699
12445SOL     OW41376   2.808   5.531   4.955 -0.2086 -0.0990 -0.4217
12445SOL    HW141377   2.865   5.608   4.957  0.1349 -0.2429 -2.5366
12445SOL    HW241378   2.848   5.469   5.016  0.3736  0.8137  0.1427
12446SOL     OW41379   3.281   7.029   6.533 -0.0493 -0.0658  0.7843
12446SOL    HW141380   3.292   6.959   6.598 -0.3385 -0.7737  0.0918
12446SOL    HW241381   3.291   7.110   6.583 -0.8919 -0.5837  1.8263
12447SOL     OW41382   8.701  10.045   6.003  0.2211 -0.2763  0.2420
12447SOL    HW141383   8.651  10.120   6.036  1.5213  0.0219  1.5999
12447SOL    HW241384   8.675   9.972   6.059  0.6532 -0.3237  0.3805
12448SOL     OW41385   9.018   3.300   9.251  0.1732  0.0454 -0.0603
12448SOL    HW141386   9.103   3.339   9.234 -0.7242  2.5169  0.6824
12448SOL    HW241387   9.037   3.225   9.307  1.8476  0.6385  0.2244
12449SOL     OW41388   5.234   9.500   0.581  0.0546 -0.5609  0.2441
12449SOL    HW141389   5.314   9.551   0.585  0.4876 -0.9332 -2.0074
12449SOL    HW241390   5.262   9.409   0.592  0.1692 -0.8000 -1.6329
12450SOL     OW41391   5.104   8.373   3.920  0.0468  0.4613 -0.4800
12450SOL    HW141392   5.133   8.292   3.878 -1.3066  0.4420 -1.4251
12450SOL    HW241393   5.139   8.443   3.865  1.3485  0.5726  0.4220
12451SOL     OW41394   8.107   1.307   1.185  0.3410 -0.1290 -0.0260
12451SOL    HW141395   8.177   1.278   1.126 -1.1934  0.9503 -2.4874
12451SOL    HW241396   8.087   1.229   1.237  2.1032 -0.9818 -0.5305
12452SOL     OW41397   4.740   4.073  10.188 -0.7176  0.4355 -0.4991
12452SOL    HW141398   4.739   3.981  10.215  2.6538  0.6939  1.0304
12452SOL    HW241399   4.716   4.071  10.095 -0.3823 -2.0508 -0.6021
12453SOL     OW41400   5.478   2.305   4.013  0.4933 -0.5643  0.1570
12453SOL    HW141401   5.435   2.234   4.061 -1.7271  0.7139  0.2355
12453SOL    HW241402   5.413   2.376   4.014  2.1494  1.0408 -0.9333
12454SOL     OW41403   1.457   8.269   0.180  0.2630 -0.0200 -0.0803
12454SOL    HW141404   1.526   8.205   0.160  0.4812 -0.4470  1.8345
12454SOL    HW241405   1.384   8.216   0.212 -0.4630  0.5435 -0.7606
12455SOL     OW41406   5.654   8.457   6.768 -0.2239  0.4054 -0.0049
12455SOL    HW141407   5.660   8.552   6.767  0.1866  0.3876  0.2542
12455SOL    HW241408   5.725   8.429   6.826 -0.4265 -0.0510  0.0303
12456SOL     OW41409  10.057   7.628   9.574  0.1540 -0.4423 -0.3336
12456SOL    HW141410  10.116   7.578   9.518  0.6605  0.0369 -0.2444
12456SOL    HW241411  10.049   7.713   9.530 -0.9378 -0.6879 -0.6451
12457SOL     OW41412   0.174   9.128   3.354 -0.3484  0.3886  0.1886
12457SOL    HW141413   0.234   9.107   3.282 -1.5537 -0.1109 -0.7047
12457SOL    HW241414   0.147   9.043   3.389 -0.4699  0.6078  0.6283
12458SOL     OW41415   6.521   3.508   2.603 -0.1997 -0.0056  0.4719
12458SOL    HW141416   6.476   3.551   2.530  0.4259 -1.5093 -0.8610
12458SOL    HW241417   6.514   3.571   2.675 -1.7984  1.0728 -0.5375
12459SOL     OW41418   0.913   8.599   6.697  0.6866 -0.1279 -0.3183
12459SOL    HW141419   0.946   8.613   6.608  2.8990 -0.9212  0.3173
12459SOL    HW241420   0.927   8.682   6.742  1.8692 -0.4506 -0.0621
12460SOL     OW41421   2.008   0.849   7.410  0.1309  0.1253 -0.2476
12460SOL    HW141422   2.048   0.936   7.406 -0.1521  0.3021  0.7286
12460SOL    HW241423   1.922   0.860   7.369 -0.5416  0.6805  1.2587
12461SOL     OW41424   0.840   7.950   1.171  0.5420 -0.0046  0.2679
12461SOL    HW141425   0.865   8.036   1.136 -0.9665  0.8785  1.2469
12461SOL    HW241426   0.788   7.970   1.249 -0.2878 -1.8043  0.2233
12462SOL     OW41427   1.784   3.512   8.891 -0.6824  0.2524  0.5237
12462SOL    HW141428   1.700   3.506   8.937 -0.2341  1.1779  1.4998
12462SOL    HW241429   1.762   3.544   8.803 -1.4455 -0.5334  0.4198
12463SOL     OW41430   0.967   4.995   5.409 -0.5361 -0.2068 -0.0545
12463SOL    HW141431   0.901   5.057   5.378 -1.0655 -2.1376 -3.3268
12463SOL    HW241432   0.980   4.936   5.335  1.9186 -2.3704  1.9187
12464SOL     OW41433   2.926   5.876   0.890  0.0610 -0.5975 -0.2953
12464SOL    HW141434   2.839   5.855   0.925 -0.1783  1.6478  0.6676
12464SOL    HW241435   2.909   5.937   0.818  0.8156  0.7750  0.6306
12465SOL     OW41436   6.451   6.291   5.259  0.5514 -0.4675  0.0995
12465SOL    HW141437   6.484   6.251   5.178 -2.8531  0.1167 -1.7778
12465SOL    HW241438   6.460   6.385   5.245 -2.9762 -0.1545 -1.2731
12466SOL     OW41439   0.378   7.257   9.594 -0.3026 -0.3692 -0.3765
12466SOL    HW141440   0.430   7.291   9.667 -1.5097 -2.2602  1.4887
12466SOL    HW241441   0.421   7.175   9.569 -2.2364 -1.9964  1.2354
12467SOL     OW41442   1.238   8.318   7.782  0.7349  0.1535  0.1032
12467SOL    HW141443   1.213   8.376   7.710  0.7077  0.2419  0.1838
12467SOL    HW241444   1.253   8.233   7.740  0.0010  0.0197  0.0927
12468SOL     OW41445   9.560   7.541   7.543  0.5720  0.4318 -0.0419
12468SOL    HW141446   9.647   7.556   7.579  0.2037  0.4997  0.8620
12468SOL    HW241447   9.573   7.532   7.449  1.7649 -1.2683  0.2586
12469SOL     OW41448   0.463   9.320   7.647 -0.1935 -0.1082 -0.2677
12469SOL    HW141449   0.420   9.366   7.719  0.4180  0.4353 -0.2399
12469SOL    HW241450   0.489   9.236   7.685 -1.8324 -0.7628 -0.4769
12470SOL     OW41451   5.971   3.189   8.277  0.0644  0.2314 -0.0294
12470SOL    HW141452   5.880   3.205   8.253  0.3032  0.8923 -0.5347
12470SOL    HW241453   6.016   3.175   8.194  0.6676  1.2431  0.1033
12471SOL     OW41454   7.818   2.535   4.981 -0.6891 -0.4897 -1.1320
12471SOL    HW141455   7.877   2.583   4.923  0.7081  0.6871  1.0907
12471SOL    HW241456   7.746   2.596   4.997 -0.4256 -0.2848 -0.6801
12472SOL     OW41457   0.098   3.451   5.693 -0.4468 -0.2152  0.5523
12472SOL    HW141458   0.048   3.421   5.769 -1.7167 -1.7781 -0.7910
12472SOL    HW241459   0.182   3.406   5.700 -0.6470 -0.5392  0.9091
12473SOL     OW41460   1.300   8.033   5.902 -0.2088 -0.2703 -0.2313
12473SOL    HW141461   1.316   7.968   5.835  0.8380 -0.9613  0.6534
12473SOL    HW241462   1.232   8.090   5.865  0.3019 -0.6509 -1.8317
12474SOL     OW41463   9.691   6.634   8.607 -0.3519 -0.0306  0.3227
12474SOL    HW141464   9.704   6.710   8.663 -1.6383 -0.0870  0.7431
12474SOL    HW241465   9.731   6.561   8.654  0.0207  0.2138  0.3828
12475SOL     OW41466   4.519   1.552   0.461  0.4214  0.2717  0.6411
12475SOL    HW141467   4.477   1.610   0.524 -0.6402  0.6728 -0.3916
12475SOL    HW241468   4.448   1.525   0.402  0.9659 -1.6934  0.7877
12476SOL     OW41469   8.503   6.475   6.523  0.1584 -0.5484 -0.0555
12476SOL    HW141470   8.457   6.392   6.513  1.1939 -0.9943 -1.3857
12476SOL    HW241471   8.442   6.531   6.571 -0.4567 -2.1346  1.0697
12477SOL     OW41472   5.897   2.926   2.937 -0.0594 -0.1678  0.1278
12477SOL    HW141473   5.859   2.840   2.954  1.0771 -1.0296 -1.4269
12477SOL    HW241474   5.941   2.917   2.853  3.0270  0.8887  1.4539
12478SOL     OW41475   9.189   0.901   9.112 -0.0224 -0.3120 -0.3839
12478SOL    HW141476   9.225   0.823   9.070  0.4579 -0.5336  0.4336
12478SOL    HW241477   9.225   0.974   9.061  1.6474 -0.5214  0.4365
12479SOL     OW41478   2.511   4.183   4.906 -0.1782 -0.2065  0.2709
12479SOL    HW141479   2.567   4.115   4.943 -1.7250 -1.5384  0.2739
12479SOL    HW241480   2.538   4.190   4.815  0.6502 -0.1152  0.5178
12480SOL     OW41481   3.951   9.246   7.185  0.5155 -0.3873 -0.1113
12480SOL    HW141482   4.032   9.219   7.141  0.4920 -1.2853  0.3743
12480SOL    HW241483   3.975   9.257   7.277  0.3164  0.4002 -0.1442
12481SOL     OW41484   4.899   4.608   2.520  0.2520 -0.0285 -0.1942
12481SOL    HW141485   4.980   4.619   2.569  1.5806  0.8846 -2.4181
12481SOL    HW241486   4.909   4.666   2.444 -2.3201 -0.2026 -0.7629
12482SOL     OW41487   1.824   2.588   4.652 -0.8143 -0.2383 -0.1131
12482SOL    HW141488   1.751   2.555   4.704  1.0091 -0.8069  2.2649
12482SOL    HW241489   1.901   2.541   4.685  0.7332  0.6035 -2.2309
12483SOL     OW41490   8.244   5.515   9.635  0.2845  0.5278  0.0850
12483SOL    HW141491   8.256   5.421   9.645 -0.0346  0.4559 -0.1920
12483SOL    HW241492   8.325   5.545   9.592 -0.7997 -0.0998 -2.6244
12484SOL     OW41493   9.717   4.451   1.139 -0.3297 -0.1000 -0.4602
12484SOL    HW141494   9.625   4.424   1.137  0.1240 -1.7247 -1.6541
12484SOL    HW241495   9.725   4.515   1.069 -0.5740  0.1703 -0.2437
12485SOL     OW41496   5.587   0.520   1.814  0.0863 -0.8128 -0.6960
12485SOL    HW141497   5.653   0.565   1.867 -0.1920 -0.2981 -0.7760
12485SOL    HW241498   5.600   0.554   1.725 -2.7473  2.3277 -0.1213
12486SOL     OW41499   2.267   4.879   2.394  0.3743  0.7453  0.1533
12486SOL    HW141500   2.327   4.871   2.320  0.6973  0.3632  0.4498
12486SOL    HW241501   2.290   4.962   2.434  0.1058  1.0197 -0.2531
12487SOL     OW41502   9.819   8.120  10.235  0.6642 -0.5632  0.0296
12487SOL    HW141503   9.858   8.034  10.250 -0.3707 -1.0389  0.0687
12487SOL    HW241504   9.737   8.102  10.190  1.0858  0.4976 -1.2413
12488SOL     OW41505   7.779   5.522  10.228 -0.6782 -0.7687 -0.1047
12488SOL    HW141506   7.869   5.527  10.198 -0.3204 -0.2838  1.0167
12488SOL    HW241507   7.746   5.439  10.192  1.1665 -2.5418  2.0044
12489SOL     OW41508   4.146   7.446   8.025  0.3036 -0.4180 -0.4764
12489SOL    HW141509   4.068   7.465   7.973  0.0405 -0.0737  0.0464
12489SOL    HW241510   4.170   7.357   7.999 -0.3187 -0.5641 -0.5595
12490SOL     OW41511   4.157   1.998   9.268  0.4710 -0.0509  0.3989
12490SOL    HW141512   4.095   1.926   9.257  0.9431 -0.2326 -1.3952
12490SOL    HW241513   4.106   2.067   9.311 -0.1735 -1.1887  1.5176
12491SOL     OW41514   0.714   6.180   5.959 -0.1704  0.2396  0.0274
12491SOL    HW141515   0.698   6.259   5.909 -1.3834 -0.0920 -0.1410
12491SOL    HW241516   0.768   6.126   5.901 -1.9152 -0.3263 -1.1842
12492SOL     OW41517   7.542   1.102   0.118  0.0281 -0.1102 -0.1046
12492SOL    HW141518   7.555   1.052   0.037 -0.0444  1.0617 -0.8703
12492SOL    HW241519   7.565   1.041   0.188  0.9134 -0.8979 -1.0434
12493SOL     OW41520   2.090   5.537   9.856  0.0593  0.8176  0.0212
12493SOL    HW141521   2.120   5.446   9.864  2.0818  1.4853  0.4751
12493SOL    HW241522   2.118   5.564   9.769 -1.1610  0.8179 -0.3910
12494SOL     OW41523   8.598   5.199   6.357  0.2452 -0.2789  0.6679
12494SOL    HW141524   8.573   5.131   6.294 -0.7797  1.1344 -0.5186
12494SOL    HW241525   8.567   5.165   6.441  0.0990 -1.4419  0.1782
12495SOL     OW41526   9.711   6.060   9.348 -0.1372  0.1017  0.0105
12495SOL    HW141527   9.733   5.969   9.328  1.6353  0.3641  0.6309
12495SOL    HW241528   9.723   6.067   9.442 -3.0320  0.2945  0.4555
12496SOL     OW41529   1.833   6.801   1.922 -0.5905 -0.1968 -0.1160
12496SOL    HW141530   1.850   6.720   1.873  3.9524  1.4653 -1.8014
12496SOL    HW241531   1.887   6.793   2.000 -0.4537  1.0119 -0.0783
12497SOL     OW41532   6.226   3.076   6.580  0.2091 -0.3665 -0.0391
12497SOL    HW141533   6.238   3.068   6.674 -0.7192  1.4845  0.2929
12497SOL    HW241534   6.314   3.092   6.545  0.3707  0.4568  0.7179
12498SOL     OW41535   1.976   3.281   2.033  0.4854  0.4982 -0.1689
12498SOL    HW141536   2.066   3.281   2.065  0.1018  1.2800  0.9809
12498SOL    HW241537   1.923   3.299   2.110 -0.7142 -0.4989 -0.7232
12499SOL     OW41538   4.159   8.030   1.325  0.5368  0.2219  0.0277
12499SOL    HW141539   4.167   7.998   1.414 -0.4541  0.3276  0.1704
12499SOL    HW241540   4.142   8.124   1.335 -1.5895 -0.0871 -0.1508
12500SOL     OW41541   0.587   3.887   0.116 -0.3664  0.2337  0.0645
12500SOL    HW141542   0.576   3.921   0.205 -1.5075  0.4911 -0.1683
12500SOL    HW241543   0.504   3.903   0.073 -0.6963 -2.1000 -0.3154
12501SOL     OW41544   6.592   3.224   2.647  0.5378  0.4200  0.0484
12501SOL    HW141545   6.567   3.199   2.557  3.5816  1.9688 -1.3774
12501SOL    HW241546   6.561   3.314   2.655 -0.7046 -0.0668  1.0434
12502SOL     OW41547   5.925   5.313   7.601 -0.5854  0.3786 -0.6737
12502SOL    HW141548   5.829   5.304   7.600 -0.6859  1.1664  0.5502
12502SOL    HW241549   5.943   5.377   7.532 -1.2102  2.2272  0.7833
12503SOL     OW41550   2.212   3.986   9.473 -0.5642  0.1669  0.4736
12503SOL    HW141551   2.122   3.992   9.507 -0.5400  1.2168  0.3746
12503SOL    HW241552   2.263   4.044   9.529 -0.0810  0.1354  0.0729
12504SOL     OW41553   8.924   4.940   2.547 -0.0075  0.1992  0.2334
12504SOL    HW141554   8.958   5.025   2.577  0.3422 -0.4958  1.9251
12504SOL    HW241555   8.833   4.957   2.525  0.6030  1.4702 -1.5943
12505SOL     OW41556   7.056   3.252   5.677 -0.3126 -0.1918 -0.0642
12505SOL    HW141557   7.078   3.338   5.715  1.1147 -0.9546  0.9586
12505SOL    HW241558   7.053   3.267   5.583 -4.4484  1.8910  0.1832
12506SOL     OW41559   9.826   6.272   4.142  0.6493 -0.0805  0.1322
12506SOL    HW141560   9.866   6.229   4.066  0.4491 -3.0789  1.5695
12506SOL    HW241561   9.895   6.271   4.209  0.7919  2.4243  0.1141
12507SOL     OW41562   1.961   7.767   5.730 -0.1038 -0.0477  0.2042
12507SOL    HW141563   1.880   7.730   5.694 -0.7618  0.8734  0.6999
12507SOL    HW241564   2.021   7.693   5.734 -0.4428 -0.4634 -1.5095
12508SOL     OW41565   5.426   9.038   0.167 -0.1840 -0.6040 -0.0502
12508SOL    HW141566   5.391   9.074   0.086  0.2088  1.4851  0.6431
12508SOL    HW241567   5.428   8.943   0.153 -2.0845 -0.4646 -1.6757
12509SOL     OW41568   9.881   2.313  10.043  0.6113  0.0781 -0.2220
12509SOL    HW141569   9.942   2.241  10.061  3.0705  1.9134 -0.5218
12509SOL    HW241570   9.818   2.310  10.115  1.5864 -1.3918  0.6361
12510SOL     OW41571   5.492   7.854   8.725  0.1502 -0.2377  0.0238
12510SOL    HW141572   5.468   7.786   8.662 -2.9383  1.2106 -0.5731
12510SOL    HW241573   5.540   7.919   8.674 -1.7117  0.5838 -0.7727
12511SOL     OW41574   9.349   2.656   1.377  0.1831  0.7967 -0.3283
12511SOL    HW141575   9.323   2.738   1.334 -1.2337  0.2326 -0.6079
12511SOL    HW241576   9.437   2.639   1.344 -0.2248  1.2441 -1.7496
12512SOL     OW41577   9.435   5.341   2.219 -0.2697  0.5387 -0.0601
12512SOL    HW141578   9.431   5.430   2.182  0.6565  0.6424  0.0763
12512SOL    HW241579   9.364   5.294   2.176 -0.7866  1.3550 -0.1192
12513SOL     OW41580   1.876   6.735   5.721  0.3297 -0.0428 -0.7605
12513SOL    HW141581   1.905   6.674   5.789  0.6979  0.4868 -0.4282
12513SOL    HW241582   1.860   6.680   5.644  0.3388 -0.5932 -0.3738
12514SOL     OW41583   5.760   4.797   3.576 -0.4646  0.2386  0.0974
12514SOL    HW141584   5.716   4.712   3.570  0.8248 -0.3604 -3.7243
12514SOL    HW241585   5.703   4.856   3.527  0.3758  0.6973 -0.3468
12515SOL     OW41586   1.832   5.199   0.099  0.0653 -1.2056 -0.3526
12515SOL    HW141587   1.848   5.207   0.005  0.0920  0.4800 -0.2212
12515SOL    HW241588   1.813   5.288   0.129  1.6757 -1.4018  1.5196
12516SOL     OW41589   2.886   4.751   8.423 -0.6114 -0.4149 -0.2625
12516SOL    HW141590   2.818   4.815   8.446  0.2484  0.3869  0.0971
12516SOL    HW241591   2.838   4.682   8.376 -1.3926  1.1318 -1.8866
12517SOL     OW41592   2.143   8.749   3.996 -0.7698  0.0779  0.0136
12517SOL    HW141593   2.087   8.803   3.941 -0.2087  0.5335 -0.1189
12517SOL    HW241594   2.156   8.668   3.946  0.8925  1.0364 -1.2043
12518SOL     OW41595  10.256   8.344  10.222 -0.4985 -0.0690 -0.0131
12518SOL    HW141596  10.163   8.324  10.237 -0.1700 -2.2399 -0.4638
12518SOL    HW241597  10.277   8.410  10.288 -2.3339  0.4344  0.1420
12519SOL     OW41598   3.148   7.529   0.281 -0.1750  0.0110 -0.2639
12519SOL    HW141599   3.181   7.442   0.302 -1.3535 -0.6901 -1.1857
12519SOL    HW241600   3.167   7.582   0.359  0.4199 -1.1023  0.3618
12520SOL     OW41601   8.355   2.678   3.997  0.2586  0.1819  0.0891
12520SOL    HW141602   8.354   2.737   3.921  1.0171  1.1826  0.8297
12520SOL    HW241603   8.426   2.617   3.979  3.0675  2.7327  1.6141
12521SOL     OW41604   3.685   3.839   5.519 -0.5646 -0.2984 -0.1457
12521SOL    HW141605   3.674   3.931   5.495 -1.3716  0.2643  2.0893
12521SOL    HW241606   3.602   3.798   5.496 -0.2459 -0.4721 -1.0356
12522SOL     OW41607   0.455   0.229   3.581  0.1817  0.2544  0.0295
12522SOL    HW141608   0.535   0.247   3.531  0.8135  0.4068  1.0625
12522SOL    HW241609   0.416   0.153   3.537 -0.0493  1.2400 -1.5430
12523SOL     OW41610   7.946   9.070  10.032 -0.9424 -0.2158  0.2062
12523SOL    HW141611   7.897   8.998  10.072  0.2439 -0.0622  2.0518
12523SOL    HW241612   8.037   9.051  10.052 -0.2947  0.1302 -2.1345
12524SOL     OW41613   1.014   8.167   9.905  0.1809  0.2031  0.1322
12524SOL    HW141614   0.928   8.203   9.883  1.2663  2.3961 -0.8362
12524SOL    HW241615   1.076   8.230   9.869  2.1905  0.0643  3.0329
12525SOL     OW41616   8.832   7.020   9.754  0.5477  0.3423  0.2843
12525SOL    HW141617   8.781   6.939   9.765  0.2953  0.3768 -0.5692
12525SOL    HW241618   8.888   7.003   9.678  1.9504  0.2468  1.3169
12526SOL     OW41619   5.157   9.650   4.974 -0.1429 -0.4662 -0.5283
12526SOL    HW141620   5.082   9.619   4.923 -0.4854 -0.9885  0.2696
12526SOL    HW241621   5.142   9.616   5.063  1.1850 -0.8367 -0.4197
12527SOL     OW41622   3.648   8.945   1.610 -0.5221 -0.3032  0.3415
12527SOL    HW141623   3.571   8.931   1.554  0.7148  0.0547 -1.5688
12527SOL    HW241624   3.650   9.040   1.623 -0.5384 -0.3390  0.5993
12528SOL     OW41625   6.666   1.775   6.809  0.0549 -0.0648 -0.3476
12528SOL    HW141626   6.723   1.844   6.777 -0.9466  1.9435  1.9354
12528SOL    HW241627   6.585   1.784   6.757  0.1473  0.0662 -0.4679
12529SOL     OW41628   4.910   5.607   6.390 -0.2443  0.2921 -0.7851
12529SOL    HW141629   4.972   5.535   6.378 -0.0993  0.0206  1.2534
12529SOL    HW241630   4.833   5.566   6.429 -1.5211  0.7358 -2.6754
12530SOL     OW41631   4.615   9.344   7.170 -0.1351  0.0346 -0.6551
12530SOL    HW141632   4.636   9.394   7.091  0.5532 -0.1899 -0.6207
12530SOL    HW241633   4.699   9.309   7.199 -0.0794  1.5347  1.1642
12531SOL     OW41634   2.220   8.109  10.275  0.0573  0.0575 -0.1178
12531SOL    HW141635   2.138   8.156  10.270 -0.4200 -0.5601  1.3811
12531SOL    HW241636   2.285   8.175  10.299 -0.2330  0.3045 -0.0151
12532SOL     OW41637   0.271   3.690   1.594 -0.7076 -0.1253 -0.1577
12532SOL    HW141638   0.243   3.609   1.635 -0.7754 -0.5251 -0.9721
12532SOL    HW241639   0.324   3.662   1.519  1.6535  0.5966  1.1417
12533SOL     OW41640   1.482   1.429   5.101  0.3183  0.3413 -0.7256
12533SOL    HW141641   1.432   1.361   5.147  0.4559 -0.1060 -1.2214
12533SOL    HW241642   1.452   1.511   5.140 -0.3374  0.0393 -0.5704
12534SOL     OW41643   9.984   8.414   6.961 -0.2094  0.0945  1.0242
12534SOL    HW141644   9.987   8.361   7.040 -1.4046  0.1987  1.1566
12534SOL    HW241645   9.897   8.398   6.924  1.3237 -2.4615 -2.0306
12535SOL     OW41646   1.944   8.030   5.150 -0.2268  0.1615  0.3915
12535SOL    HW141647   1.922   8.063   5.237 -1.5616  2.1647 -0.6344
12535SOL    HW241648   2.028   8.071   5.129  1.3619 -2.2310  1.6205
12536SOL     OW41649   6.436   3.851   4.159 -0.0434 -0.5881  0.4517
12536SOL    HW141650   6.489   3.891   4.227 -0.3763  1.0000 -0.1694
12536SOL    HW241651   6.481   3.770   4.137  1.4466  0.1221  0.7944
12537SOL     OW41652   1.792   7.157   1.303  0.3061 -1.0044 -0.0417
12537SOL    HW141653   1.887   7.148   1.306  0.2984 -1.3724 -0.7382
12537SOL    HW241654   1.770   7.206   1.383  1.1757 -0.0375 -0.3721
12538SOL     OW41655   7.911   3.935   9.758 -0.2547  0.2849 -0.0367
12538SOL    HW141656   7.828   3.942   9.805  0.3012  1.1440  0.8390
12538SOL    HW241657   7.942   4.025   9.750 -0.8502  0.3348 -3.0451
12539SOL     OW41658   1.958   9.954   1.366 -0.0906 -0.7946  0.1169
12539SOL    HW141659   1.977   9.989   1.279 -0.0768  1.3710  0.9300
12539SOL    HW241660   1.862   9.959   1.373 -0.2388 -2.4496 -0.3203
12540SOL     OW41661   6.446   3.613   4.419 -0.0179  0.1548 -0.0108
12540SOL    HW141662   6.521   3.574   4.463 -1.1225  0.8328  2.6499
12540SOL    HW241663   6.484   3.665   4.348  1.7734 -1.7349 -0.5335
12541SOL     OW41664   8.326   6.441   0.261 -0.4244 -0.6693  0.1332
12541SOL    HW141665   8.296   6.352   0.245 -0.3567 -0.5196 -0.9257
12541SOL    HW241666   8.249   6.496   0.243 -0.9318 -0.5854  2.3171
12542SOL     OW41667   4.569   8.925   6.360  0.2148  0.7335 -0.2263
12542SOL    HW141668   4.527   8.996   6.409 -0.8537 -0.3555  0.4846
12542SOL    HW241669   4.638   8.968   6.310  1.3431  1.9242  2.1922
12543SOL     OW41670  10.184   0.287   4.722  0.1986  0.2870  0.2713
12543SOL    HW141671  10.187   0.296   4.818  1.5171  0.1576  0.2612
12543SOL    HW241672  10.208   0.196   4.705  1.6136  0.7394 -0.2404
12544SOL     OW41673   4.284   6.364   6.154  0.4300 -0.0213  0.2357
12544SOL    HW141674   4.322   6.380   6.068 -1.0056  0.6802 -0.2924
12544SOL    HW241675   4.347   6.306   6.198  0.5691 -1.4783 -1.7534
12545SOL     OW41676   5.062   5.585   1.205 -0.5516  0.1720 -0.6366
12545SOL    HW141677   5.091   5.662   1.254 -0.2797 -0.1073 -0.3552
12545SOL    HW241678   4.967   5.592   1.203 -0.4767  1.3149 -1.9185
12546SOL     OW41679   1.525   1.536   9.890  0.0561  0.0980 -0.2383
12546SOL    HW141680   1.590   1.605   9.903 -1.1636  1.0446  1.1769
12546SOL    HW241681   1.555   1.488   9.813  1.8916  1.1026 -0.1849
12547SOL     OW41682   2.802   1.055   4.841 -0.3158  0.0213  0.1121
12547SOL    HW141683   2.876   0.997   4.859  0.4827  0.4087 -1.6469
12547SOL    HW241684   2.842   1.135   4.807 -1.4963  0.7639  0.4076
12548SOL     OW41685   9.659   5.928   8.835 -0.1250  0.4909 -0.2098
12548SOL    HW141686   9.590   5.869   8.804 -0.2973  0.5463  0.0642
12548SOL    HW241687   9.651   6.005   8.780 -0.5482  0.6632  0.0876
12549SOL     OW41688   8.865   6.175   8.769  0.9842 -0.5644 -0.0786
12549SOL    HW141689   8.848   6.097   8.717 -2.6569  0.9218 -1.4481
12549SOL    HW241690   8.846   6.248   8.710 -1.7533  1.2659  2.7533
12550SOL     OW41691   2.349   1.143   3.750  0.3788  0.2359 -0.1163
12550SOL    HW141692   2.340   1.148   3.845  2.3495  2.0179  0.0559
12550SOL    HW241693   2.442   1.124   3.736  0.0964 -0.0864 -1.6938
12551SOL     OW41694   7.908   0.614   1.559 -0.0045 -0.4788 -0.2031
12551SOL    HW141695   7.981   0.553   1.548  0.6873  0.4047 -0.7101
12551SOL    HW241696   7.938   0.674   1.628 -0.7723 -0.8430  0.4566
12552SOL     OW41697   6.857   1.727   9.246  0.2009 -0.0016 -0.0456
12552SOL    HW141698   6.941   1.735   9.291  0.5976  1.0217 -0.9330
12552SOL    HW241699   6.870   1.655   9.184  0.6584  0.6015 -0.6618
12553SOL     OW41700   1.275   4.263   5.637 -0.4471  0.1526  0.2602
12553SOL    HW141701   1.216   4.225   5.572 -0.1874 -0.6946  0.5022
12553SOL    HW241702   1.268   4.358   5.624 -0.9145  0.0167 -0.5396
12554SOL     OW41703   3.547   5.514   2.774 -1.1634  0.1193 -0.2742
12554SOL    HW141704   3.584   5.536   2.860  0.5731 -0.8962 -0.7168
12554SOL    HW241705   3.459   5.482   2.793 -0.1678 -1.8653  1.3647
12555SOL     OW41706   3.083   5.772   5.921 -0.7727 -0.0512 -0.4832
12555SOL    HW141707   3.107   5.692   5.968 -2.1582 -0.6837 -0.8041
12555SOL    HW241708   3.072   5.745   5.830 -0.0352  0.7721 -0.8398
12556SOL     OW41709   2.095   0.981   9.374 -0.3121  0.2626 -0.2767
12556SOL    HW141710   2.152   0.958   9.448  0.1327  0.6394 -0.4934
12556SOL    HW241711   2.018   0.925   9.384 -0.0702  0.0165  0.2380
12557SOL     OW41712   0.951   5.343   2.678  0.5972  0.1032  0.1002
12557SOL    HW141713   0.994   5.338   2.763 -2.3963  1.0857  1.8454
12557SOL    HW241714   0.886   5.272   2.680  0.7068 -0.0833 -1.5467
12558SOL     OW41715   1.833   0.320   6.269  0.2117 -0.1022  0.1474
12558SOL    HW141716   1.738   0.321   6.256  0.2385  0.3550 -0.0262
12558SOL    HW241717   1.851   0.234   6.306 -0.4307  0.2679  1.3935
12559SOL     OW41718   7.277   1.266   8.470 -0.1307  0.1095  0.0586
12559SOL    HW141719   7.329   1.268   8.390 -0.9444 -1.5148 -0.5346
12559SOL    HW241720   7.338   1.295   8.538  0.0598  3.5063 -1.3374
12560SOL     OW41721   0.006   8.297   8.271 -0.2410 -0.2017  0.2918
12560SOL    HW141722   0.056   8.251   8.339  0.4396  1.1842  0.7898
12560SOL    HW241723  -0.060   8.346   8.320 -0.1479  0.3203 -0.0997
12561SOL     OW41724   9.388   8.118   1.298 -0.0804  0.4859  0.1760
12561SOL    HW141725   9.481   8.111   1.275 -0.6783 -2.3604 -1.8338
12561SOL    HW241726   9.384   8.094   1.390  1.0303 -1.0123 -0.1351
12562SOL     OW41727   1.848   9.823   1.855  0.8607 -0.6046 -0.3923
12562SOL    HW141728   1.935   9.794   1.828  0.6973 -1.0096 -0.5011
12562SOL    HW241729   1.847   9.917   1.838  1.6565 -0.3877  0.6458
12563SOL     OW41730   2.141   9.651   9.385 -0.4084 -0.4940 -0.1702
12563SOL    HW141731   2.052   9.621   9.404 -0.9117  0.8012 -0.3362
12563SOL    HW241732   2.195   9.573   9.389 -1.5128 -1.2509  0.2527
12564SOL     OW41733   5.365   9.071   2.356 -0.1757  0.6179  0.2754
12564SOL    HW141734   5.429   9.005   2.331  0.4935  1.2659  0.2598
12564SOL    HW241735   5.392   9.099   2.444  1.1024  2.7129 -0.7246
12565SOL     OW41736   7.852   0.248   5.274 -0.5022  0.5411  0.0399
12565SOL    HW141737   7.907   0.257   5.351  0.9069 -0.9061 -0.7213
12565SOL    HW241738   7.855   0.154   5.254 -2.2184  0.6225 -0.8000
12566SOL     OW41739   5.866   2.641   6.808  0.2188  0.2667  0.6771
12566SOL    HW141740   5.832   2.608   6.725 -0.4180  1.8152  0.3010
12566SOL    HW241741   5.894   2.562   6.855  0.0280 -0.6807 -0.7440
12567SOL     OW41742   8.512   8.024   1.004 -1.0582  0.8559 -0.0340
12567SOL    HW141743   8.589   7.978   0.972 -1.2355  0.5497 -0.0267
12567SOL    HW241744   8.531   8.117   0.988 -0.3497  0.8504  0.7141
12568SOL     OW41745   4.706   0.183   8.897 -1.3084 -0.6477 -0.4046
12568SOL    HW141746   4.784   0.134   8.871 -1.5767 -0.5003 -1.5090
12568SOL    HW241747   4.641   0.163   8.830 -2.2149 -0.7287  0.4793
12569SOL     OW41748  10.165   4.745   6.085 -0.1487 -0.5212  0.5016
12569SOL    HW141749  10.110   4.809   6.130  1.0349  0.3818  0.7173
12569SOL    HW241750  10.147   4.758   5.992 -1.1817 -1.0725  0.6162
12570SOL     OW41751   0.878   0.982   0.283  0.1553 -0.9144  0.1624
12570SOL    HW141752   0.852   1.014   0.369 -0.4784 -0.3033 -0.2446
12570SOL    HW241753   0.904   0.891   0.297 -0.2152 -0.8992  0.9434
12571SOL     OW41754   3.553   2.240   5.800 -0.3744 -0.9494 -0.1496
12571SOL    HW141755   3.590   2.317   5.756  0.2931 -1.2451 -0.1130
12571SOL    HW241756   3.458   2.254   5.795 -0.3065 -0.7624 -1.3118
12572SOL     OW41757   4.238   2.729   1.660 -0.1860  0.5631 -0.0898
12572SOL    HW141758   4.209   2.820   1.667  0.2446  0.9751 -2.8306
12572SOL    HW241759   4.327   2.735   1.625  0.0527 -0.9136  0.2001
12573SOL     OW41760   0.981   3.353   5.786  0.0952 -0.6025  0.0561
12573SOL    HW141761   0.945   3.289   5.724  0.4779  0.4064 -1.2678
12573SOL    HW241762   1.068   3.319   5.808 -0.3102 -1.3213  0.6234
12574SOL     OW41763   5.495   2.390   0.313  0.2730 -0.5110 -0.2171
12574SOL    HW141764   5.458   2.406   0.400  2.0706  0.0038  0.5064
12574SOL    HW241765   5.471   2.468   0.263  0.7994  0.0677  0.4001
12575SOL     OW41766   1.463   1.777   0.839 -0.4918  0.1698  0.2179
12575SOL    HW141767   1.424   1.820   0.763  1.3070  0.3407 -0.6591
12575SOL    HW241768   1.393   1.723   0.874 -0.7940 -1.8896 -3.0655
12576SOL     OW41769   9.438   0.532   5.358 -0.0930 -0.2360  0.2306
12576SOL    HW141770   9.452   0.438   5.351 -0.7379 -0.3768  0.7362
12576SOL    HW241771   9.516   0.571   5.318  1.0857 -0.9834  1.6847
12577SOL     OW41772   6.609   9.878   7.395 -0.0615  0.5061  0.3510
12577SOL    HW141773   6.623   9.877   7.301 -1.7698  0.0310  0.0839
12577SOL    HW241774   6.529   9.828   7.409  1.6713 -1.9890  2.3542
12578SOL     OW41775   9.720   2.567   6.444  0.0684  0.8932 -0.1954
12578SOL    HW141776   9.664   2.566   6.366  1.6043  0.7393 -1.3321
12578SOL    HW241777   9.796   2.515   6.420  0.1537  0.0279  1.7655
12579SOL     OW41778   2.320   6.903   9.999  0.1665  0.2881 -0.1982
12579SOL    HW141779   2.351   6.864  10.081 -1.1455  0.8987  0.6271
12579SOL    HW241780   2.397   6.946   9.962  0.6256  0.6354  1.0904
12580SOL     OW41781   9.787   8.269   9.091 -0.1734  0.2815 -0.3193
12580SOL    HW141782   9.719   8.336   9.105 -1.1669 -0.7166 -0.1741
12580SOL    HW241783   9.851   8.284   9.160  0.1269  1.6736 -0.8684
12581SOL     OW41784   7.060   1.126   6.952  0.0996  0.1840 -0.5231
12581SOL    HW141785   7.150   1.152   6.931  0.2730 -1.1363 -1.5784
12581SOL    HW241786   7.071   1.059   7.020 -0.0476 -0.1351 -0.8074
12582SOL     OW41787   8.772   7.084   1.293 -0.3041 -0.1086  0.2256
12582SOL    HW141788   8.699   7.037   1.333 -0.5096 -0.3525 -0.4169
12582SOL    HW241789   8.731   7.145   1.232 -0.0329  0.8476  0.9693
12583SOL     OW41790   9.557   8.327   6.501 -0.1168  0.1169 -0.2312
12583SOL    HW141791   9.554   8.389   6.428  0.0572  1.4182  0.8241
12583SOL    HW241792   9.611   8.371   6.567 -1.5135 -0.3536  1.2772
12584SOL     OW41793   6.639   4.406   6.789 -0.2179  0.1283  0.0242
12584SOL    HW141794   6.576   4.468   6.752 -1.4355 -0.1033  1.6312
12584SOL    HW241795   6.705   4.396   6.720 -1.3330  1.2316 -1.2708
12585SOL     OW41796   5.907   2.409   7.982 -0.0730 -0.1789  0.2316
12585SOL    HW141797   5.845   2.408   8.055  0.4199  0.0429  0.6602
12585SOL    HW241798   5.877   2.339   7.924 -1.1683  0.4278  0.0477
12586SOL     OW41799   6.448   3.115   6.420 -0.1415 -0.0183 -0.3304
12586SOL    HW141800   6.500   3.196   6.427  1.2129 -0.8861  0.1669
12586SOL    HW241801   6.452   3.091   6.328 -0.9644  0.7272 -0.5720
12587SOL     OW41802   0.448   5.243   6.647  0.2197  0.0897 -0.0193
12587SOL    HW141803   0.497   5.206   6.573  0.5839 -1.0609  0.7705
12587SOL    HW241804   0.410   5.167   6.691 -0.8018  0.8354  0.4218
12588SOL     OW41805   2.554   5.330   9.231  0.0064  0.9501 -0.7722
12588SOL    HW141806   2.536   5.286   9.148 -0.1978  0.7467 -0.6222
12588SOL    HW241807   2.482   5.304   9.288 -0.4692  1.9867 -0.8697
12589SOL     OW41808   9.143   5.887   5.104  0.0746  0.1058  0.1566
12589SOL    HW141809   9.183   5.936   5.175  0.5507  1.2415 -0.8542
12589SOL    HW241810   9.053   5.918   5.101  0.3489  0.9156 -0.4193
12590SOL     OW41811   9.395   1.494   5.585 -0.4164  0.3427 -0.1625
12590SOL    HW141812   9.437   1.561   5.638  0.8302 -0.2765 -0.3348
12590SOL    HW241813   9.467   1.440   5.552 -1.3286 -0.6360 -0.6320
12591SOL     OW41814   9.608   0.251   5.887 -0.0211  0.2952 -0.2979
12591SOL    HW141815   9.533   0.192   5.883  0.5281 -0.3528 -1.4154
12591SOL    HW241816   9.590   0.308   5.962 -1.9179  0.5820 -0.9377
12592SOL     OW41817   6.651   5.461   6.221 -0.6080  0.0658  0.0727
12592SOL    HW141818   6.687   5.548   6.206 -2.1790  0.9141  0.8887
12592SOL    HW241819   6.727   5.404   6.230  0.4581  0.9731 -2.3575
12593SOL     OW41820   8.561   3.374   6.330  0.3226 -0.0892  0.1734
12593SOL    HW141821   8.639   3.328   6.358  0.2672  0.0379  0.5477
12593SOL    HW241822   8.537   3.334   6.246  1.3605  0.5497 -0.4547
12594SOL     OW41823   2.518   1.459   1.030  0.1340 -0.8633 -0.7916
12594SOL    HW141824   2.506   1.484   1.122  1.1353  0.6591 -1.0407
12594SOL    HW241825   2.503   1.364   1.029  2.2836 -1.3144  1.3560
12595SOL     OW41826   6.471   9.812   6.215  0.2877  0.0786 -0.1231
12595SOL    HW141827   6.433   9.731   6.248 -0.8974 -0.4857 -2.5933
12595SOL    HW241828   6.515   9.786   6.134  1.8662  1.5581  0.2049
12596SOL     OW41829   3.898   8.413   6.399  0.4451  0.3347 -0.4833
12596SOL    HW141830   3.941   8.399   6.484  0.2574 -1.2898 -0.6177
12596SOL    HW241831   3.839   8.338   6.390  0.1317  0.7224 -1.8497
12597SOL     OW41832   6.451   4.260   5.130 -0.4818 -0.6404  0.1932
12597SOL    HW141833   6.539   4.233   5.156 -0.0525  0.1212 -0.4403
12597SOL    HW241834   6.457   4.277   5.036 -0.4402  2.5873  0.6747
12598SOL     OW41835   9.434   3.963   6.222 -0.4517 -0.2046 -0.1039
12598SOL    HW141836   9.513   4.010   6.194 -0.8830 -0.1058 -1.2098
12598SOL    HW241837   9.374   4.032   6.250  0.0290 -0.3098  1.2952
12599SOL     OW41838   5.420   0.301   7.456 -0.5155  0.8995 -0.3633
12599SOL    HW141839   5.478   0.310   7.380 -0.9075  1.2482 -0.6244
12599SOL    HW241840   5.402   0.391   7.483  0.9171  0.7788  1.1459
12600SOL     OW41841   0.704   3.878   4.321  0.7915  0.5165 -0.3432
12600SOL    HW141842   0.636   3.946   4.325  0.8837  0.5478  1.0487
12600SOL    HW241843   0.664   3.808   4.269 -0.3188  0.5402  0.4457
12601SOL     OW41844   7.302   9.196   8.521  0.1683  0.5521  0.3083
12601SOL    HW141845   7.329   9.141   8.594 -0.0939 -0.3365 -0.2515
12601SOL    HW241846   7.207   9.205   8.531  0.2110  0.9342  0.4093
12602SOL     OW41847   9.984   9.792   2.904 -0.5494  0.0322  0.6531
12602SOL    HW141848   9.990   9.701   2.874  1.8665  0.2444  0.2813
12602SOL    HW241849   9.944   9.839   2.831 -2.3996 -0.8035  1.0927
12603SOL     OW41850   8.792   3.100   3.841 -0.8515  0.1490 -0.5888
12603SOL    HW141851   8.862   3.103   3.906 -1.6796 -0.2224  0.3398
12603SOL    HW241852   8.734   3.172   3.865 -1.1049  0.0901 -1.0030
12604SOL     OW41853   9.977   9.264   0.236  0.5071  0.0433  0.1689
12604SOL    HW141854  10.021   9.188   0.197  1.8622  0.0670  1.5193
12604SOL    HW241855   9.921   9.299   0.166  1.4867 -0.9239 -1.1510
12605SOL     OW41856   8.803   0.450   1.910 -0.2629  0.2613 -0.2648
12605SOL    HW141857   8.725   0.507   1.908 -0.1340  0.6875  2.3372
12605SOL    HW241858   8.801   0.411   1.998  1.8427 -0.6298 -0.5573
12606SOL     OW41859   0.022   8.929   1.841 -0.2072 -0.0593 -0.0363
12606SOL    HW141860  -0.012   8.843   1.868 -2.4638  0.6810 -0.3295
12606SOL    HW241861   0.093   8.947   1.903 -0.0815 -1.8568  0.4040
12607SOL     OW41862   6.132   9.675   8.267  0.3794 -0.5573  0.3443
12607SOL    HW141863   6.157   9.688   8.175 -1.9381 -0.8412 -0.3719
12607SOL    HW241864   6.187   9.603   8.297  1.0365 -0.5873 -0.8701
12608SOL     OW41865   5.030   6.716   9.521 -0.1387  0.6447 -0.1186
12608SOL    HW141866   5.107   6.665   9.545 -1.2610 -1.7358 -1.1287
12608SOL    HW241867   4.968   6.700   9.592 -1.9258 -2.9121 -2.1770
12609SOL     OW41868   4.972   4.521   4.473 -0.0377 -0.1757  0.2871
12609SOL    HW141869   4.911   4.583   4.512 -0.3493 -1.3295  1.7407
12609SOL    HW241870   4.916   4.453   4.435  0.3183 -0.2438 -0.1277
12610SOL     OW41871   7.439   9.193   4.502 -0.5604  0.4394 -0.4237
12610SOL    HW141872   7.458   9.150   4.418 -1.7209 -0.5760 -0.1883
12610SOL    HW241873   7.458   9.125   4.567 -1.6441  0.5467  0.0067
12611SOL     OW41874  10.063   0.705   0.537 -0.3727 -0.6087 -0.7729
12611SOL    HW141875  10.054   0.650   0.459 -0.2002  0.8428 -1.8622
12611SOL    HW241876  10.094   0.789   0.504  0.7553 -0.2646  0.9915
12612SOL     OW41877   2.345   0.276   5.662  0.2001 -0.0578 -0.9192
12612SOL    HW141878   2.300   0.294   5.744 -0.2609  0.1226 -1.2096
12612SOL    HW241879   2.320   0.186   5.641 -0.1919  0.1099 -1.1828
12613SOL     OW41880  10.126   4.290   4.912  0.2155 -0.1585  0.3067
12613SOL    HW141881  10.032   4.273   4.916  0.3248 -1.4079 -1.3027
12613SOL    HW241882  10.166   4.203   4.909  1.3661  0.3562  0.1247
12614SOL     OW41883   8.763   8.026   5.760  0.5161  0.0291  0.2805
12614SOL    HW141884   8.818   8.008   5.836  0.6447 -1.4503 -0.1274
12614SOL    HW241885   8.776   7.950   5.702 -0.1263  0.7753 -0.8959
12615SOL     OW41886   9.785   6.017   1.357  0.3543  0.0870  0.4811
12615SOL    HW141887   9.853   6.056   1.412  0.6485 -2.5063  2.0799
12615SOL    HW241888   9.784   5.924   1.380 -3.3138 -0.1346  0.0554
12616SOL     OW41889   3.827   5.580   9.384 -0.0222  0.4791  0.0020
12616SOL    HW141890   3.837   5.623   9.299 -1.1500  0.1616 -0.3164
12616SOL    HW241891   3.850   5.647   9.448 -1.0078  1.3475 -0.5035
12617SOL     OW41892   6.112   9.673   2.483  0.3636  0.3803  0.4869
12617SOL    HW141893   6.136   9.763   2.504  0.7274  0.0499  1.5475
12617SOL    HW241894   6.065   9.679   2.400 -1.4389  1.7903  1.5324
12618SOL     OW41895   4.027   8.853   9.322  0.1855 -0.1316  0.3641
12618SOL    HW141896   4.045   8.940   9.287  0.1233 -0.7329 -1.2852
12618SOL    HW241897   4.106   8.830   9.372  3.5613 -1.7928 -4.8197
12619SOL     OW41898   2.476   2.362  10.211 -0.6702 -0.0734 -0.1000
12619SOL    HW141899   2.499   2.308  10.286 -0.1803  0.0969 -0.1245
12619SOL    HW241900   2.427   2.303  10.153  0.4802 -0.7147 -0.4622
12620SOL     OW41901   6.619   0.703   1.841  0.2261  0.1830  0.2411
12620SOL    HW141902   6.712   0.682   1.840  0.2615  0.3587 -0.2274
12620SOL    HW241903   6.607   0.767   1.772 -0.2706  0.0453  0.1900
12621SOL     OW41904   8.213   8.521   3.320  0.4851 -0.0579  0.0393
12621SOL    HW141905   8.239   8.457   3.253  0.1029 -1.4910  1.2134
12621SOL    HW241906   8.122   8.540   3.300  0.0832 -1.2043  0.6545
12622SOL     OW41907   5.777   2.565   4.888  0.2987  0.2508  0.1175
12622SOL    HW141908   5.716   2.540   4.819  0.9764  1.3566 -0.9262
12622SOL    HW241909   5.838   2.492   4.894  0.6004  0.4023 -0.9163
12623SOL     OW41910   8.376   1.256   7.679 -0.0236 -0.2052  0.0086
12623SOL    HW141911   8.406   1.270   7.769 -0.5003  0.8639  0.0113
12623SOL    HW241912   8.457   1.248   7.628  0.2728  0.9351  0.2698
12624SOL     OW41913   0.757   6.736  10.116 -0.2321  0.3712  0.1784
12624SOL    HW141914   0.746   6.729  10.211 -1.3288  0.8434  0.1074
12624SOL    HW241915   0.803   6.819  10.104  1.4765 -0.5185  0.3699
12625SOL     OW41916   2.091   4.670   9.030  0.7441  0.4690 -0.1365
12625SOL    HW141917   2.009   4.623   9.045  1.0203  0.1593  0.4072
12625SOL    HW241918   2.126   4.687   9.117  1.6746 -0.1216 -0.3847
12626SOL     OW41919   9.681   2.003   6.462 -0.1478 -0.5826 -0.3588
12626SOL    HW141920   9.654   1.925   6.413 -1.2834 -0.0997 -0.5357
12626SOL    HW241921   9.630   2.074   6.424  2.2940  0.6655 -1.5463
12627SOL     OW41922   8.677   2.583   7.748  0.0227  0.3403  0.5896
12627SOL    HW141923   8.673   2.541   7.662  1.4473  0.7502  0.2829
12627SOL    HW241924   8.588   2.578   7.782 -0.1157 -1.8395  0.0649
12628SOL     OW41925   3.078   0.128   2.143  0.3130  0.2166  0.2098
12628SOL    HW141926   3.148   0.071   2.173  0.2303  1.0848  2.1855
12628SOL    HW241927   3.093   0.137   2.049  2.3671 -0.2751  0.4455
12629SOL     OW41928   7.874   5.914   5.504 -0.1320 -0.4090  0.2035
12629SOL    HW141929   7.900   5.948   5.589 -2.8499  2.2766  0.1387
12629SOL    HW241930   7.923   5.832   5.494  3.0184  0.9624  2.6891
12630SOL     OW41931   4.300   5.288   4.285 -0.3299 -0.2074 -0.3824
12630SOL    HW141932   4.386   5.286   4.327 -1.0445  0.7752  1.2343
12630SOL    HW241933   4.295   5.376   4.247 -0.3294 -0.5366 -1.1602
12631SOL     OW41934   1.243   6.224   2.870 -0.2762  0.8499  0.0717
12631SOL    HW141935   1.168   6.268   2.830 -1.1899 -1.2340 -0.6543
12631SOL    HW241936   1.312   6.232   2.804 -0.1379  1.9406  0.3311
12632SOL     OW41937   7.424   3.441   2.216  0.6274  0.2812 -0.7630
12632SOL    HW141938   7.479   3.519   2.226 -0.4446  0.9137  0.5443
12632SOL    HW241939   7.438   3.392   2.298  0.0297 -0.0622 -0.8638
12633SOL     OW41940   9.682   8.291   4.809  0.0608  0.3292 -0.4046
12633SOL    HW141941   9.593   8.284   4.776  0.1050 -0.2205 -0.4090
12633SOL    HW241942   9.673   8.323   4.899 -0.1381  0.2254 -0.3895
12634SOL     OW41943   8.545   5.152  10.238 -0.2796  0.0939 -0.0025
12634SOL    HW141944   8.498   5.220  10.190  1.6449  0.8354 -0.9014
12634SOL    HW241945   8.621   5.196  10.274  1.3026 -1.6619 -1.0242
12635SOL     OW41946   4.660   4.070   4.313 -0.5138  0.0233  0.1246
12635SOL    HW141947   4.565   4.061   4.300 -0.5144 -0.9344  0.6634
12635SOL    HW241948   4.673   4.048   4.405  0.5536 -2.8636 -0.6089
12636SOL     OW41949   9.369   5.778   9.572 -0.1401 -0.0578  0.1458
12636SOL    HW141950   9.357   5.866   9.608  4.3466  0.8917 -0.0255
12636SOL    HW241951   9.413   5.730   9.642 -0.8389 -1.5977 -0.4301
12637SOL     OW41952   1.760   8.614   0.294 -0.0971  0.8152 -0.1632
12637SOL    HW141953   1.816   8.572   0.359 -2.6184  0.3095  1.8600
12637SOL    HW241954   1.745   8.547   0.227 -0.9945 -0.2911  1.0743
12638SOL     OW41955   8.637   3.311   9.772  0.0632 -0.3156 -0.3062
12638SOL    HW141956   8.732   3.304   9.786  0.3192  0.9158 -1.2964
12638SOL    HW241957   8.612   3.223   9.742  1.0318 -0.4418 -0.8002
12639SOL     OW41958   9.618   1.630   5.176  0.5880  0.4406 -0.1467
12639SOL    HW141959   9.551   1.674   5.123 -1.7693  0.7400  2.8289
12639SOL    HW241960   9.604   1.537   5.160  0.2541  0.5400 -0.4461
12640SOL     OW41961   7.874   0.376   3.969 -0.8968 -0.8804  0.2910
12640SOL    HW141962   7.829   0.292   3.980 -1.5619 -0.5798 -0.1015
12640SOL    HW241963   7.890   0.407   4.058 -1.3502 -1.0568  0.4350
12641SOL     OW41964   1.486   3.568  10.245  0.4586 -0.4392  0.0028
12641SOL    HW141965   1.576   3.565  10.280  0.5268  1.3409  0.0853
12641SOL    HW241966   1.469   3.479  10.216  2.1431 -0.9023  0.2952
12642SOL     OW41967   2.176   8.888   4.248 -0.0228 -0.3480  0.2804
12642SOL    HW141968   2.171   8.879   4.153 -1.0040 -0.2939  0.3239
12642SOL    HW241969   2.236   8.962   4.261  0.2208 -0.4401 -0.2827
12643SOL     OW41970   7.677   9.897   1.775 -0.4845  0.5275  0.1303
12643SOL    HW141971   7.685   9.991   1.789 -1.7111  0.9762 -1.7929
12643SOL    HW241972   7.717   9.882   1.690 -0.8057 -0.6148  0.1634
12644SOL     OW41973   4.764   8.605   9.135 -0.0881  0.4834  0.7879
12644SOL    HW141974   4.835   8.541   9.142  0.4605  1.1897  2.0674
12644SOL    HW241975   4.684   8.554   9.146  0.2821 -0.1525  0.5665
12645SOL     OW41976   4.887   3.990   1.073 -0.3037  0.8116  0.3968
12645SOL    HW141977   4.872   3.897   1.086  0.1879  0.6871  0.1189
12645SOL    HW241978   4.801   4.031   1.084 -0.2063  0.5739  2.6213
12646SOL     OW41979   7.576   9.048   1.916 -0.3358  0.0061  0.4054
12646SOL    HW141980   7.615   8.962   1.898 -0.7596 -0.4022  1.3576
12646SOL    HW241981   7.518   9.032   1.991 -2.0042  0.6855 -0.6912
12647SOL     OW41982   7.988   4.420   4.132  0.0963 -0.0432 -0.6839
12647SOL    HW141983   8.059   4.358   4.150  0.0718 -0.0280 -0.5291
12647SOL    HW241984   7.935   4.419   4.212 -0.7867 -0.9848 -1.2644
12648SOL     OW41985   3.951   0.817   2.910 -0.5505 -0.0994 -0.1684
12648SOL    HW141986   4.037   0.854   2.890 -0.1218 -0.9507  0.0351
12648SOL    HW241987   3.925   0.860   2.991  0.8313 -1.5921  1.1507
12649SOL     OW41988   7.881   4.978   0.068  0.1554 -0.3142 -0.6794
12649SOL    HW141989   7.896   5.024   0.150 -1.9555  0.1971 -0.5065
12649SOL    HW241990   7.907   5.041   0.000 -1.7253  0.8233 -0.4218
12650SOL     OW41991   4.567   1.722   3.146 -0.0737 -0.3944  0.4130
12650SOL    HW141992   4.514   1.793   3.182 -1.2084 -0.4379 -1.0745
12650SOL    HW241993   4.512   1.644   3.153  0.8150 -0.9634  1.2113
12651SOL     OW41994   4.916   0.548   0.665  0.8452 -0.3030 -0.5237
12651SOL    HW141995   4.904   0.569   0.757  1.8848 -2.0921  0.0648
12651SOL    HW241996   4.946   0.630   0.625  0.5154  0.4550  0.7322
12652SOL     OW41997   6.940   7.536   2.308 -0.2884  0.1483 -0.1210
12652SOL    HW141998   6.899   7.622   2.314  1.4608  1.0761 -0.7770
12652SOL    HW241999   6.882   7.485   2.252 -0.3948  1.5237 -1.3084
12653SOL     OW42000   5.364   3.632   4.821  0.1005  0.7480  0.4394
12653SOL    HW142001   5.278   3.670   4.804 -0.4384 -0.3323  0.6526
12653SOL    HW242002   5.419   3.663   4.749 -1.0597 -0.3788 -1.0035
12654SOL     OW42003   7.728   1.332   6.781  0.8569  0.5954  0.0024
12654SOL    HW142004   7.804   1.337   6.839  1.0521 -0.1743 -0.1790
12654SOL    HW242005   7.723   1.419   6.741  0.7368  1.1238  1.1457
12655SOL     OW42006   6.456  10.047   9.103 -0.4712  0.3118 -0.0511
12655SOL    HW142007   6.545  10.056   9.138 -0.1202  0.1977 -0.8857
12655SOL    HW242008   6.401  10.095   9.165  0.4049  1.8805 -0.4512
12656SOL     OW42009   1.045   0.758   9.686 -0.2618 -0.4384 -0.4776
12656SOL    HW142010   0.967   0.702   9.680 -0.3543 -0.6262  1.7167
12656SOL    HW242011   1.030   0.811   9.763  0.3288  1.9385 -1.9034
12657SOL     OW42012   9.120   4.215   7.622 -0.0519 -0.4777 -0.1522
12657SOL    HW142013   9.211   4.226   7.593 -0.0978 -0.5774 -0.3311
12657SOL    HW242014   9.081   4.302   7.612  0.1926 -0.2854  0.5087
12658SOL     OW42015   2.929   5.435   5.979 -0.4255  0.2641 -0.0330
12658SOL    HW142016   2.848   5.433   6.030 -0.9923 -0.2581 -0.9082
12658SOL    HW242017   2.939   5.345   5.947  2.0220 -0.4148  2.3284
12659SOL     OW42018   5.592   4.129   9.701 -0.2339 -0.1259 -0.4139
12659SOL    HW142019   5.519   4.134   9.639 -0.4828  0.3861 -0.0793
12659SOL    HW242020   5.637   4.212   9.691 -0.5162  0.1254  0.3872
12660SOL     OW42021   0.337  10.176   4.429 -0.0902  0.2006  0.6119
12660SOL    HW142022   0.426  10.176   4.463  0.2628  1.1511 -0.2528
12660SOL    HW242023   0.297  10.098   4.466  1.2285 -0.4620  0.7023
12661SOL     OW42024   2.745   0.972   1.398 -0.2073 -0.1318  0.1730
12661SOL    HW142025   2.772   0.907   1.333  1.2716  1.3650 -0.8095
12661SOL    HW242026   2.659   1.001   1.368  0.2343  0.1624 -0.8618
12662SOL     OW42027   0.393   5.462   7.085 -0.7755 -0.1529 -0.3093
12662SOL    HW142028   0.332   5.535   7.091  0.1055  0.7629 -1.6973
12662SOL    HW242029   0.379   5.411   7.164 -0.5542  2.2039  1.3430
12663SOL     OW42030   4.895   1.722   2.870 -0.4772 -0.5815 -0.4971
12663SOL    HW142031   4.863   1.725   2.960 -0.0433 -2.1968 -0.2439
12663SOL    HW242032   4.834   1.776   2.820 -0.3180  0.9252  0.8679
12664SOL     OW42033   2.476   0.279   6.829 -0.1490  0.4009  0.0607
12664SOL    HW142034   2.454   0.310   6.917  0.9499 -0.3003  0.6002
12664SOL    HW242035   2.449   0.187   6.829 -2.0116  0.9059 -1.0325
12665SOL     OW42036   1.502  10.217   6.265  0.4816  0.3488  0.1318
12665SOL    HW142037   1.468  10.137   6.224  1.3106 -0.0004  0.1112
12665SOL    HW242038   1.433  10.244   6.325 -0.5003  0.5378 -1.0500
12666SOL     OW42039   9.395   0.825   1.682 -0.0622  0.0493  0.0604
12666SOL    HW142040   9.349   0.839   1.764 -0.3649  3.1040 -0.5135
12666SOL    HW242041   9.342   0.760   1.635 -1.5839  0.5621  1.0022
12667SOL     OW42042   5.355   9.323   8.429  0.1462 -0.1785 -0.5033
12667SOL    HW142043   5.267   9.312   8.466 -0.1769  0.8145 -0.9350
12667SOL    HW242044   5.398   9.386   8.487  0.0007  0.5729 -1.1839
12668SOL     OW42045   7.775   0.137   8.110 -0.3521  0.9520 -0.2317
12668SOL    HW142046   7.717   0.170   8.179 -1.3902  0.8768 -1.0421
12668SOL    HW242047   7.850   0.195   8.112 -1.0678  1.8914 -0.0400
12669SOL     OW42048   3.065   3.577   6.900  0.6181 -0.1582  0.0344
12669SOL    HW142049   2.988   3.594   6.955  0.4442  1.1350 -0.5844
12669SOL    HW242050   3.127   3.646   6.923  1.2069 -0.5989 -0.1984
12670SOL     OW42051   0.846  10.123   1.896  0.2040  0.2088 -0.1717
12670SOL    HW142052   0.819  10.206   1.935  1.9194  0.3193  0.8886
12670SOL    HW242053   0.935  10.138   1.865  0.4936 -1.1844 -0.1143
12671SOL     OW42054   7.705   3.425   3.808  0.4031  0.1865  0.1865
12671SOL    HW142055   7.799   3.444   3.811  1.0667 -2.5417 -0.5903
12671SOL    HW242056   7.687   3.404   3.717 -0.5612 -1.0227  0.6212
12672SOL     OW42057  10.023   4.878   9.809  0.2141  0.4281 -0.9594
12672SOL    HW142058  10.114   4.883   9.780  0.2178 -0.1350 -1.0690
12672SOL    HW242059   9.984   4.811   9.753  0.3948 -1.1772  0.6882
12673SOL     OW42060   8.248   4.786   6.383  0.1294 -0.4880 -0.2626
12673SOL    HW142061   8.239   4.881   6.393  2.3403 -0.3440  1.1571
12673SOL    HW242062   8.169   4.749   6.421 -0.2199  0.7692  0.2683
12674SOL     OW42063   6.721   9.027   3.384 -0.2058 -0.7020  0.1694
12674SOL    HW142064   6.647   9.088   3.381  1.2393  1.1154 -0.3820
12674SOL    HW242065   6.684   8.944   3.354 -2.0831  0.0685  0.1932
12675SOL     OW42066   2.477   0.011   9.732  0.4350  0.3933  0.1789
12675SOL    HW142067   2.528  -0.036   9.797 -0.2176  0.9874  1.1467
12675SOL    HW242068   2.458   0.096   9.773 -0.0210  0.7617 -0.7682
12676SOL     OW42069   9.823   6.911   1.620  0.2617 -0.3551 -0.1877
12676SOL    HW142070   9.890   6.846   1.602 -0.6233 -1.4289  0.2589
12676SOL    HW242071   9.791   6.889   1.708 -1.0886 -0.2772 -0.6393
12677SOL     OW42072   0.864   2.924   1.366  0.2082  0.1362 -0.7624
12677SOL    HW142073   0.882   2.982   1.291 -0.2042  0.7443 -0.4003
12677SOL    HW242074   0.942   2.931   1.421 -0.2173  1.0892 -0.2587
12678SOL     OW42075   3.254   1.357   9.547  0.4920  0.1428  0.2655
12678SOL    HW142076   3.345   1.329   9.538  0.0423 -1.5070  0.5778
12678SOL    HW242077   3.209   1.313   9.476 -0.1622  0.5148  0.4475
12679SOL     OW42078   4.601  10.079   7.102  0.0923 -0.2314 -0.1357
12679SOL    HW142079   4.550   9.998   7.095  0.0112 -0.0390 -3.9009
12679SOL    HW242080   4.537  10.149   7.091  0.6232  0.1340 -1.0907
12680SOL     OW42081   2.437   3.450   0.617  0.0953 -0.0082 -0.1669
12680SOL    HW142082   2.371   3.394   0.658  0.7822 -1.1294 -0.5301
12680SOL    HW242083   2.473   3.501   0.689 -0.6615  0.1007  0.1471
12681SOL     OW42084   8.349  10.073   4.053 -0.7121  0.0349 -0.5287
12681SOL    HW142085   8.350  10.128   4.132  1.1360 -0.6595 -0.0067
12681SOL    HW242086   8.264  10.089   4.014 -1.1558  1.4407  0.8879
12682SOL     OW42087   1.283   3.915   0.572 -0.7748  0.3038  0.6710
12682SOL    HW142088   1.225   3.989   0.553 -1.2054  0.0039  0.7884
12682SOL    HW242089   1.303   3.878   0.487  2.9535  3.0874  0.1049
12683SOL     OW42090   5.966   5.066   7.036  0.9651 -0.2340  0.4177
12683SOL    HW142091   5.907   5.141   7.045  2.3665  1.2963 -1.8910
12683SOL    HW242092   5.939   5.024   6.954  3.3344  0.9056 -1.0814
12684SOL     OW42093   8.916   3.415   7.246 -0.1434  0.1681 -0.2429
12684SOL    HW142094   8.927   3.466   7.327 -1.9993 -0.8996  0.7433
12684SOL    HW242095   8.921   3.324   7.274  0.8814 -0.2276 -1.6356
12685SOL     OW42096   7.805   2.350   2.660  0.4328 -0.3446 -0.1163
12685SOL    HW142097   7.717   2.384   2.675  0.7624 -0.0214  1.2164
12685SOL    HW242098   7.860   2.428   2.651  1.4042 -0.2384  4.1502
12686SOL     OW42099   3.250   3.247   6.137 -0.4399  0.3540  0.5048
12686SOL    HW142100   3.234   3.315   6.203 -0.3205 -0.5586  1.4928
12686SOL    HW242101   3.276   3.296   6.059  2.4332  1.3780  1.9706
12687SOL     OW42102   3.269   4.851   7.063  0.4314 -0.0738  0.4449
12687SOL    HW142103   3.354   4.858   7.017  1.3611  0.1405  2.1192
12687SOL    HW242104   3.284   4.787   7.132 -1.7868 -2.5861 -1.2324
12688SOL     OW42105   9.967   9.909   2.449 -0.1014  0.0075  0.4161
12688SOL    HW142106   9.948   9.953   2.532  2.0065  0.7171  0.6047
12688SOL    HW242107   9.950   9.817   2.466 -1.3342  0.3395  1.0817
12689SOL     OW42108   2.819   6.558   7.997 -0.6000 -0.3054  0.2736
12689SOL    HW142109   2.770   6.502   8.056 -0.9927  0.6861  0.9133
12689SOL    HW242110   2.876   6.609   8.055 -0.2184 -0.0667 -0.3018
12690SOL     OW42111   9.459   2.469   4.494 -0.2932  0.1193  0.3985
12690SOL    HW142112   9.465   2.564   4.505  1.0155  0.1573 -0.4362
12690SOL    HW242113   9.531   2.434   4.546  1.4036 -0.1473 -1.9663
12691SOL     OW42114   6.499   6.300   3.911  0.0629  0.4059  0.2330
12691SOL    HW142115   6.463   6.388   3.902 -1.2564 -0.0740  0.6392
12691SOL    HW242116   6.472   6.271   3.998 -0.2056 -0.7001 -0.1925
12692SOL     OW42117   5.332   5.727   6.367 -0.0597  0.0070 -0.2426
12692SOL    HW142118   5.286   5.806   6.337  0.8008  0.4740 -0.3578
12692SOL    HW242119   5.303   5.658   6.306 -1.5054  0.0094  0.4018
12693SOL     OW42120   3.702   3.485   1.340 -0.7824 -0.3614  0.1169
12693SOL    HW142121   3.630   3.450   1.393 -0.8235  0.0044  0.3055
12693SOL    HW242122   3.691   3.580   1.345 -1.3943 -0.3135 -1.3704
12694SOL     OW42123   6.506   2.324   0.966 -0.3827 -0.1723 -0.5119
12694SOL    HW142124   6.550   2.408   0.954 -0.2975 -0.1977 -0.3770
12694SOL    HW242125   6.516   2.281   0.881 -0.7563  0.1069 -0.6995
12695SOL     OW42126   8.803   6.154   7.335 -0.7020  0.4097  0.1178
12695SOL    HW142127   8.855   6.232   7.354 -0.1945  0.1345 -0.1347
12695SOL    HW242128   8.834   6.124   7.250  1.9983 -2.3803  1.9054
12696SOL     OW42129   5.806  10.010   9.794 -0.1981  0.7244  0.3765
12696SOL    HW142130   5.860   9.938   9.760  0.1092  1.4505 -0.7278
12696SOL    HW242131   5.800   9.992   9.888 -0.6782 -1.0905  0.0448
12697SOL     OW42132   6.512   8.527   5.798  0.3391  0.2654 -0.0572
12697SOL    HW142133   6.450   8.596   5.774 -0.5873 -0.2532  0.7931
12697SOL    HW242134   6.597   8.560   5.768  0.0311  2.0725  0.9071
12698SOL     OW42135   7.235   8.088   8.101  0.6264  0.1597  0.1125
12698SOL    HW142136   7.168   8.022   8.121  0.7855  0.1955  0.7945
12698SOL    HW242137   7.186   8.162   8.065  0.4999 -0.5228 -1.1595
12699SOL     OW42138   1.908   9.177   2.152  0.2047  0.0536  0.3759
12699SOL    HW142139   1.842   9.244   2.170 -0.8888 -0.9037  0.0243
12699SOL    HW242140   1.914   9.127   2.233  0.6621  0.2709  0.4776
12700SOL     OW42141   6.405   1.375   7.243 -0.1005 -0.6874 -0.4440
12700SOL    HW142142   6.325   1.427   7.250  0.0221 -0.5731  0.1275
12700SOL    HW242143   6.398   1.311   7.313  0.4769 -0.4469 -0.1601
12701SOL     OW42144  10.001   8.310   5.697  0.0415  0.0852  0.1550
12701SOL    HW142145   9.985   8.387   5.750 -0.2093  0.5197 -0.5469
12701SOL    HW242146  10.090   8.322   5.663  0.7166 -0.8209  1.5118
12702SOL     OW42147   3.169   7.744   9.218  0.2673 -0.3349  0.4429
12702SOL    HW142148   3.175   7.664   9.272  0.6521  0.4537  1.6077
12702SOL    HW242149   3.203   7.813   9.274 -2.5898  1.1643  0.4924
12703SOL     OW42150   6.616   6.656   9.235  0.0118  0.3617  0.5947
12703SOL    HW142151   6.698   6.698   9.260  0.8870 -1.5838  1.1980
12703SOL    HW242152   6.558   6.728   9.213  1.0839  1.9418  2.5972
12704SOL     OW42153   3.305   0.210   8.459 -0.3419 -0.7004 -0.5730
12704SOL    HW142154   3.370   0.249   8.517 -0.5760 -0.3723 -0.5301
12704SOL    HW242155   3.238   0.175   8.519 -1.4243  1.0960 -0.6693
12705SOL     OW42156   9.980   6.704   6.959  0.4884 -0.5164 -0.0488
12705SOL    HW142157   9.896   6.660   6.953  0.0449  0.2434  0.4373
12705SOL    HW242158   9.965   6.778   7.018  0.6892  1.4167 -2.2228
12706SOL     OW42159   6.309   5.625   2.624 -0.2072 -0.2214 -0.2764
12706SOL    HW142160   6.297   5.646   2.531 -2.3391 -0.1497 -0.0271
12706SOL    HW242161   6.323   5.530   2.624  0.9469 -0.0715 -0.7301
12707SOL     OW42162   9.281   0.631   8.981 -0.0936 -0.0720 -0.0970
12707SOL    HW142163   9.303   0.616   8.889  3.2288  3.0259 -0.0474
12707SOL    HW242164   9.328   0.563   9.028  0.3517 -0.1135 -0.5898
12708SOL     OW42165   0.337   0.274   3.835  0.2215  0.1062 -0.0668
12708SOL    HW142166   0.315   0.200   3.890 -0.9491  0.8988  0.5701
12708SOL    HW242167   0.389   0.237   3.764 -0.2058 -1.2865  0.3263
12709SOL     OW42168   0.438   0.293   6.350 -0.1746  0.0711 -0.3783
12709SOL    HW142169   0.516   0.333   6.310  1.5375 -0.3872  2.1929
12709SOL    HW242170   0.364   0.340   6.311  1.5008  2.2325 -1.2103
12710SOL     OW42171   6.452   1.394   7.694 -0.3700 -0.1382  0.1119
12710SOL    HW142172   6.439   1.319   7.636 -0.9407 -0.2599  0.3902
12710SOL    HW242173   6.426   1.469   7.641 -0.0402 -0.1614 -0.0840
12711SOL     OW42174   3.296   4.534   5.483 -0.3184 -0.4001  0.2321
12711SOL    HW142175   3.246   4.588   5.422  0.8334 -1.2342 -1.5605
12711SOL    HW242176   3.288   4.578   5.567 -1.2105  1.3344 -0.7123
12712SOL     OW42177   7.224   7.699   1.103  0.1688 -0.1571 -0.4391
12712SOL    HW142178   7.216   7.735   1.014  0.1572 -0.2954 -0.4941
12712SOL    HW242179   7.248   7.775   1.157 -2.4110  0.4947 -0.0941
12713SOL     OW42180   9.335   6.954   8.286 -0.1727  0.1554  0.2192
12713SOL    HW142181   9.330   6.886   8.353  2.7041 -0.1608  0.2369
12713SOL    HW242182   9.316   7.035   8.334  1.9219 -0.0517  1.5058
12714SOL     OW42183   1.049   3.647   9.985  0.1303 -0.4336  0.2516
12714SOL    HW142184   1.014   3.578   9.929  0.8742  0.0056 -0.7931
12714SOL    HW242185   0.984   3.718   9.979 -0.2177 -0.7139  0.6512
12715SOL     OW42186   7.455   4.714   9.546  0.4018 -0.5754  0.7040
12715SOL    HW142187   7.495   4.701   9.460  0.9026 -0.4418  0.9111
12715SOL    HW242188   7.436   4.808   9.549  1.2685 -0.4019  1.1066
12716SOL     OW42189   9.828   6.000   1.084  0.2769 -0.1691 -0.2075
12716SOL    HW142190   9.829   6.000   1.180  0.6943  0.0699 -0.2100
12716SOL    HW242191   9.742   5.964   1.061  1.1343 -2.7637  0.2537
12717SOL     OW42192   6.011   2.932   2.648  0.0261 -0.5565  0.2208
12717SOL    HW142193   6.065   2.997   2.604 -0.9845 -1.0162 -1.7870
12717SOL    HW242194   5.922   2.967   2.645 -0.3358 -1.4317  0.2524
12718SOL     OW42195   6.198   8.922   9.453  0.4581 -0.4978 -0.0113
12718SOL    HW142196   6.143   9.000   9.444 -1.4323 -1.9362 -1.6813
12718SOL    HW242197   6.147   8.863   9.509 -0.3114 -2.2729 -2.4184
12719SOL     OW42198   6.414   0.998   8.586 -0.2185  0.0356 -0.0843
12719SOL    HW142199   6.386   1.063   8.522  0.1947  1.0077  0.6766
12719SOL    HW242200   6.427   0.918   8.536 -2.0430  0.1570 -0.8416
12720SOL     OW42201   9.859   2.252   9.581  0.0548  0.1689 -0.2761
12720SOL    HW142202   9.888   2.335   9.618 -0.2146 -0.0181  0.3754
12720SOL    HW242203   9.885   2.186   9.646 -0.9843 -0.0981 -0.1044
12721SOL     OW42204   7.901   8.581   7.466 -0.0774 -0.7735  0.3213
12721SOL    HW142205   7.836   8.511   7.459  0.4580 -1.2230 -0.3391
12721SOL    HW242206   7.867   8.639   7.534 -1.2747 -0.8823 -0.1638
12722SOL     OW42207   6.788   8.663   6.097 -0.8348  0.8299 -0.2406
12722SOL    HW142208   6.798   8.695   6.186 -0.3849  0.8748 -0.3039
12722SOL    HW242209   6.745   8.735   6.050 -0.5716  1.0247 -0.1883
12723SOL     OW42210   5.378   9.610   4.583  0.5241 -0.0316 -0.2199
12723SOL    HW142211   5.316   9.669   4.541 -0.8465 -1.5759 -0.4437
12723SOL    HW242212   5.396   9.651   4.667 -1.2967  0.1561  0.1203
12724SOL     OW42213   8.110   8.762   3.783 -0.5136  0.0590  0.4824
12724SOL    HW142214   8.092   8.668   3.781 -0.4523  0.0505 -0.0633
12724SOL    HW242215   8.030   8.803   3.749  0.1060  0.0761 -1.0737
12725SOL     OW42216   4.467  10.223   9.946  0.3331 -0.2992 -0.0980
12725SOL    HW142217   4.561  10.223   9.930  0.2886  0.5125 -0.3916
12725SOL    HW242218   4.428  10.227   9.859  0.0241 -0.8088  0.0165
12726SOL     OW42219   1.786   0.799   1.850 -0.1918 -0.0772  0.5080
12726SOL    HW142220   1.721   0.865   1.827  0.5595  0.9325  1.1529
12726SOL    HW242221   1.870   0.843   1.837  0.3164 -0.5580  1.9262
12727SOL     OW42222   6.963   5.193   2.233 -0.2756 -0.3144  0.0469
12727SOL    HW142223   6.966   5.162   2.143 -0.6989  0.7401 -0.3472
12727SOL    HW242224   6.894   5.140   2.274 -1.7697  0.7980 -0.9100
12728SOL     OW42225   0.980   3.114   9.853  0.8276 -0.6121  0.9606
12728SOL    HW142226   0.946   3.147   9.770  3.5526  0.0619  0.0026
12728SOL    HW242227   0.903   3.103   9.908 -0.7666  2.3866 -0.4313
12729SOL     OW42228   5.198   8.829   0.139 -0.3780 -0.0512 -0.0866
12729SOL    HW142229   5.120   8.774   0.143 -1.4862  1.4353 -0.3000
12729SOL    HW242230   5.266   8.772   0.104 -1.2639 -1.4822  0.4199
12730SOL     OW42231   3.745   2.003   1.120  0.3606  0.6513  0.1345
12730SOL    HW142232   3.821   2.055   1.096 -0.8072  2.0413 -0.6982
12730SOL    HW242233   3.730   1.946   1.044  0.3586  0.6517  0.1346
12731SOL     OW42234   5.041   8.403   5.700  0.5036 -0.0241 -0.0921
12731SOL    HW142235   5.102   8.331   5.682  0.3090 -0.0298 -0.7788
12731SOL    HW242236   4.959   8.360   5.721 -0.2424 -0.0593 -2.6845
12732SOL     OW42237   8.115   9.945   1.776 -0.0330 -0.9299 -0.3406
12732SOL    HW142238   8.171   9.938   1.698  0.9792 -0.0410  0.2799
12732SOL    HW242239   8.176   9.958   1.848 -1.0545  1.2877  0.2180
12733SOL     OW42240   5.472   9.036   9.976  0.5244 -0.2152 -0.2203
12733SOL    HW142241   5.463   9.066   9.886  0.1911 -0.0084 -0.1178
12733SOL    HW242242   5.389   9.060  10.018  0.9460  0.3323  0.3245
12734SOL     OW42243   6.005   5.165   1.484  0.1879 -0.3105  0.2485
12734SOL    HW142244   6.088   5.188   1.443 -0.0055  1.7087  0.8926
12734SOL    HW242245   5.951   5.132   1.411  0.3196  1.8903 -0.9299
12735SOL     OW42246   3.126   7.062   0.455 -0.2111 -0.4990  0.4542
12735SOL    HW142247   3.103   6.971   0.438 -0.8344 -0.4718  1.1079
12735SOL    HW242248   3.136   7.067   0.550  1.3132 -0.2191  0.3043
12736SOL     OW42249   4.509   0.920   8.911 -0.1572  0.4350 -0.0871
12736SOL    HW142250   4.478   0.880   8.830 -0.3202 -1.6078  0.9039
12736SOL    HW242251   4.437   0.905   8.973  0.6186  0.5125  0.8389
12737SOL     OW42252   0.385   0.652   6.981 -0.3567  0.2724 -0.4374
12737SOL    HW142253   0.453   0.598   7.022 -0.2582  0.5398 -0.2423
12737SOL    HW242254   0.321   0.589   6.948  0.4150 -0.0258 -1.3947
12738SOL     OW42255   8.197   4.591   0.346  0.3962 -0.5428 -0.1706
12738SOL    HW142256   8.188   4.587   0.441  0.9445 -1.3205 -0.1491
12738SOL    HW242257   8.158   4.509   0.315 -0.4808  0.0451 -0.6832
12739SOL     OW42258   4.367   8.392   8.401  0.7971  0.1628  0.0412
12739SOL    HW142259   4.324   8.314   8.436 -0.6071 -0.0136 -1.9288
12739SOL    HW242260   4.321   8.466   8.441 -0.3642 -0.0411 -0.8531
12740SOL     OW42261   4.778   1.163  10.244 -1.1150 -0.0315  0.4600
12740SOL    HW142262   4.802   1.222  10.315 -0.2548  1.5864 -1.0920
12740SOL    HW242263   4.823   1.198  10.167  0.4365 -3.4034 -0.3655
12741SOL     OW42264   5.927   4.094   1.352  0.0792  0.3983 -0.6654
12741SOL    HW142265   5.872   4.019   1.375 -0.3387  0.6640 -0.7855
12741SOL    HW242266   6.002   4.056   1.308  0.2877 -0.0210  0.0287
12742SOL     OW42267   6.562   6.593   2.292  0.2707  0.0187 -0.2765
12742SOL    HW142268   6.492   6.608   2.355 -0.7404  1.2409 -1.6112
12742SOL    HW242269   6.622   6.532   2.336  0.2020  1.6474  2.2615
12743SOL     OW42270   7.619   7.760   4.633 -0.0494 -0.1375  0.0873
12743SOL    HW142271   7.708   7.729   4.617  0.2720  0.7391  0.1229
12743SOL    HW242272   7.609   7.836   4.576  0.3059  1.6112  2.2007
12744SOL     OW42273   4.069   1.297   8.558  0.1984  0.0798  0.1886
12744SOL    HW142274   4.159   1.304   8.589  0.5157 -0.2351 -0.6257
12744SOL    HW242275   4.040   1.387   8.548  0.2361  0.1839  0.9599
12745SOL     OW42276   5.532   6.367  10.245  0.3294  0.4672 -0.6119
12745SOL    HW142277   5.572   6.454  10.239  0.3539  0.4822 -0.2703
12745SOL    HW242278   5.563   6.333  10.329 -1.0478  0.8194  0.0674
12746SOL     OW42279   8.260   6.552   9.077 -0.0276  0.4932 -0.3680
12746SOL    HW142280   8.247   6.593   8.991  2.0648 -0.1654 -1.0669
12746SOL    HW242281   8.318   6.611   9.124 -1.8513  1.2826  0.9829
12747SOL     OW42282   0.970   2.722   8.201 -0.7107  0.3665  0.2849
12747SOL    HW142283   0.984   2.816   8.190  2.1235  0.1093  0.8926
12747SOL    HW242284   1.046   2.682   8.159 -1.7407 -1.6865  0.2366
12748SOL     OW42285   0.109   6.397  10.163  0.0950 -0.4184  0.0245
12748SOL    HW142286   0.087   6.314  10.119 -0.0594 -0.2106 -0.3012
12748SOL    HW242287   0.190   6.426  10.120 -0.2999  0.0121 -0.4507
12749SOL     OW42288   4.688   1.364   0.530  0.2034 -0.0457 -0.0916
12749SOL    HW142289   4.766   1.415   0.511  0.0980  0.9121  1.8290
12749SOL    HW242290   4.615   1.423   0.511  0.0092 -0.2725 -0.0631
12750SOL     OW42291   6.623   7.993   7.788 -0.2631  0.5178  0.6774
12750SOL    HW142292   6.715   7.972   7.804 -0.4986 -0.9717  0.2667
12750SOL    HW242293   6.618   8.012   7.694 -0.5385 -0.4626  0.4824
12751SOL     OW42294   2.927   2.781   8.863  0.0371  0.3868 -0.3167
12751SOL    HW142295   2.841   2.805   8.830  0.6754  1.9927 -0.8948
12751SOL    HW242296   2.987   2.844   8.823  1.4766 -0.6568  0.1217
12752SOL     OW42297   5.775   3.036   0.049 -0.2055 -0.3467 -0.8448
12752SOL    HW142298   5.749   3.120   0.088 -4.5908 -2.0281  0.4461
12752SOL    HW242299   5.758   3.047  -0.045 -0.6418  0.2735 -0.6999
12753SOL     OW42300   8.133   2.066   0.249 -0.7873  0.1140  0.4644
12753SOL    HW142301   8.196   2.137   0.262 -1.3394  0.9048 -0.9694
12753SOL    HW242302   8.067   2.102   0.190 -0.8031 -1.7321 -0.7557
12754SOL     OW42303   9.326   7.811   3.283 -0.2609 -0.4580 -0.0071
12754SOL    HW142304   9.276   7.885   3.320  1.9944 -0.3952  3.4284
12754SOL    HW242305   9.273   7.734   3.303 -1.4273 -0.0312 -1.3058
12755SOL     OW42306   8.564   7.719   9.755  0.8133  0.2908 -0.0367
12755SOL    HW142307   8.598   7.784   9.816  0.3148  0.6314 -0.1212
12755SOL    HW242308   8.530   7.770   9.681  1.4323 -0.1169 -0.6150
12756SOL     OW42309   7.277   0.027   0.949  0.2079  0.7275  0.0368
12756SOL    HW142310   7.319   0.079   0.880  0.0410 -0.6847 -1.1848
12756SOL    HW242311   7.306  -0.063   0.932  0.1176  0.3407  1.7975
12757SOL     OW42312   4.404   7.475   8.998  0.0557 -0.0132 -0.1811
12757SOL    HW142313   4.334   7.472   8.933 -0.8392 -1.6916  0.7900
12757SOL    HW242314   4.360   7.458   9.081  1.0250  2.8508  1.0688
12758SOL     OW42315   9.135   2.624   0.990  0.8256  0.0983  0.2209
12758SOL    HW142316   9.117   2.600   0.899  0.4039  1.2770 -0.0217
12758SOL    HW242317   9.230   2.637   0.993  0.9350 -0.6036  0.1315
12759SOL     OW42318   1.170   0.973   9.246 -0.6750 -0.3753 -0.0781
12759SOL    HW142319   1.122   0.893   9.225 -1.8863  0.2560  0.1860
12759SOL    HW242320   1.137   1.000   9.331  1.3613 -0.7835  0.8893
12760SOL     OW42321   3.705   9.158   9.729 -0.3713  0.1967  0.3465
12760SOL    HW142322   3.777   9.198   9.682  0.3388 -0.3600  0.9372
12760SOL    HW242323   3.742   9.131   9.813 -0.4418 -2.8304 -0.4641
12761SOL     OW42324   7.957   6.529   7.646  1.0550  0.1660  0.2079
12761SOL    HW142325   7.890   6.597   7.654  1.2578  0.5689 -1.2635
12761SOL    HW242326   7.909   6.447   7.639  0.7994  0.1630  1.6348
12762SOL     OW42327  10.281   9.747   0.820 -0.1138 -0.5880  0.6651
12762SOL    HW142328  10.269   9.826   0.873 -0.8776  0.4939 -1.0436
12762SOL    HW242329  10.376   9.736   0.816  0.1490  1.4871 -0.7117
12763SOL     OW42330   7.499   5.028   3.848  0.0324 -0.0130  0.1054
12763SOL    HW142331   7.466   4.975   3.776 -0.4641 -0.3368  0.5560
12763SOL    HW242332   7.437   5.100   3.855  0.8719  0.8115 -0.6972
12764SOL     OW42333   7.625   4.626   4.174  0.1542  0.9258 -0.3058
12764SOL    HW142334   7.603   4.577   4.096  1.0034 -0.1246  0.1039
12764SOL    HW242335   7.594   4.715   4.156 -1.1358  0.3332 -1.1677
12765SOL     OW42336   9.912   0.155   2.577 -0.1523 -0.3155  0.0353
12765SOL    HW142337   9.822   0.184   2.590 -0.3746  0.1807 -2.3341
12765SOL    HW242338   9.965   0.222   2.619 -0.8307  0.5227 -0.4344
12766SOL     OW42339   0.958   9.776   9.621 -0.2948 -0.3086 -0.1339
12766SOL    HW142340   0.985   9.700   9.673  1.7925  0.3063 -0.2485
12766SOL    HW242341   0.908   9.830   9.682  2.5717  0.6702  1.5121
12767SOL     OW42342   0.125   0.912   6.758 -0.2169  0.7683  0.2845
12767SOL    HW142343   0.113   0.974   6.685  1.0944  0.9358  0.1870
12767SOL    HW242344   0.190   0.850   6.725 -0.6661  0.0039  0.8132
12768SOL     OW42345   5.589   4.896   0.702 -0.0186 -0.2821  0.2680
12768SOL    HW142346   5.511   4.922   0.654  0.6134 -0.4369 -0.8813
12768SOL    HW242347   5.661   4.913   0.641  0.7823 -0.7125  1.0760
12769SOL     OW42348   1.864   2.993   2.818 -0.7442  0.7362  0.3730
12769SOL    HW142349   1.951   3.020   2.790 -0.6056 -0.1802 -0.1260
12769SOL    HW242350   1.849   2.909   2.774 -2.1435  1.1910 -0.0748
12770SOL     OW42351   2.297   1.559   7.356  0.1597 -0.0762 -0.3352
12770SOL    HW142352   2.245   1.495   7.405  0.9731  0.8541  1.8658
12770SOL    HW242353   2.266   1.644   7.388  0.7903  0.5790 -1.4101
12771SOL     OW42354   3.623   1.371   4.711  0.2498  0.3861  0.3289
12771SOL    HW142355   3.673   1.413   4.781  0.6263  0.4260  0.0418
12771SOL    HW242356   3.561   1.438   4.682  0.7761  0.7191 -0.0556
12772SOL     OW42357   4.235   4.943   9.592 -0.1095  0.0298  0.0637
12772SOL    HW142358   4.162   4.927   9.652 -0.0596 -0.2287  0.0554
12772SOL    HW242359   4.312   4.912   9.639  0.0866  0.9079  0.3397
12773SOL     OW42360   5.214   4.778   6.413 -0.2282 -0.0420  0.8159
12773SOL    HW142361   5.174   4.853   6.455 -2.8481 -1.0130  0.2358
12773SOL    HW242362   5.187   4.703   6.466 -0.4553 -0.8963 -0.4556
12774SOL     OW42363   8.152  10.052   0.071 -0.0473 -0.0312  0.2850
12774SOL    HW142364   8.127   9.985   0.134 -1.2644  0.7271  0.6284
12774SOL    HW242365   8.190  10.002  -0.002  0.4902 -0.9775  1.1757
12775SOL     OW42366   6.892   6.294   4.497 -0.9480  0.5254  0.2180
12775SOL    HW142367   6.937   6.356   4.554  0.2476  0.2450 -0.3783
12775SOL    HW242368   6.899   6.210   4.543 -1.4860  0.6074  0.4520
12776SOL     OW42369   8.297   8.238   4.058  0.0535 -0.1152  0.0965
12776SOL    HW142370   8.301   8.219   3.964 -1.6711  0.3979 -0.1172
12776SOL    HW242371   8.255   8.324   4.063 -0.3837 -0.3869  1.3746
12777SOL     OW42372   8.181   5.325   1.505  0.1037  0.8270 -0.5509
12777SOL    HW142373   8.159   5.321   1.412 -0.0304  1.3622 -0.5466
12777SOL    HW242374   8.181   5.234   1.534  3.9422  0.2291 -1.9274
12778SOL     OW42375   5.987   1.875   9.862 -0.0237 -0.1146  0.1859
12778SOL    HW142376   5.932   1.942   9.901 -1.1421 -0.3647 -0.8812
12778SOL    HW242377   5.994   1.900   9.770 -0.2579 -1.3025 -0.1794
12779SOL     OW42378   0.335   0.720   1.804  0.5008  0.0743 -0.1627
12779SOL    HW142379   0.402   0.723   1.873  1.7728 -0.0369 -1.3332
12779SOL    HW242380   0.383   0.746   1.725 -0.9257  0.2249 -0.9967
12780SOL     OW42381   4.323   8.355   5.621  0.0321 -0.9832  0.6814
12780SOL    HW142382   4.372   8.281   5.657  1.1753 -0.6411 -0.0972
12780SOL    HW242383   4.354   8.431   5.670  1.7286 -0.4884 -1.0078
12781SOL     OW42384   1.194  10.055   0.233  0.5199  0.0057 -0.4765
12781SOL    HW142385   1.112  10.020   0.200  0.2426  0.4962 -0.3206
12781SOL    HW242386   1.235   9.982   0.280  0.7257 -0.5785 -1.5355
12782SOL     OW42387   2.597   7.897   5.142 -0.3745 -0.9272 -0.2113
12782SOL    HW142388   2.649   7.972   5.114 -1.4481  0.0223  0.2476
12782SOL    HW242389   2.655   7.847   5.199 -0.2888  0.7033  1.1920
12783SOL     OW42390   5.241   8.635   9.588 -0.2477 -0.0668 -0.4584
12783SOL    HW142391   5.276   8.555   9.626  0.2379 -0.0088 -0.7634
12783SOL    HW242392   5.147   8.630   9.603 -0.3390 -1.1040 -1.2130
12784SOL     OW42393   2.337   2.037   3.799 -0.5439  0.3808  0.2926
12784SOL    HW142394   2.389   1.981   3.857  2.4817  2.4827 -0.1297
12784SOL    HW242395   2.314   1.981   3.726 -0.1635 -1.0546  1.2234
12785SOL     OW42396   2.582   6.702   2.011 -0.0658  0.4642  0.4553
12785SOL    HW142397   2.613   6.755   1.938 -1.2295  0.7074  0.1075
12785SOL    HW242398   2.660   6.685   2.064  0.8434  0.1377 -0.9270
12786SOL     OW42399   6.990   9.067   6.452  0.2186 -0.1624  0.0930
12786SOL    HW142400   7.071   9.016   6.448  0.2191 -0.5186  2.9081
12786SOL    HW242401   7.019   9.157   6.467  0.1550 -0.5113  2.6832
12787SOL     OW42402   6.700   6.885   6.280 -0.1184  0.3013  0.4420
12787SOL    HW142403   6.705   6.789   6.284  2.3122  0.1839 -2.0704
12787SOL    HW242404   6.762   6.916   6.346  0.7346  0.0494 -0.2276
12788SOL     OW42405   1.137   5.993   9.308 -0.7566  0.1760 -0.4271
12788SOL    HW142406   1.164   6.032   9.391  0.0339  0.3914 -0.7809
12788SOL    HW242407   1.116   5.902   9.330  1.8228 -0.4811 -0.3942
12789SOL     OW42408   9.731   4.322   1.901  0.4100  0.0403  0.2995
12789SOL    HW142409   9.651   4.280   1.868  1.1132 -1.0961  0.0077
12789SOL    HW242410   9.760   4.265   1.973  1.1906  0.2030  0.1193
12790SOL     OW42411   5.994   8.731   5.373  0.1483 -0.1770 -0.1011
12790SOL    HW142412   5.966   8.758   5.461  1.3904  2.1217 -0.3451
12790SOL    HW242413   6.041   8.649   5.388 -1.0042 -0.6726  1.1284
12791SOL     OW42414   7.248   3.523   1.226  0.1417 -0.7056 -0.1060
12791SOL    HW142415   7.343   3.521   1.227  0.2199 -1.0040 -2.4256
12791SOL    HW242416   7.222   3.480   1.308  1.9486  0.6990  1.2729
12792SOL     OW42417   4.673   8.445   0.766  0.1547 -0.2178  0.6374
12792SOL    HW142418   4.627   8.492   0.836  0.8772  2.5127 -0.5664
12792SOL    HW242419   4.719   8.374   0.811 -4.1812 -2.4969  2.0309
12793SOL     OW42420   2.668   4.951   8.971  0.4860 -0.0541  0.4336
12793SOL    HW142421   2.577   4.925   8.986 -0.2215  0.8744 -1.8308
12793SOL    HW242422   2.663   5.046   8.956  1.8235  0.0091  0.2994
12794SOL     OW42423   3.245   8.799   9.355  0.0306 -0.8422  0.0149
12794SOL    HW142424   3.217   8.877   9.307  0.3180 -0.5925  0.2522
12794SOL    HW242425   3.220   8.817   9.446 -0.4040 -1.2624 -0.0163
12795SOL     OW42426  10.031   7.079   7.765  0.1591  0.2493 -0.2931
12795SOL    HW142427   9.950   7.112   7.804  0.5618 -0.8257  1.6303
12795SOL    HW242428  10.021   7.094   7.671 -1.4679  1.8048  0.0655
12796SOL     OW42429   8.673   7.276   2.394 -0.4980  0.7844  0.3076
12796SOL    HW142430   8.716   7.359   2.373  1.2840 -0.1845 -0.0904
12796SOL    HW242431   8.705   7.215   2.328 -0.6561 -0.5657  1.4340
12797SOL     OW42432   4.319   0.335   0.551 -0.5012 -0.4729 -0.2127
12797SOL    HW142433   4.327   0.309   0.459  2.7774 -2.4676  0.4473
12797SOL    HW242434   4.314   0.252   0.598 -1.7150  0.5050  1.4522
12798SOL     OW42435   9.123   8.290   7.731 -0.4657 -0.8638 -0.1989
12798SOL    HW142436   9.034   8.311   7.758  0.0594 -0.1189  1.0198
12798SOL    HW242437   9.170   8.374   7.732  0.2845 -1.2599 -0.6929
12799SOL     OW42438   9.719   6.173   7.932  0.2298 -0.4892 -0.6375
12799SOL    HW142439   9.684   6.085   7.941 -0.9430  0.1108  1.1477
12799SOL    HW242440   9.750   6.196   8.020  3.5747 -0.2896 -1.7057
12800SOL     OW42441   5.745   5.632   8.473 -0.4214 -0.4401 -0.1124
12800SOL    HW142442   5.724   5.637   8.380 -0.2088  1.0575 -0.1128
12800SOL    HW242443   5.704   5.710   8.510  1.3912  0.2036  0.6505
12801SOL     OW42444   0.015   6.443   1.826 -0.4513 -0.4901  0.5891
12801SOL    HW142445  -0.080   6.435   1.835 -0.5354 -0.3598 -0.0960
12801SOL    HW242446   0.035   6.528   1.864 -0.4422 -1.0198  1.8157
12802SOL     OW42447   2.603   3.648   5.342  0.0519  0.2598  0.2096
12802SOL    HW142448   2.570   3.645   5.432 -1.7670 -0.1839 -0.4176
12802SOL    HW242449   2.540   3.704   5.297 -0.5101 -1.5034 -1.3069
12803SOL     OW42450   7.514  10.198   2.464  0.1469  0.1504  0.2207
12803SOL    HW142451   7.602  10.207   2.429  1.7839 -2.2110  3.2303
12803SOL    HW242452   7.487  10.109   2.441 -2.0675  1.2164 -1.6982
12804SOL     OW42453   3.247   5.077   4.846 -0.1072  0.0849  0.0646
12804SOL    HW142454   3.325   5.054   4.896 -0.2577  2.1383  1.3528
12804SOL    HW242455   3.247   5.172   4.843 -0.2704  0.1110 -3.6921
12805SOL     OW42456   1.381   5.666   5.197 -0.3155  0.4953  0.0019
12805SOL    HW142457   1.324   5.599   5.160 -0.0586  0.5676 -0.5422
12805SOL    HW242458   1.321   5.734   5.228 -0.5842 -0.0460  0.7060
12806SOL     OW42459   0.808   1.503   4.172  0.3666  0.0007  0.0873
12806SOL    HW142460   0.835   1.422   4.216  0.0957 -1.2758 -1.9751
12806SOL    HW242461   0.721   1.522   4.207  0.2503 -0.8547  0.2869
12807SOL     OW42462   9.711   0.960   9.389  0.0323  0.2494  0.4029
12807SOL    HW142463   9.794   0.913   9.395 -0.5677 -0.7720  1.0887
12807SOL    HW242464   9.673   0.953   9.477 -0.6422  0.9408  0.1747
12808SOL     OW42465   8.932   5.103   7.655  0.4007 -0.1180  0.1009
12808SOL    HW142466   8.858   5.124   7.597  0.6419 -0.7045 -0.4375
12808SOL    HW242467   8.895   5.105   7.743  0.0274  0.8100 -0.0592
12809SOL     OW42468   2.823   9.908   7.935  0.2903 -0.4846 -0.1631
12809SOL    HW142469   2.772   9.831   7.963  0.8927 -1.0382 -0.5592
12809SOL    HW242470   2.914   9.880   7.940  0.4434 -0.5616 -2.4601
12810SOL     OW42471   4.565   6.277   4.196 -0.0404 -0.0212 -0.3272
12810SOL    HW142472   4.599   6.350   4.145  0.2360 -1.7519 -2.8097
12810SOL    HW242473   4.472   6.298   4.210  0.2206  1.1471 -0.2646
12811SOL     OW42474   8.794   7.088   0.076  0.1958  0.0435 -0.7311
12811SOL    HW142475   8.743   7.169   0.082  2.0354  1.1836  0.2094
12811SOL    HW242476   8.807   7.076  -0.018 -3.0452 -1.1858 -1.1735
12812SOL     OW42477   6.087   2.992   4.945  0.0154 -0.2308 -0.1925
12812SOL    HW142478   6.079   3.034   4.859 -1.1358 -1.8605 -0.9324
12812SOL    HW242479   6.162   2.933   4.935 -0.5472 -0.9361 -0.3315
12813SOL     OW42480   7.650   3.813   7.972  0.7794 -0.5051 -0.2834
12813SOL    HW142481   7.591   3.875   8.015  2.1331  0.3518  0.4096
12813SOL    HW242482   7.618   3.727   7.999  0.5384 -0.0270  1.0211
12814SOL     OW42483   0.903   9.439   0.122 -0.4888  0.1572 -0.3725
12814SOL    HW142484   0.991   9.406   0.141 -1.6731 -2.1358  1.8312
12814SOL    HW242485   0.904   9.461   0.029  2.6948  1.3671 -0.1510
12815SOL     OW42486   9.272   9.092   6.533  0.5474 -0.2944 -0.4045
12815SOL    HW142487   9.307   9.014   6.490  1.7668  1.2893 -2.4849
12815SOL    HW242488   9.182   9.097   6.502  0.1776 -1.3388  0.4583
12816SOL     OW42489   1.633   9.854   0.435 -0.1013 -0.0411 -0.2894
12816SOL    HW142490   1.707   9.899   0.394  0.0437  0.0688  0.0825
12816SOL    HW242491   1.674   9.790   0.493 -0.2834 -2.3694 -2.5698
12817SOL     OW42492   8.222   5.605   7.914  0.4089  0.2831 -0.1946
12817SOL    HW142493   8.249   5.687   7.872  0.3915  0.0709 -0.6154
12817SOL    HW242494   8.280   5.538   7.877 -0.2471 -0.0619 -0.5946
12818SOL     OW42495   0.188   5.040   6.099  0.1797  0.5157 -0.1369
12818SOL    HW142496   0.093   5.050   6.102  0.3651  2.7746  0.6708
12818SOL    HW242497   0.221   5.105   6.162  2.2490 -0.4220 -0.1603
12819SOL     OW42498   6.639   6.388  10.086  0.7100  0.6549  0.6414
12819SOL    HW142499   6.658   6.465  10.032  1.3568 -0.0240 -0.1355
12819SOL    HW242500   6.718   6.375  10.139  1.0345 -0.0752  0.0028
12820SOL     OW42501   2.901  10.185   5.570 -0.4756 -0.1022 -0.0973
12820SOL    HW142502   2.986  10.180   5.527  1.8093  0.3044  3.8284
12820SOL    HW242503   2.869  10.273   5.550  1.2049  0.6033  0.1634
12821SOL     OW42504   9.005   8.389   0.095  0.1792  0.2897  0.0107
12821SOL    HW142505   9.023   8.387   0.001 -1.8061 -2.1112 -0.4368
12821SOL    HW242506   8.989   8.297   0.118 -1.1320  1.0077  2.3095
12822SOL     OW42507   6.300   1.260   5.582 -0.1170 -0.0511  0.0891
12822SOL    HW142508   6.374   1.280   5.639  0.1027  0.8441 -0.4892
12822SOL    HW242509   6.328   1.183   5.532 -0.2438 -0.7357  1.0413
12823SOL     OW42510   9.586   4.986   8.609 -1.0256  0.1619  0.2766
12823SOL    HW142511   9.607   5.080   8.607 -0.0150 -0.0517 -0.1717
12823SOL    HW242512   9.492   4.982   8.596 -1.7587  1.2854  4.0445
12824SOL     OW42513   1.112   8.753   9.422 -0.3512 -0.3415  0.2331
12824SOL    HW142514   1.172   8.728   9.492  0.5025  0.3810 -0.2297
12824SOL    HW242515   1.031   8.777   9.468  0.1580  0.0101  0.9643
12825SOL     OW42516   9.600   7.498   0.208  0.3579 -0.3594 -0.0367
12825SOL    HW142517   9.611   7.536   0.120 -0.7470 -2.0058 -0.9475
12825SOL    HW242518   9.524   7.440   0.199  0.5313 -0.9350  1.8991
12826SOL     OW42519   5.496   7.620   7.230  0.2664 -0.0166  0.4414
12826SOL    HW142520   5.445   7.678   7.287 -1.3031  0.7130 -1.5881
12826SOL    HW242521   5.516   7.673   7.153  0.3753 -1.6085 -0.6824
12827SOL     OW42522   1.688   7.819   7.802  0.1266 -0.7986  0.0814
12827SOL    HW142523   1.692   7.806   7.707  3.6432  1.0192 -0.1757
12827SOL    HW242524   1.643   7.903   7.813 -0.1738 -0.9524  0.0560
12828SOL     OW42525   2.742   8.593   5.563  0.2922 -0.2916 -0.1233
12828SOL    HW142526   2.804   8.665   5.548  0.8119 -0.6272  0.3976
12828SOL    HW242527   2.679   8.601   5.491 -0.3867  1.4556  0.5921
12829SOL     OW42528   0.885   8.253   4.268 -0.3034 -0.3461 -0.0210
12829SOL    HW142529   0.832   8.284   4.341  0.3740  1.5866 -0.2987
12829SOL    HW242530   0.833   8.274   4.190  0.4523  0.7734 -0.2466
12830SOL     OW42531   5.629   1.151   1.085 -0.5225  0.0758  0.2694
12830SOL    HW142532   5.701   1.213   1.093  0.8240 -1.4832  0.8455
12830SOL    HW242533   5.649   1.082   1.149 -1.3318 -1.5298 -1.1085
12831SOL     OW42534   8.883   5.067   0.589 -0.4752  0.2897 -0.0054
12831SOL    HW142535   8.958   5.077   0.647 -0.4295 -0.0701 -0.0029
12831SOL    HW242536   8.872   4.972   0.578  1.1092  0.3118 -2.6186
12832SOL     OW42537   7.443   3.037   7.762  0.4481  0.0923  0.5479
12832SOL    HW142538   7.512   3.045   7.828  0.0653  0.1054  0.9493
12832SOL    HW242539   7.405   3.125   7.757  0.3695  0.0512  0.4273
12833SOL     OW42540   3.339   4.226   8.228 -0.1393  0.0909 -0.4703
12833SOL    HW142541   3.357   4.134   8.246  0.6764  0.3555  0.1413
12833SOL    HW242542   3.373   4.240   8.139 -1.9960 -0.6334 -1.3551
12834SOL     OW42543   9.629   4.490   4.596 -0.4531 -0.2381  0.3880
12834SOL    HW142544   9.589   4.572   4.566  0.1251  0.2733  0.9558
12834SOL    HW242545   9.701   4.475   4.535 -1.8822 -1.5470 -1.0763
12835SOL     OW42546   1.438   6.578  10.236  0.2349 -0.5220 -0.1654
12835SOL    HW142547   1.359   6.631  10.225  0.1341 -0.7306 -0.4407
12835SOL    HW242548   1.436   6.552  10.328 -1.4978 -2.8251 -0.7711
12836SOL     OW42549   9.726   9.862   3.062  0.3062 -0.5451 -0.5317
12836SOL    HW142550   9.774   9.785   3.029  0.6062  0.0904 -1.6407
12836SOL    HW242551   9.771   9.937   3.023  1.1368  0.3308  1.9726
12837SOL     OW42552   4.963   2.761   6.215 -0.2880  0.1696 -0.3092
12837SOL    HW142553   4.899   2.742   6.284  0.8922 -1.5783  0.3977
12837SOL    HW242554   4.911   2.772   6.136 -1.5385  0.0858  0.4783
12838SOL     OW42555   4.483   5.029   5.662  0.2985  0.0626 -0.0686
12838SOL    HW142556   4.524   4.949   5.630 -1.9524 -0.4971 -1.8484
12838SOL    HW242557   4.422   5.055   5.593 -0.5462  2.1688  1.3408
12839SOL     OW42558   0.902   8.982   7.772 -0.1241 -0.1763 -0.6511
12839SOL    HW142559   0.958   8.908   7.751 -1.0556 -0.6223 -1.6526
12839SOL    HW242560   0.814   8.945   7.778 -0.4966  0.7127 -0.3586
12840SOL     OW42561   5.785   4.535   0.999  0.2106 -0.1792 -0.8643
12840SOL    HW142562   5.825   4.581   1.073 -2.9327  3.2232 -0.9620
12840SOL    HW242563   5.751   4.453   1.036  1.8294 -0.2647  0.5237
12841SOL     OW42564   7.405   6.939   4.712  0.7314  0.2529 -0.5107
12841SOL    HW142565   7.435   6.848   4.717  0.4321  0.1465 -0.6084
12841SOL    HW242566   7.340   6.938   4.642  0.1229  0.3672  0.0399
12842SOL     OW42567   3.537   2.204   9.243  0.0795  0.2893 -0.4415
12842SOL    HW142568   3.518   2.292   9.210  0.4405  1.1407  1.5275
12842SOL    HW242569   3.489   2.146   9.183 -2.8592  1.9892  0.0614
12843SOL     OW42570   2.860   5.390   6.763  0.2388  0.0658 -0.1155
12843SOL    HW142571   2.949   5.361   6.780 -0.5090 -1.2678  1.8127
12843SOL    HW242572   2.846   5.371   6.670  1.7676 -0.1738 -0.3224
12844SOL     OW42573   6.161   1.707   0.508  0.3950  0.2503 -0.3669
12844SOL    HW142574   6.238   1.660   0.541 -0.3057 -0.0873  0.8262
12844SOL    HW242575   6.091   1.642   0.509 -0.3092  1.0080  0.1812
12845SOL     OW42576   8.758   4.175   6.034  0.0916  0.2029  0.0179
12845SOL    HW142577   8.809   4.191   6.113 -1.5598 -2.1337  1.6890
12845SOL    HW242578   8.803   4.102   5.991 -0.5364 -0.3878  0.3308
12846SOL     OW42579   7.860   2.052   4.855 -0.1942  0.2149 -0.1635
12846SOL    HW142580   7.793   2.100   4.903  0.8816  1.0564  0.5361
12846SOL    HW242581   7.832   2.057   4.764 -0.7088  1.1664  0.0305
12847SOL     OW42582  10.137   6.515   9.749 -0.3823  0.7653  0.4182
12847SOL    HW142583  10.159   6.577   9.818 -0.6924 -0.4536  1.6498
12847SOL    HW242584  10.210   6.454   9.746 -0.9536  0.0523  0.5824
12848SOL     OW42585   7.747   2.532   8.779 -0.1695  0.3959 -0.1143
12848SOL    HW142586   7.758   2.590   8.855  2.2894 -0.7717  0.5286
12848SOL    HW242587   7.673   2.476   8.802 -1.0006  1.6355  0.3325
12849SOL     OW42588   3.192   8.877   7.004  0.0704 -0.0673 -0.0565
12849SOL    HW142589   3.110   8.912   6.969  0.4925 -0.2869 -1.3295
12849SOL    HW242590   3.243   8.954   7.029  0.3132  0.1754 -1.2457
12850SOL     OW42591   2.598   7.963   7.652 -0.5425  0.4395  0.7161
12850SOL    HW142592   2.636   7.981   7.566 -1.1479  0.0196  0.3551
12850SOL    HW242593   2.645   7.885   7.682 -0.1131  0.7689  0.9037
12851SOL     OW42594   2.810  10.200   4.776  0.3402 -0.1010 -0.5417
12851SOL    HW142595   2.816  10.258   4.851  0.5767 -2.3187  1.2646
12851SOL    HW242596   2.722  10.163   4.781  0.9071 -1.4884 -0.3692
12852SOL     OW42597   1.138  10.082   7.188  0.1287 -0.0287  0.0425
12852SOL    HW142598   1.167  10.103   7.276  2.1061  0.0216 -0.5712
12852SOL    HW242599   1.162   9.990   7.176  0.2498  0.0752 -0.5707
12853SOL     OW42600   8.432   1.640   5.220  0.0599 -0.8586 -0.0237
12853SOL    HW142601   8.380   1.644   5.139  0.0901 -2.5834 -0.1623
12853SOL    HW242602   8.520   1.666   5.193 -0.1863 -0.2583 -0.2813
12854SOL     OW42603   7.329   1.685   2.805  0.1969 -0.5966  0.1045
12854SOL    HW142604   7.376   1.604   2.827  0.0022 -0.0695  2.6915
12854SOL    HW242605   7.304   1.723   2.889 -2.4732  0.5824 -1.0925
12855SOL     OW42606   4.674   2.792   4.623  0.0136  0.0538 -0.1150
12855SOL    HW142607   4.718   2.755   4.546 -0.7352  0.5145 -0.7743
12855SOL    HW242608   4.699   2.884   4.622 -0.7224  0.2560 -0.3310
12856SOL     OW42609   7.672   0.618   5.970 -0.2614 -0.2161 -0.5888
12856SOL    HW142610   7.634   0.561   5.903 -0.5912  1.2377 -1.6736
12856SOL    HW242611   7.731   0.560   6.020 -1.0668 -1.6395 -1.2280
12857SOL     OW42612   2.180   6.323   1.470  0.7322  0.2067 -0.4512
12857SOL    HW142613   2.188   6.264   1.395  1.0619 -0.3022 -0.0251
12857SOL    HW242614   2.256   6.381   1.463  1.3053 -0.4644  0.0143
12858SOL     OW42615   2.433  10.204   5.112  0.4150  0.4585  0.3707
12858SOL    HW142616   2.479  10.160   5.183  1.7594  1.7289  0.3364
12858SOL    HW242617   2.340  10.191   5.131  0.7524  0.6245  2.2659
12859SOL     OW42618   8.577   5.575   1.898  0.2972  0.1945  0.0122
12859SOL    HW142619   8.628   5.516   1.843 -0.6531 -1.5052  0.8495
12859SOL    HW242620   8.629   5.583   1.978  0.4833  0.6117 -0.1475
12860SOL     OW42621   0.372   1.169   0.319 -0.4592  0.4048 -0.1361
12860SOL    HW142622   0.320   1.249   0.328  0.3415  1.4342 -3.2972
12860SOL    HW242623   0.334   1.125   0.243  1.7302 -0.0126 -1.0547
12861SOL     OW42624   1.175   2.534   4.065  0.7217 -0.8131 -0.3232
12861SOL    HW142625   1.081   2.547   4.054  1.0853  1.1523 -1.5678
12861SOL    HW242626   1.209   2.532   3.976  2.2181  2.0879  0.0562
12862SOL     OW42627   7.939   4.727   0.226 -0.4514  0.1851 -0.2278
12862SOL    HW142628   7.936   4.803   0.168 -1.2138 -1.4286 -2.4360
12862SOL    HW242629   8.029   4.695   0.219 -1.1691 -1.5523 -2.7794
12863SOL     OW42630   4.116   9.701   9.045  0.3496  0.1333  0.0747
12863SOL    HW142631   4.156   9.689   9.132  2.2683  1.9039 -0.4734
12863SOL    HW242632   4.027   9.729   9.064  0.2924 -0.8233  1.4262
12864SOL     OW42633   3.983   6.623   2.325 -0.3418  0.0623 -0.4127
12864SOL    HW142634   4.078   6.620   2.339 -0.1592  2.4409 -0.7378
12864SOL    HW242635   3.945   6.602   2.410  0.5469  1.4401  0.3612
12865SOL     OW42636   1.868   9.606   9.438  0.3082  0.2112  0.2870
12865SOL    HW142637   1.832   9.553   9.367  0.5112  2.1035 -1.3167
12865SOL    HW242638   1.856   9.553   9.517 -0.3678 -1.7603 -1.0808
12866SOL     OW42639   6.509   5.765   9.799  0.4560 -0.0806  0.1164
12866SOL    HW142640   6.547   5.852   9.814  0.5660 -0.3682  1.6672
12866SOL    HW242641   6.584   5.708   9.785  0.3509  0.2274 -2.0903
12867SOL     OW42642   8.948   7.114   1.566 -0.9350 -0.0137  0.1199
12867SOL    HW142643   8.946   7.076   1.654 -0.5253 -1.4461 -0.4635
12867SOL    HW242644   8.906   7.048   1.510  1.4083 -0.4708 -1.2275
12868SOL     OW42645   8.458   5.236   3.027  0.2171 -0.3859 -0.2368
12868SOL    HW142646   8.454   5.140   3.017  0.9646 -0.4392 -0.0422
12868SOL    HW242647   8.549   5.258   3.009  0.0904  0.2709 -0.0738
12869SOL     OW42648   2.495   8.294   5.741 -0.3742  0.0175  0.5284
12869SOL    HW142649   2.425   8.230   5.728 -1.0153  0.7682  0.1431
12869SOL    HW242650   2.574   8.242   5.752 -0.7910 -0.8281 -0.3299
12870SOL     OW42651   7.340   3.092   8.732  0.1910  0.3269  0.4052
12870SOL    HW142652   7.417   3.038   8.748 -1.0432 -1.1340  1.6888
12870SOL    HW242653   7.371   3.182   8.748  2.3837  0.1803 -2.1867
12871SOL     OW42654   2.672   0.304   9.352 -0.1281  0.0914 -0.0409
12871SOL    HW142655   2.677   0.249   9.431 -0.8809 -0.1380 -0.1442
12871SOL    HW242656   2.580   0.300   9.326 -0.8760  3.6507  1.5461
12872SOL     OW42657   3.147   0.797   9.117 -0.2821  0.1707  0.1942
12872SOL    HW142658   3.205   0.820   9.190  0.0913 -0.1576  0.0011
12872SOL    HW242659   3.203   0.801   9.040 -0.8492  1.2578 -0.1789
12873SOL     OW42660   6.353   2.621   0.318 -0.5451 -0.6113  0.2292
12873SOL    HW142661   6.332   2.645   0.408 -0.3049 -0.2672  0.1939
12873SOL    HW242662   6.440   2.657   0.303  0.1625 -2.1431  0.4165
12874SOL     OW42663   1.017   6.535   2.428  0.4705 -0.2405  0.9061
12874SOL    HW142664   0.991   6.603   2.489 -0.7282  0.4717 -0.3413
12874SOL    HW242665   0.951   6.465   2.440 -1.5745  1.1043 -1.4840
12875SOL     OW42666   4.902   9.447   0.393 -0.2855 -0.2881  0.2942
12875SOL    HW142667   4.982   9.396   0.404  0.1601  0.2881 -0.2371
12875SOL    HW242668   4.861   9.409   0.315 -0.6053 -0.6745  0.6464
12876SOL     OW42669   1.617   7.052   3.396 -0.5525 -0.1911  0.2298
12876SOL    HW142670   1.554   7.057   3.323  0.9828  2.1206 -1.0636
12876SOL    HW242671   1.621   7.141   3.430  0.6264 -0.7150  1.5288
12877SOL     OW42672   3.559   8.261   7.041 -0.2638  0.8811 -0.1213
12877SOL    HW142673   3.550   8.339   7.097 -0.8054  0.8930 -0.2130
12877SOL    HW242674   3.634   8.214   7.077 -2.0487 -0.4003  2.2177
12878SOL     OW42675   6.718   9.451   3.242 -0.2407  0.7816 -0.0494
12878SOL    HW142676   6.769   9.471   3.321 -1.7873 -1.8230  1.8041
12878SOL    HW242677   6.769   9.384   3.197 -0.1692  1.0421 -0.3591
12879SOL     OW42678   5.752   5.159   6.587 -0.0017 -0.0165  0.2810
12879SOL    HW142679   5.822   5.166   6.651  0.4841 -0.4930 -0.1893
12879SOL    HW242680   5.695   5.089   6.620 -1.7784  2.1246  2.0643
12880SOL     OW42681   1.540   8.484   9.621  0.7752 -0.1955 -0.4917
12880SOL    HW142682   1.531   8.545   9.694 -1.1807  1.4591 -1.9972
12880SOL    HW242683   1.601   8.527   9.561 -0.0359 -0.0376 -1.2226
12881SOL     OW42684   7.111   5.717   3.635 -0.9593 -0.6396 -0.9909
12881SOL    HW142685   7.048   5.777   3.676 -0.3570 -1.7717  1.7932
12881SOL    HW242686   7.084   5.630   3.665  0.8542 -1.3242 -1.2258
12882SOL     OW42687  10.213   6.912   1.590  0.4106 -0.2350  0.8798
12882SOL    HW142688  10.259   6.829   1.583 -1.0766 -1.0143 -0.2607
12882SOL    HW242689  10.151   6.911   1.517 -1.5367  0.6737  2.4225
12883SOL     OW42690   0.157   5.969   5.886 -0.2636  0.0674  0.0833
12883SOL    HW142691   0.240   5.985   5.840  0.4369  0.0845  1.3188
12883SOL    HW242692   0.175   5.893   5.942 -1.3219 -0.4076 -0.2001
12884SOL     OW42693   1.365   5.890   8.463  0.3453  0.2180 -0.0133
12884SOL    HW142694   1.294   5.834   8.431  1.6681 -0.2688 -2.2821
12884SOL    HW242695   1.321   5.953   8.520 -1.9021 -0.1495 -1.2079
12885SOL     OW42696   1.183   9.432   9.855  0.6079  0.3484  0.1517
12885SOL    HW142697   1.249   9.400   9.794 -0.2969  0.5097 -0.9357
12885SOL    HW242698   1.146   9.353   9.895  1.9418  0.2760  1.3385
12886SOL     OW42699   8.261   1.926   0.593  0.1560 -0.7536 -0.2218
12886SOL    HW142700   8.217   1.844   0.572 -1.0697 -0.5803  1.4346
12886SOL    HW242701   8.206   1.966   0.661  0.6362  1.5181 -1.0900
12887SOL     OW42702   2.550   3.708   8.038  0.2406  0.3119 -0.3800
12887SOL    HW142703   2.590   3.744   7.959 -1.9774  0.8249 -1.3539
12887SOL    HW242704   2.466   3.674   8.008 -1.5424  2.2479  2.0495
12888SOL     OW42705   6.058   1.118   3.037  0.0218  0.2350 -0.1585
12888SOL    HW142706   6.060   1.030   3.075 -2.6779 -0.1683 -0.7230
12888SOL    HW242707   6.123   1.116   2.967  2.7654 -0.0221  2.2232
12889SOL     OW42708   2.821   1.194   6.837 -0.0045  0.1427  0.4213
12889SOL    HW142709   2.751   1.152   6.887 -1.1415  1.1197 -0.2658
12889SOL    HW242710   2.902   1.164   6.877 -0.8501  0.0777  2.1733
12890SOL     OW42711   4.625   0.587   4.424 -0.2895 -0.2666  0.0212
12890SOL    HW142712   4.549   0.531   4.405  0.0975 -0.8264  0.1138
12890SOL    HW242713   4.683   0.532   4.477  0.4172 -0.0101 -0.4783
12891SOL     OW42714   4.709   0.818   6.866 -0.1594  0.2773 -0.7373
12891SOL    HW142715   4.762   0.759   6.919  0.5987 -1.1011 -2.8829
12891SOL    HW242716   4.619   0.792   6.886  0.1455 -1.1973 -1.1332
12892SOL     OW42717   3.655   5.033   8.413  0.1104 -0.7620 -0.2976
12892SOL    HW142718   3.714   4.991   8.476 -0.5917 -0.6817  0.4352
12892SOL    HW242719   3.590   5.078   8.468  0.5342  0.8485 -1.0652
12893SOL     OW42720   2.006   8.765   2.012 -0.0606  0.0904  0.3138
12893SOL    HW142721   2.065   8.704   1.967 -0.0840 -0.6816  1.2968
12893SOL    HW242722   2.042   8.773   2.100 -1.0923  0.0647  0.7484
12894SOL     OW42723   0.535   5.720   8.056  0.0950  0.0625  0.2861
12894SOL    HW142724   0.459   5.667   8.031  1.9194 -2.5444 -0.1757
12894SOL    HW242725   0.575   5.672   8.128  1.7453  0.9506  0.0102
12895SOL     OW42726   9.251   1.891   8.521  0.2574 -0.2972 -0.0691
12895SOL    HW142727   9.171   1.943   8.520  0.6250  0.2828 -1.0542
12895SOL    HW242728   9.313   1.941   8.468  1.4067 -0.5381  0.9867
12896SOL     OW42729   1.899   4.713   0.111 -0.0505  0.1534  0.1132
12896SOL    HW142730   1.839   4.641   0.129  0.6655 -0.6900 -0.8187
12896SOL    HW242731   1.843   4.784   0.080 -0.9328  0.5384  2.3844
12897SOL     OW42732   8.434   1.884   6.335 -0.3052  0.1780  0.4540
12897SOL    HW142733   8.341   1.905   6.321  0.1902  1.0202 -2.0386
12897SOL    HW242734   8.445   1.797   6.297  0.5207  1.4318 -2.4943
12898SOL     OW42735   2.151   8.916   1.777  0.4901  0.0123 -0.1787
12898SOL    HW142736   2.075   8.948   1.824  0.6452 -1.0825  0.8589
12898SOL    HW242737   2.212   8.989   1.777 -1.0260  1.4005 -2.2257
12899SOL     OW42738   7.491   2.372   7.547  0.3453  0.3393 -0.1899
12899SOL    HW142739   7.535   2.334   7.622 -0.8135 -0.0467  0.3140
12899SOL    HW242740   7.490   2.302   7.481 -1.1993 -0.3493  0.5013
12900SOL     OW42741   0.312   8.779   3.644  0.0690 -0.4323 -0.1203
12900SOL    HW142742   0.275   8.801   3.729 -0.3520  1.1143 -0.6592
12900SOL    HW242743   0.404   8.761   3.662  0.4143  1.6568  0.4706
12901SOL     OW42744   8.850   0.291   8.403 -0.2411 -0.4714 -0.2624
12901SOL    HW142745   8.888   0.225   8.344 -0.0068 -0.0907 -0.5458
12901SOL    HW242746   8.914   0.300   8.473  0.8379  1.0638 -1.3657
12902SOL     OW42747   0.422   8.667   1.490  0.2127  0.5350 -0.0998
12902SOL    HW142748   0.465   8.700   1.411 -0.1285 -0.3561 -0.6762
12902SOL    HW242749   0.484   8.604   1.526  0.9889  1.9664  1.1572
12903SOL     OW42750   1.762   6.676   3.147  0.4368  0.1815  0.0432
12903SOL    HW142751   1.673   6.664   3.180  0.9257  0.5320  1.5970
12903SOL    HW242752   1.772   6.771   3.142  0.9588  0.1632  0.6102
12904SOL     OW42753   1.063   7.166   8.520 -0.3299 -0.1453 -0.7195
12904SOL    HW142754   1.048   7.114   8.441 -1.9240 -0.5431 -0.1869
12904SOL    HW242755   1.008   7.244   8.508  0.8107  0.6819 -0.7862
12905SOL     OW42756   5.393   3.246   0.026  0.2962  0.5485  0.1176
12905SOL    HW142757   5.433   3.199   0.099  1.3135  2.3000  0.7559
12905SOL    HW242758   5.467   3.275  -0.027 -0.3724  0.3918 -0.9164
12906SOL     OW42759   1.681   8.082   9.868 -0.0623  0.2986 -0.1466
12906SOL    HW142760   1.733   8.013   9.909  1.0061  0.3154 -1.4439
12906SOL    HW242761   1.680   8.061   9.775  1.5598  2.7806 -0.8349
12907SOL     OW42762   8.183   6.322   1.440  0.6680  0.3350 -0.0664
12907SOL    HW142763   8.255   6.287   1.388  1.0001  0.8348  0.0540
12907SOL    HW242764   8.186   6.417   1.427  0.7353  0.4713  0.8261
12908SOL     OW42765   4.836   3.593   0.987  0.5398  0.2940 -0.1839
12908SOL    HW142766   4.912   3.591   0.928  0.3561  1.4229 -0.4880
12908SOL    HW242767   4.792   3.509   0.972  1.5727 -0.2658 -0.1927
12909SOL     OW42768   6.140   9.139   6.536  0.2842 -0.1681  0.0832
12909SOL    HW142769   6.063   9.178   6.495 -0.0102  1.6392  2.1821
12909SOL    HW242770   6.121   9.141   6.630  2.2905 -1.0642  0.5591
12910SOL     OW42771   5.967   2.081  10.257 -0.3922  0.1533  0.0892
12910SOL    HW142772   5.880   2.062  10.225  0.0277 -0.4229 -0.7341
12910SOL    HW242773   6.005   2.139  10.191  1.2953 -2.8147 -1.7813
12911SOL     OW42774   5.481   8.099   6.513 -0.3688 -0.1828  0.0988
12911SOL    HW142775   5.512   8.059   6.432  4.3468  2.1773  0.4315
12911SOL    HW242776   5.473   8.192   6.492  2.6010  0.7682  2.5565
12912SOL     OW42777   6.815   6.298   5.701  0.2282 -0.4612  0.2969
12912SOL    HW142778   6.751   6.366   5.678 -0.0376 -0.7748  0.0863
12912SOL    HW242779   6.798   6.228   5.638  0.2274 -0.8875  0.7666
12913SOL     OW42780   8.564   6.631   3.739  0.7575 -0.2999  0.1846
12913SOL    HW142781   8.631   6.570   3.708  1.0842 -0.3201  0.9206
12913SOL    HW242782   8.579   6.710   3.687 -0.6911 -1.3102 -1.9515
12914SOL     OW42783   4.752   0.499   0.978 -0.4797 -0.7427 -0.1113
12914SOL    HW142784   4.700   0.576   0.954 -0.0051 -0.1095  0.8094
12914SOL    HW242785   4.725   0.431   0.917 -0.6122  0.2809 -1.2332
12915SOL     OW42786   0.381   5.580   0.702 -0.1091  0.4270 -0.1092
12915SOL    HW142787   0.391   5.675   0.707 -2.1650  0.6873 -0.0996
12915SOL    HW242788   0.441   5.553   0.632  1.0102  1.6260  0.3634
12916SOL     OW42789   9.807   8.212   9.684 -0.3550 -0.1487 -0.3126
12916SOL    HW142790   9.738   8.190   9.622 -0.3533  0.2136 -0.4467
12916SOL    HW242791   9.782   8.298   9.718  0.2906  0.2099 -0.7378
12917SOL     OW42792   0.626   9.731   1.095  0.7595 -0.1298 -0.3146
12917SOL    HW142793   0.707   9.763   1.056  1.0416 -0.8857 -0.3772
12917SOL    HW242794   0.626   9.768   1.183  0.4785  0.9971 -0.7721
12918SOL     OW42795   7.819   6.454   5.234  0.1293  1.1480  1.0157
12918SOL    HW142796   7.902   6.432   5.276 -0.4877 -0.0113  1.6737
12918SOL    HW242797   7.786   6.370   5.200  0.9158  2.0729 -2.4640
12919SOL     OW42798   3.123   2.264   5.368 -0.2218  0.4363 -0.2542
12919SOL    HW142799   3.197   2.203   5.356  0.9627  1.3484  1.8948
12919SOL    HW242800   3.128   2.322   5.292 -1.2417 -1.8644 -2.2471
12920SOL     OW42801   5.050   3.463   0.175 -0.1066 -0.1683  0.4377
12920SOL    HW142802   5.054   3.422   0.089 -2.4663 -1.7413  0.9876
12920SOL    HW242803   5.065   3.391   0.237  0.0640  0.6490  1.3841
12921SOL     OW42804   9.755   2.615   2.212  0.3288  0.2423 -0.9085
12921SOL    HW142805   9.661   2.622   2.229  0.4377 -0.0488 -0.1771
12921SOL    HW242806   9.793   2.688   2.261  0.8820 -1.8737  2.1278
12922SOL     OW42807   5.951   9.629   0.301  0.6566 -0.6711  0.5109
12922SOL    HW142808   5.995   9.670   0.226 -0.2099 -2.1758 -0.8819
12922SOL    HW242809   5.959   9.693   0.372  1.5748  0.7696 -0.8438
12923SOL     OW42810   9.228   0.717   3.694  0.0005 -0.0444  0.7595
12923SOL    HW142811   9.302   0.689   3.747  0.4344  1.5686  1.0696
12923SOL    HW242812   9.252   0.694   3.604  0.6006 -0.1069  0.9314
12924SOL     OW42813   4.037   8.173   1.786 -0.5236  0.4965 -0.1916
12924SOL    HW142814   4.073   8.133   1.706 -0.2731  0.7480 -0.2059
12924SOL    HW242815   4.111   8.176   1.846 -0.7215  0.2789  0.0639
12925SOL     OW42816   9.169   7.487   0.419  0.0371 -0.5120  0.9025
12925SOL    HW142817   9.194   7.549   0.350  1.3191 -1.0795  0.8107
12925SOL    HW242818   9.113   7.537   0.478  0.8743  0.6799  0.7225
12926SOL     OW42819   1.926   2.642   7.534  0.7003 -0.0554  0.3148
12926SOL    HW142820   1.843   2.604   7.505 -0.0860  2.0974 -0.4899
12926SOL    HW242821   1.909   2.669   7.624  0.4527  0.5454  0.0922
12927SOL     OW42822   5.512   1.388   4.481 -0.2150  0.1422 -0.0577
12927SOL    HW142823   5.428   1.414   4.520 -0.4028  0.5681 -0.7339
12927SOL    HW242824   5.575   1.451   4.516 -0.1351 -0.2820  0.5861
12928SOL     OW42825   9.606   0.715   1.215  0.3680  0.1224 -0.5183
12928SOL    HW142826   9.612   0.624   1.245 -1.3885 -0.0299 -0.5460
12928SOL    HW242827   9.582   0.708   1.123 -0.4988  0.6049 -0.3380
12929SOL     OW42828   2.899   8.417   0.077  0.2134 -0.0439 -0.4072
12929SOL    HW142829   2.971   8.409   0.015  1.2003  1.9239  0.3988
12929SOL    HW242830   2.935   8.382   0.159 -0.4868 -0.9987 -0.4928
12930SOL     OW42831   2.230   0.166   9.221  0.2429 -0.2505  0.2667
12930SOL    HW142832   2.284   0.217   9.281  0.3870 -0.2110  0.1042
12930SOL    HW242833   2.260   0.191   9.134 -0.6635  0.4757  0.1466
12931SOL     OW42834   2.933   3.532   8.092 -0.6311  0.4695  0.2545
12931SOL    HW142835   2.849   3.538   8.137 -1.8266 -2.3440 -1.3119
12931SOL    HW242836   2.913   3.556   8.001  0.2296 -0.2786 -0.1474
12932SOL     OW42837   1.261   4.492   7.457 -0.0347  0.1129  0.0360
12932SOL    HW142838   1.331   4.541   7.499 -1.5207  1.3626  1.2049
12932SOL    HW242839   1.202   4.468   7.528 -0.1506 -2.0911 -0.7220
12933SOL     OW42840   7.099   4.533   7.312 -0.3538  0.0502  0.1394
12933SOL    HW142841   7.050   4.554   7.392  2.1612  0.8049  1.5862
12933SOL    HW242842   7.112   4.618   7.270 -0.3197 -0.1618 -0.2837
12934SOL     OW42843   9.443   6.287   8.468 -0.1511 -0.7944 -0.1836
12934SOL    HW142844   9.453   6.210   8.411 -2.7766 -2.5385  1.5189
12934SOL    HW242845   9.456   6.253   8.557 -1.0644  0.8053  0.5978
12935SOL     OW42846   7.601   6.595   0.606 -0.2925 -0.1979 -0.4256
12935SOL    HW142847   7.616   6.504   0.628 -1.5389 -0.2940  0.0950
12935SOL    HW242848   7.541   6.627   0.673 -1.1766  0.5435 -1.5202
12936SOL     OW42849   1.831   2.385   7.319  0.2110 -0.2334 -0.3766
12936SOL    HW142850   1.863   2.349   7.237  2.2880  2.4996 -0.9004
12936SOL    HW242851   1.779   2.461   7.294 -0.8293 -0.5186  0.8040
12937SOL     OW42852   1.667   2.760   6.591  0.1900  0.7819  0.3209
12937SOL    HW142853   1.686   2.816   6.666  4.0107  0.1360  0.0472
12937SOL    HW242854   1.603   2.697   6.624  0.6434  1.3990  2.5797
12938SOL     OW42855   7.135   5.466   7.104  0.1062  0.3373 -0.2267
12938SOL    HW142856   7.206   5.444   7.164  0.3282  4.4085  1.3506
12938SOL    HW242857   7.090   5.384   7.089  3.0616 -1.8024  1.4808
12939SOL     OW42858   7.331   2.434   2.253 -0.2734  0.4066 -0.1993
12939SOL    HW142859   7.371   2.488   2.185 -0.5136  0.4337 -0.3232
12939SOL    HW242860   7.237   2.446   2.240 -0.3846 -1.0506 -1.0737
12940SOL     OW42861   5.503   9.713   6.076  0.2574 -0.0020  0.3805
12940SOL    HW142862   5.470   9.659   6.004  2.3890 -0.6646 -0.1916
12940SOL    HW242863   5.444   9.788   6.079 -0.0001 -0.0224 -1.9939
12941SOL     OW42864   8.901   9.352   2.023 -0.3063 -0.0497 -0.0013
12941SOL    HW142865   8.918   9.260   2.003  0.2292 -0.4185  1.9950
12941SOL    HW242866   8.815   9.369   1.984 -0.2077 -1.2484 -0.7935
12942SOL     OW42867   0.282   7.109   0.034 -0.2188  0.5503  0.0985
12942SOL    HW142868   0.246   7.124  -0.053 -2.6510  0.9205  1.1132
12942SOL    HW242869   0.303   7.015   0.036  0.8019  0.7258 -1.1689
12943SOL     OW42870   1.744   7.629   4.993  0.0822  0.1051  0.0712
12943SOL    HW142871   1.771   7.599   5.080 -2.9610  1.3002  1.5543
12943SOL    HW242872   1.798   7.706   4.977  1.2468 -0.5894  0.4899
12944SOL     OW42873   4.358   8.106   8.170  0.1245  0.2483 -0.2399
12944SOL    HW142874   4.443   8.092   8.214 -0.2826 -2.7467 -0.2006
12944SOL    HW242875   4.299   8.133   8.240  0.4856 -0.1837  0.2404
12945SOL     OW42876   2.590   8.944   7.123  0.6882 -0.3483  0.7088
12945SOL    HW142877   2.623   8.904   7.043 -0.0802 -0.8533  0.6227
12945SOL    HW242878   2.508   8.897   7.140 -0.0678  0.9661  0.8071
12946SOL     OW42879   3.592   1.130   9.266 -0.4776 -0.0178  0.0071
12946SOL    HW142880   3.545   1.199   9.313  0.4326 -0.1630  1.1713
12946SOL    HW242881   3.553   1.130   9.179 -2.0965  0.3877  0.6915
12947SOL     OW42882   6.829   6.227   1.839 -0.2381 -0.7336 -0.1955
12947SOL    HW142883   6.754   6.168   1.825 -0.1855 -1.0371  0.7306
12947SOL    HW242884   6.897   6.194   1.780 -0.3783 -1.2986 -0.0469
12948SOL     OW42885   9.554   2.236   1.217  0.0788  0.8324 -0.5238
12948SOL    HW142886   9.567   2.263   1.308  2.7389  2.5855 -1.3335
12948SOL    HW242887   9.485   2.294   1.184 -0.5586  0.5045  0.1802
12949SOL     OW42888   0.989   0.640   6.252 -0.2298  0.3472 -0.1856
12949SOL    HW142889   1.077   0.607   6.234 -0.1559  1.1392 -1.3696
12949SOL    HW242890   0.932   0.594   6.190 -0.3697  1.1636 -0.6788
12950SOL     OW42891   2.599   1.395   9.862  0.0543  0.0483  0.7343
12950SOL    HW142892   2.558   1.311   9.880  1.0244 -0.6029 -0.0024
12950SOL    HW242893   2.561   1.423   9.778  0.8399 -0.3854  0.2287
12951SOL     OW42894   2.036   7.511   3.477 -0.0863  0.2463  0.2232
12951SOL    HW142895   2.099   7.578   3.451 -0.4740  0.3693 -0.4146
12951SOL    HW242896   1.952   7.543   3.443 -0.3149 -0.4530  0.1209
12952SOL     OW42897   5.392   1.010   2.580  0.8854  0.0675 -0.9320
12952SOL    HW142898   5.346   1.033   2.500  1.1169  0.6250 -0.9115
12952SOL    HW242899   5.458   1.079   2.591  0.9510 -0.0772 -0.3408
12953SOL     OW42900   8.404   1.889   1.635  0.9786  0.1618  0.2820
12953SOL    HW142901   8.423   1.962   1.694 -1.4218  0.4722  0.7859
12953SOL    HW242902   8.475   1.826   1.651  2.0069  1.5139  1.2883
12954SOL     OW42903   1.346   1.046   5.029 -0.3306 -0.0797 -0.2817
12954SOL    HW142904   1.404   1.057   4.954 -1.3467  0.3114 -1.0351
12954SOL    HW242905   1.361   0.956   5.058 -0.2061 -0.3631 -1.2014
12955SOL     OW42906   6.145   9.028   3.251  0.1265 -0.0507 -0.2211
12955SOL    HW142907   6.155   9.099   3.315 -0.7557 -0.3054  0.2104
12955SOL    HW242908   6.077   9.060   3.191 -0.8567 -0.8393  0.4381
12956SOL     OW42909   5.893   4.497   9.214  0.0603 -0.0532  0.2280
12956SOL    HW142910   5.894   4.497   9.310 -1.4411 -1.6171  0.2908
12956SOL    HW242911   5.963   4.435   9.190  0.6941  0.6262  0.2749
12957SOL     OW42912   4.029   4.661   9.413 -0.7034  0.2091  0.1786
12957SOL    HW142913   4.070   4.599   9.353 -2.6255 -0.3271 -0.6497
12957SOL    HW242914   4.073   4.744   9.397 -2.0791  0.4377 -3.0416
12958SOL     OW42915   0.576   0.586   0.862 -0.0401 -0.6526  0.5292
12958SOL    HW142916   0.510   0.651   0.885 -0.2081 -1.4174  2.3848
12958SOL    HW242917   0.634   0.631   0.800 -0.4493  1.0866  1.3525
12959SOL     OW42918   3.804   5.006   3.983  0.2620  0.2315  0.4584
12959SOL    HW142919   3.846   5.091   3.970 -0.1261  0.7522  2.2807
12959SOL    HW242920   3.754   5.016   4.064 -1.4516 -1.1129 -0.3674
12960SOL     OW42921   7.580   2.767   7.209  0.0406  0.4128 -0.0252
12960SOL    HW142922   7.590   2.731   7.297  1.0865  0.8652  0.0622
12960SOL    HW242923   7.576   2.862   7.223  2.2217  0.6438 -0.5633
12961SOL     OW42924   2.355   1.046   7.806 -0.1939 -0.5301  0.0799
12961SOL    HW142925   2.285   1.057   7.871  0.4193 -1.2066  0.8727
12961SOL    HW242926   2.390   0.958   7.822 -0.6824 -1.1352 -1.8304
12962SOL     OW42927   0.313   9.298   0.094  0.2336 -0.2888 -0.1312
12962SOL    HW142928   0.221   9.314   0.073  0.2375  0.7548  0.6013
12962SOL    HW242929   0.313   9.212   0.137 -0.2934 -0.6228 -0.7753
12963SOL     OW42930   9.128   1.087   2.432  0.1333 -0.2935 -0.0555
12963SOL    HW142931   9.216   1.099   2.468 -0.2958 -0.9566  1.2750
12963SOL    HW242932   9.132   1.003   2.387 -0.3351 -1.3617  1.7885
12964SOL     OW42933   1.479   1.659   3.795 -0.4164 -0.2221 -0.3372
12964SOL    HW142934   1.512   1.577   3.832 -2.6009 -0.8176  0.3975
12964SOL    HW242935   1.484   1.722   3.868 -2.2807 -0.7301  0.2891
12965SOL     OW42936   7.306   8.893   0.285  0.4840  0.0176 -0.1922
12965SOL    HW142937   7.292   8.841   0.206 -0.0747  0.5153 -0.4298
12965SOL    HW242938   7.224   8.940   0.297 -0.0359 -1.2739  1.6187
12966SOL     OW42939   3.367   4.566   3.738 -0.2540  0.3805 -0.0138
12966SOL    HW142940   3.284   4.557   3.691 -0.8016 -2.0307  1.2371
12966SOL    HW242941   3.403   4.478   3.740  0.3670  0.6069  2.8870
12967SOL     OW42942   4.138   9.784   6.916  0.0127  0.1032 -0.3520
12967SOL    HW142943   4.220   9.831   6.933  0.3976 -0.7179  0.1231
12967SOL    HW242944   4.070   9.850   6.927  0.5558  0.5972  0.0978
12968SOL     OW42945   0.244   3.555   9.665  0.2576  0.5383  0.2320
12968SOL    HW142946   0.320   3.536   9.610  1.4388 -0.3745  2.0721
12968SOL    HW242947   0.175   3.498   9.630  1.1226 -0.3964 -0.0245
12969SOL     OW42948   9.559   0.021   1.637 -0.2768 -0.2032 -0.3407
12969SOL    HW142949   9.524   0.110   1.633 -3.9750 -1.3284  2.0028
12969SOL    HW242950   9.508  -0.028   1.574 -0.8661 -1.3235  0.9588
12970SOL     OW42951   9.356   3.583   5.483 -0.0361  0.0806 -0.6578
12970SOL    HW142952   9.348   3.488   5.491 -0.9445  0.3082  2.8313
12970SOL    HW242953   9.418   3.608   5.552  0.8661  1.9941 -2.0643
12971SOL     OW42954   6.920   5.663   6.417  0.6081  0.7254  0.2177
12971SOL    HW142955   6.970   5.731   6.372 -0.1251  1.1945  0.0895
12971SOL    HW242956   6.859   5.711   6.474  1.2471  0.1437  1.4232
12972SOL     OW42957   6.357   8.926   5.587 -0.2348  0.4464 -0.3307
12972SOL    HW142958   6.341   8.916   5.494 -1.8334  0.7939 -0.1203
12972SOL    HW242959   6.345   9.020   5.603 -0.8031  0.2650  0.3549
12973SOL     OW42960   2.065  10.285   6.989 -0.1743 -0.2169 -0.1472
12973SOL    HW142961   2.157  10.277   6.965  0.1640  1.0836  0.6170
12973SOL    HW242962   2.056  10.233   7.069  0.0141  0.0513  0.0491
12974SOL     OW42963   7.240   6.807   4.535 -0.1710  0.1362  0.2301
12974SOL    HW142964   7.157   6.844   4.504  0.2999  0.5139 -0.6160
12974SOL    HW242965   7.275   6.762   4.458  1.8710  2.5477 -0.3683
12975SOL     OW42966   1.279   2.827   0.521  0.5140  0.5931  0.1779
12975SOL    HW142967   1.332   2.786   0.589  0.0125  0.4785  0.5110
12975SOL    HW242968   1.298   2.778   0.442  4.1609  3.1626 -0.7725
12976SOL     OW42969   5.757   0.913   6.172  0.3154  0.2085 -0.1036
12976SOL    HW142970   5.821   0.856   6.216  0.2126  1.3246  1.5504
12976SOL    HW242971   5.758   0.994   6.222 -0.7391  1.0956 -1.4463
12977SOL     OW42972   5.682   7.284   5.199  0.2837  0.1057  0.0975
12977SOL    HW142973   5.651   7.198   5.169 -1.3180  0.5956  0.2494
12977SOL    HW242974   5.675   7.340   5.122  1.2171  0.1453  0.0305
12978SOL     OW42975   6.465   8.293   5.384 -0.2193 -0.0213  0.9593
12978SOL    HW142976   6.414   8.326   5.459  1.0018  1.3308  1.2561
12978SOL    HW242977   6.553   8.328   5.399  0.3832 -0.9068 -0.3971
12979SOL     OW42978   5.732   0.175   1.116 -0.1123  0.1041 -0.4426
12979SOL    HW142979   5.777   0.091   1.119  0.8267  0.5846 -0.8913
12979SOL    HW242980   5.670   0.171   1.189  2.4002  0.4241  1.8604
12980SOL     OW42981   7.246   1.733   8.792  0.4632 -0.1427  0.2493
12980SOL    HW142982   7.266   1.661   8.733  0.9063  1.2737 -1.4081
12980SOL    HW242983   7.154   1.751   8.778 -0.1011 -1.4371  1.9376
12981SOL     OW42984   4.599   7.907   0.847 -0.0594 -0.1301 -0.5656
12981SOL    HW142985   4.515   7.950   0.835 -0.0225 -0.2645 -1.3503
12981SOL    HW242986   4.659   7.954   0.789 -0.0452 -1.3036 -1.5319
12982SOL     OW42987   1.545   2.758   3.909  0.1609  0.0420 -0.3312
12982SOL    HW142988   1.596   2.734   3.986  1.3543 -0.2053 -1.1684
12982SOL    HW242989   1.599   2.824   3.864 -1.3528  1.5701 -0.0205
12983SOL     OW42990   4.975   7.262   5.486 -0.6628  0.1872  0.4302
12983SOL    HW142991   5.033   7.262   5.563  0.3958 -0.6893 -0.3450
12983SOL    HW242992   4.906   7.200   5.508  0.6595 -1.5163 -0.0409
12984SOL     OW42993   2.157   7.234   3.190 -0.5798 -0.3674 -0.2890
12984SOL    HW142994   2.242   7.244   3.233 -0.2497  0.4776 -1.1089
12984SOL    HW242995   2.093   7.246   3.261 -0.0558  1.3518 -0.0408
12985SOL     OW42996   7.191   7.784   3.535 -0.3225  0.5336 -0.9824
12985SOL    HW142997   7.269   7.769   3.588 -0.8797  0.8844 -0.0351
12985SOL    HW242998   7.138   7.844   3.587 -0.4832  1.6253 -2.3566
12986SOL     OW42999   6.150   1.952   8.756  0.0744 -0.5821  0.5222
12986SOL    HW143000   6.100   2.023   8.798 -0.9181 -1.4588  0.8718
12986SOL    HW243001   6.120   1.953   8.665 -1.1075 -1.4998  0.8639
12987SOL     OW43002   8.727   9.825   0.776 -0.0963  0.4037  0.4247
12987SOL    HW143003   8.685   9.894   0.724 -0.7740  0.4144  0.9710
12987SOL    HW243004   8.764   9.871   0.851  0.9549  0.3993 -0.0713
12988SOL     OW43005   6.435   2.883   8.711 -0.6640  0.0614 -0.0668
12988SOL    HW143006   6.349   2.841   8.708 -0.1805 -0.9745  0.2795
12988SOL    HW243007   6.472   2.857   8.795  0.6619 -0.8958 -0.8926
12989SOL     OW43008   1.187   0.155   2.483  0.5194  0.1193  0.4885
12989SOL    HW143009   1.108   0.102   2.479  0.6929 -0.1893  0.9697
12989SOL    HW243010   1.224   0.151   2.395 -1.0176  1.8730 -0.2819
12990SOL     OW43011   0.917   3.424   0.328 -0.1405  0.2212 -0.0681
12990SOL    HW143012   0.845   3.391   0.275  0.2528 -0.1129 -0.3974
12990SOL    HW243013   0.885   3.508   0.362 -1.2461 -0.5871  0.9752
12991SOL     OW43014   4.127   4.817  10.041 -0.0524 -0.3247  0.0046
12991SOL    HW143015   4.169   4.759  10.104 -0.7054 -1.4158 -0.5411
12991SOL    HW243016   4.057   4.860  10.091  2.2878  2.4187  1.2580
12992SOL     OW43017   5.032   8.646   5.844  0.1236  0.1632 -0.5358
12992SOL    HW143018   4.970   8.693   5.788  1.9683  1.7843 -1.3302
12992SOL    HW243019   5.060   8.572   5.790  1.8650  1.6996 -1.8488
12993SOL     OW43020   7.708   9.539   6.965 -0.1771 -0.1115 -0.0489
12993SOL    HW143021   7.778   9.603   6.948 -0.4640 -0.0683 -1.1431
12993SOL    HW243022   7.725   9.469   6.902  0.0266 -1.0479  1.0178
12994SOL     OW43023   3.826   0.932   2.025 -0.3349 -0.8594  0.0282
12994SOL    HW143024   3.774   0.857   1.997 -0.5891  0.2432 -2.7471
12994SOL    HW243025   3.882   0.952   1.950  1.5904  0.1775  1.6430
12995SOL     OW43026   0.340   5.135   1.979  0.7637 -0.0642  0.1598
12995SOL    HW143027   0.293   5.217   1.969 -1.2736 -0.8626  2.1658
12995SOL    HW243028   0.348   5.100   1.890 -2.1862  0.3135 -0.3414
12996SOL     OW43029   0.597  10.258   2.632 -0.6874 -0.0944 -0.0981
12996SOL    HW143030   0.592  10.341   2.680  1.6076  0.7998 -1.2373
12996SOL    HW243031   0.650  10.202   2.688  1.2555  0.6579 -1.1034
12997SOL     OW43032   4.550   2.841   9.965 -0.0701 -0.4252 -0.1439
12997SOL    HW143033   4.577   2.770   9.907 -0.1865 -0.5580 -0.0366
12997SOL    HW243034   4.627   2.898   9.970 -0.3350  0.0483 -1.1187
12998SOL     OW43035   5.195   3.173   2.443 -0.2259 -0.1236  0.2640
12998SOL    HW143036   5.231   3.095   2.400 -1.6264  0.4553 -2.1274
12998SOL    HW243037   5.236   3.174   2.529  3.7377 -0.6926 -1.4289
12999SOL     OW43038   4.967   2.040   4.220  0.7975 -0.0605  0.0076
12999SOL    HW143039   4.994   1.983   4.149  0.0802  0.5933 -0.8060
12999SOL    HW243040   5.032   2.025   4.289  0.5792 -1.9075 -0.1425
13000SOL     OW43041   1.645   5.548   9.537 -0.2838 -0.2647 -0.3215
13000SOL    HW143042   1.609   5.609   9.601 -0.2407 -0.5131 -0.0594
13000SOL    HW243043   1.688   5.481   9.589 -1.3364 -1.1639 -0.5684
13001SOL     OW43044   7.511   7.633   8.111 -0.1123 -0.1202 -0.8311
13001SOL    HW143045   7.498   7.545   8.149 -0.6103  0.2280 -0.1656
13001SOL    HW243046   7.434   7.646   8.056  0.3844 -0.4378 -1.6170
13002SOL     OW43047   7.338   2.265   4.303 -0.0882  0.6529  0.9803
13002SOL    HW143048   7.428   2.298   4.304 -0.1451  1.0079 -1.3234
13002SOL    HW243049   7.284   2.343   4.314 -0.1426  0.8958 -0.7635
13003SOL     OW43050   3.935   9.709   0.330  0.4293  0.8587  0.2656
13003SOL    HW143051   3.999   9.645   0.362 -0.3339  0.5812  1.2867
13003SOL    HW243052   3.868   9.713   0.399 -1.8273 -0.4953 -1.6871
13004SOL     OW43053   5.278   5.887   3.908 -0.0822 -0.0243  0.4704
13004SOL    HW143054   5.199   5.853   3.950 -0.7235 -0.4470 -1.0094
13004SOL    HW243055   5.350   5.844   3.953 -0.5505  1.6506  3.0185
13005SOL     OW43056   9.977   6.668   6.062 -0.0647 -0.6791  0.1488
13005SOL    HW143057   9.926   6.607   6.009 -2.3655 -0.2853  1.7694
13005SOL    HW243058  10.022   6.724   5.998 -3.5620  0.5067 -1.5129
13006SOL     OW43059   6.760   1.194   8.931  0.3600 -0.0249 -0.4984
13006SOL    HW143060   6.800   1.262   8.878  0.3934  0.9962  0.7989
13006SOL    HW243061   6.681   1.168   8.882  0.7635  0.3822 -1.3751
13007SOL     OW43062   3.534   8.393   5.978 -0.3587 -0.0977 -0.5132
13007SOL    HW143063   3.495   8.340   6.047  0.6098 -0.3708 -0.1648
13007SOL    HW243064   3.625   8.403   6.004 -0.4727  1.6060 -0.6475
13008SOL     OW43065   6.478   1.410   4.464  0.0833  0.1238 -0.1063
13008SOL    HW143066   6.501   1.320   4.485 -0.0001 -0.2946 -1.6403
13008SOL    HW243067   6.419   1.438   4.534  0.4076 -0.8872  0.5770
13009SOL     OW43068   1.435   9.915   6.146  0.0446 -0.3897 -0.0469
13009SOL    HW143069   1.420   9.848   6.213 -2.1499 -0.0440 -0.1110
13009SOL    HW243070   1.465   9.866   6.069  2.5980 -0.7887  1.1049
13010SOL     OW43071   3.581   9.495   5.188 -0.6869 -0.8393  0.1524
13010SOL    HW143072   3.508   9.526   5.242 -1.0786 -0.3580 -0.6431
13010SOL    HW243073   3.604   9.570   5.134  1.3195 -0.5242  1.3360
13011SOL     OW43074   0.910   3.914   3.405 -0.4082 -0.0865 -0.2047
13011SOL    HW143075   0.861   3.865   3.340 -0.4410 -0.3861  0.0449
13011SOL    HW243076   0.856   3.910   3.484  0.6408 -1.6264  0.4965
13012SOL     OW43077   9.068   4.458   4.823 -0.0553 -0.1162 -0.1682
13012SOL    HW143078   9.128   4.523   4.860 -0.3264  0.3353 -0.5048
13012SOL    HW243079   9.021   4.422   4.898  1.3054 -1.1782  0.2183
13013SOL     OW43080   4.429   3.465   7.099  0.8858  0.6172  0.1301
13013SOL    HW143081   4.389   3.433   7.018  0.3540 -0.2666  0.7297
13013SOL    HW243082   4.356   3.504   7.147  1.2060  1.1602  0.1832
13014SOL     OW43083  10.113   2.531   3.497  0.4694  0.3404  0.4261
13014SOL    HW143084  10.083   2.517   3.587  0.7825  0.4083  0.5407
13014SOL    HW243085  10.129   2.626   3.492 -1.6264  0.7076 -0.3338
13015SOL     OW43086   2.645   8.978  10.087 -0.3807 -0.3594 -0.1898
13015SOL    HW143087   2.570   8.918  10.088  0.9215 -2.0987 -0.9843
13015SOL    HW243088   2.721   8.920  10.089  0.9489  1.3329 -0.1838
13016SOL     OW43089   0.496   3.862   2.377 -0.2842  0.0095  0.0739
13016SOL    HW143090   0.476   3.823   2.462 -2.3274  1.6481  0.4156
13016SOL    HW243091   0.459   3.800   2.314 -1.0324  0.0063  0.5002
13017SOL     OW43092   6.326   4.964   3.652 -0.1424 -0.0918 -0.3650
13017SOL    HW143093   6.312   5.041   3.597 -1.5839  2.0332  2.6312
13017SOL    HW243094   6.247   4.911   3.641 -1.6749  1.6441  1.3977
13018SOL     OW43095   0.637   5.640   7.267 -0.1450  0.4832  0.1449
13018SOL    HW143096   0.578   5.619   7.339 -0.0332  2.6696  0.9568
13018SOL    HW243097   0.603   5.723   7.232  0.0954 -0.2639 -2.0265
13019SOL     OW43098   7.529   5.988   8.080 -0.4820  0.0705 -0.4332
13019SOL    HW143099   7.459   5.945   8.032 -0.9414  0.8007 -0.4332
13019SOL    HW243100   7.560   5.922   8.142  1.2878 -1.5091 -2.8356
13020SOL     OW43101   8.435   0.139   5.001 -0.7379  0.3623  0.0937
13020SOL    HW143102   8.385   0.220   5.014 -0.5301  0.3659  0.9079
13020SOL    HW243103   8.382   0.087   4.940 -0.4753  1.4561 -1.1126
13021SOL     OW43104   7.457   1.820   8.091  0.0031  0.3593  0.2852
13021SOL    HW143105   7.399   1.822   8.167 -0.6242 -0.1384 -0.1737
13021SOL    HW243106   7.540   1.786   8.125  0.1574  1.3931  1.0135
13022SOL     OW43107   0.463   6.318   2.325 -0.3563  0.0172  0.3629
13022SOL    HW143108   0.377   6.279   2.309 -0.3691  0.3178 -0.3415
13022SOL    HW243109   0.525   6.258   2.284 -0.4020  0.8829 -1.0194
13023SOL     OW43110   2.801   2.371   0.244 -0.1992 -0.6396  0.6766
13023SOL    HW143111   2.771   2.347   0.331  0.9682 -0.6957  1.0924
13023SOL    HW243112   2.842   2.291   0.210 -1.2198 -0.8089 -0.1975
13024SOL     OW43113   2.941   3.339   4.893 -0.2169 -0.1059 -0.3771
13024SOL    HW143114   2.984   3.294   4.966  0.2851 -0.3260 -0.7981
13024SOL    HW243115   2.904   3.268   4.840 -1.6778  0.1023  0.3074
13025SOL     OW43116   0.940   3.440   0.942  0.1498 -1.0596 -0.3894
13025SOL    HW143117   0.854   3.445   0.901  0.4242 -0.6271 -0.9252
13025SOL    HW243118   0.999   3.479   0.878  0.6486 -0.7763  0.2347
13026SOL     OW43119   3.691   2.252   1.485  0.4005  0.3072  0.6873
13026SOL    HW143120   3.677   2.204   1.403  1.4828  0.8088  0.1791
13026SOL    HW243121   3.630   2.326   1.480  0.2182  0.1461  0.4937
13027SOL     OW43122   4.265  10.151   1.772 -0.2055  0.0334  0.5350
13027SOL    HW143123   4.177  10.130   1.805 -0.6610  0.2124 -0.5294
13027SOL    HW243124   4.318  10.076   1.797 -0.9383 -0.6287  0.1631
13028SOL     OW43125   8.307   1.955   1.393 -0.1256 -0.4084 -0.2022
13028SOL    HW143126   8.312   1.884   1.329 -1.8427  0.7950 -1.7768
13028SOL    HW243127   8.333   1.914   1.475  1.9053 -2.0957 -1.5648
13029SOL     OW43128   0.599   3.210   8.528 -0.3176 -0.0651  0.0127
13029SOL    HW143129   0.587   3.268   8.603 -0.5356 -0.0630 -0.0221
13029SOL    HW243130   0.578   3.123   8.561 -1.1311  0.0277 -0.2205
13030SOL     OW43131   2.593   6.592   1.364  0.5125  0.8701  0.7135
13030SOL    HW143132   2.538   6.520   1.332  0.9100  0.6023  0.6239
13030SOL    HW243133   2.623   6.563   1.450  0.4675  1.0398  0.7855
13031SOL     OW43134   8.379   0.554   0.084 -0.3380 -0.1035  0.3529
13031SOL    HW143135   8.425   0.631   0.051 -0.4939  0.4684  1.4321
13031SOL    HW243136   8.372   0.496   0.008  0.2624  0.7088 -0.3417
13032SOL     OW43137   6.900   9.206   6.732  0.0959 -0.0747  0.1163
13032SOL    HW143138   6.935   9.295   6.736  1.5778 -0.4967 -1.9568
13032SOL    HW243139   6.975   9.149   6.745 -0.5654 -1.0174 -0.0490
13033SOL     OW43140   1.561   1.530   0.631  0.0761  0.1404  0.0990
13033SOL    HW143141   1.543   1.609   0.682  1.4209  0.9493 -0.6163
13033SOL    HW243142   1.650   1.505   0.657  0.4204  0.0195 -1.1346
13034SOL     OW43143   0.573   8.820   1.823  0.1517 -0.8521 -0.0786
13034SOL    HW143144   0.519   8.888   1.784  0.0229 -0.7559  0.2652
13034SOL    HW243145   0.661   8.838   1.791  0.8198  1.6426  2.7670
13035SOL     OW43146   9.539   5.274   2.481 -0.3341 -0.0055  0.8679
13035SOL    HW143147   9.482   5.312   2.414 -0.8138 -1.2030  0.5783
13035SOL    HW243148   9.507   5.185   2.493  1.4122 -0.6900  0.7682
13036SOL     OW43149   0.975   6.906   6.374  0.2998  0.5673 -0.2546
13036SOL    HW143150   1.003   6.922   6.284  2.8462  1.5590  0.6406
13036SOL    HW243151   0.998   6.814   6.390  1.6608  0.9281 -0.0357
13037SOL     OW43152   2.324   2.346   8.063 -0.2022  0.5347  0.0764
13037SOL    HW143153   2.405   2.378   8.103  0.8486 -1.0510 -0.6804
13037SOL    HW243154   2.318   2.254   8.092 -0.0382 -0.3015 -2.3413
13038SOL     OW43155   5.142   6.446   7.427 -0.2767 -0.0403 -0.5413
13038SOL    HW143156   5.136   6.383   7.498 -2.4874 -0.4306 -0.9710
13038SOL    HW243157   5.170   6.527   7.469 -0.3089 -0.5744  0.5549
13039SOL     OW43158   3.599   6.153   9.133 -0.6914  0.5606  0.0328
13039SOL    HW143159   3.534   6.215   9.102  1.1453  1.9774 -1.2036
13039SOL    HW243160   3.652   6.132   9.056  1.4583  0.9439  1.3061
13040SOL     OW43161   5.377   7.189   1.730 -0.6347  0.0506  0.2189
13040SOL    HW143162   5.436   7.140   1.672 -0.6020 -0.8875  1.0096
13040SOL    HW243163   5.293   7.189   1.685 -0.6607 -0.8363  0.2429
13041SOL     OW43164   4.811   8.996  10.195  0.3180 -0.4485  0.1629
13041SOL    HW143165   4.752   9.062  10.232  1.8830  1.2646 -0.2308
13041SOL    HW243166   4.871   8.975  10.267  0.4184 -0.6917  0.0085
13042SOL     OW43167   6.395   2.059   7.830  0.6674 -0.0440 -0.1080
13042SOL    HW143168   6.479   2.018   7.809  0.8576  1.1328 -1.8567
13042SOL    HW243169   6.337   2.029   7.761  0.4514  1.4954 -0.6218
13043SOL     OW43170   1.092   6.931   9.745  0.1803  0.3370  0.1849
13043SOL    HW143171   1.089   6.963   9.835  2.2422 -1.1092  0.8445
13043SOL    HW243172   1.174   6.968   9.710 -1.4186  2.3763 -1.7868
13044SOL     OW43173   8.070   5.624   8.691  0.4650 -0.4455  0.2047
13044SOL    HW143174   8.145   5.675   8.662  0.9480 -0.8323  0.7411
13044SOL    HW243175   8.029   5.678   8.758  0.1111 -0.1222 -0.2689
13045SOL     OW43176   8.927   2.277   5.515  0.1135 -0.1548 -0.4292
13045SOL    HW143177   8.844   2.230   5.516 -0.2700  0.5165 -0.0915
13045SOL    HW243178   8.955   2.278   5.607  0.7712 -0.8605 -0.6178
13046SOL     OW43179   6.787  10.048   0.142 -0.2034  0.5017 -0.0462
13046SOL    HW143180   6.810  10.139   0.161  0.6992  0.5239 -1.1672
13046SOL    HW243181   6.871  10.005   0.127 -0.7009 -0.2512 -0.7090
13047SOL     OW43182   1.074   5.762   4.106  0.2355  0.8054  0.0460
13047SOL    HW143183   1.031   5.677   4.093  1.1097  0.3254  0.2566
13047SOL    HW243184   1.166   5.746   4.084  0.6784  1.3523  1.4376
13048SOL     OW43185   2.461   6.526   5.930 -0.4561 -0.0520 -0.1389
13048SOL    HW143186   2.513   6.447   5.944 -2.0671 -1.1230 -0.0620
13048SOL    HW243187   2.473   6.546   5.837  0.0876 -0.2670 -0.1201
13049SOL     OW43188   4.031   2.795   9.782 -0.3297  0.1681 -0.2681
13049SOL    HW143189   4.071   2.866   9.832 -0.2384  0.2215 -0.4182
13049SOL    HW243190   3.998   2.734   9.849  2.7130 -1.4429 -0.0628
13050SOL     OW43191   3.663   2.430   2.512  0.1577  0.6654 -0.3168
13050SOL    HW143192   3.631   2.450   2.424  1.6282  2.1288 -0.5591
13050SOL    HW243193   3.709   2.346   2.502  0.5835  0.9730 -1.0154
13051SOL     OW43194   0.088   3.185   3.127  0.2397  0.0846 -0.0900
13051SOL    HW143195   0.027   3.247   3.167 -0.9181 -0.5799 -0.7550
13051SOL    HW243196   0.039   3.147   3.054  0.7739 -1.8144  0.4638
13052SOL     OW43197   5.348   4.550   2.577  0.6924 -0.2938  0.0547
13052SOL    HW143198   5.384   4.632   2.543 -1.2822  1.3930  1.8097
13052SOL    HW243199   5.282   4.525   2.513  0.5663  0.0685  0.0400
13053SOL     OW43200   0.054   7.907   3.953  0.0505  0.3388  1.4328
13053SOL    HW143201   0.031   7.891   4.044  2.1546 -0.9578  1.8214
13053SOL    HW243202   0.056   8.002   3.945  0.3456  0.4798  2.8855
13054SOL     OW43203   9.447   3.267   9.353 -0.7288 -0.0081  0.3829
13054SOL    HW143204   9.377   3.215   9.313 -0.6438 -0.5167  0.8911
13054SOL    HW243205   9.484   3.211   9.421  1.9875 -0.8294 -1.6028
13055SOL     OW43206   2.295   9.462   7.515  0.5966 -0.0381  0.0307
13055SOL    HW143207   2.341   9.476   7.597  0.2331 -1.1152  0.4342
13055SOL    HW243208   2.330   9.380   7.481  1.7575  1.0605 -1.6229
13056SOL     OW43209   3.438   8.683   8.689  0.0751 -0.1254  0.2868
13056SOL    HW143210   3.495   8.741   8.741  0.8550 -0.7439  0.1482
13056SOL    HW243211   3.392   8.630   8.754  0.2582 -0.1648  0.3877
13057SOL     OW43212  10.112   5.121   5.061 -0.1562 -0.4170 -0.6055
13057SOL    HW143213  10.134   5.204   5.104 -1.4453 -0.3764  0.0342
13057SOL    HW243214  10.181   5.061   5.088 -0.0516  0.0517  0.2039
13058SOL     OW43215   9.828   4.493   2.595 -0.1920  0.0066 -0.2010
13058SOL    HW143216   9.792   4.556   2.658  1.1071  0.4939  0.0776
13058SOL    HW243217   9.863   4.547   2.524 -0.1390 -0.4618 -0.5355
13059SOL     OW43218   4.498   5.358   8.373 -0.0798  0.0294 -0.2952
13059SOL    HW143219   4.412   5.382   8.338  0.8417  0.2838 -2.5794
13059SOL    HW243220   4.560   5.396   8.311  1.7179  0.1550  1.4889
13060SOL     OW43221   9.162   1.422   5.787  0.2718  0.8940 -0.1390
13060SOL    HW143222   9.178   1.328   5.778 -1.5122  0.6072 -0.6611
13060SOL    HW243223   9.239   1.454   5.834  1.7220 -0.5217 -1.4026
13061SOL     OW43224   9.974   4.284   8.996 -0.2591  0.5727  0.1625
13061SOL    HW143225   9.914   4.316   9.064  0.4718  0.6177  0.8036
13061SOL    HW243226  10.048   4.247   9.045  0.3980  0.8269 -0.6158
13062SOL     OW43227   8.326   4.041   5.993  0.4014  0.2155  0.1059
13062SOL    HW143228   8.400   4.102   6.000  1.6063 -1.2661  0.8187
13062SOL    HW243229   8.365   3.959   5.965 -1.0345 -0.5302  0.2059
13063SOL     OW43230   8.962   6.037   7.546  0.4064 -0.4187  0.3063
13063SOL    HW143231   8.929   6.045   7.636  0.5514 -1.2614  0.4424
13063SOL    HW243232   8.884   6.040   7.491  0.3214  0.1755  0.4480
13064SOL     OW43233   3.844   4.135   4.054 -0.6101 -0.5602 -0.7699
13064SOL    HW143234   3.929   4.124   4.096  0.1612 -1.9448 -2.5662
13064SOL    HW243235   3.862   4.126   3.961 -2.4852  0.8454 -1.3212
13065SOL     OW43236   9.113   6.711   7.877 -0.3379  0.1627 -0.7176
13065SOL    HW143237   9.054   6.689   7.805  0.1812  0.0803 -1.1221
13065SOL    HW243238   9.071   6.673   7.954 -0.3930 -0.6363 -1.1257
13066SOL     OW43239   5.749   3.837   8.598  0.1154 -0.1375 -0.0004
13066SOL    HW143240   5.842   3.815   8.592 -0.2610 -1.6976 -0.4460
13066SOL    HW243241   5.717   3.790   8.675 -0.0944  1.2788  0.8121
13067SOL     OW43242   2.735   0.334   3.828  0.1429  0.0356 -0.5744
13067SOL    HW143243   2.749   0.421   3.790  1.6294 -0.8011 -2.0434
13067SOL    HW243244   2.815   0.317   3.878  0.0346 -0.6455 -0.6263
13068SOL     OW43245   0.468   6.723   1.537  0.4270 -0.4173  0.1127
13068SOL    HW143246   0.516   6.747   1.458  0.0584  0.4482  0.1414
13068SOL    HW243247   0.478   6.798   1.595 -0.3637 -0.5206  0.3944
13069SOL     OW43248   6.019   1.181   5.569  0.1822  0.3605 -0.5653
13069SOL    HW143249   6.114   1.178   5.581  0.1478  1.0665 -0.0948
13069SOL    HW243250   5.984   1.171   5.658 -0.2127 -0.7760 -0.8289
13070SOL     OW43251   5.059   2.486   1.854  0.9360  0.3573  0.3901
13070SOL    HW143252   5.071   2.509   1.762 -0.5870  0.0602  0.1021
13070SOL    HW243253   5.012   2.403   1.853  1.5290 -0.0141  1.4468
13071SOL     OW43254   0.058   0.625   6.230 -0.3936 -0.1672 -0.6722
13071SOL    HW143255   0.066   0.720   6.237 -3.0539  0.0937  0.0974
13071SOL    HW243256   0.083   0.605   6.140  1.7382  0.9918 -0.4194
13072SOL     OW43257   1.329   2.587   0.735 -0.3267  0.3047  0.0986
13072SOL    HW143258   1.308   2.570   0.827 -0.1859 -0.1377  0.0537
13072SOL    HW243259   1.399   2.652   0.737 -0.0681  0.0235  0.3199
13073SOL     OW43260   9.915   4.563   2.905 -0.3755 -0.0560 -0.1681
13073SOL    HW143261   9.971   4.512   2.846 -0.4192  0.9356 -1.0821
13073SOL    HW243262   9.827   4.550   2.872 -0.6034 -0.7721  0.6540
13074SOL     OW43263   6.599   6.753   5.451  0.1807 -0.1361 -0.5795
13074SOL    HW143264   6.582   6.795   5.535 -1.0671  1.0570 -1.3712
13074SOL    HW243265   6.676   6.799   5.416  0.0722  0.0825 -0.5328
13075SOL     OW43266   4.572   6.362   9.198 -0.1514 -0.6895 -0.3604
13075SOL    HW143267   4.518   6.320   9.265 -1.1243 -0.2305 -0.8399
13075SOL    HW243268   4.631   6.293   9.168  0.5603 -0.8047  1.2239
13076SOL     OW43269   8.831   8.286   2.673  0.5047  0.4534 -0.5818
13076SOL    HW143270   8.847   8.194   2.652 -0.0220  0.2088  0.0537
13076SOL    HW243271   8.831   8.330   2.589  1.4017 -0.0235 -0.8461
13077SOL     OW43272   1.024   8.519   6.211  0.0311 -0.0427 -0.3694
13077SOL    HW143273   0.994   8.512   6.121 -0.9666  0.2734 -0.0766
13077SOL    HW243274   1.105   8.570   6.207 -0.2403  0.3301 -1.0284
13078SOL     OW43275   4.236   1.017   0.074  0.3723  0.0815 -0.0881
13078SOL    HW143276   4.150   1.025   0.116 -0.3893  0.3169 -1.6231
13078SOL    HW243277   4.291   0.976   0.141 -0.7431  0.5584  1.1709
13079SOL     OW43278   9.857   2.022   2.094 -0.3761  0.6053  0.0196
13079SOL    HW143279   9.931   2.082   2.086 -0.0985  0.6437  2.2448
13079SOL    HW243280   9.779   2.078   2.088 -0.1825  0.8580 -0.1523
13080SOL     OW43281   1.616   7.881   2.363 -0.2512 -0.1836  0.0098
13080SOL    HW143282   1.639   7.970   2.390  0.7896 -0.6770  0.8386
13080SOL    HW243283   1.552   7.852   2.429  0.5377 -0.5649  0.6225
13081SOL     OW43284   4.353   1.223   8.845 -0.3114 -0.0924 -0.4160
13081SOL    HW143285   4.421   1.198   8.907 -0.2159  0.3279 -0.3495
13081SOL    HW243286   4.336   1.316   8.863 -0.0794  0.1164 -1.2014
13082SOL     OW43287   3.475   2.418   8.314  0.2680  0.1839 -0.2130
13082SOL    HW143288   3.464   2.508   8.285  0.6490  0.6950  1.1507
13082SOL    HW243289   3.548   2.422   8.377 -0.0845 -0.9739  0.2911
13083SOL     OW43290   9.193   5.511   6.459 -0.0167  0.1911 -0.7892
13083SOL    HW143291   9.216   5.601   6.484  0.9294 -0.1021 -0.5737
13083SOL    HW243292   9.254   5.456   6.509 -2.1081 -0.7161  0.9002
13084SOL     OW43293   3.045   6.903   4.729  0.0857  0.2929  0.4925
13084SOL    HW143294   2.989   6.885   4.804 -0.8860  0.8265 -0.0697
13084SOL    HW243295   3.089   6.985   4.751 -1.3482  1.2710 -0.1038
13085SOL     OW43296   0.126   2.117   1.131 -0.2152 -0.2312  0.1698
13085SOL    HW143297   0.197   2.158   1.081 -0.6092 -0.0150 -0.2187
13085SOL    HW243298   0.081   2.061   1.068 -1.2219  0.6748  0.0557
13086SOL     OW43299   7.765   2.384   4.451  0.0152  0.1026 -0.1614
13086SOL    HW143300   7.777   2.384   4.546  1.1419  1.9914 -0.2569
13086SOL    HW243301   7.816   2.309   4.420  0.1385 -0.1633  0.6655
13087SOL     OW43302   7.238   6.361   3.536  0.1762 -0.1785 -0.2324
13087SOL    HW143303   7.275   6.419   3.469  0.8632 -0.1069  0.1992
13087SOL    HW243304   7.314   6.318   3.574 -0.2412 -0.4721  0.2713
13088SOL     OW43305  10.175  10.237   2.145 -0.6097 -0.2711  0.7541
13088SOL    HW143306  10.195  10.216   2.053  3.5682  1.8143  0.9626
13088SOL    HW243307  10.156  10.152   2.184 -0.1549 -1.5550 -1.5755
13089SOL     OW43308   4.517   2.501   3.161  0.0498  0.1730  0.0238
13089SOL    HW143309   4.523   2.520   3.067  1.0942  0.0530  0.0545
13089SOL    HW243310   4.424   2.514   3.182 -0.2374 -0.0055 -1.0634
13090SOL     OW43311   3.244   5.357   4.925  0.2454 -0.1450  0.0922
13090SOL    HW143312   3.319   5.413   4.910  1.3812 -1.5472  0.3004
13090SOL    HW243313   3.184   5.375   4.852  1.6022 -0.3074 -1.0958
13091SOL     OW43314   9.673   5.588   2.374 -0.0771  1.0743  0.3122
13091SOL    HW143315   9.726   5.668   2.370  0.4559  0.7492  0.6626
13091SOL    HW243316   9.737   5.518   2.381 -0.3983  0.3481 -2.7598
13092SOL     OW43317  10.212   9.951   6.456  0.1669  0.5888 -0.6281
13092SOL    HW143318  10.236   9.887   6.523  0.9194 -0.4813 -1.8837
13092SOL    HW243319  10.283  10.015   6.459  0.9290 -0.2036 -1.3282
13093SOL     OW43320   8.176   0.254   3.891  0.2092 -0.5083  0.1835
13093SOL    HW143321   8.118   0.178   3.895  0.1870 -0.5004  0.0328
13093SOL    HW243322   8.174   0.281   3.799  0.8108 -0.7869  0.0791
13094SOL     OW43323   6.864   9.946   3.434 -0.2790 -0.0692  0.4376
13094SOL    HW143324   6.950   9.943   3.390 -1.9694 -1.0655 -3.1925
13094SOL    HW243325   6.858   9.863   3.480  0.0451 -0.8182 -0.8154
13095SOL     OW43326   3.300   0.781   7.815  0.3456  0.0174  0.1137
13095SOL    HW143327   3.370   0.835   7.777 -0.6075  0.7949 -0.5790
13095SOL    HW243328   3.240   0.844   7.855  0.4060 -0.6901  1.3633
13096SOL     OW43329   1.627   1.396   9.699  0.3158 -0.0354  0.6154
13096SOL    HW143330   1.586   1.311   9.688  0.7881 -0.3638  1.3493
13096SOL    HW243331   1.677   1.409   9.619 -0.3677 -0.0934  0.1662
13097SOL     OW43332   2.052   9.027   3.723  0.0476  0.0133  0.0830
13097SOL    HW143333   1.987   8.989   3.782 -1.3663  1.9739 -0.0826
13097SOL    HW243334   2.080   8.954   3.668 -0.6550 -1.2775  1.3603
13098SOL     OW43335   9.050   5.501   5.548  0.2059  0.4137  0.3615
13098SOL    HW143336   8.979   5.539   5.600  0.6806  1.1256  0.5147
13098SOL    HW243337   9.060   5.412   5.582 -0.7025  0.2496  0.2360
13099SOL     OW43338   3.138   5.721   5.610  0.1092 -0.7046  0.3701
13099SOL    HW143339   3.148   5.626   5.602 -0.2147 -0.8479  1.4522
13099SOL    HW243340   3.222   5.751   5.643  0.4133 -0.5236 -0.5394
13100SOL     OW43341   3.294   0.001   1.862 -0.4831  0.3762  0.7465
13100SOL    HW143342   3.256   0.088   1.872 -0.9463  0.4708 -1.4610
13100SOL    HW243343   3.387   0.013   1.884 -0.6605  1.2722  1.0565
13101SOL     OW43344   5.047   3.006   0.067  0.4928  0.0756 -0.2838
13101SOL    HW143345   5.013   3.084   0.109 -2.8411 -1.6604  0.5646
13101SOL    HW243346   5.118   2.977   0.124  0.7046  1.5557  0.2567
13102SOL     OW43347   9.978   3.888   4.854  0.1150  0.3300 -0.1356
13102SOL    HW143348   9.917   3.939   4.800  0.9269 -0.5224 -1.9481
13102SOL    HW243349  10.026   3.953   4.905 -1.0382  1.1252 -0.0116
13103SOL     OW43350   2.987   2.641   8.286 -0.1737 -0.3450  0.0425
13103SOL    HW143351   3.062   2.598   8.244 -0.7136 -0.5106 -0.7609
13103SOL    HW243352   3.000   2.625   8.380 -0.7343 -2.8830 -0.2618
13104SOL     OW43353   0.428   2.563   6.680  0.7138  0.1493  0.3091
13104SOL    HW143354   0.465   2.478   6.704  1.3597  0.2716 -0.2119
13104SOL    HW243355   0.353   2.574   6.737  2.8387  0.9529  3.2100
13105SOL     OW43356   7.952   3.993   8.232 -0.0046 -0.3077  0.2436
13105SOL    HW143357   7.981   3.913   8.189 -0.6796  0.1025 -1.0512
13105SOL    HW243358   7.943   4.056   8.160 -2.1832  0.1248  0.8253
13106SOL     OW43359   7.431   3.797   6.440 -0.4608  0.0692  0.1760
13106SOL    HW143360   7.439   3.732   6.510  0.8536 -0.0748 -0.0966
13106SOL    HW243361   7.510   3.850   6.447  0.0518 -0.4105 -1.6566
13107SOL     OW43362   9.309   3.291   3.561 -0.4642  0.1941 -0.6069
13107SOL    HW143363   9.221   3.254   3.563 -1.1450  1.5855  2.7271
13107SOL    HW243364   9.314   3.339   3.479 -1.3282 -2.9567 -2.6884
13108SOL     OW43365   5.029   2.489   0.896  0.0482  0.2841 -0.3139
13108SOL    HW143366   5.098   2.539   0.853  0.6653  0.2209  0.5717
13108SOL    HW243367   5.047   2.499   0.990 -1.5337  0.8171 -0.0370
13109SOL     OW43368   0.897   3.468   9.193  0.4862 -0.4193  0.2909
13109SOL    HW143369   0.874   3.532   9.261 -0.3661 -1.7155  1.2957
13109SOL    HW243370   0.898   3.518   9.112 -1.3857  0.6429  0.8628
13110SOL     OW43371   1.453   8.310   4.534 -0.0933  0.2358 -0.4645
13110SOL    HW143372   1.530   8.257   4.512 -1.5469 -2.2112 -0.0520
13110SOL    HW243373   1.382   8.271   4.484 -1.7173  0.1821  1.7164
13111SOL     OW43374   4.515   4.455  10.060  0.4028 -0.3798 -0.5777
13111SOL    HW143375   4.469   4.393  10.003  1.9329 -1.5049 -0.6483
13111SOL    HW243376   4.602   4.417  10.073  0.9668  1.1254  0.4402
13112SOL     OW43377   1.330   0.438   3.501  0.5669  0.5418 -0.0904
13112SOL    HW143378   1.381   0.358   3.487 -1.8000 -1.1925  0.4534
13112SOL    HW243379   1.326   0.448   3.596 -1.4100 -0.3678 -0.0177
13113SOL     OW43380   2.161   8.654   1.550  0.4263 -0.5311  0.1549
13113SOL    HW143381   2.145   8.736   1.503 -0.4295 -0.7581  0.0302
13113SOL    HW243382   2.251   8.631   1.528 -0.0875 -0.8814 -1.8123
13114SOL     OW43383   0.577   5.161   5.927  0.4225  0.4769  0.8075
13114SOL    HW143384   0.585   5.122   5.840 -1.6714 -1.1743  1.2657
13114SOL    HW243385   0.665   5.160   5.962  0.8335 -1.7346 -0.1336
13115SOL     OW43386   3.543   3.985   0.619  0.1243 -0.3917  0.1798
13115SOL    HW143387   3.537   3.901   0.574 -2.1301 -0.7590  1.0766
13115SOL    HW243388   3.593   4.040   0.559  1.0013 -2.1267 -0.7578
13116SOL     OW43389   8.396   7.687   2.394 -0.0575  0.5486 -0.2874
13116SOL    HW143390   8.309   7.649   2.382  0.3314  0.2151 -2.3294
13116SOL    HW243391   8.447   7.654   2.321  1.3796  1.9615  0.0248
13117SOL     OW43392   4.602   6.033   4.087 -0.3566 -0.1489 -0.2158
13117SOL    HW143393   4.591   6.120   4.125 -1.9339 -0.3680 -0.0984
13117SOL    HW243394   4.546   6.033   4.009 -0.1153 -0.9437 -0.4031
13118SOL     OW43395   6.436   6.514   6.919 -0.1565  0.2727 -0.3772
13118SOL    HW143396   6.440   6.608   6.901 -0.2446  0.8262  2.1206
13118SOL    HW243397   6.344   6.491   6.910 -0.4855  0.9302  0.9401
13119SOL     OW43398   6.121   1.898   4.943 -0.2018 -0.2673  0.4568
13119SOL    HW143399   6.135   1.806   4.920  0.7043  0.0508 -0.3453
13119SOL    HW243400   6.171   1.947   4.877 -1.7293  0.8472  0.0764
13120SOL     OW43401   5.781   5.067   6.063  0.1344 -0.6454  0.3443
13120SOL    HW143402   5.691   5.042   6.084 -1.1987  3.7744  0.7973
13120SOL    HW243403   5.805   5.131   6.129  2.6525  0.3164 -1.3294
13121SOL     OW43404   8.376   5.352  10.115  0.4038 -0.2813  0.4523
13121SOL    HW143405   8.421   5.418  10.061  1.0494 -1.0533  0.0236
13121SOL    HW243406   8.330   5.403  10.182  1.1725  0.5934  0.3379
13122SOL     OW43407   1.246   3.266   5.540  0.1273  0.5083  0.0087
13122SOL    HW143408   1.204   3.218   5.469  0.9888  0.4843 -0.4957
13122SOL    HW243409   1.248   3.357   5.510  1.0814  0.3952 -0.2956
13123SOL     OW43410   3.268   7.304   0.344 -0.3021  0.8522  0.6553
13123SOL    HW143411   3.259   7.217   0.382 -1.9496  0.9533  0.5518
13123SOL    HW243412   3.362   7.322   0.349  0.0910 -0.9694  0.5589
13124SOL     OW43413   7.028   5.970   9.242 -0.7331 -0.3462  0.2442
13124SOL    HW143414   7.099   5.924   9.286  0.2994  0.0947 -0.9120
13124SOL    HW243415   6.990   5.904   9.183 -1.0633 -0.4754  0.5919
13125SOL     OW43416   5.625   2.211   6.053  0.2539 -0.5035  0.8302
13125SOL    HW143417   5.564   2.146   6.018 -0.6203  0.6739  0.0958
13125SOL    HW243418   5.686   2.228   5.982  0.0223  0.0172  0.7487
13126SOL     OW43419   2.863   5.198   3.088 -0.6492  0.3327  0.2167
13126SOL    HW143420   2.925   5.268   3.067 -0.6680  0.3472  0.2097
13126SOL    HW243421   2.778   5.242   3.090 -0.8541  0.0630 -1.1828
13127SOL     OW43422   8.093   3.741   4.753  0.0572 -0.1860  0.2206
13127SOL    HW143423   8.141   3.811   4.798  0.1570  1.0450 -1.6515
13127SOL    HW243424   8.003   3.774   4.746 -0.1468 -0.7210  0.2669
13128SOL     OW43425   2.644   6.842   9.313 -0.2744 -0.2617  0.5021
13128SOL    HW143426   2.679   6.778   9.374 -2.1463  0.2956  2.2897
13128SOL    HW243427   2.607   6.911   9.369 -1.5086  0.6067 -1.2692
13129SOL     OW43428   1.293   4.321   7.876  0.1299  0.1602  0.4658
13129SOL    HW143429   1.223   4.365   7.827 -0.8478 -1.2143  0.5780
13129SOL    HW243430   1.358   4.298   7.810  0.9518  2.2340  0.4780
13130SOL     OW43431   2.750   4.361   3.688 -0.3116 -0.0044 -0.7117
13130SOL    HW143432   2.831   4.378   3.640  0.1230  1.0748  0.3586
13130SOL    HW243433   2.718   4.448   3.713 -0.7873 -0.5100  0.5101
13131SOL     OW43434   9.194   9.429   2.699  0.0531 -0.0921 -0.1849
13131SOL    HW143435   9.288   9.413   2.694  0.2373  1.1403 -1.3324
13131SOL    HW243436   9.177   9.448   2.791  1.3630  1.9396 -0.2929
13132SOL     OW43437   7.450   6.864   1.310  0.4017 -0.4784  0.2175
13132SOL    HW143438   7.463   6.872   1.404 -2.4298  0.6547  0.6057
13132SOL    HW243439   7.385   6.931   1.289  2.9271  1.2257 -3.0731
13133SOL     OW43440   3.410   3.279   1.734 -0.0201 -0.4250 -0.2392
13133SOL    HW143441   3.327   3.233   1.726  0.4179 -1.2780 -0.0453
13133SOL    HW243442   3.476   3.211   1.721  0.6642 -0.1308  1.4039
13134SOL     OW43443   6.245   4.705   5.477  0.4846  0.4185  0.2439
13134SOL    HW143444   6.178   4.644   5.506  1.9411 -2.2296 -1.5103
13134SOL    HW243445   6.277   4.746   5.558 -1.3167 -0.3184  1.3814
13135SOL     OW43446   4.828   9.334  10.164  0.5114 -0.0943  0.5681
13135SOL    HW143447   4.850   9.248  10.127  1.0046  0.5922 -0.8172
13135SOL    HW243448   4.754   9.364  10.112  1.1972  0.8860  0.1199
13136SOL     OW43449   5.518   3.252   9.386 -0.2014 -0.0794  0.0386
13136SOL    HW143450   5.529   3.339   9.423 -2.9724  0.7750 -0.8554
13136SOL    HW243451   5.474   3.202   9.456 -1.0331  0.0795 -0.3575
13137SOL     OW43452   9.367   4.546   3.476  0.2145  0.4653 -0.6582
13137SOL    HW143453   9.391   4.629   3.517 -0.8822  0.8066 -0.6508
13137SOL    HW243454   9.443   4.521   3.424  0.3459  1.7899 -1.1486
13138SOL     OW43455   6.168   5.920   6.468  0.6601 -0.6083  0.2725
13138SOL    HW143456   6.250   5.882   6.498  0.5437  0.9022  2.8383
13138SOL    HW243457   6.193   6.003   6.427  0.4889 -0.4182  0.5430
13139SOL     OW43458   9.845   5.744   4.536 -0.2758  0.3473 -0.1653
13139SOL    HW143459   9.921   5.744   4.479 -0.1925  2.3283 -0.1198
13139SOL    HW243460   9.870   5.687   4.609 -0.0546 -1.4941 -1.6265
13140SOL     OW43461   7.436   7.270   3.556 -0.2279  0.5572  0.4436
13140SOL    HW143462   7.515   7.296   3.603  0.4808  1.1504 -1.0241
13140SOL    HW243463   7.411   7.348   3.506 -0.2613 -0.4013 -1.0900
13141SOL     OW43464   4.593   5.463   5.980  0.4209  0.8616 -0.1791
13141SOL    HW143465   4.570   5.548   5.942  0.9780  0.8079 -0.6562
13141SOL    HW243466   4.638   5.417   5.909  0.7665  0.4466  0.3062
13142SOL     OW43467   8.708   1.792   5.166  0.3714  1.0717 -0.8896
13142SOL    HW143468   8.679   1.877   5.199 -2.1407  0.0031 -0.1660
13142SOL    HW243469   8.705   1.802   5.071  0.8652  2.0199 -0.8185
13143SOL     OW43470   6.795   5.725   8.045  0.5891  0.1960  0.2594
13143SOL    HW143471   6.864   5.791   8.055  1.6891 -0.0580 -3.9994
13143SOL    HW243472   6.753   5.746   7.962 -1.7078 -2.1958  0.6779
13144SOL     OW43473   0.165   0.600   7.759  0.1239  0.1331 -0.3725
13144SOL    HW143474   0.225   0.530   7.734  1.9828  1.3113  0.4888
13144SOL    HW243475   0.133   0.575   7.846  0.6669  0.2572 -0.1315
13145SOL     OW43476   3.455   6.235   1.636 -0.1564  0.0567 -0.1285
13145SOL    HW143477   3.441   6.329   1.630 -1.3859 -0.0967  0.2506
13145SOL    HW243478   3.461   6.216   1.730  3.4181  0.1822 -0.1653
13146SOL     OW43479   1.950   9.546  10.039 -0.0924 -1.0545 -0.5617
13146SOL    HW143480   1.874   9.571  10.091  0.0856  1.5134 -1.3787
13146SOL    HW243481   1.919   9.479   9.980 -1.9146  0.3094 -1.2337
13147SOL     OW43482   9.913   3.364   3.579 -0.1090 -0.2714 -0.0895
13147SOL    HW143483   9.911   3.344   3.673 -1.0584  1.8860  0.4299
13147SOL    HW243484   9.841   3.426   3.566  0.8904  0.6087 -1.9534
13148SOL     OW43485   3.549   8.957   8.063 -0.7430 -0.4306  0.1103
13148SOL    HW143486   3.501   8.909   8.130 -0.1654 -1.3406 -0.1087
13148SOL    HW243487   3.638   8.922   8.067 -0.5577 -0.0950 -0.7475
13149SOL     OW43488   9.033   7.960   1.070  0.0614 -0.1872 -0.1777
13149SOL    HW143489   9.127   7.975   1.077  0.1872 -1.2948  0.8505
13149SOL    HW243490   9.015   7.968   0.977  0.7266  2.3596 -0.1857
13150SOL     OW43491   2.808   0.145   5.858 -0.4552 -0.4580 -0.0344
13150SOL    HW143492   2.717   0.160   5.884  0.2906  1.2198  1.9122
13150SOL    HW243493   2.811   0.053   5.833 -3.0838 -0.1092 -2.0945
13151SOL     OW43494   1.673   1.141   2.160  0.2575  0.5384 -0.2880
13151SOL    HW143495   1.708   1.054   2.182  0.2965 -0.0135 -2.3699
13151SOL    HW243496   1.676   1.189   2.243 -1.3597 -1.9647  1.3391
13152SOL     OW43497   4.971   6.518   9.246  0.0802 -0.2281  0.3474
13152SOL    HW143498   4.888   6.495   9.287 -0.5033 -1.4517 -1.3885
13152SOL    HW243499   4.975   6.462   9.169  1.3763  1.5619 -0.9504
13153SOL     OW43500   9.122   7.583   4.103  0.4262  0.1037 -0.1333
13153SOL    HW143501   9.096   7.513   4.043  1.1749 -0.4271  0.1486
13153SOL    HW243502   9.039   7.625   4.127 -0.0729 -0.8312 -0.1395
13154SOL     OW43503   3.793   3.070   7.930 -0.2778 -0.5862  0.1202
13154SOL    HW143504   3.701   3.086   7.906 -0.4388 -0.1752  0.9650
13154SOL    HW243505   3.795   2.979   7.958 -0.5632 -0.4354  0.6569
13155SOL     OW43506   7.079   1.796   4.998 -0.2425 -0.1693  0.6717
13155SOL    HW143507   7.127   1.822   4.919  1.8121 -1.2448  1.4927
13155SOL    HW243508   6.987   1.810   4.976  0.2938 -0.0381 -1.7599
13156SOL     OW43509   2.761   7.374   7.373  0.1118 -0.6455  0.4580
13156SOL    HW143510   2.702   7.356   7.300 -1.8157  1.2048  1.4356
13156SOL    HW243511   2.791   7.288   7.402  0.4902 -1.4417 -2.1159
13157SOL     OW43512   5.117   9.453   9.485  0.0376  0.5205 -0.0245
13157SOL    HW143513   5.202   9.454   9.441 -0.0544  1.5157 -0.2005
13157SOL    HW243514   5.063   9.514   9.435 -0.7238  0.0537  0.2060
13158SOL     OW43515   4.887   1.010   5.488 -0.6047 -0.2958  0.3303
13158SOL    HW143516   4.793   0.995   5.479 -0.3883 -2.7200  1.4020
13158SOL    HW243517   4.928   0.937   5.441  0.8277  1.2645 -1.0092
13159SOL     OW43518   2.067   7.526   5.942 -0.4858 -0.0330 -0.2736
13159SOL    HW143519   2.095   7.488   5.859 -0.4624 -1.4882  0.3646
13159SOL    HW243520   2.146   7.570   5.976 -0.3764  0.1903 -0.8098
13160SOL     OW43521   6.735   3.020   2.779 -0.2512  0.4504  0.0037
13160SOL    HW143522   6.750   2.935   2.737 -0.3232 -0.3382  1.4930
13160SOL    HW243523   6.664   3.059   2.729 -0.9539 -0.8454 -0.0577
13161SOL     OW43524   5.950   9.659   5.652  0.5147  0.1376  0.8313
13161SOL    HW143525   5.909   9.632   5.735  1.2144  1.7209  1.7522
13161SOL    HW243526   6.015   9.592   5.634  0.1833 -0.3623  1.4418
13162SOL     OW43527   4.561   9.100   0.846 -0.1794  0.1828 -0.0210
13162SOL    HW143528   4.632   9.115   0.909 -2.1240  2.5651  1.8087
13162SOL    HW243529   4.583   9.157   0.772  0.6629 -0.4282 -0.2566
13163SOL     OW43530   0.777   1.127   6.799  0.5735 -0.1150 -0.7182
13163SOL    HW143531   0.764   1.209   6.752  3.0240  0.6530 -0.1985
13163SOL    HW243532   0.736   1.061   6.743  0.0929  1.2326 -2.0316
13164SOL     OW43533   1.533   2.271   3.093  0.0286 -0.3992  0.8071
13164SOL    HW143534   1.452   2.320   3.101 -0.9449 -1.7333 -0.2816
13164SOL    HW243535   1.506   2.179   3.098  1.7982 -0.8959  2.9986
13165SOL     OW43536   2.091   7.404   9.483 -0.0551 -0.2823  0.2649
13165SOL    HW143537   2.128   7.354   9.410 -0.6218 -0.2525 -0.0557
13165SOL    HW243538   2.058   7.484   9.443  0.3134  0.0796  0.6838
13166SOL     OW43539   8.855   9.711   8.562  0.2606  0.3046 -0.3580
13166SOL    HW143540   8.781   9.758   8.598  0.9384 -0.3185  1.9935
13166SOL    HW243541   8.910   9.779   8.523 -0.1559  1.1147  0.4507
13167SOL     OW43542   3.076   5.857   5.253  0.9671 -0.2974 -0.3518
13167SOL    HW143543   3.023   5.925   5.212  2.1121 -0.4859 -2.2738
13167SOL    HW243544   3.042   5.775   5.217 -0.0863 -0.7655  1.5739
13168SOL     OW43545   0.026   7.045   0.590 -0.1454  0.2124  0.2595
13168SOL    HW143546   0.032   6.956   0.625  0.7999  0.2987  0.3339
13168SOL    HW243547   0.100   7.092   0.629 -0.3052  0.8842 -0.2215
13169SOL     OW43548   8.048   9.375   6.431  0.3818  0.8206 -0.1686
13169SOL    HW143549   8.000   9.293   6.426  2.4411 -0.4630 -0.1971
13169SOL    HW243550   8.029   9.419   6.348 -0.8754  0.4629 -0.0868
13170SOL     OW43551   8.854   8.311   3.321 -0.3797  0.4400  0.3949
13170SOL    HW143552   8.934   8.332   3.273  0.5171  2.8089  2.6675
13170SOL    HW243553   8.790   8.374   3.288 -1.3243 -1.2921 -1.2450
13171SOL     OW43554   9.689   5.175   3.972  1.4973 -0.1457 -0.0874
13171SOL    HW143555   9.708   5.207   3.884  1.5704  1.2161  0.4094
13171SOL    HW243556   9.775   5.160   4.011  1.4705 -0.1155 -0.0160
13172SOL     OW43557   7.483   9.941   3.136  0.1367  0.2343 -0.1191
13172SOL    HW143558   7.546   9.868   3.132 -0.1180  0.0387 -0.6482
13172SOL    HW243559   7.462   9.959   3.045 -0.9039  0.0162  0.0722
13173SOL     OW43560   6.092   2.849  10.160 -0.6067 -0.0608 -0.0395
13173SOL    HW143561   6.173   2.800  10.153 -1.3630 -1.6637  1.4716
13173SOL    HW243562   6.119   2.940  10.168  0.9224 -0.3479 -1.4653
13174SOL     OW43563   8.653   9.623   9.264  0.7856  0.4123  0.1284
13174SOL    HW143564   8.584   9.603   9.201 -0.2676  0.8083  1.1145
13174SOL    HW243565   8.679   9.538   9.300  1.9614  0.0940 -1.3581
13175SOL     OW43566   5.853   4.131   6.426  0.1011 -0.4679  0.1451
13175SOL    HW143567   5.796   4.201   6.457  0.8692  0.2053  0.0819
13175SOL    HW243568   5.885   4.088   6.505 -1.8567 -2.0212  0.1680
13176SOL     OW43569   5.936   9.798   9.670  0.1136 -0.1221 -0.2684
13176SOL    HW143570   6.030   9.810   9.661 -0.0741  1.4211 -0.4451
13176SOL    HW243571   5.899   9.843   9.594 -0.7258 -1.8976 -0.9651
13177SOL     OW43572   7.441   1.691   9.604 -0.3261  0.2645 -0.2629
13177SOL    HW143573   7.483   1.744   9.535 -0.2195 -1.1419 -1.3414
13177SOL    HW243574   7.347   1.702   9.588 -0.3057 -0.9021 -1.3669
13178SOL     OW43575   8.970   3.770   4.372  0.2223 -0.0138 -0.3216
13178SOL    HW143576   9.043   3.828   4.350  0.3903 -0.1835 -0.2114
13178SOL    HW243577   8.896   3.829   4.384  0.1863  0.1029 -1.0876
13179SOL     OW43578   0.186   3.159   2.538 -0.0463 -0.5335  0.6675
13179SOL    HW143579   0.105   3.207   2.521  1.0316  0.7134 -1.1806
13179SOL    HW243580   0.239   3.217   2.592 -0.1684 -1.1585  1.4844
13180SOL     OW43581   3.416   0.109   2.255  0.5878 -0.7520  0.1625
13180SOL    HW143582   3.354   0.039   2.275  0.0266 -0.4898 -0.6027
13180SOL    HW243583   3.497   0.084   2.299 -0.4936 -0.3141  2.5519
13181SOL     OW43584   6.469   8.631   3.903 -0.6668 -0.3647  0.9217
13181SOL    HW143585   6.461   8.709   3.957  0.1068 -0.1357  0.7207
13181SOL    HW243586   6.556   8.638   3.863 -0.6531 -1.2434  0.7742
13182SOL     OW43587   1.097   4.245   8.779  0.4437 -0.9391  0.0732
13182SOL    HW143588   1.129   4.170   8.729  1.9614 -0.7232  0.6847
13182SOL    HW243589   1.171   4.271   8.833  0.2831  1.6182 -0.8185
13183SOL     OW43590   9.669   8.545   7.703  0.1528  0.1622 -0.5446
13183SOL    HW143591   9.756   8.535   7.743 -0.1485 -0.7503 -0.0959
13183SOL    HW243592   9.615   8.585   7.771 -0.0602 -0.3066 -0.4345
13184SOL     OW43593   0.523   4.720   2.845 -0.1983 -0.3605  0.1541
13184SOL    HW143594   0.588   4.766   2.898 -0.5506 -1.3068  1.4503
13184SOL    HW243595   0.450   4.704   2.905 -0.8026 -1.0573 -0.7375
13185SOL     OW43596   9.726   4.656   8.305 -0.1278 -0.4974 -0.8782
13185SOL    HW143597   9.644   4.705   8.304  0.9715  1.4748  0.5019
13185SOL    HW243598   9.774   4.686   8.228  0.5613  0.6876 -0.0125
13186SOL     OW43599   2.630   5.346   3.075 -0.5729 -0.4528 -0.6436
13186SOL    HW143600   2.612   5.280   3.008 -0.0373 -0.3034 -0.9383
13186SOL    HW243601   2.610   5.429   3.032 -1.1238 -0.4135 -0.3143
13187SOL     OW43602   1.132   6.248   7.795  0.5525 -0.0489 -0.2362
13187SOL    HW143603   1.041   6.258   7.822  0.5185  0.8460 -0.6593
13187SOL    HW243604   1.129   6.183   7.724  0.2189  0.1257 -0.3815
13188SOL     OW43605   8.739   1.895   4.043  0.0831  0.2959  0.3469
13188SOL    HW143606   8.685   1.970   4.067  0.6669  0.7586  0.2453
13188SOL    HW243607   8.776   1.919   3.957  1.5317  0.5953  1.0278
13189SOL     OW43608   2.044   2.621   5.831 -0.0202  0.7723  0.4026
13189SOL    HW143609   2.136   2.640   5.849 -0.2530  1.6438  0.7147
13189SOL    HW243610   2.028   2.660   5.745 -0.0110  0.3030  0.1831
13190SOL     OW43611   6.589   7.656   9.749  0.1537  0.3033  0.1649
13190SOL    HW143612   6.522   7.594   9.779 -0.2584  0.8208  0.3284
13190SOL    HW243613   6.574   7.662   9.654 -0.1442  0.5478  0.2261
13191SOL     OW43614   2.880   4.842   3.383  0.1405 -0.1774 -0.3202
13191SOL    HW143615   2.873   4.844   3.479 -0.2893 -0.4311 -0.3414
13191SOL    HW243616   2.928   4.921   3.360  1.8165 -0.9861  0.2361
13192SOL     OW43617   7.478   0.021   5.984  0.3555 -0.1278  0.3755
13192SOL    HW143618   7.421   0.098   5.983  0.6045  0.1171  1.8671
13192SOL    HW243619   7.504   0.009   5.893  0.3344  1.5906  0.1024
13193SOL     OW43620   3.602   2.469   5.651  0.1246  0.2981  0.2400
13193SOL    HW143621   3.686   2.485   5.695  0.4327 -1.0580  0.1884
13193SOL    HW243622   3.621   2.481   5.558  0.1127  0.5759  0.2722
13194SOL     OW43623   6.576   8.780   4.201 -0.5718 -0.1847  0.4698
13194SOL    HW143624   6.487   8.758   4.228 -0.7619  0.1650  0.1246
13194SOL    HW243625   6.619   8.695   4.187 -0.2610 -0.4214  2.5087
13195SOL     OW43626   2.739   7.447   0.928 -0.0315 -0.1066  0.2330
13195SOL    HW143627   2.677   7.486   0.990 -0.0130 -0.0534  0.2181
13195SOL    HW243628   2.686   7.385   0.877 -0.6489  1.7680 -1.5102
13196SOL     OW43629   0.654   4.351   5.735 -0.6466 -0.2730 -0.0670
13196SOL    HW143630   0.607   4.271   5.757  0.0537 -0.8823 -0.7476
13196SOL    HW243631   0.587   4.420   5.740 -0.8535 -0.5826  2.3440
13197SOL     OW43632   7.021   2.240   8.030  0.1583 -0.0465 -0.2775
13197SOL    HW143633   7.048   2.330   8.013 -0.1447 -0.1823 -1.5170
13197SOL    HW243634   7.103   2.196   8.055 -0.0514  1.1045  3.0147
13198SOL     OW43635   7.819   0.506   1.304 -0.5725  0.7497 -0.6776
13198SOL    HW143636   7.791   0.566   1.372 -1.6670 -0.1219 -0.3245
13198SOL    HW243637   7.842   0.425   1.351  0.6375  0.7974 -1.1575
13199SOL     OW43638   0.260   6.636   1.389 -0.7725  0.0459 -0.4715
13199SOL    HW143639   0.287   6.662   1.301  1.3386  0.1461  0.1604
13199SOL    HW243640   0.321   6.680   1.447 -1.8044 -0.4347  1.0358
13200SOL     OW43641   5.010   6.982   3.693 -0.0360  0.4205  0.0428
13200SOL    HW143642   5.057   6.948   3.616 -0.0759  1.7967 -0.6171
13200SOL    HW243643   4.964   6.906   3.728  2.8964 -1.1003  0.9264
13201SOL     OW43644   7.509   1.182   0.822  0.2977 -0.0024 -0.3162
13201SOL    HW143645   7.488   1.097   0.859 -0.4530 -0.2887 -1.3535
13201SOL    HW243646   7.469   1.246   0.881 -0.4466 -0.4285 -0.3495
13202SOL     OW43647   0.802   7.762   0.396 -0.4228 -0.0707  0.0151
13202SOL    HW143648   0.761   7.726   0.475  1.3512 -0.3151  0.8749
13202SOL    HW243649   0.850   7.839   0.426  0.2060 -0.1072 -0.8357
13203SOL     OW43650   4.888   6.227   2.714  0.4692 -0.3029 -0.2134
13203SOL    HW143651   4.957   6.292   2.728 -0.2804  0.9906 -1.9638
13203SOL    HW243652   4.890   6.211   2.619 -2.4677  0.8845 -0.6019
13204SOL     OW43653   1.132   0.435   4.912  0.5038 -0.3855  0.2812
13204SOL    HW143654   1.157   0.395   4.828  0.6124 -0.6774  0.4530
13204SOL    HW243655   1.195   0.507   4.924 -0.5538  0.7616 -0.7201
13205SOL     OW43656   9.070   2.749   4.646 -0.2665 -0.3730  0.5463
13205SOL    HW143657   9.104   2.660   4.634  0.5314 -0.2340  1.5913
13205SOL    HW243658   9.083   2.767   4.739 -2.2489  0.1082  0.7770
13206SOL     OW43659   4.645   3.435   4.151 -0.2272  0.0918 -0.2174
13206SOL    HW143660   4.724   3.415   4.101  0.5654  1.9074  0.2356
13206SOL    HW243661   4.674   3.499   4.217 -1.1256 -2.3403  2.8022
13207SOL     OW43662   4.269   1.814   2.572  0.7320  0.2774  0.0451
13207SOL    HW143663   4.219   1.772   2.642 -0.9741 -0.2147 -1.3899
13207SOL    HW243664   4.360   1.810   2.602  0.5011 -3.0191  0.7302
13208SOL     OW43665   2.977   6.176   1.213 -0.1415 -0.1664  0.0465
13208SOL    HW143666   3.016   6.208   1.132 -1.4243 -1.9872 -1.4099
13208SOL    HW243667   2.926   6.250   1.246 -0.9977  0.1308 -1.7938
13209SOL     OW43668   0.723   5.884   2.003 -0.0697  0.1625  0.3096
13209SOL    HW143669   0.771   5.834   1.938 -1.0119  0.6264 -0.7693
13209SOL    HW243670   0.782   5.889   2.078  0.9194 -0.6246 -0.3973
13210SOL     OW43671   2.546   6.201   2.549  0.0415  0.1116  0.2058
13210SOL    HW143672   2.630   6.178   2.589  0.0699  0.1907  0.1917
13210SOL    HW243673   2.513   6.118   2.515  1.0715  0.3953 -1.6173
13211SOL     OW43674   5.775   7.521   5.999 -0.2389  1.1395  0.3089
13211SOL    HW143675   5.757   7.615   5.994  0.8207  1.2938 -1.8956
13211SOL    HW243676   5.689   7.479   5.999 -0.6997  2.0637 -0.5009
13212SOL     OW43677   7.925   5.158  10.100  0.4485 -0.2557  0.2125
13212SOL    HW143678   8.002   5.104  10.078  0.2574  0.2057 -1.7989
13212SOL    HW243679   7.932   5.233  10.041 -1.2631  0.0598  0.3868
13213SOL     OW43680   1.435   7.070   8.159  0.2292  0.6320  0.6627
13213SOL    HW143681   1.399   6.989   8.122  0.0339  0.9267  0.2089
13213SOL    HW243682   1.364   7.133   8.154  0.8769  1.2967 -0.4737
13214SOL     OW43683   7.525   1.939   3.766  1.0803 -0.4025 -0.1663
13214SOL    HW143684   7.476   2.020   3.755  2.4882  0.6383  0.8194
13214SOL    HW243685   7.459   1.870   3.764 -0.0002  0.5672 -2.7303
13215SOL     OW43686   7.907   8.206   7.564 -0.4650 -0.9607  0.1699
13215SOL    HW143687   7.906   8.197   7.469  0.1705  1.2840 -0.1051
13215SOL    HW243688   7.834   8.264   7.583 -0.8982 -1.7901  1.1358
13216SOL     OW43689   1.053   0.647   3.125 -0.1026 -0.3401  0.3198
13216SOL    HW143690   0.961   0.620   3.128  0.0618 -1.2872 -1.7378
13216SOL    HW243691   1.050   0.741   3.138 -1.6033 -0.0398 -1.6348
13217SOL     OW43692   9.290   2.751   1.656  0.0514  0.4828  0.1153
13217SOL    HW143693   9.286   2.704   1.573 -1.5541  0.9349 -0.0966
13217SOL    HW243694   9.345   2.696   1.712 -0.3375 -0.7412 -0.6603
13218SOL     OW43695   0.128   1.721   4.118  0.3018 -0.0813  0.1621
13218SOL    HW143696   0.140   1.762   4.032  0.0648  1.0746  0.6693
13218SOL    HW243697   0.189   1.647   4.117 -0.9837 -1.2200 -1.6885
13219SOL     OW43698   4.807   2.154   5.935  0.1184 -0.2508 -0.1230
13219SOL    HW143699   4.827   2.076   5.885  1.5306  0.3180 -0.4733
13219SOL    HW243700   4.828   2.131   6.026 -1.4498 -0.9341  0.0999
13220SOL     OW43701   0.706   1.768   0.700 -0.1499  0.8490 -0.2622
13220SOL    HW143702   0.699   1.675   0.680  1.5115  0.0964  2.1833
13220SOL    HW243703   0.632   1.808   0.655 -1.3676 -1.7602 -0.7603
13221SOL     OW43704   6.637   4.722   6.812  0.6056  0.0909 -0.3874
13221SOL    HW143705   6.699   4.650   6.802  0.0443 -0.2695 -1.5227
13221SOL    HW243706   6.569   4.704   6.747  0.5357  1.7327 -0.8178
13222SOL     OW43707   1.212   2.661   0.024  0.3939  0.5667  0.3894
13222SOL    HW143708   1.159   2.727  -0.020  0.1728  0.9813  1.2710
13222SOL    HW243709   1.161   2.580   0.014 -0.3085  0.9173  1.0374
13223SOL     OW43710   5.927   7.164   3.960  0.0127  0.4143  0.1905
13223SOL    HW143711   5.914   7.097   4.027  0.4149  0.4250  0.2802
13223SOL    HW243712   5.934   7.114   3.878  0.1878  0.3580  0.2408
13224SOL     OW43713   5.507   1.027   9.523 -0.3039 -0.4495  0.4882
13224SOL    HW143714   5.528   1.092   9.590  2.0396 -1.4493  0.8528
13224SOL    HW243715   5.571   1.044   9.453 -1.2520 -0.8403 -0.4977
13225SOL     OW43716   3.768   8.981   1.179 -0.2680 -0.2013 -0.7190
13225SOL    HW143717   3.799   8.904   1.132  0.9299  0.2884 -0.7740
13225SOL    HW243718   3.785   8.961   1.271  0.9623  0.3527 -0.7973
13226SOL     OW43719   0.196   8.930   2.152 -0.0394 -0.6108  0.4601
13226SOL    HW143720   0.159   8.846   2.181  2.1390 -0.9953  2.4158
13226SOL    HW243721   0.279   8.937   2.199  1.0605  1.4783 -1.5916
13227SOL     OW43722  10.104   3.453   2.742 -0.0495 -0.2599  0.2986
13227SOL    HW143723  10.081   3.546   2.751  0.6052 -0.1662  1.0968
13227SOL    HW243724  10.057   3.410   2.813 -1.2246 -0.7190 -0.7224
13228SOL     OW43725   6.430   6.654   6.161  0.1941 -0.3691 -0.1074
13228SOL    HW143726   6.518   6.623   6.138  0.1525 -0.9235  0.4713
13228SOL    HW243727   6.422   6.637   6.254 -1.8697 -3.8263 -0.7258
13229SOL     OW43728   0.716   4.957   4.235 -0.0871 -0.7773  0.2096
13229SOL    HW143729   0.659   4.907   4.176  0.5146 -0.8532 -0.3133
13229SOL    HW243730   0.794   4.975   4.184 -0.0414  0.1894  0.5941
13230SOL     OW43731   2.869   2.612   1.919 -0.0083  0.3378  0.0494
13230SOL    HW143732   2.860   2.701   1.952  2.6459  0.2023  1.3636
13230SOL    HW243733   2.837   2.557   1.991  0.7390  0.1778  0.2656
13231SOL     OW43734   7.363   4.802   2.663 -0.2801  0.2719 -0.2017
13231SOL    HW143735   7.439   4.761   2.623  0.1743 -1.2513  2.0240
13231SOL    HW243736   7.394   4.888   2.693  0.3877 -0.0717  0.1014
13232SOL     OW43737   6.080   7.345   3.213  0.2497  0.0142 -0.3088
13232SOL    HW143738   6.026   7.327   3.136  0.3468 -0.1750 -0.3327
13232SOL    HW243739   6.109   7.436   3.201 -0.1114  0.1356 -0.2645
13233SOL     OW43740   1.073   4.108   6.067  0.4661  0.4008 -0.4682
13233SOL    HW143741   1.038   4.039   6.011  0.0683  0.4752 -0.3137
13233SOL    HW243742   1.103   4.175   6.005 -0.4331  0.7052 -0.5936
13234SOL     OW43743   5.872   5.125   1.255  0.7131 -0.7887 -0.5946
13234SOL    HW143744   5.877   5.087   1.167 -0.8072 -1.1356 -0.5552
13234SOL    HW243745   5.933   5.199   1.252  1.5781 -1.5041 -1.5573
13235SOL     OW43746   1.071   8.864   5.267  0.0412 -0.3465 -0.5597
13235SOL    HW143747   1.132   8.937   5.282 -0.0432 -0.5791  1.1034
13235SOL    HW243748   1.126   8.786   5.270 -0.3095 -0.5671  1.0794
13236SOL     OW43749   6.136   0.857   4.622 -0.4327  0.1120 -0.6314
13236SOL    HW143750   6.063   0.796   4.632  0.8902 -1.6987 -1.5642
13236SOL    HW243751   6.108   0.915   4.551 -2.0061  1.1555  0.7505
13237SOL     OW43752   0.633   1.428   9.015  0.6747 -0.2927  0.0179
13237SOL    HW143753   0.593   1.350   9.053  3.3819 -1.6427  0.3724
13237SOL    HW243754   0.631   1.413   8.921  0.0109 -0.1278 -0.0018
13238SOL     OW43755   5.757   1.381   4.221  0.4552 -0.6219  0.1652
13238SOL    HW143756   5.684   1.399   4.161 -0.0778 -0.7920  0.7456
13238SOL    HW243757   5.820   1.451   4.203 -0.7777  0.8088  1.0986
13239SOL     OW43758   8.108   9.401   2.706 -0.7531 -0.1993 -0.2076
13239SOL    HW143759   8.105   9.377   2.799 -0.9831 -0.2365 -0.2232
13239SOL    HW243760   8.055   9.334   2.663  1.7980 -2.0071 -0.7746
13240SOL     OW43761   8.981   1.543   0.070 -0.5383 -0.1345 -0.2452
13240SOL    HW143762   8.906   1.483   0.072 -0.8536  0.2725  0.5505
13240SOL    HW243763   8.944   1.628   0.097  0.0602  0.2424 -0.5908
13241SOL     OW43764   5.718   8.095   5.533 -0.0358 -0.2474  0.0214
13241SOL    HW143765   5.647   8.159   5.536  0.1802  0.0039 -0.2641
13241SOL    HW243766   5.798   8.147   5.531  0.1239 -0.5075 -0.8924
13242SOL     OW43767   1.272   5.261   9.131 -0.3878  0.0327  0.0642
13242SOL    HW143768   1.275   5.351   9.164 -3.3979  0.4481 -0.5020
13242SOL    HW243769   1.364   5.235   9.125  0.6643  3.3508 -0.5102
13243SOL     OW43770   6.020   3.741   6.254 -0.1985  0.2702  0.7589
13243SOL    HW143771   6.047   3.809   6.192  2.1993 -0.1759  1.2210
13243SOL    HW243772   5.945   3.698   6.212  0.7770  0.5576 -1.4069
13244SOL     OW43773   0.533  10.281   9.027 -0.1766  0.6106  0.5770
13244SOL    HW143774   0.564  10.192   9.006 -1.1857  0.7505 -1.9130
13244SOL    HW243775   0.503  10.275   9.117  4.6005 -0.1546  2.4139
13245SOL     OW43776   4.669   8.882   3.373  0.5530 -1.3669  0.6570
13245SOL    HW143777   4.631   8.805   3.415  0.9624 -1.2620  1.2422
13245SOL    HW243778   4.605   8.951   3.387  0.2672 -1.5503  0.2889
13246SOL     OW43779   7.758   5.232   9.653  0.4114  0.2663 -0.0752
13246SOL    HW143780   7.748   5.162   9.588 -1.4659  0.0911  0.3450
13246SOL    HW243781   7.682   5.222   9.711  1.0224  1.6100  1.0065
13247SOL     OW43782   6.027   6.869   0.490 -0.0305 -0.2668  0.1069
13247SOL    HW143783   5.934   6.890   0.480 -0.2093 -1.6177 -1.6119
13247SOL    HW243784   6.071   6.928   0.428  0.5092  1.6218  2.1750
13248SOL     OW43785   4.802   2.061   2.058 -0.3946  0.4887 -0.2577
13248SOL    HW143786   4.852   2.012   2.123 -1.5765 -0.2680  0.1220
13248SOL    HW243787   4.754   2.126   2.110  0.5993  1.5970 -0.6790
13249SOL     OW43788   4.308   9.502   8.145 -0.4071  0.1973  0.6402
13249SOL    HW143789   4.243   9.480   8.079  0.7262 -1.6797  0.0508
13249SOL    HW243790   4.266   9.568   8.200 -2.4123 -0.2369 -0.2858
13250SOL     OW43791   6.258   8.618   8.763 -0.0982 -0.1181 -0.1780
13250SOL    HW143792   6.201   8.683   8.803 -0.3324 -0.3859 -0.0762
13250SOL    HW243793   6.198   8.561   8.715  0.2284  0.6221 -1.5208
13251SOL     OW43794   9.185   7.320   7.713  0.2039 -0.3076  0.2135
13251SOL    HW143795   9.260   7.267   7.685 -0.0399 -0.4181 -0.2359
13251SOL    HW243796   9.197   7.404   7.668  0.3719 -0.1174  0.6072
13252SOL     OW43797   7.072   2.556   0.441  0.4961  0.3642  0.6748
13252SOL    HW143798   7.079   2.469   0.482  0.0834  0.2389  0.4819
13252SOL    HW243799   6.987   2.589   0.470  1.6908  1.7730  2.8100
13253SOL     OW43800   1.007   4.137   3.762 -0.1812  0.1422 -0.1348
13253SOL    HW143801   1.041   4.048   3.773 -1.2483 -0.7222 -2.8049
13253SOL    HW243802   1.084   4.191   3.746  0.3233 -0.9879 -1.8168
13254SOL     OW43803   8.068   6.176   3.117 -0.3966  0.2617 -0.4155
13254SOL    HW143804   8.120   6.241   3.071 -1.2102 -0.1783 -2.0183
13254SOL    HW243805   7.986   6.220   3.137 -0.6083  0.0121 -0.7165
13255SOL     OW43806   6.845   9.607   5.985  0.0831  0.2376 -0.0446
13255SOL    HW143807   6.776   9.663   5.949 -0.0067 -0.1880 -0.5525
13255SOL    HW243808   6.805   9.519   5.989  0.9885 -0.2784 -1.5607
13256SOL     OW43809   3.247   7.350   8.241 -0.1838 -0.2813  0.3604
13256SOL    HW143810   3.161   7.386   8.262 -0.0057  0.0683  0.5040
13256SOL    HW243811   3.276   7.400   8.165  0.1120 -0.0428  0.6253
13257SOL     OW43812   9.868   3.132   0.523 -0.1561 -0.0203 -0.0303
13257SOL    HW143813   9.899   3.077   0.595 -1.5442  1.0325  1.4389
13257SOL    HW243814   9.923   3.210   0.527 -0.0997 -0.0481 -0.2446
13258SOL     OW43815   5.863   2.325   1.675  0.2700  0.1119  0.7516
13258SOL    HW143816   5.835   2.252   1.730 -0.4033 -1.0688 -1.0866
13258SOL    HW243817   5.942   2.358   1.718  0.5138 -1.6035  1.6967
13259SOL     OW43818   1.173   8.702   8.759 -0.0269  0.0761 -0.2187
13259SOL    HW143819   1.081   8.728   8.764 -1.0166 -2.8666 -0.8483
13259SOL    HW243820   1.192   8.666   8.845  0.4256  0.3663 -0.1974
13260SOL     OW43821   6.899   9.502   6.806  0.4147 -0.5413 -0.7020
13260SOL    HW143822   6.843   9.532   6.734  0.3174  1.4781  0.1292
13260SOL    HW243823   6.842   9.507   6.883  1.0251 -0.9070 -0.2245
13261SOL     OW43824   9.362   9.251   4.722  0.7086 -0.0284 -0.1705
13261SOL    HW143825   9.362   9.157   4.738  0.6892  0.0086  0.0545
13261SOL    HW243826   9.417   9.262   4.644 -1.8131 -0.5251 -2.1426
13262SOL     OW43827   7.957   3.086   8.197  0.7204  0.2447  0.0338
13262SOL    HW143828   7.986   3.035   8.272  1.3491  2.0088  1.0587
13262SOL    HW243829   8.037   3.111   8.152  0.6092  1.8954  0.6657
13263SOL     OW43830   3.526   1.028   6.589 -0.1702 -0.1621  0.3643
13263SOL    HW143831   3.578   1.108   6.579  0.4263 -0.6019 -0.1682
13263SOL    HW243832   3.563   0.986   6.666 -0.1610 -0.1592  0.3615
13264SOL     OW43833   2.557   3.639   3.192  0.2023  0.0352  0.0596
13264SOL    HW143834   2.547   3.710   3.254  0.0398 -0.7279  0.9247
13264SOL    HW243835   2.641   3.599   3.214 -0.5005 -1.1197  0.7302
13265SOL     OW43836   9.701   0.690   6.096 -0.5815 -0.2995  0.3193
13265SOL    HW143837   9.697   0.759   6.029 -1.9357  0.6956  1.3659
13265SOL    HW243838   9.728   0.736   6.175  1.6198 -1.5684  0.3919
13266SOL     OW43839   2.594   8.849   5.492 -0.6413 -0.5030 -0.0306
13266SOL    HW143840   2.556   8.761   5.492 -0.7942 -0.4491 -1.3274
13266SOL    HW243841   2.540   8.900   5.432 -0.3293  0.3832  0.4179
13267SOL     OW43842   7.916   7.655   2.071 -0.1251 -0.2833  0.1535
13267SOL    HW143843   7.857   7.585   2.097 -0.9358  0.9251  1.6803
13267SOL    HW243844   7.863   7.734   2.072  1.5257  0.8897  1.8495
13268SOL     OW43845   0.131   1.819   0.082 -0.1867  0.4899  0.4519
13268SOL    HW143846   0.071   1.882   0.122  0.0042  1.7458 -1.1487
13268SOL    HW243847   0.216   1.839   0.123 -0.5633 -0.3747  1.7106
13269SOL     OW43848   4.091   0.087   9.979 -0.0646  0.2376  0.1127
13269SOL    HW143849   4.053   0.003   9.952  0.7305 -0.4733  1.1210
13269SOL    HW243850   4.030   0.153   9.946 -0.9604 -0.7613 -0.2825
13270SOL     OW43851   6.735   9.386   7.594 -0.2197 -0.6622 -0.1074
13270SOL    HW143852   6.784   9.304   7.584 -0.4066 -0.8402  0.3824
13270SOL    HW243853   6.703   9.406   7.505 -0.8035 -1.5283 -0.1104
13271SOL     OW43854   7.260   6.036   6.444  0.3288  0.1876  0.2069
13271SOL    HW143855   7.292   6.124   6.459 -0.2988  0.1809  1.6981
13271SOL    HW243856   7.246   5.999   6.531  0.3076 -1.2875 -0.3818
13272SOL     OW43857   7.547   4.442   9.436 -0.7366  0.2799 -0.1486
13272SOL    HW143858   7.612   4.425   9.504 -1.7324 -0.4215  0.6453
13272SOL    HW243859   7.466   4.458   9.483 -1.0341  1.7594 -1.1081
13273SOL     OW43860   6.136   8.572   6.328 -0.2406  0.2795  0.6072
13273SOL    HW143861   6.053   8.579   6.376 -0.3648  0.0816  0.4184
13273SOL    HW243862   6.175   8.490   6.359 -0.6548 -0.2152 -0.1539
13274SOL     OW43863   1.504   2.208   9.586 -0.2310  0.1968  0.7359
13274SOL    HW143864   1.481   2.125   9.546  1.1860  0.6970 -1.3045
13274SOL    HW243865   1.584   2.189   9.635  0.0935  0.3345  0.2683
13275SOL     OW43866   8.934   2.305   0.435 -0.5409  0.1639 -0.2427
13275SOL    HW143867   8.907   2.315   0.344  1.1121  0.4626 -0.7261
13275SOL    HW243868   9.028   2.319   0.434 -0.1603 -1.8795  1.2066
13276SOL     OW43869   7.481   8.721   1.755 -0.1358 -0.3751  0.1301
13276SOL    HW143870   7.392   8.751   1.771 -0.6495 -1.5407 -0.3776
13276SOL    HW243871   7.489   8.721   1.659 -0.1527 -1.7688  0.1096
13277SOL     OW43872   2.529   2.672   2.829 -0.8290  0.4730 -0.5609
13277SOL    HW143873   2.437   2.654   2.810 -0.7124 -0.2673 -0.4305
13277SOL    HW243874   2.578   2.612   2.774 -0.4130  0.9506 -0.7248
13278SOL     OW43875   1.153   1.585   8.688 -0.1022 -0.2326 -0.3366
13278SOL    HW143876   1.127   1.606   8.777 -0.5138  0.9517 -0.7122
13278SOL    HW243877   1.206   1.506   8.696  0.4720  0.2642  1.0475
13279SOL     OW43878   1.796   6.582   7.266  0.1320 -0.2712 -0.0060
13279SOL    HW143879   1.740   6.632   7.325  0.5005 -1.1535  1.1217
13279SOL    HW243880   1.798   6.634   7.185  0.6569  1.6399  1.1596
13280SOL     OW43881   1.733   2.087   0.512 -0.0520  0.0496 -0.1212
13280SOL    HW143882   1.691   2.079   0.426 -2.6202 -0.1871  1.0692
13280SOL    HW243883   1.788   2.009   0.519  0.2040  0.0837 -1.5372
13281SOL     OW43884   3.429   4.020   4.936  0.1341 -0.5541  0.7366
13281SOL    HW143885   3.372   4.093   4.959  1.0846  0.5902 -0.4323
13281SOL    HW243886   3.370   3.945   4.930 -1.2805  0.6062 -0.5731
13282SOL     OW43887   6.331   3.118   4.010 -0.4891 -0.1790 -0.1548
13282SOL    HW143888   6.298   3.049   3.953  2.2375 -1.0977 -0.7895
13282SOL    HW243889   6.387   3.172   3.953  0.3948  0.3151  1.1257
13283SOL     OW43890   3.927   9.740   8.151  0.2187  0.1105  0.1830
13283SOL    HW143891   3.880   9.823   8.151 -0.3360 -0.1479 -1.6763
13283SOL    HW243892   3.874   9.683   8.095 -0.8737 -2.4042  3.4757
13284SOL     OW43893   5.870   6.367   9.072  0.1096 -0.8291 -1.1480
13284SOL    HW143894   5.841   6.376   9.163  1.8092 -2.6786 -0.3385
13284SOL    HW243895   5.822   6.435   9.025 -0.7872  0.2344  1.1244
13285SOL     OW43896   8.318   7.747   1.374  0.4205 -0.2771  0.2417
13285SOL    HW143897   8.271   7.695   1.309 -1.6785  1.5984  0.1754
13285SOL    HW243898   8.384   7.795   1.323 -1.4508  1.4665 -0.6828
13286SOL     OW43899   9.849  10.147   1.608 -0.6530 -0.4842  0.2733
13286SOL    HW143900   9.862  10.125   1.701 -0.0770  1.9017  0.8273
13286SOL    HW243901   9.877  10.238   1.601 -0.3491 -0.7082 -2.3583
13287SOL     OW43902   8.224   2.382   7.261 -0.3395  0.1514 -0.8592
13287SOL    HW143903   8.154   2.395   7.325  0.5324  0.7396  0.0051
13287SOL    HW243904   8.183   2.397   7.176 -1.1742  0.8565 -0.3392
13288SOL     OW43905   9.760   5.142   0.746  0.6303 -1.0417  0.3245
13288SOL    HW143906   9.832   5.140   0.684 -0.6081 -1.9252 -1.1420
13288SOL    HW243907   9.796   5.186   0.824  2.3395 -0.3076 -0.8353
13289SOL     OW43908   3.101   6.075   2.733  0.5819  0.2184  0.6021
13289SOL    HW143909   3.194   6.096   2.737  0.5530  0.6398 -0.4746
13289SOL    HW243910   3.072   6.110   2.648 -0.4187 -0.4484  0.6483
13290SOL     OW43911  10.202   5.146   5.831 -0.2902  0.3296  0.1486
13290SOL    HW143912  10.223   5.212   5.765 -1.2575  0.1319 -0.3760
13290SOL    HW243913  10.189   5.194   5.912  0.1540  0.6547  0.0281
13291SOL     OW43914   3.394  10.174   5.337  0.0990 -0.1117  0.1142
13291SOL    HW143915   3.309  10.201   5.372  0.3614  1.3795 -0.3534
13291SOL    HW243916   3.388  10.188   5.243  1.3290  1.3871  0.2236
13292SOL     OW43917  10.019   3.385   9.088 -0.7512 -0.0789  0.1326
13292SOL    HW143918   9.975   3.300   9.093 -1.6364  0.3482 -0.1475
13292SOL    HW243919  10.034   3.398   8.994 -1.5505  0.5276  0.0808
13293SOL     OW43920   3.402   2.479   9.744  0.4014 -0.0581 -0.3656
13293SOL    HW143921   3.393   2.503   9.836  1.5250 -0.7829 -0.0455
13293SOL    HW243922   3.482   2.426   9.740  1.7529  1.9363 -2.1380
13294SOL     OW43923   9.848   6.962   2.880  0.1130  0.3268  0.0823
13294SOL    HW143924   9.898   7.042   2.866 -1.7151  1.5294  0.1948
13294SOL    HW243925   9.796   6.951   2.801 -0.1228 -0.3962  0.3290
13295SOL     OW43926   5.390   6.687   6.124 -0.3829 -0.2157 -0.7323
13295SOL    HW143927   5.296   6.670   6.119 -0.3422 -0.9804  0.7300
13295SOL    HW243928   5.425   6.616   6.177  1.0056  0.1621 -1.0991
13296SOL     OW43929   4.538   5.985   1.230  0.6410 -0.3957 -0.1890
13296SOL    HW143930   4.478   5.966   1.302  0.4808  0.8256  0.0251
13296SOL    HW243931   4.481   6.003   1.156  0.6853  1.2371  0.1326
13297SOL     OW43932   9.931   0.842   3.477  0.0333  0.0658  0.0071
13297SOL    HW143933  10.012   0.827   3.428  0.0172 -1.0750  0.3071
13297SOL    HW243934   9.931   0.936   3.496  2.2310 -0.1987  1.6590
13298SOL     OW43935   5.405   4.075   7.519 -0.2018  0.3624 -0.7989
13298SOL    HW143936   5.424   4.089   7.612  1.6507 -1.0388 -0.8955
13298SOL    HW243937   5.323   4.121   7.504 -0.5350  0.6583  1.5233
13299SOL     OW43938   2.331   3.581   4.930  0.0728 -0.1789  0.4003
13299SOL    HW143939   2.390   3.515   4.895 -2.1151 -2.1364  0.1482
13299SOL    HW243940   2.290   3.539   5.006  0.0122  1.6221  1.4139
13300SOL     OW43941   2.211   8.661   5.318  0.1142  0.2468 -0.0844
13300SOL    HW143942   2.163   8.738   5.287  3.1858  1.4003 -2.5497
13300SOL    HW243943   2.191   8.593   5.254  2.7611  1.2095 -2.0966
13301SOL     OW43944   1.201   2.312   9.331 -0.3876 -0.2983 -0.2489
13301SOL    HW143945   1.187   2.229   9.285  0.5961 -0.1472 -0.8323
13301SOL    HW243946   1.120   2.325   9.380 -0.2780 -1.9688  0.4414
13302SOL     OW43947   2.996   9.228   0.319  0.2553  0.0253 -0.1706
13302SOL    HW143948   3.058   9.279   0.371 -1.4990  1.4464  0.6481
13302SOL    HW243949   2.945   9.179   0.383  1.0476 -1.8132 -0.8840
13303SOL     OW43950   9.797   6.652   5.696 -0.2835  0.2060  0.5568
13303SOL    HW143951   9.806   6.565   5.737 -0.0429  0.3818  0.8788
13303SOL    HW243952   9.706   6.676   5.712 -0.2565  0.1648  0.7696
13304SOL     OW43953   2.452   2.724   3.473  0.2419  0.0299 -0.0902
13304SOL    HW143954   2.512   2.772   3.417  0.6657  0.4219  0.6746
13304SOL    HW243955   2.505   2.698   3.549 -0.5429  0.3609  0.5907
13305SOL     OW43956   1.158   6.639   4.732 -0.3106  0.2911 -0.3174
13305SOL    HW143957   1.142   6.685   4.649 -4.3532 -1.1242 -0.5731
13305SOL    HW243958   1.160   6.546   4.707 -1.6497 -0.1608  1.0847
13306SOL     OW43959   2.903   9.694   8.943 -0.2137  0.2672  0.1991
13306SOL    HW143960   2.829   9.637   8.923  0.8704 -1.5220  1.0556
13306SOL    HW243961   2.969   9.672   8.877 -0.2447  1.5319 -0.2911
13307SOL     OW43962   5.056   3.373   6.433 -0.1258  0.0854  0.4309
13307SOL    HW143963   5.027   3.380   6.342 -0.5132 -0.7994  0.4771
13307SOL    HW243964   5.079   3.463   6.458 -1.5803  0.6171 -0.0263
13308SOL     OW43965   1.002   0.761   3.495  0.4158 -0.4803 -0.0124
13308SOL    HW143966   0.982   0.854   3.484  1.7215 -0.3293 -1.5036
13308SOL    HW243967   1.088   0.761   3.538  1.0564 -0.9359 -1.2287
13309SOL     OW43968   6.092   5.772   2.967 -0.1801  0.4284 -0.6611
13309SOL    HW143969   6.098   5.772   2.872  0.6927  1.7291 -0.6224
13309SOL    HW243970   6.181   5.757   2.997 -0.5572 -0.6723 -0.0258
13310SOL     OW43971   0.204   8.741   8.087 -0.2798 -0.8269  0.3178
13310SOL    HW143972   0.199   8.660   8.138 -0.8019  0.3327  2.2131
13310SOL    HW243973   0.183   8.810   8.150 -0.9026  0.7123 -1.4835
13311SOL     OW43974   5.160   2.115   0.043 -0.2747  0.3863 -0.2063
13311SOL    HW143975   5.249   2.148   0.056  0.2177 -1.1352  0.5698
13311SOL    HW243976   5.172   2.022   0.025 -1.7783 -0.1264  1.2011
13312SOL     OW43977   0.028   4.992   1.862 -0.0067  0.7138 -0.2433
13312SOL    HW143978  -0.032   4.943   1.917  1.2765 -0.3660  0.2560
13312SOL    HW243979   0.012   4.960   1.774 -0.1050  0.3544 -0.0970
13313SOL     OW43980   5.452   6.740   4.797 -0.5920  0.1547 -0.1151
13313SOL    HW143981   5.536   6.781   4.779  0.6252 -1.9482  0.4269
13313SOL    HW243982   5.416   6.791   4.869  1.0583  0.0637  0.8310
13314SOL     OW43983   1.774   6.486   5.970 -0.2597  0.3462 -0.1631
13314SOL    HW143984   1.711   6.493   5.898 -0.1443  2.9083 -0.1125
13314SOL    HW243985   1.858   6.508   5.930 -0.1022  1.2418  0.6331
13315SOL     OW43986  10.167   0.979   7.769 -0.6981 -0.2519 -0.0604
13315SOL    HW143987  10.242   0.939   7.725  0.0728 -0.6288  1.5162
13315SOL    HW243988  10.130   0.907   7.821  0.3520  0.8799  2.3678
13316SOL     OW43989   0.274   9.347   2.203 -0.5068  0.1905 -0.6227
13316SOL    HW143990   0.369   9.334   2.205 -0.5268  0.1446  0.5742
13316SOL    HW243991   0.263   9.437   2.173 -0.1414 -0.1642 -1.8936
13317SOL     OW43992   1.661   9.602   8.149  0.1681 -0.2574  0.3548
13317SOL    HW143993   1.690   9.522   8.106  2.2741  0.4692  0.3410
13317SOL    HW243994   1.713   9.607   8.229 -0.1909  0.9157  0.5334
13318SOL     OW43995   1.547   5.690   9.744  0.0799  0.4291 -0.1147
13318SOL    HW143996   1.464   5.727   9.776 -0.4006 -0.2031 -0.6090
13318SOL    HW243997   1.611   5.758   9.762 -0.6375  1.1468 -0.2007
13319SOL     OW43998   3.025   5.931   4.256 -0.2616  0.3324 -0.0550
13319SOL    HW143999   3.112   5.962   4.283 -0.3436  1.5895 -1.1358
13319SOL    HW244000   2.988   5.893   4.335  0.8490  0.7576  0.7005
13320SOL     OW44001   9.356   0.117   8.721 -0.1454  0.1076 -0.4268
13320SOL    HW144002   9.418   0.050   8.751 -0.7531 -1.0445 -1.6419
13320SOL    HW244003   9.270   0.074   8.726 -0.7770  1.4454  0.5652
13321SOL     OW44004   6.744   1.335   9.634 -0.1826 -0.2169 -0.6114
13321SOL    HW144005   6.822   1.386   9.610 -0.0449 -0.1890 -0.1198
13321SOL    HW244006   6.719   1.290   9.553  0.9394 -1.0285 -0.5401
13322SOL     OW44007   3.784   5.966   3.952  0.4740 -0.4475  0.1199
13322SOL    HW144008   3.871   5.985   3.987  1.0448 -0.5034 -1.2061
13322SOL    HW244009   3.766   6.039   3.893 -0.7365 -0.0288  0.9718
13323SOL     OW44010   8.709   6.275   6.870 -0.0491 -0.0490  0.8679
13323SOL    HW144011   8.748   6.208   6.926  0.9766 -0.2584 -0.0801
13323SOL    HW244012   8.771   6.348   6.872 -0.8411  0.6453  1.3614
13324SOL     OW44013   4.307   3.144   0.640  0.5381  0.3854  0.3690
13324SOL    HW144014   4.397   3.166   0.667  1.0449 -1.4833  0.3143
13324SOL    HW244015   4.286   3.065   0.689 -1.1049  0.8024  0.3699
13325SOL     OW44016   4.244   3.582   7.541  0.2126  0.4991 -0.2981
13325SOL    HW144017   4.315   3.637   7.572  0.0262  1.2728 -1.1959
13325SOL    HW244018   4.268   3.494   7.569  1.0470  0.8806  0.2317
13326SOL     OW44019   2.029   7.308   9.886 -0.1260 -0.2506 -0.1114
13326SOL    HW144020   2.114   7.266   9.900  0.5485  0.9841 -0.2745
13326SOL    HW244021   2.029   7.382   9.946 -0.3357  0.7815 -1.3313
13327SOL     OW44022   9.930   3.795   7.667 -0.0750 -0.1492  0.5199
13327SOL    HW144023   9.951   3.889   7.674  0.0858 -0.1953  0.6704
13327SOL    HW244024  10.015   3.751   7.671 -0.1575 -0.3074  0.5461
13328SOL     OW44025   9.359   7.228   8.037 -0.0272 -0.1944  0.7268
13328SOL    HW144026   9.391   7.210   8.125 -1.5032 -0.3363  1.2566
13328SOL    HW244027   9.328   7.319   8.041  1.0147  0.2237 -0.0134
13329SOL     OW44028   5.181   3.354   9.961 -0.1489  0.5708  0.2272
13329SOL    HW144029   5.229   3.310   9.891  0.6540 -0.3985  1.3301
13329SOL    HW244030   5.155   3.438   9.924  1.4850  0.6840 -0.7648
13330SOL     OW44031   0.632   6.811   3.991  0.1388 -0.6967 -0.1467
13330SOL    HW144032   0.558   6.802   4.052 -0.1626 -1.9489 -0.6710
13330SOL    HW244033   0.638   6.905   3.975 -0.3897 -0.4309  1.0549
13331SOL     OW44034   4.830   0.921   2.004  0.0821 -0.2600 -0.1673
13331SOL    HW144035   4.859   0.830   2.006  0.3102 -0.1914 -0.3790
13331SOL    HW244036   4.759   0.922   1.939 -2.6301 -1.0812  2.5017
13332SOL     OW44037   0.355   5.856   0.812  0.5116  0.3086  0.2298
13332SOL    HW144038   0.274   5.906   0.811 -0.9167 -1.8101  1.7537
13332SOL    HW244039   0.411   5.903   0.874  0.6527  1.9872 -1.0919
13333SOL     OW44040   1.559   1.983   8.709  0.2337  0.1971  0.5930
13333SOL    HW144041   1.633   1.948   8.659  0.9050  1.4295  0.6702
13333SOL    HW244042   1.487   1.987   8.645  0.5984  0.1641  0.1741
13334SOL     OW44043   6.832   0.685   0.413 -0.3142  0.6046 -0.1336
13334SOL    HW144044   6.840   0.624   0.486 -0.9993  0.3562 -0.2611
13334SOL    HW244045   6.741   0.675   0.383  0.0639  0.4267 -1.2637
13335SOL     OW44046   2.140   9.099   3.084  0.8376  0.1081  0.0847
13335SOL    HW144047   2.066   9.159   3.074  0.3385 -0.7087 -1.6089
13335SOL    HW244048   2.217   9.155   3.080  0.4247  0.6419 -2.5195
13336SOL     OW44049   7.454   6.080   5.121  0.9836  0.0312 -0.0294
13336SOL    HW144050   7.540   6.048   5.149  0.8442  1.0794  1.6998
13336SOL    HW244051   7.441   6.161   5.170 -0.8983  0.0171 -0.4341
13337SOL     OW44052   0.429   0.825   0.741 -0.0126 -0.3190  0.0199
13337SOL    HW144053   0.498   0.890   0.757 -0.1585  0.3887 -2.0260
13337SOL    HW244054   0.362   0.872   0.692 -0.5074 -1.8027 -0.7863
13338SOL     OW44055   7.005   6.050   7.806 -0.5025 -0.0928 -0.2673
13338SOL    HW144056   6.946   6.119   7.775  0.2005  0.7199  0.1689
13338SOL    HW244057   7.051   6.089   7.880 -0.5318 -1.2472  0.3824
13339SOL     OW44058   6.676   6.971  10.243 -0.4017 -0.4477 -0.1195
13339SOL    HW144059   6.752   6.959  10.300 -0.1152  1.7301  0.0340
13339SOL    HW244060   6.694   6.916  10.167 -0.3787 -2.7375  1.4353
13340SOL     OW44061   0.790   6.236   1.457  0.1849 -0.7633 -0.0465
13340SOL    HW144062   0.847   6.186   1.515 -0.8329 -0.6732  1.0620
13340SOL    HW244063   0.800   6.327   1.486  0.8912 -0.4807 -1.0857
13341SOL     OW44064   5.308   9.896   3.211 -0.4264 -0.4363 -0.0812
13341SOL    HW144065   5.300   9.813   3.164  0.7897 -0.8966  0.4695
13341SOL    HW244066   5.282   9.876   3.301 -0.0965 -0.2374  0.0631
13342SOL     OW44067   6.616   0.883   2.564  0.1206 -0.7932 -0.2077
13342SOL    HW144068   6.576   0.956   2.516  1.4473 -1.1112 -1.8883
13342SOL    HW244069   6.678   0.925   2.624  0.4294 -0.4913 -0.7276
13343SOL     OW44070   2.454   3.091   8.718 -0.1283 -0.1111 -0.0437
13343SOL    HW144071   2.378   3.040   8.747 -0.1048 -0.4276 -0.5240
13343SOL    HW244072   2.523   3.026   8.705  0.1894  0.1604  0.2702
13344SOL     OW44073   7.086   7.224   1.169  0.3306 -0.3594  0.5086
13344SOL    HW144074   7.074   7.280   1.092 -1.3557 -0.8193  0.3886
13344SOL    HW244075   7.174   7.189   1.160 -0.0920 -1.0208 -1.6525
13345SOL     OW44076   9.114   2.104   7.961  0.6188  0.2387 -0.8030
13345SOL    HW144077   9.111   2.057   8.045  2.8122  0.0060 -0.8017
13345SOL    HW244078   9.047   2.062   7.908 -0.5371  0.1165  0.6812
13346SOL     OW44079   6.213   7.177   1.725  0.4877  0.4060 -0.4661
13346SOL    HW144080   6.300   7.164   1.686  1.4409 -0.5101  1.8379
13346SOL    HW244081   6.178   7.089   1.737 -0.4001  0.7350 -0.5223
13347SOL     OW44082   9.161   5.962   5.514 -0.1348  0.4782  0.1761
13347SOL    HW144083   9.078   5.965   5.561 -0.1994  1.4855  0.0197
13347SOL    HW244084   9.225   5.999   5.575  0.1615 -0.0873  0.2154
13348SOL     OW44085   6.079   0.009   1.352 -0.1255  0.3008  0.4918
13348SOL    HW144086   6.033   0.092   1.348 -2.7695 -1.1277 -2.0386
13348SOL    HW244087   6.107  -0.008   1.262  1.4098 -1.0305  1.1635
13349SOL     OW44088   9.660   0.571   0.703 -0.0833  0.6121  0.2080
13349SOL    HW144089   9.632   0.480   0.714  0.4864  0.3998 -0.0257
13349SOL    HW244090   9.753   0.570   0.725 -0.6557  1.6900  3.0286
13350SOL     OW44091   1.345   1.344   1.888 -0.2610  0.4903  0.1025
13350SOL    HW144092   1.252   1.330   1.876 -0.2154  0.2284  0.0325
13350SOL    HW244093   1.364   1.304   1.973 -0.0929 -0.0611 -0.1851
13351SOL     OW44094   4.542  10.007   4.214  0.4052 -0.4154  0.1620
13351SOL    HW144095   4.512  10.047   4.132  1.2249 -0.0598  0.0197
13351SOL    HW244096   4.499   9.921   4.216  1.6429 -1.1409 -1.4914
13352SOL     OW44097   5.556   9.002   4.274  0.0913 -0.5639 -0.4275
13352SOL    HW144098   5.596   9.063   4.337  2.1868  1.6401 -3.6035
13352SOL    HW244099   5.469   9.038   4.258  0.8041  0.9256 -1.2306
13353SOL     OW44100   6.733   2.904   4.063 -0.3011  0.0749 -0.5472
13353SOL    HW144101   6.666   2.839   4.046  1.3146 -1.6792 -0.5795
13353SOL    HW244102   6.813   2.853   4.077  0.3882  1.7774  3.1952
13354SOL     OW44103   3.914   8.054   8.435  0.0040  0.2387  0.0067
13354SOL    HW144104   3.963   7.975   8.457  0.7419  0.9587  1.0158
13354SOL    HW244105   3.832   8.046   8.484 -0.4484 -0.4445 -0.8286
13355SOL     OW44106   5.330   1.481   2.962 -0.2732 -0.2823  0.3668
13355SOL    HW144107   5.260   1.463   3.025 -0.4580  0.1471  0.2857
13355SOL    HW244108   5.315   1.417   2.892 -0.4245 -0.3676  0.4743
13356SOL     OW44109   1.634   4.705   9.847  0.1033  0.1787  0.2999
13356SOL    HW144110   1.645   4.791   9.888 -1.9905  0.8665 -0.4278
13356SOL    HW244111   1.545   4.678   9.871  0.4196 -1.4198 -0.1766
13357SOL     OW44112   5.879   5.175   8.598 -0.2660  0.1384 -0.2263
13357SOL    HW144113   5.922   5.134   8.523  2.0801 -0.4293  1.3124
13357SOL    HW244114   5.815   5.110   8.628  2.2159 -1.8805  1.1405
13358SOL     OW44115   0.790   3.583   5.837  0.3801  0.2880  0.6176
13358SOL    HW144116   0.784   3.642   5.762 -0.2165  0.5108  0.8338
13358SOL    HW244117   0.846   3.511   5.807  1.1277  0.9570  0.3516
13359SOL     OW44118   7.799  10.289   0.744 -0.6151 -0.2412 -0.0293
13359SOL    HW144119   7.838  10.355   0.800 -0.8659  0.2218 -0.3977
13359SOL    HW244120   7.861  10.277   0.673 -0.4021 -0.6672  0.2234
13360SOL     OW44121   8.093   9.326   0.435 -0.0559 -0.0294 -0.8121
13360SOL    HW144122   8.130   9.392   0.376  0.2647 -0.1416 -0.7349
13360SOL    HW244123   8.165   9.267   0.454 -0.0688  0.1984 -0.0244
13361SOL     OW44124   6.311   8.740   3.602 -0.1809 -0.3122 -0.1970
13361SOL    HW144125   6.314   8.687   3.522 -1.0340 -0.3621 -0.2007
13361SOL    HW244126   6.288   8.678   3.671 -0.6816 -0.0472 -0.1183
13362SOL     OW44127   0.147   8.450   9.749  0.0432 -0.6025 -0.0455
13362SOL    HW144128   0.098   8.521   9.792  1.3128  0.3458 -0.0936
13362SOL    HW244129   0.182   8.490   9.670  1.1538 -1.1512  0.1532
13363SOL     OW44130   0.500   4.387   2.442 -0.2305  0.6636  0.6645
13363SOL    HW144131   0.572   4.409   2.502 -0.1150 -0.2945  0.8917
13363SOL    HW244132   0.462   4.308   2.478 -0.2232  0.1187 -0.4705
13364SOL     OW44133   9.273   0.403   3.448  0.3345 -0.1104  0.1027
13364SOL    HW144134   9.197   0.434   3.498 -0.8796  3.0046 -3.2908
13364SOL    HW244135   9.344   0.399   3.513 -2.2871 -2.0406  3.1760
13365SOL     OW44136   7.086   5.044   1.374  0.0889  0.4635 -0.2069
13365SOL    HW144137   7.097   5.064   1.467  3.5041 -2.0280  0.1194
13365SOL    HW244138   7.056   4.953   1.373 -1.0515  0.8101 -1.6127
13366SOL     OW44139   2.782   4.078   4.398 -0.1179  0.2084  0.5559
13366SOL    HW144140   2.835   4.031   4.462  1.3933 -0.1167 -0.8683
13366SOL    HW244141   2.826   4.161   4.386  0.0853 -0.0495 -0.6299
13367SOL     OW44142   9.417   8.890   7.562 -0.0364 -0.4459  0.7578
13367SOL    HW144143   9.366   8.921   7.637  2.4305  0.8576  2.0276
13367SOL    HW244144   9.484   8.957   7.548 -0.6188 -0.4045 -2.9710
13368SOL     OW44145   3.656   3.531   6.714  0.1055  0.2019  0.0781
13368SOL    HW144146   3.576   3.578   6.738 -1.9491 -1.9742 -1.9237
13368SOL    HW244147   3.676   3.476   6.790 -0.3490  0.7009  0.5621
13369SOL     OW44148   6.134  10.245   3.356 -0.2439  0.0784  0.2383
13369SOL    HW144149   6.138  10.181   3.427 -0.7029 -0.3687 -0.1326
13369SOL    HW244150   6.182  10.321   3.390 -0.5489 -0.0813  1.0710
13370SOL     OW44151   3.810   0.261   4.706  0.0921  0.9416  0.4908
13370SOL    HW144152   3.865   0.262   4.784  1.7127  1.2125 -0.6082
13370SOL    HW244153   3.740   0.199   4.726 -0.0516  1.6850  2.4755
13371SOL     OW44154   7.257   6.882   7.371  0.3758 -0.1475  0.0005
13371SOL    HW144155   7.237   6.832   7.292 -0.7588  2.8138 -1.7667
13371SOL    HW244156   7.339   6.845   7.402  0.5809 -1.8222 -2.2388
13372SOL     OW44157   4.544   4.648  10.231  0.2657 -0.1157  0.8782
13372SOL    HW144158   4.537   4.576  10.167 -0.0814  0.9989 -0.3758
13372SOL    HW244159   4.459   4.651  10.273 -0.5772  1.0983 -0.8058
13373SOL     OW44160   4.781  10.241   4.174  0.5854 -0.0566  0.0017
13373SOL    HW144161   4.717  10.170   4.184 -1.5805  1.7264 -0.4425
13373SOL    HW244162   4.817  10.253   4.262 -1.3495  0.3135  0.7978
13374SOL     OW44163   1.385   0.304   1.092 -0.0581 -0.1238  0.0257
13374SOL    HW144164   1.325   0.316   1.019 -0.3075  0.9444  0.3886
13374SOL    HW244165   1.329   0.275   1.165  0.4080 -2.8203 -0.5916
13375SOL     OW44166   2.094   6.495   3.634 -0.0170  0.1112  0.1634
13375SOL    HW144167   2.106   6.588   3.653 -0.7962  0.1564  0.4584
13375SOL    HW244168   2.002   6.477   3.654  0.2114 -0.8090  0.4698
13376SOL     OW44169   1.931   3.046   9.951 -0.0458  0.0355  0.2803
13376SOL    HW144170   1.893   3.020  10.035 -0.6839 -1.5256 -0.4377
13376SOL    HW244171   1.855   3.063   9.895  0.3747  1.1197  0.0275
13377SOL     OW44172   2.626   7.187   0.791  0.7066 -0.0017 -0.2043
13377SOL    HW144173   2.686   7.194   0.717  0.3681  3.0852 -0.3491
13377SOL    HW244174   2.539   7.196   0.752  0.5590  2.6794  0.5084
13378SOL     OW44175   4.842  10.074   2.651 -0.2823  0.1725  0.2073
13378SOL    HW144176   4.837  10.129   2.572  1.8275  1.2472  0.7716
13378SOL    HW244177   4.844   9.984   2.617 -0.1208  0.5869 -0.9228
13379SOL     OW44178  10.208   2.280   7.663  0.7045 -0.0114  0.1339
13379SOL    HW144179  10.292   2.239   7.684  0.0710 -1.1623  0.4758
13379SOL    HW244180  10.191   2.254   7.572  0.2164 -0.6687  0.4095
13380SOL     OW44181   4.853   1.775   7.883  0.2738  0.5484 -0.0009
13380SOL    HW144182   4.935   1.792   7.931 -0.1838 -0.3212  1.1564
13380SOL    HW244183   4.785   1.812   7.939 -0.1269  1.3989 -1.0336
13381SOL     OW44184   9.828   3.951   0.100  0.0242  0.3561  0.1877
13381SOL    HW144185   9.733   3.938   0.102  0.1280 -0.3692  1.6852
13381SOL    HW244186   9.840   4.038   0.062 -1.3030  0.9212  1.0084
13382SOL     OW44187   7.226   3.345   3.839  0.0604 -0.6557  0.2620
13382SOL    HW144188   7.181   3.261   3.846  1.1334 -1.1715  1.4389
13382SOL    HW244189   7.294   3.330   3.774  1.1396 -1.1616  1.4576
13383SOL     OW44190   9.000   9.476   1.142 -0.7211  0.6301 -0.4307
13383SOL    HW144191   9.079   9.431   1.111 -2.1687 -1.5229 -1.2825
13383SOL    HW244192   9.011   9.481   1.237  0.9878  1.5915 -0.6330
13384SOL     OW44193   2.555   1.411   8.133  0.4686 -0.3189 -0.0920
13384SOL    HW144194   2.643   1.376   8.133  0.6881 -0.1632  3.3621
13384SOL    HW244195   2.567   1.506   8.136  0.1640 -0.2712 -0.3276
13385SOL     OW44196   4.037   5.509   5.448  0.0914 -0.0936  0.1531
13385SOL    HW144197   4.006   5.562   5.374  0.3208  1.5123  1.1561
13385SOL    HW244198   3.991   5.544   5.524  1.2584 -0.4345  1.0492
13386SOL     OW44199   2.656   7.889   0.910  0.2512 -0.1124  0.2833
13386SOL    HW144200   2.652   7.841   0.827 -0.8709 -0.0649  0.2970
13386SOL    HW244201   2.697   7.973   0.887 -0.9700  0.3076 -0.4414
13387SOL     OW44202   5.532   8.850   1.487 -0.0564 -0.1415 -0.7898
13387SOL    HW144203   5.496   8.929   1.528 -0.9513 -1.5164  1.1963
13387SOL    HW244204   5.528   8.783   1.555  0.1090 -2.0920 -2.5924
13388SOL     OW44205   1.778   3.606   9.232  0.5258  0.4798 -0.3544
13388SOL    HW144206   1.713   3.608   9.161  2.2184 -0.3361 -2.0255
13388SOL    HW244207   1.732   3.568   9.306 -1.2431  1.1063 -1.0743
13389SOL     OW44208   5.480   8.316   4.321 -1.2580 -0.2391  0.0372
13389SOL    HW144209   5.430   8.248   4.366 -2.2232  0.2734 -0.2168
13389SOL    HW244210   5.483   8.388   4.384  0.7905 -0.9065  0.7756
13390SOL     OW44211   7.316   2.136   7.735  0.3340 -0.3809 -0.2049
13390SOL    HW144212   7.359   2.195   7.798  1.9239 -1.0302 -0.6154
13390SOL    HW244213   7.368   2.055   7.740 -0.7825 -1.1531 -0.8654
13391SOL     OW44214   4.336   9.764   4.679 -0.6672 -0.2479  0.1368
13391SOL    HW144215   4.317   9.672   4.658  0.2312 -0.5777  0.7057
13391SOL    HW244216   4.256   9.796   4.721 -1.2519 -0.5522 -0.7146
13392SOL     OW44217   1.879   2.470   2.894  0.6320  0.3761  0.0498
13392SOL    HW144218   1.874   2.440   2.985 -1.5717 -1.4474 -0.5720
13392SOL    HW244219   1.794   2.512   2.878  1.7794  2.5598 -0.6096
13393SOL     OW44220   3.419   9.957   8.953  0.0259  0.3189  0.4159
13393SOL    HW144221   3.457   9.997   9.030  0.2545 -1.0571  1.0413
13393SOL    HW244222   3.330   9.932   8.980 -1.4571  3.4367 -1.0014
13394SOL     OW44223   9.163   5.732   1.173  0.2949  0.0721 -0.3172
13394SOL    HW144224   9.199   5.644   1.170 -0.1620 -0.1709  0.9445
13394SOL    HW244225   9.074   5.721   1.207  0.7935  1.1610  1.5004
13395SOL     OW44226   5.735   5.926   2.810  0.3814 -0.3295 -0.4429
13395SOL    HW144227   5.642   5.939   2.796  0.7282  0.7131 -2.1063
13395SOL    HW244228   5.757   5.849   2.757  0.5945 -0.1025 -0.6888
13396SOL     OW44229   6.430   1.333   5.005 -0.4922 -0.2001  0.3780
13396SOL    HW144230   6.504   1.365   4.953 -2.7879  0.7609 -2.6114
13396SOL    HW244231   6.442   1.238   5.009  1.1965 -0.0025  0.5383
13397SOL     OW44232   3.516   2.156   1.232 -0.1130  0.4217 -0.0678
13397SOL    HW144233   3.475   2.084   1.184 -0.6895  0.3921  0.4555
13397SOL    HW244234   3.606   2.158   1.200  0.1914 -1.1622  0.5858
13398SOL     OW44235   1.990   1.861   4.760  0.0054  0.2519  0.2388
13398SOL    HW144236   1.920   1.840   4.822  0.8962 -2.2262  0.5101
13398SOL    HW244237   2.070   1.857   4.812  0.6174 -0.2397 -0.7140
13399SOL     OW44238   6.866   6.313  10.212 -0.6717 -0.2659  0.3397
13399SOL    HW144239   6.833   6.281  10.295 -1.3392  0.8621  0.5280
13399SOL    HW244240   6.926   6.384  10.235 -0.1002 -0.5969 -0.1028
13400SOL     OW44241   4.368   9.738   9.556  0.5838  0.3284  0.1313
13400SOL    HW144242   4.367   9.735   9.461 -1.0135 -2.4821  0.1119
13400SOL    HW244243   4.414   9.658   9.582  0.6307  0.8357  1.7445
13401SOL     OW44244   4.319   0.146   8.139  0.3292 -0.4290 -0.5211
13401SOL    HW144245   4.412   0.167   8.142  0.7199 -1.9343 -1.0807
13401SOL    HW244246   4.291   0.147   8.230 -0.0157  3.5866 -0.5258
13402SOL     OW44247   5.967   3.295   3.889  0.1264  0.8451 -0.3082
13402SOL    HW144248   5.995   3.279   3.799 -0.1712  0.9398 -0.4164
13402SOL    HW244249   5.915   3.375   3.885 -2.5254 -0.7767 -0.5951
13403SOL     OW44250   2.316   0.931   5.793 -0.1236 -0.3049  0.1959
13403SOL    HW144251   2.273   1.014   5.808  0.5575  0.4309 -1.6081
13403SOL    HW244252   2.409   0.948   5.809 -0.1406 -1.1597  1.3715
13404SOL     OW44253  10.068   1.832   0.099 -0.2503 -0.1223  0.2963
13404SOL    HW144254  10.108   1.913   0.066 -0.0232 -0.7179 -0.9696
13404SOL    HW244255   9.984   1.860   0.136 -0.5555  0.6005 -0.8816
13405SOL     OW44256   6.822   9.091   5.180 -0.0678 -0.1993  0.8164
13405SOL    HW144257   6.872   9.148   5.122 -0.6094 -1.6421 -1.1859
13405SOL    HW244258   6.868   9.007   5.176 -0.3803 -0.4611  2.1762
13406SOL     OW44259   4.974   4.519   2.135  0.1740 -0.2934 -0.2443
13406SOL    HW144260   4.924   4.579   2.190  0.9159  0.7309 -0.6720
13406SOL    HW244261   4.953   4.432   2.169 -1.9280  0.0862 -0.4137
13407SOL     OW44262   0.259   7.156   5.471 -0.5254 -0.7271  0.6727
13407SOL    HW144263   0.335   7.112   5.435 -0.1227  0.2430  0.2900
13407SOL    HW244264   0.197   7.162   5.398  0.0015  0.5914  0.2942
13408SOL     OW44265   7.746   8.946   5.670 -0.1559 -0.1303 -0.1090
13408SOL    HW144266   7.741   8.956   5.766 -1.1540  0.6576 -0.2300
13408SOL    HW244267   7.689   8.872   5.651  1.3078 -1.3388  0.0421
13409SOL     OW44268   1.555   0.679   7.718  0.3867  0.3634 -0.3831
13409SOL    HW144269   1.623   0.737   7.752  0.2497 -0.3484  1.2424
13409SOL    HW244270   1.544   0.613   7.787 -1.4988  0.0945 -0.8841
13410SOL     OW44271   4.141   7.638   7.458 -0.3037  0.7078 -0.2962
13410SOL    HW144272   4.082   7.705   7.423 -1.8441 -1.0027 -1.1499
13410SOL    HW244273   4.087   7.587   7.518  0.6186 -0.2515 -0.2532
13411SOL     OW44274  10.156   1.700   7.806  0.0858 -0.5987  0.2002
13411SOL    HW144275  10.106   1.721   7.727  0.5230  0.8691  0.2873
13411SOL    HW244276  10.093   1.656   7.863 -0.8848  0.3984 -0.0532
13412SOL     OW44277   1.524   9.262   6.633 -0.1449  0.4574  0.1670
13412SOL    HW144278   1.456   9.322   6.664  0.4267  1.7148 -0.9257
13412SOL    HW244279   1.480   9.209   6.567 -0.3284  0.5590  0.2047
13413SOL     OW44280   9.315   6.851   6.943  0.0800 -0.1431 -0.0493
13413SOL    HW144281   9.279   6.884   6.861  2.0039  0.1928 -0.8121
13413SOL    HW244282   9.393   6.905   6.959  0.6065 -1.2106  1.1899
13414SOL     OW44283   5.910   9.920   4.661  0.3496  0.0972  0.1207
13414SOL    HW144284   5.933   9.920   4.754 -0.1212 -0.9369  0.2442
13414SOL    HW244285   5.992   9.896   4.616  0.5948  0.6660  0.2521
13415SOL     OW44286   3.952   2.463   0.635 -0.1846 -0.7326  0.0628
13415SOL    HW144287   4.043   2.455   0.665 -0.5242 -0.9714  1.0660
13415SOL    HW244288   3.916   2.375   0.644 -1.1875 -0.1836  1.9852
13416SOL     OW44289   5.841   7.585   2.827  0.2997 -0.4192 -0.1115
13416SOL    HW144290   5.777   7.577   2.756  0.7954  1.1297 -0.7875
13416SOL    HW244291   5.924   7.556   2.788  0.4725 -0.0529 -0.0235
13417SOL     OW44292   4.952  10.045   6.290  0.1064  0.1625  0.0796
13417SOL    HW144293   4.912  10.076   6.371  2.2760 -1.7201  2.0368
13417SOL    HW244294   4.918   9.957   6.279  2.7714 -1.1226  1.2811
13418SOL     OW44295   1.644   0.169   1.128  0.0719  0.2010 -0.2387
13418SOL    HW144296   1.613   0.081   1.107 -1.0059  0.4421  0.2684
13418SOL    HW244297   1.564   0.222   1.134  0.6797  1.1468 -0.2241
13419SOL     OW44298   5.596   7.001   8.245  0.0250 -0.4074  0.0685
13419SOL    HW144299   5.645   7.079   8.269  1.5760 -1.5837  0.9407
13419SOL    HW244300   5.594   7.002   8.149  0.9729  0.1598  0.0394
13420SOL     OW44301   3.610   3.490   9.051  0.1889  0.2344  0.2394
13420SOL    HW144302   3.532   3.534   9.086  0.2111  0.5811 -0.1415
13420SOL    HW244303   3.602   3.500   8.956 -0.2096 -1.2595  0.0886
13421SOL     OW44304   0.943   2.712   4.978  0.6218 -0.1449  0.3619
13421SOL    HW144305   0.913   2.624   4.999  1.1394  0.3394  3.6448
13421SOL    HW244306   1.000   2.700   4.902  1.8307 -2.8923  1.5584
13422SOL     OW44307   1.831   3.456   7.439  0.4437  0.2230  0.1293
13422SOL    HW144308   1.740   3.431   7.451  1.0508 -1.8256  0.9234
13422SOL    HW244309   1.881   3.385   7.478  2.4038  0.9796 -0.8353
13423SOL     OW44310   0.782   7.569   5.451  0.4598  0.4763  0.1220
13423SOL    HW144311   0.693   7.568   5.415  1.0422  1.7093 -1.5005
13423SOL    HW244312   0.838   7.551   5.376  1.6183  0.3707  0.9870
13424SOL     OW44313   8.481   0.604   7.006  0.5057  0.1539 -0.0821
13424SOL    HW144314   8.551   0.595   7.070  0.5828  1.0411 -0.0231
13424SOL    HW244315   8.526   0.599   6.921  0.5214 -0.1263 -0.0580
13425SOL     OW44316   8.835   4.014   9.283  0.0110 -0.1757 -0.4189
13425SOL    HW144317   8.919   3.969   9.295  0.0268 -0.0404 -0.0017
13425SOL    HW244318   8.804   3.984   9.198  0.3597 -0.4276 -0.4613
13426SOL     OW44319   2.407   4.988   0.135 -0.3696 -0.0474 -0.2919
13426SOL    HW144320   2.447   4.917   0.085  1.0844  0.6950 -0.2597
13426SOL    HW244321   2.360   4.945   0.205  0.3011 -0.9902 -0.4008
13427SOL     OW44322   8.992   6.838   0.791 -0.2786 -0.5763 -0.1726
13427SOL    HW144323   8.975   6.932   0.795  1.4917 -0.2417  0.7721
13427SOL    HW244324   8.924   6.799   0.845 -0.1187  0.3269  0.7156
13428SOL     OW44325   2.829   8.645   1.244  0.2773 -0.7229  0.8980
13428SOL    HW144326   2.849   8.668   1.153 -1.9382 -2.6445 -0.1909
13428SOL    HW244327   2.773   8.716   1.275  1.1563  0.0147  0.8282
13429SOL     OW44328   2.354   7.326   1.719 -0.3305  0.1470  0.8123
13429SOL    HW144329   2.305   7.245   1.711 -0.1073  0.1671 -1.5464
13429SOL    HW244330   2.292   7.395   1.696  0.4730  0.2403 -1.3471
13430SOL     OW44331   7.969   2.304   9.719 -0.5695 -0.0934 -0.0973
13430SOL    HW144332   8.061   2.320   9.697 -0.1128  0.9906  2.2890
13430SOL    HW244333   7.960   2.209   9.720  0.3110 -0.2006 -1.0896
13431SOL     OW44334   0.932   4.339   6.161  0.0349 -0.0397 -0.1237
13431SOL    HW144335   0.843   4.347   6.128  0.6578  1.4312 -1.5950
13431SOL    HW244336   0.956   4.248   6.146 -0.5081  0.0486 -1.6625
13432SOL     OW44337   5.958   6.787   3.825  0.1360 -0.3551 -0.3151
13432SOL    HW144338   6.006   6.723   3.879  0.4874 -0.0209 -0.2303
13432SOL    HW244339   5.899   6.733   3.772  0.8411 -0.8005 -0.6638
13433SOL     OW44340   3.226   0.887  10.086  0.0098  0.2299 -0.0368
13433SOL    HW144341   3.195   0.886   9.995 -2.6350  0.2174  0.7844
13433SOL    HW244342   3.241   0.794  10.106  1.0266  0.2695 -0.5744
13434SOL     OW44343   1.090   0.639   7.369  0.8172 -0.3078 -0.3175
13434SOL    HW144344   1.166   0.665   7.317  0.4408  0.0102 -0.7200
13434SOL    HW244345   1.044   0.721   7.387 -0.0987 -0.6135 -1.1493
13435SOL     OW44346   5.884   5.147   5.824  0.3699  0.0421  0.5591
13435SOL    HW144347   5.961   5.199   5.845  0.6358 -0.9810  2.2993
13435SOL    HW244348   5.851   5.116   5.908 -1.8784  0.3256 -0.1366
13436SOL     OW44349   7.061   9.495   0.127 -0.4020 -0.7886 -0.0074
13436SOL    HW144350   7.149   9.523   0.102 -1.2840  0.5695 -1.8201
13436SOL    HW244351   7.065   9.489   0.222  1.4921 -0.2032  0.0086
13437SOL     OW44352   3.627   1.082   1.098 -0.0326  0.1242 -0.0918
13437SOL    HW144353   3.595   1.013   1.040 -1.9604  0.5602  0.3678
13437SOL    HW244354   3.647   1.155   1.039  0.4601 -0.2833 -0.4318
13438SOL     OW44355   4.663   9.020   5.782 -0.2221 -0.3030 -0.3554
13438SOL    HW144356   4.645   9.110   5.754 -1.6393 -0.4211  0.0656
13438SOL    HW244357   4.580   8.990   5.819 -0.0413 -2.0736 -1.2544
13439SOL     OW44358   2.040   1.959   9.679  0.3396  0.2363 -0.4987
13439SOL    HW144359   2.093   1.881   9.670  1.0154  0.8342 -1.9710
13439SOL    HW244360   2.001   1.972   9.593 -0.5294  0.9894 -0.0158
13440SOL     OW44361   6.490   4.643   7.863 -0.2962 -0.0942 -0.2179
13440SOL    HW144362   6.518   4.587   7.936  0.0614  0.0105 -0.2719
13440SOL    HW244363   6.534   4.726   7.879 -0.6837  0.1129 -0.2389
13441SOL     OW44364   8.279   4.826   8.381 -0.2225 -0.2546  0.1362
13441SOL    HW144365   8.314   4.903   8.336  0.5132 -0.0617  1.0286
13441SOL    HW244366   8.355   4.786   8.424 -1.1997  0.8522  3.1315
13442SOL     OW44367   4.773   5.881   0.563  0.7253 -0.3527  0.1562
13442SOL    HW144368   4.722   5.821   0.617  0.0829 -0.7452 -0.8519
13442SOL    HW244369   4.714   5.955   0.547  0.1188 -1.1591 -1.6595
13443SOL     OW44370   4.211   1.217  10.160 -0.6966 -0.6820 -0.3383
13443SOL    HW144371   4.294   1.259  10.182 -0.6850 -0.5324 -0.6589
13443SOL    HW244372   4.165   1.209  10.243 -1.2211  1.0905 -0.4363
13444SOL     OW44373   0.790  10.257   6.836 -0.0481 -0.6951  0.0112
13444SOL    HW144374   0.797  10.320   6.909 -0.1821 -0.1023 -0.4777
13444SOL    HW244375   0.708  10.280   6.793 -0.7379 -2.0407  0.5868
13445SOL     OW44376   8.496   2.192   3.969  0.2411 -0.4156 -0.2172
13445SOL    HW144377   8.519   2.284   3.983 -1.3868 -0.1474  1.0115
13445SOL    HW244378   8.545   2.145   4.037 -1.0417 -0.1028  0.9654
13446SOL     OW44379   6.669   8.371   8.565  0.4415 -0.7073 -0.0746
13446SOL    HW144380   6.735   8.430   8.601  0.0499  0.9438 -1.8437
13446SOL    HW244381   6.702   8.348   8.478 -0.3621 -1.4852 -0.1851
13447SOL     OW44382   9.564   4.684   6.196 -0.5285  0.1850 -0.1125
13447SOL    HW144383   9.584   4.621   6.265  0.4737  0.3166 -0.2715
13447SOL    HW244384   9.612   4.652   6.119  0.0503  1.1704 -0.1752
13448SOL     OW44385   9.234   8.393   1.568  0.0894  0.5306  0.3710
13448SOL    HW144386   9.198   8.404   1.479 -0.2271  0.0040  0.4344
13448SOL    HW244387   9.256   8.482   1.595 -0.7375  0.8130  0.1490
13449SOL     OW44388   4.763   1.275   8.976 -0.0676 -0.1391 -0.3585
13449SOL    HW144389   4.826   1.315   9.037 -0.1164  0.2981 -0.5901
13449SOL    HW244390   4.811   1.205   8.933  0.3904  0.4637 -0.8389
13450SOL     OW44391   9.440   0.501   6.541  0.7670 -0.2456  0.7658
13450SOL    HW144392   9.443   0.529   6.632 -1.0661  1.6134  0.3251
13450SOL    HW244393   9.486   0.570   6.493 -0.1420 -0.1025  0.0802
13451SOL     OW44394  10.134   1.710   9.359  0.5938 -0.0396  0.2126
13451SOL    HW144395  10.228   1.730   9.363  0.4827  0.9829 -1.3730
13451SOL    HW244396  10.091   1.794   9.372  0.0400  0.3997 -3.3318
13452SOL     OW44397   0.817   4.453   0.911 -0.2025  0.0739 -0.5713
13452SOL    HW144398   0.811   4.394   0.836 -0.4866 -1.0870  0.3213
13452SOL    HW244399   0.881   4.519   0.886  1.3555 -1.5394 -1.0101
13453SOL     OW44400   7.719   2.606   6.419 -0.2239 -1.0138  0.0471
13453SOL    HW144401   7.763   2.527   6.451 -0.6373 -1.8084 -1.2419
13453SOL    HW244402   7.632   2.602   6.459 -0.5433 -1.6922 -0.6961
13454SOL     OW44403   2.926   6.613   1.408  0.7239  0.5004 -0.8636
13454SOL    HW144404   2.922   6.526   1.367  0.8105 -0.4591  1.0554
13454SOL    HW244405   2.835   6.631   1.433  0.5315  1.4553 -2.1339
13455SOL     OW44406   4.862   0.486   9.676  0.4285  1.0401 -0.0731
13455SOL    HW144407   4.778   0.474   9.632 -0.2122 -1.8336  1.6578
13455SOL    HW244408   4.840   0.516   9.764  1.0722 -0.6382  0.7086
13456SOL     OW44409   4.260   8.672   4.385 -0.1162  0.0137 -0.1805
13456SOL    HW144410   4.215   8.648   4.466 -0.1557  0.1497 -0.1613
13456SOL    HW244411   4.317   8.598   4.366 -1.2699 -0.7266 -0.8891
13457SOL     OW44412   1.049   9.101   8.326 -0.3679  0.1901 -0.1672
13457SOL    HW144413   1.030   9.181   8.375  0.4604  1.4597 -1.8218
13457SOL    HW244414   0.987   9.037   8.359 -0.6148  1.3122  1.6838
13458SOL     OW44415   8.628   7.846   4.167 -0.4192 -0.1538  0.0403
13458SOL    HW144416   8.643   7.940   4.177  0.1425  0.0218 -2.0377
13458SOL    HW244417   8.568   7.824   4.238  0.3439  1.5244  1.2886
13459SOL     OW44418   5.048   5.605   2.335 -0.5734 -0.0698  0.2405
13459SOL    HW144419   5.100   5.562   2.267 -0.9176  0.2115 -0.2088
13459SOL    HW244420   5.064   5.698   2.323  0.8704 -0.0644  1.7830
13460SOL     OW44421   1.989   2.028   3.137  0.6034 -0.3469 -0.4316
13460SOL    HW144422   1.989   1.933   3.130  0.9692 -0.3708 -0.1413
13460SOL    HW244423   1.906   2.056   3.097  0.3022 -0.8117 -0.1305
13461SOL     OW44424   7.255   7.999   6.255  0.1433 -0.3951 -0.3763
13461SOL    HW144425   7.267   7.907   6.231  2.6110 -0.0196 -0.8884
13461SOL    HW244426   7.280   8.003   6.347 -0.0360 -0.2582 -0.3333
13462SOL     OW44427   4.694   2.528   5.173  0.5390 -0.1636 -0.0088
13462SOL    HW144428   4.751   2.453   5.152  2.0584  0.4390  1.6717
13462SOL    HW244429   4.642   2.498   5.248 -1.0862 -0.5380 -1.2314
13463SOL     OW44430   0.917   7.692   8.442 -0.1987 -0.0091  0.3623
13463SOL    HW144431   0.999   7.735   8.466  0.1741  1.3955 -2.8580
13463SOL    HW244432   0.850   7.759   8.455 -0.4317 -0.2457  0.3827
13464SOL     OW44433   1.387   8.933   7.345 -0.3556 -0.2506 -0.5080
13464SOL    HW144434   1.424   9.000   7.287 -1.3555 -0.3051 -1.2368
13464SOL    HW244435   1.295   8.958   7.354 -0.8339 -1.7141 -1.0638
13465SOL     OW44436   9.045   0.211   0.235  0.1327 -0.0009  0.5937
13465SOL    HW144437   9.133   0.246   0.238 -0.0837  0.5139  1.0223
13465SOL    HW244438   9.039   0.152   0.311  0.7319 -1.5706 -0.5273
13466SOL     OW44439   0.032   2.600   6.571 -0.1765 -0.0182 -0.7393
13466SOL    HW144440   0.119   2.595   6.531 -0.3788  1.3604 -1.4386
13466SOL    HW244441  -0.023   2.637   6.502 -0.9334  0.7329  0.2399
13467SOL     OW44442   0.806   1.293   3.965 -0.1725  0.7651  0.4083
13467SOL    HW144443   0.727   1.249   3.998  0.1486  0.6254  1.0060
13467SOL    HW244444   0.810   1.374   4.015  0.2793  0.5874  0.6624
13468SOL     OW44445   3.205   6.151   7.965 -0.1108  0.2112  0.8910
13468SOL    HW144446   3.220   6.246   7.958 -0.2510  0.2588  1.2298
13468SOL    HW244447   3.284   6.117   8.008 -1.3078  0.5864  3.5181
13469SOL     OW44448   6.718   5.609   7.191  0.2847  0.3303 -1.0105
13469SOL    HW144449   6.636   5.642   7.227 -0.8676  0.8203 -3.8046
13469SOL    HW244450   6.710   5.514   7.196  1.4073  0.3012  2.4179
13470SOL     OW44451   1.742   0.609   9.934 -0.4470  0.4510  0.0620
13470SOL    HW144452   1.717   0.667   9.862 -1.3585  1.5888  1.2325
13470SOL    HW244453   1.787   0.536   9.892 -1.7577  0.6082 -1.7569
13471SOL     OW44454   0.442   6.593   5.829  0.4120  0.5898 -0.0911
13471SOL    HW144455   0.403   6.651   5.894  1.0457  0.2011  0.6489
13471SOL    HW244456   0.519   6.640   5.798  0.6342  0.3678  0.1255
13472SOL     OW44457   6.330   3.448   3.196 -0.2119  0.6132  0.8074
13472SOL    HW144458   6.311   3.529   3.149  0.8397  1.3287  1.5727
13472SOL    HW244459   6.368   3.389   3.130  0.1478  1.1790  0.5059
13473SOL     OW44460   9.018   4.261   1.556  0.1481 -0.5806 -0.3939
13473SOL    HW144461   9.044   4.175   1.522  0.2682 -0.6280 -0.1797
13473SOL    HW244462   8.973   4.303   1.482 -3.4072 -2.2847  0.5887
13474SOL     OW44463   6.323   8.197   2.925 -0.9280 -0.1349 -0.1184
13474SOL    HW144464   6.232   8.223   2.927 -0.7134  0.8170 -1.5981
13474SOL    HW244465   6.321   8.101   2.925 -1.9537 -0.1217 -1.0100
13475SOL     OW44466   3.415   0.023   4.480  0.2713  0.1186 -0.1582
13475SOL    HW144467   3.463   0.001   4.401 -2.7864 -1.7298 -1.7048
13475SOL    HW244468   3.455  -0.030   4.548  1.3934 -0.1466 -1.0089
13476SOL     OW44469   4.486   0.158   2.656  0.3131 -0.0719  0.5223
13476SOL    HW144470   4.497   0.232   2.596  1.4115 -0.8933 -0.3532
13476SOL    HW244471   4.571   0.149   2.698  0.3694 -1.1472  0.2131
13477SOL     OW44472   1.832   5.263   5.881 -0.0620  0.2280 -0.2126
13477SOL    HW144473   1.779   5.192   5.919 -0.9220 -0.1961 -2.1116
13477SOL    HW244474   1.833   5.245   5.787 -0.6397  2.9551 -0.8098
13478SOL     OW44475   1.767   6.687   8.723  0.0456  0.2888  0.1131
13478SOL    HW144476   1.721   6.701   8.806  1.4841  2.6515  0.6278
13478SOL    HW244477   1.846   6.639   8.746  1.0893  2.0400  0.4272
13479SOL     OW44478   8.396   6.896   8.070 -0.0276 -0.2372 -0.2598
13479SOL    HW144479   8.398   6.980   8.026 -0.3617 -1.0552 -1.8970
13479SOL    HW244480   8.313   6.896   8.118 -0.4603  0.0119 -0.9955
13480SOL     OW44481   7.503   0.064   4.138 -0.3433  0.0766  0.4072
13480SOL    HW144482   7.511  -0.017   4.089  2.4035  0.4627  0.0633
13480SOL    HW244483   7.577   0.063   4.199  0.0368  2.4873  0.0844
13481SOL     OW44484   8.199   9.828   4.135  0.2270  0.4296  0.2118
13481SOL    HW144485   8.104   9.816   4.133  0.1891  0.7099  0.2469
13481SOL    HW244486   8.211   9.922   4.149  0.5096  0.4021  0.1679
13482SOL     OW44487   0.247   3.871   9.749  0.2784  0.1221 -0.2802
13482SOL    HW144488   0.282   3.804   9.690  1.3006 -0.3396  0.8095
13482SOL    HW244489   0.156   3.846   9.762  0.2673 -0.2347 -1.0150
13483SOL     OW44490   2.203   3.216  10.188 -0.0117 -0.4074  0.5733
13483SOL    HW144491   2.273   3.201  10.124  0.3467 -0.2949  0.9426
13483SOL    HW244492   2.215   3.148  10.254 -0.8257 -0.9799  0.1488
13484SOL     OW44493   4.403   8.713   2.706 -0.1694 -0.1971  0.0342
13484SOL    HW144494   4.494   8.739   2.688 -0.6398  1.4806 -0.1380
13484SOL    HW244495   4.410   8.629   2.750  1.5302  0.3276  0.8653
13485SOL     OW44496   2.874   8.700   0.971  0.1828 -0.4342 -0.1200
13485SOL    HW144497   2.820   8.774   0.998  2.9966  1.1733  1.5723
13485SOL    HW244498   2.936   8.737   0.907  0.8828 -1.6087 -0.1518
13486SOL     OW44499   3.336   1.290   1.991 -0.1795 -0.0560 -0.4570
13486SOL    HW144500   3.342   1.212   1.936  3.1360 -1.0474  1.0296
13486SOL    HW244501   3.399   1.351   1.953 -0.0582  0.4236  0.4727
13487SOL     OW44502   1.667   9.769   1.419  0.8289  0.1177 -0.0618
13487SOL    HW144503   1.681   9.751   1.326 -0.3612 -0.8661 -0.0866
13487SOL    HW244504   1.645   9.862   1.423  0.3142  0.0385 -0.8422
13488SOL     OW44505   1.466   5.487   7.496 -0.4708  0.4643  0.8635
13488SOL    HW144506   1.503   5.448   7.416  0.6043  1.5289  0.8009
13488SOL    HW244507   1.374   5.501   7.475 -0.2149  0.6784 -0.1908
13489SOL     OW44508   8.579   7.913   2.657  0.0204 -0.1225 -0.3425
13489SOL    HW144509   8.516   7.893   2.726  0.1623  0.5635 -0.0122
13489SOL    HW244510   8.526   7.925   2.579 -0.2279  0.1274 -0.1354
13490SOL     OW44511   1.152   9.985   6.897 -0.0731  0.2750 -0.4891
13490SOL    HW144512   1.073   9.990   6.843 -0.5561  0.1893  0.1906
13490SOL    HW244513   1.135  10.046   6.969  0.8769  0.9573 -0.8286
13491SOL     OW44514   7.495   7.280   9.802  0.6133  0.5706  0.2970
13491SOL    HW144515   7.583   7.275   9.840  1.9417  0.0461 -2.5757
13491SOL    HW244516   7.468   7.370   9.818  2.4793  1.2933 -0.3201
13492SOL     OW44517   2.191   8.800   0.067 -0.4014  0.2847  0.2724
13492SOL    HW144518   2.164   8.732   0.005  1.1156 -0.9591  0.9074
13492SOL    HW244519   2.108   8.834   0.102 -1.2555  0.2735 -1.5972
13493SOL     OW44520   6.821   9.154   3.597  0.3784  0.4920  0.4468
13493SOL    HW144521   6.789   9.116   3.515  0.4501  0.3132  0.5024
13493SOL    HW244522   6.745   9.200   3.633  0.0510 -0.3214  0.8144
13494SOL     OW44523   6.202   2.109   6.087  0.1878  0.0868  0.2754
13494SOL    HW144524   6.126   2.158   6.056  0.1192 -0.8357 -1.0728
13494SOL    HW244525   6.260   2.176   6.125 -0.8052  0.9287  0.3509
13495SOL     OW44526   4.592   9.727   4.589 -0.3865  0.4117  0.0307
13495SOL    HW144527   4.582   9.672   4.512  0.1656 -1.5639  1.2840
13495SOL    HW244528   4.503   9.754   4.611 -0.9440 -1.6285  0.4728
13496SOL     OW44529   1.056   2.839   5.877  0.4360 -0.2030  0.2485
13496SOL    HW144530   0.998   2.862   5.949  1.9611  2.5994  0.7398
13496SOL    HW244531   1.011   2.769   5.831 -2.7266  0.9593  1.3086
13497SOL     OW44532   5.034   4.812   9.029  0.2961 -0.6486  0.0543
13497SOL    HW144533   5.042   4.907   9.017 -0.7085 -0.5804 -0.1927
13497SOL    HW244534   5.107   4.789   9.086  0.5596  0.2688  0.1150
13498SOL     OW44535   5.184   7.924   9.452 -0.3153  0.6754  0.6468
13498SOL    HW144536   5.230   8.008   9.455 -0.5568  0.7902  1.2445
13498SOL    HW244537   5.169   7.908   9.359 -0.9152  1.6484  0.5670
13499SOL     OW44538   5.134   6.895   0.392 -0.7679 -0.2330  0.0949
13499SOL    HW144539   5.112   6.985   0.366 -0.3368  0.0521  0.6670
13499SOL    HW244540   5.050   6.854   0.410 -0.9977 -0.0919 -0.6353
13500SOL     OW44541   1.645   6.880   1.356 -0.7079  0.1117  0.1431
13500SOL    HW144542   1.725   6.836   1.326  0.0291 -0.7924  3.0723
13500SOL    HW244543   1.665   6.973   1.346  0.2413 -0.1160 -0.2860
13501SOL     OW44544   1.562   0.388   4.019 -0.1679  0.0028 -0.4467
13501SOL    HW144545   1.553   0.300   4.055 -2.1397  0.0989 -0.5796
13501SOL    HW244546   1.656   0.405   4.019  0.0954 -1.1367  1.8730
13502SOL     OW44547   5.686   1.882   3.695  0.0969 -0.1893 -0.2356
13502SOL    HW144548   5.720   1.841   3.775  0.1140  0.9772  0.3822
13502SOL    HW244549   5.663   1.971   3.722 -0.1973  0.1251 -1.4648
13503SOL     OW44550   7.608   8.281   9.755 -0.2651 -0.2215 -0.1257
13503SOL    HW144551   7.533   8.230   9.783 -2.7953  2.4522 -1.4901
13503SOL    HW244552   7.642   8.234   9.679 -1.2473 -0.9563 -0.1266
13504SOL     OW44553   6.282   5.947   1.827 -0.1851  0.6038 -0.0446
13504SOL    HW144554   6.356   5.941   1.767 -1.0809 -0.9874 -1.0714
13504SOL    HW244555   6.276   6.040   1.850  1.0907  1.0067 -1.2492
13505SOL     OW44556   7.546   6.738  10.276 -0.6073 -0.0589  0.5373
13505SOL    HW144557   7.502   6.653  10.265 -0.2041 -0.2193  0.1402
13505SOL    HW244558   7.601   6.747  10.198 -0.1993  0.3028  0.8626
13506SOL     OW44559   7.205   3.110   4.847 -0.7041 -0.6360 -0.1154
13506SOL    HW144560   7.259   3.182   4.814  2.5583 -1.6520  2.4193
13506SOL    HW244561   7.129   3.153   4.887  1.1244  1.5345  1.3003
13507SOL     OW44562   2.096   3.309   3.531 -0.2453 -0.7580 -0.0849
13507SOL    HW144563   2.141   3.237   3.574  2.3423  1.4916  1.2729
13507SOL    HW244564   2.115   3.297   3.438  1.0225 -1.3056  0.2178
13508SOL     OW44565   7.166   6.311   7.745  0.0902 -0.4904  0.2267
13508SOL    HW144566   7.219   6.388   7.724  1.6845 -0.5634  3.3690
13508SOL    HW244567   7.188   6.292   7.836 -2.0513 -3.2773  0.2699
13509SOL     OW44568   9.724   0.540   9.683 -0.0707  0.3800 -0.3116
13509SOL    HW144569   9.748   0.584   9.765  1.2669  0.4164 -0.6924
13509SOL    HW244570   9.636   0.506   9.699 -0.1992  1.1619  0.8169
13510SOL     OW44571   5.150   5.491   8.451  0.0707 -0.0486 -0.1549
13510SOL    HW144572   5.186   5.505   8.539  0.4626  0.9539 -0.4653
13510SOL    HW244573   5.142   5.579   8.414 -0.0722 -0.4642 -1.1356
13511SOL     OW44574   8.993   8.837   2.165 -0.5444  0.4551  0.2103
13511SOL    HW144575   8.992   8.848   2.070 -2.0064 -1.5452 -0.0512
13511SOL    HW244576   8.901   8.825   2.189  0.0649 -2.9686  1.3141
13512SOL     OW44577   1.057   8.514  10.249 -0.1275 -0.1438  0.3779
13512SOL    HW144578   1.055   8.546  10.159 -1.2178  0.1346  0.4845
13512SOL    HW244579   1.079   8.421  10.240 -2.4804 -0.7136 -0.4133
13513SOL     OW44580   9.495   7.818   8.321  0.3731 -0.2946 -0.0788
13513SOL    HW144581   9.574   7.857   8.282  0.8286 -0.6187  0.5042
13513SOL    HW244582   9.462   7.759   8.253  1.0310 -0.6830 -0.0739
13514SOL     OW44583   9.154   7.954   6.618 -0.0688 -0.3700 -0.4325
13514SOL    HW144584   9.070   7.915   6.641  0.2302 -0.8421 -0.1398
13514SOL    HW244585   9.138   8.049   6.622 -1.1315 -0.4139 -2.3708
13515SOL     OW44586   4.214   0.191   7.853  0.3468  0.3196  0.2997
13515SOL    HW144587   4.280   0.188   7.785 -0.4524 -1.1085 -0.4614
13515SOL    HW244588   4.263   0.202   7.935  1.4187  0.4708 -0.3567
13516SOL     OW44589   9.109   5.060   1.179 -0.2315 -0.4862 -0.1590
13516SOL    HW144590   9.052   5.015   1.241 -0.0429 -0.2085  0.2165
13516SOL    HW244591   9.194   5.016   1.187 -0.3465 -0.7922 -0.5983
13517SOL     OW44592   0.600   1.032   8.434  0.0645  0.3512  0.3652
13517SOL    HW144593   0.689   1.067   8.432  1.3248 -2.5301 -1.5124
13517SOL    HW244594   0.604   0.958   8.495 -0.1165 -1.6382 -1.8543
13518SOL     OW44595   3.446   7.415   3.130  0.0205 -0.2590  0.4107
13518SOL    HW144596   3.441   7.480   3.200  1.8821  0.9654 -0.5162
13518SOL    HW244597   3.496   7.343   3.169 -1.5590 -0.9568  1.2570
13519SOL     OW44598   8.074   4.153   3.911 -0.1092 -0.3979 -0.0770
13519SOL    HW144599   8.038   4.117   3.992  0.8697 -1.5352 -0.1275
13519SOL    HW244600   8.113   4.237   3.938 -2.6952  0.8999 -0.0304
13520SOL     OW44601   2.940   3.640   4.557  0.0849 -0.4256  0.1429
13520SOL    HW144602   2.975   3.624   4.645 -1.4990  0.3318  0.9412
13520SOL    HW244603   2.855   3.597   4.557  0.6532 -1.6514 -1.5350
13521SOL     OW44604   8.165   4.846   3.597  0.3868  0.0978 -0.1001
13521SOL    HW144605   8.096   4.784   3.623  0.8688 -0.1739  0.5643
13521SOL    HW244606   8.127   4.932   3.614  1.3199 -0.0234  3.4745
13522SOL     OW44607   3.667   6.285   5.571 -0.1353 -0.1672 -0.1195
13522SOL    HW144608   3.579   6.250   5.560 -0.4600  0.7593 -0.6027
13522SOL    HW244609   3.717   6.249   5.497 -1.0388  2.0771 -1.9662
13523SOL     OW44610   8.607   9.906   2.794 -0.5189  0.0710 -0.4585
13523SOL    HW144611   8.653   9.969   2.738 -0.3748  1.3580  1.0279
13523SOL    HW244612   8.555   9.853   2.734 -0.2095  1.2470 -1.8162
13524SOL     OW44613   1.192   5.385   3.155 -0.0363  0.0629  0.4478
13524SOL    HW144614   1.165   5.312   3.210 -1.9152  0.3792 -0.0033
13524SOL    HW244615   1.246   5.440   3.213 -2.1481  0.5111  2.0953
13525SOL     OW44616   9.693   5.007  10.052 -0.1901  0.6407  0.8466
13525SOL    HW144617   9.657   4.943   9.990  0.6253 -1.5056  2.4512
13525SOL    HW244618   9.757   5.056  10.001 -0.8104  0.1826 -0.4316
13526SOL     OW44619   1.201   1.010   2.621 -0.2013  0.4186  0.5313
13526SOL    HW144620   1.140   0.948   2.662  1.1269 -0.4619  1.2405
13526SOL    HW244621   1.262   0.955   2.572  0.6362  1.2188  0.6537
13527SOL     OW44622   5.596   5.298  10.057  0.4510  0.0396 -0.5651
13527SOL    HW144623   5.530   5.356  10.019  2.0924  0.7760 -2.4838
13527SOL    HW244624   5.624   5.341  10.137 -0.9478  0.0066 -0.0420
13528SOL     OW44625   4.375   5.267   3.398  0.6455 -0.3320 -0.0805
13528SOL    HW144626   4.377   5.199   3.331  0.7586 -1.1934  0.7745
13528SOL    HW244627   4.407   5.345   3.354 -0.5763 -0.5357 -1.4072
13529SOL     OW44628   5.440   9.357   5.951  0.7045  0.4185 -0.0242
13529SOL    HW144629   5.431   9.263   5.968 -2.3329  0.2967 -1.6661
13529SOL    HW244630   5.494   9.361   5.871  1.8043  0.1880  0.6811
13530SOL     OW44631   1.918   8.170   3.686  0.1872 -0.2327  0.1229
13530SOL    HW144632   1.966   8.107   3.739  0.5069 -1.0652 -1.1184
13530SOL    HW244633   1.922   8.251   3.736  0.2201 -1.0560  1.5005
13531SOL     OW44634   6.491   9.449  10.101  0.1199  0.3857 -0.1627
13531SOL    HW144635   6.500   9.474  10.010 -0.7612 -0.0752 -0.3910
13531SOL    HW244636   6.571   9.399  10.121  0.2067  0.2878 -0.7516
13532SOL     OW44637   1.686   0.116   0.830 -0.1993  0.4475 -0.3869
13532SOL    HW144638   1.611   0.107   0.772 -0.7477  1.3251  0.1674
13532SOL    HW244639   1.663   0.063   0.907 -0.8690  1.7660  0.3612
13533SOL     OW44640   0.058   6.236   9.531 -0.3996 -0.0839  0.2689
13533SOL    HW144641   0.024   6.153   9.567  1.3572 -0.3885  1.3569
13533SOL    HW244642   0.107   6.210   9.453  0.2954 -0.1163  0.7060
13534SOL     OW44643   0.631   9.800   5.872  0.2460  0.2438  0.1406
13534SOL    HW144644   0.625   9.717   5.825 -3.3941  0.4415 -0.0673
13534SOL    HW244645   0.656   9.776   5.961  1.8548 -0.7215 -0.5247
13535SOL     OW44646   6.151   0.188   9.630  0.1654 -0.0512 -0.1887
13535SOL    HW144647   6.057   0.204   9.619  0.4964  1.5200 -1.0201
13535SOL    HW244648   6.182   0.166   9.542  0.1660 -3.2552  0.5100
13536SOL     OW44649   3.098   5.538   8.290 -0.1808 -0.2719  0.2729
13536SOL    HW144650   3.108   5.537   8.386  0.5174 -1.2708  0.2025
13536SOL    HW244651   3.181   5.574   8.258 -0.4675  0.1916  0.0423
13537SOL     OW44652   1.505   9.809  10.219 -0.4330  0.4971 -0.2546
13537SOL    HW144653   1.410   9.796  10.215 -0.2101 -1.7357  0.3033
13537SOL    HW244654   1.519   9.853  10.303 -0.9051 -0.5184  0.3864
13538SOL     OW44655   3.981   6.678   0.041 -0.0818  0.0260 -0.1900
13538SOL    HW144656   3.971   6.628  -0.040 -0.0418  0.7240 -0.6321
13538SOL    HW244657   3.933   6.627   0.106  0.4683 -0.8999 -0.4942
13539SOL     OW44658   0.971   7.120   3.222 -0.2031 -0.0050  0.3199
13539SOL    HW144659   0.901   7.101   3.160  0.1515 -0.1138 -0.0493
13539SOL    HW244660   0.926   7.136   3.305 -0.5952 -1.4291  0.4041
13540SOL     OW44661   8.124  10.073   2.991  0.5180 -0.6918  0.6185
13540SOL    HW144662   8.079  10.048   2.910  1.5288  0.5186 -0.3546
13540SOL    HW244663   8.203  10.118   2.962  0.4004  0.7014  2.2919
13541SOL     OW44664   5.202   1.977   4.431 -0.2925 -0.0116 -0.3245
13541SOL    HW144665   5.291   1.977   4.395  0.4143  0.5194  1.3396
13541SOL    HW244666   5.186   1.886   4.456 -0.9165 -0.4573 -2.1605
13542SOL     OW44667  10.154   3.944   4.566  0.0434 -0.0454 -0.1765
13542SOL    HW144668  10.150   4.033   4.599 -2.8124 -0.4718  0.9663
13542SOL    HW244669  10.193   3.951   4.479 -0.2134  2.3313 -0.1463
13543SOL     OW44670   8.833   3.528   3.955 -0.2892 -0.2682 -0.1881
13543SOL    HW144671   8.855   3.608   3.907  0.9106 -0.5805 -0.2038
13543SOL    HW244672   8.811   3.558   4.043 -0.3004  0.1184 -0.3200
13544SOL     OW44673   5.415   5.094   5.450 -0.0003  0.2919 -0.7495
13544SOL    HW144674   5.329   5.053   5.435 -0.6240  1.6422 -1.0256
13544SOL    HW244675   5.467   5.025   5.492 -1.5902 -0.1805  0.5674
13545SOL     OW44676   5.275   7.141   4.572 -0.1793 -0.7261  0.3623
13545SOL    HW144677   5.186   7.119   4.547 -0.3607 -0.6980  0.9690
13545SOL    HW244678   5.267   7.179   4.660  0.2283  1.0000 -0.3195
13546SOL     OW44679   4.017   8.531   0.714 -0.3106 -0.2629 -0.1656
13546SOL    HW144680   3.963   8.602   0.750  0.5185 -1.0643  2.9644
13546SOL    HW244681   4.095   8.575   0.681 -1.1066  0.5223 -1.0685
13547SOL     OW44682   2.308   9.453   5.675  0.1813 -0.3454 -0.5465
13547SOL    HW144683   2.293   9.479   5.584  0.7143  1.4027 -0.1692
13547SOL    HW244684   2.232   9.486   5.722  0.5608 -0.0308 -0.1494
13548SOL     OW44685   6.235   9.883   1.072  0.1741 -0.7442  1.0350
13548SOL    HW144686   6.214   9.794   1.097  1.0292 -1.3080 -0.1609
13548SOL    HW244687   6.178   9.938   1.127 -1.0289 -2.0364  1.1172
13549SOL     OW44688   9.267   3.168   4.349 -0.0150 -0.1025 -0.2940
13549SOL    HW144689   9.305   3.235   4.405  0.0410 -0.0137 -0.4357
13549SOL    HW244690   9.217   3.218   4.283  1.6937 -0.0853 -1.6518
13550SOL     OW44691   5.664   0.481   7.798 -0.0269 -0.2541  0.1137
13550SOL    HW144692   5.700   0.553   7.849 -0.0594 -0.6534  0.7177
13550SOL    HW244693   5.684   0.503   7.707  0.2321  0.3606  0.3159
13551SOL     OW44694   6.678   3.730   0.216 -1.1256 -0.0602 -0.5763
13551SOL    HW144695   6.711   3.675   0.145 -1.8067  2.1097 -2.6897
13551SOL    HW244696   6.595   3.690   0.241 -0.2079 -1.6670  0.0656
13552SOL     OW44697   5.377   4.397   0.790 -0.2810 -0.0439 -0.5015
13552SOL    HW144698   5.308   4.445   0.835  0.2607 -1.7412  2.3412
13552SOL    HW244699   5.333   4.323   0.749 -0.5034  0.4818 -1.2469
13553SOL     OW44700   2.084   9.361   9.661  0.3015 -0.3223 -0.2851
13553SOL    HW144701   2.099   9.357   9.567 -0.4079  0.4065 -0.4394
13553SOL    HW244702   2.171   9.369   9.699  0.6384 -1.2463 -0.8336
13554SOL     OW44703   6.489   1.531   9.611  0.0880 -0.2106  0.1145
13554SOL    HW144704   6.545   1.605   9.587 -1.2644  1.1067  0.8291
13554SOL    HW244705   6.517   1.508   9.700  0.9072 -0.9601 -0.3319
13555SOL     OW44706   1.417   5.516   4.557 -0.6293  0.0894  0.2043
13555SOL    HW144707   1.419   5.547   4.466 -1.1919 -2.2511 -0.6716
13555SOL    HW244708   1.441   5.423   4.551 -0.6226 -0.0987  2.4726
13556SOL     OW44709   9.571   7.455   7.275 -0.0889 -0.1285  0.6795
13556SOL    HW144710   9.603   7.368   7.253 -1.0813  0.0333 -1.7157
13556SOL    HW244711   9.638   7.515   7.242 -0.4417  0.0591  0.2864
13557SOL     OW44712   7.008   6.130   6.119 -0.1633 -0.1811 -0.1086
13557SOL    HW144713   7.020   6.047   6.072  1.1350  1.0072 -2.0649
13557SOL    HW244714   7.097   6.156   6.143 -0.5850  0.5025  0.7538
13558SOL     OW44715   1.458   0.607   8.086  0.1722  0.0050  0.1101
13558SOL    HW144716   1.430   0.549   8.157 -0.2819 -1.3337 -1.1061
13558SOL    HW244717   1.554   0.604   8.089  0.1576 -0.9653 -0.0322
13559SOL     OW44718   9.965   7.867   5.591 -0.6948  0.5187  1.0243
13559SOL    HW144719   9.963   7.912   5.507  0.2632 -0.4463  0.4556
13559SOL    HW244720  10.056   7.878   5.621  0.0612 -2.3076  0.1027
13560SOL     OW44721   1.663   3.247   9.150  0.2828  0.4521  0.1483
13560SOL    HW144722   1.750   3.247   9.110 -0.2619  0.7036 -1.0798
13560SOL    HW244723   1.667   3.179   9.218  1.2843  0.1325 -0.2243
13561SOL     OW44724   0.861   9.105   8.014  0.8214 -0.0269 -0.4459
13561SOL    HW144725   0.901   9.048   8.080  0.9351 -0.0122 -0.5024
13561SOL    HW244726   0.885   9.064   7.930  1.2434  0.3279 -0.5023
13562SOL     OW44727   7.159   8.369   4.533  0.0808  0.1709  0.2332
13562SOL    HW144728   7.096   8.309   4.493  1.8211 -0.5473 -1.5962
13562SOL    HW244729   7.241   8.321   4.532  0.8160  1.3149  1.9793
13563SOL     OW44730   9.418   2.078   3.361  0.0380  0.1016 -0.7353
13563SOL    HW144731   9.422   2.127   3.279  0.4157 -0.3363 -0.9876
13563SOL    HW244732   9.326   2.083   3.388  0.0944  1.0518 -0.6824
13564SOL     OW44733   6.921   6.766   7.255 -0.2158  0.1867 -0.1798
13564SOL    HW144734   6.906   6.800   7.344  0.2991 -1.2218  0.4871
13564SOL    HW244735   7.016   6.758   7.249 -0.2555  0.2212 -0.8409
13565SOL     OW44736   4.675   0.081   8.435  0.4360 -0.5201 -0.2130
13565SOL    HW144737   4.727   0.162   8.439  0.6613 -0.6989  0.5668
13565SOL    HW244738   4.596   0.101   8.485  0.8084 -1.0009  0.5917
13566SOL     OW44739   8.283   3.956   5.601 -0.6495  0.2238  0.0632
13566SOL    HW144740   8.191   3.982   5.595 -0.9487 -0.9502 -0.6540
13566SOL    HW244741   8.311   3.944   5.511  0.5155  1.5581  0.2294
13567SOL     OW44742   0.831   2.823   3.693  0.1213  0.4877  0.2106
13567SOL    HW144743   0.762   2.812   3.759 -0.3938  0.0395 -0.3891
13567SOL    HW244744   0.912   2.807   3.740 -0.3470 -2.1218  0.2787
13568SOL     OW44745   6.790   3.686   0.506 -0.4814 -0.1159 -0.4352
13568SOL    HW144746   6.874   3.663   0.546 -0.2824 -0.9720 -1.3010
13568SOL    HW244747   6.810   3.695   0.412 -1.1307  0.8428 -0.4984
13569SOL     OW44748   8.569   4.947   0.352 -0.0098 -0.0023 -0.7183
13569SOL    HW144749   8.570   5.025   0.297 -0.1703  0.9583  0.5776
13569SOL    HW244750   8.524   4.975   0.432 -0.4072 -1.5389 -0.3715
13570SOL     OW44751   1.243   8.165   3.300 -0.2107  0.3628  0.1817
13570SOL    HW144752   1.221   8.217   3.377  0.6376 -0.7760  1.2417
13570SOL    HW244753   1.327   8.200   3.271  0.9885 -1.1531  1.6539
13571SOL     OW44754   5.039   8.050   1.131 -0.3772  0.2889  0.4684
13571SOL    HW144755   5.097   7.996   1.076  0.2147 -0.0119  1.3620
13571SOL    HW244756   4.961   8.064   1.077 -0.9585 -2.2351  0.5130
13572SOL     OW44757   6.347   8.027   6.574 -0.3417 -0.4624  0.1476
13572SOL    HW144758   6.258   8.024   6.610  0.5371 -1.6970  2.4128
13572SOL    HW244759   6.365   8.121   6.564 -1.6998 -0.1766  0.1745
13573SOL     OW44760   7.312   8.682   2.161 -0.0697 -0.0313 -0.0872
13573SOL    HW144761   7.402   8.703   2.188 -0.4558  0.0836  1.1437
13573SOL    HW244762   7.257   8.743   2.210 -0.9718 -1.6225  0.9673
13574SOL     OW44763   3.472   1.435   7.728 -0.1019  0.0881  0.1838
13574SOL    HW144764   3.450   1.524   7.757  0.5758  0.7071 -1.1127
13574SOL    HW244765   3.567   1.430   7.737  0.5478  1.1602 -3.8584
13575SOL     OW44766   1.153   8.284   3.033 -0.1964 -0.3677  0.3313
13575SOL    HW144767   1.151   8.233   3.114 -3.1199 -1.6109 -0.3904
13575SOL    HW244768   1.204   8.231   2.973 -1.7574 -1.6948  0.1063
13576SOL     OW44769  10.122   4.463   4.655 -0.2030  0.0228  0.0686
13576SOL    HW144770  10.187   4.401   4.688 -1.1393 -0.7573  0.4911
13576SOL    HW244771  10.101   4.519   4.730  0.6256  0.8703 -0.3061
13577SOL     OW44772   7.879   7.328   8.219 -0.2242  0.1477 -0.1064
13577SOL    HW144773   7.853   7.336   8.311 -1.5742  2.3466 -0.5924
13577SOL    HW244774   7.841   7.245   8.191 -0.1195 -0.3740  1.2177
13578SOL     OW44775   0.372   0.476   8.741  0.0781  0.9717 -0.0403
13578SOL    HW144776   0.289   0.522   8.756  0.0517  0.3451  1.9369
13578SOL    HW244777   0.380   0.415   8.814  2.0970  0.7245 -0.4024
13579SOL     OW44778   6.514   8.841   6.687 -0.3569  0.0574 -0.4217
13579SOL    HW144779   6.562   8.785   6.749 -1.3952  0.1110  0.4520
13579SOL    HW244780   6.568   8.919   6.678 -0.7902  0.6121  1.4360
13580SOL     OW44781   0.471   1.093   7.942  0.5526 -0.2458 -0.3850
13580SOL    HW144782   0.541   1.031   7.961  0.5443 -0.1852 -0.1523
13580SOL    HW244783   0.485   1.165   8.003  0.3151 -0.2136 -0.3659
13581SOL     OW44784   7.351   6.307   9.717  0.0590 -0.3664 -0.2566
13581SOL    HW144785   7.298   6.383   9.691  1.0953 -0.0216 -1.4484
13581SOL    HW244786   7.298   6.262   9.783 -1.1657  0.6418 -0.5225
13582SOL     OW44787   1.089   8.332   1.794 -0.1859 -0.5545  0.1923
13582SOL    HW144788   1.050   8.289   1.718 -2.2313 -2.3877  2.1334
13582SOL    HW244789   1.061   8.423   1.786  0.2569 -0.5362 -1.5871
13583SOL     OW44790   8.213   2.538   4.930 -0.9039  0.4663  0.4216
13583SOL    HW144791   8.152   2.474   4.965 -0.6540 -0.4272 -0.7144
13583SOL    HW244792   8.274   2.555   5.002 -0.7222 -0.9103  0.6207
13584SOL     OW44793   5.464   3.506   5.522  0.1664 -0.1720  0.7534
13584SOL    HW144794   5.390   3.447   5.534  0.5943 -0.7601  0.5289
13584SOL    HW244795   5.526   3.481   5.590  1.3496 -1.5744 -0.7538
13585SOL     OW44796   8.247   5.811   8.640 -0.1380  0.3025  0.2643
13585SOL    HW144797   8.256   5.876   8.571 -1.3224 -0.3446 -0.5519
13585SOL    HW244798   8.290   5.850   8.716 -1.2045  2.2504 -0.0584
13586SOL     OW44799   9.636   8.943   0.007  0.0923 -0.0538 -0.0939
13586SOL    HW144800   9.679   8.880  -0.051 -0.9713 -2.0357  1.1601
13586SOL    HW244801   9.617   9.018  -0.049  1.9124 -0.5871 -1.5148
13587SOL     OW44802   7.554   7.428   0.147 -0.3099 -0.2793 -0.3720
13587SOL    HW144803   7.468   7.437   0.189 -0.7563  0.0438 -1.3087
13587SOL    HW244804   7.609   7.492   0.191 -0.5879 -0.3837  0.1391
13588SOL     OW44805   9.629   5.191   5.875 -0.2378  0.0359 -0.3577
13588SOL    HW144806   9.698   5.138   5.834 -1.2010 -1.5274 -0.0567
13588SOL    HW244807   9.555   5.184   5.816 -0.4818  0.8072 -0.1463
13589SOL     OW44808   5.515   3.753   2.459  0.1605 -0.3353  0.2798
13589SOL    HW144809   5.503   3.660   2.440  0.7118 -0.6532  1.4047
13589SOL    HW244810   5.608   3.769   2.446 -0.0911  0.2994 -0.8479
13590SOL     OW44811   6.004   3.939   5.507 -0.0349  0.1767  0.0280
13590SOL    HW144812   5.910   3.938   5.526  0.1838  1.4162  1.3061
13590SOL    HW244813   6.016   4.013   5.449 -0.0201 -0.8494 -1.3350
13591SOL     OW44814   2.743   1.588   0.093  0.4620 -0.1900  0.9642
13591SOL    HW144815   2.794   1.614   0.016 -4.1380 -2.3848 -3.3308
13591SOL    HW244816   2.696   1.666   0.118  1.7698  0.4666  1.4909
13592SOL     OW44817   8.126   7.275   4.787  0.1723 -0.6772  0.0327
13592SOL    HW144818   8.114   7.270   4.882  1.0400 -2.1920  0.0916
13592SOL    HW244819   8.196   7.213   4.768 -0.1145 -0.5450 -1.6322
13593SOL     OW44820   3.215   7.092   6.000 -0.3775 -0.4469 -0.4088
13593SOL    HW144821   3.224   7.080   6.095  0.3790  1.7203 -0.1526
13593SOL    HW244822   3.121   7.083   5.984 -0.8232  1.2789  0.9301
13594SOL     OW44823   9.450   2.847   6.827  0.2326 -0.2300  0.3962
13594SOL    HW144824   9.367   2.827   6.869  0.7446 -1.0551  1.0502
13594SOL    HW244825   9.514   2.793   6.873  1.6420  2.4425  1.8073
13595SOL     OW44826   4.507   6.412   5.614  0.1793 -0.2329  0.0883
13595SOL    HW144827   4.570   6.484   5.619 -0.5572  0.3062  2.9983
13595SOL    HW244828   4.482   6.409   5.521  1.8386  1.8195 -0.5025
13596SOL     OW44829   5.569   5.490   0.694 -0.1385 -0.3940 -0.0304
13596SOL    HW144830   5.634   5.493   0.624  0.1094 -1.2230  0.1577
13596SOL    HW244831   5.553   5.397   0.708 -1.8745 -0.2103 -0.5424
13597SOL     OW44832   3.657   8.803   7.830  0.2008 -0.0474  0.1111
13597SOL    HW144833   3.646   8.709   7.816 -0.0045 -0.1438  0.8658
13597SOL    HW244834   3.718   8.809   7.904 -0.9767  0.3744  1.0820
13598SOL     OW44835   8.706   5.560   2.144 -0.4054  0.1204  0.4883
13598SOL    HW144836   8.799   5.553   2.162 -0.2242  1.9639  0.4861
13598SOL    HW244837   8.665   5.504   2.210  0.7012 -1.6958 -0.2746
13599SOL     OW44838   3.171   5.580   6.786 -0.1720  0.1695 -0.3290
13599SOL    HW144839   3.130   5.518   6.845 -0.7652 -0.0441 -0.9490
13599SOL    HW244840   3.219   5.526   6.723 -0.3503  0.3479 -0.6227
13600SOL     OW44841   6.438   0.219   1.476  0.4300 -0.4698 -0.1349
13600SOL    HW144842   6.503   0.148   1.485  0.0612 -0.8587 -0.4831
13600SOL    HW244843   6.483   0.284   1.422 -0.2767 -1.8077 -2.5053
13601SOL     OW44844   5.224   7.431   3.762  0.0203 -0.0765  0.5525
13601SOL    HW144845   5.157   7.379   3.807 -1.9555 -0.3505 -2.4429
13601SOL    HW244846   5.175   7.496   3.712  2.2442  2.1632  1.0676
13602SOL     OW44847   1.699   5.744   7.194  0.1576  0.7746 -0.1518
13602SOL    HW144848   1.765   5.699   7.246 -1.7181 -3.1614 -0.8562
13602SOL    HW244849   1.636   5.777   7.258  0.9069  1.3721  0.3027
13603SOL     OW44850   3.740   4.141   0.452 -0.4103 -0.2319 -0.0753
13603SOL    HW144851   3.814   4.082   0.467 -0.8870 -1.0606 -0.9070
13603SOL    HW244852   3.766   4.223   0.495  0.7659 -0.6685  0.0861
13604SOL     OW44853   3.213   5.211   0.408 -0.0318  0.4793  0.0543
13604SOL    HW144854   3.194   5.119   0.425  2.2098 -0.0342  0.0943
13604SOL    HW244855   3.217   5.251   0.495  1.3468  0.0709  0.1968
13605SOL     OW44856   8.525   6.564   1.656  0.1351  0.3068  0.2023
13605SOL    HW144857   8.445   6.584   1.706 -0.9678  0.2328 -1.4572
13605SOL    HW244858   8.552   6.649   1.621  0.8746  0.3510  0.8578
13606SOL     OW44859   8.793   3.464   1.759  0.1341 -0.8713  0.4801
13606SOL    HW144860   8.821   3.468   1.667 -0.3702 -0.3453  0.3420
13606SOL    HW244861   8.710   3.513   1.761 -0.2148 -1.4744  1.0864
13607SOL     OW44862   3.071   7.827   1.034  0.1180 -0.4917  0.0125
13607SOL    HW144863   3.109   7.831   0.946 -0.5563  0.1293 -0.2545
13607SOL    HW244864   3.146   7.806   1.091  1.0740  1.5909 -0.3887
13608SOL     OW44865   8.266   4.827   9.393 -0.6699  0.2958 -0.0170
13608SOL    HW144866   8.300   4.739   9.411  1.4817  1.1987  0.7417
13608SOL    HW244867   8.334   4.885   9.427 -2.5071  2.2779  0.4275
13609SOL     OW44868   2.321   8.915   9.138  0.0091 -0.3972  0.0301
13609SOL    HW144869   2.327   8.996   9.189  0.4072 -0.1651 -0.3777
13609SOL    HW244870   2.359   8.937   9.053  0.6048 -1.1480  0.0849
13610SOL     OW44871   1.592   8.035   5.001  0.0233 -0.1179 -0.1252
13610SOL    HW144872   1.535   8.076   4.937  0.5540  0.8487 -0.0028
13610SOL    HW244873   1.589   8.094   5.077  0.8415 -0.2626  0.0366
13611SOL     OW44874   3.065   9.132   6.103 -0.1936  0.5426 -0.3517
13611SOL    HW144875   3.041   9.158   6.014 -0.8514 -1.9459 -0.9682
13611SOL    HW244876   2.990   9.083   6.135  1.1476 -1.1080  0.4413
13612SOL     OW44877   1.225   0.793   6.533 -1.0303  0.1702  0.3647
13612SOL    HW144878   1.299   0.741   6.502 -0.2047  0.8204  1.2053
13612SOL    HW244879   1.149   0.756   6.488 -0.1259 -0.1258 -0.9673
13613SOL     OW44880   7.613   0.095   9.622  0.2473  0.1910 -0.2430
13613SOL    HW144881   7.628   0.189   9.633  0.5159  0.0601  0.6194
13613SOL    HW244882   7.529   0.079   9.665  1.4243 -0.3738  2.0691
13614SOL     OW44883   6.657   8.866   4.750 -0.2362  0.0754  0.5027
13614SOL    HW144884   6.598   8.841   4.680  1.0061 -0.9616 -0.2312
13614SOL    HW244885   6.672   8.785   4.799  2.2199 -0.2513 -0.6419
13615SOL     OW44886   2.192   3.701   3.732 -0.1162  0.0956  0.0503
13615SOL    HW144887   2.205   3.764   3.661  0.0659 -1.2832 -1.1903
13615SOL    HW244888   2.120   3.646   3.702 -0.0021 -0.5557  0.9255
13616SOL     OW44889   8.554   5.623   4.959 -0.1118 -0.2471 -0.4337
13616SOL    HW144890   8.501   5.664   4.890 -1.7815 -0.2032  0.8262
13616SOL    HW244891   8.576   5.537   4.923 -1.2536 -0.3617 -0.9296
13617SOL     OW44892   3.752   6.552   7.404 -0.2945 -0.1827 -0.3193
13617SOL    HW144893   3.763   6.574   7.496 -0.1448  1.3527 -0.6748
13617SOL    HW244894   3.681   6.609   7.374  1.2711  1.1597 -1.7093
13618SOL     OW44895   2.096   3.922   8.273 -0.1559 -0.1939 -0.1916
13618SOL    HW144896   2.127   3.867   8.345  0.8763  0.5221 -0.0726
13618SOL    HW244897   2.109   3.868   8.194  2.7792  0.5707 -0.3211
13619SOL     OW44898   6.074   6.095   2.385 -0.3417 -0.2482 -0.3282
13619SOL    HW144899   6.148   6.122   2.439 -0.3716 -0.2725 -0.2746
13619SOL    HW244900   6.030   6.028   2.437 -0.7699  0.2147 -0.0782
13620SOL     OW44901   3.522   1.779   4.450 -0.0962  0.0358 -0.0487
13620SOL    HW144902   3.442   1.793   4.400  0.7965  1.7961 -1.0653
13620SOL    HW244903   3.588   1.759   4.384  0.7503  0.7245  0.5667
13621SOL     OW44904   6.560   4.736   8.817 -0.1332  0.3624 -0.2352
13621SOL    HW144905   6.583   4.680   8.892  0.0698  0.2371 -0.3894
13621SOL    HW244906   6.644   4.761   8.780 -0.1514  2.0263  0.7408
13622SOL     OW44907   7.522   0.259   0.431  0.0674  0.4401  0.6074
13622SOL    HW144908   7.494   0.258   0.340 -0.0554  1.5059  0.6217
13622SOL    HW244909   7.598   0.201   0.434  0.3345  0.7367 -0.2617
13623SOL     OW44910   6.083   0.275   4.085  0.1043  0.1623  0.0894
13623SOL    HW144911   6.042   0.234   4.162  2.2386 -0.8613  0.7348
13623SOL    HW244912   6.049   0.225   4.011  1.3567 -1.7400  0.7362
13624SOL     OW44913   5.596  10.275   3.367  0.0128  0.1708 -0.6025
13624SOL    HW144914   5.583  10.269   3.462 -1.9334 -0.2145 -0.8509
13624SOL    HW244915   5.691  10.268   3.356  0.0992 -3.5689  1.0523
13625SOL     OW44916   9.405   4.704   6.772  0.0141  0.1242 -0.2730
13625SOL    HW144917   9.481   4.730   6.719 -1.1685  3.7166 -0.4070
13625SOL    HW244918   9.415   4.752   6.853 -1.9806  0.4408 -0.1791
13626SOL     OW44919   2.021   9.333   1.352 -0.1658 -0.7255 -0.2848
13626SOL    HW144920   2.012   9.386   1.431 -0.4558 -1.2801  0.0621
13626SOL    HW244921   1.949   9.270   1.357 -0.5452 -0.3976 -1.2874
13627SOL     OW44922   3.134   2.917   1.885  0.6939  0.4914  0.1214
13627SOL    HW144923   3.102   2.924   1.975 -2.0617 -0.8724 -0.6325
13627SOL    HW244924   3.191   2.839   1.886 -2.6442 -2.1736  0.0064
13628SOL     OW44925   0.980   8.817   4.121  0.8105  0.0306  0.0283
13628SOL    HW144926   0.919   8.849   4.187 -0.1343 -0.7058 -0.4545
13628SOL    HW244927   0.929   8.753   4.071  1.1549  1.2831 -2.0635
13629SOL     OW44928   1.653   7.487   7.936  0.1613  0.4273  0.0836
13629SOL    HW144929   1.705   7.472   8.015 -1.1380 -1.1009  0.7092
13629SOL    HW244930   1.566   7.511   7.969 -0.6102 -0.9509 -0.8114
13630SOL     OW44931  10.115   9.536   6.124 -0.1657 -0.3856  0.1335
13630SOL    HW144932  10.089   9.451   6.090  1.0150 -1.1653  1.1241
13630SOL    HW244933  10.054   9.554   6.195 -0.6231 -0.2321 -0.2899
13631SOL     OW44934   8.942   6.206   2.426  0.2305 -0.3746 -0.4262
13631SOL    HW144935   8.932   6.120   2.386  2.1049  0.4706 -2.9422
13631SOL    HW244936   8.852   6.235   2.444 -0.6028 -1.6680 -2.2188
13632SOL     OW44937  10.030   0.990   4.418 -0.0884 -0.4732 -0.1156
13632SOL    HW144938  10.045   1.074   4.375  0.1530 -0.5298 -0.1470
13632SOL    HW244939   9.936   0.986   4.434 -0.0432  0.0078  0.2960
13633SOL     OW44940   9.916   3.206   5.197 -0.1480  0.2066 -0.2450
13633SOL    HW144941   9.875   3.269   5.138  0.1422  0.9051  0.2877
13633SOL    HW244942   9.996   3.249   5.227  0.3810 -0.6638 -0.3457
13634SOL     OW44943   1.308   8.462   6.344  0.3277  0.1742 -0.3820
13634SOL    HW144944   1.317   8.526   6.415 -1.2299  0.0743 -0.0587
13634SOL    HW244945   1.309   8.514   6.264 -0.8878  0.6351 -0.1237
13635SOL     OW44946   9.104   7.795   5.114  0.2889  0.3204  0.0505
13635SOL    HW144947   9.118   7.878   5.069 -1.2132  0.6569  0.1550
13635SOL    HW244948   9.032   7.754   5.065  0.6852 -0.7097  0.2968
13636SOL     OW44949   4.451   8.443   4.373  0.7291  0.3221 -1.0410
13636SOL    HW144950   4.439   8.377   4.305  0.8249 -2.3277  1.3317
13636SOL    HW244951   4.545   8.462   4.372  0.7240  0.3314 -1.6383
13637SOL     OW44952   0.052   6.663   7.425 -0.1256 -0.0755 -0.1887
13637SOL    HW144953   0.144   6.660   7.454 -0.1662 -1.6168 -0.1414
13637SOL    HW244954   0.032   6.573   7.401 -1.7939  0.1432  0.2835
13638SOL     OW44955   3.924   3.830   8.301 -0.2208  0.0608 -0.2046
13638SOL    HW144956   3.879   3.908   8.268  0.7495  0.2894 -1.0288
13638SOL    HW244957   3.898   3.761   8.240  0.0750  0.0625 -0.3320
13639SOL     OW44958   9.096   3.550   6.661  0.2772  0.0427  0.4415
13639SOL    HW144959   9.057   3.463   6.672 -0.2006 -0.0549 -1.6805
13639SOL    HW244960   9.189   3.536   6.677  0.4139 -1.1683 -1.1888
13640SOL     OW44961   6.116   5.532   8.322 -0.4640  0.0842  0.0410
13640SOL    HW144962   6.115   5.460   8.259 -1.2578  0.9307 -0.9522
13640SOL    HW244963   6.111   5.611   8.269  2.0899  1.0061  1.0048
13641SOL     OW44964   0.214   6.621   8.629 -0.5902  0.8899  0.2686
13641SOL    HW144965   0.185   6.631   8.538 -1.7596  0.0260  0.5191
13641SOL    HW244966   0.293   6.674   8.635  0.6905 -0.6181 -1.7986
13642SOL     OW44967   7.508   8.244   0.009  0.6004 -0.0284 -0.4564
13642SOL    HW144968   7.559   8.171   0.043  0.1031 -0.7082 -1.1315
13642SOL    HW244969   7.546   8.264  -0.076  0.3377  0.0747 -0.5534
13643SOL     OW44970   0.986   6.678   0.936 -0.2805  0.5686  0.2832
13643SOL    HW144971   0.959   6.737   1.007 -2.0143 -1.0865  1.0806
13643SOL    HW244972   1.030   6.606   0.980  1.0985  0.8396 -0.6099
13644SOL     OW44973  10.257   5.316   5.621 -0.5264 -0.1127 -0.1480
13644SOL    HW144974  10.233   5.278   5.536 -1.5702  0.7319 -0.2573
13644SOL    HW244975  10.184   5.376   5.642  0.6597  1.2095  0.3758
13645SOL     OW44976   5.128   1.746   2.017 -0.0609  0.0584 -0.0931
13645SOL    HW144977   5.068   1.750   2.092  0.3479  2.2502  0.1845
13645SOL    HW244978   5.177   1.665   2.031 -1.9787 -1.0915  0.3955
13646SOL     OW44979   2.161   2.333   9.756  0.2323  1.1680 -0.2226
13646SOL    HW144980   2.144   2.423   9.783 -0.3859  0.2347  2.8415
13646SOL    HW244981   2.256   2.328   9.747  0.4744  1.6499  1.6694
13647SOL     OW44982   3.883   5.957   0.272  0.4124 -0.3650 -0.4511
13647SOL    HW144983   3.962   5.960   0.325  0.4693  1.8981 -0.5513
13647SOL    HW244984   3.820   6.012   0.319 -0.7314 -1.2172 -0.9388
13648SOL     OW44985   3.441   7.268   7.053  0.3110  0.1629 -0.5896
13648SOL    HW144986   3.364   7.255   7.108  1.4454 -1.3477  0.7216
13648SOL    HW244987   3.451   7.185   7.006  0.5211  0.7384 -1.5932
13649SOL     OW44988   7.053   4.774   1.890  0.3112 -0.3310 -0.0037
13649SOL    HW144989   7.014   4.688   1.875  1.7985 -0.5461 -3.7581
13649SOL    HW244990   7.145   4.756   1.909  0.7796  0.3762 -1.4686
13650SOL     OW44991  10.169   5.734   9.201 -0.3628  0.4655 -0.4178
13650SOL    HW144992  10.167   5.745   9.296  3.1097 -1.0675 -0.0043
13650SOL    HW244993  10.200   5.818   9.168 -0.8984  0.7822 -0.1196
13651SOL     OW44994   2.935   6.448   2.397  0.3922 -0.4538  0.1032
13651SOL    HW144995   3.001   6.474   2.333  0.7752 -0.5029  0.4774
13651SOL    HW244996   2.973   6.374   2.443 -0.4725 -1.3487 -0.5837
13652SOL     OW44997   4.862   5.545   4.887 -0.6186 -0.7498 -0.1232
13652SOL    HW144998   4.868   5.459   4.929 -0.3686 -0.4276  0.5221
13652SOL    HW244999   4.806   5.531   4.812  2.1723 -2.2741 -2.1100
13653SOL     OW45000   0.316   6.615   6.661 -0.1758 -0.1843 -0.5863
13653SOL    HW145001   0.269   6.693   6.693 -0.9021 -0.4254 -1.0381
13653SOL    HW245002   0.284   6.604   6.571  0.8176 -0.3085 -0.9283
13654SOL     OW45003   5.041   9.840   0.189 -0.1906  0.2903  0.7762
13654SOL    HW145004   5.005   9.779   0.125  0.1694 -0.5608  1.3775
13654SOL    HW245005   5.058   9.787   0.267 -0.5418  1.2968  1.5574
13655SOL     OW45006   0.304   0.716   1.235 -0.2199 -0.3780  0.6153
13655SOL    HW145007   0.395   0.693   1.252 -0.0852 -0.3245  0.0009
13655SOL    HW245008   0.276   0.653   1.168  0.1324  1.1619 -1.0703
13656SOL     OW45009   1.270   9.476   2.618 -0.4069  0.6491 -0.4617
13656SOL    HW145010   1.363   9.486   2.642  0.4198  1.8141 -3.6560
13656SOL    HW245011   1.223   9.524   2.685  1.1628 -0.6609  1.7313
13657SOL     OW45012   2.886   9.435   8.531 -0.5074 -0.0573 -0.2004
13657SOL    HW145013   2.857   9.427   8.440  2.0259  0.0972 -1.1096
13657SOL    HW245014   2.897   9.344   8.560  1.1359 -0.1394 -0.9657
13658SOL     OW45015   2.835   0.170   4.897 -0.1191  0.1138  0.2563
13658SOL    HW145016   2.779   0.194   4.823  0.2301  2.7883  0.7776
13658SOL    HW245017   2.774   0.161   4.970 -0.4853 -2.6825 -0.2632
13659SOL     OW45018   2.842   2.123   9.020  0.1772  0.3053 -0.4047
13659SOL    HW145019   2.795   2.047   8.985 -1.1461 -0.5522  2.7970
13659SOL    HW245020   2.772   2.180   9.053  1.2540  1.2374  0.3209
13660SOL     OW45021   5.988   1.858   0.373 -0.0852 -0.3167  0.8080
13660SOL    HW145022   5.926   1.796   0.335  0.2813 -0.9300  1.1825
13660SOL    HW245023   6.043   1.804   0.430  0.8276  0.1917  0.4366
13661SOL     OW45024   3.445   7.603   1.614  0.4171  0.1249  0.4483
13661SOL    HW145025   3.518   7.578   1.670 -1.1943 -1.2698  2.0450
13661SOL    HW245026   3.382   7.531   1.623 -1.5641  1.6992 -0.1115
13662SOL     OW45027   7.821   7.130   1.792 -0.6845 -1.4673 -0.0156
13662SOL    HW145028   7.799   7.206   1.847 -0.6098 -1.3279 -0.1753
13662SOL    HW245029   7.854   7.065   1.854  1.6405 -0.4759 -0.1192
13663SOL     OW45030   5.007  10.175   5.757  0.0131 -0.2103 -0.5218
13663SOL    HW145031   4.914  10.173   5.737 -0.0396 -1.7220 -0.2548
13663SOL    HW245032   5.020  10.102   5.818  1.4804 -0.4744 -1.1009
13664SOL     OW45033   6.250   0.353   6.489  0.5341  0.0627  0.4084
13664SOL    HW145034   6.177   0.397   6.530 -0.6601 -1.0482 -0.4213
13664SOL    HW245035   6.288   0.418   6.430 -1.3475 -0.0249 -0.9905
13665SOL     OW45036  10.202   6.561   2.929 -0.2620 -0.2312 -0.4431
13665SOL    HW145037  10.159   6.647   2.923  0.1443  0.0148  0.0486
13665SOL    HW245038  10.174   6.527   3.014 -2.5805 -1.7938 -1.7400
13666SOL     OW45039   2.203   9.445   0.613  0.1464  0.4410 -0.1660
13666SOL    HW145040   2.206   9.375   0.547  0.2379  1.2748 -1.0637
13666SOL    HW245041   2.173   9.401   0.693  0.7695 -0.7463 -0.5546
13667SOL     OW45042   1.610   4.861   4.330 -0.2580 -0.2120 -0.0724
13667SOL    HW145043   1.678   4.920   4.363 -0.1090  0.6157 -1.7931
13667SOL    HW245044   1.619   4.782   4.384  0.1325  0.9674  1.6610
13668SOL     OW45045   4.089   2.695   3.308 -0.0059  0.1764  0.0869
13668SOL    HW145046   4.048   2.614   3.277 -1.6788  1.3895 -1.0786
13668SOL    HW245047   4.160   2.666   3.365  0.2122 -2.1155 -1.2270
13669SOL     OW45048   0.070   0.838   9.014 -0.5302 -0.7243 -0.3352
13669SOL    HW145049   0.090   0.745   9.030  1.8944 -0.3746 -0.8483
13669SOL    HW245050   0.054   0.874   9.101  1.8345 -1.0168  0.3144
13670SOL     OW45051   0.789   1.187   4.537  0.3322 -0.2360 -0.0078
13670SOL    HW145052   0.792   1.245   4.614  0.3992 -1.8310  1.2425
13670SOL    HW245053   0.734   1.114   4.565  1.3541 -1.4481 -1.0725
13671SOL     OW45054   8.312   6.980  10.068  0.2617  0.4769  0.2484
13671SOL    HW145055   8.264   6.954  10.147 -2.4543  1.3963 -0.9743
13671SOL    HW245056   8.392   7.020  10.101 -0.1715 -0.3383  2.4704
13672SOL     OW45057   9.370   2.350   5.962  0.0419 -0.1486 -0.0287
13672SOL    HW145058   9.346   2.417   5.899  0.5723  0.4811  0.4218
13672SOL    HW245059   9.466   2.350   5.962  0.1099  1.2593  2.1833
13673SOL     OW45060   8.510   8.847   9.885 -0.0700 -0.1850  0.4786
13673SOL    HW145061   8.576   8.888   9.830  0.2771  0.2715  1.2252
13673SOL    HW245062   8.545   8.760   9.904 -0.0719 -0.2487  0.1991
13674SOL     OW45063   9.273   1.173   6.525  0.7119 -0.1786 -0.3054
13674SOL    HW145064   9.261   1.179   6.620 -1.5387  1.1474 -0.6027
13674SOL    HW245065   9.320   1.253   6.502 -0.6678  0.6012 -0.5186
13675SOL     OW45066   8.990   7.420   5.836 -0.1294  0.3524  0.1572
13675SOL    HW145067   9.014   7.432   5.744  0.4269 -0.3849  0.1936
13675SOL    HW245068   9.074   7.413   5.882 -0.3978  1.0587  0.7773
13676SOL     OW45069   5.113   7.573   9.479  0.1658  0.2668 -0.2106
13676SOL    HW145070   5.138   7.548   9.389 -0.4075  1.0324 -0.5867
13676SOL    HW245071   5.179   7.638   9.504  0.0360  0.4155 -0.2569
13677SOL     OW45072   0.233   5.472   4.642  0.6781  0.4013 -0.0776
13677SOL    HW145073   0.289   5.411   4.690  1.9149  1.0368 -0.6607
13677SOL    HW245074   0.241   5.444   4.551 -1.2595 -0.4939 -0.0229
13678SOL     OW45075   0.762   4.443   6.500  0.3650  0.4438  0.3806
13678SOL    HW145076   0.724   4.506   6.439  1.5903 -0.3866 -1.3607
13678SOL    HW245077   0.690   4.417   6.557 -0.5014  2.3039  0.2007
13679SOL     OW45078   6.766   1.058   7.780  0.2058 -0.2343 -0.2866
13679SOL    HW145079   6.714   0.983   7.753 -1.7242  0.7305  0.5955
13679SOL    HW245080   6.799   1.034   7.867 -0.5123 -0.0369  0.0490
13680SOL     OW45081  10.077   0.673   1.086 -0.2369 -0.1823  0.0865
13680SOL    HW145082  10.052   0.718   1.005  1.1637  1.0900  0.3232
13680SOL    HW245083  10.006   0.693   1.147  0.2432  1.5489  0.1148
13681SOL     OW45084   9.968   8.881   6.637 -0.1459  0.0119  0.2607
13681SOL    HW145085   9.983   8.939   6.712  0.9154  0.5276 -0.3240
13681SOL    HW245086  10.024   8.916   6.568 -2.1213  0.3950 -1.2501
13682SOL     OW45087   8.546   4.343   9.918  0.3978  0.7134 -0.3624
13682SOL    HW145088   8.604   4.310   9.849  0.2548  1.7655 -0.9975
13682SOL    HW245089   8.521   4.264   9.966  2.5903  0.2425  0.1503
13683SOL     OW45090   8.461   9.049   0.312 -0.0027 -0.2861  0.0788
13683SOL    HW145091   8.544   9.012   0.343  0.7489  1.1754 -0.0759
13683SOL    HW245092   8.475   9.063   0.218 -0.6621 -0.5905 -0.0720
13684SOL     OW45093   7.220   8.649   1.539  0.5514  0.2046  0.2851
13684SOL    HW145094   7.206   8.635   1.445  2.2211 -0.6220  0.1182
13684SOL    HW245095   7.308   8.687   1.545  0.0156  1.3353  1.4633
13685SOL     OW45096   1.929   1.565   2.172 -0.0320  0.7900  0.4479
13685SOL    HW145097   2.015   1.558   2.131  0.2364  0.7790  0.9977
13685SOL    HW245098   1.894   1.649   2.141  0.3660  1.0047  0.5678
13686SOL     OW45099   6.740   9.796   9.409 -0.0359  0.0734  0.4807
13686SOL    HW145100   6.708   9.711   9.380 -0.2460  0.0244  0.8368
13686SOL    HW245101   6.827   9.804   9.372 -0.0318 -0.2824  0.4135
13687SOL     OW45102   0.839   9.689  10.060 -0.2714  0.1663 -0.4106
13687SOL    HW145103   0.890   9.766  10.037 -0.2614 -0.1040 -1.3117
13687SOL    HW245104   0.883   9.617  10.015  0.2204 -0.5065  1.0864
13688SOL     OW45105   9.319   6.058   9.280  0.0008 -0.2595  0.0102
13688SOL    HW145106   9.330   6.046   9.186 -0.8149 -1.3790  0.0462
13688SOL    HW245107   9.228   6.034   9.297  1.2352 -4.7543  1.7519
13689SOL     OW45108   2.009   2.294   9.532  0.1476 -0.5861  0.4579
13689SOL    HW145109   2.053   2.326   9.610  1.1126  0.1793 -0.3696
13689SOL    HW245110   2.011   2.199   9.541  3.2554 -0.6910 -0.1577
13690SOL     OW45111   3.537   3.357   6.515 -0.0011  0.2910 -0.0137
13690SOL    HW145112   3.582   3.420   6.572  1.4707  0.7677 -1.6097
13690SOL    HW245113   3.545   3.394   6.427 -1.1382 -1.0061 -0.7048
13691SOL     OW45114   9.114   7.641   3.072 -0.0149 -0.1394 -0.0423
13691SOL    HW145115   9.074   7.671   3.154  0.6145 -0.2708  0.3156
13691SOL    HW245116   9.206   7.628   3.094  0.4772  1.2528 -1.1360
13692SOL     OW45117   6.104   4.800   3.592 -0.1046  0.2412  0.5037
13692SOL    HW145118   6.124   4.708   3.612  0.6052  0.1518 -0.5578
13692SOL    HW245119   6.017   4.797   3.552  0.2511 -0.0814 -0.2710
13693SOL     OW45120   6.415   7.747   7.042 -0.0573 -0.0473  0.1428
13693SOL    HW145121   6.478   7.719   6.975 -0.5268 -0.8428  0.0118
13693SOL    HW245122   6.459   7.732   7.125  0.3192  0.4085  0.0273
13694SOL     OW45123   0.534   8.458   0.827  0.1647  0.2655 -0.0298
13694SOL    HW145124   0.495   8.405   0.758 -0.7095  1.5023 -0.5347
13694SOL    HW245125   0.586   8.397   0.879  0.1239 -0.8483 -1.2575
13695SOL     OW45126   2.876   6.293   1.603 -0.3546 -0.2487 -0.2465
13695SOL    HW145127   2.887   6.357   1.673  1.4421 -0.1874 -0.5218
13695SOL    HW245128   2.782   6.278   1.598 -0.9152  2.6717 -0.4523
13696SOL     OW45129   2.479   6.129   4.350 -0.3340 -0.3382  0.4698
13696SOL    HW145130   2.387   6.152   4.336  0.0751  1.2523  0.1182
13696SOL    HW245131   2.506   6.182   4.425  0.2874 -0.8319  0.6084
13697SOL     OW45132   1.315   7.349   2.356  0.2678  0.2886 -0.0840
13697SOL    HW145133   1.270   7.285   2.301  1.1179 -0.8941  0.5348
13697SOL    HW245134   1.291   7.434   2.320  0.0948 -0.4219 -1.7152
13698SOL     OW45135   3.275   9.429   8.799  0.7441 -0.7675 -0.0884
13698SOL    HW145136   3.229   9.357   8.842  0.9249  0.0564  1.5430
13698SOL    HW245137   3.361   9.433   8.842  0.7961  0.3200 -0.2485
13699SOL     OW45138   2.043   3.563   8.338  0.6326  0.0021  0.0490
13699SOL    HW145139   2.082   3.597   8.418  0.7856  0.4147 -0.1947
13699SOL    HW245140   1.964   3.616   8.325 -0.3671 -1.2225  0.8613
13700SOL     OW45141  10.039   1.946   5.791 -0.0774  0.2692  0.2267
13700SOL    HW145142  10.007   2.035   5.805  0.4211  0.3116  1.2556
13700SOL    HW245143   9.987   1.892   5.851  0.6164  0.1042  0.7054
13701SOL     OW45144   1.698   4.872   5.062 -0.1638 -0.0023 -0.3152
13701SOL    HW145145   1.770   4.817   5.031  0.5097  0.7175 -0.0562
13701SOL    HW245146   1.693   4.852   5.156  0.2213  0.5140 -0.1778
13702SOL     OW45147   5.807   5.321   9.573  0.4480 -0.6815  0.3355
13702SOL    HW145148   5.878   5.325   9.637  1.2341  1.7709 -0.5624
13702SOL    HW245149   5.849   5.294   9.492  0.1576 -0.3101  0.0538
13703SOL     OW45150   1.329   2.658   0.283 -0.1475 -0.0845  0.0638
13703SOL    HW145151   1.405   2.601   0.269  0.1049  0.2018  0.2340
13703SOL    HW245152   1.290   2.668   0.196  0.9890  1.1156 -0.3475
13704SOL     OW45153   8.610   7.424   8.355  0.2939 -0.2602 -0.1687
13704SOL    HW145154   8.674   7.362   8.389 -1.4271 -0.8919  2.1694
13704SOL    HW245155   8.552   7.371   8.299  0.3897 -0.1966 -0.3280
13705SOL     OW45156   3.033   0.055   4.343 -0.1708  0.2884 -0.2821
13705SOL    HW145157   2.969   0.063   4.414  0.6384 -1.0839  0.6347
13705SOL    HW245158   2.991   0.100   4.269 -0.6000  2.6538  1.2917
13706SOL     OW45159   3.418   9.858   6.866  0.0206  0.2563 -0.0026
13706SOL    HW145160   3.369   9.781   6.836 -0.7893  0.6133  0.3550
13706SOL    HW245161   3.368   9.889   6.942 -1.2029  2.6676 -1.6898
13707SOL     OW45162   3.436   0.108   2.764 -0.3851  0.3462 -0.1037
13707SOL    HW145163   3.390   0.140   2.841 -0.5948 -0.7744  0.2570
13707SOL    HW245164   3.403   0.161   2.692 -0.3154  1.2887  0.5448
13708SOL     OW45165   9.500   4.508   8.650 -0.3917 -0.0083 -0.4292
13708SOL    HW145166   9.560   4.483   8.579  0.2160  0.6048 -0.1522
13708SOL    HW245167   9.431   4.557   8.606 -0.4664 -0.3545 -0.7022
13709SOL     OW45168   9.073   1.861   0.279 -0.6822 -0.0612 -0.3366
13709SOL    HW145169   9.167   1.842   0.288 -0.9183 -1.5404 -0.7094
13709SOL    HW245170   9.054   1.921   0.350  0.3117 -0.6866  0.4901
13710SOL     OW45171   3.587  10.065   1.057 -0.0410  0.0565  0.0746
13710SOL    HW145172   3.606  10.154   1.027  1.7523 -0.0001  0.8994
13710SOL    HW245173   3.497  10.048   1.027 -0.6929  2.3874  0.4724
13711SOL     OW45174  10.029   9.405   0.007  0.3851 -0.1842 -0.6205
13711SOL    HW145175  10.106   9.459  -0.012  0.0443  0.5226 -0.0213
13711SOL    HW245176   9.955   9.457  -0.024 -0.2114  1.0460  2.5330
13712SOL     OW45177   6.769   2.570   4.896 -0.4483  0.3150  0.5658
13712SOL    HW145178   6.853   2.526   4.886 -0.0913  0.5512  2.2295
13712SOL    HW245179   6.708   2.501   4.919 -0.1608  0.4620  1.8578
13713SOL     OW45180   8.628   9.336   3.528 -0.3493  0.6183  0.6258
13713SOL    HW145181   8.624   9.318   3.622 -0.4697 -0.7390  0.3867
13713SOL    HW245182   8.548   9.296   3.493  0.6448 -0.6430 -0.3010
13714SOL     OW45183   8.403   7.783   8.938  0.3590 -0.0227  0.4536
13714SOL    HW145184   8.386   7.793   9.031  0.4652 -0.9131  0.5787
13714SOL    HW245185   8.388   7.870   8.901  1.0578  0.5131  1.4114
13715SOL     OW45186   5.614   6.180   7.927  0.0956  0.0142 -0.1591
13715SOL    HW145187   5.653   6.176   8.015  1.7043  1.4381 -0.7343
13715SOL    HW245188   5.682   6.223   7.874 -1.2633  0.1415 -1.8557
13716SOL     OW45189   1.436   3.977   5.981 -0.3385  0.1060  0.0471
13716SOL    HW145190   1.396   3.931   6.054 -0.1078  0.2213  0.2484
13716SOL    HW245191   1.530   3.964   5.994 -0.3240 -1.0454 -0.9872
13717SOL     OW45192   1.654   2.001   7.238  0.1664  0.0803 -0.0573
13717SOL    HW145193   1.586   1.934   7.236  0.3417 -0.0929 -1.5343
13717SOL    HW245194   1.643   2.044   7.323 -0.6459 -1.0957  0.4549
13718SOL     OW45195   9.709   3.849   1.759 -0.2089 -0.2530 -0.1316
13718SOL    HW145196   9.639   3.839   1.695 -0.1541  1.1716 -0.4512
13718SOL    HW245197   9.773   3.907   1.716  0.1802  0.1307  0.9286
13719SOL     OW45198   1.860   1.991   4.295  0.0380 -0.0055  0.0336
13719SOL    HW145199   1.854   1.922   4.361 -1.0847 -0.1918 -0.2449
13719SOL    HW245200   1.919   2.056   4.333  0.1544 -0.5580  0.8067
13720SOL     OW45201   4.137   2.100   8.983 -0.2794 -0.2839 -0.2014
13720SOL    HW145202   4.147   2.075   9.075 -1.8149 -0.3791 -0.0372
13720SOL    HW245203   4.195   2.040   8.936 -1.3113 -1.8997  0.4951
13721SOL     OW45204   6.707   4.583   5.201  0.5133 -0.0066 -0.2002
13721SOL    HW145205   6.725   4.522   5.129 -0.7048 -0.5816 -0.0408
13721SOL    HW245206   6.779   4.646   5.197  0.3979  0.0704 -2.0384
13722SOL     OW45207   7.921   6.301   3.993 -0.2360 -0.4734  0.1074
13722SOL    HW145208   7.947   6.291   4.085 -0.1919 -0.5721  0.0845
13722SOL    HW245209   7.865   6.225   3.975  3.4188 -3.1924 -1.2510
13723SOL     OW45210   4.710   1.858   7.038  0.0390 -0.2451 -0.3810
13723SOL    HW145211   4.772   1.926   7.015  2.2784 -1.7680  0.7554
13723SOL    HW245212   4.694   1.871   7.132 -2.0565  0.5923 -0.7992
13724SOL     OW45213   4.905   2.019   1.079 -0.3993  0.2459  0.1347
13724SOL    HW145214   4.882   1.993   1.168  1.7340  0.2844  0.7458
13724SOL    HW245215   4.937   2.109   1.087 -2.2391  1.0692 -1.0593
13725SOL     OW45216   1.107   5.263   1.111 -0.0023 -0.2766 -0.1888
13725SOL    HW145217   1.195   5.291   1.084 -0.7695  2.4164 -0.1629
13725SOL    HW245218   1.115   5.168   1.125  2.5362 -0.3283 -1.5027
13726SOL     OW45219   1.008   1.531   3.373 -0.2379 -0.3640  0.1533
13726SOL    HW145220   1.089   1.507   3.418  0.6588  0.0674 -1.1827
13726SOL    HW245221   0.962   1.587   3.436  1.4329  1.0275  0.2214
13727SOL     OW45222   8.835   6.591   5.530  0.2963 -0.1185 -0.2120
13727SOL    HW145223   8.850   6.567   5.438  1.1941 -0.1323 -0.0658
13727SOL    HW245224   8.914   6.564   5.575  0.7844  1.8529  0.1973
13728SOL     OW45225   6.001   3.127   4.732  0.3375  0.4901 -0.7959
13728SOL    HW145226   6.021   3.196   4.669 -0.7449  0.4257 -1.2429
13728SOL    HW245227   5.905   3.128   4.738  0.4273  0.8404  1.2397
13729SOL     OW45228   5.333   8.389   6.791  0.2327  0.1387  0.1175
13729SOL    HW145229   5.369   8.365   6.876  0.2055  0.3837  0.1999
13729SOL    HW245230   5.408   8.421   6.741  0.3531 -0.5388 -0.1533
13730SOL     OW45231   1.697   1.301   2.505  0.3929  0.1958  0.5156
13730SOL    HW145232   1.758   1.375   2.511  1.1797 -0.4310  0.5089
13730SOL    HW245233   1.655   1.298   2.591 -2.0462  2.5884 -0.4432
13731SOL     OW45234   6.341   7.987   6.877 -0.1603 -1.0874 -0.7729
13731SOL    HW145235   6.419   8.032   6.909  0.3955 -2.2679 -0.4126
13731SOL    HW245236   6.361   7.894   6.886 -0.8060 -1.4452 -2.6287
13732SOL     OW45237   5.730   5.082   8.868 -0.0843  0.0163 -0.0966
13732SOL    HW145238   5.677   5.004   8.886  0.6504 -0.1475  1.5808
13732SOL    HW245239   5.668   5.155   8.876 -0.6631 -0.3439 -1.1415
13733SOL     OW45240   6.064   9.109   5.959  0.3392 -0.6038  0.1558
13733SOL    HW145241   6.073   9.066   5.873  0.0067 -0.8129  0.2254
13733SOL    HW245242   5.986   9.069   5.998 -0.7713  0.9846 -0.3229
13734SOL     OW45243   2.967   9.220   2.700 -0.0330  0.5820 -0.2017
13734SOL    HW145244   2.973   9.148   2.638 -0.9566  1.8940 -1.8778
13734SOL    HW245245   2.875   9.220   2.728  0.0066  1.0125 -0.0727
13735SOL     OW45246   6.309   1.944   7.209  0.1295  0.4261  0.3264
13735SOL    HW145247   6.295   1.948   7.115  0.8911 -0.6477  0.1501
13735SOL    HW245248   6.227   1.976   7.247 -0.6373 -0.2838 -0.6852
13736SOL     OW45249   3.341   7.577   4.923  0.2588  0.5391 -0.2778
13736SOL    HW145250   3.389   7.495   4.936  0.2827  0.7709  1.3530
13736SOL    HW245251   3.306   7.571   4.834  2.5880 -0.0049 -1.2230
13737SOL     OW45252   0.446   8.316   0.351 -0.0568  0.2912 -0.0785
13737SOL    HW145253   0.445   8.410   0.333 -0.2633  0.1127 -1.0697
13737SOL    HW245254   0.504   8.279   0.285  0.8988 -0.1657  0.9915
13738SOL     OW45255   3.974   6.400   4.469 -0.3233  0.0360  0.4750
13738SOL    HW145256   3.944   6.491   4.463  2.1635  0.8825 -0.3270
13738SOL    HW245257   4.051   6.404   4.525 -0.4678 -1.6870  0.8374
13739SOL     OW45258   6.378   3.506   0.053  0.0284 -0.5856  0.2464
13739SOL    HW145259   6.390   3.601   0.044 -2.0529 -0.3852 -1.2463
13739SOL    HW245260   6.457   3.468   0.014  0.0245  0.5499 -0.9386
13740SOL     OW45261   3.713   0.930   7.123  0.2386 -0.3465 -0.4141
13740SOL    HW145262   3.736   0.935   7.216 -0.9431  4.6524 -0.1034
13740SOL    HW245263   3.619   0.911   7.123  0.3741 -1.0413 -0.6588
13741SOL     OW45264   5.930   9.781   6.525 -0.5474 -0.3927 -0.1568
13741SOL    HW145265   5.991   9.764   6.596 -1.4507  1.2233  1.0746
13741SOL    HW245266   5.844   9.763   6.563 -0.9916 -0.3470 -1.1144
13742SOL     OW45267   9.447   8.049   4.578  0.0670 -0.1848  0.2825
13742SOL    HW145268   9.517   8.102   4.539 -0.8516  1.2787  0.5636
13742SOL    HW245269   9.487   8.012   4.657  0.8447 -0.2648 -0.1326
13743SOL     OW45270   7.953   3.878   0.167 -0.2250  0.1283  0.2674
13743SOL    HW145271   7.938   3.792   0.208  1.0927 -0.0878  0.3208
13743SOL    HW245272   7.865   3.915   0.159 -0.6953 -0.6244  1.5411
13744SOL     OW45273   4.879   4.948   8.487  0.6710  0.0678  0.4373
13744SOL    HW145274   4.795   4.994   8.498  1.9916  2.9288 -0.6483
13744SOL    HW245275   4.904   4.924   8.577  0.0246  1.7279  1.1113
13745SOL     OW45276   6.450   3.171   2.432  0.0506  0.0603 -0.1064
13745SOL    HW145277   6.515   3.121   2.384 -1.4648 -0.9321 -1.2359
13745SOL    HW245278   6.408   3.226   2.366  0.6608  1.7591  0.8510
13746SOL     OW45279   4.737   9.339   6.400  0.2434 -0.8964  0.0368
13746SOL    HW145280   4.802   9.330   6.330  0.2198 -1.0811  0.0402
13746SOL    HW245281   4.653   9.339   6.355  0.2608 -0.1665 -0.0173
13747SOL     OW45282   1.549   1.559   4.856  0.2755  0.4719 -1.1025
13747SOL    HW145283   1.620   1.547   4.794 -1.4122 -1.7932 -2.7550
13747SOL    HW245284   1.573   1.505   4.932  0.6545  0.2579 -1.3757
13748SOL     OW45285   5.046   5.770   0.864 -0.0915 -0.0097  0.0074
13748SOL    HW145286   5.116   5.724   0.911  1.1746  2.2507  0.5018
13748SOL    HW245287   5.022   5.843   0.921 -2.7400 -0.5589 -0.2730
13749SOL     OW45288  10.084   6.778   7.430 -0.3220 -0.1603 -0.0219
13749SOL    HW145289  10.169   6.737   7.443 -0.3301  0.1783  1.2368
13749SOL    HW245290  10.036   6.716   7.376  1.2402  0.3863 -2.1702
13750SOL     OW45291   3.671   1.169   3.964 -0.3708  0.3289  0.4260
13750SOL    HW145292   3.642   1.127   4.045 -1.3486 -1.2262 -0.6678
13750SOL    HW245293   3.765   1.154   3.961 -0.6445 -1.6633  0.2126
13751SOL     OW45294   7.189   5.903   8.943 -0.1287  0.3685 -0.3111
13751SOL    HW145295   7.105   5.875   8.979 -0.0598  1.7947  1.0876
13751SOL    HW245296   7.173   5.992   8.910  1.0381  1.1104  0.9839
13752SOL     OW45297   2.805   2.589   8.096  0.2470  0.1127  0.0091
13752SOL    HW145298   2.870   2.525   8.066  1.9695  1.3542  0.9004
13752SOL    HW245299   2.841   2.624   8.177 -2.5774 -0.5838  1.7119
13753SOL     OW45300   4.720   2.731   4.996 -0.1073 -0.4211 -0.1324
13753SOL    HW145301   4.634   2.760   4.966 -0.5942 -2.9545 -1.4619
13753SOL    HW245302   4.702   2.685   5.078 -0.0581 -0.9938 -0.4355
13754SOL     OW45303   9.922   1.445   8.933  0.1613  0.0565  0.1103
13754SOL    HW145304   9.838   1.421   8.894  0.3940 -0.2629 -0.1933
13754SOL    HW245305   9.909   1.432   9.027  0.3449 -1.4551 -0.0644
13755SOL     OW45306   4.427   0.705   3.325  0.6713 -0.2099 -0.9488
13755SOL    HW145307   4.497   0.674   3.381  0.6466  0.0458 -0.7726
13755SOL    HW245308   4.406   0.631   3.268 -0.2265 -0.9285  0.2658
13756SOL     OW45309   3.792   8.843   4.010 -0.3687 -0.5906 -0.6326
13756SOL    HW145310   3.871   8.801   4.044  0.9486  1.7971 -0.5755
13756SOL    HW245311   3.820   8.885   3.929 -1.9735 -0.8907 -1.3878
13757SOL     OW45312   2.539   5.259   1.445  0.3787  0.2734  0.8249
13757SOL    HW145313   2.533   5.261   1.540 -1.1954 -0.9970  0.7934
13757SOL    HW245314   2.620   5.212   1.427  0.4424  0.0951  1.5486
13758SOL     OW45315   5.093   2.702   5.873  0.4138  0.1162  0.3088
13758SOL    HW145316   5.126   2.791   5.885 -0.3083  0.5802 -0.9152
13758SOL    HW245317   5.051   2.703   5.787  0.8825 -1.5702  0.0101
13759SOL     OW45318   4.376   6.931   4.443 -0.1616  0.4764 -0.3594
13759SOL    HW145319   4.452   6.889   4.403 -1.2816 -0.8304 -1.1995
13759SOL    HW245320   4.323   6.960   4.369 -0.2686  1.8134  0.2173
13760SOL     OW45321   7.524   4.476   7.683  0.5793 -0.2811  0.3906
13760SOL    HW145322   7.519   4.570   7.666  0.7220 -0.3199  0.1161
13760SOL    HW245323   7.598   4.466   7.743  0.1557 -0.1549  0.9412
13761SOL     OW45324  10.163   9.473   4.935 -0.7142  0.9246 -0.1526
13761SOL    HW145325  10.127   9.395   4.976  1.1870 -0.0946 -0.3091
13761SOL    HW245326  10.203   9.522   5.006 -0.5077  0.9467 -0.2821
13762SOL     OW45327   9.154   5.786   0.676 -0.2979 -0.0000 -0.2136
13762SOL    HW145328   9.199   5.702   0.688 -1.0749 -0.3084  0.7339
13762SOL    HW245329   9.111   5.802   0.761 -2.3248  0.0427 -1.1851
13763SOL     OW45330  10.235  10.122   7.737  0.2417  0.0743 -0.3509
13763SOL    HW145331  10.226  10.027   7.729  0.4671  0.0175  0.0315
13763SOL    HW245332  10.157  10.157   7.694  0.1779 -0.2836 -0.5287
13764SOL     OW45333   9.013   2.635   2.482  0.1447  0.2117 -0.4641
13764SOL    HW145334   9.070   2.558   2.475 -0.2310 -0.3227  1.6399
13764SOL    HW245335   9.036   2.675   2.566 -1.5704  0.7924 -0.2168
13765SOL     OW45336   2.221   6.999   0.245 -0.3829 -0.7477 -0.2376
13765SOL    HW145337   2.227   6.930   0.312  0.3625  0.4504  0.9725
13765SOL    HW245338   2.192   6.953   0.166 -0.5181 -2.3385  0.6965
13766SOL     OW45339   6.492   0.968   5.188  0.0190  0.2802  0.1908
13766SOL    HW145340   6.412   0.930   5.152  0.8417 -0.9604 -0.3664
13766SOL    HW245341   6.524   0.903   5.250  0.8697  0.5473  0.0372
13767SOL     OW45342   6.902   8.970  10.015 -0.1241  0.1077  0.2817
13767SOL    HW145343   6.995   8.948  10.011 -0.5670 -2.0655  0.5343
13767SOL    HW245344   6.895   9.053   9.968  1.7304 -0.4058 -1.0371
13768SOL     OW45345   7.185   7.445   6.917 -0.1938  0.3994  0.3226
13768SOL    HW145346   7.201   7.359   6.957  3.0742  1.0435  0.6686
13768SOL    HW245347   7.098   7.470   6.949 -1.2496 -2.6950  0.2570
13769SOL     OW45348  10.069   0.438   0.030 -0.3595  0.0421 -0.4592
13769SOL    HW145349  10.055   0.356  -0.016 -1.3635  0.4288 -0.8685
13769SOL    HW245350  10.123   0.490  -0.030 -0.9569  0.2297 -0.8376
13770SOL     OW45351   6.954   8.613   2.505 -0.4996  0.2573 -0.3431
13770SOL    HW145352   6.862   8.590   2.497 -1.3317  3.3956 -1.4506
13770SOL    HW245353   6.999   8.555   2.443 -1.7213 -1.1579  0.0429
13771SOL     OW45354   3.373   8.102   6.465 -0.8637  0.5279 -0.2735
13771SOL    HW145355   3.439   8.033   6.468 -3.1023 -1.7857 -0.9993
13771SOL    HW245356   3.397   8.161   6.536  1.1098 -1.0140  0.4359
13772SOL     OW45357   9.564   3.655   2.562  0.1963  0.4567  0.5911
13772SOL    HW145358   9.558   3.744   2.528 -2.4846 -0.0656 -0.5852
13772SOL    HW245359   9.626   3.611   2.504 -0.4541  0.9172 -0.4875
13773SOL     OW45360   6.425   0.335   8.710  0.0113  0.3565  0.1987
13773SOL    HW145361   6.487   0.272   8.673 -0.3668  0.3625 -0.4642
13773SOL    HW245362   6.339   0.300   8.686 -0.1976  2.0749 -1.8506
13774SOL     OW45363   6.051   5.474   4.686  0.1546  0.1039  0.2429
13774SOL    HW145364   6.059   5.523   4.604 -0.2599 -1.8478 -1.0471
13774SOL    HW245365   5.966   5.501   4.722 -0.7737 -0.7212 -1.2313
13775SOL     OW45366   4.959   0.260   6.377  0.4585  0.1435 -0.2544
13775SOL    HW145367   4.939   0.352   6.388  1.0361  0.1629  0.8084
13775SOL    HW245368   5.018   0.257   6.301 -0.3635  0.5154 -0.9198
13776SOL     OW45369   7.467   4.467   0.964 -0.2055  0.2820 -0.1676
13776SOL    HW145370   7.420   4.550   0.974  1.3553  1.4829 -1.9809
13776SOL    HW245371   7.489   4.441   1.053 -0.9031  1.7115  0.4596
13777SOL     OW45372   6.215   1.731   0.188  0.6167 -0.2564 -0.1217
13777SOL    HW145373   6.138   1.675   0.187  0.7270 -0.4140  0.0650
13777SOL    HW245374   6.279   1.685   0.132 -0.2997  1.1514 -2.4532
13778SOL     OW45375   4.928   4.741   2.271  0.8294 -0.4808  0.7787
13778SOL    HW145376   4.866   4.812   2.289  0.3699 -0.7502  0.2926
13778SOL    HW245377   4.964   4.763   2.185  0.2181 -1.1470  0.3329
13779SOL     OW45378   9.797   3.566   9.901 -0.1924  0.1018 -0.7873
13779SOL    HW145379   9.747   3.492   9.935 -1.9094  1.6015  0.1278
13779SOL    HW245380   9.878   3.566   9.953 -1.5442  0.6643  1.4790
13780SOL     OW45381   0.965   9.506   9.006  0.3859  0.3499  0.4240
13780SOL    HW145382   0.925   9.471   9.086  0.0242  1.1513  0.5996
13780SOL    HW245383   0.981   9.428   8.952  0.9607 -0.2330  1.4110
13781SOL     OW45384  10.276   7.605   5.424 -0.3108 -0.1702  0.0423
13781SOL    HW145385  10.276   7.611   5.520  3.3878 -2.2700  0.3406
13781SOL    HW245386  10.299   7.693   5.395 -1.4507  0.4898  1.0105
13782SOL     OW45387   2.042   0.173   2.004 -0.3075  0.0289 -0.1293
13782SOL    HW145388   1.950   0.189   1.982 -0.2298  0.0911 -0.4109
13782SOL    HW245389   2.078   0.132   1.926  0.1317  0.8362 -0.3562
13783SOL     OW45390   9.106   8.643   4.229  0.1400 -0.4251 -0.2771
13783SOL    HW145391   9.147   8.675   4.309  3.0315 -1.0540 -1.3582
13783SOL    HW245392   9.134   8.704   4.161  0.8550 -1.8865 -1.3703
13784SOL     OW45393   5.345   2.729   8.056  1.0797  0.1993 -0.3072
13784SOL    HW145394   5.256   2.742   8.090  1.7159 -1.6530  2.3852
13784SOL    HW245395   5.382   2.817   8.054 -0.2418  0.8050  0.2867
13785SOL     OW45396   4.992   3.212   4.310  0.0362  0.2347  0.1997
13785SOL    HW145397   4.961   3.153   4.380  1.7690 -2.3980 -1.0691
13785SOL    HW245398   4.958   3.298   4.334  0.2919 -0.5578  4.1238
13786SOL     OW45399   2.015   3.300   2.549 -0.1437 -0.0650  0.2104
13786SOL    HW145400   2.002   3.211   2.515  0.2409  0.2717 -0.8489
13786SOL    HW245401   1.951   3.308   2.620 -0.5374 -1.0053 -0.0231
13787SOL     OW45402   2.769   0.731   8.045 -0.0606  0.1160  0.0707
13787SOL    HW145403   2.730   0.644   8.056  0.4421 -0.1706 -0.3545
13787SOL    HW245404   2.787   0.738   7.951  0.6384  0.3555  0.2169
13788SOL     OW45405   0.335   4.706   8.647  0.2486  0.1193  0.1125
13788SOL    HW145406   0.326   4.611   8.654 -0.6569  0.2863  1.6517
13788SOL    HW245407   0.423   4.719   8.612  0.3220 -1.2754 -0.2936
13789SOL     OW45408   2.830   5.050   8.361 -0.0798 -0.4558  0.1442
13789SOL    HW145409   2.764   4.988   8.330 -0.3246  0.1695 -0.6056
13789SOL    HW245410   2.797   5.136   8.334  0.5529 -0.0475  0.6402
13790SOL     OW45411   0.269   2.527   0.478  0.3729  0.0886  0.1846
13790SOL    HW145412   0.360   2.507   0.498  0.6190  0.8353 -0.1448
13790SOL    HW245413   0.261   2.621   0.495 -0.2477  0.0880 -0.0892
13791SOL     OW45414   0.574  10.210   5.658 -0.1004 -0.0089 -0.1359
13791SOL    HW145415   0.530  10.159   5.590  0.5765  0.8158 -1.2156
13791SOL    HW245416   0.644  10.154   5.690 -0.4040 -0.3885 -0.1392
13792SOL     OW45417   1.376   7.643   1.882  0.6117 -0.5266  0.5016
13792SOL    HW145418   1.289   7.617   1.911  0.5934 -0.1216  0.8174
13792SOL    HW245419   1.365   7.731   1.846  0.7685 -0.7418 -0.0823
13793SOL     OW45420   1.248   1.320   8.432  0.3180 -0.0321 -0.6823
13793SOL    HW145421   1.261   1.324   8.527 -1.4167 -0.6478 -0.3984
13793SOL    HW245422   1.332   1.288   8.399  1.0000  0.3141  0.6153
13794SOL     OW45423   3.872   6.872   3.699 -0.2691 -0.4804 -0.1003
13794SOL    HW145424   3.849   6.796   3.752 -2.0694  0.7800  1.0231
13794SOL    HW245425   3.798   6.932   3.709  1.4387  1.7989 -0.2401
13795SOL     OW45426   4.462   2.931   8.578 -0.2454 -0.2276  0.0809
13795SOL    HW145427   4.457   2.837   8.594 -0.4486 -0.5676 -1.7611
13795SOL    HW245428   4.540   2.959   8.625  0.8210 -1.6453 -0.7585
13796SOL     OW45429   8.250   3.566   5.224 -0.3968  0.1184 -0.3177
13796SOL    HW145430   8.334   3.600   5.254  0.4640 -1.4249 -0.8652
13796SOL    HW245431   8.272   3.506   5.153 -2.0450  0.3893 -1.1037
13797SOL     OW45432   1.308   4.952   2.973 -0.1276  0.4905  0.1315
13797SOL    HW145433   1.392   4.911   2.953 -0.1862  0.8854 -0.9798
13797SOL    HW245434   1.271   4.974   2.888 -2.0632 -1.0258  0.5182
13798SOL     OW45435   6.850   1.562   6.727 -0.5604  0.3017 -0.1509
13798SOL    HW145436   6.870   1.610   6.646  1.1418  0.3100  0.2455
13798SOL    HW245437   6.781   1.613   6.768 -1.7116  0.1124 -1.7436
13799SOL     OW45438   2.248   1.511   0.999 -0.2737  0.7467 -0.5553
13799SOL    HW145439   2.336   1.475   0.988 -0.5844  0.2551 -1.5722
13799SOL    HW245440   2.262   1.602   1.027  0.5366  0.4523  0.0340
13800SOL     OW45441   1.965   7.983   2.486 -0.6657 -0.6557 -0.4059
13800SOL    HW145442   1.926   8.013   2.403  1.0549  0.2842 -0.9120
13800SOL    HW245443   2.034   8.046   2.504 -2.1094  0.2533  2.7181
13801SOL     OW45444   6.657   9.825   5.977 -0.0036  0.2020  0.0301
13801SOL    HW145445   6.721   9.897   5.981  2.3911 -1.7817  0.1873
13801SOL    HW245446   6.609   9.841   5.896  0.8175  1.6838 -0.2102
13802SOL     OW45447   7.049   4.390   9.831 -0.6009 -0.0321  0.1184
13802SOL    HW145448   7.046   4.304   9.871 -3.2554 -0.8248 -1.4845
13802SOL    HW245449   7.141   4.407   9.815  0.1732 -1.4868  2.6074
13803SOL     OW45450   8.407   6.578   7.677 -0.2048  0.1530  0.1350
13803SOL    HW145451   8.352   6.577   7.598  1.1326 -1.1009 -0.8531
13803SOL    HW245452   8.452   6.662   7.673 -0.5080  0.3079 -0.1742
13804SOL     OW45453   5.331   9.035   8.380  0.2010 -0.4974 -0.4412
13804SOL    HW145454   5.308   9.126   8.398  1.1915 -0.4241  0.6694
13804SOL    HW245455   5.271   9.007   8.311 -1.4536  0.3826  0.5802
13805SOL     OW45456   4.528   1.911   0.813  0.5186  0.6949 -0.0039
13805SOL    HW145457   4.507   1.947   0.899  0.7330  0.5094  0.1285
13805SOL    HW245458   4.610   1.953   0.788  1.3796 -0.5203  0.6610
13806SOL     OW45459   6.224   9.448   3.798  1.0659 -0.6370 -0.0761
13806SOL    HW145460   6.290   9.476   3.736  0.9317  1.8359  0.7743
13806SOL    HW245461   6.142   9.449   3.749  1.1967 -0.4513 -0.2870
13807SOL     OW45462   4.010   6.313   9.567 -0.3550 -0.1322  0.1241
13807SOL    HW145463   4.061   6.237   9.592 -1.2685 -0.8530 -0.1409
13807SOL    HW245464   3.937   6.315   9.629  0.6991  1.7236  1.4325
13808SOL     OW45465   0.843   0.958   2.171 -0.0011 -0.1583  0.1425
13808SOL    HW145466   0.811   1.027   2.229 -0.0761 -0.6986  0.7552
13808SOL    HW245467   0.933   0.944   2.198  0.1587  0.0126 -0.2900
13809SOL     OW45468   6.630   4.114   2.282 -0.4517  0.0102 -0.0678
13809SOL    HW145469   6.580   4.091   2.204  1.3536  0.3562 -1.4071
13809SOL    HW245470   6.566   4.150   2.342 -1.8203  0.3454 -1.6573
13810SOL     OW45471   2.309   0.570   5.590 -0.1329  0.3192  0.7103
13810SOL    HW145472   2.264   0.488   5.570 -2.2514  2.1226 -2.9411
13810SOL    HW245473   2.262   0.606   5.665 -1.1107 -0.4371  0.4821
13811SOL     OW45474   7.954   2.073   6.599 -0.1234  0.0195  0.1668
13811SOL    HW145475   7.941   1.979   6.602 -1.2315  0.0414 -2.2275
13811SOL    HW245476   7.920   2.105   6.682 -1.2827 -1.5238  0.3139
13812SOL     OW45477   5.787   2.829   2.379  0.1882 -0.0834  0.2015
13812SOL    HW145478   5.803   2.924   2.382  0.0481  0.0627 -1.9645
13812SOL    HW245479   5.737   2.816   2.298  0.3074 -2.0234  0.3953
13813SOL     OW45480   5.761   6.192   1.089  0.1222 -0.0059 -0.2251
13813SOL    HW145481   5.781   6.275   1.132 -0.1527 -0.4210  0.7389
13813SOL    HW245482   5.844   6.143   1.094  0.9072  0.9500 -2.6314
13814SOL     OW45483   7.958   3.216   3.965  0.2958  0.3147 -0.2272
13814SOL    HW145484   7.962   3.259   4.050  1.9744  0.2041 -0.2137
13814SOL    HW245485   7.888   3.151   3.974 -0.2787  1.0379  0.6974
13815SOL     OW45486   2.404   8.655   7.450 -0.5655 -0.2780  0.0873
13815SOL    HW145487   2.378   8.747   7.443 -0.7955 -0.3615 -0.1715
13815SOL    HW245488   2.482   8.648   7.394  1.4094  0.4727  2.5306
13816SOL     OW45489   2.475   0.952   4.603  0.5104  0.6107  0.2207
13816SOL    HW145490   2.563   0.967   4.568  1.1185 -0.4974  1.1973
13816SOL    HW245491   2.488   0.941   4.697 -0.4559 -1.0525  0.1937
13817SOL     OW45492   0.172   2.224   5.683 -0.0042 -0.2529  0.0700
13817SOL    HW145493   0.245   2.232   5.620  0.2682  0.3316  0.4431
13817SOL    HW245494   0.209   2.255   5.766  0.2098 -2.7939  0.9951
13818SOL     OW45495   4.331   2.817   8.996  0.3517  0.0705  0.6467
13818SOL    HW145496   4.393   2.887   9.017  0.6291 -0.1767  0.6531
13818SOL    HW245497   4.369   2.775   8.919  0.5290 -0.5018  1.0443
13819SOL     OW45498   1.754   0.124   1.998  0.1290  0.1402  0.0101
13819SOL    HW145499   1.675   0.146   1.950 -0.0596  0.1279  0.3140
13819SOL    HW245500   1.751   0.029   2.008  0.7079  0.0136 -0.8882
13820SOL     OW45501   5.068   6.109   7.965  0.0547  0.6474  0.4720
13820SOL    HW145502   5.062   6.196   8.005  2.7415  0.4390  1.5410
13820SOL    HW245503   5.069   6.126   7.871  1.9273  1.9771  0.6683
13821SOL     OW45504   0.299   3.856   7.332  0.3219 -0.0642 -0.2398
13821SOL    HW145505   0.224   3.842   7.390  0.4509  1.4105  0.3163
13821SOL    HW245506   0.355   3.918   7.379 -1.5519  4.6975 -3.4777
13822SOL     OW45507   4.973   4.895   0.493 -0.3382 -0.0633 -0.1952
13822SOL    HW145508   4.924   4.976   0.477  0.3759  0.4608  0.2561
13822SOL    HW245509   5.020   4.879   0.411 -0.5912 -0.1123 -0.3349
13823SOL     OW45510   7.813   9.940   9.506 -0.2715  0.0656  0.1515
13823SOL    HW145511   7.735   9.985   9.537 -1.1049 -1.5459  0.5015
13823SOL    HW245512   7.803   9.849   9.536  0.3060 -0.8878 -2.2865
13824SOL     OW45513   0.395   5.888   5.196 -0.6471 -0.5568 -0.2263
13824SOL    HW145514   0.330   5.852   5.136 -0.8943 -0.9830  0.2882
13824SOL    HW245515   0.425   5.813   5.247 -1.7363  0.0427  1.4058
13825SOL     OW45516   4.094   6.523   8.707  0.3213 -0.3531  0.6061
13825SOL    HW145517   4.118   6.529   8.800  0.9845  0.8001  0.3888
13825SOL    HW245518   4.172   6.487   8.665  0.5041  0.3491  0.3316
13826SOL     OW45519   0.116   3.725   3.830  0.2273 -0.2444  0.0938
13826SOL    HW145520   0.085   3.692   3.746  0.1269  1.2068 -0.4670
13826SOL    HW245521   0.057   3.797   3.851 -1.7995 -2.4669  2.9941
13827SOL     OW45522   2.077   5.390   9.130  0.4736  0.7440  0.4124
13827SOL    HW145523   2.033   5.341   9.199  0.5991  2.2991  1.6602
13827SOL    HW245524   2.069   5.482   9.157  2.0128  1.2750 -0.7707
13828SOL     OW45525   8.392   2.876   9.507  0.5678  0.0035  0.6096
13828SOL    HW145526   8.389   2.972   9.498 -1.4951  0.1229  1.7648
13828SOL    HW245527   8.478   2.858   9.545  2.1513  1.0669 -2.1459
13829SOL     OW45528   2.955  10.208   2.901 -0.9912 -0.1581 -0.5794
13829SOL    HW145529   3.027  10.246   2.951 -0.8734 -0.4300 -0.5403
13829SOL    HW245530   2.941  10.122   2.941 -1.5313  0.0096 -0.3966
13830SOL     OW45531   5.156   4.409   9.340  0.4574  0.5604 -0.6975
13830SOL    HW145532   5.229   4.393   9.400 -1.8533 -2.5596  1.6395
13830SOL    HW245533   5.124   4.321   9.318 -2.7670  1.7821 -1.3711
13831SOL     OW45534   7.367   8.098   5.611  0.6842 -0.5093  0.3263
13831SOL    HW145535   7.388   8.031   5.676 -0.2298 -0.0366  1.1333
13831SOL    HW245536   7.340   8.174   5.663 -3.0811 -1.0603 -0.5348
13832SOL     OW45537   6.100   4.733   3.000 -0.3013 -0.0585 -0.1229
13832SOL    HW145538   6.151   4.655   2.978 -1.5676 -0.5747 -1.3772
13832SOL    HW245539   6.039   4.743   2.927  1.5686  3.6491 -1.4314
13833SOL     OW45540   4.375   1.771   2.205 -0.3434 -0.9262  0.2466
13833SOL    HW145541   4.387   1.857   2.166 -0.0708  0.2927  2.7712
13833SOL    HW245542   4.418   1.777   2.290 -1.5497 -3.0987  1.1119
13834SOL     OW45543   4.904   3.677   5.930 -1.2831  0.1059 -0.1338
13834SOL    HW145544   4.875   3.589   5.907 -0.1317 -0.4320  0.3983
13834SOL    HW245545   4.825   3.720   5.963 -1.5104 -1.3069  1.2948
13835SOL     OW45546   4.660  10.284   7.364 -0.6377 -0.3667  0.1677
13835SOL    HW145547   4.659  10.210   7.303 -2.0072  1.3275 -2.0318
13835SOL    HW245548   4.644  10.245   7.450  1.5444 -2.8866 -0.4646
13836SOL     OW45549   8.210   9.880   6.656 -0.2960 -0.1920 -0.5650
13836SOL    HW145550   8.145   9.817   6.626 -0.6837  0.1950 -0.5578
13836SOL    HW245551   8.257   9.835   6.726 -0.9929 -0.2545 -0.1245
13837SOL     OW45552   8.752   2.079   8.558  0.0491 -0.5523 -0.1820
13837SOL    HW145553   8.659   2.083   8.534 -0.0851  0.5294  0.4788
13837SOL    HW245554   8.751   2.059   8.652  0.4458  0.8816  0.1412
13838SOL     OW45555  10.131   1.599   2.288  0.1825  0.0173 -0.5124
13838SOL    HW145556  10.099   1.526   2.236 -0.6055 -0.4364  0.5615
13838SOL    HW245557  10.201   1.562   2.341  0.7043  0.3759 -0.9416
13839SOL     OW45558   8.508   9.821   4.725  0.2461 -0.8462  0.1528
13839SOL    HW145559   8.541   9.731   4.726  1.2094 -0.5292 -0.8971
13839SOL    HW245560   8.432   9.820   4.784 -0.4993 -2.6279 -0.7628
13840SOL     OW45561   1.090   3.581   0.743 -0.0363  0.5752 -0.2855
13840SOL    HW145562   1.015   3.622   0.698 -0.6543  0.5932  0.7396
13840SOL    HW245563   1.127   3.522   0.677 -2.0801 -0.8440 -0.2579
13841SOL     OW45564   8.228   0.084   1.077 -0.6907 -0.8959 -0.3084
13841SOL    HW145565   8.144   0.076   1.124 -1.1116 -0.7735 -1.0180
13841SOL    HW245566   8.276   0.005   1.100 -1.4502 -1.4969 -0.7637
13842SOL     OW45567   0.849   7.400   4.018 -0.2116 -0.2815 -0.1490
13842SOL    HW145568   0.782   7.389   4.085 -0.2631  0.6003 -0.0409
13842SOL    HW245569   0.817   7.349   3.943 -1.7870  1.3570 -0.6421
13843SOL     OW45570   6.452   5.365   1.337  0.3668  0.0798 -0.0120
13843SOL    HW145571   6.506   5.292   1.369 -0.4528 -0.0453  1.1449
13843SOL    HW245572   6.363   5.330   1.334  0.0259  0.9085  0.1233
13844SOL     OW45573   9.204   4.652   4.951 -0.2491  0.8020  0.4619
13844SOL    HW145574   9.292   4.662   4.986  0.0870  0.7642 -0.3509
13844SOL    HW245575   9.150   4.712   5.003  0.4074  1.4394  0.4180
13845SOL     OW45576   4.243   7.421   6.096 -0.2274 -0.6073 -0.6724
13845SOL    HW145577   4.229   7.411   6.190 -0.8795 -0.5186 -0.7523
13845SOL    HW245578   4.256   7.515   6.084 -1.3677 -0.4497 -0.8102
13846SOL     OW45579   9.310   2.379   1.434  0.6099 -0.3607  0.4322
13846SOL    HW145580   9.323   2.474   1.437  0.4761 -0.0699 -3.2518
13846SOL    HW245581   9.398   2.342   1.442  1.0358  0.2925 -0.9153
13847SOL     OW45582   0.466   4.861   8.371  0.0272  0.0980  0.4047
13847SOL    HW145583   0.497   4.808   8.444  0.7506 -1.7745 -1.1885
13847SOL    HW245584   0.545   4.883   8.321 -0.6009  0.0418 -0.6567
13848SOL     OW45585   3.359  10.226   5.066 -0.0850 -0.1960  0.0735
13848SOL    HW145586   3.409  10.290   5.017 -1.0468  0.9126  0.4997
13848SOL    HW245587   3.389  10.141   5.033  1.4233  0.4444 -0.2841
13849SOL     OW45588   3.271   9.358   9.157 -0.2147 -0.0210  0.1270
13849SOL    HW145589   3.194   9.400   9.120 -0.8418 -1.8098 -0.7421
13849SOL    HW245590   3.315   9.427   9.206 -0.8369  1.7696 -1.6971
13850SOL     OW45591   7.777   0.422   1.059  0.3802 -0.9336  0.0471
13850SOL    HW145592   7.854   0.450   1.010  0.0887  0.3355  0.2858
13850SOL    HW245593   7.798   0.442   1.150 -0.3864 -0.1980  0.0682
13851SOL     OW45594   2.130   4.095   7.520  0.1653 -0.4014 -0.4885
13851SOL    HW145595   2.166   4.059   7.602  2.2795  1.3948 -0.5515
13851SOL    HW245596   2.122   4.019   7.463  1.4498 -1.2764  0.4311
13852SOL     OW45597   3.043   7.370   6.647 -0.3517  0.7952 -0.1959
13852SOL    HW145598   3.022   7.339   6.735  2.1346 -1.2120 -0.1895
13852SOL    HW245599   2.966   7.347   6.595  0.2090 -3.2459  0.4155
13853SOL     OW45600   3.532   0.501   4.467 -0.0481  0.1257  0.1426
13853SOL    HW145601   3.620   0.490   4.503 -0.3493 -0.4748  0.7215
13853SOL    HW245602   3.516   0.421   4.417 -0.1067  0.4168 -0.3062
13854SOL     OW45603   7.724   0.964   7.223 -0.5417 -0.2196 -0.1400
13854SOL    HW145604   7.673   0.884   7.232 -1.4468  0.4259  0.7195
13854SOL    HW245605   7.663   1.027   7.185  0.4559 -0.1858 -1.8148
13855SOL     OW45606   0.400   8.070   8.137  0.5050 -0.2873  0.2940
13855SOL    HW145607   0.455   8.121   8.078 -1.1681 -0.8639 -1.9105
13855SOL    HW245608   0.403   7.981   8.102 -1.7133 -0.3494  0.1282
13856SOL     OW45609   6.992   8.466   3.175 -0.1228  0.1828 -0.0143
13856SOL    HW145610   7.070   8.435   3.222 -0.1384 -0.2739 -0.2857
13856SOL    HW245611   6.937   8.388   3.166  0.3580 -0.0073 -1.7524
13857SOL     OW45612   7.319   4.648   2.983  0.0010  0.5559  0.6208
13857SOL    HW145613   7.400   4.636   2.933 -0.5792 -0.6515 -0.0782
13857SOL    HW245614   7.321   4.740   3.010  1.0095  0.8703 -0.4383
13858SOL     OW45615   5.375   8.713   5.922 -0.0273 -0.4083  0.1375
13858SOL    HW145616   5.429   8.703   6.000  0.2145  1.2778  0.2391
13858SOL    HW245617   5.301   8.767   5.951 -0.0146  0.1090 -0.7493
13859SOL     OW45618   1.829   0.859   3.945 -0.3466  0.0895 -0.5324
13859SOL    HW145619   1.881   0.819   4.015  0.5620  0.4681 -0.9827
13859SOL    HW245620   1.804   0.945   3.979  1.1294  0.7774 -1.1273
13860SOL     OW45621   2.313   7.848   0.189  0.3026  0.1828  0.1268
13860SOL    HW145622   2.264   7.773   0.222 -1.3334  0.9612 -0.3790
13860SOL    HW245623   2.267   7.872   0.108  0.4404  2.0348  0.5473
13861SOL     OW45624  10.258   1.246   1.983 -0.5926 -0.0401 -0.3646
13861SOL    HW145625  10.292   1.160   2.008 -1.6176 -0.6036 -0.8519
13861SOL    HW245626  10.335   1.297   1.959  0.0246 -0.8234 -0.0683
13862SOL     OW45627   0.141   0.361   0.670  0.2149 -0.3947 -0.5692
13862SOL    HW145628   0.175   0.365   0.581  0.5282 -1.2932 -0.5085
13862SOL    HW245629   0.219   0.344   0.724  0.6053  3.3611  0.3205
13863SOL     OW45630   2.239   3.584   9.173 -0.1316 -0.1537  0.5141
13863SOL    HW145631   2.292   3.523   9.122  0.0501 -1.5251  2.2576
13863SOL    HW245632   2.283   3.590   9.257 -2.4051 -0.9956  1.8769
13864SOL     OW45633   2.324   2.480   4.761 -0.6784 -0.1335  0.2648
13864SOL    HW145634   2.374   2.400   4.743 -0.8980 -0.2457  0.1417
13864SOL    HW245635   2.353   2.542   4.695  1.9394  1.0211  2.3083
13865SOL     OW45636   7.521   6.067   4.817  0.1179  0.0941  0.2065
13865SOL    HW145637   7.515   6.027   4.904  0.6391  2.6382  1.5216
13865SOL    HW245638   7.520   6.162   4.834 -0.1294  0.6982 -2.6067
13866SOL     OW45639   6.900   1.438   8.182 -0.2349  0.3528 -0.7537
13866SOL    HW145640   6.969   1.395   8.131 -2.7235 -1.5266 -2.7960
13866SOL    HW245641   6.880   1.376   8.252 -0.7761  0.2164 -1.0212
13867SOL     OW45642   0.069   9.363   6.766 -0.2746  0.0163 -0.0397
13867SOL    HW145643   0.097   9.360   6.858  0.3521 -0.8527 -0.2566
13867SOL    HW245644   0.113   9.289   6.725 -2.2400 -0.9343 -0.5696
13868SOL     OW45645   0.498   6.572   9.187  0.2475 -0.4393 -0.3295
13868SOL    HW145646   0.482   6.631   9.113 -1.3803  0.2610  0.5391
13868SOL    HW245647   0.430   6.505   9.179 -0.9985  0.5359  1.3776
13869SOL     OW45648   1.621   0.470   0.037 -0.2786  0.4133 -0.4079
13869SOL    HW145649   1.651   0.465   0.128 -1.2491 -0.2585 -0.1117
13869SOL    HW245650   1.685   0.526  -0.006  0.8808 -0.2453  0.4117
13870SOL     OW45651   9.671   1.124  10.242  0.4586 -0.1158  0.1043
13870SOL    HW145652   9.766   1.127  10.229  0.2930  0.3628 -1.1636
13870SOL    HW245653   9.644   1.216  10.240 -0.2750 -0.3095 -1.9073
13871SOL     OW45654   7.135   0.849   8.468 -0.7205 -0.6185  0.2123
13871SOL    HW145655   7.139   0.754   8.461 -0.6989 -0.6703  0.8909
13871SOL    HW245656   7.215   0.880   8.427 -0.3272 -0.9338  0.7398
13872SOL     OW45657   0.103   7.032   2.114  0.0431  0.8709 -0.6166
13872SOL    HW145658   0.066   6.997   2.196  2.7183  0.8066  0.6925
13872SOL    HW245659   0.116   6.955   2.059 -2.3075  0.9747 -1.4475
13873SOL     OW45660   9.864   9.872   7.345  0.1897 -1.1524 -0.2394
13873SOL    HW145661   9.913   9.812   7.402  1.2787  1.0417  1.3082
13873SOL    HW245662   9.778   9.880   7.387  0.8427  0.1132  0.9633
13874SOL     OW45663  10.097   2.498   8.955  0.1242  0.7118 -0.3835
13874SOL    HW145664  10.101   2.425   8.894 -0.9230  0.3081  0.0037
13874SOL    HW245665  10.149   2.469   9.031 -0.9764 -0.0093  0.1272
13875SOL     OW45666   9.139   5.046   7.151  0.4712 -0.0870  0.1780
13875SOL    HW145667   9.143   5.126   7.202  1.2846  0.3292 -0.5034
13875SOL    HW245668   9.076   5.064   7.081 -0.9445 -0.7936  1.2226
13876SOL     OW45669   4.866   9.584   4.250  0.9793 -0.2210  0.2680
13876SOL    HW145670   4.854   9.535   4.169  0.0892  1.2130 -0.5082
13876SOL    HW245671   4.886   9.674   4.222  1.0670  0.2132  1.6292
13877SOL     OW45672   7.401   8.428   4.290  0.0219 -0.1288  0.1394
13877SOL    HW145673   7.419   8.364   4.358 -0.4748  0.2569  0.6442
13877SOL    HW245674   7.325   8.392   4.243  0.5958 -0.5789 -0.4574
13878SOL     OW45675   2.215   2.235   1.495 -0.1614  0.4243 -0.5204
13878SOL    HW145676   2.268   2.217   1.572  0.0444 -0.2084 -0.8059
13878SOL    HW245677   2.225   2.329   1.481 -0.4112  0.5957  0.3735
13879SOL     OW45678   9.997   3.294   1.201 -0.2272 -0.4414 -0.5180
13879SOL    HW145679  10.093   3.294   1.196 -0.1693  1.4424  0.0729
13879SOL    HW245680   9.978   3.263   1.289 -0.0855  0.9245  0.0073
13880SOL     OW45681   3.268   9.761  10.100  0.5236  0.5435  0.0285
13880SOL    HW145682   3.262   9.814  10.021  0.4006  0.1280 -0.2444
13880SOL    HW245683   3.182   9.718  10.106  0.0792  1.4896  1.0465
13881SOL     OW45684   4.988   5.123   5.450  0.0852 -0.5452 -0.1704
13881SOL    HW145685   4.946   5.058   5.506  0.9084 -1.4856 -0.6071
13881SOL    HW245686   5.059   5.075   5.407  1.9706  1.0811  0.9457
13882SOL     OW45687   2.379   4.978   9.968 -0.1951  0.1745 -0.0862
13882SOL    HW145688   2.359   4.973   9.875 -0.2950  0.9461 -0.1121
13882SOL    HW245689   2.341   4.899  10.005 -0.8203  0.2383 -0.5788
13883SOL     OW45690   7.262   0.163   9.809 -0.0888  0.0986 -0.4339
13883SOL    HW145691   7.302   0.244   9.840 -0.3279 -0.0610  0.2986
13883SOL    HW245692   7.332   0.099   9.810 -0.3352 -0.1677  0.7956
13884SOL     OW45693   1.332   6.387   6.445  0.1151 -0.7790 -0.4842
13884SOL    HW145694   1.241   6.387   6.473  0.0253 -1.7928 -0.7095
13884SOL    HW245695   1.382   6.413   6.522 -0.2102 -2.4050  0.3234
13885SOL     OW45696   6.899  10.066   8.989 -0.3981 -0.3433 -0.5046
13885SOL    HW145697   6.931  10.082   8.901  1.9837 -1.6016  0.0549
13885SOL    HW245698   6.940  10.133   9.043 -0.6472 -0.4921 -0.1229
13886SOL     OW45699   4.902   0.956   6.682  0.4984 -0.1743  0.0727
13886SOL    HW145700   4.844   0.918   6.748  1.1628 -0.5133  0.4760
13886SOL    HW245701   4.938   0.880   6.635  1.8551 -0.0753  0.9019
13887SOL     OW45702   8.320  10.177   8.497 -0.3595 -0.1052  0.1007
13887SOL    HW145703   8.243  10.234   8.494  0.1035  0.6594  1.7134
13887SOL    HW245704   8.392  10.234   8.524  0.3385 -1.2168  0.6953
13888SOL     OW45705   1.423   1.398   2.299  0.0451  0.2517  0.6085
13888SOL    HW145706   1.469   1.378   2.380  0.0828  0.6627  0.6891
13888SOL    HW245707   1.332   1.412   2.327  0.6024  3.6177  1.0837
13889SOL     OW45708   4.601   7.262   1.407  0.2303 -0.6337  0.0137
13889SOL    HW145709   4.694   7.247   1.390  0.7641  1.9783  0.1700
13889SOL    HW245710   4.556   7.218   1.334  1.7578  0.2594 -1.5384
13890SOL     OW45711   9.922   4.882   0.077 -0.3074  0.8069  0.1816
13890SOL    HW145712  10.000   4.835   0.107 -2.0546 -2.9702 -0.5941
13890SOL    HW245713   9.943   4.908  -0.013 -0.4379 -1.8065 -0.6873
13891SOL     OW45714   0.107   5.815   5.046  0.5384 -0.1361  0.4453
13891SOL    HW145715   0.033   5.873   5.027 -0.4054 -1.1708  0.8172
13891SOL    HW245716   0.161   5.819   4.967 -0.5720 -0.3085 -0.3521
13892SOL     OW45717   9.806   7.220  10.089 -0.5743  0.2825 -0.1726
13892SOL    HW145718   9.855   7.146  10.124 -1.2725 -0.2675 -0.3395
13892SOL    HW245719   9.861   7.296  10.109  0.0256 -0.2440  0.2374
13893SOL     OW45720  10.162   0.327   6.163 -0.4238  0.1902 -0.4760
13893SOL    HW145721  10.255   0.348   6.159 -0.9978  3.9296  1.3219
13893SOL    HW245722  10.121   0.387   6.101 -1.7719 -0.5939 -0.3884
13894SOL     OW45723   2.882   9.556   3.980  0.0003  0.3576  0.2607
13894SOL    HW145724   2.959   9.613   3.973 -0.3022  0.5949 -2.3471
13894SOL    HW245725   2.917   9.468   3.966 -0.2835  0.5899 -2.3562
13895SOL     OW45726   0.656   0.943   4.701  0.5157  0.2952 -0.1663
13895SOL    HW145727   0.664   0.850   4.679  1.3011  0.1235  0.7871
13895SOL    HW245728   0.570   0.968   4.668 -0.1707 -1.0572  0.5289
13896SOL     OW45729   2.205   8.565   9.763 -0.0549 -0.0088 -0.1170
13896SOL    HW145730   2.218   8.620   9.685 -1.0171  1.8899  0.9869
13896SOL    HW245731   2.113   8.541   9.761 -0.9044  2.5409  1.8420
13897SOL     OW45732   7.941   7.100   7.288  0.3654  0.1834  0.4548
13897SOL    HW145733   7.910   7.060   7.206 -1.4858 -0.9683  1.6531
13897SOL    HW245734   7.923   7.193   7.277 -3.1469 -0.3478  0.8310
13898SOL     OW45735   8.133   2.028   8.061  0.2063 -0.0124 -0.4682
13898SOL    HW145736   8.131   1.966   8.134 -3.5937 -1.2094 -1.3454
13898SOL    HW245737   8.130   2.114   8.103  3.2051 -0.3528  0.7258
13899SOL     OW45738   1.604   4.650   5.714 -0.1748  0.8644  0.3586
13899SOL    HW145739   1.650   4.598   5.780  0.6248  0.5973 -0.3926
13899SOL    HW245740   1.609   4.740   5.745 -0.9319  0.5982  1.3004
13900SOL     OW45741   0.342   2.988   5.983  0.0570 -0.3423  0.1575
13900SOL    HW145742   0.414   3.042   6.013  0.7076  0.3953 -2.5202
13900SOL    HW245743   0.295   2.963   6.063  0.8126  2.6046  1.6219
13901SOL     OW45744  10.095   1.575   6.027 -0.0952  0.0496  0.3076
13901SOL    HW145745  10.134   1.599   6.111 -0.6579 -1.0518  0.9079
13901SOL    HW245746  10.122   1.485   6.013 -0.4758  0.0410 -0.4245
13902SOL     OW45747   2.704   5.966   9.919 -0.4123  0.4558 -0.3829
13902SOL    HW145748   2.755   6.041   9.888  0.6585  1.4628  3.2138
13902SOL    HW245749   2.671   5.994  10.005 -0.1069 -3.1037  1.0880
13903SOL     OW45750   2.887   0.947   6.371  1.0107 -0.3065  0.4611
13903SOL    HW145751   2.868   1.037   6.345 -0.0171 -0.3885  0.8689
13903SOL    HW245752   2.885   0.897   6.289  0.2742 -0.1579  0.3780
13904SOL     OW45753  10.244   1.945   1.500 -0.7021  0.2510 -0.4086
13904SOL    HW145754  10.234   1.850   1.502 -0.0991  0.1416  2.8747
13904SOL    HW245755  10.155   1.978   1.491 -1.1699 -0.6552  0.6910
13905SOL     OW45756   8.893   4.669   7.167 -0.0271 -0.5570 -0.4192
13905SOL    HW145757   8.944   4.682   7.087 -0.2869 -0.7031 -0.6115
13905SOL    HW245758   8.932   4.729   7.230 -0.9903  0.9337 -1.1933
13906SOL     OW45759   0.036   0.521   9.832 -0.6876  0.8691 -0.2628
13906SOL    HW145760   0.125   0.517   9.868 -0.5244 -3.1125 -0.6385
13906SOL    HW245761  -0.019   0.544   9.907  0.3669 -0.0052  0.8221
13907SOL     OW45762   9.613   6.531   7.117 -0.0514  0.6092 -0.8045
13907SOL    HW145763   9.631   6.585   7.039  0.2646  1.4179 -0.1906
13907SOL    HW245764   9.518   6.535   7.127 -0.0736  0.6813 -1.0246
13908SOL     OW45765   4.310   3.855   9.532  0.1285 -0.2602 -0.4117
13908SOL    HW145766   4.335   3.931   9.584 -1.7236  0.7924 -0.9672
13908SOL    HW245767   4.297   3.889   9.443  3.4277 -2.0506 -1.7500
13909SOL     OW45768   8.704   5.411   1.062 -0.0169 -0.5525 -0.1504
13909SOL    HW145769   8.686   5.432   0.970  2.0879 -0.5435 -0.5993
13909SOL    HW245770   8.671   5.487   1.110 -0.7980 -0.3856 -0.9167
13910SOL     OW45771   6.765   5.922   5.311  0.0471  0.4384 -0.1667
13910SOL    HW145772   6.813   5.966   5.242 -0.4392  0.1573 -0.6904
13910SOL    HW245773   6.813   5.840   5.325 -0.5710 -0.1009 -1.0763
13911SOL     OW45774   9.483   6.172   9.496 -0.3630  0.2870 -0.6344
13911SOL    HW145775   9.476   6.120   9.416 -2.0492  0.0523 -0.3696
13911SOL    HW245776   9.467   6.110   9.567 -2.0308  1.0427 -0.2935
13912SOL     OW45777   2.668   9.686   7.985 -0.6549  0.4465  0.1191
13912SOL    HW145778   2.704   9.607   7.945  0.1488  1.3015 -0.9409
13912SOL    HW245779   2.590   9.705   7.933  0.2848  1.4517 -1.0123
13913SOL     OW45780   7.319   3.051   3.605 -0.7232 -0.5438  0.1891
13913SOL    HW145781   7.263   3.064   3.529 -1.0461  1.5463  0.7341
13913SOL    HW245782   7.379   3.126   3.604  1.3474 -2.1023  0.2725
13914SOL     OW45783   4.890   3.236   3.646 -0.0503  0.0645 -0.3044
13914SOL    HW145784   4.858   3.265   3.560 -1.7254  0.0543  0.2864
13914SOL    HW245785   4.869   3.308   3.705 -0.1886 -0.4956  0.3447
13915SOL     OW45786   6.114   8.852   8.464  0.0090 -0.2671 -0.2837
13915SOL    HW145787   6.047   8.894   8.411 -1.2339 -1.1831  0.5076
13915SOL    HW245788   6.124   8.909   8.540  1.5308  0.8549 -1.2609
13916SOL     OW45789   7.763   7.495   5.503  0.0716 -0.6727 -0.2282
13916SOL    HW145790   7.675   7.512   5.535  0.5304 -0.5746  1.0208
13916SOL    HW245791   7.819   7.506   5.580  1.4262  1.2985 -1.4011
13917SOL     OW45792   3.935   9.505   7.150  0.2286  0.4750 -0.2664
13917SOL    HW145793   3.925   9.410   7.161 -0.3479  0.7487  2.0780
13917SOL    HW245794   4.016   9.526   7.196  0.7984  1.0501 -1.4863
13918SOL     OW45795   0.968   3.685   8.979  0.2993  0.0567  0.2670
13918SOL    HW145796   0.955   3.780   8.977  0.7906  0.1177 -0.4871
13918SOL    HW245797   1.058   3.675   9.010  0.6541 -0.1073 -0.7735
13919SOL     OW45798   5.250   5.609   6.845 -0.4347  0.3480 -0.3236
13919SOL    HW145799   5.228   5.660   6.767 -3.7633 -0.0540  0.1898
13919SOL    HW245800   5.213   5.522   6.827  0.0566 -0.1731  1.0982
13920SOL     OW45801   7.005   8.082   6.804 -0.4154  0.1857 -0.3127
13920SOL    HW145802   7.055   8.065   6.884  1.5371 -1.2268 -1.7359
13920SOL    HW245803   6.918   8.109   6.835  0.0981 -0.8550  2.2591
13921SOL     OW45804   8.484   0.835   1.031 -0.7354  0.3898 -0.0233
13921SOL    HW145805   8.557   0.788   1.071 -0.7445  0.7105  0.3788
13921SOL    HW245806   8.452   0.777   0.963 -0.7365 -0.1712  0.4563
13922SOL     OW45807   6.659   3.925   6.738 -0.7654  0.4813  0.1907
13922SOL    HW145808   6.575   3.882   6.722  0.1012 -1.6329  0.9452
13922SOL    HW245809   6.635   4.008   6.780 -2.5762  1.5704 -2.6474
13923SOL     OW45810   6.195   5.609   6.550  0.1695 -0.1666  0.4936
13923SOL    HW145811   6.250   5.545   6.506  0.7370  0.9402 -0.4885
13923SOL    HW245812   6.252   5.685   6.561 -1.0186  0.8596 -0.1550
13924SOL     OW45813   5.639   8.613   5.481 -0.1026  0.0128 -0.4753
13924SOL    HW145814   5.577   8.600   5.553  0.7891 -2.6280 -0.0644
13924SOL    HW245815   5.724   8.620   5.523  0.1443  1.7003 -1.1520
13925SOL     OW45816   8.398   5.429   6.020  0.2974  0.3716 -0.0190
13925SOL    HW145817   8.362   5.342   6.003  0.8718 -0.0528  0.9046
13925SOL    HW245818   8.440   5.422   6.105 -0.3522  1.7815  0.4467
13926SOL     OW45819   2.915   5.580   0.273 -0.6777 -0.0044 -0.5821
13926SOL    HW145820   2.990   5.549   0.325 -1.0214  0.6545  0.3299
13926SOL    HW245821   2.880   5.500   0.232  1.2401 -0.1734 -2.0331
13927SOL     OW45822   7.009   7.885   0.150 -0.2871  0.1740  0.0364
13927SOL    HW145823   7.104   7.892   0.155 -0.1843  0.6136 -1.8509
13927SOL    HW245824   6.991   7.791   0.149  0.2100  0.0828 -0.6410
13928SOL     OW45825   5.026   3.461   1.979 -0.1720  0.1706  0.3601
13928SOL    HW145826   4.959   3.525   2.006  1.1480  0.9630  1.9315
13928SOL    HW245827   5.108   3.495   2.015  1.0227 -1.0604 -1.0467
13929SOL     OW45828   5.954   9.624   2.829  0.5132 -0.1748 -0.2459
13929SOL    HW145829   5.944   9.562   2.902  0.9496 -0.7946 -0.6979
13929SOL    HW245830   6.031   9.676   2.852  0.6241 -0.3407 -0.2379
13930SOL     OW45831   9.783   4.417   9.266  0.3986  0.4899 -0.1189
13930SOL    HW145832   9.853   4.382   9.322 -0.1842 -0.0533  0.2867
13930SOL    HW245833   9.796   4.511   9.267  1.9282  0.3274 -1.1193
13931SOL     OW45834   6.069   8.020   8.787 -0.1536 -0.7156 -0.3970
13931SOL    HW145835   6.083   7.931   8.755 -1.1232 -1.0330  0.0416
13931SOL    HW245836   6.151   8.066   8.765 -0.1171 -1.3727 -1.7390
13932SOL     OW45837   0.032   6.261   9.899  0.1221 -0.0077  0.0159
13932SOL    HW145838   0.127   6.273   9.892  0.0672 -0.0609 -0.8897
13932SOL    HW245839   0.008   6.213   9.820 -0.4394 -1.4437  1.0291
13933SOL     OW45840   8.397   9.550   1.816 -0.2207 -0.1681  0.9906
13933SOL    HW145841   8.317   9.586   1.854 -0.4133 -1.0381  1.4399
13933SOL    HW245842   8.388   9.565   1.722 -1.0289 -0.4607  1.0084
13934SOL     OW45843   7.878   2.764   8.130  0.3915  0.0390  0.1218
13934SOL    HW145844   7.840   2.846   8.097 -0.1577  0.4573  1.6812
13934SOL    HW245845   7.968   2.765   8.098 -0.4427 -0.2498 -2.4098
13935SOL     OW45846   1.651   0.637   9.220  0.2552  0.1999  0.1644
13935SOL    HW145847   1.691   0.722   9.241 -0.4879  0.7212 -0.4656
13935SOL    HW245848   1.593   0.619   9.294  0.8508 -0.0596  0.5821
13936SOL     OW45849   2.224   2.801   2.800  0.2883 -0.4692 -0.1265
13936SOL    HW145850   2.190   2.820   2.887  0.2227 -0.2381 -0.2015
13936SOL    HW245851   2.169   2.729   2.768 -0.6669  0.4290 -0.5606
13937SOL     OW45852   1.699   0.922   8.100 -0.2052  0.0296  0.0814
13937SOL    HW145853   1.740   0.981   8.036 -0.9993  0.5731  0.0583
13937SOL    HW245854   1.614   0.963   8.118  0.3852  0.3991  2.2314
13938SOL     OW45855   3.910   1.076   8.207 -0.0851  0.3222 -0.4720
13938SOL    HW145856   3.845   1.022   8.162  0.6431 -0.6631 -0.3582
13938SOL    HW245857   3.869   1.099   8.291 -1.1925  1.6389 -1.3217
13939SOL     OW45858   8.450   9.641   7.358  0.1094  0.1078 -0.7762
13939SOL    HW145859   8.521   9.696   7.326 -0.1929 -0.2628 -2.1632
13939SOL    HW245860   8.371   9.692   7.342  0.0042  0.2687  0.2042
13940SOL     OW45861  10.189   7.162   2.525 -0.3073 -0.3296 -0.5808
13940SOL    HW145862  10.272   7.117   2.538 -0.3952 -0.5757 -0.8475
13940SOL    HW245863  10.138   7.142   2.603  0.1836  0.5104 -0.0308
13941SOL     OW45864   6.421   5.542   8.224  0.4081 -0.1526 -0.1584
13941SOL    HW145865   6.340   5.579   8.259  0.2049  0.7429 -1.4913
13941SOL    HW245866   6.401   5.524   8.132  1.4196 -0.8578 -0.2507
13942SOL     OW45867   9.059   1.724   7.218  0.1165 -0.1328 -0.2903
13942SOL    HW145868   9.051   1.688   7.130 -1.5759  0.2696 -0.3358
13942SOL    HW245869   9.113   1.803   7.207 -2.0971  1.3214 -1.4574
13943SOL     OW45870   0.184   0.176   1.620 -0.1204  0.3697  0.0210
13943SOL    HW145871   0.154   0.266   1.631 -1.3668  0.0710 -0.7490
13943SOL    HW245872   0.151   0.150   1.534 -0.2314 -1.0007  0.4591
13944SOL     OW45873   7.582   2.885   3.016 -0.4549  0.3466 -0.0943
13944SOL    HW145874   7.570   2.904   3.109 -0.9249  1.6536 -0.4079
13944SOL    HW245875   7.596   2.790   3.013 -1.0041  0.1998  1.2501
13945SOL     OW45876   4.773   1.360   1.615 -0.3194  0.8365  0.1500
13945SOL    HW145877   4.811   1.277   1.586 -0.4859  0.7131  0.2845
13945SOL    HW245878   4.679   1.351   1.598 -0.1370  1.6762 -1.4684
13946SOL     OW45879   4.837   4.013   7.589 -0.3914  0.0643 -0.3482
13946SOL    HW145880   4.879   4.057   7.663  0.2495  2.0692 -1.8058
13946SOL    HW245881   4.743   4.016   7.609 -0.1945  0.2122  0.5771
13947SOL     OW45882   1.321   5.925   7.251  0.1952 -0.1240  0.0172
13947SOL    HW145883   1.345   5.936   7.159 -2.4318  2.1697 -0.5101
13947SOL    HW245884   1.269   5.844   7.252  3.0500 -2.0961  0.2255
13948SOL     OW45885   2.330   8.905   0.864  0.6369 -0.1381  0.3243
13948SOL    HW145886   2.361   8.838   0.925  0.9825  0.0754  0.3850
13948SOL    HW245887   2.339   8.865   0.778  0.8886 -0.1523  0.3566
13949SOL     OW45888   8.611   5.957   8.114  0.2903  0.0167 -0.2395
13949SOL    HW145889   8.614   5.962   8.019 -1.8630 -0.0675 -0.3505
13949SOL    HW245890   8.558   6.032   8.141  0.7880 -0.0175  0.9005
13950SOL     OW45891   3.058   6.804   7.773 -0.0105  0.4244 -0.0415
13950SOL    HW145892   3.025   6.762   7.853 -0.0174 -0.7152 -0.6267
13950SOL    HW245893   3.115   6.739   7.733 -0.5724  0.6996 -1.3446
13951SOL     OW45894   6.235   1.650   1.511  0.2457  0.1986 -0.0279
13951SOL    HW145895   6.281   1.704   1.447  1.4360 -0.6848  0.0381
13951SOL    HW245896   6.247   1.560   1.479 -0.3605 -0.1453  0.6784
13952SOL     OW45897   4.189   1.070   5.389  0.0282  0.2184  0.1659
13952SOL    HW145898   4.135   0.999   5.354  1.7102 -0.5084 -1.0606
13952SOL    HW245899   4.245   1.096   5.317  1.5467  0.7229  1.4701
13953SOL     OW45900   6.299   8.307   8.422 -0.3622  0.5414  0.1380
13953SOL    HW145901   6.287   8.388   8.372  0.7740 -0.2194 -1.4485
13953SOL    HW245902   6.333   8.336   8.507 -0.1298  1.7390 -0.3404
13954SOL     OW45903   6.994   6.721   8.711  0.1778  0.3493  0.0525
13954SOL    HW145904   7.088   6.704   8.717  0.6291  1.5491 -2.2665
13954SOL    HW245905   6.959   6.643   8.668  0.7147  1.2245 -2.0924
13955SOL     OW45906   9.231   8.477   1.047 -0.4113 -0.1115 -0.0735
13955SOL    HW145907   9.153   8.468   0.992 -0.5340  1.3645 -0.1745
13955SOL    HW245908   9.267   8.563   1.024  2.0822 -1.3453 -1.0853
13956SOL     OW45909   1.061   1.800   6.604  0.6794  0.0549 -0.2502
13956SOL    HW145910   1.123   1.729   6.623  2.2479  1.0511 -1.3918
13956SOL    HW245911   1.081   1.867   6.670 -1.7048 -0.9812  1.7012
13957SOL     OW45912   6.306   9.342   3.276  0.4613  0.0405 -0.3778
13957SOL    HW145913   6.301   9.320   3.183 -1.0270 -0.5341 -0.1901
13957SOL    HW245914   6.221   9.381   3.296  0.2068 -1.1475  1.0465
13958SOL     OW45915   8.430   5.309   9.676 -0.0931  0.2543 -0.6511
13958SOL    HW145916   8.411   5.243   9.743 -0.1029 -0.8134 -1.6809
13958SOL    HW245917   8.450   5.259   9.597  0.9187  1.4766 -1.2050
13959SOL     OW45918   7.160   9.089   5.268 -0.1925 -0.3215  0.2627
13959SOL    HW145919   7.160   9.010   5.323 -1.6165 -0.6954 -0.2162
13959SOL    HW245920   7.094   9.145   5.307 -0.7785 -0.3309 -0.6869
13960SOL     OW45921   8.452   8.719   9.631  0.0735 -0.3912  0.0460
13960SOL    HW145922   8.502   8.687   9.707 -2.2599 -0.3024  1.7097
13960SOL    HW245923   8.434   8.811   9.651 -0.8200 -0.4462 -0.4687
13961SOL     OW45924   6.724   5.574   9.816 -0.2644  0.0347 -0.9452
13961SOL    HW145925   6.790   5.605   9.878 -0.7082 -0.4424 -0.2205
13961SOL    HW245926   6.727   5.478   9.824 -3.0398  0.0062  1.3058
13962SOL     OW45927   2.233   2.221   5.436  0.2824  0.5602  0.3651
13962SOL    HW145928   2.217   2.126   5.427  0.4928  0.2693  2.6004
13962SOL    HW245929   2.267   2.247   5.350  0.5787 -1.4556 -0.1922
13963SOL     OW45930   7.266   8.411   2.780  0.2387 -0.5340  0.1292
13963SOL    HW145931   7.323   8.472   2.827  0.0219 -1.1831  1.2771
13963SOL    HW245932   7.307   8.402   2.694 -0.7158  2.6186 -0.7875
13964SOL     OW45933   5.109   0.900   5.634  0.2451 -0.1496 -0.1735
13964SOL    HW145934   5.137   0.971   5.576  1.5553 -0.8722 -0.4784
13964SOL    HW245935   5.093   0.826   5.574  1.6700 -0.9244  0.3582
13965SOL     OW45936   7.103   8.365   6.861 -0.0160 -0.0463 -0.2213
13965SOL    HW145937   7.098   8.445   6.810  0.5332 -0.1984 -0.5312
13965SOL    HW245938   7.072   8.297   6.802  0.5779 -0.2175 -0.3469
13966SOL     OW45939   0.765   6.282   5.318 -0.1719 -0.1656 -0.2751
13966SOL    HW145940   0.728   6.369   5.332 -1.1323 -0.7475  0.9398
13966SOL    HW245941   0.708   6.241   5.253 -0.1393 -0.1592 -0.3084
13967SOL     OW45942   2.386   9.996   5.633  0.4629 -0.3712  0.3552
13967SOL    HW145943   2.452  10.006   5.701 -0.0913 -2.5267  1.2991
13967SOL    HW245944   2.355   9.906   5.643 -1.4929  0.0806 -1.0749
13968SOL     OW45945   6.939   9.482   8.901 -0.3193  0.1204  0.6466
13968SOL    HW145946   7.029   9.512   8.893  0.6107 -2.8124 -1.5426
13968SOL    HW245947   6.891   9.530   8.834  0.1755 -0.0936  0.1354
13969SOL     OW45948   4.315   4.659   1.005 -0.0114 -0.6754 -0.0609
13969SOL    HW145949   4.251   4.680   1.072 -0.3551  1.3272 -0.9532
13969SOL    HW245950   4.342   4.744   0.969  3.1787 -1.3849  0.2808
13970SOL     OW45951   9.386   5.255   3.020 -0.1224  0.6275 -0.6709
13970SOL    HW145952   9.431   5.222   2.943 -0.9005 -0.7753 -0.5564
13970SOL    HW245953   9.427   5.210   3.094 -1.2032 -0.1444 -0.5127
13971SOL     OW45954   0.985   1.042   7.971 -0.0429 -0.2598  0.1365
13971SOL    HW145955   1.080   1.038   7.980  0.1668 -0.9560 -1.7848
13971SOL    HW245956   0.952   0.972   8.027  0.8435 -2.1531 -1.5713
13972SOL     OW45957   9.182   5.660   8.352  0.4303 -0.3274 -0.0697
13972SOL    HW145958   9.123   5.640   8.279  0.9038  2.3058 -1.2907
13972SOL    HW245959   9.126   5.698   8.419  0.1780 -1.6883  0.5388
13973SOL     OW45960   6.396   1.783   3.562 -0.2913 -0.3613 -0.0417
13973SOL    HW145961   6.329   1.786   3.494 -1.0023  1.9045  0.6551
13973SOL    HW245962   6.363   1.841   3.631  1.2368 -1.1722  1.4559
13974SOL     OW45963   0.108   4.750   9.414  0.2506  0.0969 -0.1147
13974SOL    HW145964   0.060   4.758   9.332 -0.6281  0.4836  0.4206
13974SOL    HW245965   0.191   4.709   9.390  0.0756  0.3744 -1.2158
13975SOL     OW45966   3.930   6.421   4.129 -0.0201 -0.2147 -0.1500
13975SOL    HW145967   3.999   6.447   4.068  0.2452  0.6766  0.5099
13975SOL    HW245968   3.891   6.503   4.158 -2.0123 -0.7207 -1.2129
13976SOL     OW45969   9.180   5.255   7.329 -0.0358 -0.0358 -0.0059
13976SOL    HW145970   9.224   5.283   7.409 -1.7704 -0.1192  1.0169
13976SOL    HW245971   9.172   5.335   7.277 -1.0883  0.5482  1.0066
13977SOL     OW45972   4.483   7.117   2.926  0.1443 -0.4011  0.4487
13977SOL    HW145973   4.557   7.103   2.868  0.0796 -0.9980  0.5036
13977SOL    HW245974   4.410   7.073   2.882 -0.2309  0.3916  0.2761
13978SOL     OW45975   0.232   6.717   3.623 -0.2607  0.1006 -0.0939
13978SOL    HW145976   0.161   6.694   3.683 -0.9984  1.3595 -0.4460
13978SOL    HW245977   0.312   6.690   3.668 -0.7523  1.4546  1.7061
13979SOL     OW45978   6.161   0.958   7.667 -0.1439 -0.0943  0.1875
13979SOL    HW145979   6.146   0.904   7.744  0.9305  0.1792  0.6010
13979SOL    HW245980   6.123   0.908   7.595  0.9429 -1.4804  0.5394
13980SOL     OW45981   3.820   7.532   8.851 -0.2127 -0.1135  0.6428
13980SOL    HW145982   3.829   7.621   8.886 -0.0955  0.0647  0.1576
13980SOL    HW245983   3.851   7.476   8.922  0.2493  0.2603  0.7425
13981SOL     OW45984   6.326   1.081   4.621 -0.4263 -0.2740 -0.3489
13981SOL    HW145985   6.248   1.034   4.648  0.9417 -1.3662  1.9942
13981SOL    HW245986   6.321   1.165   4.666  0.1223 -0.6784  0.4898
13982SOL     OW45987   7.970   9.397   4.573  0.4096  0.0698  0.0983
13982SOL    HW145988   7.947   9.471   4.517 -0.8115 -2.1534 -2.5441
13982SOL    HW245989   8.025   9.341   4.518 -0.7694 -2.1908  1.0913
13983SOL     OW45990   7.785   7.881   8.113 -0.3933 -0.2147  0.0640
13983SOL    HW145991   7.800   7.905   8.204  3.1173  1.5916 -0.8064
13983SOL    HW245992   7.789   7.785   8.112  1.2822 -0.2159  1.6183
13984SOL     OW45993   9.983   1.016   5.537  0.5542  0.1808  0.1541
13984SOL    HW145994   9.919   1.080   5.508  0.7007 -0.3615 -1.4697
13984SOL    HW245995  10.037   1.000   5.460  1.3128 -0.9397  0.8957
13985SOL     OW45996   2.050   0.740   5.070  0.2250  0.0908 -0.2265
13985SOL    HW145997   2.057   0.801   4.996  0.0469 -0.2295 -0.5088
13985SOL    HW245998   1.987   0.781   5.129  0.1331  0.1953 -0.3974
13986SOL     OW45999   1.846   4.531   0.958 -0.4820 -0.0368 -0.2055
13986SOL    HW146000   1.876   4.469   1.025  1.0892  0.2256 -0.6351
13986SOL    HW246001   1.795   4.596   1.007 -1.8841 -1.4460  0.2943
13987SOL     OW46002   5.974   0.189   4.307  0.0899 -0.3176  0.0154
13987SOL    HW146003   6.022   0.222   4.384 -0.6707 -0.1866  0.4427
13987SOL    HW246004   5.917   0.120   4.343  0.6918 -1.1814 -0.6519
13988SOL     OW46005   8.997  10.152   5.216  0.0226 -0.4553 -0.5773
13988SOL    HW146006   9.013  10.245   5.230 -1.5008 -0.1739 -0.5248
13988SOL    HW246007   8.938  10.148   5.141  1.1696 -1.4866 -1.4817
13989SOL     OW46008   2.439   6.825   4.396 -0.0283 -0.3420  0.0203
13989SOL    HW146009   2.463   6.917   4.389  3.1591 -1.0950 -0.5114
13989SOL    HW246010   2.439   6.807   4.490  0.9142 -0.1444  0.0624
13990SOL     OW46011   8.827   7.316   0.562  0.2548 -0.0752 -0.3521
13990SOL    HW146012   8.759   7.325   0.496  0.4472 -1.2397 -0.7349
13990SOL    HW246013   8.827   7.223   0.584 -0.2880  0.3909  1.8375
13991SOL     OW46014   3.329   4.264   4.343  0.9063  0.2316 -0.2431
13991SOL    HW146015   3.292   4.253   4.431  1.7108  0.6951  0.1636
13991SOL    HW246016   3.304   4.185   4.296  2.1586 -0.9683  1.0055
13992SOL     OW46017   9.505   7.951   0.359  0.0897  0.2999  0.3321
13992SOL    HW146018   9.552   7.954   0.275 -1.3101  2.1625 -0.4631
13992SOL    HW246019   9.493   7.858   0.376  1.3871 -0.1482 -0.9614
13993SOL     OW46020   1.050   3.626   3.165  0.0253 -0.6473  0.4949
13993SOL    HW146021   1.024   3.538   3.192 -0.8304 -0.5424  0.0261
13993SOL    HW246022   1.007   3.639   3.081  0.1494  0.2200  0.5618
13994SOL     OW46023   3.289   8.609   6.880 -0.1949  0.0292  0.0047
13994SOL    HW146024   3.356   8.541   6.885 -0.7417 -0.5549 -0.4741
13994SOL    HW246025   3.312   8.670   6.950  0.7671 -0.2171 -0.0752
13995SOL     OW46026   1.469   8.112   4.235 -0.1218 -0.1187  0.1502
13995SOL    HW146027   1.508   8.162   4.163  1.4955  0.5684  1.4528
13995SOL    HW246028   1.543   8.087   4.290 -1.3203 -0.5983  1.6130
13996SOL     OW46029   2.236   5.933   1.603 -0.1285  0.3346  0.7853
13996SOL    HW146030   2.294   5.874   1.652 -0.8415 -1.0306  0.0401
13996SOL    HW246031   2.230   5.894   1.516 -1.0562  1.2206  0.4364
13997SOL     OW46032   2.702   9.879   8.807  0.0629 -0.0699 -0.5802
13997SOL    HW146033   2.785   9.890   8.761  0.5780 -0.3545  0.2666
13997SOL    HW246034   2.716   9.923   8.892  0.2979 -2.4210  0.6808
13998SOL     OW46035   0.107   0.010   2.605 -0.1655  0.0211  0.0785
13998SOL    HW146036   0.077   0.037   2.692 -1.0772 -1.0439  0.1219
13998SOL    HW246037   0.183  -0.045   2.622  0.3646  0.7530  0.1189
13999SOL     OW46038   9.428   3.680   1.840 -0.0081  0.1997 -0.4389
13999SOL    HW146039   9.455   3.605   1.787  1.9701  0.2378  0.4170
13999SOL    HW246040   9.429   3.754   1.780  0.4997 -0.0539 -0.7509
14000SOL     OW46041  10.042   6.835   4.457 -0.1968 -0.7195  0.5024
14000SOL    HW146042   9.952   6.804   4.447 -0.1966 -0.5100 -0.2393
14000SOL    HW246043  10.039   6.894   4.532 -1.0888  0.7613 -0.6423
14001SOL     OW46044   8.090   9.475   7.364 -0.0021  0.7437 -0.5674
14001SOL    HW146045   8.037   9.404   7.400  0.8893 -0.8336 -2.2164
14001SOL    HW246046   8.055   9.488   7.276  0.6472  1.5212 -0.7184
14002SOL     OW46047   6.711   6.433   2.467  0.2288  0.1873  0.5045
14002SOL    HW146048   6.669   6.370   2.525 -1.9639  0.6057 -0.5256
14002SOL    HW246049   6.790   6.461   2.514 -0.0708 -1.4314  2.0616
14003SOL     OW46050   4.910   1.951   0.209 -0.3884  0.1728  0.4806
14003SOL    HW146051   4.922   2.045   0.202 -1.9146  0.3139 -0.9434
14003SOL    HW246052   4.890   1.936   0.301 -1.1589  1.4054  0.5423
14004SOL     OW46053   3.752   1.250   1.653 -0.1909  0.1693  0.2354
14004SOL    HW146054   3.667   1.256   1.608 -0.0481  1.3565  0.0983
14004SOL    HW246055   3.786   1.339   1.652 -0.0224  0.1893  2.3907
14005SOL     OW46056   8.632   3.138   7.377 -0.3467  0.0894  0.2747
14005SOL    HW146057   8.680   3.117   7.457 -1.9541 -0.7347  1.0771
14005SOL    HW246058   8.570   3.205   7.403 -1.0448 -0.3502 -0.2187
14006SOL     OW46059   0.891   6.849   1.470  0.0399 -0.0450  0.0143
14006SOL    HW146060   0.847   6.923   1.428  0.2148 -0.3964 -0.8114
14006SOL    HW246061   0.824   6.808   1.524 -0.2770  0.2281 -0.1680
14007SOL     OW46062   0.714   7.150   9.896 -0.1609  0.4902 -0.5144
14007SOL    HW146063   0.776   7.107   9.955 -0.1518  0.3101 -0.6553
14007SOL    HW246064   0.751   7.139   9.809 -0.3974  0.3664 -0.6017
14008SOL     OW46065   0.862   1.036   4.237  0.1591 -0.5471  0.3836
14008SOL    HW146066   0.911   0.986   4.302  1.6469 -0.9722 -1.0024
14008SOL    HW246067   0.816   0.970   4.186  0.2850 -0.3507  0.0114
14009SOL     OW46068   1.900   3.576   8.021  0.2521 -0.0129 -0.5831
14009SOL    HW146069   1.807   3.562   8.005 -0.0329  0.4707  0.5689
14009SOL    HW246070   1.930   3.495   8.062  0.4064 -0.2658 -1.1824
14010SOL     OW46071   9.654   4.971   5.059  0.7131  0.2010 -0.2834
14010SOL    HW146072   9.704   4.925   5.126 -1.5173  0.8939  2.0182
14010SOL    HW246073   9.662   5.063   5.081 -0.0501  0.4471 -0.9644
14011SOL     OW46074   3.800   5.848   1.986  0.0496 -0.4346  0.4594
14011SOL    HW146075   3.743   5.877   1.914  0.5811 -2.0651 -0.7049
14011SOL    HW246076   3.741   5.839   2.061 -0.9620 -0.7065 -0.3384
14012SOL     OW46077   8.514   9.888   6.187 -0.2073 -0.2245 -0.5002
14012SOL    HW146078   8.495   9.819   6.123 -0.3186 -0.9299  0.2730
14012SOL    HW246079   8.544   9.841   6.265  0.8848  0.6760 -0.3636
14013SOL     OW46080   1.790   0.866   2.167  0.3329  0.3331 -0.2003
14013SOL    HW146081   1.740   0.809   2.225  1.2138  0.3600  0.6027
14013SOL    HW246082   1.785   0.823   2.082 -2.6525  1.3112 -0.6293
14014SOL     OW46083   7.679   3.296   1.569  0.0649  0.2357  0.5150
14014SOL    HW146084   7.699   3.325   1.480 -0.3146  0.4661  0.5024
14014SOL    HW246085   7.754   3.325   1.621  0.5444 -0.3836  0.1772
14015SOL     OW46086   8.518   9.187   7.486 -0.6334  0.0085  0.0951
14015SOL    HW146087   8.553   9.273   7.465  0.7481  0.5176  3.7563
14015SOL    HW246088   8.427   9.203   7.512 -0.5351  0.2915  0.2624
14016SOL     OW46089   1.050   1.041   5.069 -0.5614 -0.6233  0.3201
14016SOL    HW146090   1.140   1.069   5.054 -0.1307 -2.5021 -0.9844
14016SOL    HW246091   1.013   1.030   4.982 -1.4314 -1.7362  0.8018
14017SOL     OW46092   3.277   1.033   8.472 -0.2908 -0.2172  0.0834
14017SOL    HW146093   3.334   0.971   8.427  1.3455  1.1355  0.2127
14017SOL    HW246094   3.276   1.110   8.415 -0.4335  0.4971  1.0328
14018SOL     OW46095   8.033   8.549   9.550  0.5423 -0.0772 -0.3569
14018SOL    HW146096   8.120   8.542   9.589  1.2885  1.4916 -1.6309
14018SOL    HW246097   7.984   8.604   9.611  0.2506 -1.2945  0.5732
14019SOL     OW46098   2.482   3.291   4.042 -0.0633 -0.6110 -0.1947
14019SOL    HW146099   2.532   3.284   3.961  0.9364  0.6519  0.2863
14019SOL    HW246100   2.545   3.273   4.112  0.2910  2.8293  0.5387
14020SOL     OW46101   8.228   0.383   1.086 -0.6944  0.0023 -0.4002
14020SOL    HW146102   8.263   0.421   1.006  1.9451 -0.8367  0.2371
14020SOL    HW246103   8.221   0.289   1.066 -2.6005  0.1259 -0.4604
14021SOL     OW46104   1.206   7.085   3.391 -0.4331 -0.0373  0.0039
14021SOL    HW146105   1.267   7.045   3.330 -1.7606 -2.0064 -0.1029
14021SOL    HW246106   1.124   7.094   3.342 -1.2505 -0.7751  1.1777
14022SOL     OW46107   0.733   2.823   7.864  0.5820 -0.0764  0.1184
14022SOL    HW146108   0.752   2.731   7.842  0.5887  0.2500 -1.3596
14022SOL    HW246109   0.640   2.832   7.844  0.7069  0.3787 -0.2514
14023SOL     OW46110   2.767   9.651   0.823  0.5014 -0.9198 -0.0693
14023SOL    HW146111   2.693   9.628   0.880 -0.7238 -1.4255 -1.7860
14023SOL    HW246112   2.834   9.587   0.844 -0.7587 -2.5132 -0.7278
14024SOL     OW46113   8.256   5.102   0.727  0.2250  0.7732 -0.0984
14024SOL    HW146114   8.178   5.048   0.714 -0.7305  1.0906  3.3508
14024SOL    HW246115   8.316   5.046   0.775  1.3927  1.1577 -1.0603
14025SOL     OW46116   1.830   3.816   7.256 -0.1371 -0.6161  0.6176
14025SOL    HW146117   1.860   3.815   7.347 -0.6494 -1.3073  0.7876
14025SOL    HW246118   1.875   3.891   7.217  0.2039 -0.4008  1.3992
14026SOL     OW46119   9.532   7.291   8.275 -0.0500  0.5999 -0.0517
14026SOL    HW146120   9.525   7.199   8.300 -0.7370  0.8635  0.7812
14026SOL    HW246121   9.558   7.336   8.356  0.8913  1.0579 -0.5995
14027SOL     OW46122   0.926   9.820   3.905 -0.0275  0.1419 -0.0363
14027SOL    HW146123   1.004   9.800   3.853 -0.9934 -0.9611 -1.1457
14027SOL    HW246124   0.958   9.871   3.979  1.8178 -0.7940 -0.1419
14028SOL     OW46125   2.541   1.264   7.810 -0.2493 -0.1105 -0.0598
14028SOL    HW146126   2.446   1.255   7.801 -0.2627 -0.9368  0.8158
14028SOL    HW246127   2.569   1.181   7.847  0.6507  0.6413  0.9832
14029SOL     OW46128   4.619   8.832   5.094 -0.0925  0.5526  0.0481
14029SOL    HW146129   4.572   8.789   5.022  1.2340 -0.0489 -0.5022
14029SOL    HW246130   4.660   8.760   5.142  3.2348  1.1069 -1.6257
14030SOL     OW46131   1.610   9.866   9.666  0.4463 -0.4572 -0.3813
14030SOL    HW146132   1.536   9.813   9.698  0.6045  1.1244  2.9960
14030SOL    HW246133   1.583   9.956   9.681  2.7855  0.1851  0.3285
14031SOL     OW46134   9.587   3.190   3.405 -0.0770  0.4930  0.0071
14031SOL    HW146135   9.667   3.242   3.404  0.4690 -0.3162 -0.5977
14031SOL    HW246136   9.518   3.251   3.382  0.1476  1.5029  1.7721
14032SOL     OW46137  10.055   9.740   8.061  0.2826 -0.1452 -0.1673
14032SOL    HW146138  10.033   9.829   8.033  0.4232  0.2225  0.8677
14032SOL    HW246139  10.123   9.752   8.128 -0.4496 -0.9710  0.7429
14033SOL     OW46140   8.250   6.318   2.344 -0.2023  0.1562  0.1101
14033SOL    HW146141   8.161   6.353   2.356 -0.9497 -0.8164 -1.9854
14033SOL    HW246142   8.288   6.318   2.431 -2.7236 -0.5347  1.3101
14034SOL     OW46143   6.494   0.227   3.248 -0.3889 -0.3535  0.2516
14034SOL    HW146144   6.490   0.272   3.332 -2.7539  0.3187 -0.1398
14034SOL    HW246145   6.467   0.293   3.184 -5.3440 -2.3197 -0.2114
14035SOL     OW46146   7.521   8.559   7.760 -0.0402 -0.4812  0.4441
14035SOL    HW146147   7.462   8.563   7.835 -0.5594  2.5203 -0.0270
14035SOL    HW246148   7.585   8.629   7.775 -0.2627  0.3331 -1.9739
14036SOL     OW46149   3.288   1.276  10.016  0.2132  0.4378  0.3009
14036SOL    HW146150   3.264   1.368  10.003  2.0192  1.2327  2.0889
14036SOL    HW246151   3.227   1.245  10.083 -0.2860  0.3760 -0.1769
14037SOL     OW46152   2.946   6.834   7.044 -0.5124 -0.4851  0.5923
14037SOL    HW146153   2.908   6.920   7.030  1.4183  0.6317  1.6911
14037SOL    HW246154   2.872   6.774   7.045 -1.7826  0.9406 -1.6446
14038SOL     OW46155   3.855   3.786   8.885  0.4984 -0.0590 -0.0447
14038SOL    HW146156   3.850   3.861   8.826  0.5678 -0.6427 -0.8101
14038SOL    HW246157   3.927   3.733   8.851  0.0259 -0.8009  0.0826
14039SOL     OW46158   7.821   1.101   4.634  0.4299 -0.2231  0.2767
14039SOL    HW146159   7.818   1.071   4.725 -1.6209  0.9266  0.6355
14039SOL    HW246160   7.855   1.191   4.639 -2.0607  0.7908  0.2487
14040SOL     OW46161   0.233   4.980   0.126 -0.6221  0.1798 -0.7501
14040SOL    HW146162   0.234   4.923   0.049  0.9293  0.0994 -0.7170
14040SOL    HW246163   0.286   5.056   0.100 -0.0810  0.1499  0.2121
14041SOL     OW46164   7.458   6.142   2.026  0.1295  0.0521 -0.5780
14041SOL    HW146165   7.367   6.143   1.999 -0.6396  0.0888  1.7823
14041SOL    HW246166   7.501   6.082   1.965 -1.4894 -0.1078 -1.6213
14042SOL     OW46167   1.098   7.225  10.070  0.2030 -0.3534 -0.0622
14042SOL    HW146168   1.170   7.288  10.075  0.2974 -0.4560 -0.1471
14042SOL    HW246169   1.064   7.220  10.160  0.7058 -0.7847  0.1054
14043SOL     OW46170   7.832   5.553   8.833 -0.0811 -0.2327  0.0746
14043SOL    HW146171   7.854   5.482   8.772 -0.0084 -0.5430  0.4600
14043SOL    HW246172   7.738   5.566   8.822  0.1647  0.6867 -1.1424
14044SOL     OW46173   6.127   0.291   0.190 -0.2810  0.4058 -0.1130
14044SOL    HW146174   6.134   0.289   0.285  2.5595  0.8484 -0.2466
14044SOL    HW246175   6.033   0.284   0.173 -0.9049  0.8310  2.7148
14045SOL     OW46176   1.678   8.860  10.211  0.5904 -0.2985 -0.5270
14045SOL    HW146177   1.683   8.919  10.136  1.5656 -0.1204 -0.3369
14045SOL    HW246178   1.654   8.775  10.173  1.0916 -0.2171 -1.0460
14046SOL     OW46179   6.764   7.351   8.256  0.0601 -0.3429  0.3558
14046SOL    HW146180   6.704   7.420   8.284 -0.8606 -0.3984 -1.3798
14046SOL    HW246181   6.712   7.295   8.198  1.7588 -0.3763 -1.2382
14047SOL     OW46182   2.614  10.015   5.813  0.2441 -0.0856  0.0006
14047SOL    HW146183   2.664   9.974   5.742  1.9674 -0.5553  1.3995
14047SOL    HW246184   2.681  10.055   5.869 -1.2049  2.2337  0.1968
14048SOL     OW46185   5.655   6.656   0.220 -0.2589 -0.1903  0.4170
14048SOL    HW146186   5.744   6.642   0.187 -0.7248 -1.0820 -0.5439
14048SOL    HW246187   5.649   6.602   0.298  0.3463  0.6533  1.0586
14049SOL     OW46188   1.683   8.039   5.497 -0.1714 -0.1289 -0.0510
14049SOL    HW146189   1.588   8.049   5.486 -0.6231  1.9020  3.7962
14049SOL    HW246190   1.691   7.982   5.574  1.7466 -0.4317 -0.4361
14050SOL     OW46191   9.752   3.955   3.854  0.2440 -0.0100 -0.4629
14050SOL    HW146192   9.778   4.045   3.871  0.2591 -0.1298  0.1735
14050SOL    HW246193   9.740   3.916   3.940 -0.3898 -0.4377 -0.7301
14051SOL     OW46194   9.653   2.939   0.838 -0.6150 -0.6280  0.4824
14051SOL    HW146195   9.723   2.985   0.885  0.0354 -0.8494 -0.2533
14051SOL    HW246196   9.635   2.861   0.891 -1.0372 -0.0499  1.2162
14052SOL     OW46197   8.152   1.594   2.367 -0.0282  0.4932  0.4469
14052SOL    HW146198   8.213   1.531   2.405 -1.1109 -0.6908  0.3111
14052SOL    HW246199   8.130   1.653   2.440 -2.0173 -1.7046  1.7697
14053SOL     OW46200   1.226  10.110   3.415 -0.2752 -0.6939  0.0676
14053SOL    HW146201   1.259  10.187   3.463 -0.8281 -0.4790  0.1213
14053SOL    HW246202   1.299  10.049   3.415 -0.1425 -0.5551  0.8823
14054SOL     OW46203   8.958   0.745   6.784  0.2584 -0.2573 -0.5796
14054SOL    HW146204   8.864   0.728   6.790  0.3339 -0.6814 -0.5561
14054SOL    HW246205   8.999   0.662   6.811  0.6314 -0.5314 -1.9324
14055SOL     OW46206   7.981   2.844   6.653 -0.3362 -0.0135 -0.1997
14055SOL    HW146207   8.025   2.900   6.589 -2.3526  0.0071 -1.6786
14055SOL    HW246208   7.996   2.755   6.623  1.5110 -0.2623  1.2528
14056SOL     OW46209   7.195   5.706   8.109  0.4218  0.5893 -0.2239
14056SOL    HW146210   7.183   5.753   8.026  0.4307  0.2457 -0.4199
14056SOL    HW246211   7.241   5.769   8.165 -0.9124  1.3821  0.0300
14057SOL     OW46212   3.269   3.217   7.997  0.1637 -0.7130 -0.4025
14057SOL    HW146213   3.244   3.268   7.920  2.4829 -0.1151 -0.8282
14057SOL    HW246214   3.263   3.278   8.070  0.2881 -0.6038 -0.4836
14058SOL     OW46215   6.595   1.995   4.458  0.2108 -0.1523  0.2229
14058SOL    HW146216   6.679   1.950   4.452  1.5260  2.2308 -0.8519
14058SOL    HW246217   6.596   2.037   4.545  1.4233  2.0124 -0.7389
14059SOL     OW46218   1.311   0.143   7.767 -0.4727  0.4831 -0.1963
14059SOL    HW146219   1.308   0.060   7.816 -1.2274  1.9675  2.4527
14059SOL    HW246220   1.364   0.123   7.690  3.1607 -1.4396  2.4668
14060SOL     OW46221   2.395   5.356   2.042  0.2563 -0.1397 -0.1683
14060SOL    HW146222   2.433   5.286   2.095  0.1744 -0.8385 -1.0109
14060SOL    HW246223   2.304   5.329   2.027  0.7491 -0.8985 -2.1667
14061SOL     OW46224   9.667   2.852   5.585 -0.1631 -0.0784  0.2074
14061SOL    HW146225   9.694   2.930   5.536  0.0611 -1.1474 -1.4585
14061SOL    HW246226   9.750   2.810   5.610 -0.2350 -1.2687 -1.4320
14062SOL     OW46227   4.777   7.300   7.299  0.4909 -0.0581  0.0211
14062SOL    HW146228   4.849   7.294   7.237 -0.5675 -2.6461 -1.1145
14062SOL    HW246229   4.711   7.353   7.254  1.4167  1.9497  0.8906
14063SOL     OW46230   8.163   7.678   9.945 -0.1225  0.0966 -0.3124
14063SOL    HW146231   8.170   7.759   9.893 -0.8593 -0.6730 -1.6722
14063SOL    HW246232   8.237   7.682  10.006 -0.5160  2.0946  0.0909
14064SOL     OW46233   6.866   4.415   2.690 -0.0623 -0.1221 -0.1751
14064SOL    HW146234   6.940   4.448   2.639 -1.1462  0.1224 -1.6326
14064SOL    HW246235   6.812   4.492   2.708 -1.7679 -0.7437 -2.2100
14065SOL     OW46236   7.041   3.040   2.389  0.1428  0.7855 -0.1157
14065SOL    HW146237   7.051   3.011   2.480 -0.3538  0.1941 -0.2399
14065SOL    HW246238   7.095   2.979   2.338  0.2466  0.9764 -0.2327
14066SOL     OW46239   8.319   6.548   0.520 -0.5795 -0.3323 -0.5475
14066SOL    HW146240   8.316   6.485   0.448 -0.2756 -0.3144 -0.5789
14066SOL    HW246241   8.385   6.513   0.580  0.7274  0.7377 -1.3135
14067SOL     OW46242   8.480   7.203   5.206  0.0326  0.2414 -0.1206
14067SOL    HW146243   8.502   7.260   5.279  2.4441  0.6323 -1.0749
14067SOL    HW246244   8.414   7.143   5.241  0.1336  1.2726  1.9411
14068SOL     OW46245   4.831   5.426   0.199 -0.0909  0.1663 -0.0788
14068SOL    HW146246   4.738   5.425   0.176 -0.4702  1.7108  1.2058
14068SOL    HW246247   4.833   5.454   0.291  1.6701  0.7766 -0.2597
14069SOL     OW46248   5.317   2.513   0.714  0.2015 -0.4054 -0.2127
14069SOL    HW146249   5.345   2.541   0.801  1.4344  0.2342 -0.7736
14069SOL    HW246250   5.377   2.559   0.655 -0.4026 -1.0829 -1.3807
14070SOL     OW46251   5.044   1.787   5.847 -0.1520  0.1618 -0.9139
14070SOL    HW146252   5.125   1.837   5.853 -0.7619  1.2527 -1.6367
14070SOL    HW246253   5.022   1.767   5.938  2.0274 -2.0224 -0.7589
14071SOL     OW46254   6.751   7.747   1.141  0.0613  0.3575 -0.1783
14071SOL    HW146255   6.714   7.723   1.226 -1.8624  1.3735 -0.6686
14071SOL    HW246256   6.763   7.664   1.095  1.5731 -0.2470  1.2035
14072SOL     OW46257   0.451   8.652   9.141  0.0013  0.4780 -0.2447
14072SOL    HW146258   0.509   8.722   9.107 -0.0086  0.1545 -0.9460
14072SOL    HW246259   0.505   8.606   9.205  0.0359  1.0742  0.1709
14073SOL     OW46260   5.490   4.640   0.287 -0.4693 -0.5540 -0.3888
14073SOL    HW146261   5.562   4.579   0.271 -0.4807 -0.8096  0.4858
14073SOL    HW246262   5.432   4.630   0.211  1.5541  1.3795 -2.3653
14074SOL     OW46263   4.946   5.624   0.671  0.3984 -0.3440 -0.3134
14074SOL    HW146264   4.977   5.676   0.745 -0.9197  2.0218 -1.2948
14074SOL    HW246265   5.013   5.558   0.658  1.0409 -0.3737  2.4799
14075SOL     OW46266   7.528   0.811   2.675 -0.2765 -0.3320 -0.3000
14075SOL    HW146267   7.585   0.886   2.660 -2.2451  1.6308  1.3235
14075SOL    HW246268   7.587   0.739   2.696  1.6360  1.1418 -0.4079
14076SOL     OW46269   2.915   8.007   7.514 -0.2716  0.1259  0.1986
14076SOL    HW146270   2.825   8.011   7.482  0.3612 -0.4603 -1.8033
14076SOL    HW246271   2.945   8.097   7.515 -0.7982  0.3067  0.7203
14077SOL     OW46272   0.881   8.156   2.635  0.5402 -0.3233  0.2886
14077SOL    HW146273   0.812   8.117   2.690  1.8717 -1.9302  0.8898
14077SOL    HW246274   0.940   8.197   2.697 -0.2175  1.7276 -0.2767
14078SOL     OW46275   0.142   7.964   2.493 -0.2340 -0.0933  0.3411
14078SOL    HW146276   0.127   8.058   2.504  0.6914  0.1937 -0.5700
14078SOL    HW246277   0.171   7.956   2.402 -1.2790 -1.4050  0.0900
14079SOL     OW46278   7.332   6.744   1.078  0.1970 -0.3923 -0.2630
14079SOL    HW146279   7.322   6.827   1.032 -1.8991  0.3073  1.2972
14079SOL    HW246280   7.361   6.769   1.166  0.2606 -1.3611  0.0038
14080SOL     OW46281   3.539   4.299   1.050  0.3321  0.0481 -0.6019
14080SOL    HW146282   3.522   4.233   0.983 -1.1968  0.8574 -1.0473
14080SOL    HW246283   3.609   4.353   1.014 -0.2038  0.2333 -1.3710
14081SOL     OW46284   4.332   7.919   8.565  0.4048  0.4813  0.7293
14081SOL    HW146285   4.282   7.844   8.598 -0.5505  0.0642 -1.4639
14081SOL    HW246286   4.383   7.949   8.640 -2.1800  0.1356  2.7928
14082SOL     OW46287   0.643   8.313   3.179 -0.6776 -0.0551 -0.0740
14082SOL    HW146288   0.677   8.225   3.165 -1.4235 -0.1089 -1.8083
14082SOL    HW246289   0.550   8.300   3.197 -0.9595  0.3897 -1.1193
14083SOL     OW46290   4.799   4.712   9.013 -0.3105  0.4392 -0.3215
14083SOL    HW146291   4.775   4.736   9.102 -0.0027 -0.0445 -0.1068
14083SOL    HW246292   4.884   4.754   8.998 -0.3969  0.5828 -0.4179
14084SOL     OW46293   0.089   1.519   8.133  0.7437 -0.1180 -0.5265
14084SOL    HW146294   0.018   1.480   8.183  0.7153 -0.0266 -0.4964
14084SOL    HW246295   0.053   1.532   8.045  0.4943  0.5857 -0.3251
14085SOL     OW46296   7.554   3.903   6.905 -0.1243  0.0398 -0.0120
14085SOL    HW146297   7.467   3.939   6.885 -0.5148 -0.3544  0.8964
14085SOL    HW246298   7.608   3.929   6.831 -0.6802  1.4698  0.0555
14086SOL     OW46299   4.673   3.005   4.340  0.5819 -0.5886 -0.3346
14086SOL    HW146300   4.753   2.996   4.391  0.5191 -0.1457 -0.1581
14086SOL    HW246301   4.702   3.045   4.258  0.6487 -1.0995 -0.5681
14087SOL     OW46302   2.347  10.039   3.980 -0.3250  0.0247 -0.1764
14087SOL    HW146303   2.308   9.959   3.945 -2.4813  0.9439 -0.0473
14087SOL    HW246304   2.411  10.008   4.044 -0.9565 -1.6013 -0.2744
14088SOL     OW46305   6.409   1.683   2.436 -0.0735  0.7662  0.1952
14088SOL    HW146306   6.460   1.699   2.357 -0.3344  2.4641  0.3417
14088SOL    HW246307   6.452   1.735   2.503 -0.8113  0.6072  0.8049
14089SOL     OW46308   0.954   9.894   8.111 -0.0350 -0.2778 -0.3332
14089SOL    HW146309   0.878   9.842   8.085  2.3024 -3.2841 -1.7245
14089SOL    HW246310   0.961   9.880   8.206 -1.9308  1.2288  0.0951
14090SOL     OW46311   8.964   6.226   5.274  0.8582  0.4412 -0.4109
14090SOL    HW146312   8.922   6.186   5.198 -0.3894  1.7455 -0.4461
14090SOL    HW246313   8.946   6.319   5.266  1.5407  0.7319  0.9827
14091SOL     OW46314   6.283   9.418   4.365 -0.1359  0.2070  0.1150
14091SOL    HW146315   6.366   9.459   4.391 -0.5257  0.9200  0.2668
14091SOL    HW246316   6.309   9.332   4.331  0.9323  1.3290 -2.1095
14092SOL     OW46317   5.447   2.240   3.058 -0.1025  0.0565  0.1122
14092SOL    HW146318   5.402   2.323   3.074  0.1712  0.3858 -0.7683
14092SOL    HW246319   5.534   2.265   3.029 -0.1723 -0.5303 -0.6277
14093SOL     OW46320   9.442   7.058   3.775  0.5411 -0.1158  0.5417
14093SOL    HW146321   9.458   6.970   3.809 -0.2264 -1.6558 -2.6640
14093SOL    HW246322   9.525   7.083   3.734  0.2281 -0.1683 -0.1413
14094SOL     OW46323   0.373   3.835   8.799  0.0933  0.7492 -0.3509
14094SOL    HW146324   0.302   3.779   8.768  0.3253  0.0127  0.4108
14094SOL    HW246325   0.377   3.906   8.735 -1.3443  0.8247 -0.3862
14095SOL     OW46326   8.420   0.878   3.031 -0.7335  0.2837 -0.1754
14095SOL    HW146327   8.410   0.788   3.061  1.1228  0.2233  0.3990
14095SOL    HW246328   8.508   0.882   2.995 -0.1964  2.1988  1.1441
14096SOL     OW46329   9.359   1.952   6.698 -0.0751 -0.4957  0.7025
14096SOL    HW146330   9.297   1.895   6.743 -1.0952  0.8399  1.0820
14096SOL    HW246331   9.304   2.015   6.651  0.9710  0.7364  1.0515
14097SOL     OW46332   6.975   5.512   1.981  0.6435 -0.1413 -0.2780
14097SOL    HW146333   6.918   5.589   1.972  1.5674  0.6852  0.7012
14097SOL    HW246334   6.957   5.480   2.069  2.2482  0.6159  0.3578
14098SOL     OW46335   1.995   9.968   2.146 -0.3515  0.1916  0.4666
14098SOL    HW146336   1.909  10.001   2.120 -0.3075  0.6236  0.8517
14098SOL    HW246337   2.043   9.958   2.064 -1.0567 -0.8998  0.1675
14099SOL     OW46338   2.635   1.681   2.834  0.0670  0.3258  0.5846
14099SOL    HW146339   2.649   1.733   2.755  0.5147 -1.0794 -0.3005
14099SOL    HW246340   2.551   1.638   2.820 -0.3762  0.9142  1.3779
14100SOL     OW46341   7.780   8.353   4.707  0.2125  0.3086  0.2831
14100SOL    HW146342   7.741   8.265   4.710  1.4642 -0.4936 -2.8099
14100SOL    HW246343   7.799   8.374   4.798 -1.6961 -1.8818  1.2952
14101SOL     OW46344   8.496   5.355   4.878  0.7899 -0.1868 -0.1876
14101SOL    HW146345   8.583   5.316   4.871 -0.0447 -2.0041 -0.8976
14101SOL    HW246346   8.446   5.315   4.807 -0.7749  0.4619  0.5102
14102SOL     OW46347   2.598   6.682   3.409 -0.2938 -0.9223 -0.3303
14102SOL    HW146348   2.545   6.759   3.389 -2.2062 -1.5545  1.8694
14102SOL    HW246349   2.686   6.716   3.426 -1.0177  0.7367  0.2586
14103SOL     OW46350   5.422   5.827   6.644 -0.8733  0.2910 -0.2899
14103SOL    HW146351   5.432   5.757   6.581  0.6326 -0.0394  0.2849
14103SOL    HW246352   5.417   5.907   6.591 -0.3408 -0.0406 -0.8451
14104SOL     OW46353   2.576   1.749   5.351 -0.0104  0.2556  0.0260
14104SOL    HW146354   2.640   1.681   5.372 -0.4814 -0.2178 -0.0254
14104SOL    HW246355   2.623   1.811   5.295  0.2265 -0.4162 -0.5284
14105SOL     OW46356   0.759   8.759   2.914  0.1216 -0.2389 -0.0786
14105SOL    HW146357   0.672   8.746   2.952 -0.4413  1.1879 -0.8113
14105SOL    HW246358   0.805   8.816   2.976  0.2324 -0.2721 -0.1284
14106SOL     OW46359   9.811   8.304   5.095  0.0413  0.5171  0.2874
14106SOL    HW146360   9.852   8.220   5.075  0.1585  0.6886 -0.1917
14106SOL    HW246361   9.733   8.280   5.146 -1.1586 -0.0544 -1.6918
14107SOL     OW46362   5.179   9.016   1.958  0.2653  0.0834  0.2885
14107SOL    HW146363   5.217   8.958   2.023 -1.6330 -0.3429  1.0969
14107SOL    HW246364   5.113   8.962   1.914  1.7195  0.2492 -2.2921
14108SOL     OW46365   9.412   1.729   9.775 -0.1411  0.2821  0.4740
14108SOL    HW146366   9.325   1.767   9.765 -1.2115 -2.5871 -3.2855
14108SOL    HW246367   9.471   1.793   9.734 -0.8968  0.9215  0.3688
14109SOL     OW46368   3.840   0.943   6.012 -0.0645 -0.6157  0.4061
14109SOL    HW146369   3.868   1.016   5.956  0.1967  0.2749  1.6554
14109SOL    HW246370   3.745   0.943   6.004 -0.2627  1.3074  2.0680
14110SOL     OW46371   6.748   2.851   8.791  0.2651 -0.7594 -0.0020
14110SOL    HW146372   6.797   2.880   8.868 -0.1786  1.0189 -0.3321
14110SOL    HW246373   6.661   2.831   8.825 -0.4198  1.5381 -0.1704
14111SOL     OW46374   9.263   3.588   3.120  1.0500 -0.0508  0.0189
14111SOL    HW146375   9.175   3.592   3.085  0.6682  0.6299  1.0201
14111SOL    HW246376   9.318   3.564   3.045 -0.0077 -0.7620 -0.5511
14112SOL     OW46377   8.153   6.042   8.978 -0.0210  0.1104  0.1189
14112SOL    HW146378   8.059   6.033   8.995  0.2351  1.1169  2.3646
14112SOL    HW246379   8.163   6.132   8.948  0.3204  0.3131  0.8186
14113SOL     OW46380   8.341   1.857   4.663 -0.4371  0.0948  0.0499
14113SOL    HW146381   8.283   1.878   4.736 -2.2421 -0.4917 -1.1424
14113SOL    HW246382   8.369   1.943   4.630 -0.4053  0.3836  0.8114
14114SOL     OW46383   7.713   8.663   8.070 -0.1582  0.4581 -0.3095
14114SOL    HW146384   7.659   8.673   7.992 -0.3702  0.6182 -0.1425
14114SOL    HW246385   7.680   8.583   8.112  1.1693 -0.7076 -1.3490
14115SOL     OW46386   5.842   9.764   7.955 -0.1501  0.3686 -0.4435
14115SOL    HW146387   5.766   9.810   7.919 -0.1009 -1.1192 -2.6546
14115SOL    HW246388   5.915   9.823   7.939 -0.4547  0.6497 -0.8446
14116SOL     OW46389   5.665   6.555   5.582  0.4469  0.2575 -0.1265
14116SOL    HW146390   5.712   6.562   5.665  0.2188 -0.3149  0.0520
14116SOL    HW246391   5.573   6.547   5.606 -0.0499  3.3283 -0.4991
14117SOL     OW46392   3.629   7.212   1.106 -0.1931  0.4453 -0.3650
14117SOL    HW146393   3.638   7.163   1.025 -1.3911 -1.8879  0.8293
14117SOL    HW246394   3.716   7.208   1.147  0.1229  0.7067 -0.9917
14118SOL     OW46395   9.114   1.734   2.664 -0.2875  0.1395 -0.8404
14118SOL    HW146396   9.031   1.780   2.647 -1.6608 -1.1486  1.7552
14118SOL    HW246397   9.122   1.672   2.593 -0.7611  1.2763 -1.9305
14119SOL     OW46398   7.483   1.416  10.056 -0.2923  0.0340 -0.0320
14119SOL    HW146399   7.425   1.385   9.986  0.5506  0.4193 -0.9306
14119SOL    HW246400   7.570   1.416  10.016  0.4027 -0.9268  1.4125
14120SOL     OW46401   4.433   7.065  10.153 -0.0042  0.0236 -0.8999
14120SOL    HW146402   4.406   7.157  10.150  1.0919  0.5041  1.7628
14120SOL    HW246403   4.506   7.063  10.214 -0.9697 -2.8565  0.3312
14121SOL     OW46404   0.359   6.439   0.583 -0.2014  0.3589 -0.3165
14121SOL    HW146405   0.298   6.443   0.508 -0.0592  0.3423 -0.4329
14121SOL    HW246406   0.330   6.510   0.640  0.0461  0.7409 -0.6590
14122SOL     OW46407   6.726   8.481   6.344  0.4032 -0.1602 -0.5773
14122SOL    HW146408   6.748   8.396   6.382  1.3379 -0.6616 -2.1512
14122SOL    HW246409   6.715   8.463   6.250 -0.9579  1.1782 -0.7176
14123SOL     OW46410   2.532  10.230   1.330  0.1997 -0.0543  0.1619
14123SOL    HW146411   2.535  10.158   1.393 -0.3358  0.8166  1.2073
14123SOL    HW246412   2.590  10.202   1.259  1.3334 -0.7764  1.3315
14124SOL     OW46413   8.708   0.856   4.629 -0.0858 -0.2931 -0.3359
14124SOL    HW146414   8.670   0.942   4.643  1.6089  0.4979 -0.3671
14124SOL    HW246415   8.654   0.797   4.681 -0.7514  0.9096  0.3791
14125SOL     OW46416   2.412   1.573   3.416 -0.7772  0.3923 -0.2687
14125SOL    HW146417   2.449   1.571   3.328  0.7515  0.6478  0.3273
14125SOL    HW246418   2.320   1.593   3.403 -0.3631  1.5510 -1.7620
14126SOL     OW46419   6.752   6.985   6.617  0.4358 -0.1250 -0.2847
14126SOL    HW146420   6.820   7.023   6.561 -0.9569 -1.0378 -2.7460
14126SOL    HW246421   6.676   7.041   6.605  0.0104 -0.5210  0.4781
14127SOL     OW46422   6.115   2.930   1.767  0.3262  0.2109 -0.5630
14127SOL    HW146423   6.120   2.838   1.791  0.7493  0.0868 -1.1075
14127SOL    HW246424   6.025   2.955   1.786  0.5974  0.0954  1.0143
14128SOL     OW46425   5.633   3.152   9.770 -0.1127  0.3551  0.0088
14128SOL    HW146426   5.723   3.186   9.766 -0.0749  0.2155 -0.3313
14128SOL    HW246427   5.644   3.058   9.787 -0.2245  0.5843  1.5117
14129SOL     OW46428   1.648   3.121   8.858 -0.6664 -0.0818 -0.5348
14129SOL    HW146429   1.559   3.155   8.850 -0.9517 -0.5489  0.4704
14129SOL    HW246430   1.665   3.122   8.952  1.5309  2.8553 -0.8121
14130SOL     OW46431   6.879   3.392   7.542 -0.2866 -0.6833 -0.0601
14130SOL    HW146432   6.938   3.422   7.474 -0.0567 -0.2872  0.3097
14130SOL    HW246433   6.826   3.325   7.500  1.0727 -1.7539 -0.1576
14131SOL     OW46434   2.257   5.540   7.901 -0.2272  0.3540 -0.1451
14131SOL    HW146435   2.335   5.540   7.956 -0.3913  1.7387  0.1272
14131SOL    HW246436   2.276   5.605   7.833 -0.2469 -0.9359 -1.4435
14132SOL     OW46437   4.682   2.724   1.407 -0.2165 -0.2188 -0.1002
14132SOL    HW146438   4.707   2.810   1.375 -1.4663  0.5970  1.0115
14132SOL    HW246439   4.750   2.665   1.373  0.9610  1.2686 -0.4269
14133SOL     OW46440   6.999   3.462   9.672  0.2623  0.5367  0.3240
14133SOL    HW146441   7.050   3.537   9.702  2.3255 -0.4047 -0.5708
14133SOL    HW246442   7.005   3.399   9.744 -1.0109  1.0060  0.8567
14134SOL     OW46443   4.812   6.044   3.916 -0.4049 -0.1313 -0.4191
14134SOL    HW146444   4.743   6.036   3.983 -0.8690 -1.4428 -1.0100
14134SOL    HW246445   4.886   5.996   3.953  0.2919  1.4445  0.3010
14135SOL     OW46446   8.439   1.059   9.687 -0.4997  0.0236  0.1937
14135SOL    HW146447   8.455   1.002   9.612 -0.9261 -1.5206  1.2246
14135SOL    HW246448   8.355   1.101   9.669  0.1711  0.9246 -0.9187
14136SOL     OW46449   5.605   5.052  10.212 -0.0970  0.1414  0.1333
14136SOL    HW146450   5.608   5.129  10.155 -0.5437 -0.0459 -0.1456
14136SOL    HW246451   5.612   5.087  10.301 -2.2070  0.6792  0.1292
14137SOL     OW46452   9.026   3.087   0.945 -0.4700 -0.2860  0.0900
14137SOL    HW146453   9.114   3.061   0.972  0.9947  2.5773 -1.4568
14137SOL    HW246454   9.024   3.182   0.959 -2.4742  0.0785 -2.0835
14138SOL     OW46455   0.176   3.379   9.217  0.2233  0.7757 -0.1223
14138SOL    HW146456   0.242   3.403   9.152  0.3829 -0.2890 -0.3608
14138SOL    HW246457   0.105   3.341   9.167 -0.3459  1.4035  0.1893
14139SOL     OW46458   8.246   2.666   1.838 -0.0523  0.0324  0.2398
14139SOL    HW146459   8.186   2.593   1.854 -0.0137  0.1611  0.9865
14139SOL    HW246460   8.258   2.667   1.743 -0.6577 -0.4505  0.1566
14140SOL     OW46461   0.656   4.135   7.234  0.6841  0.4038 -0.8959
14140SOL    HW146462   0.612   4.064   7.187 -0.1815  0.5996 -0.3846
14140SOL    HW246463   0.678   4.097   7.319 -0.1750  0.8776 -0.4577
14141SOL     OW46464   7.909   2.065   1.328 -0.4930  0.8757  0.2099
14141SOL    HW146465   7.831   2.106   1.289 -1.9916  0.6729  2.7353
14141SOL    HW246466   7.876   1.984   1.368  1.6843 -0.8868 -1.3398
14142SOL     OW46467   8.126   6.773   7.278 -0.0113 -0.3741 -0.2641
14142SOL    HW146468   8.044   6.745   7.238 -0.3881  0.8477 -0.3692
14142SOL    HW246469   8.104   6.786   7.371 -0.6274  2.4160 -0.7201
14143SOL     OW46470   6.711   5.089   6.948 -0.2795 -0.0211  0.1643
14143SOL    HW146471   6.763   5.066   6.871  1.2518 -1.8488  1.6555
14143SOL    HW246472   6.716   5.012   7.005 -2.0944  0.9322  1.7293
14144SOL     OW46473   1.524   3.589   0.762 -0.3937  0.6601  0.0777
14144SOL    HW146474   1.553   3.498   0.755 -1.4856  0.3748 -1.2602
14144SOL    HW246475   1.438   3.584   0.804 -1.0569  0.9109 -1.1881
14145SOL     OW46476   4.321   1.072   2.559  0.3420  0.8601  0.2324
14145SOL    HW146477   4.324   0.977   2.561 -0.4414  0.8362  2.1328
14145SOL    HW246478   4.233   1.093   2.525 -0.2224  0.8469  1.6120
14146SOL     OW46479   0.911   3.946   9.561  0.6987 -0.2824 -0.1780
14146SOL    HW146480   0.939   4.014   9.623  2.4843 -1.7619  0.7313
14146SOL    HW246481   0.950   3.972   9.478  1.0369  0.0229  0.0697
14147SOL     OW46482   8.817   8.402   6.328  0.0637 -0.4043 -0.3257
14147SOL    HW146483   8.788   8.492   6.317  1.2777  0.2068  1.0689
14147SOL    HW246484   8.913   8.407   6.325  0.1354 -1.7542 -0.9351
14148SOL     OW46485   1.920   5.730   2.347 -0.1940 -0.3735  0.2704
14148SOL    HW146486   1.890   5.811   2.306  0.7532  0.5692  1.3817
14148SOL    HW246487   1.842   5.674   2.348 -0.6949  0.2466 -1.1232
14149SOL     OW46488   0.126   1.840   3.864  0.2484  0.6657  0.5547
14149SOL    HW146489   0.124   1.932   3.837  1.5167  0.5699  0.0689
14149SOL    HW246490   0.074   1.794   3.797  2.0759  0.6480 -0.9328
14150SOL     OW46491   8.311   0.058   9.935 -0.0493  0.3231  0.0527
14150SOL    HW146492   8.262   0.140   9.922 -1.7960 -0.7536 -0.5474
14150SOL    HW246493   8.270  -0.003   9.874  1.6387 -0.8507  0.0458
14151SOL     OW46494   8.059   0.575   6.641  0.2821  0.3868  0.5372
14151SOL    HW146495   8.126   0.600   6.704  2.0672 -0.6726 -0.8535
14151SOL    HW246496   7.976   0.590   6.687  1.4806  0.1770  2.8966
14152SOL     OW46497   3.524   4.248   1.817  0.5191  0.0797 -0.3244
14152SOL    HW146498   3.567   4.315   1.869 -2.1929  3.9114 -2.4939
14152SOL    HW246499   3.486   4.187   1.881  0.7175  2.2360  1.9854
14153SOL     OW46500   2.121   0.003   3.634  0.1836  0.0919 -0.1347
14153SOL    HW146501   2.130  -0.083   3.593 -0.2734  0.0216 -0.0943
14153SOL    HW246502   2.118  -0.015   3.728  0.6892  0.2057 -0.0954
14154SOL     OW46503   3.275   2.270   8.402 -0.1013  0.2274  0.2033
14154SOL    HW146504   3.225   2.252   8.322  0.0277 -0.3222  0.2454
14154SOL    HW246505   3.347   2.326   8.372  0.9038 -1.3173 -0.3844
14155SOL     OW46506   5.841   8.943   9.440 -0.5238  0.0456  0.7669
14155SOL    HW146507   5.789   8.956   9.519 -0.6102  0.6410  0.6182
14155SOL    HW246508   5.918   8.999   9.453 -0.2407 -0.3228  0.6955
14156SOL     OW46509   3.013   9.095   7.502 -0.0428 -0.3778  0.3596
14156SOL    HW146510   3.044   9.102   7.412  2.0669  2.2158  1.1477
14156SOL    HW246511   3.046   9.010   7.532  1.7910 -0.0281 -0.4971
14157SOL     OW46512   8.263   2.176   9.924  0.2588  0.6811 -0.2773
14157SOL    HW146513   8.352   2.211   9.926 -0.2231  2.0523 -1.2701
14157SOL    HW246514   8.209   2.248   9.892 -1.0378 -0.4887 -0.8572
14158SOL     OW46515   5.096   8.389   1.470 -0.2228  0.3480  0.2673
14158SOL    HW146516   5.002   8.371   1.476  0.1939 -2.5314 -0.4103
14158SOL    HW246517   5.115   8.385   1.377  0.9848 -1.8244  0.5668
14159SOL     OW46518   9.968   7.151   8.945 -0.3278 -0.7047  0.2003
14159SOL    HW146519  10.036   7.149   8.878 -1.0686 -0.1577 -0.5885
14159SOL    HW246520  10.015   7.173   9.026  0.3222  0.6351 -0.4989
14160SOL     OW46521   9.419   7.328   9.568 -0.5313  0.0595  0.1698
14160SOL    HW146522   9.484   7.257   9.560 -0.3471  0.3455 -1.1616
14160SOL    HW246523   9.384   7.338   9.480 -0.7881  1.4216  0.4066
14161SOL     OW46524   9.443   4.658   1.133 -0.0073  0.0951 -0.4767
14161SOL    HW146525   9.449   4.663   1.228 -1.1049 -0.7306 -0.3404
14161SOL    HW246526   9.408   4.743   1.106 -1.3410 -0.2592  0.0432
14162SOL     OW46527   6.282   3.462   7.672  0.1713  0.0944 -0.0075
14162SOL    HW146528   6.241   3.392   7.622  0.8853  0.3379 -0.9503
14162SOL    HW246529   6.292   3.425   7.760  0.5902 -1.0142 -0.5007
14163SOL     OW46530   1.132   6.262   8.471  0.2700  0.9344  0.0364
14163SOL    HW146531   1.144   6.257   8.376 -0.7868  0.9151 -0.1041
14163SOL    HW246532   1.041   6.238   8.485  0.5597  0.3844  1.1163
14164SOL     OW46533   6.952   3.996   9.348 -0.3036  0.4170 -0.0922
14164SOL    HW146534   6.978   3.908   9.377  2.9881  0.9234 -1.0891
14164SOL    HW246535   6.906   3.981   9.265  0.4641 -0.3887 -0.3912
14165SOL     OW46536   0.483   7.970   9.052 -0.1513 -0.4051  0.3611
14165SOL    HW146537   0.430   7.929   9.121 -1.4227  0.7120  0.0726
14165SOL    HW246538   0.443   7.942   8.970 -0.5169  0.7064  0.1443
14166SOL     OW46539   0.163   7.718   0.483 -0.4431 -0.2294  0.2486
14166SOL    HW146540   0.097   7.742   0.419  1.1211  0.6307 -1.1270
14166SOL    HW246541   0.145   7.774   0.558  0.8054  2.6904 -1.4623
14167SOL     OW46542   9.649   5.777   5.756  0.1810  0.3510  0.3397
14167SOL    HW146543   9.604   5.720   5.819 -1.3823  1.3386  0.1823
14167SOL    HW246544   9.579   5.810   5.699  1.4266  0.2821 -1.2925
14168SOL     OW46545   2.095   6.859   0.020  0.2425 -0.0645 -0.2939
14168SOL    HW146546   2.111   6.777  -0.027  0.8689 -0.0126 -0.1881
14168SOL    HW246547   2.043   6.911  -0.041 -0.6737 -0.7607 -0.1288
14169SOL     OW46548   5.956  10.066   8.885 -0.2738  0.6478 -0.4064
14169SOL    HW146549   6.017  10.103   8.950  1.3600 -0.1613 -1.3995
14169SOL    HW246550   5.882  10.034   8.937  0.4243  1.1253  0.9310
14170SOL     OW46551   1.726   0.898   2.869  0.1842 -0.1088  0.7632
14170SOL    HW146552   1.661   0.836   2.835  0.2034  0.2006  0.1565
14170SOL    HW246553   1.809   0.869   2.832  0.0427  0.9064 -0.4224
14171SOL     OW46554  10.208   7.664   4.274  0.0668  0.5203 -0.2105
14171SOL    HW146555  10.244   7.743   4.236 -1.3595  1.4103  0.2127
14171SOL    HW246556  10.251   7.592   4.228 -0.4332  1.5397 -2.3631
14172SOL     OW46557   1.099   0.646   1.129  0.4470 -0.1517  0.2208
14172SOL    HW146558   1.107   0.603   1.214  2.4010  1.5218  0.9896
14172SOL    HW246559   1.028   0.709   1.141  0.4690 -0.1768  0.4947
14173SOL     OW46560  10.238   3.220   8.834  0.2164  0.2213  0.1479
14173SOL    HW146561  10.178   3.148   8.820 -1.6563  2.1018 -2.2801
14173SOL    HW246562  10.248   3.261   8.748  0.2744  3.4938  1.5645
14174SOL     OW46563   5.324   4.914   3.543 -0.1294 -0.1601  0.2019
14174SOL    HW146564   5.327   4.831   3.589 -1.7011  0.2324  1.0659
14174SOL    HW246565   5.353   4.893   3.454 -0.4122 -1.5948  0.4295
14175SOL     OW46566   7.656   7.097   5.174  0.1392 -0.8109  0.2626
14175SOL    HW146567   7.718   7.162   5.207 -0.1690  0.4898 -1.5864
14175SOL    HW246568   7.693   7.013   5.202 -0.3522  0.0900  4.3007
14176SOL     OW46569   3.738   7.232   8.695  0.0770 -0.0796  0.0275
14176SOL    HW146570   3.799   7.164   8.666  0.2342  0.0374  0.0849
14176SOL    HW246571   3.782   7.314   8.674  0.5708  0.0217  1.3372
14177SOL     OW46572   7.264   5.437   1.425  0.5449  0.1034 -0.1578
14177SOL    HW146573   7.275   5.381   1.348  1.6563  0.6823 -0.4358
14177SOL    HW246574   7.263   5.376   1.499 -0.0696 -0.4164 -0.5871
14178SOL     OW46575   7.802   9.275   7.162  0.3071 -0.1996 -0.6116
14178SOL    HW146576   7.876   9.295   7.105  0.2482  2.8366  0.1803
14178SOL    HW246577   7.730   9.256   7.102  0.8408  0.4760 -1.4991
14179SOL     OW46578   5.327   4.907   1.629 -0.4119  0.2515  0.0326
14179SOL    HW146579   5.336   4.816   1.603 -3.1004 -0.2420  0.5189
14179SOL    HW246580   5.328   4.956   1.547  0.8717 -0.1889 -0.2426
14180SOL     OW46581   0.089   2.905   2.519  0.2620  0.4626 -0.4013
14180SOL    HW146582   0.078   2.870   2.607  0.3595 -0.8250 -0.8877
14180SOL    HW246583   0.126   2.993   2.533 -0.5264  0.6193  0.8562
14181SOL     OW46584   3.778   6.923   1.370 -0.0088 -0.1554  0.2498
14181SOL    HW146585   3.860   6.963   1.399 -0.5377 -0.9895  3.2407
14181SOL    HW246586   3.719   6.932   1.444 -2.4685 -0.1502 -1.5815
14182SOL     OW46587   8.829   6.672   4.714 -0.5235 -0.3596 -0.2499
14182SOL    HW146588   8.770   6.633   4.778  0.3059 -1.0045  0.1398
14182SOL    HW246589   8.891   6.603   4.693  0.9854  0.7393  0.4556
14183SOL     OW46590   9.005   1.824   9.926 -0.0614 -0.4299 -0.4635
14183SOL    HW146591   9.006   1.750   9.987 -0.8150 -0.7502 -0.8185
14183SOL    HW246592   9.036   1.786   9.843  1.8695  0.2141 -0.0799
14184SOL     OW46593   5.478   0.503   8.124 -0.0585 -0.0554  0.1839
14184SOL    HW146594   5.418   0.436   8.091 -0.6448  0.7256 -0.3799
14184SOL    HW246595   5.424   0.581   8.136  0.6759  0.4265  0.4775
14185SOL     OW46596   1.064   3.505   6.353  0.2405 -0.3358 -0.0387
14185SOL    HW146597   0.980   3.461   6.342 -0.2241  0.1101  1.5760
14185SOL    HW246598   1.126   3.450   6.305 -0.5927 -1.9100  0.6202
14186SOL     OW46599   9.818   2.764   5.198 -0.0567 -0.3720 -0.2063
14186SOL    HW146600   9.768   2.845   5.203  1.1606  0.3418  3.3636
14186SOL    HW246601   9.909   2.792   5.195  0.6185 -1.2914  4.1078
14187SOL     OW46602   9.981   8.680   2.369  0.1163 -0.3799 -0.0173
14187SOL    HW146603   9.951   8.600   2.326 -0.9799  0.8711 -1.7179
14187SOL    HW246604   9.950   8.672   2.459  1.0439 -2.3467  0.1685
14188SOL     OW46605  10.227   9.103   9.514  0.1819  0.2971  0.9683
14188SOL    HW146606  10.173   9.055   9.451 -2.6920 -0.1239  3.5480
14188SOL    HW246607  10.244   9.187   9.471 -1.2301 -0.1453 -0.5899
14189SOL     OW46608   3.141   7.227   1.038 -0.1101  0.7733  0.8307
14189SOL    HW146609   3.179   7.243   1.125 -1.7752  2.1183  1.3778
14189SOL    HW246610   3.083   7.153   1.050  2.4008 -1.5177 -0.0888
14190SOL     OW46611   9.098   7.700   6.058  0.6317 -0.2371 -0.1862
14190SOL    HW146612   9.120   7.793   6.063 -0.3047  0.0081 -0.5144
14190SOL    HW246613   9.003   7.697   6.068  0.6796 -1.1870  0.1018
14191SOL     OW46614   2.620   6.956   3.877  0.0269 -0.0902  0.3815
14191SOL    HW146615   2.689   6.960   3.811  0.1219 -0.0843  0.4803
14191SOL    HW246616   2.538   6.964   3.827  0.1313  0.9391  0.3622
14192SOL     OW46617   7.059   4.419  10.294  0.2616  0.1246 -0.5103
14192SOL    HW146618   7.115   4.490  10.325  2.0034 -1.6308  0.6188
14192SOL    HW246619   7.055   4.358  10.368 -1.2477 -0.9204 -1.4021
14193SOL     OW46620   7.370   3.977   4.381  0.0693 -1.0507 -0.4259
14193SOL    HW146621   7.421   4.016   4.452 -1.0889 -1.5371  0.7239
14193SOL    HW246622   7.393   3.884   4.384 -0.4883 -1.1853 -0.2294
14194SOL     OW46623   7.711   0.907   3.948  0.3868 -0.0111 -0.2022
14194SOL    HW146624   7.620   0.925   3.970 -0.0945 -1.6811 -0.6413
14194SOL    HW246625   7.708   0.822   3.904  2.1369  0.0006 -0.4028
14195SOL     OW46626   5.927   8.443   3.990  0.3697 -0.2786  0.1211
14195SOL    HW146627   5.892   8.402   4.069  0.3914  0.9045  0.7633
14195SOL    HW246628   5.966   8.524   4.021 -2.3575  1.7918 -1.4556
14196SOL     OW46629   2.465   3.877   2.933 -0.4147  0.3532 -0.4674
14196SOL    HW146630   2.463   3.785   2.906  2.4103  0.3888 -1.0872
14196SOL    HW246631   2.453   3.925   2.851  1.8738  0.4682 -0.7929
14197SOL     OW46632   2.377   5.312   7.749 -0.0920 -0.5523 -0.4334
14197SOL    HW146633   2.431   5.314   7.828  0.3430 -0.7055 -0.7283
14197SOL    HW246634   2.325   5.393   7.754  0.9191  0.1342 -0.6799
14198SOL     OW46635   3.713   2.653   6.644 -0.0462  0.1126 -0.4785
14198SOL    HW146636   3.647   2.701   6.595 -1.2535  0.2054  1.1364
14198SOL    HW246637   3.785   2.715   6.656 -0.4047  0.5942 -0.8017
14199SOL     OW46638   0.326   5.520   9.289 -0.6241  0.0645  0.3470
14199SOL    HW146639   0.319   5.604   9.335 -1.5232  0.1331  0.0890
14199SOL    HW246640   0.237   5.486   9.287 -0.2492 -0.9699  0.5680
14200SOL     OW46641   1.756   0.175   2.383 -0.0843 -0.1786 -0.5759
14200SOL    HW146642   1.815   0.138   2.317  0.7135 -1.5552  0.8298
14200SOL    HW246643   1.684   0.212   2.333 -1.0531 -3.8368 -2.1908
14201SOL     OW46644   0.334   0.461   7.370  0.3895 -0.3529 -0.4591
14201SOL    HW146645   0.328   0.418   7.285 -1.6499 -1.3651  0.1511
14201SOL    HW246646   0.383   0.399   7.424 -1.0096 -1.1530 -0.0705
14202SOL     OW46647   9.918  10.079   1.849 -0.3162  0.3139 -0.0384
14202SOL    HW146648   9.917  10.153   1.910 -2.8745  0.4574 -0.1413
14202SOL    HW246649   9.850  10.020   1.881  1.1828 -1.6991 -0.3822
14203SOL     OW46650   5.493   4.393   8.846 -0.1239 -0.0594 -0.2578
14203SOL    HW146651   5.515   4.362   8.758 -0.1484  1.0981 -0.6879
14203SOL    HW246652   5.475   4.486   8.834  0.0106  0.1363  1.0011
14204SOL     OW46653   9.447   6.548   9.979  0.0649 -0.5421 -0.2006
14204SOL    HW146654   9.413   6.552   9.890  0.3555  0.1769 -0.2863
14204SOL    HW246655   9.422   6.461  10.011  0.3762 -0.9915 -1.1527
14205SOL     OW46656   5.577   4.398   5.220  0.4632  0.0848  0.1571
14205SOL    HW146657   5.546   4.438   5.139  0.8710  1.0464  0.4593
14205SOL    HW246658   5.499   4.389   5.274  0.3563  0.4479  0.0677
14206SOL     OW46659   9.070   3.154  10.125  0.9418  0.1585  0.0098
14206SOL    HW146660   9.122   3.174  10.204  0.7295 -1.5676  0.6251
14206SOL    HW246661   9.135   3.146  10.055  1.0588  2.7102 -0.2852
14207SOL     OW46662   6.210   5.077   9.676 -0.0942  0.4396 -0.2590
14207SOL    HW146663   6.142   5.096   9.740  0.9487  1.8560  0.4819
14207SOL    HW246664   6.292   5.092   9.722  0.7087  0.6018 -1.6598
14208SOL     OW46665   2.391   5.881   8.413 -0.4686  0.0836  0.4287
14208SOL    HW146666   2.440   5.820   8.468 -0.9206  0.3927  1.1824
14208SOL    HW246667   2.457   5.942   8.380 -0.5539  1.7016  3.0141
14209SOL     OW46668   6.964   5.595   2.984  0.1815  0.5273 -0.2774
14209SOL    HW146669   6.908   5.622   2.911 -1.0717 -0.9940  0.0745
14209SOL    HW246670   6.924   5.635   3.061 -0.5183 -0.6316 -0.0145
14210SOL     OW46671   6.899   5.941  10.103  0.1103 -0.1232  0.3291
14210SOL    HW146672   6.819   5.988  10.080  0.2313  0.6666  1.4305
14210SOL    HW246673   6.914   5.963  10.195  1.8746  0.1722  0.0122
14211SOL     OW46674   6.738   1.532   1.218  0.1042 -0.3389 -0.0893
14211SOL    HW146675   6.710   1.497   1.134  0.7732 -2.2118  0.4145
14211SOL    HW246676   6.682   1.489   1.282 -1.1363  1.8712  0.4180
14212SOL     OW46677   4.635   3.749   5.820 -0.3969  0.0247 -0.3902
14212SOL    HW146678   4.563   3.759   5.757 -0.4592 -1.7459 -0.6509
14212SOL    HW246679   4.592   3.753   5.906 -1.1368 -2.6801 -0.5486
14213SOL     OW46680   2.653   4.172   9.030  0.6130 -0.2662  0.4085
14213SOL    HW146681   2.632   4.265   9.027  1.3123 -0.0626  1.4809
14213SOL    HW246682   2.574   4.129   8.997  0.0518  0.6710  0.5019
14214SOL     OW46683   1.826   6.298   9.232 -0.1650 -0.0880  0.2208
14214SOL    HW146684   1.893   6.335   9.290 -1.2563  1.7771  0.3653
14214SOL    HW246685   1.873   6.232   9.180  1.6710  0.8540  0.6104
14215SOL     OW46686   4.780   2.501   5.523 -0.5611 -0.1713 -0.1877
14215SOL    HW146687   4.840   2.573   5.539  0.4224 -1.1041  0.4062
14215SOL    HW246688   4.776   2.453   5.606  0.6206 -2.1330 -1.1849
14216SOL     OW46689   1.096   3.547   7.920  0.0149  0.0526 -0.1881
14216SOL    HW146690   1.129   3.582   7.838  0.7809 -1.5815 -0.6165
14216SOL    HW246691   1.033   3.479   7.895 -1.2491  0.8852  0.6111
14217SOL     OW46692   7.072   9.096   8.673 -0.4256 -0.1547  0.3746
14217SOL    HW146693   7.020   9.155   8.727  0.4307 -0.5237  1.6521
14217SOL    HW246694   7.013   9.070   8.602 -1.4329  0.6986  0.8678
14218SOL     OW46695   3.963   6.431   9.954  0.0595 -0.5566 -0.0621
14218SOL    HW146696   3.927   6.344   9.972 -1.5028  0.3059  1.2682
14218SOL    HW246697   3.926   6.454   9.869 -0.6019 -0.6668  0.1878
14219SOL     OW46698   8.634   9.831   7.278 -0.1992 -0.4872  0.1739
14219SOL    HW146699   8.596   9.909   7.318  0.1595 -0.0628 -0.2952
14219SOL    HW246700   8.729   9.842   7.289 -0.0604 -0.1186 -1.1976
14220SOL     OW46701   3.035   8.571  10.088 -0.3648 -0.3550  0.2112
14220SOL    HW146702   3.125   8.583  10.057 -0.5359 -0.8272 -0.4940
14220SOL    HW246703   3.041   8.501  10.153  0.0289  0.7838  1.4303
14221SOL     OW46704   2.499   2.791   9.669  0.2471 -0.0901  0.1574
14221SOL    HW146705   2.503   2.706   9.713 -0.4562 -0.1326  0.1400
14221SOL    HW246706   2.414   2.792   9.626 -0.4029  1.2472  1.3904
14222SOL     OW46707   0.387   0.809   9.913 -0.5212  0.2556  0.2984
14222SOL    HW146708   0.452   0.843   9.851 -1.7032  0.2509 -0.9761
14222SOL    HW246709   0.356   0.728   9.874 -0.1887 -0.5873  1.6797
14223SOL     OW46710   3.357   7.498   8.030  0.2566  0.0020  0.3957
14223SOL    HW146711   3.373   7.574   8.086  0.7756 -0.3644  0.7507
14223SOL    HW246712   3.378   7.528   7.942  0.7036  0.1973  0.5654
14224SOL     OW46713   6.173   4.425   8.514 -0.6619 -0.1831 -0.1244
14224SOL    HW146714   6.242   4.467   8.462 -0.3296  0.1997  0.6132
14224SOL    HW246715   6.169   4.476   8.595  0.8722 -2.4562  1.5251
14225SOL     OW46716   2.754   2.314   8.660  0.0441 -0.1053 -0.6680
14225SOL    HW146717   2.747   2.364   8.742 -4.1088 -1.2284 -0.0937
14225SOL    HW246718   2.834   2.263   8.670 -0.2569 -0.1521  2.7346
14226SOL     OW46719   5.870   6.139   1.796  0.1181  0.8998 -0.1523
14226SOL    HW146720   5.926   6.146   1.874 -0.0818  0.4191  0.0376
14226SOL    HW246721   5.823   6.057   1.808 -1.2351  1.6760  0.0866
14227SOL     OW46722   7.371   2.901   2.851  0.2548 -0.2086  0.5499
14227SOL    HW146723   7.298   2.908   2.912  0.6877 -3.7954  1.7290
14227SOL    HW246724   7.447   2.884   2.907  1.5361  0.9383 -0.7856
14228SOL     OW46725   1.186   6.266   7.180 -0.1955 -0.0765  0.5115
14228SOL    HW146726   1.225   6.179   7.191 -0.5699 -0.5158 -1.2333
14228SOL    HW246727   1.092   6.250   7.178 -0.2470  0.2768 -0.3837
14229SOL     OW46728   2.630   9.645   2.131  0.5977  0.0665  0.2203
14229SOL    HW146729   2.561   9.626   2.195 -1.4728  0.4078 -1.7953
14229SOL    HW246730   2.602   9.726   2.088  1.0864 -0.9100 -2.1183
14230SOL     OW46731   3.968   2.536   8.037  0.1989  0.3806  0.0522
14230SOL    HW146732   3.945   2.484   8.114  1.8567  0.9902  1.0174
14230SOL    HW246733   4.048   2.583   8.062  1.0801  0.2456 -2.2142
14231SOL     OW46734   3.608   8.590   0.317  0.0717 -0.7243 -0.1326
14231SOL    HW146735   3.698   8.623   0.313 -0.1315  0.0982  1.3338
14231SOL    HW246736   3.556   8.666   0.340 -1.0177 -1.1929 -0.9866
14232SOL     OW46737   0.273   6.119   0.558 -0.4256 -0.0731  0.3707
14232SOL    HW146738   0.293   6.212   0.565 -1.0164  0.2451 -1.4222
14232SOL    HW246739   0.226   6.098   0.638  0.3101  1.0008  1.1080
14233SOL     OW46740   1.309   2.705   6.858 -0.0314  0.5710 -0.3720
14233SOL    HW146741   1.328   2.612   6.868 -0.5748  0.5625  0.7599
14233SOL    HW246742   1.226   2.718   6.904  1.1191  2.0139  1.4511
14234SOL     OW46743  10.135   3.183   7.549  0.4127 -0.3194 -0.3551
14234SOL    HW146744  10.202   3.155   7.487  0.3134  0.6210 -0.8961
14234SOL    HW246745  10.184   3.229   7.618  0.3611  0.0444 -0.5611
14235SOL     OW46746   7.422   6.451   3.346 -0.4203 -0.0973 -0.5906
14235SOL    HW146747   7.422   6.514   3.273  0.1755 -1.0205 -1.4112
14235SOL    HW246748   7.486   6.486   3.407  0.2288 -0.1241 -1.2433
14236SOL     OW46749   9.401   6.043   9.725 -0.1431  0.1823 -0.8253
14236SOL    HW146750   9.334   6.024   9.791 -0.4265  1.9912 -0.5488
14236SOL    HW246751   9.472   6.083   9.774 -0.0658  0.9046 -1.5036
14237SOL     OW46752   7.420   0.380   4.763 -0.1940 -0.1896  0.4883
14237SOL    HW146753   7.410   0.293   4.725  0.1237  0.5101 -1.2719
14237SOL    HW246754   7.499   0.375   4.817  0.0362 -0.8747  0.0884
14238SOL     OW46755   4.846   3.498   6.896  0.2031  0.1689  0.5135
14238SOL    HW146756   4.788   3.536   6.963 -1.0291  0.2979 -0.5740
14238SOL    HW246757   4.813   3.409   6.884  0.8211 -0.0623  0.5330
14239SOL     OW46758   8.373   0.396   8.306 -0.5799  0.3987  0.3167
14239SOL    HW146759   8.402   0.447   8.382 -2.3457  1.6092  0.2131
14239SOL    HW246760   8.452   0.386   8.253  0.7035 -0.4763  2.2637
14240SOL     OW46761   0.285   3.863   8.292 -0.5569  0.2178  0.2107
14240SOL    HW146762   0.320   3.813   8.218 -2.0269 -2.8878  1.4026
14240SOL    HW246763   0.341   3.837   8.366 -0.0776  2.0493  0.5446
14241SOL     OW46764   7.374   7.553   0.783 -0.2399  0.5296 -0.2201
14241SOL    HW146765   7.295   7.588   0.742  0.6594  1.4456 -1.2239
14241SOL    HW246766   7.422   7.512   0.711  0.2315  0.0215  0.3755
14242SOL     OW46767   8.679   6.839   4.370  0.1821 -0.8990 -0.2827
14242SOL    HW146768   8.726   6.792   4.302  1.8113  0.6617 -0.3285
14242SOL    HW246769   8.637   6.912   4.324  1.7772  0.5068  0.3919
14243SOL     OW46770   6.499   1.765   1.910 -0.2755 -0.6189  0.7398
14243SOL    HW146771   6.540   1.845   1.880  0.2878 -0.4805  1.8231
14243SOL    HW246772   6.414   1.762   1.865 -0.7713  1.1243  1.4726
14244SOL     OW46773  10.196   7.509   6.138  0.2149  0.4104 -0.5532
14244SOL    HW146774  10.252   7.432   6.153  1.3628  1.3489  0.1697
14244SOL    HW246775  10.107   7.474   6.138  0.7616 -1.0828 -1.3657
14245SOL     OW46776   9.466   8.318   5.685 -0.5269  0.2666  0.7340
14245SOL    HW146777   9.490   8.238   5.731 -2.0196  0.2421  1.5179
14245SOL    HW246778   9.421   8.371   5.750 -1.1918  0.9626 -0.2591
14246SOL     OW46779   6.523   3.773   1.556  0.0517 -0.2457 -0.3613
14246SOL    HW146780   6.566   3.840   1.610  0.2392 -0.9797  0.4234
14246SOL    HW246781   6.485   3.712   1.619  2.5188 -2.5963 -0.9340
14247SOL     OW46782   3.046   5.137   2.721 -0.9232 -0.2267 -0.2523
14247SOL    HW146783   3.083   5.050   2.705 -0.3856 -0.1028  0.2766
14247SOL    HW246784   3.122   5.196   2.722 -1.3596  0.3802 -1.4392
14248SOL     OW46785   6.258   6.072   2.101  0.4221 -0.8966 -0.2205
14248SOL    HW146786   6.331   6.035   2.152  0.8387 -2.1421 -1.6540
14248SOL    HW246787   6.295   6.149   2.059  0.5410 -0.7938  0.0706
14249SOL     OW46788   7.394   8.747   6.893 -0.7753 -0.1978 -0.1332
14249SOL    HW146789   7.441   8.759   6.975  0.2862 -0.9186 -0.6128
14249SOL    HW246790   7.305   8.723   6.920 -0.2265 -1.2466  0.8255
14250SOL     OW46791   1.674   9.363   5.136 -0.2588 -0.0179  0.2996
14250SOL    HW146792   1.740   9.341   5.070  1.2089  1.3672  1.2345
14250SOL    HW246793   1.614   9.423   5.092 -0.2119 -0.3287 -0.1962
14251SOL     OW46794   7.650   4.715   7.465 -0.1283 -0.7909 -0.0761
14251SOL    HW146795   7.668   4.741   7.556 -0.8337  2.4267 -0.7341
14251SOL    HW246796   7.730   4.738   7.418 -0.5676 -0.2933 -0.5987
14252SOL     OW46797   5.308   2.371   2.229  0.6184  0.3842 -0.2846
14252SOL    HW146798   5.386   2.341   2.275  0.6230 -0.2785 -0.7043
14252SOL    HW246799   5.339   2.442   2.173  0.4416  1.8501  1.3879
14253SOL     OW46800   5.091   3.340   1.166  0.1724 -0.0122 -0.4355
14253SOL    HW146801   5.044   3.290   1.232  0.2396  0.5692  0.0707
14253SOL    HW246802   5.024   3.370   1.105 -0.0113  0.1601 -0.1509
14254SOL     OW46803   8.838   8.189   7.678 -0.5327  0.1457 -0.5931
14254SOL    HW146804   8.876   8.215   7.595 -1.2510 -1.2495 -1.3935
14254SOL    HW246805   8.748   8.167   7.658 -0.3008 -1.7600  0.2141
14255SOL     OW46806   0.300   6.252   9.950  0.6579  0.4389 -0.0750
14255SOL    HW146807   0.305   6.198  10.029 -0.2783  0.7874  0.2310
14255SOL    HW246808   0.382   6.232   9.903  1.7286  0.9933  1.4687
14256SOL     OW46809   3.828   6.244   2.002  0.0720  0.0701  0.2192
14256SOL    HW146810   3.878   6.312   2.046 -0.1658  1.0329 -0.9678
14256SOL    HW246811   3.812   6.278   1.914 -0.3039 -1.3934 -0.3078
14257SOL     OW46812   1.528   1.640   9.554  0.1059  0.1234  0.0441
14257SOL    HW146813   1.496   1.711   9.610  0.4089  0.6809 -0.4701
14257SOL    HW246814   1.567   1.577   9.614 -0.8591  0.0136  0.5750
14258SOL     OW46815   0.804   6.756   3.786 -0.0371 -0.0042  0.2178
14258SOL    HW146816   0.738   6.760   3.855  1.0687  0.4607  1.2786
14258SOL    HW246817   0.871   6.697   3.820  0.0501 -0.5619 -0.8905
14259SOL     OW46818   2.830   5.330   6.486  0.6928  0.4823 -0.7285
14259SOL    HW146819   2.854   5.368   6.402 -1.8714 -0.1884 -1.8531
14259SOL    HW246820   2.822   5.236   6.469 -3.1695  0.6646 -0.7514
14260SOL     OW46821   9.530   5.648   5.951  0.5162  0.3062  0.1454
14260SOL    HW146822   9.464   5.618   5.889  1.3966  0.1747 -0.7511
14260SOL    HW246823   9.481   5.700   6.014 -0.2717  1.3272 -1.2430
14261SOL     OW46824   5.654   9.346   5.168  0.3175 -0.0188 -0.3452
14261SOL    HW146825   5.715   9.386   5.229 -0.7422  1.6114 -0.3097
14261SOL    HW246826   5.703   9.340   5.086  0.3644  1.8240 -0.4780
14262SOL     OW46827   9.424   9.055   5.063 -0.0787  0.4850  0.1771
14262SOL    HW146828   9.420   8.964   5.093  0.7671  0.4849  0.3000
14262SOL    HW246829   9.332   9.080   5.051 -0.3292 -0.2859  0.4344
14263SOL     OW46830   8.301  10.261   9.316  0.2074 -0.0067 -0.4111
14263SOL    HW146831   8.294  10.337   9.374  0.2382  0.2467 -0.7326
14263SOL    HW246832   8.213  10.226   9.312  0.1980 -0.0021 -0.2384
14264SOL     OW46833   1.064   8.671  10.050 -0.3769  0.0045 -0.6455
14264SOL    HW146834   1.036   8.710   9.967 -0.6262  0.3886 -0.3880
14264SOL    HW246835   1.158   8.689  10.054 -0.6052  1.1925 -0.2233
14265SOL     OW46836   8.742   5.826   3.380 -0.7489  0.0595  0.1631
14265SOL    HW146837   8.697   5.818   3.296 -0.0523 -1.1510 -0.1297
14265SOL    HW246838   8.834   5.808   3.359 -0.7515 -1.6505  1.3723
14266SOL     OW46839   2.713   6.662   3.039 -0.8469  0.3359 -0.2024
14266SOL    HW146840   2.732   6.745   3.083 -2.5207  0.2200  0.8239
14266SOL    HW246841   2.783   6.603   3.067  0.2117  1.2953 -0.7310
14267SOL     OW46842   1.387   3.861   6.551 -0.1036 -0.2666 -0.5009
14267SOL    HW146843   1.368   3.839   6.642  1.6770 -0.0652 -0.0360
14267SOL    HW246844   1.325   3.931   6.529  0.0373  0.3068  0.8546
14268SOL     OW46845   0.118   3.227   0.085 -0.5561  0.4827 -0.2641
14268SOL    HW146846   0.022   3.233   0.090 -0.6555 -1.3149  2.0661
14268SOL    HW246847   0.148   3.308   0.127 -1.1350  0.1643  0.8245
14269SOL     OW46848   8.727   3.330   2.091 -0.4106  0.4466  0.1338
14269SOL    HW146849   8.659   3.273   2.054 -0.6389 -0.2113  1.4934
14269SOL    HW246850   8.715   3.322   2.186  0.8394  1.2162  0.3717
14270SOL     OW46851   9.081   3.151   2.384  0.4082 -0.6000 -0.6358
14270SOL    HW146852   9.163   3.102   2.392  0.3079 -0.4998  1.3982
14270SOL    HW246853   9.015   3.095   2.425 -0.0769  0.3779 -0.0557
14271SOL     OW46854   4.781   6.102   2.132  1.0261 -0.5526 -0.7022
14271SOL    HW146855   4.876   6.087   2.124  1.1107 -1.6324  1.5604
14271SOL    HW246856   4.772   6.148   2.215 -0.5586 -2.0066 -0.0287
14272SOL     OW46857   5.421   3.465  10.049  0.1633  0.4997  0.0216
14272SOL    HW146858   5.468   3.385  10.075  0.3021  1.0528  1.6089
14272SOL    HW246859   5.337   3.434  10.015  0.9239 -0.4039 -1.1025
14273SOL     OW46860   5.818   9.366   2.759  0.0701 -0.2554  0.4854
14273SOL    HW146861   5.884   9.396   2.697 -0.4712 -0.5229 -0.2335
14273SOL    HW246862   5.860   9.375   2.845  0.6088  0.7010  0.1407
14274SOL     OW46863   2.929   4.626   5.820 -0.0615 -0.7589 -0.1902
14274SOL    HW146864   2.864   4.689   5.849 -0.5193 -1.1914 -0.2494
14274SOL    HW246865   3.012   4.672   5.825 -0.3831 -0.1767 -0.1772
14275SOL     OW46866   1.001   5.762   8.082  0.2955 -1.3648 -0.1841
14275SOL    HW146867   0.936   5.820   8.043  0.2547 -1.5451 -0.3866
14275SOL    HW246868   1.078   5.771   8.026  0.2391 -1.6187 -0.3039
14276SOL     OW46869   1.730   2.950   5.007 -0.3688 -0.0113 -0.3462
14276SOL    HW146870   1.765   2.911   4.927 -2.1576 -2.5172 -0.0173
14276SOL    HW246871   1.635   2.943   4.998 -0.6302  0.0571  1.7854
14277SOL     OW46872   8.237   2.085   6.775  0.2775  0.1553 -0.4939
14277SOL    HW146873   8.180   2.023   6.820  0.9573  0.3142  0.6500
14277SOL    HW246874   8.266   2.040   6.696  1.2648 -1.2560  0.6245
14278SOL     OW46875   0.942   7.877   5.743 -0.4531 -0.2676 -0.1912
14278SOL    HW146876   0.864   7.850   5.693 -1.4162  1.2652  0.4147
14278SOL    HW246877   0.944   7.818   5.818 -0.6154 -0.7693 -0.5726
14279SOL     OW46878   9.947   5.094   3.728  0.0316  0.2027 -0.3735
14279SOL    HW146879   9.903   5.009   3.731  0.2134  0.0069 -2.0996
14279SOL    HW246880   9.878   5.158   3.745 -0.2862 -0.2390  0.0238
14280SOL     OW46881   2.639   3.918   8.576  0.4879  0.3335 -0.2543
14280SOL    HW146882   2.657   3.838   8.526  0.2917  0.4241 -0.4679
14280SOL    HW246883   2.551   3.944   8.549 -0.2387 -0.4389  1.2206
14281SOL     OW46884   7.337   4.251   2.328  0.6792  0.4380 -0.0672
14281SOL    HW146885   7.335   4.299   2.245  1.1894  0.8370  0.1483
14281SOL    HW246886   7.428   4.225   2.339  0.8779  1.5259  1.0081
14282SOL     OW46887   5.039   9.105   8.389 -0.5374  0.4224 -0.1906
14282SOL    HW146888   5.065   9.149   8.470 -0.4814  0.4312 -0.2141
14282SOL    HW246889   5.050   9.011   8.408  0.2804  0.4611 -0.4748
14283SOL     OW46890   3.846   5.040   1.599  0.5777 -0.1964  0.3475
14283SOL    HW146891   3.820   5.091   1.522  0.2094  0.1676  0.7063
14283SOL    HW246892   3.790   5.073   1.670  1.2189 -0.2204  0.8699
14284SOL     OW46893   9.076   5.022   0.043  0.4842 -0.0619  0.9021
14284SOL    HW146894   9.151   5.081   0.046  1.3922 -1.0373 -0.5976
14284SOL    HW246895   9.115   4.934   0.041 -0.5750 -0.5683 -1.1732
14285SOL     OW46896   4.113   6.403   9.301  0.4728 -0.2349  0.1958
14285SOL    HW146897   4.149   6.343   9.236  0.7192  0.3281 -0.1956
14285SOL    HW246898   4.119   6.355   9.384 -1.2365 -1.5550 -0.3785
14286SOL     OW46899   8.971   0.213   8.875  0.2316  0.8244 -0.0536
14286SOL    HW146900   9.019   0.295   8.864  0.4423  0.6271 -0.6548
14286SOL    HW246901   8.996   0.182   8.962 -1.5971  2.5104  1.1681
14287SOL     OW46902   1.476   9.916   2.162  0.4853 -0.0822  0.5973
14287SOL    HW146903   1.420   9.869   2.100  1.0750 -0.0119  0.0080
14287SOL    HW246904   1.431  10.000   2.176 -0.0434 -0.4027  0.8670
14288SOL     OW46905   7.488   9.409   1.687 -0.0759  0.6011  0.9966
14288SOL    HW146906   7.570   9.383   1.644 -0.2659  0.4490  0.7251
14288SOL    HW246907   7.501   9.501   1.709 -0.1649  0.8114  0.1790
14289SOL     OW46908   1.738   8.921   7.918 -0.1567  0.2973  0.1089
14289SOL    HW146909   1.770   8.874   7.840 -0.1711  1.6601 -0.7428
14289SOL    HW246910   1.670   8.863   7.954  1.1719 -1.2514  0.2391
14290SOL     OW46911   3.887   7.411   9.087  0.0216 -0.5148  0.3945
14290SOL    HW146912   3.893   7.497   9.128  0.6130 -1.3647  2.1614
14290SOL    HW246913   3.902   7.349   9.158  1.9413 -2.0611 -1.2553
14291SOL     OW46914   8.231   4.084   1.721 -0.2683 -0.0599  0.1498
14291SOL    HW146915   8.240   4.072   1.815 -0.3151 -1.2386  0.0243
14291SOL    HW246916   8.259   4.174   1.705 -0.6029  0.2720  1.3253
14292SOL     OW46917   2.928   5.833   9.785 -0.4012 -0.0271 -0.5991
14292SOL    HW146918   2.882   5.818   9.702 -1.2972 -0.0877 -0.1052
14292SOL    HW246919   3.012   5.787   9.774 -0.9459 -0.9463 -1.0810
14293SOL     OW46920   8.430   1.987   2.924 -0.1182  0.0012 -0.2508
14293SOL    HW146921   8.388   2.023   2.846 -0.0190 -1.5467 -1.0500
14293SOL    HW246922   8.515   1.956   2.893  0.5267  0.6622  0.7956
14294SOL     OW46923   3.057   3.515   3.884 -0.2336  0.2419 -0.3940
14294SOL    HW146924   3.150   3.502   3.903 -0.5670 -0.5857  0.7676
14294SOL    HW246925   3.026   3.429   3.855 -0.0163  1.1729 -3.7618
14295SOL     OW46926   7.448   0.035   9.349 -0.2087 -0.1393 -0.8316
14295SOL    HW146927   7.365   0.067   9.314 -1.7343 -0.5439  2.1021
14295SOL    HW246928   7.503   0.113   9.355 -1.6773  0.8578  0.4607
14296SOL     OW46929   6.550   3.168   9.668  0.0442 -0.1759 -0.0179
14296SOL    HW146930   6.516   3.142   9.582 -2.2215  0.8260  0.5025
14296SOL    HW246931   6.534   3.262   9.673  0.1366 -0.2175  1.5166
14297SOL     OW46932   9.237   0.470   9.633 -0.0327 -0.0705 -0.4590
14297SOL    HW146933   9.174   0.477   9.561 -1.7879  0.7181  1.0644
14297SOL    HW246934   9.213   0.540   9.693  2.1880  0.0982  0.3281
14298SOL     OW46935   3.130   4.110   5.938  0.4603 -0.1209 -0.3092
14298SOL    HW146936   3.092   4.184   5.985  0.3213 -0.2775 -0.1737
14298SOL    HW246937   3.089   4.033   5.978 -1.7590 -0.1874 -2.4698
14299SOL     OW46938   4.886   7.206   3.651 -0.5153 -0.2635 -0.4022
14299SOL    HW146939   4.929   7.125   3.676 -1.6556 -0.7331  0.1273
14299SOL    HW246940   4.953   7.256   3.604  0.0524 -1.7525 -1.2516
14300SOL     OW46941   8.405   4.699   4.923 -0.1892 -0.3503 -0.4221
14300SOL    HW146942   8.349   4.663   4.855  0.3440 -0.5647 -0.7534
14300SOL    HW246943   8.494   4.676   4.896  0.1196  0.6538 -0.3038
14301SOL     OW46944   3.167   7.555   3.058 -0.1968 -0.1236  0.0530
14301SOL    HW146945   3.258   7.534   3.035 -0.5853 -0.6561 -1.1105
14301SOL    HW246946   3.124   7.470   3.067 -0.2594  0.0922  2.0765
14302SOL     OW46947   8.232   9.711   6.297 -0.4455  0.4712  0.4445
14302SOL    HW146948   8.216   9.675   6.210  0.5507 -0.3845  0.5926
14302SOL    HW246949   8.244   9.805   6.283  3.6981 -0.0835 -0.9863
14303SOL     OW46950   5.364   6.057   0.604  1.0533 -0.7722 -0.2965
14303SOL    HW146951   5.400   5.972   0.577 -0.9616 -1.1633 -2.0078
14303SOL    HW246952   5.371   6.112   0.526  0.0630 -0.1544  0.0373
14304SOL     OW46953   3.094   7.485   4.088  0.3079  0.3399 -0.7311
14304SOL    HW146954   3.045   7.450   4.163  2.5739 -1.9752 -0.1768
14304SOL    HW246955   3.103   7.578   4.107 -0.3688  0.0649  1.1721
14305SOL     OW46956   9.493   1.547   0.424 -0.1069 -0.1360 -0.1006
14305SOL    HW146957   9.584   1.560   0.397 -0.3757  1.1068 -0.4478
14305SOL    HW246958   9.499   1.485   0.497  1.3427  2.2951  2.0378
14306SOL     OW46959   8.495   1.383   2.013 -0.1189 -0.1314  0.0427
14306SOL    HW146960   8.528   1.293   2.002  1.4119  0.1512  1.7385
14306SOL    HW246961   8.409   1.383   1.971 -0.1838 -2.4030  0.0670
14307SOL     OW46962   9.608   9.514   0.273 -0.1821 -0.4373  0.4121
14307SOL    HW146963   9.666   9.588   0.291 -0.0719 -0.9410  2.4437
14307SOL    HW246964   9.520   9.550   0.280 -0.1220 -0.3682  0.8855
14308SOL     OW46965   5.132   7.586   7.335 -0.1244  0.4351 -0.0696
14308SOL    HW146966   5.048   7.561   7.295 -0.3345  0.2515  0.4730
14308SOL    HW246967   5.157   7.667   7.291  0.7334 -0.8782 -2.1324
14309SOL     OW46968   0.008   3.225   8.542 -0.2762 -0.5367  0.5088
14309SOL    HW146969   0.102   3.232   8.523 -0.1110 -0.8722  1.1418
14309SOL    HW246970  -0.022   3.152   8.488 -0.6952  1.0229 -1.4732
14310SOL     OW46971   7.308   7.647   7.348 -0.0144 -0.2108  0.5302
14310SOL    HW146972   7.223   7.642   7.304 -1.2541 -0.0651  2.7851
14310SOL    HW246973   7.337   7.737   7.332 -0.4918 -0.1215  0.1245
14311SOL     OW46974   4.093   2.873   2.101  0.3805  0.3102  0.3392
14311SOL    HW146975   4.023   2.838   2.156 -0.1934  1.7351  0.5578
14311SOL    HW246976   4.117   2.800   2.044  1.0089 -1.2340  2.4536
14312SOL     OW46977   3.370   7.315   0.904 -0.1292 -0.0737  0.2516
14312SOL    HW146978   3.284   7.274   0.915 -1.1594  1.8282 -0.0793
14312SOL    HW246979   3.417   7.297   0.985 -1.3908  0.0262  1.0319
14313SOL     OW46980   0.513   2.037   5.692  0.2325 -0.4384 -0.0643
14313SOL    HW146981   0.594   1.992   5.668  0.7403 -0.8155  2.1736
14313SOL    HW246982   0.452   1.967   5.714 -0.2547 -0.1129 -0.3508
14314SOL     OW46983   5.077   8.132   9.938  0.0114  0.3175  0.0431
14314SOL    HW146984   5.094   8.063   9.874  1.1602  0.8841 -0.2958
14314SOL    HW246985   4.982   8.136   9.946 -0.1881  0.7185 -2.1616
14315SOL     OW46986   0.935   3.867   5.045  0.3774  0.1044 -0.2077
14315SOL    HW146987   0.863   3.929   5.041  2.2336  2.4136 -0.1014
14315SOL    HW246988   0.965   3.870   5.136  2.3203  1.3514 -0.8346
14316SOL     OW46989   7.382   9.230   5.332 -0.3530 -0.6985  0.1994
14316SOL    HW146990   7.314   9.163   5.333 -0.4694 -0.5773  0.4181
14316SOL    HW246991   7.342   9.305   5.288 -0.7243 -0.2544  1.2472
14317SOL     OW46992   7.739   0.101   3.765 -0.2336  0.3980  0.2014
14317SOL    HW146993   7.809   0.158   3.733  0.5048  1.9181  4.0101
14317SOL    HW246994   7.658   0.151   3.748 -0.0131  0.5757 -0.3512
14318SOL     OW46995   4.591   6.495   0.520 -0.3623 -0.3530  0.0671
14318SOL    HW146996   4.536   6.472   0.595  0.0754 -1.6365  0.0262
14318SOL    HW246997   4.580   6.421   0.459 -2.2204  1.5086 -2.0373
14319SOL     OW46998   4.152   7.201   5.698 -0.0073  1.0123  0.2036
14319SOL    HW146999   4.110   7.127   5.742 -1.2655  0.6706 -1.4493
14319SOL    HW247000   4.080   7.262   5.680  0.7356  1.8613  0.0358
14320SOL     OW47001   6.033   4.529   7.336  0.4641  0.2731  0.0488
14320SOL    HW147002   6.015   4.613   7.379 -1.0064 -0.2582  0.5512
14320SOL    HW247003   5.970   4.526   7.264  0.1251 -0.6199  0.3719
14321SOL     OW47004   0.350   2.598   0.194  0.0653  0.4410 -0.5946
14321SOL    HW147005   0.325   2.571   0.282  0.6637  0.8189 -0.3038
14321SOL    HW247006   0.323   2.689   0.188 -2.2682 -0.2321 -1.7009
14322SOL     OW47007   2.575   0.552   4.398  0.3579  0.4014 -0.3875
14322SOL    HW147008   2.662   0.573   4.364  1.7394 -2.3606  1.0721
14322SOL    HW247009   2.538   0.491   4.334  1.6085 -2.2278  1.2430
14323SOL     OW47010   0.921   9.322   7.722  0.1523 -0.2237  0.0501
14323SOL    HW147011   0.903   9.230   7.703 -4.0125  0.2098  0.8145
14323SOL    HW247012   0.927   9.364   7.636  2.2943 -1.1505 -0.3063
14324SOL     OW47013   6.711   6.183   3.803 -0.1599 -0.5241  0.2489
14324SOL    HW147014   6.643   6.213   3.864 -0.9428  3.8134 -2.3660
14324SOL    HW247015   6.667   6.175   3.719  2.2802  1.4147 -1.3391
14325SOL     OW47016   7.833   8.594   6.666 -0.2366  0.4617  0.1647
14325SOL    HW147017   7.867   8.533   6.732 -0.5618 -0.1181 -0.1942
14325SOL    HW247018   7.765   8.643   6.711 -1.5607 -1.0153 -0.1326
14326SOL     OW47019   5.274   0.262   5.940 -0.8256 -0.4628 -0.0720
14326SOL    HW147020   5.181   0.252   5.918 -0.9142  0.4698 -0.1468
14326SOL    HW247021   5.293   0.187   5.996 -2.0997  0.2943  1.4518
14327SOL     OW47022   7.150   2.724   1.999 -0.0195  0.0975  0.2034
14327SOL    HW147023   7.078   2.785   2.017  0.7518  1.2246 -0.3783
14327SOL    HW247024   7.107   2.639   1.988 -1.5509  1.0905 -2.3341
14328SOL     OW47025   2.202   2.783   3.543  0.0826  0.2092  0.0330
14328SOL    HW147026   2.134   2.753   3.482 -1.6621 -1.3394  2.5244
14328SOL    HW247027   2.284   2.763   3.499 -1.0349  0.5938 -2.4144
14329SOL     OW47028   6.923   7.121   3.332  0.1349 -0.3787 -0.1994
14329SOL    HW147029   6.970   7.063   3.391 -1.8910 -1.6513  0.2759
14329SOL    HW247030   6.897   7.065   3.259  0.2565  0.5282 -0.9577
14330SOL     OW47031   8.239   0.757   8.407  0.0082 -0.0692 -0.1696
14330SOL    HW147032   8.318   0.729   8.455 -0.1482 -0.6158 -0.2271
14330SOL    HW247033   8.273   0.806   8.332  0.2979 -0.4393 -0.2805
14331SOL     OW47034   8.888  10.182   9.120 -0.2090  0.3317 -0.2367
14331SOL    HW147035   8.861  10.220   9.204  0.5932 -1.1645  0.7235
14331SOL    HW247036   8.953  10.243   9.086  0.5060  0.2296  0.9183
14332SOL     OW47037   7.070   1.786   6.319 -0.1905 -0.6567 -0.2124
14332SOL    HW147038   7.112   1.720   6.264 -1.1566 -0.9516 -0.6124
14332SOL    HW247039   7.048   1.857   6.258 -1.8262 -1.2510 -0.3445
14333SOL     OW47040   4.331   6.404   8.634  0.1186  0.1415  0.4756
14333SOL    HW147041   4.392   6.395   8.707 -0.5508  0.7970  1.1181
14333SOL    HW247042   4.380   6.454   8.568  0.2759  0.6839  0.9958
14334SOL     OW47043   5.728   1.038   5.928 -0.0190 -0.1729  0.3843
14334SOL    HW147044   5.748   1.006   6.016  0.5619  2.6444  1.4012
14334SOL    HW247045   5.637   1.066   5.933  0.5461  1.7865  0.7883
14335SOL     OW47046   9.115   5.192   1.892 -0.2942 -0.4344  0.3630
14335SOL    HW147047   9.078   5.269   1.848  1.2235  0.1796  0.1100
14335SOL    HW247048   9.039   5.137   1.912 -1.1044 -0.7862 -3.0673
14336SOL     OW47049   4.496   8.875   6.976 -0.2126 -0.2786 -0.0805
14336SOL    HW147050   4.410   8.857   7.015 -1.1449  0.1493 -1.8168
14336SOL    HW247051   4.532   8.788   6.958 -0.7788 -0.4644 -0.3483
14337SOL     OW47052   0.582   7.909   4.390 -0.6352 -0.7056 -0.4590
14337SOL    HW147053   0.610   7.841   4.452 -1.6488  0.6105  1.5602
14337SOL    HW247054   0.491   7.887   4.371 -1.2268  0.4841  0.8543
14338SOL     OW47055   9.163   5.482   4.458 -0.2229  0.5099  0.1732
14338SOL    HW147056   9.169   5.413   4.524  0.9742  0.1104 -0.3125
14338SOL    HW247057   9.254   5.510   4.444 -0.6213  1.7446 -0.1058
14339SOL     OW47058   1.864   9.305   1.772 -0.5588 -0.0465 -0.3618
14339SOL    HW147059   1.865   9.292   1.677  2.0561 -0.3423 -0.3697
14339SOL    HW247060   1.953   9.283   1.800 -0.9248  1.1531  2.0044
14340SOL     OW47061   6.552   1.756   7.576  0.6033 -0.0108 -0.3313
14340SOL    HW147062   6.611   1.683   7.555  0.1498 -0.3401 -0.4812
14340SOL    HW247063   6.464   1.718   7.572  0.4608 -0.2358  2.6069
14341SOL     OW47064   2.465   7.068   1.184  0.3764 -0.3183  0.1956
14341SOL    HW147065   2.402   6.997   1.194 -0.7970  0.4299 -1.4189
14341SOL    HW247066   2.499   7.084   1.272 -1.1030 -1.2661  0.9614
14342SOL     OW47067   5.324   3.554   7.193  0.2091 -0.6639 -0.3504
14342SOL    HW147068   5.357   3.641   7.172 -1.6394 -0.1469 -1.3290
14342SOL    HW247069   5.350   3.540   7.284 -1.6725  2.0536  0.7170
14343SOL     OW47070   7.952   4.272   5.412  0.5720  0.6658 -0.0759
14343SOL    HW147071   8.039   4.313   5.406 -0.1124  1.9942 -2.1717
14343SOL    HW247072   7.937   4.238   5.324 -0.7741 -0.1205  0.4410
14344SOL     OW47073   2.903   9.670   9.257 -0.3759  0.2636 -0.1455
14344SOL    HW147074   2.879   9.712   9.175 -0.8115 -0.5235 -0.4287
14344SOL    HW247075   2.820   9.653   9.301 -0.1379  0.9078  0.5915
14345SOL     OW47076   2.179   2.958   8.198 -0.1939 -0.1942  0.2776
14345SOL    HW147077   2.251   3.016   8.175  0.7043 -1.5809 -0.6084
14345SOL    HW247078   2.191   2.940   8.292  1.6859 -1.7135 -0.1771
14346SOL     OW47079   2.048  10.025   8.032 -0.2034 -0.0015  0.6031
14346SOL    HW147080   2.039   9.989   8.121 -0.6287 -1.5905 -0.0499
14346SOL    HW247081   2.078   9.951   7.980  3.2356  1.6695 -0.0242
14347SOL     OW47082   0.524   5.616   5.825 -0.3401 -0.5848  0.0420
14347SOL    HW147083   0.439   5.595   5.863 -1.1577 -0.5609 -1.6580
14347SOL    HW247084   0.588   5.568   5.879 -1.1016  1.4393  2.9680
14348SOL     OW47085   4.748   9.182   4.858 -0.0803 -0.1400  0.1219
14348SOL    HW147086   4.792   9.122   4.917 -2.2503 -0.9536  1.0054
14348SOL    HW247087   4.678   9.130   4.818 -0.9985  1.3592 -0.3270
14349SOL     OW47088   5.350   5.418   7.324 -0.2706 -0.3661 -0.4775
14349SOL    HW147089   5.262   5.384   7.336 -0.9644  1.0940 -1.2744
14349SOL    HW247090   5.402   5.372   7.390 -1.7275 -0.8080  0.4035
14350SOL     OW47091   7.540   3.880   5.872 -0.1276 -0.7915  0.2868
14350SOL    HW147092   7.556   3.802   5.819 -0.5623 -0.0831 -0.8985
14350SOL    HW247093   7.551   3.849   5.962 -1.1181 -2.4165 -0.1106
14351SOL     OW47094   9.815   7.362   8.729  0.5730 -0.6946 -0.1765
14351SOL    HW147095   9.859   7.429   8.780  2.4146  1.3220 -3.9448
14351SOL    HW247096   9.854   7.280   8.757  1.7344  0.3209  1.3263
14352SOL     OW47097   7.045   6.318   6.472  0.2496 -0.2432  0.6141
14352SOL    HW147098   7.137   6.298   6.459  1.0011  2.8871  0.5837
14352SOL    HW247099   7.025   6.280   6.558  2.1108  0.6262  1.4881
14353SOL     OW47100   7.301   0.235   5.967 -0.3859  0.0408  0.0090
14353SOL    HW147101   7.280   0.220   5.875  1.0174 -0.0856 -0.3180
14353SOL    HW247102   7.221   0.271   6.005 -0.9417  0.2200 -1.2950
14354SOL     OW47103   3.284   1.308   0.472  0.0007 -0.1715 -0.5560
14354SOL    HW147104   3.288   1.338   0.382  2.2963 -1.6239 -1.0183
14354SOL    HW247105   3.249   1.382   0.521  1.1987  1.5960 -2.2509
14355SOL     OW47106   6.254   2.905   2.921  0.1761 -0.1061 -0.3199
14355SOL    HW147107   6.270   2.999   2.927  2.0818 -0.4296  0.0935
14355SOL    HW247108   6.296   2.878   2.839  2.9747 -1.1550  1.3239
14356SOL     OW47109   1.008   4.028   6.359 -0.3791 -0.1628 -0.1120
14356SOL    HW147110   0.927   4.077   6.369 -0.4587 -0.0011 -1.4166
14356SOL    HW247111   1.039   4.050   6.272 -0.2655 -2.1777 -0.6371
14357SOL     OW47112   9.925   4.177   6.068 -0.1243 -0.5949 -0.2530
14357SOL    HW147113   9.832   4.159   6.060 -0.4292  1.1396 -1.0978
14357SOL    HW247114   9.940   4.184   6.162 -0.9604 -0.4121 -0.1226
14358SOL     OW47115   1.836   0.905   4.896  0.1522 -0.5691  0.1207
14358SOL    HW147116   1.922   0.928   4.859 -0.2216  0.3423 -0.2065
14358SOL    HW247117   1.797   0.846   4.831  0.1187 -0.1794 -0.2142
14359SOL     OW47118  10.063   2.776   6.350 -0.4762 -0.8440 -0.0885
14359SOL    HW147119  10.078   2.863   6.312 -3.0896 -1.2617 -2.3197
14359SOL    HW247120  10.140   2.726   6.324 -0.5118 -0.0972 -1.7933
14360SOL     OW47121   8.053   6.672   1.309 -0.1640 -0.2169  0.8540
14360SOL    HW147122   8.083   6.763   1.310 -0.6611 -0.0504  0.5862
14360SOL    HW247123   8.133   6.620   1.304  0.0446  0.2453 -1.0786
14361SOL     OW47124   3.765   5.682   7.496 -0.1098 -0.0913 -0.1379
14361SOL    HW147125   3.842   5.739   7.491  0.2434 -0.6708 -1.7689
14361SOL    HW247126   3.723   5.691   7.411 -1.1532 -0.7722  0.2856
14362SOL     OW47127   5.324   9.395   2.969  0.7960 -0.1896  0.6415
14362SOL    HW147128   5.389   9.401   2.899 -0.6092  1.6836 -0.5786
14362SOL    HW247129   5.272   9.475   2.961 -1.7975 -1.6781  1.4275
14363SOL     OW47130   1.531   2.876   1.681  0.2059  0.1366 -0.6543
14363SOL    HW147131   1.582   2.837   1.752  0.6724  1.5236 -0.2046
14363SOL    HW247132   1.456   2.916   1.725 -0.2435 -0.1956 -1.1058
14364SOL     OW47133   6.727  10.097   3.277 -0.5615  0.3086 -0.9313
14364SOL    HW147134   6.650  10.125   3.327 -1.6448 -1.6194 -1.4208
14364SOL    HW247135   6.764  10.025   3.328  0.8913  1.1269 -0.7699
14365SOL     OW47136   5.244   2.012   0.929 -0.0349 -0.2273 -0.0137
14365SOL    HW147137   5.308   1.943   0.914  3.2483  1.8488  2.6794
14365SOL    HW247138   5.180   1.973   0.989  0.5743 -1.4880 -0.1502
14366SOL     OW47139   6.287   0.882   3.204  0.2898 -0.2576  0.3572
14366SOL    HW147140   6.272   0.963   3.252  1.3573  0.1716  0.0131
14366SOL    HW247141   6.223   0.820   3.239 -0.2125  0.5884  0.9701
14367SOL     OW47142   5.406   9.026   7.388  0.0704 -0.0370 -0.1302
14367SOL    HW147143   5.490   9.068   7.371  0.7805 -1.7762 -1.2277
14367SOL    HW247144   5.402   9.018   7.483  0.9634  0.4134 -0.0466
14368SOL     OW47145   4.251   7.936   0.786  0.5595 -0.5748 -0.3253
14368SOL    HW147146   4.263   7.977   0.701 -2.1248 -0.6874 -0.8533
14368SOL    HW247147   4.278   7.845   0.773  0.0956 -0.6127 -1.1186
14369SOL     OW47148   9.925   3.023   0.845  0.6321  0.8912  0.1116
14369SOL    HW147149   9.927   2.940   0.796  1.1342  1.5855 -1.0735
14369SOL    HW247150   9.983   3.008   0.920  0.2444 -0.0220  0.2495
14370SOL     OW47151   5.826   5.285   9.083 -0.2396 -0.5913 -0.0580
14370SOL    HW147152   5.734   5.294   9.109 -0.2397  1.0644 -0.5397
14370SOL    HW247153   5.823   5.227   9.007 -1.2643  1.7447 -1.9103
14371SOL     OW47154   0.534   1.576   4.224  0.5266 -0.4944 -0.2490
14371SOL    HW147155   0.507   1.558   4.314  2.5287 -1.5387  0.2026
14371SOL    HW247156   0.454   1.568   4.173 -0.3024 -1.8563  1.1744
14372SOL     OW47157   5.787   4.882   4.961 -0.4053  0.2371 -0.2085
14372SOL    HW147158   5.832   4.964   4.981 -1.3780  1.2458 -1.8994
14372SOL    HW247159   5.792   4.874   4.866 -4.1853  0.7217 -0.6044
14373SOL     OW47160   4.588   2.304   3.669 -0.9917  0.2049 -0.2858
14373SOL    HW147161   4.547   2.221   3.694 -0.4153 -0.1778 -0.5811
14373SOL    HW247162   4.681   2.290   3.686 -0.6715  0.1932 -1.9191
14374SOL     OW47163   5.407   4.223   6.654 -0.5263 -0.5243  0.6774
14374SOL    HW147164   5.384   4.301   6.706  0.1122  0.0610  0.1025
14374SOL    HW247165   5.481   4.184   6.701  0.3267  0.2426  0.0093
14375SOL     OW47166   9.606   3.535   8.362  0.1080  0.4296 -0.2835
14375SOL    HW147167   9.678   3.540   8.426  0.5261 -0.6340 -0.6499
14375SOL    HW247168   9.649   3.513   8.279 -0.7846 -2.3475 -0.1176
14376SOL     OW47169   2.512   5.383   5.095 -0.1504 -0.0740  0.0774
14376SOL    HW147170   2.443   5.317   5.100 -0.8334  0.4589 -1.6005
14376SOL    HW247171   2.576   5.347   5.033  0.8423 -0.3029  1.1774
14377SOL     OW47172   2.856   7.650   1.898  0.0286  0.6532 -0.1243
14377SOL    HW147173   2.783   7.645   1.837  1.0277 -1.6594 -1.2299
14377SOL    HW247174   2.816   7.639   1.984 -0.9233 -1.0053 -0.7398
14378SOL     OW47175   0.235   3.511   0.016  0.4294 -0.4878  0.4739
14378SOL    HW147176   0.272   3.465  -0.060 -0.2163 -0.3493  0.0700
14378SOL    HW247177   0.144   3.528  -0.008  0.0386 -0.9901  1.5296
14379SOL     OW47178   5.245   0.379   4.050 -0.1254  0.0405 -0.0186
14379SOL    HW147179   5.155   0.407   4.034 -0.6969 -1.3007  0.6848
14379SOL    HW247180   5.271   0.424   4.130 -0.2006  0.3479 -0.1655
14380SOL     OW47181   4.127   4.529   6.346  1.0211  0.1041 -0.6841
14380SOL    HW147182   4.069   4.458   6.375  1.7900 -0.0462  0.5944
14380SOL    HW247183   4.199   4.484   6.301  1.2496  0.1043 -0.3242
14381SOL     OW47184   1.348   8.917   6.270  0.0943 -0.0921  0.6713
14381SOL    HW147185   1.270   8.965   6.244  0.9704  1.5182  0.8873
14381SOL    HW247186   1.317   8.855   6.337 -1.3454 -1.0597 -0.8161
14382SOL     OW47187   6.162   6.533   7.661 -0.0108  0.1762 -0.0677
14382SOL    HW147188   6.179   6.492   7.746  0.7741  0.7970  0.0884
14382SOL    HW247189   6.101   6.474   7.618 -1.9460  0.7743  1.6748
14383SOL     OW47190   2.303   6.872   5.623 -0.2302  0.2350  0.4228
14383SOL    HW147191   2.333   6.796   5.573  3.2921  1.0689  1.0488
14383SOL    HW247192   2.208   6.875   5.608 -0.3235 -3.5456 -0.5547
14384SOL     OW47193   9.116   0.846   4.647 -0.6184  0.0487 -0.1744
14384SOL    HW147194   9.186   0.904   4.678  0.8950 -1.9104  0.2899
14384SOL    HW247195   9.051   0.846   4.717 -0.2252  0.5091  0.1908
14385SOL     OW47196   6.362   2.762   7.821  0.0310 -0.0025 -0.5831
14385SOL    HW147197   6.386   2.841   7.869 -1.5089 -0.1758  0.5620
14385SOL    HW247198   6.267   2.769   7.811 -0.3184 -2.2375  0.5805
14386SOL     OW47199   5.732   3.177   4.670  0.3666 -0.9514 -0.2365
14386SOL    HW147200   5.688   3.246   4.620  0.8734 -0.1396  0.4085
14386SOL    HW247201   5.748   3.107   4.606  0.8339 -0.0168 -1.1684
14387SOL     OW47202   3.973   0.153   3.244  0.1479 -0.3933 -0.0127
14387SOL    HW147203   3.974   0.236   3.198  0.2793 -0.7093 -0.5943
14387SOL    HW247204   4.031   0.096   3.193 -2.8941 -2.0497 -1.9731
14388SOL     OW47205   1.642   0.418   4.423  0.1031  0.2096  0.2665
14388SOL    HW147206   1.667   0.345   4.479  3.1997  1.5867  0.9069
14388SOL    HW247207   1.697   0.408   4.345 -2.3701 -0.3056 -1.5116
14389SOL     OW47208   0.164   2.105   1.405 -0.0966 -0.7238  0.5901
14389SOL    HW147209   0.085   2.060   1.434 -1.2680  1.4190  0.9717
14389SOL    HW247210   0.147   2.126   1.313 -0.2717  0.2874  0.8410
14390SOL     OW47211   8.938   0.974   9.017  0.8441  0.4738 -0.0125
14390SOL    HW147212   8.991   0.920   9.075  0.0278 -0.5978 -0.2316
14390SOL    HW247213   8.991   1.052   9.001  2.0598 -0.2653  0.3101
14391SOL     OW47214   2.662   7.156   9.158 -0.0032 -0.3830 -0.5607
14391SOL    HW147215   2.751   7.148   9.123 -0.3267 -0.2689 -1.4289
14391SOL    HW247216   2.660   7.095   9.232  1.6767  1.6918  1.3425
14392SOL     OW47217   4.842   7.352   3.139 -0.0642 -0.2248  0.2084
14392SOL    HW147218   4.899   7.306   3.201 -0.1858 -0.2061  0.3359
14392SOL    HW247219   4.888   7.347   3.055 -0.3266 -1.0511  0.1004
14393SOL     OW47220   8.475   2.296   8.176  0.3526 -0.2332 -0.3935
14393SOL    HW147221   8.422   2.374   8.188  0.0487 -0.2567 -1.4473
14393SOL    HW247222   8.454   2.266   8.087  2.1464 -0.2220 -0.8713
14394SOL     OW47223   1.459   4.387   4.639  0.4668  0.0089 -0.2210
14394SOL    HW147224   1.433   4.295   4.640  0.5448 -0.0330  1.3302
14394SOL    HW247225   1.386   4.433   4.680  1.1724  0.3800  0.6598
14395SOL     OW47226   3.265   4.911   4.559 -0.1245  0.2300 -0.6738
14395SOL    HW147227   3.300   4.863   4.484  1.2728  0.8600 -0.4714
14395SOL    HW247228   3.336   4.907   4.624  0.1267  2.6526 -0.6993
14396SOL     OW47229   0.361   4.985   9.620 -0.2426  0.2003  0.7413
14396SOL    HW147230   0.386   5.034   9.542 -2.0123  0.2654  0.1499
14396SOL    HW247231   0.303   4.916   9.587  0.6738 -1.1199  1.7811
14397SOL     OW47232   2.573   6.394   3.635  0.4569  0.0895  0.0349
14397SOL    HW147233   2.562   6.489   3.626  0.1479  0.0009 -0.5618
14397SOL    HW247234   2.665   6.379   3.613  0.4922  0.2457  0.0713
14398SOL     OW47235   9.342   0.578   0.695 -0.0779 -0.2313  0.8537
14398SOL    HW147236   9.282   0.540   0.759 -0.4196  0.2589  0.8333
14398SOL    HW247237   9.425   0.588   0.742 -0.3051  0.0539  1.1990
14399SOL     OW47238   2.883   0.241   0.571  0.2539  0.4772  0.7813
14399SOL    HW147239   2.953   0.270   0.512  0.2302  0.9653  0.9892
14399SOL    HW247240   2.900   0.287   0.653  0.2075 -0.0995  1.1182
14400SOL     OW47241   9.373   2.404   1.129 -0.0616  0.8495 -0.3002
14400SOL    HW147242   9.297   2.359   1.091 -0.4410 -0.1789  1.5168
14400SOL    HW247243   9.335   2.466   1.192  0.5742  0.9424  0.0008
14401SOL     OW47244   6.338   7.561   8.784 -0.4178  0.1780  0.3852
14401SOL    HW147245   6.259   7.509   8.798 -1.5024  1.3111 -1.2032
14401SOL    HW247246   6.327   7.598   8.697  1.0180  1.8686  0.8721
14402SOL     OW47247   0.357   5.571   6.306  0.0782  0.0297  0.1921
14402SOL    HW147248   0.336   5.530   6.390 -0.0271 -1.0336 -0.3412
14402SOL    HW247249   0.311   5.518   6.241  1.8899 -0.4710 -0.7365
14403SOL     OW47250   0.536  10.264   8.437  0.0946  0.2913  0.9379
14403SOL    HW147251   0.464  10.310   8.394  0.6322  0.3210  0.0436
14403SOL    HW247252   0.613  10.319   8.419  0.4525 -0.0890  1.2967
14404SOL     OW47253  10.079   5.259   9.348 -0.2287 -0.6934 -0.2558
14404SOL    HW147254  10.089   5.316   9.272 -1.7739 -1.0495 -0.7497
14404SOL    HW247255  10.164   5.263   9.392 -0.1215  1.5274 -0.5841
14405SOL     OW47256   2.955   8.973   4.843  0.1781  0.0511 -0.2597
14405SOL    HW147257   3.026   8.955   4.781  0.9328 -0.9179  0.8201
14405SOL    HW247258   2.877   8.980   4.789  1.1679  1.8827 -1.5727
14406SOL     OW47259   5.147   3.839   8.815 -0.3819  0.2314 -0.4169
14406SOL    HW147260   5.059   3.801   8.819  0.2122 -1.1990 -0.3227
14406SOL    HW247261   5.152   3.879   8.729 -0.9694 -0.0604 -0.5950
14407SOL     OW47262   3.711   4.127   1.187 -0.1720  0.1948  0.2245
14407SOL    HW147263   3.701   4.208   1.236 -0.9494  1.0602 -1.3044
14407SOL    HW247264   3.635   4.124   1.129 -0.6662 -2.0993  0.8596
14408SOL     OW47265   3.341   8.805   6.682  0.7344 -0.2904 -0.1472
14408SOL    HW147266   3.434   8.786   6.677  0.8293 -0.4466  1.7325
14408SOL    HW247267   3.306   8.742   6.745 -0.6856 -0.3278 -0.9081
14409SOL     OW47268   0.182   4.646   4.874 -0.0235 -0.2221  0.4310
14409SOL    HW147269   0.163   4.693   4.793 -1.2640  2.1972  2.0118
14409SOL    HW247270   0.097   4.642   4.919  0.5855 -1.7350  1.5153
14410SOL     OW47271   1.342   6.124   8.073  0.3466 -0.1092  0.1112
14410SOL    HW147272   1.317   6.089   7.988  2.0216 -1.5216  0.1274
14410SOL    HW247273   1.284   6.198   8.087  0.6405  0.7751 -2.7011
14411SOL     OW47274   7.533   5.656   6.995  0.1504  0.1355  0.3808
14411SOL    HW147275   7.545   5.634   7.087  0.6980 -1.0157  0.0472
14411SOL    HW247276   7.466   5.596   6.963  0.3099  0.1953 -0.0866
14412SOL     OW47277   7.379   1.741   1.940 -0.1916 -0.2252 -0.6183
14412SOL    HW147278   7.410   1.786   1.861 -1.6219 -1.2619 -1.8203
14412SOL    HW247279   7.306   1.687   1.910 -0.7188 -0.7291  1.4155
14413SOL     OW47280   4.427   1.925   1.104  0.2409 -0.2810  0.2095
14413SOL    HW147281   4.520   1.914   1.127  0.4635  1.2069  0.1416
14413SOL    HW247282   4.393   1.985   1.171 -0.3809  0.0878 -0.4236
14414SOL     OW47283  10.097   3.845   9.092  0.5674 -0.0692 -0.0689
14414SOL    HW147284  10.081   3.817   9.182 -0.9866  0.8025 -0.0260
14414SOL    HW247285  10.131   3.934   9.100 -1.4669  0.7974 -0.3293
14415SOL     OW47286   4.516   0.440   8.363  0.1509 -0.7701 -0.7965
14415SOL    HW147287   4.540   0.475   8.277 -0.0843  0.0148 -0.5545
14415SOL    HW247288   4.486   0.517   8.412 -2.0202 -1.5623 -0.8022
14416SOL     OW47289   0.149   6.806   6.757 -0.7287  0.1846 -0.1457
14416SOL    HW147290   0.058   6.784   6.734 -0.4294  0.4982 -1.7389
14416SOL    HW247291   0.145   6.830   6.849 -2.5645  1.7016 -0.5620
14417SOL     OW47292   9.985   6.367   6.936 -0.3414 -0.0801  0.6128
14417SOL    HW147293  10.076   6.396   6.929 -1.0303  2.1840  0.4477
14417SOL    HW247294   9.969   6.323   6.852  0.4989 -0.2314  0.5140
14418SOL     OW47295   4.799   8.061   9.933  0.7571 -0.3208 -0.1996
14418SOL    HW147296   4.757   7.989   9.979  0.5049  0.0973  0.2327
14418SOL    HW247297   4.751   8.068   9.850 -1.1075  1.1501  0.9183
14419SOL     OW47298   5.981   2.818   8.223 -0.1534 -0.1612  0.4459
14419SOL    HW147299   5.975   2.885   8.291 -1.3268 -0.7330  0.9383
14419SOL    HW247300   6.009   2.866   8.145 -1.1657  0.9602  0.7252
14420SOL     OW47301   7.350   6.255   8.797 -0.0081 -0.5499 -0.0841
14420SOL    HW147302   7.378   6.206   8.720  0.1488  0.1650 -0.4993
14420SOL    HW247303   7.294   6.195   8.845  0.2282 -1.1505 -0.5422
14421SOL     OW47304   9.397   6.766   1.969 -0.0324  0.3518  0.0765
14421SOL    HW147305   9.343   6.709   2.025  0.1744  0.5973  0.5258
14421SOL    HW247306   9.383   6.732   1.880  1.6591 -1.7347  0.5192
14422SOL     OW47307   0.519   2.372   7.484  0.0392  0.2236  0.0475
14422SOL    HW147308   0.430   2.342   7.467  0.1869 -0.9692  1.2149
14422SOL    HW247309   0.510   2.467   7.492 -1.0363  0.1732 -0.3360
14423SOL     OW47310   0.656   1.122   9.184  0.3775 -0.6991  0.1986
14423SOL    HW147311   0.743   1.132   9.146  0.1518  2.0588  0.2225
14423SOL    HW247312   0.596   1.134   9.111 -0.0035  0.5329  0.7015
14424SOL     OW47313   6.339   2.020   4.366  0.1819 -0.4505 -0.0927
14424SOL    HW147314   6.272   2.082   4.392 -0.1369 -1.3068  1.2723
14424SOL    HW247315   6.416   2.046   4.417  0.8897  0.4713 -1.5817
14425SOL     OW47316   3.863   9.009   8.738 -0.4515 -0.7339  0.5039
14425SOL    HW147317   3.931   8.973   8.794  0.3527 -0.0611 -0.0145
14425SOL    HW247318   3.832   9.087   8.784  0.9920  0.4708 -0.4344
14426SOL     OW47319   7.971   4.778   2.153  0.2267 -0.4901  0.5322
14426SOL    HW147320   7.968   4.781   2.058 -1.2751  0.5919  0.5819
14426SOL    HW247321   8.052   4.825   2.176 -0.5544  1.2834 -0.1738
14427SOL     OW47322   0.338   9.936   3.074  0.1787  0.2950  0.1662
14427SOL    HW147323   0.392   9.883   3.016  2.3864  1.0639  1.4227
14427SOL    HW247324   0.277   9.981   3.015  0.4750 -1.0638 -1.2382
14428SOL     OW47325   6.014   7.738   3.010  0.0819 -0.5439 -0.2099
14428SOL    HW147326   5.945   7.691   2.963  1.1583 -1.6958 -0.6839
14428SOL    HW247327   5.968   7.809   3.055 -1.4995 -1.6191 -0.0464
14429SOL     OW47328   6.848   2.818   4.934  0.2062  0.4467  0.0530
14429SOL    HW147329   6.910   2.800   5.005 -0.9301  2.3547  1.6160
14429SOL    HW247330   6.805   2.733   4.919  1.6000 -0.3744  0.4659
14430SOL     OW47331   6.760   2.281   4.397 -0.4619 -0.5510  0.1702
14430SOL    HW147332   6.664   2.275   4.389 -0.4141  0.7196 -2.1242
14430SOL    HW247333   6.778   2.375   4.398  0.7643 -0.7734  1.0560
14431SOL     OW47334   1.333   1.634   3.297  0.3799 -0.1276  0.6745
14431SOL    HW147335   1.373   1.600   3.217 -1.1476  2.0709 -1.1800
14431SOL    HW247336   1.405   1.675   3.345  0.8661  1.8173 -1.4966
14432SOL     OW47337   1.736   4.728   4.593  0.0345 -0.4273  1.1629
14432SOL    HW147338   1.775   4.813   4.571  0.9772 -1.2029 -0.4140
14432SOL    HW247339   1.644   4.747   4.610  0.0113  0.8097 -0.1316
14433SOL     OW47340   6.747   7.839   6.425 -0.5700  0.3237 -0.2300
14433SOL    HW147341   6.738   7.844   6.330  0.4261 -0.5314 -0.3921
14433SOL    HW247342   6.840   7.824   6.440 -0.7106  0.4253  0.8827
14434SOL     OW47343   7.930   4.297   9.149 -0.0862 -0.4424  0.2279
14434SOL    HW147344   7.834   4.297   9.157 -0.4417  3.4787 -1.4675
14434SOL    HW247345   7.960   4.353   9.221  0.5570  0.9340 -1.0592
14435SOL     OW47346   1.017   4.530   3.065  0.0135 -0.4671 -0.4498
14435SOL    HW147347   0.947   4.596   3.067  0.0568 -0.4056 -0.9132
14435SOL    HW247348   1.060   4.543   2.981  1.5336  0.4764  0.4326
14436SOL     OW47349   1.748   1.837   6.040 -0.8813 -0.2533 -0.1428
14436SOL    HW147350   1.666   1.856   5.996 -1.2513  2.9108  1.6375
14436SOL    HW247351   1.811   1.825   5.969 -1.7562  3.1248 -1.6757
14437SOL     OW47352   2.977   7.753   3.520  0.7128 -0.4687 -0.1898
14437SOL    HW147353   3.056   7.793   3.485  0.5467  1.1290  1.1434
14437SOL    HW247354   3.004   7.716   3.604  0.0777 -0.0155  0.2206
14438SOL     OW47355   1.794   7.450   6.100  0.4358 -0.1452 -0.0430
14438SOL    HW147356   1.882   7.488   6.090  0.9809 -1.5868 -1.1502
14438SOL    HW247357   1.753   7.502   6.168  1.6094  1.5319 -0.5568
14439SOL     OW47358   7.023   3.326   8.439 -0.1895  0.2744  0.2667
14439SOL    HW147359   7.068   3.351   8.520 -2.6962  3.7756  0.7746
14439SOL    HW247360   7.045   3.395   8.377 -1.4644 -0.2519 -0.8012
14440SOL     OW47361   0.895   2.940   6.967 -0.1179  0.6153  0.1601
14440SOL    HW147362   0.808   2.907   6.945 -1.1841  1.7759  2.3083
14440SOL    HW247363   0.890   3.034   6.950 -0.2873  1.1899  2.9988
14441SOL     OW47364   7.529   0.008   1.529  0.4621  0.0070  0.1692
14441SOL    HW147365   7.495  -0.015   1.615 -2.4367  3.4035  0.1659
14441SOL    HW247366   7.612   0.053   1.547 -0.6071  1.5842  1.3645
14442SOL     OW47367   8.984   8.719   2.663  0.0224 -0.3546  0.5568
14442SOL    HW147368   9.000   8.814   2.659 -1.0675 -0.1896 -0.2604
14442SOL    HW247369   8.998   8.696   2.754  0.8800  0.4916  0.6475
14443SOL     OW47370   3.808   2.246   2.890 -0.2639  0.5421 -0.7621
14443SOL    HW147371   3.870   2.185   2.931  0.9623  3.2054  1.6334
14443SOL    HW247372   3.863   2.312   2.848 -1.4724  1.8736 -0.3388
14444SOL     OW47373   7.424   2.922   9.771  0.7180  0.4983  0.0078
14444SOL    HW147374   7.475   2.989   9.817  1.0898 -0.9776  1.8508
14444SOL    HW247375   7.484   2.849   9.760 -0.1655 -0.1710 -0.4868
14445SOL     OW47376   5.834   9.418   6.133 -0.2830  0.4591  0.0578
14445SOL    HW147377   5.871   9.488   6.187 -0.9274  0.7152  0.1712
14445SOL    HW247378   5.799   9.355   6.196  1.1202 -0.4391 -0.0182
14446SOL     OW47379   0.577   0.091   0.748  0.0111  0.6424 -0.4628
14446SOL    HW147380   0.540   0.006   0.723 -0.9993  0.8792  0.1781
14446SOL    HW247381   0.671   0.081   0.734 -0.1589 -0.3891 -0.9538
14447SOL     OW47382   2.158   7.729   7.687  0.9127 -0.0085  0.6442
14447SOL    HW147383   2.244   7.722   7.729  1.9552  0.3992 -1.2880
14447SOL    HW247384   2.110   7.652   7.717  2.7188 -1.4013  0.1326
14448SOL     OW47385   8.960   0.965   1.534  0.0627  0.1585  0.4472
14448SOL    HW147386   9.014   0.950   1.456 -1.3702 -1.8187 -0.2359
14448SOL    HW247387   9.003   0.915   1.603  0.4715  0.6572  0.5647
14449SOL     OW47388   0.872   7.394  10.229  0.4357 -0.0834  0.4089
14449SOL    HW147389   0.921   7.473  10.206 -0.0965  0.4742  1.1558
14449SOL    HW247390   0.807   7.385  10.160 -0.7688  1.2452  1.3069
14450SOL     OW47391   4.974   6.798   5.975  0.5031  0.0953  0.1467
14450SOL    HW147392   5.029   6.840   5.909 -0.4157 -0.6721 -1.1573
14450SOL    HW247393   5.034   6.778   6.046  1.4413  1.3747 -0.2304
14451SOL     OW47394   9.363   3.010   0.407  0.2241 -0.1686 -0.1120
14451SOL    HW147395   9.367   3.088   0.463  2.7216  0.8905 -1.5747
14451SOL    HW247396   9.327   3.042   0.324 -1.4515 -1.2588  0.1590
14452SOL     OW47397   3.696   5.149   1.796  0.2336  0.3969 -0.2667
14452SOL    HW147398   3.738   5.088   1.856 -2.7572 -1.0601  0.5532
14452SOL    HW247399   3.675   5.226   1.849 -1.5654 -0.5095  0.4272
14453SOL     OW47400   1.037   2.822   8.942  0.4658  1.1619 -0.0525
14453SOL    HW147401   0.979   2.748   8.962  0.3792  1.3437  0.3758
14453SOL    HW247402   1.034   2.829   8.846  1.8776 -0.5166 -0.2605
14454SOL     OW47403   9.387   1.434   9.864  0.1026 -0.6507  0.2718
14454SOL    HW147404   9.366   1.341   9.853 -1.2767 -0.4505  0.9094
14454SOL    HW247405   9.341   1.478   9.792  0.5137 -0.4368  0.1382
14455SOL     OW47406   4.378   8.195   9.820 -0.1427 -0.0228  0.6905
14455SOL    HW147407   4.421   8.110   9.816 -1.1472 -0.4982 -2.1185
14455SOL    HW247408   4.447   8.257   9.794 -0.2749 -0.4145 -0.6641
14456SOL     OW47409   5.063   0.306   0.687 -0.1851 -0.0511  0.1540
14456SOL    HW147410   5.063   0.394   0.651 -1.2831 -0.2935 -0.4876
14456SOL    HW247411   5.145   0.267   0.656  0.2241  0.6748  0.3032
14457SOL     OW47412   4.502   1.638   9.854 -0.0924  0.3268 -0.0992
14457SOL    HW147413   4.416   1.641   9.811 -0.4642 -0.1715  0.5999
14457SOL    HW247414   4.542   1.557   9.822 -0.8589 -0.6727  1.3869
14458SOL     OW47415   2.748   8.846   7.471 -0.1395 -0.4023  0.4789
14458SOL    HW147416   2.741   8.817   7.380 -1.2416 -0.0163  0.4218
14458SOL    HW247417   2.795   8.929   7.466 -1.3485  0.2930  0.0881
14459SOL     OW47418   1.064   7.606   1.678 -0.5519 -0.1496 -0.2403
14459SOL    HW147419   1.005   7.588   1.605  1.2198 -1.7210 -1.3882
14459SOL    HW247420   1.142   7.554   1.658  0.7970  1.0097  1.7428
14460SOL     OW47421   0.354   4.344   7.259  0.2485  0.0232  0.2005
14460SOL    HW147422   0.324   4.284   7.328  1.4183 -1.9219 -0.8956
14460SOL    HW247423   0.280   4.350   7.199  0.7115 -1.9009 -0.6453
14461SOL     OW47424   3.359   1.463   4.346  0.2044  0.1750  0.5444
14461SOL    HW147425   3.389   1.375   4.371  1.3863  0.6062  0.7045
14461SOL    HW247426   3.426   1.495   4.286 -1.4601  0.0316 -1.5091
14462SOL     OW47427   2.938   6.451   0.323  0.0584  0.4739 -0.1766
14462SOL    HW147428   3.018   6.449   0.270  0.0820 -0.6796 -0.1281
14462SOL    HW247429   2.867   6.457   0.260  0.1227 -0.1226 -0.3127
14463SOL     OW47430   2.242   2.221   0.229  0.2782  0.1664  0.0109
14463SOL    HW147431   2.229   2.160   0.157  1.7847 -0.2843  0.0878
14463SOL    HW247432   2.331   2.203   0.260  0.5509  1.9863  0.4224
14464SOL     OW47433   7.877   0.595   9.247 -0.2077  0.1910  0.4714
14464SOL    HW147434   7.866   0.529   9.178 -1.8417  0.6633  0.2383
14464SOL    HW247435   7.950   0.648   9.217  1.5987 -1.8620  0.9897
14465SOL     OW47436   4.101   5.169   3.038 -0.1944 -0.2488  0.3381
14465SOL    HW147437   4.193   5.178   3.016 -0.1733 -0.2098  0.4443
14465SOL    HW247438   4.060   5.248   3.003  0.0520  0.4655  1.6275
14466SOL     OW47439   6.702   9.901   3.080 -0.2488  0.3829  0.3695
14466SOL    HW147440   6.691   9.978   3.136 -0.5370 -0.3382  1.3291
14466SOL    HW247441   6.732   9.832   3.139  2.4853  0.3656 -0.9046
14467SOL     OW47442   9.620   5.053   7.593  0.2983 -0.1070 -0.7578
14467SOL    HW147443   9.527   5.055   7.570 -0.1699 -1.5106  0.7949
14467SOL    HW247444   9.666   5.070   7.511 -1.2887 -2.0729 -2.1258
14468SOL     OW47445   1.195   7.841   5.278  0.4536  0.2767 -0.0981
14468SOL    HW147446   1.197   7.799   5.192  0.8362  0.5518 -0.2252
14468SOL    HW247447   1.285   7.870   5.293  0.3663  0.3181  0.3509
14469SOL     OW47448   9.268   0.778   2.646 -0.8424  0.1230 -0.1823
14469SOL    HW147449   9.188   0.831   2.652  0.4315  2.0783  0.8478
14469SOL    HW247450   9.307   0.784   2.733 -0.6966 -2.7838  0.0500
14470SOL     OW47451  10.047   2.328   4.887  0.7902  0.4213 -0.3984
14470SOL    HW147452  10.044   2.347   4.794  1.3013  0.5848 -0.3827
14470SOL    HW247453  10.104   2.252   4.895  0.3076  0.0621 -0.2677
14471SOL     OW47454   4.452   0.552   7.582  0.0671 -0.0020 -0.6249
14471SOL    HW147455   4.363   0.519   7.575  0.0017 -0.0547  0.2953
14471SOL    HW247456   4.461   0.576   7.674  0.4633  1.5566 -1.0475
14472SOL     OW47457   2.936   3.905   6.886 -0.0186  0.2491  0.4267
14472SOL    HW147458   2.855   3.933   6.844  0.7077  0.1509 -1.1057
14472SOL    HW247459   2.907   3.849   6.958 -1.3158 -1.0706 -1.0377
14473SOL     OW47460   6.635   0.843   4.189 -0.1202 -0.1409  0.4400
14473SOL    HW147461   6.620   0.832   4.282  1.6656  0.1745  0.8057
14473SOL    HW247462   6.614   0.758   4.151 -1.4387 -0.0892  1.0321
14474SOL     OW47463   5.533  10.263   3.681  0.1982 -0.3139 -0.0279
14474SOL    HW147464   5.499  10.347   3.710  0.4198  0.8329 -2.8392
14474SOL    HW247465   5.627  10.276   3.673  0.1784 -0.6648 -0.9445
14475SOL     OW47466   7.389   3.309   3.607 -0.4873 -0.5673 -0.2609
14475SOL    HW147467   7.472   3.356   3.598  0.4394 -1.9171  0.8200
14475SOL    HW247468   7.328   3.358   3.553  0.8692  0.8080 -0.6205
14476SOL     OW47469  10.250   1.275   1.561  0.1243  0.3764 -0.1403
14476SOL    HW147470  10.182   1.241   1.619  0.0577  1.7626  0.6308
14476SOL    HW247471  10.318   1.208   1.564 -1.5225 -1.4682 -1.6469
14477SOL     OW47472   8.745   9.148   8.574  0.5344 -0.8888  0.0470
14477SOL    HW147473   8.838   9.169   8.576  0.1264  1.0937 -0.1574
14477SOL    HW247474   8.708   9.192   8.650 -0.2402 -1.7549  0.1912
14478SOL     OW47475   9.554   9.199   3.986 -0.5999 -0.3050 -0.4836
14478SOL    HW147476   9.597   9.262   3.928 -0.1610 -0.7632 -0.6593
14478SOL    HW247477   9.550   9.243   4.071 -0.5192  0.0552 -0.6657
14479SOL     OW47478   7.306   5.279   1.187  0.6476 -0.0685  0.2928
14479SOL    HW147479   7.215   5.303   1.172  1.0825  1.1015 -0.5856
14479SOL    HW247480   7.307   5.184   1.176 -0.4440 -0.0886  0.2321
14480SOL     OW47481   0.474   8.809   4.602  0.1391  0.2466  0.0230
14480SOL    HW147482   0.447   8.717   4.604 -0.8962  0.5497  0.2852
14480SOL    HW247483   0.507   8.825   4.690  0.6021  0.0533 -0.1101
14481SOL     OW47484   4.355   6.195   5.204 -0.7508 -0.2476  0.9185
14481SOL    HW147485   4.365   6.237   5.118 -0.4389  0.2981  1.2157
14481SOL    HW247486   4.271   6.150   5.198 -0.8909  0.0654  0.4365
14482SOL     OW47487   2.436   5.913   3.604 -0.1952  0.0907 -0.1883
14482SOL    HW147488   2.391   5.852   3.546 -3.0809 -0.9142  2.8246
14482SOL    HW247489   2.397   5.998   3.584  0.1997  0.1038 -0.9482
14483SOL     OW47490   7.844   3.576   7.199  0.3679  0.4595 -0.1079
14483SOL    HW147491   7.754   3.590   7.170 -0.3917 -0.8048  1.4943
14483SOL    HW247492   7.836   3.549   7.291  2.5029  2.3059  0.7255
14484SOL     OW47493   8.197   7.860   8.211  0.1946  0.1038 -0.2903
14484SOL    HW147494   8.226   7.772   8.236  0.1437  0.0402 -0.4531
14484SOL    HW247495   8.107   7.847   8.179  0.2020  0.2084 -0.3521
14485SOL     OW47496   0.205   9.995   8.573  0.6165  0.4580 -0.3182
14485SOL    HW147497   0.278  10.027   8.625 -1.0878  1.7020  1.4515
14485SOL    HW247498   0.196   9.903   8.598  0.5232  0.7496  0.7680
14486SOL     OW47499   8.284   9.154   0.493  0.1693  0.2348  0.1144
14486SOL    HW147500   8.326   9.118   0.415 -0.5779 -1.4413  0.4449
14486SOL    HW247501   8.316   9.100   0.565  0.1208  1.1653  0.8579
14487SOL     OW47502   3.991   2.899   7.466 -0.6932 -0.2389 -0.2245
14487SOL    HW147503   4.048   2.889   7.542  0.3243 -0.0214 -0.9337
14487SOL    HW247504   3.954   2.987   7.475  1.0201  0.6283 -0.9880
14488SOL     OW47505   2.068   4.614   8.114  0.4982 -0.3080  0.1719
14488SOL    HW147506   2.115   4.690   8.080  0.1149 -0.9341 -1.9068
14488SOL    HW247507   1.985   4.648   8.145 -0.4209 -0.0318 -2.3668
14489SOL     OW47508   4.401   4.665   4.807 -0.0274 -0.3215 -0.1795
14489SOL    HW147509   4.412   4.617   4.724 -1.4002 -1.6292  0.3368
14489SOL    HW247510   4.336   4.732   4.787  0.0844 -0.2495 -0.3050
14490SOL     OW47511   8.930   9.865   8.241 -0.3002  0.0146 -0.1515
14490SOL    HW147512   8.975   9.805   8.182  0.9159 -0.0728  0.8109
14490SOL    HW247513   8.851   9.890   8.194 -0.4956 -1.7791 -0.8797
14491SOL     OW47514   6.416   5.658   4.032  0.0050  0.5656 -0.6305
14491SOL    HW147515   6.446   5.696   4.115 -1.4323  1.9350 -0.6980
14491SOL    HW247516   6.446   5.567   4.035  1.1230  0.9392  0.7895
14492SOL     OW47517   8.552   0.229   9.547 -0.0769  0.2729 -0.0579
14492SOL    HW147518   8.479   0.291   9.540 -0.4326 -0.2772 -1.5636
14492SOL    HW247519   8.579   0.235   9.638 -1.8211  0.7047  0.4773
14493SOL     OW47520  10.218   6.368   4.281  0.4830  0.6185 -0.4777
14493SOL    HW147521  10.209   6.446   4.336  0.4065  0.6131 -0.4819
14493SOL    HW247522  10.146   6.311   4.309  0.4630  0.6026 -0.5625
14494SOL     OW47523  10.048   2.321   9.362 -0.4053  0.3267 -0.5638
14494SOL    HW147524   9.994   2.291   9.290  0.4729 -1.8105 -0.3959
14494SOL    HW247525  10.007   2.285   9.440 -0.1339  0.7800 -0.2053
14495SOL     OW47526  10.193   9.341   7.944 -0.7518 -0.2191  0.4293
14495SOL    HW147527  10.251   9.343   8.021  0.2622  0.1206 -0.3244
14495SOL    HW247528  10.212   9.257   7.902 -0.8987 -0.1606  0.2468
14496SOL     OW47529   2.594   4.258   2.974 -0.6085  0.2295  0.8359
14496SOL    HW147530   2.679   4.216   2.959 -0.8044 -0.3294  1.3047
14496SOL    HW247531   2.579   4.309   2.894 -0.0043  0.0421  0.5966
14497SOL     OW47532   5.019  10.107   6.803 -0.7278  0.1889 -0.4916
14497SOL    HW147533   4.956  10.042   6.833  0.8304 -0.9428  0.4840
14497SOL    HW247534   5.105  10.065   6.816  0.3536  2.4919  0.3348
14498SOL     OW47535   0.966   8.098   7.584  0.2451  0.3868 -0.0327
14498SOL    HW147536   0.972   8.012   7.543 -0.3264  0.4226 -0.2018
14498SOL    HW247537   0.975   8.080   7.678  2.8714  0.4390 -0.1979
14499SOL     OW47538   6.266   9.303   7.457  0.7637  0.3353  0.1538
14499SOL    HW147539   6.339   9.297   7.395 -0.4889  0.5387 -1.3869
14499SOL    HW247540   6.189   9.276   7.407  0.0536 -2.1916  2.3478
14500SOL     OW47541   8.632   4.708   7.938 -0.5676 -0.2967 -0.0978
14500SOL    HW147542   8.636   4.745   7.850  2.8137 -0.4801 -0.1642
14500SOL    HW247543   8.664   4.619   7.928 -1.7946 -0.9068  1.1070
14501SOL     OW47544   1.145   7.337   3.178 -0.6141  0.0525 -0.3872
14501SOL    HW147545   1.142   7.407   3.243 -1.9916  2.0081 -2.3968
14501SOL    HW247546   1.087   7.269   3.213 -0.9140  0.8181  0.6602
14502SOL     OW47547   9.566   0.885   3.094 -0.2260  0.6965 -0.1791
14502SOL    HW147548   9.610   0.871   3.178 -1.3100  0.9570  0.4411
14502SOL    HW247549   9.563   0.797   3.054  0.0546  0.5291  0.1624
14503SOL     OW47550   9.462   4.260   9.429  0.1951 -0.2127  0.2197
14503SOL    HW147551   9.457   4.347   9.391  1.9525 -0.7544 -1.4336
14503SOL    HW247552   9.468   4.201   9.353  2.2311 -1.4807  1.2618
14504SOL     OW47553   1.158   0.341   5.521 -0.2102 -0.0277 -0.2292
14504SOL    HW147554   1.104   0.382   5.589 -0.4954  1.8695 -1.5207
14504SOL    HW247555   1.216   0.412   5.491  0.6304 -1.1092 -1.2377
14505SOL     OW47556   3.134   2.354   2.346  0.1358  0.5201  0.6007
14505SOL    HW147557   3.189   2.429   2.367 -0.3802  0.4730  2.2110
14505SOL    HW247558   3.046   2.389   2.337  0.2617  0.4883 -1.3299
14506SOL     OW47559   1.208   0.298   8.144 -0.4458 -0.4647 -0.2177
14506SOL    HW147560   1.275   0.233   8.124  0.4085  0.4671 -0.4336
14506SOL    HW247561   1.187   0.338   8.060  1.0538  1.4452  0.2595
14507SOL     OW47562   4.124   6.115   3.267 -0.2936  0.3366 -0.5231
14507SOL    HW147563   4.092   6.196   3.308 -2.2933 -0.0585 -1.2177
14507SOL    HW247564   4.164   6.066   3.339 -2.7342  0.1596  0.7950
14508SOL     OW47565   0.227   2.878   8.245 -0.2075  0.1623 -0.2900
14508SOL    HW147566   0.143   2.852   8.206  0.4581 -1.6210 -0.6164
14508SOL    HW247567   0.281   2.903   8.170 -0.8015  2.5526  0.0111
14509SOL     OW47568   7.179   6.671   2.691 -0.0080  0.2019 -0.1727
14509SOL    HW147569   7.233   6.592   2.697  0.9333  0.6994 -1.4518
14509SOL    HW247570   7.239   6.742   2.713 -0.7440  0.6013  0.5842
14510SOL     OW47571   9.377   4.289   9.901  0.0868 -0.2507  0.5568
14510SOL    HW147572   9.445   4.249   9.847  0.6903  0.4092  0.7996
14510SOL    HW247573   9.389   4.383   9.888 -0.4644 -0.1169  0.9819
14511SOL     OW47574   7.075   1.600   5.731  0.7796  0.4264 -0.3808
14511SOL    HW147575   7.107   1.530   5.675 -1.0462 -0.0481 -0.8845
14511SOL    HW247576   7.057   1.673   5.671  3.0269  1.5376  0.1795
14512SOL     OW47577   0.323   5.412   3.592 -0.3361 -0.2985 -0.1436
14512SOL    HW147578   0.397   5.351   3.585  0.7431  1.0367 -0.7351
14512SOL    HW247579   0.319   5.433   3.685 -0.1522 -0.5925 -0.0650
14513SOL     OW47580   9.757  10.053   8.445  0.4008 -0.1830 -0.3431
14513SOL    HW147581   9.740   9.962   8.421 -0.2490 -0.1064 -0.1886
14513SOL    HW247582   9.769  10.051   8.540 -0.1655 -0.0316 -0.2653
14514SOL     OW47583   6.188   5.253   8.957 -0.3108  0.0617 -0.3282
14514SOL    HW147584   6.132   5.323   8.922 -0.4534  0.2065  0.1788
14514SOL    HW247585   6.198   5.275   9.050  0.3672 -0.1102 -0.3556
14515SOL     OW47586   2.118   8.148   1.704 -0.0109  0.2260 -0.3118
14515SOL    HW147587   2.103   8.233   1.663 -1.7307 -0.6733 -1.7244
14515SOL    HW247588   2.057   8.089   1.659  0.4508 -1.5608  1.2663
14516SOL     OW47589   6.491   3.981   7.035 -0.3129  0.2116 -0.1721
14516SOL    HW147590   6.541   4.050   6.991 -0.9698  1.3663  0.8244
14516SOL    HW247591   6.554   3.912   7.052  0.6838  1.1513  0.0325
14517SOL     OW47592   2.412   6.925   7.136  0.0323  0.6058 -0.0035
14517SOL    HW147593   2.380   7.004   7.180 -1.5783 -0.1482  0.2552
14517SOL    HW247594   2.445   6.870   7.207 -0.6601  0.2477  0.0501
14518SOL     OW47595   8.396   0.699   5.844  0.4828  1.2501  0.2030
14518SOL    HW147596   8.415   0.726   5.754  0.8239 -0.9186 -0.4298
14518SOL    HW247597   8.467   0.638   5.866 -0.4932  0.4859  1.3509
14519SOL     OW47598   4.168   0.441   7.568 -0.5051  0.0328 -0.4290
14519SOL    HW147599   4.162   0.347   7.552 -1.9457  0.1670 -0.7675
14519SOL    HW247600   4.117   0.481   7.498  0.5921  1.1142 -0.6473
14520SOL     OW47601   1.939   7.734   7.953  0.1339  0.0487 -0.3009
14520SOL    HW147602   2.007   7.772   7.898  0.5345 -0.4751 -0.1696
14520SOL    HW247603   1.857   7.760   7.911  0.4353 -1.3197 -1.8061
14521SOL     OW47604   3.750   5.454   7.244  0.3323  0.1827  0.3841
14521SOL    HW147605   3.767   5.381   7.183  1.0563 -0.0304  0.8311
14521SOL    HW247606   3.837   5.478   7.277 -0.1447 -0.3502  2.0738
14522SOL     OW47607   9.877   4.535   1.780  0.2271  0.3932  0.0045
14522SOL    HW147608   9.932   4.553   1.856  1.9473 -0.9309 -0.8463
14522SOL    HW247609   9.819   4.465   1.808  1.8196 -1.1085 -0.2305
14523SOL     OW47610   5.583   7.016   1.572 -0.5223 -0.2263 -0.2135
14523SOL    HW147611   5.631   7.087   1.530 -0.7715 -0.5018 -0.9767
14523SOL    HW247612   5.524   6.984   1.505 -0.9730 -0.6421  0.3691
14524SOL     OW47613   9.513   3.088   8.364 -0.3574 -0.0405 -0.1049
14524SOL    HW147614   9.474   3.002   8.349 -0.2251 -0.6744  2.6606
14524SOL    HW247615   9.514   3.098   8.459  0.3869  2.6959 -0.3077
14525SOL     OW47616   7.157   0.761   0.058  0.0530 -0.3261  0.3710
14525SOL    HW147617   7.064   0.747   0.039 -0.4232 -0.3474  2.4575
14525SOL    HW247618   7.166   0.738   0.151  2.4980 -1.9487 -0.1797
14526SOL     OW47619   2.710   8.280   1.000  0.5988  0.6786  0.3044
14526SOL    HW147620   2.693   8.229   1.080 -0.3353  2.0590  1.0438
14526SOL    HW247621   2.776   8.343   1.026  4.2521 -2.0505 -1.4815
14527SOL     OW47622   3.221   3.673   0.739 -0.2540 -0.1739  0.1315
14527SOL    HW147623   3.315   3.653   0.739 -0.5980 -2.1460 -1.8550
14527SOL    HW247624   3.216   3.766   0.763  2.1326 -0.1868  0.9399
14528SOL     OW47625   4.250   6.987   4.217 -0.3219 -0.2854  0.1562
14528SOL    HW147626   4.232   6.903   4.177 -2.3786 -0.2987  0.9864
14528SOL    HW247627   4.185   7.046   4.179 -2.1027 -0.2134  3.0493
14529SOL     OW47628   4.891   1.351   0.887 -0.3583 -0.1598 -0.0796
14529SOL    HW147629   4.826   1.314   0.948  0.6818 -0.3624  0.9550
14529SOL    HW247630   4.895   1.288   0.815 -1.5685  0.0495 -0.3531
14530SOL     OW47631   4.542   9.583   4.066  0.1703  0.3758 -0.2208
14530SOL    HW147632   4.488   9.583   3.988  0.9348  0.6927 -0.7666
14530SOL    HW247633   4.630   9.563   4.035  0.6869  1.5506  0.3921
14531SOL     OW47634   9.860   3.194   4.088  0.0747  0.3870 -0.3954
14531SOL    HW147635   9.849   3.278   4.133  1.7647  0.3165  0.2113
14531SOL    HW247636   9.771   3.160   4.078 -0.4336 -0.1007  3.9179
14532SOL     OW47637   9.663   4.430   7.311 -0.0860 -0.3363  0.3050
14532SOL    HW147638   9.571   4.455   7.298 -0.6047 -2.4958 -0.5813
14532SOL    HW247639   9.699   4.499   7.367 -2.7026 -0.3542  2.1885
14533SOL     OW47640   1.272   1.431   9.963 -0.1890 -0.0197  0.1466
14533SOL    HW147641   1.361   1.461   9.942 -0.2739 -0.9181 -1.6880
14533SOL    HW247642   1.218   1.467   9.892 -0.8790 -1.4487 -0.0818
14534SOL     OW47643   9.227  10.007   5.016 -0.1959  0.1661  0.2299
14534SOL    HW147644   9.148  10.029   5.067 -1.5544 -2.2295 -0.6988
14534SOL    HW247645   9.210  10.045   4.930  0.2855  0.7535  0.3859
14535SOL     OW47646   5.674   8.470   8.529 -0.3039  0.4797 -0.3530
14535SOL    HW147647   5.717   8.546   8.567 -1.5856  0.1811  1.8930
14535SOL    HW247648   5.737   8.436   8.465  2.2022  0.8825  1.7162
14536SOL     OW47649   0.271   7.587   6.843  0.3137 -0.1484 -0.1899
14536SOL    HW147650   0.295   7.555   6.930 -0.3414  1.1999  0.5362
14536SOL    HW247651   0.324   7.536   6.782  2.9002  0.7643  1.1497
14537SOL     OW47652   9.268   3.025   5.796 -0.3475  0.2963  0.1445
14537SOL    HW147653   9.326   2.955   5.768 -0.0684  1.3588 -2.2132
14537SOL    HW247654   9.250   3.007   5.889 -0.3823 -2.8924 -0.3723
14538SOL     OW47655   6.088   8.306   3.823  0.2459  0.4670  0.5979
14538SOL    HW147656   6.022   8.355   3.873 -0.1867  1.1376 -0.5961
14538SOL    HW247657   6.111   8.364   3.750  0.0739 -0.9069 -0.5871
14539SOL     OW47658   5.365   3.427   8.521  0.3546 -0.4017 -0.3880
14539SOL    HW147659   5.286   3.457   8.564  0.3201 -0.4967 -0.3839
14539SOL    HW247660   5.431   3.422   8.590  0.4217 -0.1209 -0.4310
14540SOL     OW47661  10.084   7.154   8.708 -0.2119 -0.4385 -0.4342
14540SOL    HW147662  10.095   7.238   8.664  1.2538 -0.5863 -0.4137
14540SOL    HW247663  10.041   7.098   8.643 -1.4207  0.3698 -0.3608
14541SOL     OW47664   6.735   5.398   8.723 -0.2039  0.4763  0.2794
14541SOL    HW147665   6.640   5.407   8.716 -0.5698  0.2781  3.5459
14541SOL    HW247666   6.769   5.440   8.644 -2.9945 -0.4711 -1.5625
14542SOL     OW47667   4.923   2.890   8.784  0.1930  0.3936 -0.2029
14542SOL    HW147668   4.974   2.879   8.865 -0.3064 -0.8530 -0.0280
14542SOL    HW247669   4.957   2.822   8.725 -0.0303  0.7369 -0.7273
14543SOL     OW47670   7.815   5.689   9.816 -0.5547 -0.2948  0.3072
14543SOL    HW147671   7.837   5.779   9.791 -1.3747 -0.5821 -1.7186
14543SOL    HW247672   7.895   5.639   9.800 -0.5226 -0.1473 -0.0109
14544SOL     OW47673   8.822   2.675   3.318 -0.4138  0.7177  1.1340
14544SOL    HW147674   8.737   2.681   3.361 -0.9101  0.7922  0.1742
14544SOL    HW247675   8.802   2.651   3.227  0.4417  2.4340  0.4226
14545SOL     OW47676   0.341   0.744   2.500 -0.6358 -0.0544  0.4751
14545SOL    HW147677   0.276   0.690   2.455 -0.6639  0.2400  0.1625
14545SOL    HW247678   0.417   0.746   2.441 -0.7437  0.4896  0.3494
14546SOL     OW47679   6.814   8.936   4.159 -0.1798  0.4987  1.0000
14546SOL    HW147680   6.825   8.844   4.137 -3.0712  0.2492  0.2231
14546SOL    HW247681   6.820   8.939   4.255 -1.4233 -0.7481  1.1364
14547SOL     OW47682   3.377   0.585   7.180  0.4310 -0.4560 -0.4461
14547SOL    HW147683   3.353   0.516   7.242  3.6332 -0.9626  0.4163
14547SOL    HW247684   3.423   0.539   7.110 -0.7548  0.4368 -1.8707
14548SOL     OW47685   6.688  10.065   4.978  0.0403 -0.5681  0.3772
14548SOL    HW147686   6.657  10.078   4.888 -1.0144 -1.8936  0.5211
14548SOL    HW247687   6.658  10.143   5.025  0.4634  0.0623 -0.3743
14549SOL     OW47688   9.688   7.227   1.317  0.3762  0.4435 -0.1794
14549SOL    HW147689   9.671   7.134   1.335 -0.2259  0.0271 -2.5320
14549SOL    HW247690   9.652   7.272   1.393 -0.7919 -1.1757  0.3031
14550SOL     OW47691   6.654   3.506   9.911  0.2623 -0.0087  0.0333
14550SOL    HW147692   6.682   3.555   9.834 -0.6844 -1.2380 -1.1434
14550SOL    HW247693   6.693   3.553   9.985  2.5362  0.2916 -1.2612
14551SOL     OW47694   0.871   6.182   8.471  0.4219 -0.0812 -0.2148
14551SOL    HW147695   0.838   6.118   8.409  1.8543 -0.6269 -0.4595
14551SOL    HW247696   0.793   6.224   8.507 -0.7292 -3.0857  1.1971
14552SOL     OW47697   1.075   0.193   0.139  0.2374  0.3742 -0.0940
14552SOL    HW147698   1.088   0.130   0.210 -1.1682  0.5283  0.3350
14552SOL    HW247699   1.148   0.255   0.148  1.3397 -0.8681 -0.2045
14553SOL     OW47700   2.364   0.531   3.403 -0.2983 -0.1258 -0.4680
14553SOL    HW147701   2.287   0.506   3.453  1.1097 -0.3527  1.6962
14553SOL    HW247702   2.414   0.451   3.392  1.6644  0.6502  1.9230
14554SOL     OW47703   2.215   5.624   0.211 -0.3683 -0.2616 -0.0761
14554SOL    HW147704   2.210   5.709   0.254  1.7557 -0.1594  0.0423
14554SOL    HW247705   2.302   5.591   0.232 -0.1998 -1.3309 -2.1944
14555SOL     OW47706   3.460   9.130   2.777 -0.3902 -0.3091 -0.4076
14555SOL    HW147707   3.503   9.066   2.720  0.7866 -1.4195  1.5973
14555SOL    HW247708   3.466   9.092   2.864 -0.9838  1.8842  0.6681
14556SOL     OW47709   6.152   9.324   6.260  0.2207 -0.0128  0.4635
14556SOL    HW147710   6.204   9.386   6.311 -0.3253  3.6235 -2.9612
14556SOL    HW247711   6.073   9.310   6.313  0.2954  2.4183  1.3358
14557SOL     OW47712   2.695   7.696   6.460 -0.0760 -0.2602 -0.3346
14557SOL    HW147713   2.697   7.756   6.386  0.4544 -1.0098 -0.9401
14557SOL    HW247714   2.660   7.615   6.425  0.6970 -0.7976  0.0958
14558SOL     OW47715   4.793   2.664   2.403  0.3867 -0.7730 -0.3179
14558SOL    HW147716   4.776   2.633   2.315 -0.7140 -1.5497  0.1440
14558SOL    HW247717   4.724   2.729   2.420  2.3967  1.7579 -1.1158
14559SOL     OW47718   4.108   1.094   2.415  0.3528 -0.3193 -0.2540
14559SOL    HW147719   4.127   1.172   2.364  2.7112 -0.8655 -0.3201
14559SOL    HW247720   4.059   1.037   2.355  1.1261 -0.0398 -1.1740
14560SOL     OW47721   7.171   2.560   3.247  0.1197  0.1353  0.3280
14560SOL    HW147722   7.208   2.647   3.264  0.1511  0.6547 -2.0629
14560SOL    HW247723   7.224   2.526   3.175 -1.0123 -1.1214  0.0636
14561SOL     OW47724   5.333   0.075   7.202  0.5673 -0.7427  0.7654
14561SOL    HW147725   5.259   0.121   7.163  0.4902 -0.1087  1.6448
14561SOL    HW247726   5.396   0.144   7.223  1.2431 -1.2308  0.4149
14562SOL     OW47727   1.005   2.210   3.462 -0.2549 -0.7695  0.1868
14562SOL    HW147728   0.987   2.125   3.503 -2.5265 -0.4506 -0.0339
14562SOL    HW247729   0.986   2.196   3.369 -2.8494  0.4578  0.4344
14563SOL     OW47730   2.502   0.791   5.403  0.3713 -0.2028 -0.4064
14563SOL    HW147731   2.486   0.711   5.452  0.9450  0.4696  0.9270
14563SOL    HW247732   2.425   0.801   5.347  1.4187 -3.0433 -2.5974
14564SOL     OW47733   6.816   0.873   1.433  0.2771  0.7440 -0.9906
14564SOL    HW147734   6.830   0.939   1.365  1.3322 -0.0195 -1.5495
14564SOL    HW247735   6.900   0.866   1.477  0.1097 -0.0450 -0.7778
14565SOL     OW47736   5.632  10.091   6.156 -0.4478 -0.4710 -0.0335
14565SOL    HW147737   5.622  10.133   6.241  1.8336  1.7953 -0.7379
14565SOL    HW247738   5.651   9.999   6.176 -0.0931 -0.0132  1.8911
14566SOL     OW47739   7.030   5.270   1.248  0.1619 -0.0769 -0.3091
14566SOL    HW147740   7.040   5.197   1.309  0.1285  1.4611  1.6416
14566SOL    HW247741   6.958   5.244   1.191  2.3502 -2.9928 -1.9671
14567SOL     OW47742   0.398   7.900   9.647 -0.4261 -0.5671  0.1588
14567SOL    HW147743   0.312   7.942   9.644 -0.2896 -0.2021  1.0963
14567SOL    HW247744   0.420   7.884   9.556 -0.2582  1.8537 -0.2872
14568SOL     OW47745   3.486   3.213   4.530 -0.0978  0.1780  0.0425
14568SOL    HW147746   3.422   3.179   4.593  0.3114 -0.9107 -0.1053
14568SOL    HW247747   3.511   3.299   4.566 -1.1388  0.3292  0.4422
14569SOL     OW47748   3.748   3.098   1.654  0.7473 -0.6917  0.2045
14569SOL    HW147749   3.798   3.029   1.612 -1.5426 -1.3439 -1.6405
14569SOL    HW247750   3.658   3.065   1.657 -0.3481  1.9652 -0.3377
14570SOL     OW47751   7.728   8.999   7.265 -0.4632 -0.0913 -0.1229
14570SOL    HW147752   7.688   9.084   7.245  0.3937  0.4955  0.5921
14570SOL    HW247753   7.721   8.949   7.183 -0.3950  0.8951 -0.7392
14571SOL     OW47754   1.503   2.907   4.339 -0.3526  0.4836  0.1808
14571SOL    HW147755   1.547   2.826   4.310 -0.3905  0.1119  1.1225
14571SOL    HW247756   1.571   2.956   4.385 -0.0492  1.4981 -1.2798
14572SOL     OW47757   0.905   6.058   5.226 -0.4598 -0.5996  0.0761
14572SOL    HW147758   0.833   6.090   5.171  0.5934  1.4198 -0.2232
14572SOL    HW247759   0.873   6.066   5.315 -0.9634 -0.6165 -0.1023
14573SOL     OW47760   8.535   0.246  10.241 -0.3663  0.0852  0.0945
14573SOL    HW147761   8.446   0.281  10.249 -1.0544 -1.6500  0.6579
14573SOL    HW247762   8.558   0.219  10.330  0.4271 -0.1659 -0.1798
14574SOL     OW47763   2.351   5.642   9.380 -0.0616  0.3522  0.6885
14574SOL    HW147764   2.410   5.626   9.306  0.2625 -0.1896  1.0540
14574SOL    HW247765   2.400   5.612   9.456 -0.5906  0.4312  1.0662
14575SOL     OW47766   9.258   6.484   2.948 -0.2020  0.2565 -0.1731
14575SOL    HW147767   9.350   6.498   2.926 -0.1903 -1.6234 -1.5333
14575SOL    HW247768   9.212   6.558   2.909  0.5262  0.1293 -1.2999
14576SOL     OW47769   4.097   8.554   3.207  0.4538  0.0678 -0.2226
14576SOL    HW147770   4.129   8.502   3.134 -0.4706 -0.1966 -0.4509
14576SOL    HW247771   4.099   8.495   3.282 -0.0972 -0.1477 -0.3725
14577SOL     OW47772   8.485   1.796   8.499 -0.9009  0.1203 -0.0731
14577SOL    HW147773   8.579   1.788   8.487 -0.9757  0.5701 -1.1065
14577SOL    HW247774   8.474   1.828   8.589  0.0348  1.5934 -0.4412
14578SOL     OW47775   7.189   8.701   5.226  0.1416  0.2467 -0.3755
14578SOL    HW147776   7.122   8.633   5.231  1.9732 -1.6371 -0.0703
14578SOL    HW247777   7.171   8.757   5.302 -1.3416  0.0762 -0.5652
14579SOL     OW47778   2.486   8.759  10.113 -0.1822  0.3405 -0.4743
14579SOL    HW147779   2.443   8.718  10.038 -1.0227  0.9711 -0.3568
14579SOL    HW247780   2.516   8.686  10.167 -0.3266 -0.1121 -1.0078
14580SOL     OW47781   0.625   8.986   4.447 -0.0650  0.1746  0.3340
14580SOL    HW147782   0.576   8.910   4.478  0.2200  0.1360  0.6971
14580SOL    HW247783   0.712   8.952   4.426  0.1881  0.4695  0.8771
14581SOL     OW47784   5.551   1.493   3.115  0.2010  0.1802  0.1594
14581SOL    HW147785   5.493   1.522   3.186 -0.0779 -1.0014  0.4404
14581SOL    HW247786   5.493   1.454   3.050  0.6942 -2.1106  0.9735
14582SOL     OW47787   9.950   5.489   2.255  0.0181 -0.1402  0.1089
14582SOL    HW147788   9.970   5.444   2.338  0.6332  0.7334  0.4449
14582SOL    HW247789  10.029   5.479   2.203 -0.3883 -0.7295 -0.4054
14583SOL     OW47790   2.295   0.571   0.736 -0.6250  0.9073 -0.2083
14583SOL    HW147791   2.361   0.589   0.803  0.2036 -2.0597 -0.0826
14583SOL    HW247792   2.343   0.526   0.667 -2.0653  1.0097 -1.3133
14584SOL     OW47793   2.911   5.242   9.993 -0.5643 -0.0260  0.2338
14584SOL    HW147794   2.938   5.333   9.978  1.1563 -0.5609 -0.2509
14584SOL    HW247795   2.975   5.208  10.056  1.3177 -1.9221 -2.4246
14585SOL     OW47796   9.275   5.734   6.582 -0.5550  0.3940 -0.1974
14585SOL    HW147797   9.240   5.738   6.671  0.7488  0.8839  0.3240
14585SOL    HW247798   9.254   5.820   6.544  0.6636  0.9686  0.3695
14586SOL     OW47799   2.669   9.891   1.166 -0.4866  0.7176  0.0086
14586SOL    HW147800   2.581   9.867   1.196  0.1449 -0.5707  0.9287
14586SOL    HW247801   2.724   9.882   1.244  0.4904  1.4021 -0.5783
14587SOL     OW47802   3.858   4.310   6.213  0.1646  0.1637 -0.0221
14587SOL    HW147803   3.771   4.315   6.175 -0.0887  1.5031  0.6744
14587SOL    HW247804   3.844   4.304   6.307  0.8212 -1.0914  0.0248
14588SOL     OW47805   7.350   4.106   6.531 -0.4564  1.0449  0.4687
14588SOL    HW147806   7.288   4.034   6.519 -2.7709  3.0856 -0.4755
14588SOL    HW247807   7.435   4.062   6.538 -1.7211 -1.7630 -0.2343
14589SOL     OW47808   4.542   4.797   2.444 -0.5825  0.1811 -0.4894
14589SOL    HW147809   4.613   4.847   2.404 -1.1296  0.0209 -1.7140
14589SOL    HW247810   4.502   4.857   2.507 -0.5700  0.9439 -1.1925
14590SOL     OW47811   8.855   7.585   0.535 -0.2667 -0.0918  0.0104
14590SOL    HW147812   8.840   7.491   0.537  0.7479 -0.2512  1.0362
14590SOL    HW247813   8.937   7.598   0.583 -1.3301  1.4748  1.5561
14591SOL     OW47814   0.743   1.757   8.756 -0.4531 -1.5092  0.8780
14591SOL    HW147815   0.814   1.692   8.746 -0.3799 -1.3257  0.1394
14591SOL    HW247816   0.708   1.767   8.668 -1.2739 -1.4449  1.2065
14592SOL     OW47817   3.811   4.430   8.993 -0.0235  0.5079 -0.2110
14592SOL    HW147818   3.890   4.464   9.036  0.1081  0.1282 -0.1503
14592SOL    HW247819   3.753   4.407   9.065 -0.5515  1.6173 -0.2646
14593SOL     OW47820   0.263   2.464   3.552 -0.0024  0.0846 -0.4889
14593SOL    HW147821   0.238   2.483   3.462 -2.9692  2.8533  0.6954
14593SOL    HW247822   0.185   2.423   3.590 -0.2076  2.1815  1.5881
14594SOL     OW47823   7.933   2.906   3.906  0.1013  0.2295  0.3086
14594SOL    HW147824   7.884   2.902   3.988  1.3509  0.1721  1.0815
14594SOL    HW247825   7.867   2.921   3.839 -0.8762  1.0441  1.4144
14595SOL     OW47826   0.187   9.167   2.012 -0.0622 -0.2685 -0.1890
14595SOL    HW147827   0.223   9.227   2.077  2.4441 -0.8758 -0.8840
14595SOL    HW247828   0.227   9.082   2.033 -1.9205 -1.2756 -0.4622
14596SOL     OW47829   8.580   3.830   6.114  0.3218 -0.4608  0.4071
14596SOL    HW147830   8.652   3.768   6.113  1.0670  0.3619  0.9470
14596SOL    HW247831   8.502   3.777   6.101  1.0516 -1.3211 -0.6060
14597SOL     OW47832   1.005   5.195   4.095  0.1469 -0.5726 -0.7034
14597SOL    HW147833   1.027   5.104   4.118  0.6097  0.1394  2.1176
14597SOL    HW247834   0.918   5.209   4.133  0.5135  0.4218 -0.1775
14598SOL     OW47835   9.347   1.430   3.964  0.1975 -0.0050 -0.5385
14598SOL    HW147836   9.324   1.417   4.056  2.2236 -1.5205 -0.1925
14598SOL    HW247837   9.291   1.368   3.917 -1.3706  1.2811 -0.4708
14599SOL     OW47838   8.301   2.419   8.539 -1.1723  0.3972  0.5161
14599SOL    HW147839   8.253   2.365   8.602 -0.5733  0.1088  0.7303
14599SOL    HW247840   8.392   2.413   8.567 -0.8276 -0.1126 -0.6575
14600SOL     OW47841   1.609   6.098   9.691  0.2365 -0.3118 -0.0469
14600SOL    HW147842   1.544   6.073   9.626 -2.5120  1.1387  1.9097
14600SOL    HW247843   1.626   6.191   9.674  0.2181 -0.1625  0.7101
14601SOL     OW47844   5.381   4.005  10.278 -0.6508 -0.5311  0.0781
14601SOL    HW147845   5.476   4.009  10.265 -0.3607 -1.4539  1.6546
14601SOL    HW247846   5.344   4.033  10.194  0.9623  3.3874  0.4523
14602SOL     OW47847   1.241   5.515   9.187 -0.2872  0.3339 -0.4875
14602SOL    HW147848   1.313   5.562   9.228  0.4750 -1.5832  0.4550
14602SOL    HW247849   1.166   5.574   9.197  0.4282  1.0035  1.4511
14603SOL     OW47850   1.332   5.956   5.766  0.0514 -0.3380  0.0497
14603SOL    HW147851   1.311   6.028   5.707  0.4944 -1.0761 -1.0528
14603SOL    HW247852   1.287   5.880   5.729 -1.0395 -0.5022  1.6217
14604SOL     OW47853   0.868   4.273   0.659 -0.2475  0.2259  0.1456
14604SOL    HW147854   0.819   4.200   0.698  0.8224  0.1257  1.3636
14604SOL    HW247855   0.877   4.249   0.567 -1.1942 -0.4591  0.2182
14605SOL     OW47856   1.115   8.417   5.465  0.1458  0.2662 -0.6175
14605SOL    HW147857   1.155   8.342   5.421  0.8751  1.3071 -1.7695
14605SOL    HW247858   1.180   8.487   5.458 -0.2269  0.8391  1.0467
14606SOL     OW47859   7.827   9.964   5.481  0.4056 -0.0749  0.5815
14606SOL    HW147860   7.793  10.027   5.544  0.3815  0.9435 -0.4142
14606SOL    HW247861   7.807   9.879   5.520 -1.5267  0.4857  0.9637
14607SOL     OW47862   3.882   3.991   7.210  0.0806  0.3561 -0.1968
14607SOL    HW147863   3.952   3.936   7.173  1.4526  0.9446  1.3967
14607SOL    HW247864   3.906   4.080   7.185  0.4692  0.6587  1.1737
14608SOL     OW47865   3.198   2.079   1.212  0.3807  0.0172 -0.0297
14608SOL    HW147866   3.123   2.043   1.164  0.5484  1.0221 -1.0778
14608SOL    HW247867   3.274   2.032   1.178  0.2151 -1.5753  1.5937
14609SOL     OW47868   1.274   5.260   5.600 -0.0255  0.4387 -0.8456
14609SOL    HW147869   1.228   5.332   5.557 -0.4103  0.8822  0.2752
14609SOL    HW247870   1.211   5.188   5.603 -0.8821  1.2186  1.1674
14610SOL     OW47871   9.120   4.347   9.147  0.2478 -0.1688 -0.2737
14610SOL    HW147872   9.053   4.387   9.092  0.7876  1.2050  0.0149
14610SOL    HW247873   9.184   4.311   9.085 -0.9906 -1.9783 -0.5559
14611SOL     OW47874   8.249   0.873   7.012 -0.0393  0.3248  0.0021
14611SOL    HW147875   8.195   0.933   7.064  0.0067 -0.5221  1.0523
14611SOL    HW247876   8.313   0.930   6.969 -1.9394  1.3946 -1.5489
14612SOL     OW47877   4.437   6.196   4.642  0.4290 -0.2879 -0.1543
14612SOL    HW147878   4.467   6.286   4.625 -0.7705  0.2434  0.4471
14612SOL    HW247879   4.473   6.145   4.569  0.3819  0.8467 -1.0056
14613SOL     OW47880   7.061   0.599   7.894 -0.3521 -0.0288  0.3062
14613SOL    HW147881   7.085   0.604   7.802 -1.3898  0.2097  0.0396
14613SOL    HW247882   7.137   0.634   7.941 -0.5106  1.5489 -0.5468
14614SOL     OW47883   9.148   6.272   2.117 -0.0541  0.6048  0.1094
14614SOL    HW147884   9.141   6.179   2.098  0.4889  0.4245  0.7181
14614SOL    HW247885   9.223   6.301   2.066 -1.3417  1.1423 -1.5493
14615SOL     OW47886   0.861   6.284   0.993 -0.2488  0.1592  0.0297
14615SOL    HW147887   0.819   6.344   0.932 -1.6220  0.1032  0.8897
14615SOL    HW247888   0.798   6.213   1.005  0.3618 -0.2643  0.8407
14616SOL     OW47889   4.672   6.655   1.843  0.0404  0.6948  0.6706
14616SOL    HW147890   4.719   6.696   1.771 -0.8355 -0.1142 -0.3891
14616SOL    HW247891   4.580   6.669   1.824 -0.2572 -0.7726  0.8546
14617SOL     OW47892   8.231   8.577   5.938 -0.0230 -0.3325 -0.4805
14617SOL    HW147893   8.239   8.556   6.031 -0.6136 -1.3212 -0.6387
14617SOL    HW247894   8.194   8.498   5.899  1.5011 -0.4624 -1.7910
14618SOL     OW47895   7.646   8.243   0.520  0.1400 -0.1146 -0.6761
14618SOL    HW147896   7.620   8.298   0.447  0.3077  0.4915 -0.2893
14618SOL    HW247897   7.721   8.193   0.487 -0.6847 -0.9209 -1.3739
14619SOL     OW47898   0.321   9.923   0.783 -1.1131 -0.4268  0.0903
14619SOL    HW147899   0.283   9.835   0.784  0.0277 -0.9322  0.8004
14619SOL    HW247900   0.345   9.940   0.874  0.1745 -0.0563 -0.2946
14620SOL     OW47901   4.019   6.444   3.091 -0.4059 -0.3611 -0.5448
14620SOL    HW147902   3.986   6.468   3.178 -0.4413  2.6012 -1.2509
14620SOL    HW247903   4.113   6.438   3.102 -0.4494 -0.4548 -0.2044
14621SOL     OW47904   8.742   1.108   6.240  0.0633 -0.3100  0.0864
14621SOL    HW147905   8.736   1.187   6.186 -0.7498 -0.0187  0.5789
14621SOL    HW247906   8.665   1.113   6.297  1.1350 -0.3788  1.5827
14622SOL     OW47907   1.285   6.799   8.298  0.4604 -0.5181  0.5615
14622SOL    HW147908   1.219   6.738   8.331  0.3814 -1.7621 -1.7322
14622SOL    HW247909   1.267   6.806   8.205  1.5331  1.7460  0.4647
14623SOL     OW47910   3.759   7.586  10.156 -0.2152 -0.0455  0.3260
14623SOL    HW147911   3.731   7.658  10.213 -0.6136  0.6217 -0.6792
14623SOL    HW247912   3.712   7.510  10.187 -0.7977  0.4174  0.5876
14624SOL     OW47913   0.452   8.310   7.497 -0.1998 -0.1880  0.0197
14624SOL    HW147914   0.457   8.377   7.565  0.2123 -1.2770  1.1027
14624SOL    HW247915   0.359   8.298   7.482 -0.2720  1.1522 -0.7495
14625SOL     OW47916   3.725   3.589   7.385 -0.4084 -0.2528  0.1109
14625SOL    HW147917   3.815   3.600   7.354 -0.0236 -1.2024  0.8584
14625SOL    HW247918   3.710   3.494   7.382 -0.5527 -0.3424  2.2387
14626SOL     OW47919   0.616   8.156   0.168  0.2167 -0.0562 -0.1912
14626SOL    HW147920   0.710   8.141   0.172  0.2304 -0.0258 -0.3884
14626SOL    HW247921   0.594   8.146   0.076 -0.1094 -0.8428 -0.0322
14627SOL     OW47922   3.681   7.918   5.629  0.2114 -0.0932 -0.3033
14627SOL    HW147923   3.624   7.860   5.680 -0.1258 -0.4719 -1.1070
14627SOL    HW247924   3.622   7.985   5.594  0.5696  0.6566  0.4746
14628SOL     OW47925   0.038   5.139   6.920 -0.3671 -0.6791  0.5406
14628SOL    HW147926   0.107   5.200   6.947 -0.7796  0.1848 -0.3098
14628SOL    HW247927   0.081   5.054   6.915  0.4678 -0.2711  0.7300
14629SOL     OW47928   6.527   4.809   3.741 -0.0068 -0.2758  0.0041
14629SOL    HW147929   6.445   4.792   3.788  0.8866 -0.6422  1.5049
14629SOL    HW247930   6.508   4.886   3.687 -1.4566 -0.6094  0.0030
14630SOL     OW47931   9.295   2.493   6.249 -0.6039  0.2689 -0.3286
14630SOL    HW147932   9.351   2.451   6.314 -1.6811  0.9697  1.1126
14630SOL    HW247933   9.314   2.447   6.167 -0.5559 -1.9035  0.8280
14631SOL     OW47934   0.501   9.833   6.275 -0.5031 -0.3009  0.0798
14631SOL    HW147935   0.525   9.771   6.344  2.2510  0.4683 -0.1071
14631SOL    HW247936   0.547   9.802   6.197 -1.3251  0.4448 -0.7342
14632SOL     OW47937  10.091   3.257   6.641 -0.3159 -0.2729 -0.1441
14632SOL    HW147938  10.090   3.162   6.656  0.7297 -0.1899  0.5050
14632SOL    HW247939  10.103   3.266   6.547  0.9185 -0.7870 -0.0487
14633SOL     OW47940   1.433   2.462   9.881 -0.3210  0.1572 -0.1393
14633SOL    HW147941   1.501   2.492   9.822 -0.1229  2.1813  1.0241
14633SOL    HW247942   1.359   2.520   9.864 -1.1977 -0.9572 -0.2483
14634SOL     OW47943   0.981   4.680   1.297  0.3984  0.0775  0.4685
14634SOL    HW147944   0.982   4.588   1.267 -0.9350  0.0259  0.5253
14634SOL    HW247945   1.041   4.724   1.238  1.3986 -0.9112  0.7105
14635SOL     OW47946   6.080   9.241   5.386 -0.0181 -0.4279 -0.0519
14635SOL    HW147947   6.078   9.332   5.358  2.1389 -0.7515 -1.4263
14635SOL    HW247948   6.172   9.223   5.403 -0.5452 -2.0392  1.3518
14636SOL     OW47949   6.578   0.437   8.026 -0.4048  0.4196 -0.0691
14636SOL    HW147950   6.665   0.466   8.050 -0.1382  1.3959 -1.9788
14636SOL    HW247951   6.585   0.413   7.933 -1.7226 -1.3931  0.2363
14637SOL     OW47952   8.009   6.649   6.663  0.2003 -0.4283 -0.1492
14637SOL    HW147953   8.021   6.614   6.575  1.0171  1.1810 -0.7292
14637SOL    HW247954   7.916   6.670   6.669 -0.1829 -2.0484  0.0014
14638SOL     OW47955   2.338   9.851   4.287  0.5972  0.5288 -0.4628
14638SOL    HW147956   2.399   9.836   4.214  0.7691  0.2732 -0.2701
14638SOL    HW247957   2.342   9.770   4.338  3.2505  1.9516  1.8832
14639SOL     OW47958   9.828   0.892   2.784 -0.3000 -0.3066 -0.1779
14639SOL    HW147959   9.771   0.844   2.724 -0.3677  0.1922 -0.5158
14639SOL    HW247960   9.894   0.828   2.810 -0.7545 -0.7654 -0.1261
14640SOL     OW47961   0.117   3.143   4.453  1.0055 -0.0367  0.6602
14640SOL    HW147962   0.080   3.152   4.541 -0.2849  2.2421 -0.0333
14640SOL    HW247963   0.095   3.054   4.427 -1.5552  0.2847  1.4189
14641SOL     OW47964   0.346   3.719   0.161  0.8943 -0.5088 -0.5495
14641SOL    HW147965   0.417   3.681   0.213  1.1943 -1.7948 -1.8450
14641SOL    HW247966   0.297   3.643   0.128 -1.2300  0.3449  0.4730
14642SOL     OW47967   4.939   5.295   5.068 -0.4083 -0.5227  0.2893
14642SOL    HW147968   4.877   5.242   5.117  0.5945 -0.3033  1.8819
14642SOL    HW247969   5.021   5.247   5.072 -0.1837 -0.2780 -0.8354
14643SOL     OW47970   0.867   4.585   7.699 -0.2467  0.1194  0.3551
14643SOL    HW147971   0.870   4.678   7.679  0.6203 -0.0522 -0.4142
14643SOL    HW247972   0.773   4.564   7.701 -0.4541  0.6217 -1.4661
14644SOL     OW47973   6.192   6.283   2.854  0.2545 -0.0537 -0.0382
14644SOL    HW147974   6.187   6.188   2.839  0.2270  0.0908 -1.0181
14644SOL    HW247975   6.284   6.300   2.874  0.2070 -0.3207  0.4218
14645SOL     OW47976   8.157   1.235   5.638 -0.5746  0.2003  0.3916
14645SOL    HW147977   8.141   1.145   5.610  0.7857  0.1581 -0.3076
14645SOL    HW247978   8.186   1.228   5.729 -1.9361  0.0854  0.8512
14646SOL     OW47979   4.765   1.937   3.784 -0.0567  0.2595  0.9357
14646SOL    HW147980   4.679   1.934   3.826 -0.2148 -3.2264  0.6317
14646SOL    HW247981   4.746   1.940   3.690  0.1529 -0.5976  0.8654
14647SOL     OW47982   0.396   8.233   8.377  0.6187  0.0105  0.2493
14647SOL    HW147983   0.372   8.175   8.306  0.8881  1.1626 -0.8133
14647SOL    HW247984   0.324   8.296   8.383  1.4535  1.0517 -0.2813
14648SOL     OW47985   0.868   6.259   7.863 -0.3781  0.2949 -0.3542
14648SOL    HW147986   0.832   6.192   7.806 -0.0399 -0.8001  0.6692
14648SOL    HW247987   0.856   6.341   7.815 -0.4587 -0.5294 -1.8035
14649SOL     OW47988   7.295   9.025   5.042 -0.0333  0.2157  0.5227
14649SOL    HW147989   7.250   9.068   4.969  1.7175  0.5891 -0.3877
14649SOL    HW247990   7.248   9.054   5.119 -0.2950  1.9747 -0.2542
14650SOL     OW47991   8.077   4.004   9.429 -0.0164 -0.4691  0.1685
14650SOL    HW147992   8.064   4.097   9.445 -0.3647  0.1954 -3.3205
14650SOL    HW247993   8.172   3.992   9.434  0.4597  0.9872 -2.9737
14651SOL     OW47994   9.931   6.592   1.342  0.0689  0.4405 -0.0434
14651SOL    HW147995   9.843   6.556   1.354  0.2567 -1.0460 -2.5162
14651SOL    HW247996   9.978   6.569   1.422 -0.7726 -1.9819 -0.1856
14652SOL     OW47997   2.893   3.983   5.127  0.0570  0.2689 -0.2973
14652SOL    HW147998   2.969   3.984   5.185 -1.1659 -1.4729  1.4644
14652SOL    HW247999   2.928   3.959   5.041  1.4328 -1.2869  0.6386
14653SOL     OW48000   0.989   6.312   9.410 -0.3707  0.1522 -0.0286
14653SOL    HW148001   1.001   6.236   9.466 -2.2239  0.1249  0.4091
14653SOL    HW248002   1.075   6.355   9.408  0.0910 -0.6003  1.7128
14654SOL     OW48003   8.172   6.748   3.214 -0.3571  0.7994 -0.2530
14654SOL    HW148004   8.240   6.746   3.147  0.2049 -0.4158  0.3423
14654SOL    HW248005   8.132   6.662   3.210  1.5218 -0.3433  2.8086
14655SOL     OW48006   1.972   3.358   4.885  0.3268 -0.3513 -0.3626
14655SOL    HW148007   2.020   3.400   4.957 -0.5548  0.8958 -0.4942
14655SOL    HW248008   1.962   3.426   4.819 -0.1197 -1.0930 -1.0771
14656SOL     OW48009   8.046   4.996   5.103  0.0140 -0.2406  0.1875
14656SOL    HW148010   8.076   4.995   5.011  1.4486  2.6704  0.5044
14656SOL    HW248011   8.115   4.949   5.150 -0.0835 -0.6481 -0.0692
14657SOL     OW48012   2.900   8.464   5.775  0.3575  0.0867 -0.8944
14657SOL    HW148013   2.840   8.516   5.721 -0.5343  0.5908  0.5171
14657SOL    HW248014   2.935   8.398   5.715 -0.6238  0.5857 -2.0648
14658SOL     OW48015   9.093   7.844   1.452  0.3093  1.0122  0.6735
14658SOL    HW148016   9.074   7.758   1.414  0.9396 -1.5179  5.3414
14658SOL    HW248017   9.172   7.873   1.406 -0.4741 -0.3489 -1.7115
14659SOL     OW48018   8.455   7.015   7.034  0.4128  0.1342 -0.4628
14659SOL    HW148019   8.364   7.044   7.031  0.3896  0.3224  1.1529
14659SOL    HW248020   8.502   7.089   7.072  1.3061  0.1533 -1.5608
14660SOL     OW48021   7.084   5.626   0.753  0.3870 -0.2169 -0.4520
14660SOL    HW148022   7.087   5.721   0.742  1.0511 -0.2995 -0.9718
14660SOL    HW248023   7.170   5.595   0.726 -0.8805 -1.3380 -3.7204
14661SOL     OW48024   7.891   6.920   6.797 -0.3809 -0.4902  0.5680
14661SOL    HW148025   7.907   6.974   6.720 -3.0562  0.0642  0.2970
14661SOL    HW248026   7.817   6.865   6.773  0.7281 -2.6044  1.6982
14662SOL     OW48027   8.273   0.924   6.613  0.3988 -0.2543 -0.5296
14662SOL    HW148028   8.178   0.929   6.618  0.4886  1.1386  0.6121
14662SOL    HW248029   8.296   0.972   6.533  0.1015 -1.5120 -1.3791
14663SOL     OW48030   9.792   2.939   2.890 -0.4063  0.0474  0.4892
14663SOL    HW148031   9.730   2.974   2.954 -2.6898 -1.2556 -0.8359
14663SOL    HW248032   9.772   2.846   2.886  2.0118 -0.5096  0.2984
14664SOL     OW48033   6.442   9.928   5.419  0.8661  0.4564  0.3967
14664SOL    HW148034   6.537   9.915   5.420  0.7905 -0.1191  0.3992
14664SOL    HW248035   6.417   9.912   5.328  0.8449  1.1512  0.2812
14665SOL     OW48036   9.462   9.354   2.698  0.1605 -1.0934 -0.2608
14665SOL    HW148037   9.457   9.263   2.667  1.0425 -1.9927  2.0342
14665SOL    HW248038   9.554   9.377   2.688  0.2009 -0.9474  0.4383
14666SOL     OW48039   0.076   7.444   6.578  0.0714  0.6016  0.0738
14666SOL    HW148040   0.022   7.370   6.604 -0.4856  0.4072 -1.4916
14666SOL    HW248041   0.123   7.414   6.500 -0.8507  2.1314 -1.1437
14667SOL     OW48042   8.741   8.826   1.507  0.1618 -0.0753  0.4120
14667SOL    HW148043   8.696   8.910   1.503  1.2606  0.5677  1.0653
14667SOL    HW248044   8.704   8.775   1.435  1.6841  2.0798 -2.0865
14668SOL     OW48045   3.358   5.804  10.006  0.2160  0.3771  0.0864
14668SOL    HW148046   3.300   5.879   9.993 -1.2672 -0.9387 -1.4331
14668SOL    HW248047   3.356   5.788  10.101 -1.1821  0.9460  0.1756
14669SOL     OW48048   0.418   2.713   9.083 -0.1545 -0.3934  0.0874
14669SOL    HW148049   0.423   2.807   9.067 -0.0631 -0.2317  1.0139
14669SOL    HW248050   0.329   2.689   9.058  0.7517 -0.7344 -3.4267
14670SOL     OW48051   4.930   1.035   0.401 -0.5240  0.6877  0.1013
14670SOL    HW148052   4.957   1.047   0.310  0.9910 -1.4497  0.1870
14670SOL    HW248053   4.850   0.982   0.395 -0.9602  1.3380  0.0232
14671SOL     OW48054   8.708   5.538   8.098  0.6352  0.1475  0.5217
14671SOL    HW148055   8.671   5.580   8.176  0.7019 -1.4687  1.4677
14671SOL    HW248056   8.666   5.453   8.095  1.4534 -0.2342 -0.5911
14672SOL     OW48057   0.393   8.936   4.866 -0.1043 -0.0896  0.6585
14672SOL    HW148058   0.417   9.029   4.866 -1.6489  0.3419  0.3081
14672SOL    HW248059   0.456   8.895   4.925  0.2401  1.2691  1.2764
14673SOL     OW48060   6.411   0.952   1.564 -0.1845  0.1868  0.4067
14673SOL    HW148061   6.502   0.960   1.592 -0.1265  1.2898 -0.0493
14673SOL    HW248062   6.415   0.903   1.481 -0.0974 -0.4987  0.8055
14674SOL     OW48063   9.654   5.809   2.047  0.0211  0.3221  0.2998
14674SOL    HW148064   9.625   5.854   2.127  0.6794 -0.8525  1.2287
14674SOL    HW248065   9.737   5.769   2.071 -0.8510 -1.9891 -0.2291
14675SOL     OW48066   9.733   1.300   3.821 -0.4464  0.0110 -0.2832
14675SOL    HW148067   9.823   1.333   3.817 -1.1824  2.1303 -1.0036
14675SOL    HW248068   9.690   1.339   3.744 -2.0951 -0.5507  0.3106
14676SOL     OW48069   4.054   9.691   3.940  0.3626  0.3054 -0.5328
14676SOL    HW148070   4.048   9.786   3.948  1.6660  0.3577  0.1683
14676SOL    HW248071   4.141   9.676   3.903 -0.1735 -0.5909 -1.4756
14677SOL     OW48072   0.045   0.238   0.102 -0.0836 -0.0038 -0.8040
14677SOL    HW148073   0.070   0.147   0.117 -0.7023 -0.2152 -1.0069
14677SOL    HW248074   0.057   0.252   0.008  0.4916  0.2787 -0.6924
14678SOL     OW48075   4.936   2.341   0.681 -0.8025  0.3137 -0.3799
14678SOL    HW148076   4.952   2.391   0.761  1.1398  0.3496 -0.7232
14678SOL    HW248077   4.842   2.322   0.681 -0.6702 -0.7791  2.5453
14679SOL     OW48078   2.129   7.765   2.624  0.1127  0.1427  0.1970
14679SOL    HW148079   2.219   7.795   2.635  0.3810 -0.0497 -1.2765
14679SOL    HW248080   2.085   7.835   2.576 -0.5978  0.3430  1.1174
14680SOL     OW48081   6.085   4.895   4.331  0.3006  0.1807 -0.5088
14680SOL    HW148082   5.997   4.926   4.350 -0.1058 -1.4512  0.4854
14680SOL    HW248083   6.140   4.938   4.396  0.0813  0.4749 -0.5198
14681SOL     OW48084   4.325   3.707   1.869 -0.0721  0.2280 -0.4725
14681SOL    HW148085   4.318   3.620   1.828 -1.6242  0.4909 -0.8481
14681SOL    HW248086   4.376   3.758   1.807 -0.8483  0.1095 -1.2382
14682SOL     OW48087   8.816   4.623   1.962 -0.0564  0.5117 -0.7647
14682SOL    HW148088   8.869   4.630   2.041  0.0408 -0.6019 -0.7124
14682SOL    HW248089   8.873   4.581   1.898 -0.4454  0.5195 -1.1189
14683SOL     OW48090   4.316   0.073   6.644 -0.0894  0.1965  0.1578
14683SOL    HW148091   4.366   0.005   6.689 -2.4613 -0.7116  1.6368
14683SOL    HW248092   4.327   0.151   6.698 -1.1596 -0.3166  1.1609
14684SOL     OW48093   8.955   3.572   7.487 -0.4179  0.5044 -0.6067
14684SOL    HW148094   8.989   3.558   7.576 -2.0099 -0.8064 -0.1402
14684SOL    HW248095   9.022   3.624   7.443  0.6212  0.8030  1.2245
14685SOL     OW48096   0.484   9.540   6.662  0.4471  0.0553  0.1584
14685SOL    HW148097   0.517   9.464   6.613 -2.5702 -1.5061  0.3319
14685SOL    HW248098   0.499   9.517   6.754  0.9013  0.3900  0.1731
14686SOL     OW48099   6.009   5.434   4.002  0.1824  0.0820  0.4825
14686SOL    HW148100   5.936   5.463   4.056  0.3572  0.4423  0.5321
14686SOL    HW248101   6.058   5.373   4.057  0.2988  0.3640  0.6948
14687SOL     OW48102   3.764   6.885   5.034 -0.3551  0.1515 -0.1783
14687SOL    HW148103   3.740   6.830   5.108 -0.7414  2.1064  1.2497
14687SOL    HW248104   3.718   6.847   4.959  1.0058 -2.5959  0.2666
14688SOL     OW48105   4.993   9.371   2.757  0.4183 -0.4007 -0.2434
14688SOL    HW148106   5.042   9.332   2.829 -0.0778  0.5957  0.6591
14688SOL    HW248107   5.018   9.463   2.758 -0.4106 -0.1595 -0.6491
14689SOL     OW48108   2.975   5.076   3.306 -0.2935 -0.0690 -0.0159
14689SOL    HW148109   2.981   5.108   3.216  1.6835 -0.1078  0.0437
14689SOL    HW248110   3.046   5.121   3.352 -0.0211 -1.4806  1.0411
14690SOL     OW48111   0.862   6.186   6.587 -0.1204 -0.0655  0.0734
14690SOL    HW148112   0.924   6.258   6.598 -0.6479  0.1860  1.8627
14690SOL    HW248113   0.802   6.215   6.518  0.3343  0.7222  0.0055
14691SOL     OW48114   7.800   8.587   5.281  0.4461  0.4543  0.4266
14691SOL    HW148115   7.791   8.682   5.281 -1.6558  0.3082  0.6152
14691SOL    HW248116   7.767   8.559   5.195 -1.1109 -0.1950  1.1787
14692SOL     OW48117   8.377   8.020   8.103  0.0992  0.5101 -0.3046
14692SOL    HW148118   8.301   7.974   8.139 -1.5487  2.4006 -1.1569
14692SOL    HW248119   8.406   7.965   8.030 -0.2594 -0.3811  0.2107
14693SOL     OW48120   3.133   3.187   9.850 -0.4637  0.4389  0.2236
14693SOL    HW148121   3.196   3.122   9.882  0.7652  1.0624 -0.8163
14693SOL    HW248122   3.069   3.136   9.801  0.8727  0.0247 -1.1777
14694SOL     OW48123   3.361  10.199   5.944  0.0074 -0.5620 -0.7881
14694SOL    HW148124   3.369  10.141   6.020  2.0481 -2.0456 -2.0374
14694SOL    HW248125   3.270  10.190   5.917 -0.2062 -1.7087  0.2038
14695SOL     OW48126   1.132   4.076   3.236 -0.3117  0.4554  0.4997
14695SOL    HW148127   1.075   4.000   3.248 -0.5621  0.4468 -0.6238
14695SOL    HW248128   1.074   4.151   3.244 -0.0831  0.5402  1.5006
14696SOL     OW48129   9.272   9.881   9.411  0.2548  0.5263  1.3273
14696SOL    HW148130   9.185   9.844   9.396  0.1826  0.9239  0.7484
14696SOL    HW248131   9.264   9.973   9.384  0.2862  1.1330  3.2051
14697SOL     OW48132   9.697   1.341   9.390  0.0350  0.0010  0.3211
14697SOL    HW148133   9.703   1.433   9.364 -0.0245  0.0990  0.6538
14697SOL    HW248134   9.715   1.341   9.484  1.4094 -0.4910  0.0828
14698SOL     OW48135   0.683   9.784   8.078 -0.2217  0.2920 -0.4274
14698SOL    HW148136   0.615   9.851   8.083  0.0438  0.5772 -0.6269
14698SOL    HW248137   0.662   9.734   7.999 -2.5970 -2.2434  1.5992
14699SOL     OW48138   5.622   6.758  10.197 -0.0674  0.2149 -0.1080
14699SOL    HW148139   5.560   6.812  10.246  0.7537  0.8316  0.2728
14699SOL    HW248140   5.577   6.738  10.115 -1.3631 -0.6146  0.7726
14700SOL     OW48141   4.923   0.203   3.793 -0.2486 -0.4457 -0.1560
14700SOL    HW148142   5.014   0.174   3.795  0.1886  0.8050  2.0192
14700SOL    HW248143   4.927   0.294   3.763 -0.6086 -0.0213  1.0051
14701SOL     OW48144   8.090   2.734   7.468  0.3642 -0.4491 -0.4151
14701SOL    HW148145   8.059   2.778   7.389  0.7118  0.5875  0.0023
14701SOL    HW248146   8.021   2.752   7.533  0.7683 -0.0400 -0.0928
14702SOL     OW48147   7.018   6.982   3.016  0.3092 -0.1959  0.3710
14702SOL    HW148148   7.111   6.966   3.034  0.1211  0.5474  2.2118
14702SOL    HW248149   7.011   7.077   3.006  0.0308 -0.3963 -1.7465
14703SOL     OW48150   4.639   2.213   2.518  0.1777  0.0371  0.1611
14703SOL    HW148151   4.584   2.209   2.439 -0.5048 -1.7400  0.6646
14703SOL    HW248152   4.583   2.180   2.588  0.6709  1.8901  1.4926
14704SOL     OW48153   7.679   2.833   3.536 -0.5124  0.2562 -0.1543
14704SOL    HW148154   7.769   2.804   3.544 -0.7078 -0.4559 -0.4892
14704SOL    HW248155   7.670   2.903   3.602 -0.0499 -0.4751  0.7004
14705SOL     OW48156   8.044  10.129   4.301  0.1225 -0.0247  0.0197
14705SOL    HW148157   8.106  10.188   4.344 -0.1704  0.7759 -0.6189
14705SOL    HW248158   7.990  10.187   4.246 -0.4779 -0.8351 -0.2696
14706SOL     OW48159   8.268   4.221   7.635  0.0139  0.0573 -0.5587
14706SOL    HW148160   8.251   4.255   7.722 -2.3918  0.8702 -1.2519
14706SOL    HW248161   8.196   4.160   7.619  1.0156 -0.9057 -1.5781
14707SOL     OW48162   7.508   1.370   2.529  0.0792  0.3105  0.7364
14707SOL    HW148163   7.569   1.442   2.511 -1.7004  1.3945 -1.3748
14707SOL    HW248164   7.545   1.295   2.482 -0.2273  1.0072 -0.6889
14708SOL     OW48165   1.929   5.946   3.214 -0.6633 -0.5411  0.0160
14708SOL    HW148166   1.921   5.975   3.123  1.8793  0.6845  0.0862
14708SOL    HW248167   1.861   5.994   3.260  0.2404  1.5936 -0.7262
14709SOL     OW48168   9.117   4.057   2.413 -0.0106 -0.0824  0.0515
14709SOL    HW148169   9.094   4.049   2.506  1.4697 -0.7866  0.3767
14709SOL    HW248170   9.209   4.034   2.409 -0.0475 -0.0318 -1.6101
14710SOL     OW48171   3.919  10.066   5.396  0.2911 -0.2776 -0.1945
14710SOL    HW148172   3.955  10.150   5.369 -0.8206  0.4206  0.4581
14710SOL    HW248173   3.901  10.076   5.489 -0.5950 -0.9654 -0.2808
14711SOL     OW48174   6.555   2.595   1.500  0.4330  0.6870 -0.2233
14711SOL    HW148175   6.486   2.528   1.506 -0.9944  1.8880 -1.9105
14711SOL    HW248176   6.596   2.596   1.586 -0.7039 -1.1019  0.3836
14712SOL     OW48177   0.101   1.329   1.203 -0.0972  0.1121  0.3586
14712SOL    HW148178   0.016   1.348   1.242  1.2933  1.5270  3.0187
14712SOL    HW248179   0.101   1.377   1.121 -2.0089 -0.2917  0.0741
14713SOL     OW48180   9.714   3.918   5.888  0.1549 -0.0581  0.4834
14713SOL    HW148181   9.707   3.870   5.971 -0.2889 -0.2996  0.3103
14713SOL    HW248182   9.775   3.989   5.906 -0.8159  0.5879  1.3542
14714SOL     OW48183   4.257   1.873   6.290 -0.0856 -0.4959 -0.0436
14714SOL    HW148184   4.312   1.815   6.238 -0.2253  0.6830 -1.5852
14714SOL    HW248185   4.273   1.960   6.253 -0.9535  0.2476  1.2555
14715SOL     OW48186   4.045   2.237   8.215 -0.2177  0.1320 -0.5221
14715SOL    HW148187   4.139   2.252   8.224 -0.5051  0.8640  1.7491
14715SOL    HW248188   4.003   2.311   8.260 -1.8995 -0.0175 -1.7409
14716SOL     OW48189   7.035   9.471   4.528  0.0770  0.0248  0.1779
14716SOL    HW148190   7.081   9.492   4.610 -0.4646 -0.4415  0.6099
14716SOL    HW248191   7.083   9.395   4.494  0.3424  0.2581  0.0312
14717SOL     OW48192   4.224   2.599   9.873  0.0166 -0.1497  0.7406
14717SOL    HW148193   4.279   2.626   9.947  1.7747 -0.6299 -0.3513
14717SOL    HW248194   4.167   2.675   9.858  1.7810  1.2147  0.6156
14718SOL     OW48195   7.366   8.347   5.836 -0.1105 -0.0223  0.1829
14718SOL    HW148196   7.363   8.289   5.912 -0.3171 -0.8532 -0.4394
14718SOL    HW248197   7.447   8.397   5.847 -0.7528  0.7512  1.5654
14719SOL     OW48198   5.939   9.623   4.308  0.4394 -0.2314 -0.1837
14719SOL    HW148199   5.972   9.713   4.313 -2.1915  0.7693  2.3294
14719SOL    HW248200   5.886   9.613   4.387  0.0563 -3.8130 -0.7260
14720SOL     OW48201   7.665   6.430   4.073 -0.1657  0.2005 -0.3221
14720SOL    HW148202   7.692   6.514   4.108 -1.0425  0.9927 -1.4513
14720SOL    HW248203   7.745   6.377   4.071  0.4757  1.1372  0.0402
14721SOL     OW48204   4.950   8.855   7.095  0.0860  0.1806 -0.2158
14721SOL    HW148205   4.874   8.914   7.092  0.1128  0.1909 -0.7052
14721SOL    HW248206   4.977   8.857   7.187  0.7145  1.7499 -0.4104
14722SOL     OW48207   0.308   9.347   5.784  0.1613 -0.3346  0.2533
14722SOL    HW148208   0.314   9.320   5.692  2.0131 -1.8660  0.7614
14722SOL    HW248209   0.271   9.272   5.829 -0.7718  0.4232  0.7772
14723SOL     OW48210  10.181   6.819   5.874  0.2683 -0.0184 -0.1224
14723SOL    HW148211  10.197   6.729   5.847 -1.1837 -0.7564  1.2897
14723SOL    HW248212  10.095   6.840   5.836 -0.2814  0.0672  1.1271
14724SOL     OW48213   5.671   8.126  10.290 -0.0028  0.4168 -0.2026
14724SOL    HW148214   5.606   8.160  10.228 -0.9569  0.4679  0.7923
14724SOL    HW248215   5.705   8.047  10.249 -0.8665  0.2685 -0.6497
14725SOL     OW48216   6.313   8.362   5.604 -0.6310  0.2481  0.1683
14725SOL    HW148217   6.384   8.390   5.661 -0.7945  1.4613 -0.1790
14725SOL    HW248218   6.234   8.380   5.654 -0.8188  2.0931 -0.6730
14726SOL     OW48219   6.061   1.263   9.753  0.3296 -0.7509  0.1534
14726SOL    HW148220   6.131   1.294   9.696  1.0933 -0.9596  0.9520
14726SOL    HW248221   6.072   1.313   9.834 -0.1871 -1.0838  0.4357
14727SOL     OW48222   3.997   6.758   6.795  0.3868  0.2112  0.3636
14727SOL    HW148223   3.924   6.805   6.753  0.0401 -1.9561 -1.6523
14727SOL    HW248224   3.955   6.704   6.863 -0.0062 -1.2931 -1.0221
14728SOL     OW48225   6.858   3.397   7.800 -0.2531 -0.5244 -0.1688
14728SOL    HW148226   6.787   3.338   7.824 -0.1334 -0.4408  0.4250
14728SOL    HW248227   6.874   3.380   7.707  0.8691 -2.5950  0.3314
14729SOL     OW48228   0.703   7.101   0.005 -0.0976 -0.0020 -0.1297
14729SOL    HW148229   0.633   7.103   0.070 -0.5795  0.8187 -0.6445
14729SOL    HW248230   0.763   7.171   0.032  0.0452 -0.0999 -0.1939
14730SOL     OW48231   8.432   3.785   6.456  0.0622 -0.3548  0.0242
14730SOL    HW148232   8.429   3.861   6.398  0.9299 -0.0303  0.3899
14730SOL    HW248233   8.507   3.801   6.514 -0.3919 -0.9738  0.8143
14731SOL     OW48234   8.970   4.258   9.652 -0.1922 -0.0669 -0.0259
14731SOL    HW148235   8.991   4.166   9.666 -1.3568 -0.3564 -0.0981
14731SOL    HW248236   9.001   4.276   9.563  0.0807 -0.3744  0.0054
14732SOL     OW48237   7.954   3.671   4.075  0.3449  0.8686 -0.2106
14732SOL    HW148238   7.914   3.732   4.138 -1.5957  0.0167 -0.5394
14732SOL    HW248239   7.895   3.674   4.000  1.8648  0.8009 -1.4428
14733SOL     OW48240   9.414   0.510   7.259  0.1458 -0.2007 -0.1215
14733SOL    HW148241   9.440   0.555   7.339  1.3133 -0.6607 -0.2259
14733SOL    HW248242   9.434   0.418   7.276 -0.9120 -0.4992 -0.4308
14734SOL     OW48243   9.365   2.608   8.608 -0.3927 -0.6125  0.4058
14734SOL    HW148244   9.340   2.674   8.544  2.2636 -0.8568 -1.0076
14734SOL    HW248245   9.305   2.535   8.591  1.2076 -1.3409 -3.0920
14735SOL     OW48246   6.477   3.129   8.821  0.1235  0.0146 -0.6880
14735SOL    HW148247   6.466   3.094   8.909 -0.5621  0.7763 -0.4527
14735SOL    HW248248   6.470   3.053   8.764 -2.5827 -0.1637 -0.2803
14736SOL     OW48249   4.979   9.870   4.948 -0.8040 -0.2901  0.0454
14736SOL    HW148250   5.049   9.824   4.995  0.3461  2.3312  1.1237
14736SOL    HW248251   5.012   9.880   4.859 -0.9271 -1.2287 -0.1108
14737SOL     OW48252   1.402   3.264   4.275 -0.1261  0.6294 -0.2141
14737SOL    HW148253   1.429   3.352   4.250  1.9341  0.5072  1.3173
14737SOL    HW248254   1.476   3.208   4.250 -1.2227 -0.6264 -0.7718
14738SOL     OW48255   6.533   6.089   9.665  0.5231  0.3086  0.3419
14738SOL    HW148256   6.496   6.169   9.703  0.0649 -0.3722  1.3717
14738SOL    HW248257   6.484   6.077   9.583  0.8366  1.2551 -0.0051
14739SOL     OW48258   1.294   2.953   0.089 -0.1994 -0.0956  0.6359
14739SOL    HW148259   1.239   2.939   0.012 -0.2826  0.1320  0.6542
14739SOL    HW248260   1.357   2.880   0.087  0.4273  0.4507 -0.2049
14740SOL     OW48261   8.166   1.903   7.480 -0.5690  0.3992 -0.0646
14740SOL    HW148262   8.198   1.985   7.443 -0.6534  0.2586 -0.4562
14740SOL    HW248263   8.230   1.879   7.546 -1.2588  1.5074  1.0535
14741SOL     OW48264   1.245   2.585   4.574 -0.5271 -0.3294 -0.5752
14741SOL    HW148265   1.232   2.604   4.481 -0.6518  1.4319 -0.2411
14741SOL    HW248266   1.298   2.658   4.607  0.2883 -1.3823  0.5623
14742SOL     OW48267   1.716   2.866   3.007  0.1667 -0.7300  0.6088
14742SOL    HW148268   1.756   2.929   2.948  1.5516 -2.0564  0.0754
14742SOL    HW248269   1.786   2.840   3.067 -0.4913 -1.4384  1.1019
14743SOL     OW48270   3.577   7.904   6.484 -0.1861 -0.0098  0.4783
14743SOL    HW148271   3.642   7.836   6.500  0.5584 -0.0657 -2.2134
14743SOL    HW248272   3.627   7.978   6.451 -1.1403  1.3913  2.0188
14744SOL     OW48273   1.572   8.145   2.507  0.2225  0.3415  0.1112
14744SOL    HW148274   1.526   8.167   2.426 -0.7165 -0.2774  0.4610
14744SOL    HW248275   1.573   8.226   2.557  2.2778  1.2005 -1.1652
14745SOL     OW48276   4.178   0.490   5.912  0.3751 -0.2868  0.7413
14745SOL    HW148277   4.241   0.531   5.971 -1.0840  2.0264  0.8477
14745SOL    HW248278   4.109   0.457   5.969  1.1843 -2.3939  0.5935
14746SOL     OW48279   6.641   8.588   1.047 -0.7271 -0.7506  0.5548
14746SOL    HW148280   6.727   8.549   1.067 -0.5612 -0.7569 -0.1248
14746SOL    HW248281   6.622   8.644   1.122 -0.2338 -0.9256  0.8192
14747SOL     OW48282   4.894   4.350   3.456  0.2939 -0.0678  0.0854
14747SOL    HW148283   4.937   4.414   3.400 -1.7105  1.4212  0.1608
14747SOL    HW248284   4.908   4.266   3.412  2.9106  0.3428 -0.0544
14748SOL     OW48285   9.058   7.662   3.350 -0.2440 -0.4348  0.0089
14748SOL    HW148286   9.087   7.580   3.389 -0.3423 -0.0931  0.8168
14748SOL    HW248287   8.974   7.680   3.393 -0.5027 -0.2025 -0.5845
14749SOL     OW48288   0.707   9.542   4.180  0.3209  0.4028  0.0993
14749SOL    HW148289   0.675   9.592   4.104  0.4119 -2.2088 -1.7907
14749SOL    HW248290   0.788   9.501   4.149  0.8677 -0.0302  1.9581
14750SOL     OW48291   6.338   1.572   7.525  0.3427  0.2305  0.3506
14750SOL    HW148292   6.249   1.576   7.559 -1.0975 -1.5389 -2.7679
14750SOL    HW248293   6.330   1.602   7.434  2.8363 -0.5402 -0.1989
14751SOL     OW48294   6.575   7.638   1.315 -0.0752 -0.1650 -0.0237
14751SOL    HW148295   6.532   7.577   1.375 -4.1660  1.0575 -1.3739
14751SOL    HW248296   6.639   7.684   1.370 -4.4516  1.8765  4.1476
14752SOL     OW48297   5.855   6.396   3.205  0.2259 -0.0454  0.4279
14752SOL    HW148298   5.828   6.485   3.227  0.0888  0.4689 -1.6391
14752SOL    HW248299   5.912   6.406   3.129 -1.0068 -1.7948 -0.8083
14753SOL     OW48300   4.390   3.479   0.817 -0.3610  0.1284 -0.0216
14753SOL    HW148301   4.356   3.553   0.766 -0.7698 -0.3836 -0.5087
14753SOL    HW248302   4.475   3.459   0.776  0.8117  1.7062  1.4888
14754SOL     OW48303   6.431   2.398   5.409 -0.2258  0.4920 -0.1050
14754SOL    HW148304   6.525   2.383   5.418  0.2099  1.6380 -2.1754
14754SOL    HW248305   6.395   2.314   5.382  0.2880  0.1710  0.2142
14755SOL     OW48306   1.591   9.024   2.130  0.6150 -0.1542  0.0223
14755SOL    HW148307   1.530   9.079   2.179  2.3500  1.0768  0.8934
14755SOL    HW248308   1.598   9.066   2.044 -1.2498 -1.4453 -0.8177
14756SOL     OW48309   5.784   9.859   8.983 -0.2702 -0.1119  0.4216
14756SOL    HW148310   5.810   9.844   9.074 -2.9441  0.6510  1.3819
14756SOL    HW248311   5.743   9.776   8.956 -1.8999  0.5118  0.8653
14757SOL     OW48312   6.143   0.070   1.096 -0.6060 -0.2700  0.3301
14757SOL    HW148313   6.174   0.153   1.131 -0.2168 -0.8324  1.3238
14757SOL    HW248314   6.125   0.089   1.003 -0.3683  0.8698  0.5030
14758SOL     OW48315   8.838   3.937   5.879 -0.0070  0.3178  0.0327
14758SOL    HW148316   8.845   3.873   5.808  0.1596 -1.2477  1.3982
14758SOL    HW248317   8.775   4.002   5.846  0.0041 -0.3987 -1.5042
14759SOL     OW48318   1.450   8.196   8.449 -0.7883  0.2245 -0.6742
14759SOL    HW148319   1.498   8.168   8.371 -1.3171 -0.1863 -0.8627
14759SOL    HW248320   1.372   8.239   8.415 -0.4493  1.0924 -0.3727
14760SOL     OW48321   6.694   8.271   0.959  0.5211  0.2730  0.1221
14760SOL    HW148322   6.643   8.219   0.897  1.3158 -1.8037  1.1157
14760SOL    HW248323   6.695   8.219   1.039  0.9435  2.0870  1.3598
14761SOL     OW48324   7.576   4.691   9.287 -0.4137  0.2577  0.1217
14761SOL    HW148325   7.612   4.675   9.200  1.3732  1.4172  0.6121
14761SOL    HW248326   7.539   4.607   9.313 -0.3043 -0.3055 -1.4369
14762SOL     OW48327   0.235   5.733   2.538 -0.1410 -0.1679  0.1661
14762SOL    HW148328   0.315   5.682   2.546  0.2786 -0.1223 -2.7532
14762SOL    HW248329   0.169   5.670   2.508 -0.4156  0.3642 -0.3692
14763SOL     OW48330   2.213   0.431   6.240  0.0810  0.2274 -0.4825
14763SOL    HW148331   2.297   0.471   6.218  0.4360  0.0320  0.4327
14763SOL    HW248332   2.155   0.454   6.168  0.5560  1.5184 -0.4786
14764SOL     OW48333   0.481   5.898   5.545 -0.4576  0.1468  0.1265
14764SOL    HW148334   0.397   5.924   5.583 -0.5965 -0.2333  0.0918
14764SOL    HW248335   0.542   5.900   5.618 -0.8979 -1.3726  0.5732
14765SOL     OW48336   1.427   1.276   3.684 -0.2183 -0.7708  0.2642
14765SOL    HW148337   1.369   1.278   3.761  0.3150 -2.2851  0.7465
14765SOL    HW248338   1.502   1.224   3.712  0.7272 -0.0247 -0.8058
14766SOL     OW48339   8.263   2.226   6.442  0.5097 -0.3712  0.4954
14766SOL    HW148340   8.263   2.164   6.370 -0.4084 -0.9529  0.9705
14766SOL    HW248341   8.170   2.244   6.459  0.6878 -0.4065  1.6424
14767SOL     OW48342   3.922   6.192   7.206  0.0431  0.3366  0.0954
14767SOL    HW148343   3.846   6.150   7.245 -0.0109 -0.7753 -1.1311
14767SOL    HW248344   3.994   6.131   7.219  0.5999  1.0961  0.6877
14768SOL     OW48345   2.299   2.906   7.153 -0.0270 -0.2297  0.4181
14768SOL    HW148346   2.254   2.934   7.073 -0.8900 -0.5993  0.7570
14768SOL    HW248347   2.249   2.948   7.224 -1.1773 -2.3126  0.9259
14769SOL     OW48348   7.087   5.958   5.410 -0.0523 -0.0838 -0.4710
14769SOL    HW148349   7.046   6.010   5.341 -0.5927  2.4554  1.5736
14769SOL    HW248350   7.039   5.875   5.410 -0.4391  0.0896 -2.6737
14770SOL     OW48351   4.918   2.256   5.569  0.0139 -0.5398  0.7357
14770SOL    HW148352   4.914   2.181   5.510  1.1778  0.0502 -0.1388
14770SOL    HW248353   4.859   2.320   5.530 -0.2825 -0.6589  0.9848
14771SOL     OW48354   9.032   8.141   6.900  0.1409  0.3907 -0.4095
14771SOL    HW148355   9.085   8.204   6.851  1.2741 -0.7155 -0.6664
14771SOL    HW248356   9.077   8.058   6.888 -0.8672 -0.3296  0.5967
14772SOL     OW48357   5.512   2.559   8.195  0.1947 -0.0735 -0.0641
14772SOL    HW148358   5.537   2.477   8.153 -0.0970 -0.0741 -0.2402
14772SOL    HW248359   5.433   2.586   8.149 -0.5960 -0.4784  1.0218
14773SOL     OW48360   3.871   2.401   7.031 -0.0352  0.6530  0.3185
14773SOL    HW148361   3.802   2.335   7.027 -0.8325  1.4992 -0.1323
14773SOL    HW248362   3.883   2.428   6.940  0.6372  0.7866  0.4393
14774SOL     OW48363   7.247   2.909   4.427  0.3318 -0.1099 -0.1094
14774SOL    HW148364   7.171   2.875   4.380  0.1118 -0.5701  0.5591
14774SOL    HW248365   7.217   2.914   4.518  0.8678  0.4055  0.0374
14775SOL     OW48366   8.360   5.917   8.863 -0.8586  0.1462 -0.4336
14775SOL    HW148367   8.303   5.951   8.931  0.7909  2.6788 -0.1923
14775SOL    HW248368   8.410   5.847   8.906  0.7579  2.2508  1.3220
14776SOL     OW48369  10.080   4.263   9.556  0.3053 -0.0662 -0.3337
14776SOL    HW148370  10.075   4.265   9.460 -0.0763 -1.2948 -0.3545
14776SOL    HW248371  10.056   4.174   9.579 -0.1342  0.3711  0.9502
14777SOL     OW48372   9.395   9.136   0.737  0.0195  0.3036 -0.2042
14777SOL    HW148373   9.410   9.065   0.674  1.6976 -0.1139  0.6083
14777SOL    HW248374   9.431   9.103   0.819 -1.9921  0.9085  0.9666
14778SOL     OW48375   0.219   1.712   9.171  0.0095 -0.9563  0.0641
14778SOL    HW148376   0.183   1.751   9.092 -0.6216 -1.4524  0.1011
14778SOL    HW248377   0.185   1.623   9.172  0.1034 -0.9925  0.8374
14779SOL     OW48378   9.596   6.889   6.561  0.3975  0.4495 -0.2067
14779SOL    HW148379   9.639   6.804   6.550 -3.6439 -1.7651 -0.5373
14779SOL    HW248380   9.615   6.913   6.652  0.2013 -1.7605  0.4814
14780SOL     OW48381   9.143   1.719   7.883  0.0857 -0.1114 -0.3918
14780SOL    HW148382   9.156   1.739   7.790 -0.2487 -0.1173 -0.4406
14780SOL    HW248383   9.231   1.699   7.915  0.2180 -0.0178 -0.6844
14781SOL     OW48384   8.191   7.222   6.800 -0.3048 -0.6614  0.1291
14781SOL    HW148385   8.144   7.221   6.884 -0.5687 -0.7666 -0.0210
14781SOL    HW248386   8.193   7.314   6.775 -0.9389 -0.7177 -0.1485
14782SOL     OW48387   5.754   5.552   2.964  0.0212  0.1956  0.3594
14782SOL    HW148388   5.686   5.502   2.918 -0.3114 -0.6941  1.7709
14782SOL    HW248389   5.708   5.594   3.036  1.1962 -1.7615  2.3568
14783SOL     OW48390   0.933   6.519   5.692  0.1311 -0.1496 -0.2415
14783SOL    HW148391   0.960   6.430   5.669 -1.6518 -0.0299 -3.3318
14783SOL    HW248392   0.993   6.575   5.643 -0.4575  0.2828 -0.4751
14784SOL     OW48393   6.319   1.129   0.308 -0.0351  0.1187 -0.2255
14784SOL    HW148394   6.234   1.172   0.302 -0.6389 -1.0816 -0.3565
14784SOL    HW248395   6.366   1.160   0.230 -0.7101  0.0205 -0.6825
14785SOL     OW48396   4.034   3.743   9.814  0.5017  0.2751  0.7088
14785SOL    HW148397   4.012   3.823   9.766 -1.7183 -0.2478  0.7374
14785SOL    HW248398   3.982   3.675   9.771  3.3331 -1.4848 -0.1900
14786SOL     OW48399   7.394   9.466   6.788  0.0449  0.2672  0.5452
14786SOL    HW148400   7.485   9.495   6.793  0.2755 -0.5672  1.4631
14786SOL    HW248401   7.363   9.466   6.878 -0.6456 -0.1361  0.3194
14787SOL     OW48402   3.871   9.846   9.060  0.3012 -0.3596  0.8941
14787SOL    HW148403   3.824   9.807   8.986  1.2012  0.0578  0.0788
14787SOL    HW248404   3.881   9.938   9.036  0.2709 -0.1308  1.7226
14788SOL     OW48405   4.466   0.856   2.351  0.2264  0.2352  0.0415
14788SOL    HW148406   4.538   0.820   2.299  0.9724 -0.3889  1.4509
14788SOL    HW248407   4.472   0.951   2.339  0.3350  0.1083 -1.0300
14789SOL     OW48408   8.741   5.083   3.265 -0.8614  0.3310  0.0798
14789SOL    HW148409   8.798   5.013   3.296  0.9422  2.0502  0.8067
14789SOL    HW248410   8.682   5.100   3.338 -0.1035  0.7805  0.5985
14790SOL     OW48411   9.982   0.234   3.635  0.3920 -0.3809  0.0680
14790SOL    HW148412   9.999   0.233   3.729 -0.4653  1.0124  0.2827
14790SOL    HW248413   9.990   0.326   3.611 -0.2426 -0.6000 -1.0525
14791SOL     OW48414   5.381   8.665   3.709 -0.2426  0.0724 -0.2467
14791SOL    HW148415   5.298   8.621   3.729 -0.2427 -0.4667 -1.3502
14791SOL    HW248416   5.361   8.722   3.635  0.2179  0.4571 -0.0780
14792SOL     OW48417   7.926   3.843   5.978 -0.1716 -0.6279 -0.5626
14792SOL    HW148418   7.850   3.878   6.024  2.1829  1.2468  2.2706
14792SOL    HW248419   7.978   3.921   5.957  2.6054 -1.9960  0.8137
14793SOL     OW48420   0.154   2.560   4.428 -0.0873 -0.7805  0.7075
14793SOL    HW148421   0.232   2.554   4.374  0.5536 -0.6854  1.5964
14793SOL    HW248422   0.086   2.514   4.378 -0.3735  1.8707 -1.6098
14794SOL     OW48423   1.008   8.845   3.699 -0.2997  0.0737 -0.2531
14794SOL    HW148424   1.056   8.863   3.780 -0.0205  0.1830 -0.4376
14794SOL    HW248425   0.931   8.901   3.703  0.7055  1.5957 -0.9588
14795SOL     OW48426   1.252   9.899   4.361  0.0322 -0.3729  0.3388
14795SOL    HW148427   1.160   9.875   4.369 -0.1388  0.0170 -0.3735
14795SOL    HW248428   1.298   9.837   4.417 -0.6315 -0.8005  0.4205
14796SOL     OW48429   6.860   5.069   6.717 -0.1059 -0.4166 -0.0556
14796SOL    HW148430   6.821   5.154   6.695 -2.0028 -1.3833 -0.6312
14796SOL    HW248431   6.937   5.063   6.661  1.2154  1.7218  1.3968
14797SOL     OW48432   2.757   6.330  10.006 -0.1794  0.3548 -0.4331
14797SOL    HW148433   2.797   6.276   9.937 -1.8307 -1.9826  0.3227
14797SOL    HW248434   2.666   6.340   9.979 -0.3197  1.3053  0.3436
14798SOL     OW48435   4.744   3.874   4.128 -0.1621 -0.2865  0.1827
14798SOL    HW148436   4.726   3.964   4.155  0.1808 -0.1116 -0.1641
14798SOL    HW248437   4.742   3.878   4.032  1.6138 -0.2881  0.1271
14799SOL     OW48438   1.679  10.048   1.398 -0.2918  0.6884 -0.2685
14799SOL    HW148439   1.670  10.094   1.482  0.5731  0.6179 -0.1265
14799SOL    HW248440   1.594  10.058   1.356 -1.5581 -1.2824  1.6110
14800SOL     OW48441   7.390  10.216   8.778 -0.2384 -0.7903  0.3223
14800SOL    HW148442   7.363  10.222   8.869 -0.6377 -2.5505  0.3673
14800SOL    HW248443   7.483  10.236   8.779 -0.1476 -1.1988  1.1884
14801SOL     OW48444   6.369   8.387   3.098 -0.6635  0.2781  0.2406
14801SOL    HW148445   6.381   8.318   3.033  1.2427  0.9167 -0.1440
14801SOL    HW248446   6.435   8.369   3.165  1.9818  3.2862 -1.3053
14802SOL     OW48447   3.015   0.112   1.638  0.3606 -0.0121 -0.3106
14802SOL    HW148448   3.083   0.096   1.704  0.6951 -0.8931 -0.8490
14802SOL    HW248449   2.986   0.202   1.654  0.0696 -0.3713  1.3583
14803SOL     OW48450   9.926   9.120   2.038  0.5215  0.1078  0.1846
14803SOL    HW148451   9.868   9.055   2.078  0.9683 -1.4340 -1.5707
14803SOL    HW248452  10.007   9.113   2.089  0.1318  0.2443  0.8378
14804SOL     OW48453   9.771   7.144   0.662 -0.1248 -0.0917 -0.2512
14804SOL    HW148454   9.731   7.221   0.622  0.2073 -0.8637 -2.1925
14804SOL    HW248455   9.850   7.128   0.610  0.2142 -1.2973  0.5837
14805SOL     OW48456   4.125   0.091   4.280  0.5543 -0.2666  0.2617
14805SOL    HW148457   4.038   0.119   4.309 -0.1029 -1.6521 -0.2834
14805SOL    HW248458   4.164   0.051   4.358  0.5462 -0.0040  0.4011
14806SOL     OW48459   0.699   8.076   0.904  0.1489 -0.4976 -0.1451
14806SOL    HW148460   0.704   7.981   0.918 -0.0054 -0.6237 -0.9137
14806SOL    HW248461   0.674   8.085   0.812  1.5399  0.3104 -0.4593
14807SOL     OW48462   9.339   9.532   5.880 -0.1957  0.0179 -0.9151
14807SOL    HW148463   9.407   9.528   5.814  0.6078 -1.5005 -0.0506
14807SOL    HW248464   9.364   9.606   5.936 -0.1049  0.4141 -1.4687
14808SOL     OW48465   6.231   0.555   9.401  0.4039  0.1540 -0.2781
14808SOL    HW148466   6.158   0.510   9.443  0.4502 -0.8813 -1.2828
14808SOL    HW248467   6.217   0.648   9.423  0.1910 -0.2913  1.6385
14809SOL     OW48468   7.346   0.883   7.687  0.8783  0.0499  0.2738
14809SOL    HW148469   7.316   0.793   7.682  0.9468  0.0800 -0.9004
14809SOL    HW248470   7.441   0.876   7.700  1.1656 -0.0888 -1.5914
14810SOL     OW48471   7.871   2.642   4.317  0.2422  0.6625  0.0828
14810SOL    HW148472   7.941   2.653   4.382  0.4480 -1.4422  0.2887
14810SOL    HW248473   7.818   2.570   4.350 -0.5489  0.5552 -1.3361
14811SOL     OW48474   4.269   2.412   5.726  0.3912  0.5160  0.3229
14811SOL    HW148475   4.223   2.370   5.653 -0.5611  0.7724  0.7591
14811SOL    HW248476   4.303   2.339   5.778  1.3766  0.3311 -0.5446
14812SOL     OW48477   7.284   6.464   5.419 -0.3184 -0.0925  0.4527
14812SOL    HW148478   7.347   6.513   5.366  0.5230  0.0315  1.5294
14812SOL    HW248479   7.212   6.445   5.359  1.1401 -1.0826 -1.0983
14813SOL     OW48480   2.455   5.919   2.494  0.2241  0.2529 -0.9142
14813SOL    HW148481   2.426   5.889   2.408 -1.3167 -0.7165 -0.1051
14813SOL    HW248482   2.499   5.843   2.532  2.6262  1.2425 -1.5255
14814SOL     OW48483   9.424   4.775   8.274 -0.1998 -0.1709  0.5090
14814SOL    HW148484   9.407   4.868   8.292  0.8068  0.0868  0.2229
14814SOL    HW248485   9.339   4.739   8.252 -0.6233  0.6689  0.7238
14815SOL     OW48486   8.195   5.965   8.028 -0.2995  0.5020 -0.9947
14815SOL    HW148487   8.201   6.053   8.067  0.4793  0.1873 -0.3902
14815SOL    HW248488   8.259   5.913   8.076  0.5813  0.0511 -2.6088
14816SOL     OW48489   5.721   5.200   6.306  0.2522 -0.1816  0.0774
14816SOL    HW148490   5.790   5.265   6.291  0.5735 -0.1385  1.6182
14816SOL    HW248491   5.739   5.166   6.394 -1.0576 -0.9553  0.0619
14817SOL     OW48492   7.516   7.084   8.686 -0.0523  0.5018 -0.2517
14817SOL    HW148493   7.465   7.048   8.759 -0.0393  0.0175 -0.4760
14817SOL    HW248494   7.545   7.007   8.637  0.6325  0.7863 -0.3026
14818SOL     OW48495   4.485   5.676   2.665 -0.3915 -0.3642 -0.2773
14818SOL    HW148496   4.423   5.606   2.645 -1.4669  0.7818 -1.1337
14818SOL    HW248497   4.533   5.690   2.583 -0.2522 -0.0227 -0.1400
14819SOL     OW48498   9.782   7.582   0.408  0.8662  0.2902 -0.4333
14819SOL    HW148499   9.738   7.561   0.326  0.0780 -0.3815  0.1484
14819SOL    HW248500   9.760   7.674   0.424 -1.6594 -0.4107  0.6087
14820SOL     OW48501   0.947   0.690   0.314  0.4132  0.4221 -0.1804
14820SOL    HW148502   1.009   0.649   0.374 -0.2396  2.4887  2.0668
14820SOL    HW248503   0.861   0.658   0.343  0.2311 -0.7507 -1.8926
14821SOL     OW48504   7.977  10.222   3.186 -0.4629 -0.0221  0.0848
14821SOL    HW148505   7.951  10.142   3.232 -0.0497  0.7050  1.6287
14821SOL    HW248506   8.042  10.192   3.122  0.5811 -0.7836  1.4520
14822SOL     OW48507   6.062   2.745   4.717 -0.1546  0.1230  0.2495
14822SOL    HW148508   6.125   2.766   4.787 -0.6614 -1.3939  1.1938
14822SOL    HW248509   6.117   2.726   4.641  0.5109 -0.2603  0.8074
14823SOL     OW48510   0.079   4.657   6.312  0.3134 -0.2185 -0.6519
14823SOL    HW148511   0.139   4.725   6.344 -0.4131 -0.0075  0.3151
14823SOL    HW248512  -0.007   4.700   6.311  0.2847 -0.2451 -2.8512
14824SOL     OW48513   8.031   5.804   3.234 -0.0241  0.6029 -0.2001
14824SOL    HW148514   8.079   5.819   3.152 -0.2247 -0.8323 -0.6078
14824SOL    HW248515   7.939   5.820   3.211 -0.1194 -0.1493 -0.3560
14825SOL     OW48516  10.228   5.342   8.441  0.1355 -0.3332  0.5692
14825SOL    HW148517  10.318   5.342   8.473 -0.1291  1.3730  1.4465
14825SOL    HW248518  10.221   5.263   8.388  1.9776 -0.7903  0.9441
14826SOL     OW48519   8.375   5.346   2.336  0.0816 -0.1474 -0.0332
14826SOL    HW148520   8.360   5.407   2.265  0.4515 -0.7657 -0.6601
14826SOL    HW248521   8.469   5.352   2.353  0.4141 -1.6297 -1.1460
14827SOL     OW48522   1.288   1.093   6.627 -0.9148  0.2962 -0.2824
14827SOL    HW148523   1.264   1.179   6.592  0.0708  0.5633 -0.3226
14827SOL    HW248524   1.215   1.036   6.601 -1.0318  0.8599 -1.2621
14828SOL     OW48525   2.940   0.631   3.973  0.1148 -0.8291  0.3194
14828SOL    HW148526   3.027   0.670   3.969 -1.3349  2.6801 -0.8421
14828SOL    HW248527   2.909   0.633   3.882 -1.0578 -2.4118  0.6348
14829SOL     OW48528   5.155   1.348   2.222 -0.0837  0.2783  0.0398
14829SOL    HW148529   5.193   1.406   2.288  0.4286  0.3557 -0.3274
14829SOL    HW248530   5.205   1.267   2.228 -1.2501 -0.4104  1.0457
14830SOL     OW48531   0.283   2.254   7.379  0.4854 -0.0241  0.4361
14830SOL    HW148532   0.235   2.206   7.312  0.7911  2.9247 -2.1204
14830SOL    HW248533   0.215   2.301   7.427  0.4935  1.3107 -0.7975
14831SOL     OW48534   7.744   3.979   3.458 -0.1752  0.3536  0.2172
14831SOL    HW148535   7.702   3.971   3.544 -0.5720 -1.0335 -0.0805
14831SOL    HW248536   7.838   3.986   3.478 -0.3095  0.6454  0.7771
14832SOL     OW48537   6.670   5.380   0.727  0.1153 -0.8596  0.1322
14832SOL    HW148538   6.760   5.386   0.759 -0.0816  2.5200  0.4137
14832SOL    HW248539   6.652   5.286   0.726  3.3377 -1.6368  0.8281
14833SOL     OW48540   8.421   8.615   2.814  0.3405 -0.4662  0.0636
14833SOL    HW148541   8.511   8.591   2.795 -0.0551 -1.7771 -0.2459
14833SOL    HW248542   8.407   8.697   2.768  1.2718 -0.4260 -0.1535
14834SOL     OW48543   8.693   0.358  10.051  0.3003  0.2760 -0.4150
14834SOL    HW148544   8.722   0.437  10.096  1.8157  1.5343 -3.2864
14834SOL    HW248545   8.637   0.313  10.114  1.3668  2.3722  2.2196
14835SOL     OW48546   4.067   0.208   5.666 -0.1863 -0.0643 -0.1884
14835SOL    HW148547   4.054   0.290   5.620  1.2176 -1.1280 -2.6687
14835SOL    HW248548   4.153   0.216   5.707 -0.5813  0.1324  0.6259
14836SOL     OW48549   7.351   7.090   7.723 -0.0546 -0.4438 -0.0500
14836SOL    HW148550   7.366   7.126   7.636 -2.0439 -0.4565 -0.4642
14836SOL    HW248551   7.255   7.082   7.729  0.0463 -0.7750  2.0000
14837SOL     OW48552   0.265   6.107   7.971  0.4310  0.4635 -0.4045
14837SOL    HW148553   0.264   6.198   7.941  3.4687  0.7782  0.1208
14837SOL    HW248554   0.272   6.055   7.891  1.2223  0.8633 -0.6023
14838SOL     OW48555   8.250   3.692   3.402 -0.0806 -0.3933 -0.5456
14838SOL    HW148556   8.172   3.675   3.456  0.2811  0.3848  0.2422
14838SOL    HW248557   8.216   3.738   3.325 -0.7579 -2.4772 -1.5918
14839SOL     OW48558   5.872   8.416   8.320 -0.1102 -0.0623 -0.2017
14839SOL    HW148559   5.924   8.351   8.368 -2.4602 -0.8201  1.4927
14839SOL    HW248560   5.938   8.473   8.279  2.0312 -1.7947  0.6002
14840SOL     OW48561   2.742   2.739   6.867 -0.3807  0.3431  0.4846
14840SOL    HW148562   2.817   2.684   6.892  0.2698 -0.2475 -2.3647
14840SOL    HW248563   2.691   2.684   6.807 -1.1482  1.9445 -0.3974
14841SOL     OW48564   7.176   1.984   1.765 -0.2011  0.0064  0.0511
14841SOL    HW148565   7.126   1.904   1.782 -0.1964  0.2737  1.4964
14841SOL    HW248566   7.134   2.050   1.820  1.0064  0.5081  0.4103
14842SOL     OW48567   8.626   2.980   0.153  0.5512 -0.2393 -0.0664
14842SOL    HW148568   8.571   2.948   0.225 -0.4465  0.7866 -0.3450
14842SOL    HW248569   8.649   2.901   0.104 -0.4057 -0.7338  0.2495
14843SOL     OW48570   3.427   2.734  10.196  0.4086  0.1094 -0.5875
14843SOL    HW148571   3.411   2.821  10.233  1.8433  1.1688 -2.2494
14843SOL    HW248572   3.481   2.690  10.261  3.6971  2.2644 -1.5793
14844SOL     OW48573   0.122   3.774   1.860  0.2977 -0.5761  0.1036
14844SOL    HW148574   0.037   3.738   1.885 -0.7380  1.7764  0.3040
14844SOL    HW248575   0.122   3.773   1.765 -0.9357  1.2998  0.0202
14845SOL     OW48576   7.485   7.002   3.422  0.0878 -0.1148  0.5353
14845SOL    HW148577   7.457   6.934   3.483  0.3659  1.4731  2.5491
14845SOL    HW248578   7.470   7.084   3.469  0.7124  1.1907 -1.4011
14846SOL     OW48579  10.142   6.550  10.081 -0.2598 -0.3432 -0.0721
14846SOL    HW148580  10.162   6.623  10.022 -1.0478 -1.9241 -2.4304
14846SOL    HW248581  10.224   6.501  10.087 -0.4271 -0.6981 -0.6419
14847SOL     OW48582   2.355   7.284   2.328 -0.1961 -0.2397  0.2417
14847SOL    HW148583   2.391   7.272   2.240 -1.2529 -0.0691 -0.2189
14847SOL    HW248584   2.260   7.277   2.317 -0.2942 -4.1466  1.9174
14848SOL     OW48585   9.389   0.003   8.185  0.4062  0.0911  1.0567
14848SOL    HW148586   9.402  -0.020   8.277  1.1572 -2.3741  0.4014
14848SOL    HW248587   9.316  -0.052   8.157 -1.8371  2.9115  0.8097
14849SOL     OW48588   8.485   8.220   3.189  0.1126 -0.1726 -0.2931
14849SOL    HW148589   8.560   8.247   3.136  0.3159  3.3194  1.4888
14849SOL    HW248590   8.522   8.161   3.254  1.0938  0.4364 -0.2723
14850SOL     OW48591   0.076   0.668   0.410  0.3233 -0.0195 -0.0270
14850SOL    HW148592   0.055   0.602   0.344  0.9375 -0.7300  0.4774
14850SOL    HW248593   0.010   0.736   0.397  0.2388 -0.2908 -1.1630
14851SOL     OW48594   3.420   2.083   3.836 -0.6208 -0.4259 -0.0878
14851SOL    HW148595   3.494   2.113   3.784 -0.4123 -1.4198 -0.3797
14851SOL    HW248596   3.451   2.004   3.880 -0.2080  1.2835  2.9975
14852SOL     OW48597   4.498   3.112   1.891  0.4673 -0.3246  0.0037
14852SOL    HW148598   4.483   3.110   1.796  0.7169 -1.3104 -0.0325
14852SOL    HW248599   4.427   3.166   1.926  1.2362  1.3362 -0.8789
14853SOL     OW48600   3.330   2.908   4.081 -0.8959  0.0335 -0.5148
14853SOL    HW148601   3.307   2.819   4.108 -1.1377 -0.2418 -1.6170
14853SOL    HW248602   3.353   2.952   4.163 -0.6636 -1.0713  0.0334
14854SOL     OW48603   2.156   6.616   1.254 -0.2635 -0.0106  0.1840
14854SOL    HW148604   2.094   6.564   1.304 -0.2821 -1.2767 -1.0906
14854SOL    HW248605   2.228   6.556   1.234 -0.0103  0.6052 -0.8235
14855SOL     OW48606   7.117   7.505   5.509  0.5911 -0.1433 -0.1993
14855SOL    HW148607   7.161   7.574   5.559  1.2792 -0.6180 -0.1389
14855SOL    HW248608   7.179   7.483   5.439 -0.1283  0.1336 -0.9479
14856SOL     OW48609   9.183   9.314  10.072 -0.4171 -0.1766  0.3842
14856SOL    HW148610   9.105   9.334  10.020  0.0634 -0.2817 -0.3772
14856SOL    HW248611   9.213   9.229  10.039  0.9168  0.5762 -0.4163
14857SOL     OW48612   3.545   5.020   3.812  0.3228  0.4065  0.6645
14857SOL    HW148613   3.612   4.995   3.876 -0.2896 -1.3476  0.6709
14857SOL    HW248614   3.591   5.078   3.751  1.2945  0.9135  1.8335
14858SOL     OW48615   6.988   3.311   7.068 -0.4826 -0.0143 -0.6134
14858SOL    HW148616   6.988   3.219   7.093 -0.6848  0.7748  2.7044
14858SOL    HW248617   7.023   3.312   6.979  1.1156 -3.1187 -0.1434
14859SOL     OW48618   7.793   2.982   2.423 -0.2964  0.1937  0.2450
14859SOL    HW148619   7.882   3.011   2.443  0.3545 -1.9261  0.6626
14859SOL    HW248620   7.767   2.931   2.499 -1.3925 -0.2707 -0.4257
14860SOL     OW48621   3.788   4.167   1.848  0.2583 -0.3098  0.4774
14860SOL    HW148622   3.822   4.141   1.763  2.4503  2.6092  0.3206
14860SOL    HW248623   3.694   4.175   1.834  0.2741 -2.0118 -1.0076
14861SOL     OW48624   1.384   5.280   0.802  0.0484 -0.2737 -0.1521
14861SOL    HW148625   1.290   5.287   0.815  0.3678  1.4455  1.6279
14861SOL    HW248626   1.418   5.249   0.886  1.2315  0.7765 -0.2223
14862SOL     OW48627  10.157   6.382   9.401  0.1289  0.3920  0.6269
14862SOL    HW148628  10.172   6.476   9.410  1.0744  0.1609  1.7812
14862SOL    HW248629  10.231   6.342   9.447  0.7597 -0.9477 -1.3896
14863SOL     OW48630   8.152   4.763   5.345 -0.0092  0.6857 -0.0958
14863SOL    HW148631   8.066   4.783   5.307 -0.0610 -0.2202 -0.4788
14863SOL    HW248632   8.133   4.721   5.429 -0.0171 -1.1813 -0.9811
14864SOL     OW48633   5.347   6.883   9.123 -0.5107  0.3575 -0.2773
14864SOL    HW148634   5.311   6.833   9.196  2.3972  0.6249  1.4574
14864SOL    HW248635   5.440   6.861   9.122  0.0387  2.4333 -2.2071
14865SOL     OW48636   6.063   9.104   7.288  0.2399  0.1566  0.2272
14865SOL    HW148637   6.131   9.044   7.256  0.6801  1.4350 -1.3670
14865SOL    HW248638   6.055   9.170   7.219 -1.6156  0.8510  1.0440
14866SOL     OW48639   1.072   2.974   3.283 -0.5526 -0.3113 -0.3139
14866SOL    HW148640   1.012   2.899   3.284  0.8779 -1.4794 -0.4084
14866SOL    HW248641   1.047   3.024   3.361 -3.0446  0.4092 -1.4600
14867SOL     OW48642   2.402   2.834   1.169  0.3116 -0.2894 -0.6737
14867SOL    HW148643   2.350   2.904   1.130 -0.9476 -0.8376 -0.0431
14867SOL    HW248644   2.421   2.775   1.097  0.6686  0.2698 -1.0449
14868SOL     OW48645   8.405   3.955   9.748  0.5546  0.1769  0.4670
14868SOL    HW148646   8.326   3.909   9.775  0.5326  0.2164  0.4701
14868SOL    HW248647   8.436   3.998   9.828 -0.0012  1.0224  0.2446
14869SOL     OW48648   5.796   9.289   4.934  0.0749  0.0169 -0.0799
14869SOL    HW148649   5.738   9.262   4.863  1.1133 -2.6530 -0.0423
14869SOL    HW248650   5.861   9.345   4.892 -1.4221  1.5349 -0.4598
14870SOL     OW48651   4.868   9.803   2.549  0.3942  0.2051  0.0702
14870SOL    HW148652   4.915   9.829   2.471 -0.2016  0.2476 -0.2840
14870SOL    HW248653   4.821   9.723   2.524 -0.3185  0.5802  0.1696
14871SOL     OW48654   2.678   7.343   0.463  0.0626 -0.0152 -0.1882
14871SOL    HW148655   2.690   7.409   0.395 -0.1188  0.2759  0.0578
14871SOL    HW248656   2.587   7.314   0.453  0.2492 -0.4877 -0.5249
14872SOL     OW48657   0.103   7.983   3.428 -0.3277  0.0069  0.1422
14872SOL    HW148658   0.138   8.006   3.515  0.2219  0.3024 -0.1520
14872SOL    HW248659   0.012   7.961   3.444 -0.2674  0.2011  0.7800
14873SOL     OW48660  10.221   5.867   0.372 -0.1283 -0.3950 -0.2485
14873SOL    HW148661  10.247   5.775   0.375  0.2910 -0.2683  0.0759
14873SOL    HW248662  10.303   5.916   0.371 -0.3204 -0.0456 -1.6089
14874SOL     OW48663   1.910   9.808   4.304 -0.0875 -0.5054  0.1024
14874SOL    HW148664   1.835   9.786   4.249 -0.2055  0.5572 -0.1634
14874SOL    HW248665   1.965   9.863   4.249  0.3073 -0.2951  0.7021
14875SOL     OW48666   4.397   2.447   2.449  0.3276  0.0231  0.0235
14875SOL    HW148667   4.333   2.402   2.394 -0.2101  0.5564  0.2037
14875SOL    HW248668   4.403   2.393   2.528 -2.8617  1.9473  1.7519
14876SOL     OW48669   7.527   3.503   3.305 -0.0544  0.4487  0.0539
14876SOL    HW148670   7.490   3.415   3.315 -0.9659  0.9360  1.2754
14876SOL    HW248671   7.457   3.554   3.265  1.2325  0.1533 -2.7992
14877SOL     OW48672   0.916   1.128   2.582  0.0076 -0.7458  0.2668
14877SOL    HW148673   0.872   1.085   2.509 -0.9861  0.6054  0.0309
14877SOL    HW248674   0.932   1.058   2.646 -0.4359 -1.6741 -0.6217
14878SOL     OW48675   8.657   2.395   1.824 -0.5753 -0.1273 -0.4035
14878SOL    HW148676   8.581   2.363   1.775 -0.5942  1.6385 -1.6155
14878SOL    HW248677   8.732   2.376   1.768 -0.1310 -1.4402  0.5832
14879SOL     OW48678   8.964   5.810  10.073  0.2855 -0.3892 -0.6081
14879SOL    HW148679   9.014   5.768  10.142  1.0230  0.6668 -0.4773
14879SOL    HW248680   8.967   5.748  10.000  1.0423 -0.7147 -0.3051
14880SOL     OW48681   1.649   7.140   2.157 -0.0920 -0.2567  0.4824
14880SOL    HW148682   1.585   7.210   2.149  1.4507  1.5523  2.6508
14880SOL    HW248683   1.680   7.145   2.247  2.6114 -1.4614 -0.2584
14881SOL     OW48684   0.778   9.294   9.793 -0.1663 -0.0978 -0.1808
14881SOL    HW148685   0.864   9.268   9.760 -0.2930 -0.6907 -0.0405
14881SOL    HW248686   0.715   9.246   9.739 -0.4042  0.0281 -0.0211
14882SOL     OW48687   8.839   0.065   4.171 -0.2219 -0.0725  0.0324
14882SOL    HW148688   8.781   0.138   4.148  0.6393  0.7574  0.4555
14882SOL    HW248689   8.797   0.024   4.246 -2.0743 -1.6505 -1.7206
14883SOL     OW48690   6.504   8.560   9.430  0.1988 -0.4803  0.7710
14883SOL    HW148691   6.555   8.500   9.375 -0.0594 -0.2517  0.2778
14883SOL    HW248692   6.417   8.522   9.433  0.6887 -1.6065  2.7309
14884SOL     OW48693   6.758   8.057   9.406  0.1367  0.2079 -0.2680
14884SOL    HW148694   6.795   8.076   9.320 -0.3296 -1.1846 -0.8114
14884SOL    HW248695   6.696   7.986   9.389 -1.4844  1.2970  0.8911
14885SOL     OW48696   3.848   1.145   7.107  0.1379  0.0163 -0.4045
14885SOL    HW148697   3.797   1.064   7.114  1.0992 -0.5567  0.2560
14885SOL    HW248698   3.790   1.206   7.062 -0.5416 -1.1041 -1.1067
14886SOL     OW48699   6.242   9.981   1.425  0.1260 -0.1847 -0.7750
14886SOL    HW148700   6.310  10.047   1.438 -0.2871  0.1015 -0.0592
14886SOL    HW248701   6.202  10.004   1.341  0.1986  0.2850 -0.6841
14887SOL     OW48702  10.067   9.221   5.662 -0.2546  0.5038 -0.0207
14887SOL    HW148703  10.150   9.256   5.631  0.8542 -1.4416  0.5881
14887SOL    HW248704  10.089   9.178   5.745 -1.6743 -0.8288 -0.2934
14888SOL     OW48705   0.275   4.160   6.890 -0.7660  0.0975 -0.1134
14888SOL    HW148706   0.277   4.082   6.835  0.0301  0.3009 -0.3945
14888SOL    HW248707   0.269   4.127   6.979 -1.0917 -0.2652 -0.2689
14889SOL     OW48708   7.480   4.043   9.672 -0.1839  0.7415 -0.5090
14889SOL    HW148709   7.533   4.122   9.684 -0.7227  0.9218  0.8128
14889SOL    HW248710   7.400   4.073   9.629  0.0179  0.7531 -0.8806
14890SOL     OW48711   2.013   0.250   8.113 -0.2526 -0.5140 -0.3586
14890SOL    HW148712   2.009   0.155   8.105 -3.3635 -0.4847 -0.4175
14890SOL    HW248713   1.947   0.272   8.179  1.2783  1.5634  0.6132
14891SOL     OW48714   5.621   0.632   6.055 -0.1833 -0.2530 -0.6306
14891SOL    HW148715   5.609   0.721   6.089  0.1585 -0.3317 -0.2975
14891SOL    HW248716   5.690   0.640   5.989  1.8589 -0.7149  1.3450
14892SOL     OW48717  10.203   9.434   8.422 -0.5730 -0.5941 -0.2384
14892SOL    HW148718  10.126   9.378   8.411 -0.1343 -1.3064  0.2057
14892SOL    HW248719  10.167   9.519   8.445 -1.2531 -0.7102 -0.8253
14893SOL     OW48720   6.737   4.685   2.294 -0.0138 -0.2280  0.6810
14893SOL    HW148721   6.831   4.696   2.308  0.1457 -2.0776  1.2807
14893SOL    HW248722   6.729   4.614   2.230 -1.0015  0.5330 -0.0841
14894SOL     OW48723   0.635   8.874   7.152  0.1780 -0.3697  0.3343
14894SOL    HW148724   0.577   8.811   7.194 -2.1439  2.4319  1.6643
14894SOL    HW248725   0.637   8.848   7.060  1.5639 -3.8728  1.1944
14895SOL     OW48726   7.579   0.815   6.226 -0.2023 -0.7232 -0.2858
14895SOL    HW148727   7.653   0.852   6.177 -1.0479  0.6727 -0.5463
14895SOL    HW248728   7.513   0.797   6.160 -0.6820 -0.4903  0.1261
14896SOL     OW48729  10.256   4.083   9.683 -0.3647  0.1136 -0.3845
14896SOL    HW148730  10.306   4.100   9.603  0.2310  0.7056  0.0987
14896SOL    HW248731  10.217   4.168   9.706  1.6775  0.6671  1.4107
14897SOL     OW48732   8.718   8.040   1.975  0.6414  0.3909  0.5087
14897SOL    HW148733   8.773   8.119   1.966  0.0309  0.9701  1.6700
14897SOL    HW248734   8.774   7.977   2.019  0.9592  0.3513  0.0565
14898SOL     OW48735   8.705  10.091   8.953  0.7616 -0.2809  0.3445
14898SOL    HW148736   8.675  10.024   9.014  0.9551  0.2376  1.0249
14898SOL    HW248737   8.770  10.141   9.002  2.4809 -1.1149 -0.9521
14899SOL     OW48738   6.639   8.868   0.673 -0.6931  0.1205 -0.2535
14899SOL    HW148739   6.666   8.956   0.700 -1.2722 -0.4188  2.3043
14899SOL    HW248740   6.545   8.875   0.659 -0.7256 -0.0724 -0.1372
14900SOL     OW48741   3.304   1.718   8.650  0.0406  0.0994  0.1781
14900SOL    HW148742   3.387   1.689   8.613  0.3497 -0.5524  1.3140
14900SOL    HW248743   3.295   1.810   8.623  1.5308  0.4201  0.7058
14901SOL     OW48744  10.129   5.357   1.715  0.1000  0.3954  0.0562
14901SOL    HW148745  10.138   5.273   1.761 -0.5292  0.4712  0.3265
14901SOL    HW248746  10.219   5.388   1.704  0.3101 -0.0881  0.3814
14902SOL     OW48747   1.849  10.055   5.941 -0.3359 -0.7707  0.3406
14902SOL    HW148748   1.791  10.088   5.872 -0.3975 -1.0104  0.2771
14902SOL    HW248749   1.937  10.084   5.914 -0.5232  0.4469  0.9349
14903SOL     OW48750   8.443   0.242   4.002 -0.1279  0.3777 -0.0854
14903SOL    HW148751   8.448   0.150   3.975  0.1929  0.3959 -0.0861
14903SOL    HW248752   8.352   0.266   3.985 -0.3372 -0.0716  0.3432
14904SOL     OW48753   8.253   5.502   3.626 -0.2973 -0.0679 -0.2815
14904SOL    HW148754   8.339   5.460   3.614 -0.5737 -0.2777 -1.7024
14904SOL    HW248755   8.269   5.595   3.611 -0.4645 -0.2144 -1.4410
14905SOL     OW48756   1.162   1.700   8.117 -0.3398  0.1316  0.5375
14905SOL    HW148757   1.099   1.667   8.053 -0.6888 -0.9684  1.4038
14905SOL    HW248758   1.133   1.789   8.136  0.2304  0.7810 -1.3786
14906SOL     OW48759  10.119   6.979   6.517 -0.0877 -0.1900  0.6739
14906SOL    HW148760  10.175   6.912   6.478  0.9492  1.0972 -0.1005
14906SOL    HW248761  10.086   6.939   6.598 -0.2197 -1.9494 -0.2125
14907SOL     OW48762   8.493   4.343   8.029  0.2080  1.0308  0.0151
14907SOL    HW148763   8.588   4.329   8.022  0.1031  0.8312 -1.4624
14907SOL    HW248764   8.484   4.417   8.088  1.1715 -0.1179  1.7127
14908SOL     OW48765   8.861   7.514   7.658 -0.5550 -0.4002 -0.0439
14908SOL    HW148766   8.879   7.593   7.607  2.5064 -0.4701  0.6896
14908SOL    HW248767   8.862   7.443   7.594 -2.3917  0.0101 -0.5766
14909SOL     OW48768   7.488   2.965   8.451 -0.1214  0.0874  0.1125
14909SOL    HW148769   7.502   2.878   8.413  0.9144 -0.8988  2.5310
14909SOL    HW248770   7.398   2.987   8.426 -0.0665 -1.2026 -1.4154
14910SOL     OW48771   7.918   3.541   6.006 -0.2953 -0.1411 -0.0352
14910SOL    HW148772   7.857   3.541   6.080  0.3658  0.7431  0.5334
14910SOL    HW248773   7.924   3.633   5.980  0.4485 -0.2800 -0.3714
14911SOL     OW48774   4.758   8.016   1.529 -0.2596  0.5909  0.1310
14911SOL    HW148775   4.744   7.981   1.441  0.9954  0.2057  0.0664
14911SOL    HW248776   4.786   8.106   1.515  3.0021 -0.3280 -0.1058
14912SOL     OW48777   2.620   2.300   3.094 -0.5231  0.2737  0.2292
14912SOL    HW148778   2.660   2.248   3.024 -2.4133 -0.6025 -0.2879
14912SOL    HW248779   2.571   2.236   3.145 -0.4016  1.1370  1.4586
14913SOL     OW48780   2.153   2.194   9.048  0.2467 -0.9480 -0.0179
14913SOL    HW148781   2.078   2.207   9.106  0.2549 -2.1980  0.2987
14913SOL    HW248782   2.152   2.101   9.027  0.8215 -0.7050 -1.2526
14914SOL     OW48783   2.726   9.414   5.148  0.0831  0.4903  0.1611
14914SOL    HW148784   2.711   9.491   5.093  0.4866  1.0218  0.7723
14914SOL    HW248785   2.745   9.450   5.235  1.3374 -0.2589  0.2253
14915SOL     OW48786   3.276   5.998   9.138  0.0330  0.0326  0.1256
14915SOL    HW148787   3.280   6.061   9.066 -1.6027 -2.8618 -2.7697
14915SOL    HW248788   3.187   6.006   9.172  0.2994  0.2834  0.7749
14916SOL     OW48789   6.707   3.377   0.851  0.3847 -0.7675 -0.4614
14916SOL    HW148790   6.661   3.451   0.811  0.2331 -0.9732 -0.6638
14916SOL    HW248791   6.638   3.319   0.881  0.4349  0.1348  1.5593
14917SOL     OW48792   3.378   5.096   2.015 -0.2262  0.6438 -0.1232
14917SOL    HW148793   3.398   5.188   2.032 -1.7037  0.7837  1.1016
14917SOL    HW248794   3.344   5.063   2.099 -0.2748 -0.8619 -0.7002
14918SOL     OW48795   5.120   9.732   6.033  0.2488 -0.0298  0.1122
14918SOL    HW148796   5.181   9.776   6.092  1.9432 -2.3091  0.1981
14918SOL    HW248797   5.137   9.771   5.947 -1.0422  2.1180  0.7614
14919SOL     OW48798   0.400   2.934   5.412  0.2287  0.0554  0.2224
14919SOL    HW148799   0.409   2.957   5.505 -2.3475  0.6533  0.3862
14919SOL    HW248800   0.321   2.980   5.384  1.1878  0.2348 -2.4103
14920SOL     OW48801   4.324   5.219  10.270  0.4609 -0.2333 -0.4248
14920SOL    HW148802   4.322   5.263  10.185 -1.3543  1.2183  0.3073
14920SOL    HW248803   4.334   5.126  10.248  0.2646  0.1301 -2.2220
14921SOL     OW48804   4.048  10.201   8.670 -0.3210 -0.0229 -0.1048
14921SOL    HW148805   4.020  10.149   8.595  0.8663  0.0686 -0.6345
14921SOL    HW248806   4.085  10.281   8.631  0.2900  0.0306  0.5787
14922SOL     OW48807   6.690   5.500   4.220  0.5702 -0.6319 -0.1832
14922SOL    HW148808   6.762   5.539   4.268  0.5915 -0.4057 -0.3946
14922SOL    HW248809   6.635   5.574   4.193 -0.2490 -0.8688  0.7775
14923SOL     OW48810   1.455   5.178   1.973  0.5408 -0.0153  0.0954
14923SOL    HW148811   1.467   5.083   1.972  0.9317 -0.0390  2.0974
14923SOL    HW248812   1.383   5.192   2.034  0.0188  0.9473 -0.7205
14924SOL     OW48813   3.409   0.375   3.618 -1.0595 -0.2378 -0.0670
14924SOL    HW148814   3.384   0.396   3.529 -1.8608  1.0434  0.4289
14924SOL    HW248815   3.367   0.442   3.672  0.2026 -0.3915  1.1865
14925SOL     OW48816   5.903   2.492   2.691 -0.0717  0.2258 -0.1090
14925SOL    HW148817   5.971   2.559   2.703 -2.0172  2.4435 -0.7732
14925SOL    HW248818   5.944   2.425   2.637  1.2246  2.1460 -1.6357
14926SOL     OW48819   0.551   9.330   8.306  0.3127  0.1352 -0.3478
14926SOL    HW148820   0.616   9.302   8.370 -0.9537  0.4474  1.1312
14926SOL    HW248821   0.467   9.304   8.344 -0.3943 -1.8475 -3.0002
14927SOL     OW48822   5.569   8.763  10.021  0.5607 -0.3330 -0.0519
14927SOL    HW148823   5.542   8.745   9.931 -0.9226 -0.5694  0.4139
14927SOL    HW248824   5.554   8.857  10.032  1.1815 -0.2099 -0.1707
14928SOL     OW48825   6.832   0.870   3.365  0.1965 -0.1500 -0.5502
14928SOL    HW148826   6.890   0.806   3.323  1.9613  0.3669  0.9162
14928SOL    HW248827   6.849   0.952   3.319  1.8103  0.3212  0.7644
14929SOL     OW48828   9.027   6.503   5.672  0.7839  0.3291  0.1309
14929SOL    HW148829   9.012   6.496   5.766  1.6611  0.1921  0.2707
14929SOL    HW248830   9.013   6.414   5.638  2.2329 -0.0390  0.4190
14930SOL     OW48831   5.924   5.943   4.226 -0.3696  0.0710 -0.8237
14930SOL    HW148832   5.908   6.034   4.251  0.1705  0.3972 -1.5997
14930SOL    HW248833   5.878   5.891   4.292 -2.6466  0.9034 -1.6712
14931SOL     OW48834   6.559   8.307   9.250  0.1660 -0.0053  0.8245
14931SOL    HW148835   6.475   8.288   9.208  0.7899 -3.3541  0.8774
14931SOL    HW248836   6.620   8.317   9.177 -0.1148  2.0035  0.8031
14932SOL     OW48837   3.987   1.337   0.515  0.0070  0.0624  0.5194
14932SOL    HW148838   4.062   1.279   0.513  0.1923  0.3017 -0.9988
14932SOL    HW248839   4.011   1.406   0.577 -0.2438 -1.4569  2.3830
14933SOL     OW48840   3.021   1.466   0.037 -0.1057  0.1191  0.0004
14933SOL    HW148841   3.093   1.404   0.040  0.7969  0.9430 -2.1813
14933SOL    HW248842   2.943   1.414   0.058  0.8963 -1.1936  0.5934
14934SOL     OW48843   8.358   6.029   1.318 -0.1558  0.1760  0.1368
14934SOL    HW148844   8.291   5.964   1.301  0.0589  0.1243 -0.5485
14934SOL    HW248845   8.364   6.034   1.413  1.3733 -2.4350  0.2632
14935SOL     OW48846   2.332   2.989   9.143  0.1540 -0.3686  0.4070
14935SOL    HW148847   2.382   2.927   9.090  0.6011 -0.7136  1.2340
14935SOL    HW248848   2.242   2.957   9.137  0.5236 -1.6943  1.6451
14936SOL     OW48849   1.279   0.174   3.824  0.4848  0.3092 -0.0888
14936SOL    HW148850   1.276   0.128   3.907 -0.4280 -0.4347 -0.5172
14936SOL    HW248851   1.231   0.255   3.839  0.8773  0.4751  0.2791
14937SOL     OW48852   8.704   5.348   8.435  0.3661  0.0517  0.2931
14937SOL    HW148853   8.619   5.389   8.447  0.3086  0.1395 -0.4147
14937SOL    HW248854   8.684   5.257   8.412  0.4817 -0.1489  0.9432
14938SOL     OW48855   9.836   3.968   8.187  0.0639  0.3028 -0.7594
14938SOL    HW148856   9.842   3.950   8.281  0.3399  0.3712 -0.7637
14938SOL    HW248857   9.883   3.895   8.146  0.0956  0.3661 -0.8356
14939SOL     OW48858   8.517   6.489   0.735  0.5760 -0.1335  0.0571
14939SOL    HW148859   8.506   6.472   0.828 -2.0144  1.1002  0.0850
14939SOL    HW248860   8.599   6.446   0.711  1.3435 -0.4037  2.8977
14940SOL     OW48861   1.949   8.464   4.775  0.0576  0.2218  0.2989
14940SOL    HW148862   1.884   8.478   4.706  0.1471  2.2617  0.5743
14940SOL    HW248863   2.010   8.399   4.738 -1.5344 -0.9545 -0.3461
14941SOL     OW48864   2.773   5.494   8.620  0.2401  0.1354  0.4595
14941SOL    HW148865   2.710   5.543   8.566  1.2793  0.8375 -0.1615
14941SOL    HW248866   2.731   5.410   8.636 -0.7843  0.5274 -0.0785
14942SOL     OW48867   5.752   9.347   3.241  0.3992 -0.3086 -0.0745
14942SOL    HW148868   5.686   9.309   3.183  1.5527 -0.5346 -1.2688
14942SOL    HW248869   5.710   9.426   3.276 -1.2800 -1.5709  0.8704
14943SOL     OW48870   5.188   6.438   1.715  0.2095  0.1111 -0.4684
14943SOL    HW148871   5.158   6.515   1.763 -1.6365  0.0674 -1.4879
14943SOL    HW248872   5.133   6.366   1.747  0.4313 -0.3544 -1.1018
14944SOL     OW48873   4.809   5.805   9.509 -0.1881 -0.2100 -0.1865
14944SOL    HW148874   4.714   5.811   9.518 -0.1450  0.5758 -0.1999
14944SOL    HW248875   4.844   5.851   9.585  0.1943 -1.3058  0.3218
14945SOL     OW48876   5.294   5.965   1.141 -0.1333  0.0335  0.2458
14945SOL    HW148877   5.344   5.886   1.121 -0.2431 -0.0418  0.2701
14945SOL    HW248878   5.218   5.934   1.190  1.4323  0.4146  3.1729
14946SOL     OW48879   6.117   6.942   6.825  0.8661  0.0990 -0.2306
14946SOL    HW148880   6.175   6.978   6.757  0.0084  1.7191 -0.1419
14946SOL    HW248881   6.055   7.012   6.843 -2.7562 -2.3055 -2.0751
14947SOL     OW48882   9.121   3.387   6.952  0.4516 -0.7004  0.0122
14947SOL    HW148883   9.166   3.424   7.028 -0.2699  0.0223  0.0957
14947SOL    HW248884   9.104   3.296   6.977  0.6091 -0.5922  0.5340
14948SOL     OW48885   7.591  10.020   8.617  0.1722 -0.5914 -0.7464
14948SOL    HW148886   7.578  10.115   8.615 -0.4401 -0.6741 -2.2878
14948SOL    HW248887   7.530   9.989   8.684  1.5441  0.2185  0.9690
14949SOL     OW48888   0.505   4.558   1.570 -0.1734  0.5466  0.3334
14949SOL    HW148889   0.557   4.597   1.500 -0.4083 -1.3967 -1.0060
14949SOL    HW248890   0.569   4.511   1.624 -0.1141  1.2074  0.8447
14950SOL     OW48891   6.406   1.313   3.218  0.1012  0.1624  0.3877
14950SOL    HW148892   6.394   1.229   3.263  2.1650  0.6844  2.0595
14950SOL    HW248893   6.387   1.379   3.284 -2.9979  1.1533 -1.3234
14951SOL     OW48894   1.079   1.988   7.550  0.1529 -0.1905  0.3947
14951SOL    HW148895   1.110   2.044   7.621  1.4213  1.3928 -1.3275
14951SOL    HW248896   1.149   1.989   7.486 -1.2877 -0.9019 -1.2822
14952SOL     OW48897   2.799   2.801   6.374  0.0530  0.4072  0.5177
14952SOL    HW148898   2.869   2.864   6.358  1.4992 -0.8388  1.6943
14952SOL    HW248899   2.762   2.784   6.287  1.3249  0.9544 -0.1536
14953SOL     OW48900   1.430   6.908   0.781  0.2552 -0.0592  0.1506
14953SOL    HW148901   1.341   6.873   0.772  0.8374 -1.1864 -2.2217
14953SOL    HW248902   1.452   6.895   0.873 -1.8114 -0.2766  0.6652
14954SOL     OW48903   2.373   7.385   5.286  0.0029  0.0268  0.2969
14954SOL    HW148904   2.301   7.336   5.325  1.1674 -1.6547  0.4604
14954SOL    HW248905   2.450   7.330   5.301  1.4760  2.1238  0.8399
14955SOL     OW48906   3.590   1.879   5.775 -0.0001 -0.3115  0.4341
14955SOL    HW148907   3.573   1.899   5.867 -0.6699  1.0697  0.0454
14955SOL    HW248908   3.566   1.960   5.728  1.2081 -0.6615 -0.8572
14956SOL     OW48909   0.534   5.541   9.010  0.0166  0.0973 -0.0858
14956SOL    HW148910   0.525   5.631   9.042 -1.9933 -0.2418  0.4448
14956SOL    HW248911   0.503   5.545   8.920 -0.7159 -0.1703  0.1482
14957SOL     OW48912   4.118   8.925   7.511  0.3695  0.1132  0.1960
14957SOL    HW148913   4.126   8.840   7.555  1.6806  0.1300  0.0283
14957SOL    HW248914   4.060   8.907   7.436 -0.1289 -0.4028  0.6854
14958SOL     OW48915   6.028   8.692   7.060  0.1593 -0.3592  0.3608
14958SOL    HW148916   6.001   8.716   6.972  1.8523  0.5407  0.0270
14958SOL    HW248917   6.044   8.598   7.057  0.9802 -0.2024 -0.5427
14959SOL     OW48918   5.278   6.468   3.136  0.0516 -0.1618  0.5511
14959SOL    HW148919   5.243   6.472   3.225 -1.2933 -1.4271  0.1116
14959SOL    HW248920   5.358   6.520   3.140  0.0175 -0.1783  2.4942
14960SOL     OW48921   0.154   4.543   0.772 -0.5516 -0.2217  0.1245
14960SOL    HW148922   0.192   4.628   0.748 -0.4388 -0.0362  0.9239
14960SOL    HW248923   0.069   4.541   0.728 -0.6062  0.3660  0.1925
14961SOL     OW48924   0.511   5.481   3.881 -0.3522 -0.0599 -0.0281
14961SOL    HW148925   0.521   5.395   3.841 -1.4192 -0.1213 -0.1885
14961SOL    HW248926   0.601   5.512   3.894  0.0446 -1.2163  0.0859
14962SOL     OW48927   8.261   8.518   5.169 -0.0687 -0.1346  0.2289
14962SOL    HW148928   8.285   8.469   5.090 -0.9901 -0.4382  0.1310
14962SOL    HW248929   8.345   8.533   5.213  0.6002  0.9359 -1.3027
14963SOL     OW48930   9.553   7.097   5.473  0.4755 -0.1930 -0.2067
14963SOL    HW148931   9.491   7.141   5.416 -0.0968 -2.1821 -1.1795
14963SOL    HW248932   9.619   7.164   5.493 -1.3345  1.6226 -0.0604
14964SOL     OW48933   5.398   4.547   2.856  0.0285  0.4820  0.1270
14964SOL    HW148934   5.358   4.626   2.893 -0.4839  0.9562 -1.3695
14964SOL    HW248935   5.389   4.558   2.761 -0.3602 -1.5594 -0.1034
14965SOL     OW48936   5.778   3.854   2.451  0.2586 -0.9877  0.1460
14965SOL    HW148937   5.824   3.933   2.480 -1.6192  0.2488 -0.0812
14965SOL    HW248938   5.808   3.839   2.362 -0.0875  0.0472 -0.1492
14966SOL     OW48939   4.003   3.883   3.057 -0.0540 -0.3151  0.6872
14966SOL    HW148940   4.073   3.864   2.994 -0.6361 -0.2566  0.0147
14966SOL    HW248941   4.029   3.966   3.098 -0.5744  0.6120 -0.7929
14967SOL     OW48942   6.467   4.007   3.604  0.2263 -0.5964 -0.0546
14967SOL    HW148943   6.485   3.987   3.512  0.7968  2.1132 -0.6440
14967SOL    HW248944   6.375   4.033   3.606 -0.0215 -1.4717  0.3293
14968SOL     OW48945  10.144   4.757   0.178  1.0108  0.2416 -0.3352
14968SOL    HW148946  10.145   4.663   0.193  1.2769  0.4490  1.1531
14968SOL    HW248947  10.234   4.780   0.157  1.3652  0.4020  1.2197
14969SOL     OW48948   6.224   0.401   5.668  0.0836  0.3477 -0.1039
14969SOL    HW148949   6.310   0.383   5.707 -1.2192 -0.0966  2.8200
14969SOL    HW248950   6.222   0.497   5.657  1.0627  0.3234 -0.5831
14970SOL     OW48951   6.360   4.900   8.183 -0.1989 -0.4124 -0.0094
14970SOL    HW148952   6.366   4.807   8.162 -2.1459 -0.2763 -1.3836
14970SOL    HW248953   6.317   4.902   8.269 -0.6386 -0.7722 -0.2177
14971SOL     OW48954   6.561   2.814   1.314  0.5326 -0.4005 -0.3250
14971SOL    HW148955   6.562   2.748   1.384 -0.8131 -1.1967 -1.0050
14971SOL    HW248956   6.625   2.879   1.341 -1.2752  0.3126  2.5974
14972SOL     OW48957   8.539   4.076   0.643 -0.0357 -0.1119  0.0384
14972SOL    HW148958   8.614   4.052   0.696  0.1013 -0.7978 -0.4543
14972SOL    HW248959   8.463   4.054   0.696  0.0931 -1.2171 -0.2092
14973SOL     OW48960   9.926   5.945   3.890  0.4979  0.1844  0.1028
14973SOL    HW148961   9.929   6.025   3.837 -0.0709 -0.3745 -0.8191
14973SOL    HW248962   9.849   5.898   3.858 -0.5160  0.3125  2.2012
14974SOL     OW48963   4.234   5.961   0.168  0.2289 -0.0535 -0.3185
14974SOL    HW148964   4.202   5.982   0.256 -0.5004 -0.0381 -0.5778
14974SOL    HW248965   4.327   5.985   0.169 -0.3676  2.5071 -0.3750
14975SOL     OW48966   7.039   9.799   5.681 -0.6566 -0.3005 -0.0746
14975SOL    HW148967   7.021   9.845   5.599 -0.1059 -0.4569 -0.2850
14975SOL    HW248968   7.114   9.744   5.662  1.9782  2.4453  1.5611
14976SOL     OW48969   9.283   8.808   0.209 -0.6968 -0.7414 -0.3192
14976SOL    HW148970   9.215   8.830   0.145 -0.7345 -0.2708 -0.1211
14976SOL    HW248971   9.339   8.886   0.213 -0.7109 -0.7523  0.2365
14977SOL     OW48972   7.084   9.567   2.610 -0.1254 -0.0338  0.6599
14977SOL    HW148973   7.149   9.598   2.673 -1.2497 -1.2882  2.5695
14977SOL    HW248974   7.021   9.639   2.603  0.8006  0.7044 -0.2421
14978SOL     OW48975   2.429   2.587   8.795  0.2266  0.5921 -0.5601
14978SOL    HW148976   2.411   2.507   8.845 -1.1735  0.5189 -1.1424
14978SOL    HW248977   2.368   2.652   8.830  1.2582  1.4015 -0.1820
14979SOL     OW48978   1.089   6.768   5.007 -0.1031 -0.1712  0.1703
14979SOL    HW148979   1.057   6.684   4.974  0.7528 -0.6609  0.5685
14979SOL    HW248980   1.074   6.829   4.934 -1.0184 -0.5882 -0.0096
14980SOL     OW48981   1.185   5.041   7.168 -0.3760  0.3288 -0.1659
14980SOL    HW148982   1.251   5.044   7.237 -0.9031 -1.0133  0.4156
14980SOL    HW248983   1.198   5.123   7.120  1.9761 -0.0851 -0.3318
14981SOL     OW48984   5.150   1.788   8.009  0.1515  0.5338  0.0140
14981SOL    HW148985   5.175   1.841   7.934  0.6769 -1.0933 -1.0178
14981SOL    HW248986   5.149   1.849   8.083 -0.2722  2.1541 -1.2728
14982SOL     OW48987   3.377   1.762   2.634  0.3717  0.2523  0.1769
14982SOL    HW148988   3.316   1.832   2.615 -0.3689 -0.2705  0.5965
14982SOL    HW248989   3.349   1.727   2.719  1.1761 -0.0684  0.3197
14983SOL     OW48990   7.898   7.322   3.930 -0.3763 -0.3351 -0.1760
14983SOL    HW148991   7.944   7.313   4.013  0.0433  0.0821 -0.3647
14983SOL    HW248992   7.956   7.282   3.865 -0.5666 -0.3854 -0.3181
14984SOL     OW48993   7.116   0.554   9.889  0.0004 -0.0697 -0.6546
14984SOL    HW148994   7.151   0.612   9.957 -0.7898  1.9973 -1.8944
14984SOL    HW248995   7.024   0.542   9.913 -0.1755  0.3255 -1.1125
14985SOL     OW48996   9.826   9.087   5.741  0.0930  0.3113  0.4697
14985SOL    HW148997   9.911   9.116   5.710  0.1251 -1.5622 -1.3608
14985SOL    HW248998   9.843   9.054   5.829  1.4677 -0.8511 -0.1911
14986SOL     OW48999   0.042   5.879   5.518 -0.4685 -0.3289 -0.5223
14986SOL    HW149000   0.089   5.841   5.444 -0.8002 -2.7217  0.4224
14986SOL    HW249001   0.040   5.810   5.584 -3.7120  0.2809  0.1865
14987SOL     OW49002   4.284   5.646   0.444  0.7492  0.0911  0.5040
14987SOL    HW149003   4.193   5.636   0.470 -0.0417  1.8135 -1.3163
14987SOL    HW249004   4.287   5.612   0.354  1.9229  0.0006  0.5554
14988SOL     OW49005   3.929   3.265  10.172  0.3873 -0.3364  0.2098
14988SOL    HW149006   3.991   3.192  10.174 -1.2122 -1.7640  2.2816
14988SOL    HW249007   3.976   3.337  10.214  0.5887 -1.5097  2.1482
14989SOL     OW49008   5.668   9.347   6.397 -0.1141 -0.1074 -0.2818
14989SOL    HW149009   5.639   9.429   6.357  1.7680  0.1596 -1.2367
14989SOL    HW249010   5.615   9.280   6.355  1.0012  0.2892 -2.4608
14990SOL     OW49011   6.160   1.422   2.362 -0.5746 -0.0246 -0.0796
14990SOL    HW149012   6.246   1.392   2.334 -0.0272 -0.5159  1.9690
14990SOL    HW249013   6.176   1.502   2.410 -0.6516 -2.0232  3.6447
14991SOL     OW49014   8.972   1.422   3.540 -0.3963  0.3448 -0.0459
14991SOL    HW149015   9.049   1.478   3.532  0.3311  0.0988  3.5764
14991SOL    HW249016   8.906   1.478   3.581 -1.6371  0.0696 -1.5848
14992SOL     OW49017   5.701   2.659   7.920  0.0045 -0.5080 -0.1365
14992SOL    HW149018   5.726   2.649   8.012  0.7574  1.1010 -0.1242
14992SOL    HW249019   5.725   2.576   7.879 -0.2236 -1.2009  1.0874
14993SOL     OW49020   0.150   0.013   6.115  0.1935 -0.1004  0.1932
14993SOL    HW149021   0.224   0.033   6.173 -0.2364 -0.7196  0.9909
14993SOL    HW249022   0.156   0.078   6.045  0.7493  0.6610  0.9178
14994SOL     OW49023   9.085  10.096   0.300  0.4015  0.7156 -0.1951
14994SOL    HW149024   9.074  10.178   0.251  0.4654  0.9868  0.2356
14994SOL    HW249025   9.116  10.124   0.386 -1.3406  0.3794  0.5876
14995SOL     OW49026   7.772   8.439   2.667  0.1794 -0.2289  0.3400
14995SOL    HW149027   7.849   8.464   2.615  0.8154 -1.9350  0.4008
14995SOL    HW249028   7.715   8.394   2.605 -0.9163  1.2270  0.2457
14996SOL     OW49029   0.636   8.992   3.551 -0.2114  0.1130 -0.0359
14996SOL    HW149030   0.718   9.012   3.597 -1.3598 -0.7491  2.5696
14996SOL    HW249031   0.578   9.065   3.573 -0.8785 -0.4718  0.1854
14997SOL     OW49032   5.600   6.460   5.095  0.2472  0.5265  0.0477
14997SOL    HW149033   5.518   6.477   5.142 -0.3396  1.5287 -1.2941
14997SOL    HW249034   5.667   6.506   5.146 -0.0406 -0.0314  0.9687
14998SOL     OW49035   8.486   8.506   8.338  0.0263  0.1494  0.0364
14998SOL    HW149036   8.434   8.469   8.267  0.0308  1.3347 -0.6158
14998SOL    HW249037   8.568   8.533   8.295 -0.0729  1.1092  0.4439
14999SOL     OW49038   3.409   3.229   2.434  0.1045  0.2255 -0.1898
14999SOL    HW149039   3.323   3.208   2.398 -0.0404  1.8453 -0.9121
14999SOL    HW249040   3.406   3.196   2.524 -1.2497  0.1906 -0.2181
15000SOL     OW49041   3.501   4.368   9.969  0.6334 -0.1915 -0.5432
15000SOL    HW149042   3.431   4.306   9.952 -0.1367  0.6112 -0.4011
15000SOL    HW249043   3.513   4.364  10.064 -1.6073  2.0736 -0.0441
15001SOL     OW49044   8.605   3.880   7.134 -0.3581 -0.1890  0.4923
15001SOL    HW149045   8.673   3.857   7.197  3.5662  1.3152 -2.8131
15001SOL    HW249046   8.583   3.971   7.155  0.8410  0.2644 -0.1516
15002SOL     OW49047   9.060   6.681   5.005 -0.7306  0.5821 -0.1725
15002SOL    HW149048   9.147   6.652   4.978 -0.0082  0.1261  2.3264
15002SOL    HW249049   9.055   6.772   4.974  0.6543  0.6201 -0.3626
15003SOL     OW49050   8.805   6.663   7.848  0.0723 -0.1934 -0.0598
15003SOL    HW149051   8.789   6.756   7.867 -0.3663 -0.2838  0.0449
15003SOL    HW249052   8.764   6.617   7.922 -1.1484 -0.5358 -0.9109
15004SOL     OW49053   5.626   8.396   9.632 -0.0230  0.5873  0.1744
15004SOL    HW149054   5.673   8.398   9.549  0.0950  0.9216  0.2457
15004SOL    HW249055   5.631   8.305   9.660 -2.0973 -0.0485 -1.3158
15005SOL     OW49056   9.690   3.026   5.172 -0.0224  0.6601  0.2768
15005SOL    HW149057   9.608   3.075   5.171 -0.6387 -0.3517 -0.2767
15005SOL    HW249058   9.758   3.093   5.170 -0.8433  1.5087 -0.9582
15006SOL     OW49059   9.818   7.301   7.665 -0.3875 -0.1069  0.4535
15006SOL    HW149060   9.830   7.389   7.629 -0.6929  0.0161  0.6521
15006SOL    HW249061   9.835   7.311   7.759  2.1268 -0.7506  0.1489
15007SOL     OW49062   3.800   1.847   2.645  0.7969 -0.0764 -0.5851
15007SOL    HW149063   3.863   1.918   2.648 -1.5750  2.2011 -0.8063
15007SOL    HW249064   3.756   1.850   2.730 -1.3797  0.8236 -1.6645
15008SOL     OW49065   6.638   2.329   6.066 -0.3585 -0.2839  0.5929
15008SOL    HW149066   6.694   2.262   6.029 -0.6139 -1.0196  1.4880
15008SOL    HW249067   6.627   2.394   5.996 -0.1972 -1.2287 -0.3216
15009SOL     OW49068   7.936   0.366   5.832 -0.8819 -0.4178 -0.0045
15009SOL    HW149069   7.969   0.440   5.882 -0.7360 -0.5520  0.1008
15009SOL    HW249070   8.015   0.314   5.812 -0.8025  0.1492 -1.2226
15010SOL     OW49071   6.185   9.862   9.618  0.3848  0.2686  0.1925
15010SOL    HW149072   6.192   9.958   9.625  0.7011  0.3878 -1.3674
15010SOL    HW249073   6.256   9.837   9.559 -0.7067 -0.7228 -0.7611
15011SOL     OW49074   8.016   2.288   3.882  0.1694  0.1703  0.1065
15011SOL    HW149075   8.026   2.345   3.958 -0.2039  2.0884 -1.2251
15011SOL    HW249076   8.029   2.346   3.806  1.2837 -1.8037 -1.3147
15012SOL     OW49077   5.794   0.149   4.896 -0.4863  0.4752  0.3400
15012SOL    HW149078   5.791   0.207   4.972  0.2077 -0.3962  1.0564
15012SOL    HW249079   5.721   0.089   4.907 -0.1439  0.0873  0.5490
15013SOL     OW49080   9.773   7.769   4.372 -0.4903 -0.1429 -0.1742
15013SOL    HW149081   9.709   7.702   4.351  0.1474 -0.5895 -0.7633
15013SOL    HW249082   9.764   7.834   4.303 -1.0853  0.3668  0.3783
15014SOL     OW49083   4.428   2.621   5.113  0.0276  0.1964  0.4516
15014SOL    HW149084   4.366   2.549   5.125 -0.9298  0.7690 -0.7961
15014SOL    HW249085   4.514   2.581   5.128 -0.6203  0.0636  5.3761
15015SOL     OW49086   2.229  10.180   7.200 -0.3003 -0.1258  0.1023
15015SOL    HW149087   2.301  10.145   7.147  0.5159 -0.5078  1.4264
15015SOL    HW249088   2.267  10.254   7.247 -0.7482 -0.3691  0.8611
15016SOL     OW49089   4.331   0.841   9.145 -0.1461  0.0370  0.1362
15016SOL    HW149090   4.327   0.784   9.222  0.4862 -0.0837  0.0863
15016SOL    HW249091   4.315   0.929   9.179  1.5401  0.1815  0.6477
15017SOL     OW49092   8.873   3.796   2.007  0.0653 -0.4028  0.2520
15017SOL    HW149093   8.879   3.876   2.058 -1.6031  0.2603 -0.5069
15017SOL    HW249094   8.805   3.745   2.050 -0.3128 -0.4932 -0.4259
15018SOL     OW49095   5.307   1.230   9.136  0.0248 -0.3828  0.1062
15018SOL    HW149096   5.391   1.268   9.161  0.1839 -0.7372  0.1145
15018SOL    HW249097   5.315   1.137   9.158 -1.0909 -0.0890  1.9883
15019SOL     OW49098   5.691   0.980   7.571 -0.3276  0.0498  0.1096
15019SOL    HW149099   5.604   1.019   7.583 -0.2272  0.5779 -0.8168
15019SOL    HW249100   5.747   1.030   7.631 -0.3754  0.7453 -0.4108
15020SOL     OW49101   1.045  10.091   4.175  0.2923  0.1919  0.1506
15020SOL    HW149102   1.134  10.077   4.205 -0.2160 -2.3352  0.7321
15020SOL    HW249103   0.994  10.022   4.219 -1.4796 -0.0573 -2.1132
15021SOL     OW49104   6.405   3.373   9.588 -0.0656 -0.0034  0.3634
15021SOL    HW149105   6.383   3.461   9.556  0.5428 -0.1600 -0.5154
15021SOL    HW249106   6.324   3.342   9.630 -0.3138  0.9356  0.6173
15022SOL     OW49107   6.468   9.805   2.944 -0.4611 -0.4579 -0.5426
15022SOL    HW149108   6.540   9.852   2.986 -1.0416 -0.4905  0.5373
15022SOL    HW249109   6.467   9.719   2.986 -0.1702 -1.0100 -1.6445
15023SOL     OW49110   4.475   5.252   6.660 -0.4192  0.2412 -0.6460
15023SOL    HW149111   4.459   5.179   6.601  1.2717 -1.1036  0.4713
15023SOL    HW249112   4.516   5.319   6.606 -1.6692  0.2758 -1.6068
15024SOL     OW49113   2.366  10.008   9.001  0.2287  0.0207 -0.4824
15024SOL    HW149114   2.422   9.960   8.940 -0.0682 -0.5381 -0.3189
15024SOL    HW249115   2.426  10.066   9.048  0.6923 -0.6777 -0.2110
15025SOL     OW49116   1.057   1.335   5.071  0.2153 -0.3934 -0.2608
15025SOL    HW149117   1.008   1.304   5.146 -0.4977 -0.9563 -0.9423
15025SOL    HW249118   1.142   1.363   5.107 -0.4378  0.1957  0.8681
15026SOL     OW49119   4.992   7.460   7.604 -0.4069  0.1965 -0.2573
15026SOL    HW149120   5.053   7.418   7.544 -0.7781 -1.3063  0.3868
15026SOL    HW249121   5.039   7.537   7.636  0.0129  0.7226 -2.0059
15027SOL     OW49122   9.454   1.743   8.714 -0.2038 -0.0986 -0.1422
15027SOL    HW149123   9.485   1.825   8.673  0.0156  1.0499  2.1539
15027SOL    HW249124   9.522   1.723   8.779 -1.7169 -0.4257  1.3913
15028SOL     OW49125   8.286   4.907   6.739  0.4822 -0.3371 -0.0677
15028SOL    HW149126   8.338   4.847   6.686  1.0923 -1.4180  1.6888
15028SOL    HW249127   8.228   4.850   6.789 -0.6879  0.7116 -0.1837
15029SOL     OW49128   5.814   0.273   8.586 -0.3448 -0.6704  0.5374
15029SOL    HW149129   5.723   0.244   8.598 -0.5045 -0.2499  0.3486
15029SOL    HW249130   5.846   0.220   8.512 -0.2070 -1.3310  1.0651
15030SOL     OW49131   0.718   4.052   8.739  0.3227 -0.4168  0.4155
15030SOL    HW149132   0.774   4.097   8.676  0.1772 -0.4026  0.2980
15030SOL    HW249133   0.702   4.117   8.808  0.3237 -0.3717  0.3729
15031SOL     OW49134   7.817   7.732   4.908  0.2463  0.1718  0.0111
15031SOL    HW149135   7.825   7.820   4.870  0.0440  0.3406  0.3559
15031SOL    HW249136   7.839   7.673   4.836 -1.5146  0.4316 -0.7758
15032SOL     OW49137   7.863   0.765   2.886  0.0714 -0.5993 -0.2521
15032SOL    HW149138   7.941   0.735   2.839  0.5120 -1.2913  0.8643
15032SOL    HW249139   7.898   0.801   2.969 -0.8208 -1.3683  0.4751
15033SOL     OW49140   5.136   0.425   5.108 -0.2006 -0.2700  0.4336
15033SOL    HW149141   5.211   0.390   5.157  0.0917 -0.7727 -0.3375
15033SOL    HW249142   5.069   0.357   5.115  0.2461 -0.8753 -0.7812
15034SOL     OW49143   3.129   0.815   8.286 -0.3788  0.0483  0.0008
15034SOL    HW149144   3.158   0.906   8.277 -1.8034  0.3971 -1.8923
15034SOL    HW249145   3.164   0.772   8.208 -0.8993 -0.6543  0.1486
15035SOL     OW49146   6.752  10.065   4.514 -0.2219  0.3875 -0.1794
15035SOL    HW149147   6.674  10.066   4.568 -0.4154  1.5080 -0.4525
15035SOL    HW249148   6.798  10.146   4.535  1.1150 -0.4546  0.3085
15036SOL     OW49149   4.158   8.961   8.368 -0.4077  0.2191  0.1498
15036SOL    HW149150   4.225   8.965   8.299 -0.9690  0.7087 -0.3833
15036SOL    HW249151   4.150   8.868   8.388  0.0066  0.1029 -0.2142
15037SOL     OW49152  10.227   2.380   3.914  0.1894 -0.3451  0.2870
15037SOL    HW149153  10.266   2.440   3.978  0.2030 -0.1110  0.0614
15037SOL    HW249154  10.162   2.433   3.869  0.4452 -0.4054 -0.1561
15038SOL     OW49155   9.289   6.386   4.811 -0.6316  0.3599  0.4216
15038SOL    HW149156   9.281   6.464   4.756  1.4743  1.2300  1.2620
15038SOL    HW249157   9.313   6.316   4.750 -2.7346  0.2563 -0.3665
15039SOL     OW49158   4.070   7.368   5.121 -0.5012  0.4213  0.0236
15039SOL    HW149159   4.048   7.283   5.158 -1.3544  0.5571 -0.1291
15039SOL    HW249160   4.165   7.370   5.117 -0.4872 -0.8261 -0.6581
15040SOL     OW49161   1.930   0.735   5.846  0.0550 -0.2709  0.2039
15040SOL    HW149162   1.844   0.698   5.828 -0.6186 -0.2208  2.8911
15040SOL    HW249163   1.918   0.830   5.833 -0.3877 -0.2365  0.8054
15041SOL     OW49164   5.325   2.509   9.893  0.3092 -0.3990 -0.1421
15041SOL    HW149165   5.350   2.601   9.905  0.1283 -0.4304  0.4958
15041SOL    HW249166   5.333   2.471   9.980  0.3207 -0.9753 -0.3951
15042SOL     OW49167   4.990   7.078   7.338 -0.0438 -0.0169 -0.4317
15042SOL    HW149168   4.984   6.983   7.332  0.9211 -0.1816  0.8223
15042SOL    HW249169   4.932   7.102   7.410 -1.9272  0.6123 -2.0538
15043SOL     OW49170   4.031   1.956   8.218  0.3651 -0.1328 -0.2477
15043SOL    HW149171   3.948   1.950   8.265 -0.1128 -1.0160 -1.1598
15043SOL    HW249172   4.045   2.049   8.203 -0.5050  0.0155 -0.1469
15044SOL     OW49173   4.736   6.690   8.399 -0.1113  0.4848  0.1327
15044SOL    HW149174   4.737   6.620   8.464  1.1576 -0.1600 -0.5350
15044SOL    HW249175   4.823   6.687   8.359 -0.5745  1.3975 -1.0258
15045SOL     OW49176  10.170   8.397   9.574 -0.4867 -0.7005  0.1674
15045SOL    HW149177  10.101   8.426   9.633 -0.9739 -2.1735  0.3792
15045SOL    HW249178  10.251   8.426   9.615 -0.8918 -0.4585  0.8129
15046SOL     OW49179   7.248   1.205   5.215 -0.3036 -0.5419  0.5538
15046SOL    HW149180   7.164   1.246   5.234 -1.5311 -1.9817 -1.4384
15046SOL    HW249181   7.297   1.271   5.166 -0.1047  0.4131  1.9863
15047SOL     OW49182   7.511   6.446   0.272  0.1475  0.0154  0.6145
15047SOL    HW149183   7.582   6.473   0.331 -0.4692  1.3057  0.7967
15047SOL    HW249184   7.543   6.364   0.233  2.1687  1.0413 -0.0270
15048SOL     OW49185   9.025   9.074   1.182 -0.2263  0.3343  0.0990
15048SOL    HW149186   9.006   8.992   1.229  1.5587  0.3819  1.0062
15048SOL    HW249187   9.119   9.085   1.191 -0.3105  2.0837 -0.7302
15049SOL     OW49188   4.462   5.925   1.991 -0.4358  0.0111  0.4839
15049SOL    HW149189   4.384   5.975   1.970  1.0156  2.7800  1.2203
15049SOL    HW249190   4.532   5.965   1.940  0.9105 -0.9579  1.4665
15050SOL     OW49191   0.071   8.053   0.930  0.0755  0.4803 -0.3682
15050SOL    HW149192  -0.008   8.072   0.879 -1.0728  3.2782  2.1316
15050SOL    HW249193   0.138   8.111   0.891  0.2527 -0.1040 -0.9548
15051SOL     OW49194   1.524   7.159   5.423 -0.8396  0.3745 -0.2071
15051SOL    HW149195   1.434   7.130   5.409 -0.5954 -0.2001 -0.6593
15051SOL    HW249196   1.535   7.159   5.518 -0.7390 -1.4576 -0.1782
15052SOL     OW49197   7.286   4.919   3.031 -0.1656  0.6717  0.1091
15052SOL    HW149198   7.221   4.949   2.967 -1.9074  0.2274  1.6249
15052SOL    HW249199   7.353   4.989   3.031 -1.5132  2.0129 -0.2161
15053SOL     OW49200   2.114   0.748   0.907 -0.1483 -0.2302 -0.3395
15053SOL    HW149201   2.100   0.780   0.997 -1.7026 -0.9560 -0.2897
15053SOL    HW249202   2.099   0.825   0.852  1.6174  0.4232  0.0249
15054SOL     OW49203   8.529   5.090   0.601 -0.4856  0.4070 -0.3018
15054SOL    HW149204   8.446   5.138   0.598 -0.5928  0.2011 -0.6687
15054SOL    HW249205   8.548   5.082   0.694 -1.8237 -1.1600 -0.1105
15055SOL     OW49206   8.343   2.860   4.992 -0.0788 -0.2718 -0.2321
15055SOL    HW149207   8.409   2.927   4.974  1.3010 -1.7029 -0.7873
15055SOL    HW249208   8.377   2.814   5.069 -2.1355  0.9955  1.5634
15056SOL     OW49209   4.467   1.481  10.146  0.2910 -0.1948  0.2767
15056SOL    HW149210   4.473   1.444  10.057 -0.7001  0.4352 -0.0723
15056SOL    HW249211   4.557   1.502  10.169  0.5723 -0.4067 -0.5675
15057SOL     OW49212   5.515   1.230   2.587  0.3212 -0.6963  0.1450
15057SOL    HW149213   5.610   1.240   2.590  0.3100 -0.6105  0.1986
15057SOL    HW249214   5.481   1.318   2.596  0.2417 -0.6912 -0.1727
15058SOL     OW49215   6.344  10.069   8.487  0.4020  0.0657  0.1582
15058SOL    HW149216   6.331  10.034   8.399 -0.0475  1.0284 -0.1776
15058SOL    HW249217   6.261  10.111   8.509  0.4547 -0.3121  1.1150
15059SOL     OW49218   6.191   1.726   9.821 -0.0556  0.5367  0.6577
15059SOL    HW149219   6.112   1.776   9.839  0.4646  2.3736 -1.7024
15059SOL    HW249220   6.250   1.788   9.778  1.5824 -1.4823 -0.1940
15060SOL     OW49221   2.394   0.277   8.306 -0.1427  0.0157  0.4242
15060SOL    HW149222   2.462   0.238   8.361  0.3436  2.1176  1.4350
15060SOL    HW249223   2.331   0.314   8.368 -0.3601  1.1525 -0.4308
15061SOL     OW49224   2.344   7.663   2.081  0.0341 -0.6227 -0.5306
15061SOL    HW149225   2.330   7.568   2.082 -0.4705 -0.5600  0.7930
15061SOL    HW249226   2.318   7.690   1.993  0.1713 -1.7068 -0.9247
15062SOL     OW49227   9.799   3.890   8.459  0.0472 -0.9382 -0.4140
15062SOL    HW149228   9.887   3.906   8.493 -0.6724  0.2435  0.9895
15062SOL    HW249229   9.749   3.860   8.535 -1.3953  0.9321 -0.5618
15063SOL     OW49230   5.111   9.404  10.141  0.2375 -0.1336  0.5674
15063SOL    HW149231   5.016   9.398  10.146  0.0604  1.9173  0.5664
15063SOL    HW249232   5.140   9.404  10.232  0.4918 -2.9363  0.5817
15064SOL     OW49233   2.425   1.655   5.004 -0.2267 -0.6377 -0.0962
15064SOL    HW149234   2.508   1.617   5.031 -0.6230 -1.3896  0.1038
15064SOL    HW249235   2.437   1.677   4.912  1.0092  1.5871  0.5158
15065SOL     OW49236   6.996   9.737   8.182 -0.1028  0.2038  1.1459
15065SOL    HW149237   6.972   9.821   8.143 -0.1681 -0.0626  0.5835
15065SOL    HW249238   6.921   9.713   8.236 -0.0606  0.5304  1.3486
15066SOL     OW49239   9.778   4.483   0.074 -0.1262 -0.0546  0.1436
15066SOL    HW149240   9.775   4.542   0.149 -0.1210  0.5711 -0.3370
15066SOL    HW249241   9.725   4.526   0.007  1.1545  0.1920 -0.7523
15067SOL     OW49242   7.437  10.282   6.374  0.3019  0.2377 -0.0633
15067SOL    HW149243   7.521  10.246   6.346  0.7865  0.9042  0.4904
15067SOL    HW249244   7.426  10.248   6.463  0.9213  1.6720  0.5882
15068SOL     OW49245   6.717   0.585   7.661  0.7921  0.3617 -0.3982
15068SOL    HW149246   6.655   0.522   7.697  1.2592 -0.3607 -0.8403
15068SOL    HW249247   6.774   0.533   7.605  1.2392  1.1666 -0.7017
15069SOL     OW49248   0.310   6.496   5.603 -0.1421 -0.3918  0.0710
15069SOL    HW149249   0.343   6.539   5.682  0.3454  0.1946 -0.4405
15069SOL    HW249250   0.217   6.479   5.623 -0.1356  0.1376  0.6032
15070SOL     OW49251   8.036   9.416  10.264  0.2420 -0.3912 -0.0349
15070SOL    HW149252   8.019   9.322  10.256 -0.1283 -0.1993 -2.2158
15070SOL    HW249253   8.085   9.438  10.184 -1.2894  1.5734 -0.5199
15071SOL     OW49254   7.291   5.548   2.272 -0.0476  0.1415 -0.3297
15071SOL    HW149255   7.323   5.525   2.185  0.6246  0.5375 -0.1872
15071SOL    HW249256   7.366   5.536   2.330 -0.0434  1.4196 -0.0424
15072SOL     OW49257   4.411   2.428   0.234  0.3210 -0.5640  0.1833
15072SOL    HW149258   4.498   2.466   0.243 -0.1365  0.1367  2.0903
15072SOL    HW249259   4.422   2.337   0.262  0.2609 -0.1650  1.6202
15073SOL     OW49260   7.288   9.608   3.277 -0.3665  0.3824  0.4745
15073SOL    HW149261   7.212   9.582   3.225  0.1551 -0.4300  0.1096
15073SOL    HW249262   7.363   9.591   3.220  0.0950  1.1837  0.8303
15074SOL     OW49263   4.904   4.227   3.690  0.1256 -0.3485  0.7460
15074SOL    HW149264   4.903   4.276   3.609  0.1951 -1.1447  0.2546
15074SOL    HW249265   4.901   4.135   3.663  2.6534 -0.7389  1.5272
15075SOL     OW49266   6.928   0.271   0.505  0.7688 -0.2371  0.3306
15075SOL    HW149267   6.969   0.220   0.575 -2.2410 -1.1327  1.5932
15075SOL    HW249268   6.885   0.343   0.550  2.2679  1.6661 -1.1331
15076SOL     OW49269   1.585   1.082   0.833 -0.4032  0.3177  0.2003
15076SOL    HW149270   1.540   1.134   0.900  1.4378  0.8890  1.0857
15076SOL    HW249271   1.616   1.147   0.770 -0.0365  0.0582  0.1104
15077SOL     OW49272   9.579   7.612   4.214 -0.1639  0.6038  0.4533
15077SOL    HW149273   9.498   7.564   4.229 -0.3242  0.8539  0.3991
15077SOL    HW249274   9.553   7.704   4.220 -0.0606  0.6992 -0.5029
15078SOL     OW49275   8.933   6.743   9.939  0.1138 -0.1475 -0.1646
15078SOL    HW149276   8.849   6.742   9.893 -0.8574  1.6194  1.3995
15078SOL    HW249277   8.911   6.714  10.028  1.1384  0.3854  0.2784
15079SOL     OW49278   1.893   0.554   4.627 -0.0935  0.5522 -0.1333
15079SOL    HW149279   1.924   0.463   4.624 -0.7570  0.3429 -1.1555
15079SOL    HW249280   1.974   0.606   4.630  0.3173 -0.0477 -0.4616
15080SOL     OW49281   6.278   6.207  10.196 -0.4485 -0.7427 -0.0484
15080SOL    HW149282   6.258   6.241  10.109  0.2177  0.3951  0.2249
15080SOL    HW249283   6.192   6.184  10.233 -0.9959  1.0566 -0.0952
15081SOL     OW49284   1.108   1.410   5.871 -0.2063 -0.2041 -0.1555
15081SOL    HW149285   1.029   1.401   5.925 -1.0213 -2.1084 -1.5344
15081SOL    HW249286   1.173   1.355   5.915 -0.3332 -0.3698 -0.1724
15082SOL     OW49287   1.427  10.125   1.824  0.0478  0.4834 -0.0473
15082SOL    HW149288   1.448  10.214   1.852  0.4805  0.3974 -0.0769
15082SOL    HW249289   1.374  10.089   1.894  1.2203  0.2275  0.7428
15083SOL     OW49290   1.161   2.755   4.791  0.2465  0.1706 -0.0794
15083SOL    HW149291   1.160   2.701   4.713  3.3315 -1.0001  0.5395
15083SOL    HW249292   1.200   2.838   4.762 -0.4713  0.4970 -0.1439
15084SOL     OW49293   9.643   2.265   6.376 -0.7521 -0.2975  0.1318
15084SOL    HW149294   9.616   2.298   6.291 -1.8661  0.8337  0.8704
15084SOL    HW249295   9.737   2.282   6.380 -0.8370  0.3804 -0.5669
15085SOL     OW49296   2.872   9.043   9.913  0.0043 -0.2881  0.7949
15085SOL    HW149297   2.919   9.062   9.994  0.1596  0.5730  0.5203
15085SOL    HW249298   2.813   9.118   9.902  1.4667  0.7022 -0.9490
15086SOL     OW49299   1.042   5.621   5.875  0.4899 -0.0211  0.6133
15086SOL    HW149300   0.950   5.639   5.897  0.4563 -0.7385  1.0775
15086SOL    HW249301   1.059   5.676   5.798  0.1257  1.2803  1.4226
15087SOL     OW49302   7.111   3.317   8.702 -0.5066 -0.0409 -0.2600
15087SOL    HW149303   7.191   3.268   8.685 -0.0296  0.9009 -0.7737
15087SOL    HW249304   7.060   3.260   8.759  0.5151 -0.6570  0.0563
15088SOL     OW49305   7.408   6.592   9.992  0.2862  0.9855 -0.1676
15088SOL    HW149306   7.424   6.673   9.946  2.6177  0.3757 -0.5408
15088SOL    HW249307   7.476   6.532   9.962 -1.7133 -1.3617 -0.4018
15089SOL     OW49308   4.591   0.667   6.270 -0.2197 -0.4053  0.2329
15089SOL    HW149309   4.625   0.718   6.197  1.3508 -0.6447  0.7593
15089SOL    HW249310   4.571   0.733   6.337  0.3802 -0.3439  0.3597
15090SOL     OW49311   1.979   2.388   1.901 -0.0453 -0.6741  0.3138
15090SOL    HW149312   2.017   2.308   1.938  2.7870 -0.6904 -2.2196
15090SOL    HW249313   1.914   2.357   1.838  0.5123 -0.9814 -0.1187
15091SOL     OW49314   3.648   7.647   6.608  0.6889  0.3960  0.0495
15091SOL    HW149315   3.727   7.654   6.554  1.7355  0.2332  1.5070
15091SOL    HW249316   3.647   7.555   6.636 -0.7131  0.0758 -0.9217
15092SOL     OW49317   6.555   0.425   1.363  0.0519 -0.2816  0.2422
15092SOL    HW149318   6.640   0.441   1.404  0.2531 -2.1074  0.6127
15092SOL    HW249319   6.572   0.431   1.269  0.7366 -1.1586  0.2930
15093SOL     OW49320   9.546   2.499   9.710 -0.1529  0.5810  0.4318
15093SOL    HW149321   9.493   2.571   9.743  0.0574  1.0069 -0.1373
15093SOL    HW249322   9.632   2.512   9.751  0.1974  1.2866 -0.4917
15094SOL     OW49323   9.635   6.841   7.833  0.5907  0.3377 -0.3855
15094SOL    HW149324   9.655   6.752   7.862  3.2091  1.2084  0.7771
15094SOL    HW249325   9.564   6.870   7.890 -2.3894 -1.8617 -2.6403
15095SOL     OW49326   4.498   6.539   7.557  0.7589  0.1053 -0.5412
15095SOL    HW149327   4.528   6.558   7.646  1.4626  0.5187 -0.8596
15095SOL    HW249328   4.533   6.610   7.504  0.6999 -0.3633 -1.2239
15096SOL     OW49329   1.605   8.564   0.602  0.6688  0.0475  0.2972
15096SOL    HW149330   1.692   8.545   0.568  0.2697  0.1360 -0.8070
15096SOL    HW249331   1.588   8.494   0.666  0.8939 -0.9301 -0.6835
15097SOL     OW49332   5.784   9.160   3.471 -0.0176  0.1410  0.0901
15097SOL    HW149333   5.771   9.073   3.433  0.0123  0.5968 -1.0062
15097SOL    HW249334   5.755   9.221   3.403  0.3622  1.0011  0.6739
15098SOL     OW49335   4.445   6.222   0.839  0.2369  0.2119 -0.0450
15098SOL    HW149336   4.412   6.150   0.786 -0.3471  0.8772 -0.6171
15098SOL    HW249337   4.380   6.291   0.827  0.5935  0.7039  0.7861
15099SOL     OW49338   5.719   9.446   4.193  0.5186  0.1726 -0.2797
15099SOL    HW149339   5.669   9.439   4.112  0.7341  1.3645 -0.5426
15099SOL    HW249340   5.666   9.503   4.249  1.5851  1.5162 -0.5907
15100SOL     OW49341   6.385   3.477   8.994  0.0745  0.0030  0.1925
15100SOL    HW149342   6.372   3.548   8.931  1.9504  0.4151  0.2040
15100SOL    HW249343   6.299   3.463   9.033 -1.5012 -1.2506 -3.4178
15101SOL     OW49344   3.749   2.725   5.989  0.2827  0.1270 -0.0422
15101SOL    HW149345   3.843   2.741   5.980 -0.1158  1.7296 -2.2124
15101SOL    HW249346   3.708   2.793   5.936 -2.1611 -0.1363  1.3547
15102SOL     OW49347   5.255   8.241   2.101 -0.1531 -0.0066  0.0488
15102SOL    HW149348   5.322   8.309   2.103  0.2712 -0.3963 -0.5313
15102SOL    HW249349   5.222   8.241   2.011  1.2114 -1.8406 -0.5226
15103SOL     OW49350   8.942   7.148   3.745 -0.5750  0.4707  0.6574
15103SOL    HW149351   8.924   7.054   3.743 -1.8926  0.7216  0.1590
15103SOL    HW249352   9.033   7.155   3.718 -0.3043 -0.6927  1.1750
15104SOL     OW49353   0.087   8.116   6.558  1.1424 -0.3000 -0.4055
15104SOL    HW149354   0.158   8.174   6.530 -0.0683  1.5455  0.0857
15104SOL    HW249355   0.027   8.114   6.484  0.3643  0.5005  0.1726
15105SOL     OW49356   9.635   4.088   4.823 -0.0111 -0.0750  0.0722
15105SOL    HW149357   9.654   4.095   4.730  1.4772 -0.1962  0.3350
15105SOL    HW249358   9.588   4.168   4.844 -1.3702 -0.5584 -0.9852
15106SOL     OW49359   3.468   3.379   1.206  0.4476 -0.1553  0.7802
15106SOL    HW149360   3.528   3.304   1.206 -0.1824 -0.7621 -1.6596
15106SOL    HW249361   3.479   3.418   1.119 -1.7435  0.4962  0.7347
15107SOL     OW49362   0.941   2.090   2.525  0.0712 -0.4658  0.1721
15107SOL    HW149363   1.033   2.101   2.546  0.3659  0.5945 -1.4952
15107SOL    HW249364   0.940   2.033   2.448 -0.6091  0.1025 -0.2569
15108SOL     OW49365   6.679   9.450   7.324  0.8525  0.5457  0.3600
15108SOL    HW149366   6.677   9.500   7.242  0.4584 -0.3378 -0.1953
15108SOL    HW249367   6.612   9.383   7.312  3.2733 -1.9859 -0.1941
15109SOL     OW49368   4.965   4.320   9.552 -0.4093 -0.2377 -0.3810
15109SOL    HW149369   5.052   4.360   9.560 -1.0463  1.2818 -0.6844
15109SOL    HW249370   4.912   4.388   9.511 -1.4380 -1.6110 -1.4017
15110SOL     OW49371   0.244   8.730   0.514 -0.2567  0.0069 -0.6128
15110SOL    HW149372   0.255   8.790   0.587 -0.8130 -0.7610  0.1162
15110SOL    HW249373   0.333   8.711   0.484  0.1183 -1.0255  0.9987
15111SOL     OW49374   1.110   5.060   7.555 -0.8994 -0.2227  0.0273
15111SOL    HW149375   1.069   5.135   7.599 -0.1669  0.6607 -0.7422
15111SOL    HW249376   1.202   5.066   7.579 -0.7568 -0.6063 -0.4057
15112SOL     OW49377   1.539   3.140   9.471  0.1619  0.2898 -0.1833
15112SOL    HW149378   1.588   3.074   9.422  0.3892  1.5273 -1.6718
15112SOL    HW249379   1.515   3.095   9.553  1.7528 -1.0797 -0.4120
15113SOL     OW49380   2.567   8.884   4.126  0.0850 -0.2612  0.8470
15113SOL    HW149381   2.529   8.835   4.053  0.9218 -0.9467  0.8462
15113SOL    HW249382   2.500   8.948   4.150 -0.4046 -0.3672 -0.1820
15114SOL     OW49383   0.306   3.941   9.347  0.0020  0.4352 -0.1347
15114SOL    HW149384   0.311   3.848   9.369 -0.6593  0.8131  1.7641
15114SOL    HW249385   0.283   3.942   9.254  0.2076 -1.2907 -0.2358
15115SOL     OW49386   9.582  10.051   0.303 -0.1973 -0.1838 -0.1644
15115SOL    HW149387   9.523  10.109   0.351  1.1000  0.2361  1.0193
15115SOL    HW249388   9.611  10.103   0.228 -1.9211 -0.6935 -1.2309
15116SOL     OW49389   0.630   9.474   2.840  0.1661  0.5675  0.1078
15116SOL    HW149390   0.722   9.472   2.813  0.3751 -0.8368  0.8255
15116SOL    HW249391   0.583   9.431   2.768  0.4939 -1.5297  1.0867
15117SOL     OW49392   8.105   5.796   4.971 -0.2836  0.3906  0.2058
15117SOL    HW149393   8.147   5.730   5.026  0.6729  1.0511  0.3043
15117SOL    HW249394   8.067   5.747   4.898  0.2129 -0.2874  0.3984
15118SOL     OW49395   1.791   9.534   3.789  0.0128  0.0354  0.0836
15118SOL    HW149396   1.833   9.476   3.726 -0.7319 -1.5784  1.0061
15118SOL    HW249397   1.838   9.618   3.780  3.4857 -1.6091  1.0796
15119SOL     OW49398   4.039   6.815   0.905 -0.7002 -0.2355 -0.5721
15119SOL    HW149399   3.989   6.831   0.824 -2.0168 -2.1136 -0.2040
15119SOL    HW249400   4.078   6.900   0.926 -0.0904  0.2437 -3.3089
15120SOL     OW49401   0.958   0.933   9.471  0.3622  0.2559 -0.0866
15120SOL    HW149402   0.930   1.025   9.476  1.7709  0.6689  0.9793
15120SOL    HW249403   0.994   0.914   9.558  1.9689 -0.6500 -0.8880
15121SOL     OW49404   9.470   7.495   0.725 -0.2333  0.1744  0.1447
15121SOL    HW149405   9.499   7.586   0.725 -0.0671  0.1354  0.9121
15121SOL    HW249406   9.514   7.456   0.801 -0.3645 -0.5249 -0.1257
15122SOL     OW49407   1.407   0.264   8.530  0.5884 -0.2239  0.0109
15122SOL    HW149408   1.403   0.351   8.568  1.2190 -0.4792  0.6806
15122SOL    HW249409   1.501   0.246   8.519  0.4454 -0.2181 -1.5448
15123SOL     OW49410   6.673   1.573   1.819  0.2561  0.1085  0.0572
15123SOL    HW149411   6.650   1.652   1.868 -0.1959 -0.8190  1.4140
15123SOL    HW249412   6.685   1.603   1.729  0.5032  1.7791  0.6085
15124SOL     OW49413   2.872   4.418   0.273 -0.7068  0.1108  0.1851
15124SOL    HW149414   2.934   4.369   0.326 -1.3496 -0.9133  0.0193
15124SOL    HW249415   2.903   4.509   0.277 -1.5931  0.3850  3.5871
15125SOL     OW49416   8.580   9.631   8.850 -0.1889 -0.0361  0.3128
15125SOL    HW149417   8.645   9.680   8.900 -0.9297  0.1201  1.1640
15125SOL    HW249418   8.528   9.585   8.916  0.6070 -2.1805 -0.4658
15126SOL     OW49419   2.103  10.294   4.792  0.2065  0.1555 -0.3206
15126SOL    HW149420   2.070  10.247   4.869 -0.3177  0.8697 -0.0926
15126SOL    HW249421   2.185  10.250   4.770 -0.4148 -1.0506 -0.3099
15127SOL     OW49422   8.519   0.854   1.331 -0.2207  0.2022 -0.3040
15127SOL    HW149423   8.504   0.905   1.411  1.8497 -0.3780  0.5244
15127SOL    HW249424   8.555   0.918   1.269  1.8102 -0.0328  0.5417
15128SOL     OW49425   5.761   8.227   6.195  0.1247 -0.2994 -0.5994
15128SOL    HW149426   5.833   8.244   6.257 -0.6206 -2.7777  1.0969
15128SOL    HW249427   5.803   8.178   6.124  0.2996 -0.9925 -0.0339
15129SOL     OW49428   3.010   3.651   2.274 -0.0365  0.3026 -0.1678
15129SOL    HW149429   3.060   3.668   2.194  0.6121 -1.0309 -0.0784
15129SOL    HW249430   3.052   3.705   2.341  3.5152 -2.9747  0.6657
15130SOL     OW49431   1.093   3.898   4.282 -0.2091  0.1411 -0.5037
15130SOL    HW149432   1.142   3.973   4.317  1.3884 -1.0182 -0.1697
15130SOL    HW249433   1.011   3.899   4.331 -0.2336  1.6547 -0.5032
15131SOL     OW49434   7.984   7.978   9.982  0.8487 -0.2301  0.1452
15131SOL    HW149435   7.919   7.985   9.913 -0.0933 -0.2465  0.9971
15131SOL    HW249436   8.057   8.031   9.952  1.0139 -1.2949 -1.4447
15132SOL     OW49437   6.996   3.248   9.897 -0.7785 -0.4015 -0.4329
15132SOL    HW149438   7.034   3.262   9.984 -1.9999  0.3271  0.0051
15132SOL    HW249439   7.057   3.189   9.853 -0.1751 -0.8202  0.9362
15133SOL     OW49440   2.247   0.458   1.497  0.2167  0.2797 -0.0845
15133SOL    HW149441   2.338   0.438   1.473  0.9565  2.1154  0.9358
15133SOL    HW249442   2.255   0.527   1.563 -1.9402  0.6098 -0.1070
15134SOL     OW49443   9.301   1.851   6.093  0.0556 -0.1961  0.2953
15134SOL    HW149444   9.229   1.812   6.043 -0.5828  1.5727 -0.2419
15134SOL    HW249445   9.379   1.833   6.040 -0.5040  0.9528 -0.9681
15135SOL     OW49446   1.304   7.997   7.805 -0.1209  0.1233 -0.4816
15135SOL    HW149447   1.285   7.910   7.771  1.5750 -0.3677 -0.2299
15135SOL    HW249448   1.396   8.012   7.783 -0.0696  1.3667  0.5035
15136SOL     OW49449   9.337   6.948   3.028 -0.6257 -0.7034 -0.1142
15136SOL    HW149450   9.357   7.042   3.025  0.5389 -0.9584 -0.9421
15136SOL    HW249451   9.247   6.942   2.995 -1.6235  0.3235  2.2034
15137SOL     OW49452   5.480  10.047  10.237 -0.8838 -0.5289 -0.1392
15137SOL    HW149453   5.425  10.064  10.161 -2.6758 -0.6346  1.0782
15137SOL    HW249454   5.419  10.020  10.306  0.4509  1.2602  1.8689
15138SOL     OW49455   6.649   5.739   0.671  0.2731 -0.4909 -0.1166
15138SOL    HW149456   6.714   5.672   0.650  0.5802 -0.3422  0.3384
15138SOL    HW249457   6.591   5.742   0.595  1.0714 -0.2982 -0.7312
15139SOL     OW49458   4.577   3.050  10.265  0.2018  0.6061 -0.2503
15139SOL    HW149459   4.596   2.996  10.341 -0.1659  0.9330  0.0817
15139SOL    HW249460   4.493   3.018  10.234  0.4433  0.3462 -0.6357
15140SOL     OW49461   7.744   1.995   9.261  0.4206  0.2853 -0.7824
15140SOL    HW149462   7.814   2.057   9.282  1.9404 -1.4756 -0.3667
15140SOL    HW249463   7.679   2.047   9.214  1.4237  2.2563 -0.0887
15141SOL     OW49464   8.777   8.907   5.692 -0.0431 -0.3739 -0.0976
15141SOL    HW149465   8.703   8.964   5.669 -0.6447 -0.5978  1.1943
15141SOL    HW249466   8.831   8.960   5.751  0.4509 -0.4692 -0.4588
15142SOL     OW49467   9.916   6.876   0.625  0.1061  0.0962 -0.2561
15142SOL    HW149468   9.881   6.889   0.713  0.3176 -1.6905  0.1155
15142SOL    HW249469   9.861   6.808   0.587  1.3315 -0.6584 -0.7177
15143SOL     OW49470   8.656   7.735   6.539  0.0700  0.3699  0.3455
15143SOL    HW149471   8.752   7.734   6.538  0.2545 -0.2609  4.2594
15143SOL    HW249472   8.632   7.642   6.542 -0.5909  0.5583  0.9295
15144SOL     OW49473   5.828   0.278   9.644 -0.0164  0.2661  0.1765
15144SOL    HW149474   5.776   0.358   9.635 -1.8334 -1.0453 -2.8260
15144SOL    HW249475   5.765   0.213   9.676  0.0926 -0.9854 -1.9781
15145SOL     OW49476   6.845   5.402   2.710  0.0033  0.3315 -0.1092
15145SOL    HW149477   6.830   5.459   2.634 -0.0360 -1.0781 -1.2102
15145SOL    HW249478   6.770   5.344   2.711 -0.2905  0.6940  1.4029
15146SOL     OW49479   7.255   8.816   2.508  0.0983 -0.2452  0.3799
15146SOL    HW149480   7.334   8.768   2.484  0.8110  0.4505  1.3162
15146SOL    HW249481   7.230   8.781   2.593 -1.3091 -1.2952 -0.4023
15147SOL     OW49482   7.532   7.358   8.629 -0.2057  0.0873 -0.0946
15147SOL    HW149483   7.466   7.361   8.560  0.4358  1.2025 -0.6832
15147SOL    HW249484   7.542   7.264   8.649 -2.1924 -0.0756  0.2572
15148SOL     OW49485   6.479  10.245   5.830  0.1104  0.2813 -0.5103
15148SOL    HW149486   6.398  10.295   5.822 -0.1081 -0.2401 -1.6330
15148SOL    HW249487   6.451  10.158   5.857  0.3691  0.3259 -0.0861
15149SOL     OW49488   4.166   9.840   8.831  0.4252  0.3488 -0.4558
15149SOL    HW149489   4.143   9.802   8.916  1.5421  1.1270  0.2314
15149SOL    HW249490   4.225   9.912   8.852 -0.1303  1.2616 -1.8412
15150SOL     OW49491   5.198   7.862   7.268  0.2627  0.7756  0.8320
15150SOL    HW149492   5.245   7.881   7.349  1.5408 -0.8212  0.5221
15150SOL    HW249493   5.222   7.934   7.209  0.8268  0.9557  1.2711
15151SOL     OW49494   2.303   4.205   7.165  0.2176 -0.1692 -0.3654
15151SOL    HW149495   2.336   4.117   7.144  0.0436  0.1300 -2.0440
15151SOL    HW249496   2.294   4.205   7.260 -0.6046 -2.2661 -0.3829
15152SOL     OW49497   2.320   7.410   1.192  0.3299 -0.1291  0.3043
15152SOL    HW149498   2.346   7.361   1.270  2.1870  1.8539  1.0491
15152SOL    HW249499   2.243   7.460   1.220 -0.0025 -0.6545  0.3418
15153SOL     OW49500   3.949   7.962   2.607  0.1113 -0.1981 -0.4360
15153SOL    HW149501   3.925   7.948   2.698  1.1352 -1.2358 -0.2924
15153SOL    HW249502   4.022   8.023   2.610 -2.5357  3.2522 -0.8929
15154SOL     OW49503   0.426   8.115   2.740  0.4273  0.0093 -0.2018
15154SOL    HW149504   0.462   8.166   2.668 -0.2624 -1.5764 -1.7459
15154SOL    HW249505   0.376   8.178   2.792  0.2981  1.0454 -1.5362
15155SOL     OW49506   4.049   7.843   1.718 -0.1946  0.0563 -0.0191
15155SOL    HW149507   4.069   7.774   1.654 -0.6764  0.4694 -0.6295
15155SOL    HW249508   3.956   7.860   1.706 -0.5309 -0.5759  1.5208
15156SOL     OW49509   1.076  10.234   1.787  0.8183 -0.3369 -0.6881
15156SOL    HW149510   0.996  10.280   1.761  0.6829  0.6071  1.1717
15156SOL    HW249511   1.136  10.246   1.714 -0.3043  0.0581 -1.5730
15157SOL     OW49512   1.862   3.003  10.279  0.1709 -0.3373  0.2923
15157SOL    HW149513   1.850   3.047  10.363  1.8031  0.2500  0.2433
15157SOL    HW249514   1.826   2.915  10.293 -2.2077  0.6170  0.7044
15158SOL     OW49515   4.302   1.250   4.644 -0.1514 -0.1613 -0.5549
15158SOL    HW149516   4.232   1.229   4.706 -0.1927 -0.2899 -0.6466
15158SOL    HW249517   4.303   1.177   4.583  1.1968 -1.0039  0.4389
15159SOL     OW49518   1.028   0.221   6.855  0.4272 -0.2035  0.3529
15159SOL    HW149519   1.031   0.177   6.939 -2.5818  2.2098  1.9065
15159SOL    HW249520   0.949   0.274   6.857  2.0906  2.8413 -2.5404
15160SOL     OW49521   5.114   3.624   6.549 -0.4744 -0.4499  0.1814
15160SOL    HW149522   5.132   3.589   6.636  0.0784  0.2360  0.3437
15160SOL    HW249523   5.120   3.719   6.559  1.4753 -0.4031 -1.0060
15161SOL     OW49524   8.879   9.545   8.340 -0.2608 -0.0266  0.3295
15161SOL    HW149525   8.881   9.614   8.274  2.0974 -1.1655 -0.9421
15161SOL    HW249526   8.863   9.590   8.423 -3.5267  1.4441 -0.9213
15162SOL     OW49527   8.967   3.582   8.037 -0.0294  0.1351 -0.3041
15162SOL    HW149528   9.040   3.604   7.978 -1.2339  2.3846 -1.1151
15162SOL    HW249529   9.004   3.587   8.125  0.9124  0.8231 -0.7209
15163SOL     OW49530   7.960   0.495   4.222  0.5159 -0.1521  0.0432
15163SOL    HW149531   7.927   0.489   4.312 -0.3121  1.4005 -0.1171
15163SOL    HW249532   7.970   0.589   4.207  1.8454 -0.4416 -1.0810
15164SOL     OW49533   1.993  10.174   0.490 -0.4525 -0.1424  0.2726
15164SOL    HW149534   1.958  10.222   0.565 -0.5795  0.8869 -0.4248
15164SOL    HW249535   2.081  10.209   0.478 -0.4398 -0.2943 -0.0657
15165SOL     OW49536   3.684   2.774   1.439 -0.4512  0.2683 -0.6172
15165SOL    HW149537   3.650   2.715   1.507 -1.0194 -0.3653 -1.4316
15165SOL    HW249538   3.764   2.810   1.477  0.1683 -1.3878 -0.2581
15166SOL     OW49539   7.754   7.754   6.617 -0.1551 -0.0409 -0.1657
15166SOL    HW149540   7.775   7.797   6.700 -1.5053 -0.6850  0.5500
15166SOL    HW249541   7.658   7.760   6.611 -0.1870 -1.1359 -1.0468
15167SOL     OW49542   5.996   7.751   5.544 -0.3041  0.3876 -0.6678
15167SOL    HW149543   5.997   7.657   5.526  0.6676  0.1529  0.4627
15167SOL    HW249544   6.053   7.761   5.621 -1.2350  1.7676 -0.1211
15168SOL     OW49545   9.019   4.338   3.118 -0.2461  0.3155 -0.2004
15168SOL    HW149546   9.034   4.363   3.209 -0.7016  1.5962 -0.4620
15168SOL    HW249547   8.985   4.417   3.076  0.0625 -0.2161 -1.5131
15169SOL     OW49548   1.584   9.506   2.447  0.1306 -0.2102  0.4081
15169SOL    HW149549   1.610   9.508   2.539  2.1239  0.7747 -0.1417
15169SOL    HW249550   1.593   9.596   2.417 -1.6001 -0.2972 -0.4974
15170SOL     OW49551   6.508  10.227   5.439  0.8035  0.0366  0.5390
15170SOL    HW149552   6.426  10.214   5.487 -0.1009 -2.7115 -1.4710
15170SOL    HW249553   6.572  10.174   5.485 -0.0375 -2.5052 -0.9997
15171SOL     OW49554   8.463   4.079   4.971 -0.6324  0.5822 -0.3149
15171SOL    HW149555   8.420   3.999   5.000  0.9644 -0.2083 -0.0412
15171SOL    HW249556   8.515   4.052   4.896 -0.5472  1.4967 -0.5919
15172SOL     OW49557   5.831   1.117   9.825  0.8878  0.3370  0.0464
15172SOL    HW149558   5.903   1.180   9.819  0.5638  0.8723  1.4200
15172SOL    HW249559   5.769   1.145   9.758  0.7493  1.5056  0.6318
15173SOL     OW49560   1.482   9.416   9.411 -0.2788 -0.8553 -0.4217
15173SOL    HW149561   1.486   9.372   9.326  0.7115 -1.4683 -0.0798
15173SOL    HW249562   1.420   9.488   9.399 -0.9446 -1.5734 -1.3603
15174SOL     OW49563   5.547   0.132   6.205  0.2916  0.4171 -0.7945
15174SOL    HW149564   5.490   0.074   6.154  1.6526 -0.3231 -1.5076
15174SOL    HW249565   5.612   0.163   6.143  0.8504  1.0116  0.0695
15175SOL     OW49566   8.880   8.498   1.566 -0.4178 -0.6484 -0.2046
15175SOL    HW149567   8.786   8.515   1.556 -0.3966 -0.7816 -0.6439
15175SOL    HW249568   8.923   8.578   1.538 -0.4476  0.2905  2.1539
15176SOL     OW49569   6.596   7.273   3.596 -0.4176  0.0275  0.0640
15176SOL    HW149570   6.601   7.188   3.552 -1.4052 -0.4980  0.9178
15176SOL    HW249571   6.504   7.283   3.620 -0.0507  0.5979  1.3674
15177SOL     OW49572   3.021   9.864   5.910 -0.4047 -0.1792  0.0416
15177SOL    HW149573   2.941   9.819   5.882 -0.5954  0.4350 -0.4067
15177SOL    HW249574   3.023   9.851   6.005 -1.7948  1.0058  0.2620
15178SOL     OW49575   8.001   1.602   6.475  0.2391 -0.5133 -0.1074
15178SOL    HW149576   8.016   1.595   6.381  1.0709 -1.0558  0.0514
15178SOL    HW249577   8.088   1.614   6.512 -0.0931 -0.1901  0.5854
15179SOL     OW49578   8.906   6.999   9.500  0.2011 -0.4827 -0.1112
15179SOL    HW149579   8.855   6.938   9.447  1.2085  0.0538 -1.7548
15179SOL    HW249580   8.989   7.009   9.453  1.0296  0.2426  1.4235
15180SOL     OW49581   5.209   7.617   0.172  0.4011  0.2604 -0.6835
15180SOL    HW149582   5.159   7.539   0.147 -0.9580  0.1828  1.9449
15180SOL    HW249583   5.216   7.668   0.091 -1.5012 -1.0587 -1.7658
15181SOL     OW49584   5.204  10.110   6.226  0.1973  0.9014  0.0636
15181SOL    HW149585   5.205  10.179   6.159 -0.9974 -0.6096 -1.6081
15181SOL    HW249586   5.124  10.126   6.276  0.1090  0.9421 -0.0901
15182SOL     OW49587   0.891   5.556   2.228  0.2352 -0.9473 -0.4156
15182SOL    HW149588   0.890   5.620   2.299  0.0224 -0.8018 -0.5475
15182SOL    HW249589   0.881   5.609   2.148 -1.3720 -1.2591 -0.4433
15183SOL     OW49590   8.820   9.631   1.983  0.0959 -0.4282  0.2023
15183SOL    HW149591   8.726   9.645   1.993 -0.3110 -2.6632 -0.0449
15183SOL    HW249592   8.840   9.558   2.041  1.5018 -0.6076 -0.4641
15184SOL     OW49593   1.050   8.897   5.000 -0.2098  0.1269 -0.0393
15184SOL    HW149594   0.970   8.939   4.970 -1.0432 -0.0440  1.8731
15184SOL    HW249595   1.037   8.881   5.093  1.6764 -0.7611  0.1304
15185SOL     OW49596   9.941   8.745  10.285  0.1121  0.4964 -0.1432
15185SOL    HW149597   9.860   8.699  10.264 -0.5833  1.4272  0.4226
15185SOL    HW249598   9.926   8.835  10.257  1.1300  0.5810 -0.4531
15186SOL     OW49599  10.249   7.075   0.275 -0.4446  0.2816 -0.9028
15186SOL    HW149600  10.327   7.121   0.306 -0.4025  0.2206 -0.9167
15186SOL    HW249601  10.202   7.051   0.354 -0.7809  0.8846 -0.9121
15187SOL     OW49602   1.448   8.741   0.718 -0.2299  0.0010 -0.0925
15187SOL    HW149603   1.503   8.674   0.678  2.1925  1.1801  1.0305
15187SOL    HW249604   1.441   8.714   0.810 -0.3030  0.6274  0.0881
15188SOL     OW49605  10.168   6.194   7.933 -0.0908 -0.1662 -0.2718
15188SOL    HW149606  10.190   6.102   7.947 -1.4266 -0.5402 -0.4767
15188SOL    HW249607  10.238   6.227   7.875 -0.4774 -1.5010 -1.5621
15189SOL     OW49608   3.435   1.731   7.770  0.8521 -0.6104 -0.8776
15189SOL    HW149609   3.496   1.776   7.828  0.6699 -1.8211  0.2998
15189SOL    HW249610   3.435   1.783   7.689  2.7191 -0.0858 -0.5680
15190SOL     OW49611   7.212   0.550   9.318  0.3225  0.0535 -0.4484
15190SOL    HW149612   7.224   0.484   9.386  1.6654  0.8258  0.1089
15190SOL    HW249613   7.288   0.607   9.326 -0.6648  1.5328 -1.0674
15191SOL     OW49614   1.636   9.188   7.881  0.0554  0.4691 -0.2974
15191SOL    HW149615   1.668   9.101   7.904  1.2569  0.9641  0.0057
15191SOL    HW249616   1.644   9.191   7.785 -0.1492  0.1964 -0.3254
15192SOL     OW49617   9.013   4.167   5.647 -0.1081  0.3355 -0.0634
15192SOL    HW149618   8.964   4.130   5.721  0.1566  1.9934  0.9791
15192SOL    HW249619   8.952   4.229   5.607  0.8563  1.9502  0.8673
15193SOL     OW49620   3.770   0.596   2.498 -0.0442  0.3415 -0.0227
15193SOL    HW149621   3.817   0.513   2.500 -0.9607 -0.3339 -2.6212
15193SOL    HW249622   3.685   0.577   2.537  0.6873  0.8303  1.9446
15194SOL     OW49623   0.142   1.143   9.160  0.2687 -0.3528  0.1128
15194SOL    HW149624   0.212   1.101   9.110  1.2378 -1.0424  1.9769
15194SOL    HW249625   0.102   1.072   9.210  0.0335  0.4644  1.1143
15195SOL     OW49626   6.579   8.797   9.566  0.2780 -0.6619 -0.4018
15195SOL    HW149627   6.549   8.720   9.517  1.5901 -0.9639 -0.7827
15195SOL    HW249628   6.670   8.777   9.587  0.9362  1.1935 -1.3223
15196SOL     OW49629   8.194   2.678   9.417  0.0739  0.0325 -0.2935
15196SOL    HW149630   8.233   2.751   9.467  0.1973  0.5230 -1.0894
15196SOL    HW249631   8.235   2.684   9.331  1.2626 -1.9601  0.0863
15197SOL     OW49632   9.409  10.051   3.269  0.5005  0.4971  0.4125
15197SOL    HW149633   9.472  10.085   3.205 -0.4019  0.8667 -0.2973
15197SOL    HW249634   9.401   9.958   3.248  0.6989  0.4740  0.4288
15198SOL     OW49635   1.215   1.362   1.198 -0.0044 -0.3149  0.0462
15198SOL    HW149636   1.158   1.288   1.218  0.9152 -0.7489  1.2091
15198SOL    HW249637   1.156   1.430   1.166 -1.0302 -1.0838  0.2401
15199SOL     OW49638   0.080   2.305   9.613 -1.1876 -0.3909  0.3350
15199SOL    HW149639   0.001   2.359   9.622 -0.0757  1.2806  0.5161
15199SOL    HW249640   0.122   2.309   9.699 -0.3546 -0.3576 -0.0622
15200SOL     OW49641   7.504   2.829   5.537 -0.4098  0.4072  0.2530
15200SOL    HW149642   7.576   2.852   5.479 -0.4141 -1.1522 -0.4177
15200SOL    HW249643   7.428   2.823   5.479 -1.6250  4.0033  1.2029
15201SOL     OW49644   1.584   5.983   3.061  0.3293 -0.4248 -0.4337
15201SOL    HW149645   1.632   5.977   2.978  1.3077 -0.1651  0.1064
15201SOL    HW249646   1.584   6.076   3.082 -0.0004 -0.4806 -0.1757
15202SOL     OW49647   7.127   8.879   2.267 -0.2228  0.0305 -0.0634
15202SOL    HW149648   7.160   8.878   2.357  0.2297 -2.8588 -0.1878
15202SOL    HW249649   7.163   8.960   2.230  0.6482  0.6325  1.9510
15203SOL     OW49650   7.143   5.387   5.753 -0.2775 -0.3665 -0.7013
15203SOL    HW149651   7.149   5.311   5.811  0.7246  0.7878  0.7892
15203SOL    HW249652   7.232   5.402   5.723 -0.2590  0.8039 -0.1450
15204SOL     OW49653   1.684   2.924   7.600  0.0474  0.3751 -0.2659
15204SOL    HW149654   1.734   2.995   7.559  2.0414 -0.1693  1.0815
15204SOL    HW249655   1.687   2.852   7.537  1.1096  0.3129 -0.1603
15205SOL     OW49656   8.569   3.606   3.187  0.3629  0.0718  0.4876
15205SOL    HW149657   8.623   3.602   3.266 -0.2817  0.4955  0.9556
15205SOL    HW249658   8.585   3.693   3.151 -0.9409  0.6684  1.3090
15206SOL     OW49659   1.324   5.707   0.031 -0.5453  0.1559  0.1582
15206SOL    HW149660   1.291   5.641   0.091 -0.0318  0.2558  0.5627
15206SOL    HW249661   1.252   5.769   0.021 -0.9150 -0.2862  0.0323
15207SOL     OW49662   7.199   2.714   8.641  0.5321 -0.0448 -0.2580
15207SOL    HW149663   7.150   2.784   8.685  1.1593  0.0502  0.3016
15207SOL    HW249664   7.279   2.705   8.692  1.2196 -0.0233 -1.3177
15208SOL     OW49665   9.387   0.333   2.109 -0.3948  0.2992  0.0823
15208SOL    HW149666   9.470   0.380   2.120 -1.2510  1.7446  0.6412
15208SOL    HW249667   9.368   0.299   2.197 -0.6981  0.5196  0.1041
15209SOL     OW49668   5.283   4.952   2.703 -0.0550  0.3240 -0.4493
15209SOL    HW149669   5.282   4.912   2.616 -0.9716  0.6237 -0.5790
15209SOL    HW249670   5.306   5.044   2.688  1.9044 -0.0677 -0.1641
15210SOL     OW49671   9.565   2.421   4.224 -0.7948 -0.2533  0.1329
15210SOL    HW149672   9.538   2.442   4.314 -0.6529 -1.8178  0.5725
15210SOL    HW249673   9.484   2.422   4.174 -0.7238  1.8555 -0.0162
15211SOL     OW49674   2.565   5.221   0.125 -0.1190 -0.0950 -0.4283
15211SOL    HW149675   2.538   5.275   0.051  2.3286 -0.4621 -1.6993
15211SOL    HW249676   2.510   5.143   0.118  0.2248 -0.2361 -2.0607
15212SOL     OW49677   1.011   9.688   6.888 -0.0411  0.0483  0.0285
15212SOL    HW149678   1.037   9.780   6.884 -0.4047  0.1681  0.2975
15212SOL    HW249679   0.996   9.663   6.797 -1.9600  0.8586  0.0694
15213SOL     OW49680   5.330   2.041   9.115 -0.6334  0.8720 -0.2288
15213SOL    HW149681   5.281   2.007   9.189 -0.8952  2.5763  0.4247
15213SOL    HW249682   5.421   2.045   9.145 -0.4723  0.0507 -0.5777
15214SOL     OW49683   1.936   1.999   9.413 -0.2281 -0.5535 -0.0573
15214SOL    HW149684   1.846   1.994   9.380 -0.1153 -0.9056 -0.3173
15214SOL    HW249685   1.985   1.936   9.359  0.0585 -0.7836  0.4611
15215SOL     OW49686   2.634   9.177   2.519 -0.5053  0.1280  0.2569
15215SOL    HW149687   2.659   9.171   2.611  3.1559  0.5230 -0.5723
15215SOL    HW249688   2.612   9.270   2.506 -1.7504 -0.0641  0.8231
15216SOL     OW49689   3.946   8.576   1.954  0.1450 -0.3058 -0.0221
15216SOL    HW149690   3.878   8.592   1.887 -1.2714  3.1787  1.9464
15216SOL    HW249691   3.905   8.516   2.015  0.6097 -1.7426 -1.0675
15217SOL     OW49692   1.248   8.091   6.543 -0.6416 -0.3682  0.2245
15217SOL    HW149693   1.268   8.135   6.625  0.4547 -0.1474 -0.1424
15217SOL    HW249694   1.187   8.149   6.498 -0.0175  0.2872  0.2037
15218SOL     OW49695   2.621   4.967   4.983  0.6912  0.3268  0.4465
15218SOL    HW149696   2.655   4.922   4.906 -0.7707  1.5649 -1.0303
15218SOL    HW249697   2.642   4.910   5.056  3.6767 -0.1053 -0.6003
15219SOL     OW49698   9.230   5.368   6.038  0.5559  0.0043  0.3166
15219SOL    HW149699   9.251   5.411   6.120 -0.8253  1.2127  0.0832
15219SOL    HW249700   9.261   5.278   6.049 -0.0006  0.0134  2.3161
15220SOL     OW49701   4.025   6.009   6.921  0.4858  0.4632  0.1063
15220SOL    HW149702   4.120   6.016   6.935  0.5559  1.1017 -0.6263
15220SOL    HW249703   3.998   5.936   6.977  1.4008  0.3068  0.3637
15221SOL     OW49704   6.770   0.668   7.925  0.1290 -0.2713 -0.1854
15221SOL    HW149705   6.865   0.659   7.933  0.1152 -0.8345 -0.6065
15221SOL    HW249706   6.751   0.641   7.835 -0.6906 -2.4252  0.5852
15222SOL     OW49707   1.468   6.742   3.575 -0.0867  0.3480  0.3037
15222SOL    HW149708   1.521   6.805   3.625 -0.6547  3.1882 -2.3482
15222SOL    HW249709   1.378   6.773   3.587 -0.3324  0.4434 -1.4676
15223SOL     OW49710   3.252   7.589   2.215  0.5601 -0.8904 -0.6926
15223SOL    HW149711   3.276   7.543   2.296  0.6685 -0.9586 -0.7619
15223SOL    HW249712   3.328   7.644   2.196  0.6753 -1.1254 -0.9273
15224SOL     OW49713   4.498   2.638   8.408  0.2560 -0.4340  0.3489
15224SOL    HW149714   4.570   2.698   8.388  0.4211 -1.1701 -1.4309
15224SOL    HW249715   4.494   2.636   8.504  0.3332  2.2809  0.4844
15225SOL     OW49716   1.542   6.143   1.250  0.7853  0.4807 -0.6992
15225SOL    HW149717   1.588   6.114   1.171 -0.3772 -1.3676 -0.7611
15225SOL    HW249718   1.449   6.142   1.225  0.3755 -0.5232  0.7761
15226SOL     OW49719   4.894   6.370  10.246 -0.0075 -0.1876 -0.0756
15226SOL    HW149720   4.941   6.309  10.302 -1.3348 -1.1101  0.0663
15226SOL    HW249721   4.944   6.452  10.253  0.4546 -0.5744  1.6055
15227SOL     OW49722   7.309   2.252   7.121 -0.1434  0.1669 -0.5187
15227SOL    HW149723   7.402   2.252   7.143 -0.1920 -1.7231 -0.1009
15227SOL    HW249724   7.299   2.178   7.061 -1.3453  0.5017 -0.7648
15228SOL     OW49725   3.560   7.552   2.903 -0.5958 -0.2629 -0.4415
15228SOL    HW149726   3.559   7.479   2.841  1.8163 -0.8472  0.0822
15228SOL    HW249727   3.522   7.517   2.983  0.7574 -1.0835 -0.1236
15229SOL     OW49728   2.576   5.529   9.943  0.0063  0.2277  0.6359
15229SOL    HW149729   2.627   5.586  10.000 -2.1774  1.1646  1.7713
15229SOL    HW249730   2.549   5.585   9.870  0.6988 -0.3142 -0.0611
15230SOL     OW49731   0.633   1.706   8.992 -0.0299  0.5813  0.2902
15230SOL    HW149732   0.631   1.618   9.031  0.8080  1.5189  2.6237
15230SOL    HW249733   0.694   1.698   8.919 -0.9542 -1.0457 -0.3782
15231SOL     OW49734  10.100   0.589   3.720 -0.4054  0.0009  0.0169
15231SOL    HW149735  10.130   0.678   3.738 -1.6189  0.4411 -0.0548
15231SOL    HW249736  10.107   0.581   3.624 -1.8240  0.6122 -0.1608
15232SOL     OW49737   7.303   9.974  10.144 -0.1445  0.1146 -0.3700
15232SOL    HW149738   7.332  10.050  10.093 -0.1190  0.2968 -0.0851
15232SOL    HW249739   7.337   9.899  10.096  2.5893  0.3538  1.0178
15233SOL     OW49740   8.928   2.955   5.426  0.0332  0.1399  0.0385
15233SOL    HW149741   8.984   2.877   5.425  1.5518  1.1830 -0.0264
15233SOL    HW249742   8.936   2.989   5.516 -1.3805 -0.2771  0.3501
15234SOL     OW49743  10.042   6.413   8.418  0.6058  0.3563 -0.4609
15234SOL    HW149744  10.078   6.324   8.422  0.5472  0.3759  0.5606
15234SOL    HW249745  10.028   6.428   8.324  1.4953 -0.3559 -0.7295
15235SOL     OW49746  10.006   2.933   0.315 -0.1164 -0.4812  1.2758
15235SOL    HW149747  10.072   3.002   0.307 -1.2252  0.5035  0.1088
15235SOL    HW249748   9.929   2.977   0.351 -1.2180 -0.7992 -0.5495
15236SOL     OW49749   3.466   3.627   4.892 -0.0781 -0.2092  0.4447
15236SOL    HW149750   3.378   3.665   4.900  0.6461  1.1821  2.4509
15236SOL    HW249751   3.494   3.613   4.982  1.5383 -1.2633 -0.1782
15237SOL     OW49752   9.928   6.058   3.413  0.2991  1.1365 -0.2570
15237SOL    HW149753   9.882   5.996   3.470  1.4915  0.9336  0.5023
15237SOL    HW249754   9.873   6.062   3.334 -0.5059  0.1564  0.2241
15238SOL     OW49755   3.493   8.773   5.271  0.0520  0.1600 -0.3975
15238SOL    HW149756   3.479   8.765   5.366  2.6365 -1.9974 -0.0983
15238SOL    HW249757   3.436   8.846   5.245 -0.3552  1.1861  2.8776
15239SOL     OW49758   8.659   7.365   0.032  0.0231  0.2543  0.1984
15239SOL    HW149759   8.711   7.337  -0.043 -0.1510  1.2973 -0.3265
15239SOL    HW249760   8.569   7.372  -0.001  0.1189  1.8385  0.1590
15240SOL     OW49761   8.492   5.658   8.912  0.4862  0.0894  0.4967
15240SOL    HW149762   8.547   5.585   8.882  0.1688  0.4160 -0.9190
15240SOL    HW249763   8.404   5.637   8.880  0.6620  1.8246 -1.3407
15241SOL     OW49764  10.117   2.298   8.786 -0.5040  0.0701 -0.0330
15241SOL    HW149765  10.108   2.239   8.711 -0.6307 -0.6701  0.5480
15241SOL    HW249766  10.112   2.240   8.862 -1.2265  0.9031  0.5715
15242SOL     OW49767   4.337   2.270   8.174  0.3782 -0.2981 -0.4639
15242SOL    HW149768   4.339   2.235   8.085  3.6375  0.0851 -0.6752
15242SOL    HW249769   4.429   2.284   8.196 -0.4437  2.1447  1.9903
15243SOL     OW49770   2.470   8.893   9.395  0.0184  0.4251  0.0633
15243SOL    HW149771   2.564   8.902   9.411  0.3169 -0.3867 -1.1359
15243SOL    HW249772   2.433   8.875   9.482  1.1518 -0.6028  0.3670
15244SOL     OW49773  10.053   8.790   3.960  0.0154  0.3044  0.1002
15244SOL    HW149774  10.016   8.709   3.993  0.0878 -0.8295 -2.3729
15244SOL    HW249775  10.142   8.792   3.995 -0.3443 -0.1102  1.0594
15245SOL     OW49776   6.451   8.602   6.378 -0.4197 -0.6444 -0.0548
15245SOL    HW149777   6.506   8.546   6.324  1.4854  1.6221 -0.6221
15245SOL    HW249778   6.510   8.639   6.444 -2.1229 -1.1877  1.8803
15246SOL     OW49779   1.896   5.558   2.100 -0.6359  0.0037 -0.6970
15246SOL    HW149780   1.939   5.628   2.150 -1.3996 -0.6750  1.0035
15246SOL    HW249781   1.941   5.478   2.127 -0.0494 -0.2388 -2.3088
15247SOL     OW49782   1.007   0.026   9.273  0.0016  0.1264 -0.1858
15247SOL    HW149783   0.996   0.089   9.202 -1.6116  0.6389  0.4824
15247SOL    HW249784   1.101   0.026   9.291  0.3504  0.5136 -1.8196
15248SOL     OW49785   1.500   4.688   3.638  0.4063  0.9671 -0.1522
15248SOL    HW149786   1.526   4.762   3.692 -0.2558  3.8724 -3.4495
15248SOL    HW249787   1.411   4.668   3.665  0.9375  0.5772  1.4583
15249SOL     OW49788   7.847   9.233   5.763  0.1554  0.7234  0.0248
15249SOL    HW149789   7.900   9.180   5.822 -0.7416  0.1971  0.3769
15249SOL    HW249790   7.852   9.189   5.679  1.0852  1.2369 -0.2052
15250SOL     OW49791   4.422   0.678   1.194  0.1650  0.2634 -0.5462
15250SOL    HW149792   4.435   0.588   1.165  0.0057  0.2857 -0.6846
15250SOL    HW249793   4.348   0.710   1.142 -0.3013  0.2099  0.0681
15251SOL     OW49794   7.567   9.936   5.653  0.0557  0.2461  0.6510
15251SOL    HW149795   7.495   9.950   5.715 -0.0542 -1.0087  0.8315
15251SOL    HW249796   7.641   9.911   5.707  0.4894  0.9978  0.4178
15252SOL     OW49797   0.874   1.911   9.762  0.1416 -0.8175 -0.4708
15252SOL    HW149798   0.880   1.891   9.856 -2.4788 -1.6503 -0.3901
15252SOL    HW249799   0.965   1.924   9.735  0.9678 -0.1811  2.2349
15253SOL     OW49800   5.879   1.846   0.998 -0.2761 -0.5565 -0.0898
15253SOL    HW149801   5.959   1.811   0.960  2.8785  1.3162  3.9551
15253SOL    HW249802   5.876   1.937   0.968 -0.1990 -0.3280  0.5571
15254SOL     OW49803   1.862   9.976   0.324  0.1689 -0.2224  0.7623
15254SOL    HW149804   1.926   9.925   0.275 -0.2871  0.1563 -0.2660
15254SOL    HW249805   1.915  10.037   0.376  0.6532  0.1799 -0.1785
15255SOL     OW49806   5.666   1.160   2.202 -0.5427  0.1861 -0.5172
15255SOL    HW149807   5.748   1.118   2.227 -0.8224 -0.2784 -0.3711
15255SOL    HW249808   5.693   1.243   2.161 -0.0059  0.0443 -0.4578
15256SOL     OW49809   2.229   8.190   9.719 -0.9453  0.5154  0.0330
15256SOL    HW149810   2.281   8.256   9.764  2.5550 -1.4773 -0.6602
15256SOL    HW249811   2.191   8.137   9.789  0.8888  0.0234  0.7328
15257SOL     OW49812   3.899   7.535   5.296 -0.0145 -0.2367  0.3164
15257SOL    HW149813   3.970   7.494   5.247  0.7943  0.2255  1.0612
15257SOL    HW249814   3.863   7.464   5.350 -0.0172 -0.4408  0.0450
15258SOL     OW49815   1.747   5.041   8.482  0.2613  0.3403 -0.3330
15258SOL    HW149816   1.819   5.075   8.428  0.0990  2.7738  0.8448
15258SOL    HW249817   1.790   5.003   8.558  0.3739  1.7044  0.3223
15259SOL     OW49818   8.173   0.356   5.556 -0.1662  0.8676 -0.5027
15259SOL    HW149819   8.207   0.320   5.638  0.0643 -1.3296 -1.4986
15259SOL    HW249820   8.242   0.339   5.492 -2.1589 -1.9612 -2.1604
15260SOL     OW49821   6.176   5.137   9.397  0.2652  0.5139 -0.5778
15260SOL    HW149822   6.156   5.133   9.491  0.3342  0.2117 -0.5767
15260SOL    HW249823   6.102   5.185   9.359  0.0939  0.3829 -0.4114
15261SOL     OW49824   4.102   7.226   7.378  0.3125 -0.3004  0.2564
15261SOL    HW149825   4.171   7.163   7.400  0.7313  0.6592  1.8172
15261SOL    HW249826   4.146   7.293   7.327  0.8631  0.8857  2.1686
15262SOL     OW49827   6.285   4.844   2.450  0.1707 -0.6912 -0.6197
15262SOL    HW149828   6.292   4.772   2.513 -1.5034 -0.7231 -0.4192
15262SOL    HW249829   6.355   4.828   2.387  1.7328 -0.8169  1.0483
15263SOL     OW49830   2.363   5.495   3.373  0.4493  0.0776 -0.3740
15263SOL    HW149831   2.328   5.412   3.342 -0.5751  0.7295 -0.9991
15263SOL    HW249832   2.403   5.474   3.458 -1.7367 -0.6359  0.5441
15264SOL     OW49833   2.694   1.550   0.854 -0.1843  0.3225  0.4012
15264SOL    HW149834   2.730   1.619   0.910  1.5596 -0.2015 -0.0102
15264SOL    HW249835   2.635   1.501   0.912  0.2941  0.7922  1.3121
15265SOL     OW49836   0.497   8.110   8.604  0.4975 -0.4268  0.3400
15265SOL    HW149837   0.435   8.097   8.676 -0.2674  0.7279 -0.0788
15265SOL    HW249838   0.452   8.170   8.544  1.6892 -0.2295 -0.3901
15266SOL     OW49839   8.081   4.035   4.342 -0.0476 -0.0900 -0.8015
15266SOL    HW149840   8.117   4.121   4.321 -0.3724  0.1179 -0.5187
15266SOL    HW249841   7.986   4.047   4.338 -0.2201  0.4088  2.3363
15267SOL     OW49842   1.204   5.126   4.845 -0.2568 -0.0544 -0.0192
15267SOL    HW149843   1.232   5.034   4.841  2.6949  0.7730 -0.4601
15267SOL    HW249844   1.190   5.151   4.754 -0.1345  0.1825  0.0257
15268SOL     OW49845   2.896   6.101   9.136  0.2478 -0.2942 -0.5846
15268SOL    HW149846   2.852   6.035   9.082  1.8347 -0.4326 -1.7833
15268SOL    HW249847   2.840   6.178   9.131  0.0604 -0.5028 -1.9620
15269SOL     OW49848   5.653   8.587  10.197 -0.0004 -0.2904 -0.0527
15269SOL    HW149849   5.744   8.617  10.201  0.1382 -0.8436  2.2867
15269SOL    HW249850   5.616   8.634  10.123  1.1528  2.8802  1.2150
15270SOL     OW49851  10.017   2.579   7.194 -0.4731  0.2571 -0.6561
15270SOL    HW149852  10.091   2.593   7.253  0.3102 -2.0998 -0.9811
15270SOL    HW249853   9.958   2.652   7.212 -0.5096 -0.5301  3.3704
15271SOL     OW49854   3.822   3.768   5.116 -0.0973  0.0205  0.1112
15271SOL    HW149855   3.842   3.737   5.204 -0.6459  0.5024  0.4110
15271SOL    HW249856   3.729   3.791   5.119 -0.2404 -0.3985 -0.7234
15272SOL     OW49857   7.038   4.202   9.473  0.0988 -0.1724 -0.2241
15272SOL    HW149858   7.018   4.118   9.432  0.9365 -0.2002 -0.5996
15272SOL    HW249859   7.022   4.267   9.405  1.1145 -0.1860 -0.4986
15273SOL     OW49860   5.501   4.038   2.227 -0.3745 -0.3986  0.1038
15273SOL    HW149861   5.539   3.958   2.192 -1.0095 -0.8946  0.5414
15273SOL    HW249862   5.407   4.028   2.214 -0.4661  0.2589  0.2054
15274SOL     OW49863   2.661   3.637   9.573 -0.2948  0.5242 -0.1617
15274SOL    HW149864   2.712   3.716   9.554 -0.9093  1.1939  0.8333
15274SOL    HW249865   2.651   3.593   9.489 -0.2782  1.7271 -0.8141
15275SOL     OW49866   8.022   1.683   7.533 -0.0632 -0.2675 -0.5276
15275SOL    HW149867   8.000   1.635   7.454  0.5126  0.7961 -1.3736
15275SOL    HW249868   8.048   1.770   7.501  1.8858 -0.3487  0.6446
15276SOL     OW49869   3.917   3.186   0.141 -0.1775  0.0892 -0.2073
15276SOL    HW149870   3.887   3.107   0.186  2.0662 -1.0470 -0.6181
15276SOL    HW249871   3.874   3.183   0.056  0.4819 -1.1195 -0.5154
15277SOL     OW49872   6.379   9.201   9.584 -0.0875 -0.2922 -0.0834
15277SOL    HW149873   6.415   9.149   9.512 -0.2990 -2.1578  1.0970
15277SOL    HW249874   6.455   9.243   9.624  0.0933  0.2882 -1.0116
15278SOL     OW49875   4.073   9.331   3.781 -0.9788  0.5537 -0.0174
15278SOL    HW149876   4.095   9.402   3.720 -2.5072  0.1021 -1.1611
15278SOL    HW249877   3.982   9.347   3.805 -0.6957  0.1476  1.3867
15279SOL     OW49878   3.225   2.182   4.422 -0.1796 -0.3765 -0.0931
15279SOL    HW149879   3.303   2.214   4.377 -1.9260  3.2326 -0.8934
15279SOL    HW249880   3.201   2.252   4.482 -3.2644 -0.9578 -0.4719
15280SOL     OW49881   8.229   3.648   7.450 -0.4618 -0.6414  0.4335
15280SOL    HW149882   8.320   3.658   7.478 -0.0018 -1.5600 -0.6407
15280SOL    HW249883   8.236   3.618   7.360 -1.8539 -0.0994  0.1289
15281SOL     OW49884   3.298   2.433   8.625 -0.4680 -0.1203  0.0417
15281SOL    HW149885   3.300   2.367   8.556  1.8094 -1.1921  1.0218
15281SOL    HW249886   3.354   2.504   8.592 -1.3005  0.4602 -0.1675
15282SOL     OW49887   0.376   7.278   8.922  0.1611 -0.0278 -0.2206
15282SOL    HW149888   0.291   7.263   8.964 -0.3547 -1.8497 -1.7683
15282SOL    HW249889   0.369   7.234   8.837  2.8011 -0.5795 -0.2459
15283SOL     OW49890   9.880   0.019   9.814 -0.2913 -0.2067  0.0237
15283SOL    HW149891   9.839   0.091   9.766 -0.1838 -0.6326 -0.7236
15283SOL    HW249892   9.877   0.046   9.906  1.6443  1.7207 -0.3974
15284SOL     OW49893   8.635   1.249   7.521  0.3012 -0.1644 -0.5077
15284SOL    HW149894   8.724   1.275   7.542  0.1186 -1.0782  1.7935
15284SOL    HW249895   8.618   1.284   7.434  3.5475 -1.5796 -1.8519
15285SOL     OW49896   8.397   4.815   0.056 -0.1200 -0.1131 -0.7829
15285SOL    HW149897   8.347   4.874   0.113 -1.5317 -2.0159  0.0769
15285SOL    HW249898   8.418   4.740   0.112  2.1945 -0.1969 -1.6472
15286SOL     OW49899   1.648   2.433   3.926  0.7747  0.1513 -0.7772
15286SOL    HW149900   1.584   2.374   3.966  0.1507  2.3392  1.7955
15286SOL    HW249901   1.719   2.376   3.898 -0.3543 -1.9446  0.3644
15287SOL     OW49902   1.825   0.940   6.494 -0.5283  0.1147  0.1571
15287SOL    HW149903   1.900   0.990   6.463 -0.6871 -1.3709 -3.0873
15287SOL    HW249904   1.750   0.976   6.446 -1.6559  0.4709  2.0867
15288SOL     OW49905   0.610   3.221   8.948 -0.1006 -0.0383  0.0876
15288SOL    HW149906   0.568   3.261   9.024 -0.9203 -0.7569  0.0186
15288SOL    HW249907   0.561   3.140   8.932  0.9137 -0.5779 -0.3789
15289SOL     OW49908   6.701   9.178   1.590 -0.7350 -0.0690  0.4292
15289SOL    HW149909   6.677   9.100   1.640  0.2690 -0.7954 -0.1833
15289SOL    HW249910   6.622   9.233   1.592 -0.5738  0.2539  3.3338
15290SOL     OW49911   2.020   9.015   4.884 -0.2075 -0.0748 -0.4044
15290SOL    HW149912   2.018   9.111   4.886 -1.6010 -0.0875  1.0029
15290SOL    HW249913   1.931   8.989   4.863 -0.2068 -1.0529  0.6726
15291SOL     OW49914   7.678   7.998   5.575  0.4226 -0.0275  0.4269
15291SOL    HW149915   7.588   7.991   5.605  0.4732 -2.3378  0.1977
15291SOL    HW249916   7.709   8.081   5.612 -0.5853 -1.0354  3.9594
15292SOL     OW49917   9.868   3.821   3.623 -0.4761  0.4929 -0.0753
15292SOL    HW149918   9.817   3.867   3.689  0.2658  0.0547  0.8144
15292SOL    HW249919   9.882   3.886   3.554 -0.7601  1.1300  0.4604
15293SOL     OW49920   8.795   4.588   4.109  0.0798  0.0278 -0.0325
15293SOL    HW149921   8.829   4.556   4.026 -1.0859 -1.5449  0.0546
15293SOL    HW249922   8.866   4.573   4.171 -0.3058 -2.2891 -0.0512
15294SOL     OW49923  10.141   0.373   8.682 -0.1026 -0.2715  0.5632
15294SOL    HW149924  10.217   0.366   8.740 -0.2880  0.8426  0.9667
15294SOL    HW249925  10.065   0.363   8.740 -0.2838  0.3825  0.4475
15295SOL     OW49926   1.870   7.589   2.825  0.0990 -0.0617  0.5579
15295SOL    HW149927   1.849   7.651   2.756  1.0590 -0.8790 -0.4958
15295SOL    HW249928   1.960   7.609   2.850 -0.1535  0.0661  1.4118
15296SOL     OW49929  10.057   3.636   3.869 -0.5005 -0.5389  0.0993
15296SOL    HW149930  10.111   3.559   3.853 -1.6094 -1.7692  1.9716
15296SOL    HW249931  10.029   3.663   3.781  1.7526 -0.8339 -0.7852
15297SOL     OW49932   3.584   1.097   2.094 -0.3919  0.4164  0.1763
15297SOL    HW149933   3.654   1.031   2.086 -2.9586 -2.5499  0.1203
15297SOL    HW249934   3.551   1.085   2.183  0.2172  3.0547  0.8488
15298SOL     OW49935   2.445   3.847   6.915  0.6939  0.5398  0.0014
15298SOL    HW149936   2.502   3.769   6.912 -0.4680 -0.3249 -0.1638
15298SOL    HW249937   2.453   3.884   6.828  1.7970  1.0302  0.2869
15299SOL     OW49938   5.402   0.668   0.038 -0.2935  0.2792 -0.7836
15299SOL    HW149939   5.401   0.745   0.094  2.2125 -0.0879 -0.0972
15299SOL    HW249940   5.310   0.644   0.027 -0.9417  0.9401  2.3810
15300SOL     OW49941   2.676   3.055   2.820  0.0973 -0.3035 -0.2109
15300SOL    HW149942   2.685   3.147   2.798  1.0871 -0.7547 -1.8197
15300SOL    HW249943   2.581   3.041   2.826 -0.0475  0.9290  0.6969
15301SOL     OW49944   1.041   5.952   9.831 -0.3504  0.0368  0.0153
15301SOL    HW149945   1.133   5.942   9.854 -0.4556  0.5205  0.6650
15301SOL    HW249946   1.002   5.997   9.906 -0.8516  0.9883 -0.7883
15302SOL     OW49947   8.264   5.811   7.222 -0.0650 -0.0158  0.1353
15302SOL    HW149948   8.178   5.787   7.255 -1.2202  1.4440 -1.5552
15302SOL    HW249949   8.278   5.900   7.254  0.0251  0.3782 -0.9347
15303SOL     OW49950   8.368   4.609   6.238  0.0482  0.0882 -0.6280
15303SOL    HW149951   8.379   4.665   6.161  1.7306  0.6063 -0.0484
15303SOL    HW249952   8.335   4.668   6.306  0.1566 -0.0042 -0.4956
15304SOL     OW49953   7.539   0.725   1.123  0.2324  0.0644  0.1056
15304SOL    HW149954   7.574   0.666   1.056  0.5069 -0.2636  0.5318
15304SOL    HW249955   7.500   0.666   1.188  1.3981  0.3058  1.0331
15305SOL     OW49956   0.338   4.929   9.077 -0.4194  0.5742 -0.0896
15305SOL    HW149957   0.256   4.914   9.124 -0.1187  0.8597  0.5366
15305SOL    HW249958   0.320   5.004   9.020 -0.1201  1.6954  1.2478
15306SOL     OW49959   9.439   5.697   1.846 -0.0885 -0.5561 -0.1012
15306SOL    HW149960   9.452   5.646   1.767 -1.9534  0.6383 -1.2492
15306SOL    HW249961   9.421   5.786   1.816 -0.2140  0.0844  1.6893
15307SOL     OW49962   5.794   8.500   1.404 -0.6580  0.2199 -0.4080
15307SOL    HW149963   5.878   8.528   1.366 -0.1584 -0.0588  0.4526
15307SOL    HW249964   5.819   8.449   1.481 -1.6407  1.2121  0.6055
15308SOL     OW49965   7.255   9.405   2.951 -0.3181 -1.1471 -0.3109
15308SOL    HW149966   7.339   9.441   2.981 -0.5930 -0.3273 -0.4847
15308SOL    HW249967   7.278   9.338   2.887  0.2003 -0.4445 -0.8736
15309SOL     OW49968   4.930   7.337   8.349  0.2117 -0.1429  0.4270
15309SOL    HW149969   4.887   7.271   8.403 -2.2297 -0.7264 -1.9942
15309SOL    HW249970   4.866   7.407   8.341  1.7520  1.3857  0.7943
15310SOL     OW49971   9.359   3.887   2.452  0.7540 -0.0356  0.2624
15310SOL    HW149972   9.365   3.862   2.544  1.6838  2.8664  1.0700
15310SOL    HW249973   9.411   3.820   2.407  1.3603 -0.7837  1.9759
15311SOL     OW49974   3.544   7.258   2.507  0.0888  0.1157 -0.0786
15311SOL    HW149975   3.532   7.236   2.599 -0.2402 -2.0092 -0.5775
15311SOL    HW249976   3.618   7.319   2.506  0.7152 -0.5814  1.4985
15312SOL     OW49977   2.487   8.910   7.584 -0.2443 -0.0868 -0.2626
15312SOL    HW149978   2.568   8.901   7.535 -0.1761  2.0948 -0.6605
15312SOL    HW249979   2.419   8.921   7.516 -0.7744 -1.1555  0.0755
15313SOL     OW49980   0.534   3.609   5.089 -0.9195 -0.1621  0.0127
15313SOL    HW149981   0.587   3.551   5.034  0.0181 -0.1653  0.8990
15313SOL    HW249982   0.532   3.692   5.041  0.4840  0.0523  0.2717
15314SOL     OW49983   2.582   4.762   2.397  0.5201 -0.0240  0.1798
15314SOL    HW149984   2.513   4.765   2.331  0.4647  1.9484  0.2746
15314SOL    HW249985   2.540   4.720   2.473 -0.2139  0.0852 -0.1533
15315SOL     OW49986   6.444   4.701   1.653 -0.0411  0.1513  0.1610
15315SOL    HW149987   6.526   4.698   1.604 -0.9734  0.1228 -1.4755
15315SOL    HW249988   6.377   4.721   1.587 -1.3636  0.1447  1.4389
15316SOL     OW49989   0.700   6.648   6.393 -0.1285 -0.4128 -0.0224
15316SOL    HW149990   0.690   6.585   6.322 -1.2890 -1.6165  1.1678
15316SOL    HW249991   0.655   6.727   6.361  0.7988 -0.3497 -1.2662
15317SOL     OW49992   1.298   8.168   2.381  0.2574  0.2745  0.2364
15317SOL    HW149993   1.318   8.096   2.441 -2.2930  0.9850  2.0828
15317SOL    HW249994   1.273   8.240   2.438  0.3431  1.8678 -1.6480
15318SOL     OW49995   9.196   1.562   6.192  0.1251 -0.1747  0.0403
15318SOL    HW149996   9.128   1.627   6.178  1.4122  1.2462  0.1927
15318SOL    HW249997   9.263   1.582   6.127  0.5004 -1.4347  0.0114
15319SOL     OW49998   1.199   2.174   6.874 -0.3577  0.2386 -0.4103
15319SOL    HW149999   1.196   2.195   6.967 -2.8431 -0.5462 -0.2389
15319SOL    HW250000   1.107   2.160   6.849  0.1005  1.4576 -3.2318
15320SOL     OW50001   5.218   7.364   8.415  0.3015  0.3402 -0.5183
15320SOL    HW150002   5.149   7.306   8.383  0.4758 -0.0402 -0.2196
15320SOL    HW250003   5.176   7.450   8.421  0.0226  0.2368 -0.9112
15321SOL     OW50004   0.115   4.368  10.193  1.1596 -0.1401 -0.8298
15321SOL    HW150005   0.185   4.357  10.257  0.4385 -0.0859 -0.0070
15321SOL    HW250006   0.137   4.308  10.121  0.9955 -1.6713  0.3394
15322SOL     OW50007   8.407   6.353   3.721  0.5277 -0.1615  0.1206
15322SOL    HW150008   8.369   6.332   3.636  1.4490  0.6307 -0.5028
15322SOL    HW250009   8.499   6.371   3.703  0.8331 -0.4108  1.3571
15323SOL     OW50010   9.695   3.267   7.407  0.6070  0.1215  0.0272
15323SOL    HW150011   9.664   3.347   7.448  0.2260 -0.4683  0.9052
15323SOL    HW250012   9.746   3.223   7.475  1.5655  0.0291 -0.7183
15324SOL     OW50013   0.105   8.128   8.433  0.4797 -0.0443 -0.3117
15324SOL    HW150014   0.149   8.051   8.397  0.3232 -0.9261  1.3410
15324SOL    HW250015   0.022   8.095   8.467  0.5415  0.7947  0.6908
15325SOL     OW50016   1.000   1.336   1.512  0.0982 -0.1404 -0.0562
15325SOL    HW150017   0.988   1.247   1.479 -0.0718 -0.1790  0.1100
15325SOL    HW250018   1.090   1.337   1.545  0.2963 -0.0813 -0.5829
15326SOL     OW50019   8.127   8.725   7.514 -0.5019  0.1410  0.2098
15326SOL    HW150020   8.058   8.659   7.513  0.2436 -0.6585 -0.8590
15326SOL    HW250021   8.132   8.755   7.424  0.5443  0.1799  0.2722
15327SOL     OW50022   0.461   7.795   8.072 -0.2745 -0.3526  0.7813
15327SOL    HW150023   0.510   7.724   8.032  0.6325  0.4138  0.4919
15327SOL    HW250024   0.376   7.757   8.094 -0.0393 -1.3385  0.0248
15328SOL     OW50025   1.387   7.176   7.125  0.3065  0.0080 -0.0343
15328SOL    HW150026   1.460   7.116   7.139 -0.1162 -0.5304 -0.0979
15328SOL    HW250027   1.423   7.247   7.071  1.0606  0.3166  0.8518
15329SOL     OW50028   2.897   6.646   9.983  0.1823  0.1815  0.4892
15329SOL    HW150029   2.889   6.728  10.030  1.8601  0.5032  0.2954
15329SOL    HW250030   2.959   6.594  10.035  0.5821 -0.2110 -0.3543
15330SOL     OW50031   1.201   2.381   3.531  0.3665  0.0200  0.5651
15330SOL    HW150032   1.123   2.336   3.498 -0.0024  1.2149 -0.2738
15330SOL    HW250033   1.226   2.332   3.609 -1.1286 -0.4887  0.7566
15331SOL     OW50034   0.065   0.361   8.903  0.4356  0.5215 -0.2242
15331SOL    HW150035   0.147   0.369   8.952  0.7221 -0.3653 -0.5301
15331SOL    HW250036   0.061   0.268   8.881 -0.6152  0.5801 -0.2880
15332SOL     OW50037   6.503   5.052   7.993 -0.3045  0.0335  0.1364
15332SOL    HW150038   6.449   5.009   8.060 -0.1606  0.1765  0.3457
15332SOL    HW250039   6.562   5.109   8.043  0.0672 -0.1494 -0.0874
15333SOL     OW50040   6.837   5.863   1.681 -0.0027 -0.5576  0.4404
15333SOL    HW150041   6.831   5.957   1.666 -1.4945 -0.8011 -0.7778
15333SOL    HW250042   6.830   5.824   1.594  1.3470 -1.7959  0.8414
15334SOL     OW50043   8.741   3.370   5.827  0.3452  0.2617  0.5913
15334SOL    HW150044   8.796   3.435   5.783 -0.4305  0.9796  0.6596
15334SOL    HW250045   8.708   3.315   5.756 -1.1834  1.6282  0.1776
15335SOL     OW50046   0.379   6.563   1.718  0.4179 -0.4304  0.2228
15335SOL    HW150047   0.456   6.513   1.745  2.1662  2.3543  0.6893
15335SOL    HW250048   0.411   6.621   1.649 -0.7616  2.0777  1.6608
15336SOL     OW50049   9.258   7.512   6.197 -0.3487  0.3545 -0.3624
15336SOL    HW150050   9.190   7.566   6.157 -1.5036 -1.0967 -0.4212
15336SOL    HW250051   9.260   7.540   6.288  0.6059  1.9812 -0.8371
15337SOL     OW50052   2.231   7.829  10.241 -0.0651 -0.2334 -0.4382
15337SOL    HW150053   2.256   7.918  10.214  0.4201 -0.3839 -0.5085
15337SOL    HW250054   2.227   7.780  10.159  0.5224 -0.4782 -0.3291
15338SOL     OW50055   2.717   2.018   3.031  0.4573 -0.5552 -0.4413
15338SOL    HW150056   2.715   1.995   3.124 -0.1716 -0.1886 -0.3579
15338SOL    HW250057   2.637   1.979   2.996  0.7908 -0.8574 -0.8713
15339SOL     OW50058   8.298   7.833   3.362  0.3286  0.1546  0.3242
15339SOL    HW150059   8.214   7.877   3.347  0.6777  0.4932 -0.6848
15339SOL    HW250060   8.281   7.741   3.343 -0.3044 -0.1383  2.0718
15340SOL     OW50061   8.938   9.552   8.780  0.0754  0.0131  0.7030
15340SOL    HW150062   8.945   9.576   8.688  3.6290  0.3076  0.9403
15340SOL    HW250063   8.869   9.608   8.815 -1.2107  0.0247 -1.6733
15341SOL     OW50064   4.688   1.794   0.100 -0.5182 -0.1880  0.1433
15341SOL    HW150065   4.767   1.846   0.113 -0.1970 -0.4331 -0.7351
15341SOL    HW250066   4.673   1.750   0.183  0.7616 -0.8086  0.0673
15342SOL     OW50067   0.571   8.336   4.348 -0.0404  0.4380 -0.0805
15342SOL    HW150068   0.485   8.329   4.389  0.3418  0.4642  0.7373
15342SOL    HW250069   0.583   8.251   4.304 -0.6147  0.5572 -0.4861
15343SOL     OW50070   1.713   4.341   9.591  0.7137  0.5648  0.0188
15343SOL    HW150071   1.732   4.392   9.670 -1.0409  1.0285  0.1747
15343SOL    HW250072   1.620   4.322   9.596  0.3311  1.4119 -2.3749
15344SOL     OW50073   7.392   7.043   5.206  0.2301 -0.0695 -0.3497
15344SOL    HW150074   7.480   7.082   5.207 -0.2133  0.9939 -1.2603
15344SOL    HW250075   7.401   6.963   5.257  1.8268 -0.1808 -0.7657
15345SOL     OW50076   2.851   5.541   5.679 -0.6574  0.3073 -0.1198
15345SOL    HW150077   2.924   5.519   5.737 -1.7183  2.0695  2.0187
15345SOL    HW250078   2.821   5.627   5.709 -0.6271  1.8880 -3.9972
15346SOL     OW50079   4.772   0.016  10.181  0.4160  0.1955  0.1020
15346SOL    HW150080   4.818  -0.063  10.208 -0.5650 -1.3174 -2.3782
15346SOL    HW250081   4.721   0.041  10.259  0.4495 -1.8412  0.8470
15347SOL     OW50082   4.973   1.745   7.659  0.0515 -0.5388  0.4204
15347SOL    HW150083   4.990   1.651   7.663 -2.2382 -0.9924  0.7128
15347SOL    HW250084   4.920   1.764   7.736  1.3830  1.2505  0.9733
15348SOL     OW50085  10.150   7.130   3.719 -0.4357  0.2142 -0.2498
15348SOL    HW150086  10.118   7.192   3.654 -1.6294  0.3519  0.4286
15348SOL    HW250087  10.122   7.167   3.803 -0.1538 -0.6552  0.2452
15349SOL     OW50088   7.099   8.850   0.057 -0.1283  0.3954 -0.0392
15349SOL    HW150089   7.009   8.837   0.026 -0.1876  0.8703 -0.0663
15349SOL    HW250090   7.122   8.938   0.029  1.2517 -0.6039 -2.2568
15350SOL     OW50091   3.547   3.427   2.849  0.1384  0.2436  0.0387
15350SOL    HW150092   3.527   3.337   2.876  0.6667  0.6423  1.9065
15350SOL    HW250093   3.597   3.417   2.768 -1.1689 -1.0588 -0.6729
15351SOL     OW50094   2.858   1.881   9.472 -0.5535  1.1419  0.0299
15351SOL    HW150095   2.764   1.896   9.466 -0.7521 -0.1529 -0.2644
15351SOL    HW250096   2.896   1.931   9.399 -1.2135  0.0459 -1.0877
15352SOL     OW50097   2.500   4.740  10.118 -0.7498 -0.2891  0.0098
15352SOL    HW150098   2.549   4.819  10.094  1.1588 -1.3750  0.1345
15352SOL    HW250099   2.468   4.705  10.035 -1.0498  0.2433 -0.1046
15353SOL     OW50100   1.654   6.153   1.917 -0.7153  0.1672 -0.0574
15353SOL    HW150101   1.717   6.086   1.889 -2.8856 -2.4929  1.0489
15353SOL    HW250102   1.709   6.221   1.957  1.4720 -2.1248  1.1011
15354SOL     OW50103   4.766   6.793   6.983 -0.0299  0.4100 -0.2809
15354SOL    HW150104   4.821   6.718   7.004  0.9399  1.3368  0.5721
15354SOL    HW250105   4.740   6.778   6.892  1.6079 -0.0712 -0.7106
15355SOL     OW50106   8.880   1.991   4.974  0.2813 -0.0970 -0.8069
15355SOL    HW150107   8.928   1.983   4.891 -1.5500  1.5072 -2.1176
15355SOL    HW250108   8.788   1.986   4.949 -0.3176 -0.0769  1.2208
15356SOL     OW50109   3.706   6.337   4.628 -0.0369  0.3755 -0.2700
15356SOL    HW150110   3.660   6.260   4.593 -1.7553  1.4259 -0.4253
15356SOL    HW250111   3.798   6.324   4.602 -0.3768 -1.3548 -0.7381
15357SOL     OW50112   5.091   6.771   2.454  0.2514 -0.0392  0.1317
15357SOL    HW150113   5.151   6.791   2.382 -0.1972 -0.3605 -0.3430
15357SOL    HW250114   5.018   6.831   2.441  0.0273 -0.3082  0.1354
15358SOL     OW50115   9.959   6.800   7.724 -0.5126 -0.0369 -0.2045
15358SOL    HW150116   9.902   6.726   7.704  1.6709 -1.7674 -0.3193
15358SOL    HW250117   9.996   6.779   7.809  1.4471  0.0229 -0.9994
15359SOL     OW50118   3.605   7.099   2.917 -0.5319 -0.9884  0.4536
15359SOL    HW150119   3.692   7.066   2.892 -0.1952  0.5954 -0.5639
15359SOL    HW250120   3.614   7.123   3.010 -0.0954 -1.4707  0.5401
15360SOL     OW50121   1.734   4.757   8.639  0.3455  0.4341  0.0829
15360SOL    HW150122   1.704   4.686   8.695  0.2282  0.8749  0.5852
15360SOL    HW250123   1.732   4.835   8.695 -0.8071  1.0869 -0.8151
15361SOL     OW50124   5.333   8.744   8.841 -0.2255 -0.6106 -0.1607
15361SOL    HW150125   5.320   8.827   8.795  1.1435 -0.9070 -1.1190
15361SOL    HW250126   5.425   8.744   8.866  0.1141 -2.3657 -1.2561
15362SOL     OW50127   7.129   8.860   3.528  0.3094  0.8161 -0.4084
15362SOL    HW150128   7.059   8.841   3.467 -1.9113  1.1950  1.8512
15362SOL    HW250129   7.121   8.792   3.595  0.4371  2.3019  1.1783
15363SOL     OW50130   5.943   4.808   9.980 -0.2349  0.2494 -0.1525
15363SOL    HW150131   5.955   4.816  10.074  0.3877  0.4624 -0.2412
15363SOL    HW250132   5.865   4.754   9.969  0.5954 -1.1577  0.5104
15364SOL     OW50133   3.180   4.209   1.693  0.0441  0.0762  0.1185
15364SOL    HW150134   3.095   4.249   1.677  0.4402  0.8732 -0.0363
15364SOL    HW250135   3.216   4.256   1.768  0.9034  0.6727 -0.6270
15365SOL     OW50136   2.811   3.860   9.526  0.1368  0.4692 -0.8138
15365SOL    HW150137   2.854   3.892   9.447 -1.5267 -0.0869 -2.0053
15365SOL    HW250138   2.752   3.931   9.551 -0.3546  0.0906 -0.8904
15366SOL     OW50139   9.814   0.723   6.895  0.5663 -0.5315  0.2506
15366SOL    HW150140   9.878   0.672   6.846 -0.3878 -1.8007  0.2750
15366SOL    HW250141   9.788   0.667   6.968 -0.6961 -0.1377  0.1419
15367SOL     OW50142   3.024   2.061   4.204 -0.4657  0.5241  0.8376
15367SOL    HW150143   2.973   1.994   4.248  0.5656 -0.9549 -0.1310
15367SOL    HW250144   3.089   2.089   4.268 -0.3198 -0.0741  0.9524
15368SOL     OW50145   2.234   8.614   1.845 -0.1318 -0.4068  0.5237
15368SOL    HW150146   2.215   8.634   1.754 -0.8503  0.8866  0.9280
15368SOL    HW250147   2.329   8.625   1.852  0.2956 -2.8740 -0.5777
15369SOL     OW50148   6.493   7.141   9.128 -0.0716 -0.6058 -0.1050
15369SOL    HW150149   6.509   7.137   9.222  0.3969 -0.2397 -0.1619
15369SOL    HW250150   6.572   7.183   9.092 -0.2613 -0.7073 -0.6531
15370SOL     OW50151   6.555   4.670   3.345 -0.0951  0.0577 -0.0498
15370SOL    HW150152   6.631   4.662   3.402 -0.6877  1.5829  1.0165
15370SOL    HW250153   6.553   4.587   3.297  0.3170 -1.4054  2.2709
15371SOL     OW50154   2.704   3.323   9.259  0.4148  0.0675  0.8548
15371SOL    HW150155   2.616   3.288   9.241  1.1244 -1.1391 -0.5689
15371SOL    HW250156   2.697   3.416   9.238 -0.6895  0.1448  1.4625
15372SOL     OW50157   2.121   9.362   3.442  0.1309 -0.0593  0.2772
15372SOL    HW150158   2.037   9.385   3.480 -0.0480  1.1557 -0.7781
15372SOL    HW250159   2.123   9.409   3.359  1.3282 -1.0653 -0.2941
15373SOL     OW50160   7.813   1.798   7.645 -0.1944  0.2217 -0.2928
15373SOL    HW150161   7.881   1.753   7.595 -1.7662  0.1699 -2.5494
15373SOL    HW250162   7.755   1.834   7.578 -1.1570  2.2162  1.5131
15374SOL     OW50163   0.215   1.404   0.229  0.5160 -0.4085  0.2737
15374SOL    HW150164   0.302   1.425   0.194  0.1444  0.0305 -0.3902
15374SOL    HW250165   0.155   1.422   0.157  0.1223 -3.4557 -0.2939
15375SOL     OW50166   1.787   8.588   2.258  0.0302 -0.0524 -0.0689
15375SOL    HW150167   1.881   8.606   2.267 -0.0594  1.2060 -1.2266
15375SOL    HW250168   1.783   8.499   2.224  0.8771  0.2431 -1.0111
15376SOL     OW50169   1.325   6.857   8.580 -0.0006 -0.1285  0.3112
15376SOL    HW150170   1.307   6.878   8.488 -1.1704 -0.5175  0.4378
15376SOL    HW250171   1.350   6.941   8.619  1.0898 -0.0594 -0.4819
15377SOL     OW50172   0.344   7.246   2.967  0.5627  0.2972 -0.0617
15377SOL    HW150173   0.259   7.267   3.005 -0.6894 -1.0380 -1.9558
15377SOL    HW250174   0.387   7.192   3.033  0.6695  2.2963  1.5943
15378SOL     OW50175   9.264   1.028   4.781 -0.6094 -0.2584 -0.1963
15378SOL    HW150176   9.269   1.042   4.876  0.6161 -1.5562 -0.0418
15378SOL    HW250177   9.327   1.090   4.745  1.4845 -2.0426  0.1519
15379SOL     OW50178   2.375   1.654   0.553  0.0609 -0.6448 -0.1694
15379SOL    HW150179   2.398   1.699   0.472 -0.0981  1.0867  0.6944
15379SOL    HW250180   2.426   1.573   0.551 -0.1749 -0.7898 -2.1095
15380SOL     OW50181   5.629   7.836   4.898 -0.6030 -0.4972 -0.1419
15380SOL    HW150182   5.563   7.875   4.841 -1.2256  0.2639  1.0537
15380SOL    HW250183   5.709   7.835   4.845 -1.0201  0.6843 -0.8360
15381SOL     OW50184   7.806   0.809   2.520 -0.2278 -0.9433  0.0675
15381SOL    HW150185   7.756   0.745   2.469 -0.5959 -0.3933 -0.2769
15381SOL    HW250186   7.873   0.840   2.459 -0.2881 -0.7250  0.1121
15382SOL     OW50187   3.816   1.245   5.175 -0.1513  0.3478  0.2882
15382SOL    HW150188   3.829   1.178   5.242  1.4954  1.0847  0.7450
15382SOL    HW250189   3.727   1.277   5.191 -0.9482 -1.6158  0.1188
15383SOL     OW50190   7.373   9.983   1.235  0.3426 -0.3683  0.8738
15383SOL    HW150191   7.451  10.003   1.287  0.8970 -2.1486  0.7788
15383SOL    HW250192   7.310  10.051   1.260  1.8618  1.0454  1.0300
15384SOL     OW50193   6.998   9.844   6.129  0.2357  0.1489 -0.0226
15384SOL    HW150194   6.915   9.798   6.117 -0.0555  0.2119  1.5231
15384SOL    HW250195   7.004   9.902   6.054  0.3537 -1.9802 -1.7767
15385SOL     OW50196   0.581   3.069   0.325 -0.2775  0.3190  0.5509
15385SOL    HW150197   0.647   3.075   0.393  0.3978 -1.0962  0.0753
15385SOL    HW250198   0.535   2.987   0.344 -1.2913  0.8308  0.3483
15386SOL     OW50199   9.597   9.464   3.151 -0.1182  0.1721 -0.2015
15386SOL    HW150200   9.578   9.395   3.086 -3.4860  1.3728 -0.7102
15386SOL    HW250201   9.589   9.419   3.235 -0.8214 -0.3937 -0.5501
15387SOL     OW50202   6.025   2.713   5.370 -0.3580  0.2834 -0.1889
15387SOL    HW150203   6.096   2.742   5.313 -0.6379  0.3797 -0.4949
15387SOL    HW250204   6.051   2.741   5.458  1.1902 -1.9110  0.1287
15388SOL     OW50205   2.341   0.735   7.849  0.1307  0.6493  0.0249
15388SOL    HW150206   2.373   0.732   7.759  1.4740  0.3774  0.4883
15388SOL    HW250207   2.287   0.655   7.858  1.4808 -0.2949 -0.0236
15389SOL     OW50208   3.631   0.243   9.518  0.5729 -0.1433  0.0523
15389SOL    HW150209   3.690   0.170   9.539  1.1409  0.4452  0.5397
15389SOL    HW250210   3.674   0.288   9.446 -0.2351 -0.8071 -0.8828
15390SOL     OW50211   2.922   0.763   5.100  0.1985 -0.0359  0.5888
15390SOL    HW150212   2.934   0.837   5.159 -0.8845  0.7459 -0.1306
15390SOL    HW250213   2.951   0.796   5.015 -0.6325 -0.3034  0.1921
15391SOL     OW50214   1.812   0.519   5.236  0.5410 -0.3014  0.9369
15391SOL    HW150215   1.899   0.526   5.276  1.4720 -0.3449 -0.9819
15391SOL    HW250216   1.819   0.569   5.155 -0.2514 -2.8445 -0.8131
15392SOL     OW50217   6.164   6.006   0.306 -0.0709  0.0952 -0.1206
15392SOL    HW150218   6.212   6.083   0.277 -1.0130  1.2576  1.2604
15392SOL    HW250219   6.149   6.020   0.400 -2.4530 -0.5290 -0.3258
15393SOL     OW50220   1.754   2.127   2.216  0.3207 -0.3192 -0.4825
15393SOL    HW150221   1.805   2.193   2.263  0.9223 -1.4427  0.5049
15393SOL    HW250222   1.789   2.128   2.127  2.0136 -0.9348  0.1270
15394SOL     OW50223   9.176   3.099   0.192  0.3371 -0.1518  0.6108
15394SOL    HW150224   9.080   3.104   0.191  0.3431  0.5047 -1.0178
15394SOL    HW250225   9.204   3.189   0.175  1.2629 -0.2622  1.4660
15395SOL     OW50226   9.478   0.635   6.801 -0.4194  0.0153  0.0298
15395SOL    HW150227   9.517   0.609   6.884  3.5953  0.7296 -1.3646
15395SOL    HW250228   9.450   0.725   6.815  1.0144  0.4256  0.4496
15396SOL     OW50229  10.076   9.702   0.454  0.2412 -0.2305 -0.5885
15396SOL    HW150230  10.028   9.785   0.456  1.3989  0.4599  0.1346
15396SOL    HW250231  10.168   9.728   0.443  0.6538 -1.4044 -0.1441
15397SOL     OW50232   4.538   8.776   3.932 -0.0979  0.0264 -0.2817
15397SOL    HW150233   4.530   8.755   4.025 -1.3121 -0.1442 -0.4041
15397SOL    HW250234   4.617   8.730   3.903 -0.6963 -1.4007  0.2701
15398SOL     OW50235  10.133   2.703   0.481 -0.1451 -0.0491 -0.4156
15398SOL    HW150236  10.158   2.755   0.405 -0.3503  2.1247  0.9186
15398SOL    HW250237  10.207   2.712   0.542 -0.1133 -1.5007 -0.2031
15399SOL     OW50238   9.482   7.138   4.806  0.1052 -0.2135  0.5724
15399SOL    HW150239   9.531   7.117   4.885 -2.7570 -0.0776  2.5404
15399SOL    HW250240   9.415   7.201   4.835 -0.9137  0.0483 -2.0213
15400SOL     OW50241   1.599   7.922   6.600 -0.1355 -0.3831 -0.1858
15400SOL    HW150242   1.633   8.001   6.641  0.3139 -0.8517  0.3552
15400SOL    HW250243   1.652   7.912   6.521 -1.3073  0.7761 -1.1700
15401SOL     OW50244   2.487   7.605   1.537 -0.1946 -0.3377 -0.5963
15401SOL    HW150245   2.556   7.561   1.487  0.3075  0.9723 -1.0865
15401SOL    HW250246   2.439   7.533   1.579  3.0911 -1.3090  2.0013
15402SOL     OW50247   2.473   1.649   6.075 -0.1412  0.4491 -0.2436
15402SOL    HW150248   2.415   1.627   6.148  0.9426  0.6517  0.6960
15402SOL    HW250249   2.425   1.619   5.997  0.2772 -3.4420  0.7592
15403SOL     OW50250   7.819   1.526   5.468 -0.0296 -0.1965  0.0680
15403SOL    HW150251   7.794   1.450   5.416 -0.2074 -0.2595  0.2455
15403SOL    HW250252   7.867   1.490   5.543  1.8310 -0.0064 -0.9568
15404SOL     OW50253   0.879   8.325   8.706  0.0678  0.2088  0.1112
15404SOL    HW150254   0.814   8.346   8.639  0.6357 -2.0035 -1.2032
15404SOL    HW250255   0.830   8.327   8.788 -2.0152 -2.5374 -0.9506
15405SOL     OW50256   2.168   4.448   2.636  0.0724 -0.5114  0.1904
15405SOL    HW150257   2.112   4.371   2.639  0.8388 -1.1191 -0.5742
15405SOL    HW250258   2.133   4.502   2.565 -0.9115  0.2299  1.1980
15406SOL     OW50259   7.992   0.106   9.035 -0.2482  0.3156  0.3398
15406SOL    HW150260   7.963   0.187   8.995 -0.2512  0.4573  0.6316
15406SOL    HW250261   7.948   0.037   8.985 -1.3174  0.5335  0.9629
15407SOL     OW50262   0.836   0.024   5.278  0.2169 -0.9624  0.6149
15407SOL    HW150263   0.857  -0.056   5.326  0.3454 -2.0612 -1.1537
15407SOL    HW250264   0.743   0.016   5.258  0.3071 -0.8516  0.1394
15408SOL     OW50265   7.988   3.514   1.209 -0.0516 -0.3470  0.6717
15408SOL    HW150266   8.076   3.537   1.237  0.4386 -0.7008 -0.4944
15408SOL    HW250267   7.972   3.571   1.133  0.6150 -2.6987 -1.3770
15409SOL     OW50268   2.264   9.062  10.172  0.2225  0.3204  0.3082
15409SOL    HW150269   2.170   9.052  10.181 -0.0602  0.5842 -1.8806
15409SOL    HW250270   2.294   8.977  10.139  0.6709  0.4444  0.3932
15410SOL     OW50271   6.970   0.422   2.614 -0.5017 -0.2004  0.0320
15410SOL    HW150272   6.949   0.515   2.607 -0.6959 -0.2981 -0.8347
15410SOL    HW250273   6.889   0.381   2.643  0.1424  0.1334  2.5472
15411SOL     OW50274   0.148   7.608   3.161  0.0533  0.0503  0.5349
15411SOL    HW150275   0.085   7.678   3.147 -0.5111 -0.7246 -1.0749
15411SOL    HW250276   0.190   7.629   3.245 -2.1446  0.7143  1.5260
15412SOL     OW50277   0.748   7.857   5.341 -0.4539 -0.1855 -0.0988
15412SOL    HW150278   0.763   7.951   5.351 -0.0277 -0.1865 -0.6951
15412SOL    HW250279   0.762   7.821   5.428 -2.0352  0.4842  0.4676
15413SOL     OW50280   6.338   9.828   0.829 -0.0978 -0.1030 -0.2865
15413SOL    HW150281   6.260   9.822   0.774 -1.2579  1.0812  1.1407
15413SOL    HW250282   6.305   9.856   0.914  2.0906  2.4488 -0.1607
15414SOL     OW50283   7.665   0.585   2.812 -0.5154 -0.6012 -0.3904
15414SOL    HW150284   7.744   0.635   2.836 -1.1535  0.9851 -1.3925
15414SOL    HW250285   7.609   0.591   2.889 -0.8131  0.7894 -0.6785
15415SOL     OW50286   8.221   0.246   5.797  0.2849 -0.3620  0.0186
15415SOL    HW150287   8.250   0.259   5.888 -1.4671  0.6392  0.4745
15415SOL    HW250288   8.193   0.155   5.794  0.1665 -0.3474  0.5520
15416SOL     OW50289   1.448   4.185   1.249  0.1432  0.3227  0.3014
15416SOL    HW150290   1.475   4.254   1.189  1.2235 -0.2445  0.0989
15416SOL    HW250291   1.530   4.154   1.288 -0.1167 -1.7825 -0.6570
15417SOL     OW50292  10.006   7.419   9.193 -0.1733  0.3865 -0.3249
15417SOL    HW150293   9.992   7.338   9.243 -2.4197  0.6523 -0.4228
15417SOL    HW250294  10.067   7.470   9.245  0.0495 -0.7207  0.5188
15418SOL     OW50295   9.885   1.700   7.366 -0.1802  0.6688  0.1673
15418SOL    HW150296   9.904   1.752   7.444  0.3584 -0.0114  0.4917
15418SOL    HW250297   9.805   1.653   7.387  0.1450  0.2314  0.4420
15419SOL     OW50298   2.405   5.329   7.281 -0.1417  0.6571  0.5509
15419SOL    HW150299   2.459   5.250   7.282 -0.8745  0.1478  1.5209
15419SOL    HW250300   2.439   5.383   7.352 -0.9884  0.2594  1.2778
15420SOL     OW50301   4.950   5.903   6.643  0.1448  0.0696 -0.0600
15420SOL    HW150302   4.879   5.839   6.647  0.2355  0.0186  1.4380
15420SOL    HW250303   4.991   5.889   6.557 -2.2889  0.8393 -1.4447
15421SOL     OW50304   9.390   1.114   9.057  0.6148 -0.1644  0.0766
15421SOL    HW150305   9.445   1.050   9.102 -0.2587 -0.4244  0.8102
15421SOL    HW250306   9.420   1.199   9.090  0.7967 -0.2844  0.2180
15422SOL     OW50307   0.181   5.917   9.064  0.0537 -0.1827 -0.1520
15422SOL    HW150308   0.247   5.974   9.026  0.0178  0.2703  0.4563
15422SOL    HW250309   0.208   5.904   9.155 -0.6548 -0.0452  0.0889
15423SOL     OW50310   4.830   9.398   8.132 -0.3760  0.0260 -0.3028
15423SOL    HW150311   4.846   9.431   8.043  2.2862 -0.2441 -0.0005
15423SOL    HW250312   4.905   9.342   8.151 -1.0687 -0.2354  2.0045
15424SOL     OW50313   7.069   4.001   2.621 -0.4069  0.3351 -0.6142
15424SOL    HW150314   7.138   4.057   2.658 -0.5954 -0.5930  1.2422
15424SOL    HW250315   6.988   4.034   2.660 -0.5460 -1.0153  0.3209
15425SOL     OW50316   7.449   7.102   4.202  0.0141  0.1020 -0.0106
15425SOL    HW150317   7.380   7.168   4.203  0.8768  1.0416 -0.9239
15425SOL    HW250318   7.522   7.142   4.248  0.4972 -0.2601 -0.4497
15426SOL     OW50319   0.514   7.678   2.217  0.0268  0.2415  0.3043
15426SOL    HW150320   0.587   7.671   2.156 -1.2779 -1.3934 -1.1986
15426SOL    HW250321   0.443   7.630   2.174 -2.4762  3.0907  0.8816
15427SOL     OW50322   4.473   6.491  10.136  0.3998 -0.3689 -0.1427
15427SOL    HW150323   4.389   6.469  10.094 -0.2251  1.0841  0.2940
15427SOL    HW250324   4.537   6.490  10.064  0.0592 -1.6191 -0.4608
15428SOL     OW50325   7.020   7.858   9.566  0.6393 -0.0200 -0.3108
15428SOL    HW150326   6.965   7.921   9.611  0.9471  2.1633 -2.7413
15428SOL    HW250327   7.103   7.859   9.614 -0.2102 -0.6798  1.2500
15429SOL     OW50328   2.825   3.358  10.005  0.5638  0.1908 -0.2801
15429SOL    HW150329   2.786   3.359   9.918  0.7857 -0.1969 -0.3861
15429SOL    HW250330   2.903   3.413   9.998 -0.0930  1.2048  0.0051
15430SOL     OW50331   2.997   0.847   8.541  0.6979 -0.5583 -0.0123
15430SOL    HW150332   3.066   0.817   8.482  0.7231 -0.6523  0.0638
15430SOL    HW250333   2.929   0.780   8.536 -0.2263  0.4352 -1.5113
15431SOL     OW50334   2.129   2.348   8.797  0.1350 -0.2569 -0.5435
15431SOL    HW150335   2.047   2.338   8.844 -0.3335 -1.3476 -1.5476
15431SOL    HW250336   2.195   2.358   8.866 -0.7433  0.0046  0.2819
15432SOL     OW50337   9.624   2.752   3.722  0.2918 -0.1293  0.5624
15432SOL    HW150338   9.635   2.841   3.756 -0.2934  0.2709 -0.2837
15432SOL    HW250339   9.675   2.698   3.782  2.2144  0.9852  0.0047
15433SOL     OW50340   0.042   5.703   4.034  0.3101  0.4150 -0.3439
15433SOL    HW150341   0.037   5.773   3.968  0.7266  1.0493  0.2883
15433SOL    HW250342   0.136   5.686   4.043  0.1636 -1.0315 -1.3176
15434SOL     OW50343   1.144   2.655   3.413 -0.1668 -0.4363 -0.3262
15434SOL    HW150344   1.056   2.629   3.386 -0.2418 -0.2006 -0.3048
15434SOL    HW250345   1.199   2.578   3.393 -0.4203 -0.6740 -0.1079
15435SOL     OW50346   1.712   5.241   8.902 -0.1616  0.1493  0.1902
15435SOL    HW150347   1.761   5.317   8.874 -1.1477  1.3709  1.6337
15435SOL    HW250348   1.778   5.174   8.920  0.6777  0.4174 -1.6452
15436SOL     OW50349   5.854   4.544   7.143  0.4516  0.0349 -0.4663
15436SOL    HW150350   5.772   4.580   7.175  1.1276  0.6626  0.6145
15436SOL    HW250351   5.831   4.502   7.060 -0.6706  1.5189 -0.9537
15437SOL     OW50352   9.774   7.907   8.669 -0.3133 -0.2741  0.8558
15437SOL    HW150353   9.765   7.942   8.758 -1.8798  2.4216 -0.2476
15437SOL    HW250354   9.688   7.870   8.650  0.0304 -0.8747  0.4507
15438SOL     OW50355   6.171   3.074   1.542 -0.3655 -0.0440 -0.7477
15438SOL    HW150356   6.158   3.027   1.625  0.2463  0.3408 -0.4253
15438SOL    HW250357   6.200   3.007   1.481  0.5817 -0.0882 -0.2684
15439SOL     OW50358   0.106   7.284   8.476 -0.1443  0.0138  0.0392
15439SOL    HW150359   0.189   7.310   8.516  0.6863  1.0854 -2.2018
15439SOL    HW250360   0.050   7.361   8.486  0.3352  0.5945 -1.4389
15440SOL     OW50361   6.832   3.596   7.231 -0.4224  0.0443  0.3888
15440SOL    HW150362   6.862   3.682   7.260 -0.1032 -0.1404  0.6111
15440SOL    HW250363   6.894   3.535   7.270  0.4372 -0.1672 -1.2137
15441SOL     OW50364   5.839   8.609   6.238  0.1987 -0.3408  0.1215
15441SOL    HW150365   5.887   8.551   6.181 -1.2827 -0.4774 -1.0484
15441SOL    HW250366   5.839   8.694   6.193 -2.3207 -0.8280 -0.9592
15442SOL     OW50367   8.806   3.534   7.829  0.0977  0.4780 -0.1103
15442SOL    HW150368   8.830   3.442   7.821  0.4305  0.6831 -1.6451
15442SOL    HW250369   8.847   3.562   7.912  2.0480 -0.1400 -0.8074
15443SOL     OW50370   9.641   4.365  10.084  0.1414  0.1313  0.4711
15443SOL    HW150371   9.591   4.284  10.091 -0.2960  0.4377  1.0110
15443SOL    HW250372   9.695   4.354  10.006 -0.7997 -0.1935 -0.1556
15444SOL     OW50373   6.968   7.379   5.017  0.8453 -0.4655 -0.9141
15444SOL    HW150374   7.037   7.340   4.963  1.7630 -0.4661  0.1932
15444SOL    HW250375   7.015   7.442   5.073 -0.4001  1.2387 -1.7038
15445SOL     OW50376   9.895   6.921   3.728  0.6188  0.3066  0.2443
15445SOL    HW150377   9.903   6.915   3.633 -1.5398  3.1364 -0.2456
15445SOL    HW250378   9.954   6.992   3.753  1.7353 -0.8968  1.1991
15446SOL     OW50379   5.404   2.693   0.513  0.0114  0.0655 -0.1660
15446SOL    HW150380   5.477   2.664   0.458  0.4315 -0.3711  0.6125
15446SOL    HW250381   5.419   2.786   0.526 -0.3116  0.2678 -1.1101
15447SOL     OW50382   9.684   9.148   7.828 -0.1803 -0.7377  0.0335
15447SOL    HW150383   9.779   9.162   7.821  0.0791 -1.8413  1.0672
15447SOL    HW250384   9.658   9.197   7.906 -0.6164  0.1910 -0.6748
15448SOL     OW50385   7.375   9.840   6.472  0.1056 -0.2338 -0.1157
15448SOL    HW150386   7.369   9.745   6.465  1.0211 -0.2646 -0.6815
15448SOL    HW250387   7.323   9.873   6.399 -0.6380 -0.2732  0.3806
15449SOL     OW50388   8.595   5.921   3.043  0.1738 -0.0577 -0.1640
15449SOL    HW150389   8.543   5.989   3.086  1.1594 -0.1176  1.1950
15449SOL    HW250390   8.536   5.846   3.038 -0.5979  0.5680 -0.7491
15450SOL     OW50391   4.131   3.746   3.447  0.1974 -0.5969  0.3786
15450SOL    HW150392   4.165   3.695   3.520  1.2779  0.6432  0.7845
15450SOL    HW250393   4.052   3.787   3.481 -0.2030 -1.2955  0.3173
15451SOL     OW50394   9.789   1.589   9.313  0.1058 -0.7601 -0.7038
15451SOL    HW150395   9.789   1.655   9.245  1.6023  0.6442  0.5714
15451SOL    HW250396   9.870   1.540   9.300  0.2769 -0.6487 -0.1178
15452SOL     OW50397   3.095   7.988   4.991  0.7990  0.0873 -0.2956
15452SOL    HW150398   3.032   8.042   4.943 -3.2550 -0.8620  3.2687
15452SOL    HW250399   3.081   7.899   4.957 -2.2701 -0.6336  2.3084
15453SOL     OW50400   2.578   2.053   4.119 -0.5045 -0.1075  0.2286
15453SOL    HW150401   2.642   2.103   4.170  0.8129 -1.7672  0.2860
15453SOL    HW250402   2.497   2.060   4.169 -0.3284  1.7593  0.3314
15454SOL     OW50403   6.657   6.617   3.350  0.5219  0.2902  0.4455
15454SOL    HW150404   6.591   6.643   3.285  1.9939  0.3330 -1.0993
15454SOL    HW250405   6.645   6.523   3.359  1.7856 -0.1510 -1.7244
15455SOL     OW50406   6.276   7.591   8.512  0.0969  1.3295  0.0028
15455SOL    HW150407   6.260   7.641   8.432  0.4320  2.2571  0.4931
15455SOL    HW250408   6.341   7.526   8.488  0.1201  1.5357 -0.5050
15456SOL     OW50409   8.007   4.783   4.080 -0.6017  0.2205 -0.1360
15456SOL    HW150410   7.952   4.732   4.020 -0.1681 -0.0207 -0.3303
15456SOL    HW250411   8.090   4.735   4.083  0.2248  1.5320 -1.2145
15457SOL     OW50412   7.174   9.540   5.652 -0.6306 -0.2106  0.6019
15457SOL    HW150413   7.198   9.574   5.738 -1.5464 -0.5513  1.0005
15457SOL    HW250414   7.157   9.448   5.667 -0.9548 -0.2363  0.0790
15458SOL     OW50415   3.068   2.805   4.659  0.3587  0.3222  0.1574
15458SOL    HW150416   3.131   2.764   4.601  0.3843  0.8702 -0.2096
15458SOL    HW250417   2.987   2.808   4.608 -0.3775 -1.6707  1.1210
15459SOL     OW50418   5.160   5.431   9.646 -0.0246 -0.7427 -0.2632
15459SOL    HW150419   5.234   5.386   9.606 -1.1515 -0.9680 -2.2615
15459SOL    HW250420   5.091   5.364   9.650 -1.1707  0.2845 -1.6406
15460SOL     OW50421   6.895   2.801   1.929  0.0246 -0.2102  0.4277
15460SOL    HW150422   6.879   2.891   1.959 -2.0632 -0.6874  0.8890
15460SOL    HW250423   6.952   2.811   1.853 -2.5063  1.7763 -1.3668
15461SOL     OW50424   2.906   5.511   4.435 -0.9884 -0.7534 -0.3552
15461SOL    HW150425   2.814   5.533   4.449 -0.9294  0.1497 -1.2241
15461SOL    HW250426   2.936   5.477   4.519 -2.0336 -0.7817  0.0244
15462SOL     OW50427   4.861   9.341   0.153 -0.0924  0.5261  0.2409
15462SOL    HW150428   4.876   9.247   0.155 -1.0894  0.3615  0.2851
15462SOL    HW250429   4.844   9.361   0.061  2.9821  1.1600 -0.2989
15463SOL     OW50430   3.230   9.000   4.785 -0.3149 -0.0803 -0.3083
15463SOL    HW150431   3.269   9.002   4.698 -0.8695  1.5228 -0.5616
15463SOL    HW250432   3.296   9.040   4.842 -0.1405 -0.7004 -0.0675
15464SOL     OW50433   0.762   5.156   1.877  0.9107  0.3372 -0.1734
15464SOL    HW150434   0.845   5.167   1.923  1.0755 -0.0703 -0.3633
15464SOL    HW250435   0.713   5.235   1.897  1.9592  1.3230 -1.3328
15465SOL     OW50436   9.274   5.579   5.757 -0.1507 -0.5577 -0.4754
15465SOL    HW150437   9.221   5.658   5.746 -2.0839 -1.7495 -0.0677
15465SOL    HW250438   9.212   5.511   5.784  1.9683 -1.4288  2.7957
15466SOL     OW50439   4.972   3.421   1.436 -0.2530  0.0044 -0.1234
15466SOL    HW150440   5.064   3.442   1.455 -0.5227  1.4110 -0.2412
15466SOL    HW250441   4.923   3.496   1.469 -1.4305 -0.9780  0.4364
15467SOL     OW50442   5.295   5.533   0.665  0.1179  0.0345 -0.1074
15467SOL    HW150443   5.271   5.601   0.602  0.0067  1.7615  1.6837
15467SOL    HW250444   5.379   5.501   0.635  0.8700  2.0128 -0.2662
15468SOL     OW50445   3.379   4.670   7.244 -0.3700 -0.3756 -0.5643
15468SOL    HW150446   3.339   4.704   7.324  0.4625  1.1974 -0.7661
15468SOL    HW250447   3.471   4.654   7.268 -0.4170 -1.1431 -0.8679
15469SOL     OW50448   3.540  10.098   1.357  0.6576  0.2499  0.1831
15469SOL    HW150449   3.456  10.134   1.385  0.4849 -0.3215  0.4187
15469SOL    HW250450   3.541  10.109   1.262 -0.8148 -2.0587 -0.1597
15470SOL     OW50451   5.201   8.916   4.369  0.2334 -0.3385 -0.4036
15470SOL    HW150452   5.242   9.002   4.384  0.3789 -0.5874  0.7493
15470SOL    HW250453   5.218   8.868   4.450  0.3304 -1.5323 -1.1135
15471SOL     OW50454   4.937   0.331   6.963  0.0554  0.0441 -0.4402
15471SOL    HW150455   4.868   0.270   6.934  0.9978 -1.0183 -0.5005
15471SOL    HW250456   5.014   0.276   6.977  0.2546  0.8450  2.0335
15472SOL     OW50457   3.404   7.566   6.459  0.1827 -0.5250 -0.2467
15472SOL    HW150458   3.466   7.598   6.525 -0.0342  1.0436 -0.7604
15472SOL    HW250459   3.430   7.475   6.444  1.3803 -0.3602  0.6643
15473SOL     OW50460   3.718   3.082   2.336 -0.2896  0.0535 -0.0907
15473SOL    HW150461   3.679   3.063   2.422 -1.0211  0.7418 -0.2534
15473SOL    HW250462   3.664   3.034   2.274  0.2587 -0.4668 -0.1733
15474SOL     OW50463   7.198   4.628   9.946  0.0836 -0.1841  0.4514
15474SOL    HW150464   7.190   4.646   9.853  0.5484  1.6401  0.7367
15474SOL    HW250465   7.107   4.626   9.978 -0.0766 -0.8052 -0.0052
15475SOL     OW50466   2.050   5.341   0.731 -0.4393 -0.0857 -0.2243
15475SOL    HW150467   2.129   5.288   0.740 -0.0727  0.7746  2.1573
15475SOL    HW250468   2.079   5.431   0.749 -1.4758  0.6565 -1.9729
15476SOL     OW50469   0.608   4.169   4.379  0.4238 -0.2647  0.1111
15476SOL    HW150470   0.523   4.167   4.423  0.0199  0.6125 -0.5717
15476SOL    HW250471   0.672   4.153   4.448 -0.2530 -0.0809  0.7914
15477SOL     OW50472   2.634   1.262   4.584 -0.3266 -0.5587  0.3107
15477SOL    HW150473   2.608   1.279   4.494 -0.3663  0.6638  0.5276
15477SOL    HW250474   2.716   1.214   4.577  1.6614  2.6256 -0.4680
15478SOL     OW50475   3.379   9.124   7.001  0.1339 -0.2946 -0.1795
15478SOL    HW150476   3.310   9.190   7.007  0.9029  0.6194 -1.0706
15478SOL    HW250477   3.423   9.143   6.919  0.3734 -1.9494 -0.4538
15479SOL     OW50478   7.289   9.691   2.792  0.0669 -0.0232  0.1890
15479SOL    HW150479   7.383   9.677   2.783  0.0533 -0.7649  1.0833
15479SOL    HW250480   7.268   9.657   2.879 -0.9636  0.4822  0.1488
15480SOL     OW50481   5.592   1.020   4.850  0.1711 -0.4982  0.1880
15480SOL    HW150482   5.681   1.054   4.863 -0.3521  0.0716  2.9475
15480SOL    HW250483   5.551   1.083   4.790  0.9986  0.4544  0.5911
15481SOL     OW50484   5.426   9.940   5.494  0.1985 -0.1988 -0.8134
15481SOL    HW150485   5.509   9.928   5.447  1.4245  1.4747  0.7633
15481SOL    HW250486   5.431   9.879   5.568  0.0317 -0.1157 -0.7331
15482SOL     OW50487   9.222   7.440   3.743  0.4087 -0.7489  0.1971
15482SOL    HW150488   9.299   7.495   3.755  0.5110 -1.1663  1.5428
15482SOL    HW250489   9.153   7.484   3.791  0.0820 -0.9569 -0.0778
15483SOL     OW50490  10.178   3.507   9.275  0.1761  0.1865 -0.0317
15483SOL    HW150491  10.247   3.520   9.209  0.2291  1.2198  0.2064
15483SOL    HW250492  10.099   3.489   9.223  0.2515  0.8240 -0.3856
15484SOL     OW50493   3.281   3.392   9.402  0.3341  0.1768  0.0606
15484SOL    HW150494   3.220   3.460   9.432  1.1444  0.8618  0.1911
15484SOL    HW250495   3.237   3.310   9.424 -0.7616  0.6462 -0.2923
15485SOL     OW50496   1.581   4.043   5.586 -0.5353  0.2304 -0.7329
15485SOL    HW150497   1.602   4.105   5.656  0.3643  0.6764 -1.3794
15485SOL    HW250498   1.579   4.095   5.507 -2.8687 -0.0393 -0.9098
15486SOL     OW50499   6.577   4.457   9.973 -0.4322 -0.2578 -0.2744
15486SOL    HW150500   6.668   4.437   9.993 -0.4708 -1.5862 -1.2751
15486SOL    HW250501   6.575   4.552   9.961  0.3700  0.0730  1.8522
15487SOL     OW50502   0.515   6.525   8.852  0.2415 -0.0178 -0.2615
15487SOL    HW150503   0.603   6.514   8.814 -0.0864  1.6243 -1.6236
15487SOL    HW250504   0.467   6.448   8.824  1.2744 -1.0229  0.6388
15488SOL     OW50505   5.527   2.302   1.500  0.0473  0.3165 -0.1180
15488SOL    HW150506   5.490   2.368   1.558 -0.2102  2.2741 -2.3369
15488SOL    HW250507   5.607   2.342   1.465 -0.7954  0.1011 -2.5250
15489SOL     OW50508   1.565   9.804   7.098 -0.1384  0.0528  0.1380
15489SOL    HW150509   1.476   9.768   7.105 -0.1332 -0.2430 -1.1764
15489SOL    HW250510   1.552   9.891   7.061  0.1008  0.1213  0.2172
15490SOL     OW50511   1.757   0.944   7.267  0.9608  0.3220 -0.5405
15490SOL    HW150512   1.682   0.980   7.313  2.6733  0.1601  2.6373
15490SOL    HW250513   1.792   1.017   7.215  0.1868  1.1383  0.0684
15491SOL     OW50514   0.394   1.141   1.313  0.0126  0.5607 -0.2217
15491SOL    HW150515   0.467   1.125   1.373 -0.4617  0.4019  0.3174
15491SOL    HW250516   0.337   1.065   1.324 -0.6532  1.0830 -0.0262
15492SOL     OW50517   4.080   3.870   7.957  0.1370 -0.4180  0.1193
15492SOL    HW150518   3.990   3.838   7.950  0.2134 -0.9366  1.2148
15492SOL    HW250519   4.070   3.965   7.963 -0.3087 -0.4391 -0.2000
15493SOL     OW50520   9.864   9.095   7.517 -0.8019  0.1414  0.1963
15493SOL    HW150521   9.781   9.140   7.534  1.0277  4.2638 -0.5085
15493SOL    HW250522   9.870   9.089   7.422  0.3055  1.3525  0.1561
15494SOL     OW50523   4.383   8.569   3.226 -0.3446 -0.4763 -0.1723
15494SOL    HW150524   4.432   8.501   3.272 -0.0153 -0.4058 -0.4163
15494SOL    HW250525   4.293   8.538   3.227 -0.2694 -0.6916  0.1273
15495SOL     OW50526   2.902   8.595   0.412  0.0036 -0.3032  0.1807
15495SOL    HW150527   2.921   8.679   0.455  0.3591 -0.5617  0.5492
15495SOL    HW250528   2.845   8.617   0.339  0.5161  0.3269 -0.0383
15496SOL     OW50529   4.027   8.954   3.376  0.6382  0.0610  0.7719
15496SOL    HW150530   4.104   8.898   3.368  1.9447  1.8411  0.2565
15496SOL    HW250531   3.963   8.916   3.315  1.5005 -0.8203  0.3875
15497SOL     OW50532   9.543   2.618  10.048 -0.8666  0.1584 -0.0927
15497SOL    HW150533   9.601   2.657  10.113  0.7224 -0.8431 -0.8258
15497SOL    HW250534   9.573   2.655   9.965  0.0299 -1.7496 -0.6884
15498SOL     OW50535   8.764   2.706   2.205 -0.1566 -0.6079 -0.9726
15498SOL    HW150536   8.771   2.698   2.110 -0.3791  1.7047 -1.2278
15498SOL    HW250537   8.670   2.719   2.221  0.0666  0.6976 -0.6205
15499SOL     OW50538   7.496   3.607   8.509  0.1164  0.2867  0.0059
15499SOL    HW150539   7.464   3.676   8.451 -0.0696  0.3079  0.1324
15499SOL    HW250540   7.569   3.567   8.461  0.0268  0.3683 -0.1995
15500SOL     OW50541   8.317   4.991   4.262 -0.2446 -0.3546 -0.5058
15500SOL    HW150542   8.294   4.995   4.169 -0.5957  1.6038 -0.3814
15500SOL    HW250543   8.238   5.018   4.307  0.2254 -0.3308  0.3202
15501SOL     OW50544   8.341   9.384   2.561 -0.1645 -0.0693 -0.0093
15501SOL    HW150545   8.266   9.353   2.613  0.7300 -1.9409  0.2780
15501SOL    HW250546   8.335   9.335   2.479 -0.3953  1.3266 -0.8543
15502SOL     OW50547   9.507   8.026   8.798  0.6147 -0.7092  0.2369
15502SOL    HW150548   9.421   8.020   8.840  0.3206  0.1603 -0.2214
15502SOL    HW250549   9.497   7.977   8.716  0.5848 -0.6765  0.2211
15503SOL     OW50550   6.604   7.076   2.062 -0.0083 -0.1834  0.7560
15503SOL    HW150551   6.635   7.161   2.032  0.4835 -0.5076  0.3223
15503SOL    HW250552   6.683   7.022   2.066 -0.2805 -0.5531  1.2555
15504SOL     OW50553   3.321   2.733   2.252  0.0429  0.0712  0.3954
15504SOL    HW150554   3.276   2.799   2.199 -3.5629 -0.9514  1.8641
15504SOL    HW250555   3.255   2.704   2.316  1.7218 -4.1461  0.5565
15505SOL     OW50556   1.862   5.973   9.039  0.4337 -0.2414 -0.4010
15505SOL    HW150557   1.908   5.909   9.093 -0.5089 -0.1671  0.5175
15505SOL    HW250558   1.909   6.055   9.054 -0.0211 -0.1470  0.6021
15506SOL     OW50559   7.869   2.959   9.339  0.5193  0.2428  0.1493
15506SOL    HW150560   7.787   2.954   9.389 -0.2011 -1.7246 -1.1018
15506SOL    HW250561   7.842   2.992   9.253  1.1869  0.3968 -0.0041
15507SOL     OW50562   5.895   9.897   2.389 -0.1534 -0.1958  0.3326
15507SOL    HW150563   5.917   9.944   2.309 -0.8476  0.4059  0.4899
15507SOL    HW250564   5.855   9.815   2.359 -3.4976  1.3852 -0.0513
15508SOL     OW50565   3.666   1.941  10.177 -0.4396  0.3674 -0.2377
15508SOL    HW150566   3.655   1.857  10.220 -0.3621  0.5926  0.2358
15508SOL    HW250567   3.603   1.940  10.105  1.5445 -1.2619 -2.0898
15509SOL     OW50568   3.305   8.052   5.178 -0.0339 -0.1356 -0.5085
15509SOL    HW150569   3.300   7.957   5.178 -0.1338 -0.1611 -2.1439
15509SOL    HW250570   3.237   8.080   5.117 -0.6495  1.0491  0.6762
15510SOL     OW50571   1.721   3.143   8.054 -0.2574 -0.0119 -0.5626
15510SOL    HW150572   1.732   3.217   7.994  1.5088  0.4258  0.2323
15510SOL    HW250573   1.677   3.076   8.003 -0.5702  1.0517 -1.7399
15511SOL     OW50574   1.653   1.889   4.483  0.1208  0.0996  0.2880
15511SOL    HW150575   1.668   1.973   4.527  1.2632  0.0481  0.0096
15511SOL    HW250576   1.568   1.900   4.440  0.4584  1.2844 -0.1252
15512SOL     OW50577   5.543   5.671   9.098  0.0651  0.0228 -0.0327
15512SOL    HW150578   5.470   5.614   9.124 -1.9040  1.1372 -2.6358
15512SOL    HW250579   5.603   5.614   9.051  0.9189 -0.8861  2.0285
15513SOL     OW50580   9.738   7.002   9.207 -0.6960  0.0814  0.7922
15513SOL    HW150581   9.672   6.939   9.236 -1.0844 -0.1078 -0.4398
15513SOL    HW250582   9.780   6.960   9.132  0.4977  0.4133  1.2555
15514SOL     OW50583   6.660   1.803   3.535  0.2247  0.9380  0.0755
15514SOL    HW150584   6.565   1.798   3.532  0.2453  0.8281 -1.0282
15514SOL    HW250585   6.683   1.868   3.468  0.9812 -0.1869 -0.8011
15515SOL     OW50586   1.070   3.031   7.582 -0.0849  0.4039  0.2996
15515SOL    HW150587   1.033   3.006   7.667 -2.0493  1.8444 -0.0682
15515SOL    HW250588   1.004   3.087   7.542  0.8240 -0.1698 -2.1813
15516SOL     OW50589   7.260   0.645   7.435 -0.6084  0.5819 -0.3568
15516SOL    HW150590   7.268   0.732   7.397 -0.9996  0.2498 -1.2096
15516SOL    HW250591   7.206   0.596   7.373 -0.0465 -0.3870 -0.1023
15517SOL     OW50592   6.690   3.633   2.310  0.2390 -0.0253 -0.7224
15517SOL    HW150593   6.781   3.652   2.331  0.3480  0.8476 -1.8775
15517SOL    HW250594   6.684   3.538   2.313  0.3242 -0.0634  2.7005
15518SOL     OW50595   0.724   2.111   8.395 -0.0256 -0.4335  0.4131
15518SOL    HW150596   0.815   2.134   8.379  0.4351 -0.2755  2.9097
15518SOL    HW250597   0.680   2.194   8.411 -0.2706 -0.6159  0.7029
15519SOL     OW50598   5.497   6.604   0.685 -0.0559 -0.2434 -0.4859
15519SOL    HW150599   5.456   6.665   0.746  1.8397  1.1394 -0.5203
15519SOL    HW250600   5.529   6.533   0.740 -0.3515 -0.1406 -0.1748
15520SOL     OW50601   7.756   9.452   2.932 -0.5324  0.2203 -0.5448
15520SOL    HW150602   7.698   9.443   3.008  0.6067  0.8190  0.4206
15520SOL    HW250603   7.732   9.379   2.875  0.1612 -1.6300  1.4481
15521SOL     OW50604   4.518   4.873   2.061 -0.1176 -0.0203 -0.8710
15521SOL    HW150605   4.437   4.863   2.111  1.3446 -0.0529  1.6768
15521SOL    HW250606   4.495   4.934   1.991 -2.5238 -0.6761 -0.7509
15522SOL     OW50607   4.066   3.022   2.975  0.0776 -0.5414  0.1367
15522SOL    HW150608   4.033   3.022   2.885 -1.5352 -0.9181  0.6815
15522SOL    HW250609   4.018   3.094   3.017 -0.3597 -1.3502  1.0590
15523SOL     OW50610   2.247   2.478   1.987  0.1150 -0.2770 -0.1728
15523SOL    HW150611   2.161   2.469   1.945 -0.9745  2.0028  1.3241
15523SOL    HW250612   2.281   2.562   1.954  0.8076 -0.1555  0.8149
15524SOL     OW50613   8.527   6.530   3.094 -0.0409 -0.1813 -0.2419
15524SOL    HW150614   8.448   6.480   3.114 -0.0936  0.1188  0.3217
15524SOL    HW250615   8.596   6.463   3.089  0.0587 -0.2490  1.4347
15525SOL     OW50616   1.812   2.908   3.881  0.3160 -0.1117  0.1995
15525SOL    HW150617   1.849   2.820   3.886 -0.1175 -0.4771 -1.9268
15525SOL    HW250618   1.873   2.963   3.930  2.7150 -0.9923 -1.6118
15526SOL     OW50619   3.311   8.399   7.260  0.0068 -0.1318 -0.3748
15526SOL    HW150620   3.405   8.416   7.252 -0.2883  2.2720  0.5807
15526SOL    HW250621   3.269   8.478   7.228 -1.6785 -0.8512 -0.0347
15527SOL     OW50622   9.801   1.995   8.295 -0.1709  0.3783  0.3818
15527SOL    HW150623   9.880   1.959   8.334  0.7275  1.6216 -0.2353
15527SOL    HW250624   9.830   2.074   8.250 -1.1880 -0.7974 -2.5579
15528SOL     OW50625   4.727   4.396   3.913  0.3780  0.3565 -0.0985
15528SOL    HW150626   4.781   4.366   3.987 -2.4930 -1.6990  1.3595
15528SOL    HW250627   4.773   4.364   3.835  2.1595  0.2670  0.9446
15529SOL     OW50628   9.486   3.616   0.560 -0.0934  0.2918 -0.2479
15529SOL    HW150629   9.549   3.587   0.495 -0.3478 -1.9558  0.4386
15529SOL    HW250630   9.538   3.632   0.639 -0.1165  0.6319 -0.2966
15530SOL     OW50631   1.145   2.185   1.246  0.2602 -0.1346 -0.5165
15530SOL    HW150632   1.193   2.103   1.234  0.4912  0.0261 -0.6983
15530SOL    HW250633   1.201   2.239   1.302 -0.3137 -0.4538  0.3873
15531SOL     OW50634   1.151   4.286   5.871 -0.0457 -0.5218 -0.5198
15531SOL    HW150635   1.067   4.326   5.850  0.6032  1.4091  0.3661
15531SOL    HW250636   1.184   4.253   5.787 -0.9196  0.2192 -1.1672
15532SOL     OW50637   6.881   2.538   5.215  0.1408  0.5037  0.0723
15532SOL    HW150638   6.875   2.479   5.289 -0.2591  0.8598  0.3257
15532SOL    HW250639   6.927   2.488   5.148  1.4315  0.5216  0.9084
15533SOL     OW50640   5.622   9.755   0.154 -0.7603 -0.0925 -0.6394
15533SOL    HW150641   5.658   9.701   0.225 -1.1421 -0.6068 -0.8391
15533SOL    HW250642   5.611   9.841   0.194  1.8337  0.4365 -0.8822
15534SOL     OW50643   7.744   4.327  10.259  0.3828 -0.1762 -0.2020
15534SOL    HW150644   7.675   4.264  10.283  2.0277 -0.7408  3.8090
15534SOL    HW250645   7.821   4.273  10.242  1.5321  0.5721  2.2055
15535SOL     OW50646   5.791   1.790   4.983 -0.2408  0.8174 -0.3856
15535SOL    HW150647   5.886   1.793   4.994 -0.2895  0.1861  0.3005
15535SOL    HW250648   5.778   1.787   4.889  0.5717 -2.2224 -0.5271
15536SOL     OW50649   9.369   8.702   0.973  0.0462 -1.0817  0.0459
15536SOL    HW150650   9.395   8.793   0.960 -1.7604 -0.3917  0.8740
15536SOL    HW250651   9.394   8.658   0.891 -1.4095  0.7530 -1.4889
15537SOL     OW50652   3.850   0.832   0.914 -0.2295  0.1930  0.4987
15537SOL    HW150653   3.754   0.837   0.914 -0.2066  0.9764  1.9875
15537SOL    HW250654   3.872   0.803   0.825 -1.8764 -0.9779  0.4304
15538SOL     OW50655   9.091   2.617  10.232  0.3792  0.1893 -0.5417
15538SOL    HW150656   9.163   2.673  10.204  0.8885 -0.8606 -1.4210
15538SOL    HW250657   9.129   2.560  10.299 -0.1589  0.9358  0.4186
15539SOL     OW50658   2.681   1.136   7.271  0.2388  1.3097  0.2144
15539SOL    HW150659   2.589   1.120   7.291  0.3502 -0.2750 -0.3829
15539SOL    HW250660   2.690   1.110   7.179  1.0322  2.6424 -0.1104
15540SOL     OW50661   5.252   6.672   2.886 -0.1067  0.6970 -0.1736
15540SOL    HW150662   5.246   6.592   2.937 -1.0672  0.4851 -0.6108
15540SOL    HW250663   5.242   6.742   2.950 -1.1864  0.4331 -0.0413
15541SOL     OW50664   0.047   8.484   6.381  0.0900 -0.2380  0.1207
15541SOL    HW150665   0.126   8.449   6.422 -0.5321 -1.0460  0.6648
15541SOL    HW250666   0.020   8.417   6.318 -1.1742 -0.8556  1.2566
15542SOL     OW50667   6.517   6.453   7.552  0.0220  0.0664 -0.2245
15542SOL    HW150668   6.570   6.483   7.478  0.6838 -0.3025  0.0921
15542SOL    HW250669   6.554   6.498   7.628 -1.8622  1.9586 -0.3303
15543SOL     OW50670   4.177   3.402   1.535  0.8071 -0.5385  0.6543
15543SOL    HW150671   4.234   3.383   1.461  0.1930 -0.0486  0.0500
15543SOL    HW250672   4.118   3.327   1.541 -0.4719  0.3370 -0.6347
15544SOL     OW50673   1.400   8.687   7.030 -0.3285 -0.2964 -0.1799
15544SOL    HW150674   1.414   8.782   7.021 -3.0576  0.2961  0.8643
15544SOL    HW250675   1.371   8.675   7.120 -0.9482 -1.9828 -0.5604
15545SOL     OW50676   7.496   9.015   4.328 -0.0454 -0.2172  0.0620
15545SOL    HW150677   7.469   8.988   4.239 -0.6187  0.8004 -0.0885
15545SOL    HW250678   7.505   8.933   4.376  2.1600 -0.9324 -1.4398
15546SOL     OW50679   7.200   3.575   8.666  0.1748  0.4033  0.4307
15546SOL    HW150680   7.170   3.488   8.642 -0.9731  1.4155 -2.2012
15546SOL    HW250681   7.288   3.562   8.701  0.1116 -1.7687 -0.1247
15547SOL     OW50682   9.194  10.125   6.681 -0.1846  0.3141 -0.0029
15547SOL    HW150683   9.256  10.130   6.609  0.0689 -0.4682  0.1481
15547SOL    HW250684   9.178  10.216   6.706  0.2967  0.5535 -0.5511
15548SOL     OW50685   0.270   3.444   8.655  0.4357 -0.5376 -0.2614
15548SOL    HW150686   0.220   3.405   8.726 -0.0137  0.8928  0.2457
15548SOL    HW250687   0.361   3.422   8.674  0.3489  0.0447  0.9210
15549SOL     OW50688   1.474   3.239   7.811  0.0465 -0.0293  0.1762
15549SOL    HW150689   1.382   3.215   7.798  0.2095 -1.4020  1.3230
15549SOL    HW250690   1.475   3.284   7.895  0.8809 -3.4802  2.2228
15550SOL     OW50691   9.323   0.979   8.363 -0.3219  0.6055  0.3807
15550SOL    HW150692   9.396   0.940   8.316 -0.2176 -0.9351  1.7159
15550SOL    HW250693   9.245   0.946   8.318 -0.2190  1.4058 -0.4032
15551SOL     OW50694   7.776   7.409   0.521 -0.4690 -0.2493  0.1270
15551SOL    HW150695   7.748   7.321   0.498 -0.5081 -0.0452 -0.6539
15551SOL    HW250696   7.871   7.401   0.536 -0.4666 -0.4221  0.0223
15552SOL     OW50697   4.242   0.314   0.290  0.4719 -0.4156  0.2326
15552SOL    HW150698   4.242   0.405   0.260 -1.0277  0.1454  1.8217
15552SOL    HW250699   4.253   0.263   0.209  0.7077  1.1408 -0.7665
15553SOL     OW50700   6.566   0.570   7.363  0.0281 -0.1673 -0.4258
15553SOL    HW150701   6.499   0.597   7.300  0.0443 -0.6653 -0.6653
15553SOL    HW250702   6.543   0.615   7.444 -1.2369 -1.1746 -0.1932
15554SOL     OW50703   7.016   6.471   5.596 -0.2369  0.1595  0.0023
15554SOL    HW150704   7.107   6.453   5.618 -0.5084 -1.0178  0.2216
15554SOL    HW250705   6.967   6.444   5.673 -0.8230  0.1967 -0.3555
15555SOL     OW50706   5.771   9.166   1.252 -0.0868  0.4228 -0.0908
15555SOL    HW150707   5.794   9.234   1.189 -2.3435  1.2673 -0.0788
15555SOL    HW250708   5.733   9.096   1.199  0.3905  0.0156  0.0963
15556SOL     OW50709   2.702   1.638   8.836 -0.1570 -0.3856 -0.6218
15556SOL    HW150710   2.695   1.559   8.891 -0.2729  0.1933  0.2174
15556SOL    HW250711   2.770   1.616   8.772  1.5204 -0.3453  1.0447
15557SOL     OW50712   9.959   5.522   8.687  0.1895  0.2301 -0.2324
15557SOL    HW150713  10.001   5.444   8.723  0.3422  0.4538  0.0668
15557SOL    HW250714   9.877   5.530   8.737  0.0064  0.0638 -0.4989
15558SOL     OW50715   7.289   3.827   5.587 -0.0256  0.4477  0.2582
15558SOL    HW150716   7.352   3.755   5.587 -0.4095  0.0819  1.5342
15558SOL    HW250717   7.326   3.892   5.528  0.6421 -0.5314 -0.4291
15559SOL     OW50718   7.363   4.570   6.703 -0.0575 -0.6837  0.5505
15559SOL    HW150719   7.403   4.610   6.626 -1.6461 -0.9346 -0.4639
15559SOL    HW250720   7.424   4.587   6.775  0.7175  0.9300 -0.4535
15560SOL     OW50721   1.486   7.562   8.865 -0.4421 -0.0086  0.1462
15560SOL    HW150722   1.478   7.567   8.770  0.6335 -0.0853  0.0398
15560SOL    HW250723   1.444   7.642   8.896  0.6404  0.8479 -0.5017
15561SOL     OW50724   7.560   6.979   7.460  0.2805 -0.3547 -0.1104
15561SOL    HW150725   7.628   7.025   7.509  1.1815  0.0650 -1.6834
15561SOL    HW250726   7.599   6.962   7.374 -1.9010  0.7705 -1.4311
15562SOL     OW50727   3.143   3.390   6.704  0.2611 -0.3396 -0.2226
15562SOL    HW150728   3.125   3.469   6.755  1.4808  0.1490 -0.5001
15562SOL    HW250729   3.211   3.345   6.754 -1.0290 -1.6936  0.3917
15563SOL     OW50730   4.056  10.213   6.486 -0.1509  0.0883  0.0170
15563SOL    HW150731   4.015  10.154   6.423  1.3822 -0.0006 -0.9688
15563SOL    HW250732   4.084  10.288   6.433  1.6222 -0.2206  0.4524
15564SOL     OW50733   4.818   0.124   7.185  0.0626 -0.0242  0.2311
15564SOL    HW150734   4.762   0.078   7.249  1.5819 -0.7644  1.0835
15564SOL    HW250735   4.777   0.106   7.101 -0.3058 -1.6034  0.7079
15565SOL     OW50736   3.751   1.390   5.879 -0.6811 -0.2256 -0.1669
15565SOL    HW150737   3.731   1.473   5.836 -1.3221 -0.0931  0.3790
15565SOL    HW250738   3.682   1.330   5.850  0.5638 -0.9924 -1.6886
15566SOL     OW50739   4.569   3.400   4.436 -0.1863  0.0178  0.0638
15566SOL    HW150740   4.644   3.397   4.376  0.5724  1.2555  0.8786
15566SOL    HW250741   4.576   3.320   4.487  0.7905  0.2644  0.3411
15567SOL     OW50742   9.455   7.126   2.456 -0.1725 -0.0809 -0.7087
15567SOL    HW150743   9.494   7.038   2.463  0.9634  0.4985  0.7753
15567SOL    HW250744   9.487   7.159   2.372  2.9845  0.4925  0.5684
15568SOL     OW50745   9.231   4.070   3.805  0.3891 -0.0437 -0.8420
15568SOL    HW150746   9.212   3.994   3.859 -0.5062 -0.4145 -1.6620
15568SOL    HW250747   9.322   4.057   3.778  0.7033 -0.0824  0.1737
15569SOL     OW50748   9.080   6.199   0.344 -0.1887 -0.0371  0.0134
15569SOL    HW150749   9.078   6.114   0.389  1.2587  0.1154  0.4076
15569SOL    HW250750   9.036   6.183   0.261  0.5752 -1.3324 -0.1702
15570SOL     OW50751   3.884   6.699   3.420 -0.2791 -0.4820  0.0424
15570SOL    HW150752   3.916   6.692   3.510  0.4068 -1.3861 -0.2485
15570SOL    HW250753   3.906   6.614   3.381  0.6381  0.3575 -1.3564
15571SOL     OW50754   8.198   8.990   7.842  0.1967 -0.1454 -0.5652
15571SOL    HW150755   8.184   9.032   7.927 -0.3991 -0.4564 -0.5044
15571SOL    HW250756   8.203   8.897   7.862  1.0741 -0.1440 -0.7538
15572SOL     OW50757   6.960   4.996   8.317 -0.1120  0.4768  0.4031
15572SOL    HW150758   6.996   4.929   8.260  1.6581  1.0546  0.8013
15572SOL    HW250759   6.930   4.948   8.394 -1.0091 -0.0981 -0.2661
15573SOL     OW50760   9.409   4.640   8.031 -0.3068  1.1548 -0.6127
15573SOL    HW150761   9.412   4.720   7.979  1.5032  1.1039 -0.6730
15573SOL    HW250762   9.454   4.663   8.113 -1.1868  0.6223  0.0429
15574SOL     OW50763   2.098   0.814   9.967 -0.2103 -0.6379 -0.8447
15574SOL    HW150764   2.063   0.795   9.880 -0.3917  1.1086 -1.1855
15574SOL    HW250765   2.033   0.870  10.007 -0.1924 -1.5403  0.5056
15575SOL     OW50766   2.565   0.644   1.697  0.1741  0.0074 -0.0167
15575SOL    HW150767   2.568   0.708   1.768  1.0321  1.3461 -1.2154
15575SOL    HW250768   2.478   0.654   1.659  0.4975  0.8833 -0.5524
15576SOL     OW50769   6.417   1.688   4.888  0.4149 -0.2700  0.0100
15576SOL    HW150770   6.472   1.755   4.929  2.2479 -1.3047 -0.6449
15576SOL    HW250771   6.385   1.635   4.961  1.4445 -0.4864  0.3146
15577SOL     OW50772   7.301   3.532  10.209 -1.0024  0.2383 -0.1023
15577SOL    HW150773   7.351   3.470  10.262 -0.8847  1.0338  0.7509
15577SOL    HW250774   7.366   3.588  10.168 -1.1645  0.9936  0.6544
15578SOL     OW50775   5.586   9.232   9.613 -0.1992  0.1365 -0.9464
15578SOL    HW150776   5.593   9.143   9.649 -0.1510  0.0816 -1.0900
15578SOL    HW250777   5.523   9.276   9.670  1.7229  0.8357  0.7749
15579SOL     OW50778   1.124   0.125   0.889  0.5261  0.0370  0.1521
15579SOL    HW150779   1.214   0.155   0.873  0.3388  0.2603 -0.5178
15579SOL    HW250780   1.076   0.205   0.910  0.0495  0.2256 -1.5239
15580SOL     OW50781   1.637   6.419   2.965  0.3614  0.0903  0.2089
15580SOL    HW150782   1.590   6.496   2.931 -0.3437 -0.7212 -0.7196
15580SOL    HW250783   1.569   6.365   3.004  0.5965 -0.8237 -0.6146
15581SOL     OW50784   2.326   9.858   0.418 -0.0458  0.4132 -0.1964
15581SOL    HW150785   2.408   9.861   0.368  1.1639  0.5831  1.7116
15581SOL    HW250786   2.297   9.767   0.410 -1.2741  0.9534 -3.2366
15582SOL     OW50787  10.143   8.054   1.442 -0.3163  0.1868  0.5605
15582SOL    HW150788  10.061   8.075   1.486 -2.0784  0.6755 -2.6499
15582SOL    HW250789  10.176   8.138   1.411  1.2034 -0.0674  1.4182
15583SOL     OW50790   0.262   9.779   7.566 -0.0668  0.0777 -0.3854
15583SOL    HW150791   0.273   9.692   7.529  1.1458  0.0991 -0.1325
15583SOL    HW250792   0.168   9.789   7.579 -0.4550 -0.2537 -2.6594
15584SOL     OW50793   0.283   3.079   7.290 -0.2564 -0.1029 -0.2010
15584SOL    HW150794   0.254   3.095   7.200 -1.5437  0.3136  0.2590
15584SOL    HW250795   0.361   3.025   7.281 -0.7732 -0.6722 -1.5497
15585SOL     OW50796   3.106   7.192   7.458 -0.2242  0.0593 -0.1694
15585SOL    HW150797   3.015   7.185   7.429 -0.5146  0.3818  0.6419
15585SOL    HW250798   3.124   7.109   7.501 -0.6347  0.5627  1.0191
15586SOL     OW50799   7.311   4.993   3.507  0.2994 -0.3000  0.4715
15586SOL    HW150800   7.259   4.990   3.427  0.8870  0.8621  0.0194
15586SOL    HW250801   7.259   5.048   3.567  0.7738  0.5045  0.1684
15587SOL     OW50802   8.179   1.394   1.975 -0.2987  0.2052  0.8419
15587SOL    HW150803   8.118   1.364   1.907 -0.9824  0.3521  1.3741
15587SOL    HW250804   8.126   1.395   2.055 -0.1776  2.3731  0.9405
15588SOL     OW50805   9.288   8.043   4.088 -0.8371  0.1138 -0.5952
15588SOL    HW150806   9.278   8.071   4.179  1.0923  0.8710 -0.5666
15588SOL    HW250807   9.227   8.099   4.040 -2.2748 -0.6556  0.2407
15589SOL     OW50808   0.739   0.129   7.048  0.4251  0.4917  0.2926
15589SOL    HW150809   0.769   0.207   7.095 -1.1922  1.3294  0.0246
15589SOL    HW250810   0.717   0.066   7.117 -0.7552  1.2580  0.6456
15590SOL     OW50811   0.879   4.191   2.891  0.3539  0.5963 -0.6916
15590SOL    HW150812   0.838   4.267   2.933  3.7099  1.3871  1.5305
15590SOL    HW250813   0.940   4.228   2.828 -0.1414 -0.4211 -1.7967
15591SOL     OW50814   5.573   5.738   5.956 -0.0250  0.1538 -0.2065
15591SOL    HW150815   5.487   5.746   5.915 -0.2413 -0.2766  0.1512
15591SOL    HW250816   5.593   5.827   5.985  0.0699  0.4342 -1.1084
15592SOL     OW50817   6.548   4.659   5.552 -0.4707 -0.5695 -0.4913
15592SOL    HW150818   6.513   4.590   5.609  0.9403 -0.5146  0.4978
15592SOL    HW250819   6.610   4.706   5.607  1.3750 -0.8504 -2.2229
15593SOL     OW50820   9.115   7.622   0.651  0.0043 -0.4792  0.3902
15593SOL    HW150821   9.141   7.570   0.727 -0.1473 -2.2242 -0.7160
15593SOL    HW250822   9.183   7.688   0.643  0.3451 -0.6385  1.6662
15594SOL     OW50823   4.805   6.075   7.633  0.2015  0.0276 -0.0425
15594SOL    HW150824   4.871   6.041   7.573  0.0224 -0.5641  0.0926
15594SOL    HW250825   4.825   6.169   7.640  0.7628 -0.0683 -0.3288
15595SOL     OW50826   8.799  10.132   0.463 -0.1236 -0.4775  0.1605
15595SOL    HW150827   8.868  10.184   0.421 -0.5517  1.2425  1.4777
15595SOL    HW250828   8.724  10.140   0.403 -0.4252  1.1346  0.6988
15596SOL     OW50829   9.165   0.520   7.484  0.0256  0.0530 -0.1951
15596SOL    HW150830   9.104   0.488   7.550 -1.5186 -0.3950 -1.7789
15596SOL    HW250831   9.158   0.458   7.411  0.2987  1.5172 -1.5254
15597SOL     OW50832   9.610   1.073   1.342  0.0489 -0.0293  0.1492
15597SOL    HW150833   9.626   1.028   1.425  1.1905  2.0201  1.1126
15597SOL    HW250834   9.695   1.073   1.298 -0.3559 -0.3554 -0.6378
15598SOL     OW50835   7.291   6.666   8.641  0.3572  0.3822 -0.4100
15598SOL    HW150836   7.296   6.665   8.737 -0.7011 -0.6472 -0.3360
15598SOL    HW250837   7.378   6.640   8.612  0.7280  0.8309  0.2650
15599SOL     OW50838   4.837   5.455   8.962 -0.1450  0.3605  0.0855
15599SOL    HW150839   4.916   5.491   8.922 -1.5674  3.7498  0.0281
15599SOL    HW250840   4.784   5.424   8.888 -0.1809  0.9472 -0.1345
15600SOL     OW50841   1.942   8.712   4.595  0.5917 -0.1196  0.1522
15600SOL    HW150842   1.953   8.709   4.500 -2.1189  0.8289 -0.3006
15600SOL    HW250843   1.986   8.792   4.623 -0.5160  0.8184 -0.7006
15601SOL     OW50844   8.788   1.364   6.397  0.1438 -0.4063 -0.3834
15601SOL    HW150845   8.864   1.361   6.339  1.0052 -2.0416  0.7451
15601SOL    HW250846   8.824   1.351   6.485 -1.3515 -0.2914  0.2815
15602SOL     OW50847   4.511   9.910   6.188  0.6081  0.1517 -0.6707
15602SOL    HW150848   4.468   9.917   6.103 -0.0251  0.5379 -0.3244
15602SOL    HW250849   4.439   9.899   6.251  1.0225  0.5631 -0.1073
15603SOL     OW50850   2.722   7.145   1.049  0.3402  0.1154  0.1100
15603SOL    HW150851   2.684   7.171   0.965  0.5225  1.3810  0.4002
15603SOL    HW250852   2.647   7.121   1.104 -0.1255  2.7019  0.7183
15604SOL     OW50853   5.177   7.870   0.970 -0.1485 -0.3151  0.0474
15604SOL    HW150854   5.096   7.888   0.923 -1.1353 -0.6710  1.5479
15604SOL    HW250855   5.188   7.775   0.964 -1.0792 -0.5706  1.6977
15605SOL     OW50856   5.235   6.823   4.392 -0.2782 -0.1056 -0.0234
15605SOL    HW150857   5.302   6.878   4.352 -0.3589 -0.5013 -0.7136
15605SOL    HW250858   5.239   6.845   4.485  0.6008  0.1008 -0.0979
15606SOL     OW50859   4.991   0.690   6.711  0.0848  0.0777 -0.7467
15606SOL    HW150860   4.976   0.645   6.794  0.3131  1.1678 -0.1074
15606SOL    HW250861   4.986   0.620   6.645  0.3369 -0.8666  0.2102
15607SOL     OW50862   0.154   6.776   4.145 -0.4993  0.4660  0.0905
15607SOL    HW150863   0.146   6.871   4.159 -0.5579  0.2404  1.8644
15607SOL    HW250864   0.106   6.760   4.064 -2.0773  1.7145  0.7111
15608SOL     OW50865   3.143   8.875   7.672  0.1550  0.5244 -0.1095
15608SOL    HW150866   3.216   8.847   7.617 -0.9167 -0.0349 -1.2990
15608SOL    HW250867   3.180   8.879   7.761  1.4774 -0.2909 -0.5950
15609SOL     OW50868   1.366   1.860   0.596  0.4806 -0.3917 -0.2474
15609SOL    HW150869   1.326   1.781   0.561  0.0519  0.1217 -0.9580
15609SOL    HW250870   1.326   1.931   0.546 -0.0876  0.3750  1.2173
15610SOL     OW50871   6.703   5.770   8.768 -0.3124 -0.3882 -0.1840
15610SOL    HW150872   6.667   5.814   8.691 -1.0236 -2.2321 -0.9495
15610SOL    HW250873   6.627   5.745   8.819  0.1641  1.3044  1.4757
15611SOL     OW50874   4.710   9.955   2.179 -0.1126  0.3449  0.4543
15611SOL    HW150875   4.623   9.979   2.147  0.1030 -0.1249 -0.5179
15611SOL    HW250876   4.759   9.932   2.100  1.0626  1.1002  0.9347
15612SOL     OW50877   5.278   4.876   8.190 -0.0104  0.3480 -0.2309
15612SOL    HW150878   5.342   4.832   8.134 -0.1650 -1.5238  0.9456
15612SOL    HW250879   5.245   4.806   8.247 -0.5352  1.9598  1.5417
15613SOL     OW50880   0.436   4.165   8.396 -0.9999  0.0173 -0.2457
15613SOL    HW150881   0.345   4.195   8.391 -1.3048 -0.8880 -0.2870
15613SOL    HW250882   0.482   4.237   8.440 -1.7905  0.3651  0.0443
15614SOL     OW50883   7.633   3.503   1.879 -0.7701 -0.2118  0.1273
15614SOL    HW150884   7.541   3.504   1.905 -0.2805 -0.4076  2.0154
15614SOL    HW250885   7.681   3.524   1.959  0.8523 -0.2859 -0.7718
15615SOL     OW50886   0.056   3.684   8.261  0.2614 -0.4309 -0.1600
15615SOL    HW150887   0.146   3.714   8.273  0.2817 -0.2706 -0.6644
15615SOL    HW250888   0.025   3.663   8.349  1.2194 -1.7380 -0.1007
15616SOL     OW50889   2.344   8.962   5.443 -0.7245  0.1252  0.0391
15616SOL    HW150890   2.336   9.043   5.493  0.8254  0.2148  0.2134
15616SOL    HW250891   2.326   8.987   5.353  0.8865  0.9454 -0.0893
15617SOL     OW50892   2.363   8.345   0.078 -0.4672 -0.0286  0.8932
15617SOL    HW150893   2.433   8.348   0.143 -0.4709  2.2959  0.8605
15617SOL    HW250894   2.302   8.413   0.106 -0.5886  0.8751 -1.3995
15618SOL     OW50895   8.378   3.827   7.828  0.3365 -0.0878 -0.0620
15618SOL    HW150896   8.442   3.897   7.842 -0.8445  0.5874  2.7107
15618SOL    HW250897   8.411   3.778   7.752  2.9494  1.4873 -0.0463
15619SOL     OW50898   0.002   0.042   2.851 -0.1136  0.3347  0.3487
15619SOL    HW150899  -0.076  -0.011   2.867 -0.3639 -0.1212 -2.0515
15619SOL    HW250900  -0.023   0.131   2.879 -1.3025  0.0813  0.1348
15620SOL     OW50901   4.137   7.094   8.964  0.1251  0.2463  0.5065
15620SOL    HW150902   4.104   7.022   8.910 -0.4072  0.5147  0.4621
15620SOL    HW250903   4.135   7.060   9.053  1.5784 -0.4083  0.3126
15621SOL     OW50904   9.944   0.130   9.436 -0.3431 -0.0949 -0.5228
15621SOL    HW150905   9.892   0.195   9.483  0.0537  0.5888 -1.0004
15621SOL    HW250906   9.912   0.046   9.467 -0.7408  0.3318  0.2535
15622SOL     OW50907   4.279   5.858   4.190 -0.3715 -0.1393 -0.4569
15622SOL    HW150908   4.331   5.860   4.270 -0.7308  0.8569 -0.2273
15622SOL    HW250909   4.287   5.947   4.154 -3.1666  0.6062  0.4586
15623SOL     OW50910   9.765   0.582   7.281  0.2776 -0.1221  0.3936
15623SOL    HW150911   9.795   0.504   7.328 -2.5184 -0.0356  2.5342
15623SOL    HW250912   9.700   0.549   7.219 -1.4646  0.4817  1.8170
15624SOL     OW50913   5.073   7.397   2.027  0.4918 -0.0682  0.2639
15624SOL    HW150914   5.047   7.455   1.956  0.7936 -0.5805 -0.2678
15624SOL    HW250915   4.993   7.387   2.080  0.7460  1.8149  1.0824
15625SOL     OW50916   6.379   3.995   9.502  0.0193 -0.2057 -0.1724
15625SOL    HW150917   6.336   4.080   9.494  0.6715 -0.0098 -1.9654
15625SOL    HW250918   6.328   3.949   9.569 -1.3964  0.9575 -0.4007
15626SOL     OW50919   8.164   4.003   1.438 -0.3469  0.4360 -0.1664
15626SOL    HW150920   8.172   3.998   1.533 -1.5066 -0.7256 -0.0988
15626SOL    HW250921   8.252   3.986   1.405 -0.3516 -1.4800  0.6725
15627SOL     OW50922   2.340   2.463   2.687  0.5245  0.2645  0.1542
15627SOL    HW150923   2.373   2.463   2.597  1.5847 -1.5509  0.5120
15627SOL    HW250924   2.244   2.463   2.677  0.6148 -1.0635 -1.0149
15628SOL     OW50925   7.476   7.497   1.997  0.1534 -0.3018  0.0105
15628SOL    HW150926   7.383   7.503   1.976  0.1692 -1.1390 -0.3781
15628SOL    HW250927   7.515   7.457   1.919  0.3985 -2.4839  1.1708
15629SOL     OW50928   0.708   9.862   0.281 -0.0777 -0.2317 -0.3497
15629SOL    HW150929   0.773   9.793   0.293 -0.9386 -0.7669  1.5866
15629SOL    HW250930   0.720   9.891   0.191  1.5786 -1.5952 -0.6100
15630SOL     OW50931   4.655   8.032   3.273  0.0206  0.3814  0.1801
15630SOL    HW150932   4.736   8.012   3.226  2.2642  3.9566  2.0187
15630SOL    HW250933   4.664   7.987   3.357 -0.4479 -0.0740 -0.0081
15631SOL     OW50934   9.772   6.697   4.392 -0.7899 -0.6575 -0.1580
15631SOL    HW150935   9.687   6.701   4.348 -0.1606 -2.4991 -1.6482
15631SOL    HW250936   9.824   6.637   4.339  1.2071 -0.1896  1.1596
15632SOL     OW50937   5.717   4.312   1.274 -0.2900 -0.0840 -0.3682
15632SOL    HW150938   5.634   4.265   1.276 -0.1209 -0.3811 -0.2067
15632SOL    HW250939   5.783   4.243   1.276 -0.0402  0.1611 -0.0541
15633SOL     OW50940   8.625   3.045   9.727  0.1127 -0.6221  0.2402
15633SOL    HW150941   8.615   3.037   9.632 -1.0996 -3.2452  0.5130
15633SOL    HW250942   8.711   3.007   9.745 -0.3131 -1.5674  0.3196
15634SOL     OW50943   7.377  10.192   4.500 -0.1793 -0.2380  0.3580
15634SOL    HW150944   7.444  10.144   4.451 -2.5036 -1.8197 -1.5540
15634SOL    HW250945   7.350  10.131   4.569  1.9587  1.3638  2.7579
15635SOL     OW50946   6.374   6.754   2.727 -0.0494  0.0954  0.5313
15635SOL    HW150947   6.464   6.786   2.730 -0.8226  2.7811 -1.0101
15635SOL    HW250948   6.327   6.811   2.788 -0.9875 -0.1212  0.0296
15636SOL     OW50949   4.766   2.799   6.010 -0.0866  0.2666 -0.0918
15636SOL    HW150950   4.710   2.738   5.962  0.7524 -0.0641 -0.6699
15636SOL    HW250951   4.717   2.819   6.089  0.2112 -2.2365  0.8067
15637SOL     OW50952   4.542   3.169   6.218  0.9950 -0.5352 -0.1310
15637SOL    HW150953   4.467   3.213   6.257 -0.0105 -1.2591 -1.1521
15637SOL    HW250954   4.605   3.239   6.199  0.3625  0.1503  0.2812
15638SOL     OW50955   3.693   8.383   3.700  0.2468  0.0570 -0.2027
15638SOL    HW150956   3.753   8.349   3.767  1.4318 -0.1030 -1.3229
15638SOL    HW250957   3.687   8.313   3.635 -0.6197  0.3471 -0.4481
15639SOL     OW50958   4.663   3.815   0.675  0.0417  0.5059 -0.4240
15639SOL    HW150959   4.652   3.761   0.597 -2.9689  1.3998 -0.7519
15639SOL    HW250960   4.693   3.900   0.642 -1.3778  0.9313 -0.6914
15640SOL     OW50961   5.234   5.019   5.724 -0.0920  0.3437 -0.4271
15640SOL    HW150962   5.186   4.940   5.698 -1.0359  0.5194  0.7020
15640SOL    HW250963   5.314   4.986   5.764 -1.6236 -0.2544  2.4592
15641SOL     OW50964  10.104   9.640   9.910 -0.2110 -0.3316 -0.5356
15641SOL    HW150965  10.163   9.586   9.858  0.6198  0.8549 -0.8686
15641SOL    HW250966  10.041   9.578   9.948  0.4545 -1.4594 -1.2328
15642SOL     OW50967   8.961   7.852   4.763 -0.1892 -0.0961 -0.1429
15642SOL    HW150968   8.919   7.805   4.691 -1.6040 -1.5134  1.4895
15642SOL    HW250969   8.921   7.815   4.842  0.0221  2.5680  1.3386
15643SOL     OW50970   4.391   4.940   0.113  0.7022 -0.3479 -0.4606
15643SOL    HW150971   4.443   5.017   0.134  1.8616 -1.0663 -0.6081
15643SOL    HW250972   4.410   4.877   0.182 -2.0571  0.2581  1.0083
15644SOL     OW50973   7.908   2.190   5.573 -0.3322 -0.6430  0.8158
15644SOL    HW150974   7.846   2.262   5.558 -0.3439 -0.6841  0.6585
15644SOL    HW250975   7.993   2.233   5.580  0.0118 -0.7729 -1.6294
15645SOL     OW50976   5.808   2.097   4.322  0.1618 -0.3889 -0.3541
15645SOL    HW150977   5.842   2.051   4.400  0.4256 -1.5552 -1.1304
15645SOL    HW250978   5.863   2.174   4.314 -0.4446  0.2452  1.1315
15646SOL     OW50979   5.279   3.493   5.186 -0.2367  0.0886  0.5936
15646SOL    HW150980   5.238   3.538   5.260 -0.1925  1.5364 -0.2269
15646SOL    HW250981   5.209   3.483   5.121  0.4336  1.8136 -0.4717
15647SOL     OW50982   2.419   0.928   3.029  0.5657  0.6649  0.3525
15647SOL    HW150983   2.504   0.971   3.022  0.3339  1.0683  0.0213
15647SOL    HW250984   2.369   0.961   2.955 -0.1676  1.0749  1.0190
15648SOL     OW50985   6.399   2.283   1.211  0.2691  0.5984 -0.1374
15648SOL    HW150986   6.333   2.223   1.176  1.7160 -2.5624  2.1091
15648SOL    HW250987   6.431   2.330   1.134 -0.5562 -1.9726 -2.2184
15649SOL     OW50988   6.209   4.749   0.854 -0.1262 -0.3809 -0.6840
15649SOL    HW150989   6.261   4.719   0.929  1.6448  0.2252 -1.6058
15649SOL    HW250990   6.191   4.841   0.873  0.0829 -0.3000 -0.8850
15650SOL     OW50991   6.361   3.313   9.258  0.0354 -0.2295  0.0056
15650SOL    HW150992   6.340   3.270   9.175 -1.5156 -2.9627  1.6777
15650SOL    HW250993   6.327   3.402   9.248 -1.5884 -0.9729 -1.6955
15651SOL     OW50994   6.889   9.776   2.575 -0.1903  1.0005  0.6442
15651SOL    HW150995   6.958   9.842   2.577  1.6685 -0.8300  2.5704
15651SOL    HW250996   6.829   9.802   2.645 -0.1110  1.2904  0.6072
15652SOL     OW50997   0.698   9.653   1.626 -0.2126 -0.2872 -0.2885
15652SOL    HW150998   0.676   9.671   1.718 -0.4670 -2.9935  0.2519
15652SOL    HW250999   0.666   9.730   1.579 -0.1125  1.1570  1.8642
15653SOL     OW51000   1.653   7.067   5.850  0.2172 -0.1198 -0.1288
15653SOL    HW151001   1.569   7.021   5.853  0.5609 -0.9713 -1.9935
15653SOL    HW251002   1.643   7.139   5.912 -0.9147 -1.7419  1.6751
15654SOL     OW51003   0.952   1.137   1.271 -0.3252  0.2038  0.1022
15654SOL    HW151004   0.907   1.060   1.305 -2.8456  0.7314 -1.7402
15654SOL    HW251005   1.001   1.106   1.195 -0.8667  0.2930 -0.2892
15655SOL     OW51006   5.744  10.216   7.816 -0.1360 -0.2873  0.3093
15655SOL    HW151007   5.690  10.279   7.864  1.3440  1.1165  0.2170
15655SOL    HW251008   5.733  10.240   7.724 -1.8846 -2.0997 -0.0245
15656SOL     OW51009   1.300   8.682   8.093  0.1215 -0.2014 -0.0170
15656SOL    HW151010   1.255   8.714   8.171 -1.3672 -1.5515 -0.2696
15656SOL    HW251011   1.229   8.666   8.030  0.9985 -1.9517 -0.6108
15657SOL     OW51012   0.894   1.062   5.496 -0.2897  0.2817  0.0011
15657SOL    HW151013   0.912   0.968   5.487  0.4282  0.2457  1.5117
15657SOL    HW251014   0.925   1.084   5.584 -0.8974  1.8404 -0.1470
15658SOL     OW51015   8.166   2.309   5.611 -0.1943 -0.5488  0.6806
15658SOL    HW151016   8.219   2.255   5.669  1.2569  0.3608  0.2565
15658SOL    HW251017   8.229   2.366   5.567 -1.1804 -1.4880 -2.1425
15659SOL     OW51018   0.037   3.520   0.983  0.4014  0.0658  0.7038
15659SOL    HW151019   0.115   3.565   0.951  1.3617 -1.9297  0.1371
15659SOL    HW251020   0.002   3.579   1.051  0.7068  2.3591 -1.0212
15660SOL     OW51021   3.280   8.968   8.193  0.4314 -0.2469  0.1453
15660SOL    HW151022   3.207   9.020   8.225 -0.9456 -0.3369 -2.5421
15660SOL    HW251023   3.358   9.012   8.225 -0.7235  2.5114 -0.5856
15661SOL     OW51024   3.389   9.482   1.775  0.1093 -0.2684 -0.2740
15661SOL    HW151025   3.427   9.530   1.701 -0.6105 -0.0538 -0.5116
15661SOL    HW251026   3.295   9.501   1.771 -0.3420 -2.3338 -0.8615
15662SOL     OW51027   2.758   1.161   8.433 -0.1775  0.3552 -0.1519
15662SOL    HW151028   2.853   1.152   8.446 -0.2071 -0.7297 -0.6060
15662SOL    HW251029   2.730   1.217   8.505  0.4294 -1.3407  1.4853
15663SOL     OW51030   4.905   0.538   2.837  0.6074  0.6363 -1.1318
15663SOL    HW151031   4.868   0.459   2.875 -0.4103  1.4853 -0.2899
15663SOL    HW251032   4.983   0.556   2.891 -1.1690  2.1877  1.1342
15664SOL     OW51033   1.755   0.449   1.274  0.2186 -0.6082  0.1682
15664SOL    HW151034   1.699   0.463   1.350  0.1769  0.8266 -0.0988
15664SOL    HW251035   1.844   0.446   1.309  0.1161 -1.1310  0.3928
15665SOL     OW51036   6.112   1.056   8.662  0.4721  0.2376  0.1323
15665SOL    HW151037   6.131   0.981   8.718  1.4600  0.8695  0.6719
15665SOL    HW251038   6.198   1.083   8.629  0.1052  1.0294 -0.1904
15666SOL     OW51039   7.409   1.716   3.469 -0.1570 -0.2772  0.0117
15666SOL    HW151040   7.431   1.660   3.395 -3.3994 -0.7570 -0.7430
15666SOL    HW251041   7.436   1.803   3.442 -1.1495 -0.4621 -1.7305
15667SOL     OW51042   5.932   8.583   4.677  0.2743 -0.2601  0.0850
15667SOL    HW151043   5.924   8.623   4.590 -0.2848  1.1235  0.7349
15667SOL    HW251044   6.006   8.629   4.716 -0.6926  0.5454  1.0338
15668SOL     OW51045   7.187   4.613   7.659  0.2855 -0.0151  0.0974
15668SOL    HW151046   7.241   4.611   7.580 -0.5955  0.8988 -0.5585
15668SOL    HW251047   7.233   4.674   7.717  1.4011 -1.3446  0.6894
15669SOL     OW51048   7.087   4.650   4.159 -0.5277 -0.0582 -0.4128
15669SOL    HW151049   7.111   4.560   4.183 -2.5728 -0.4284  0.3916
15669SOL    HW251050   7.072   4.647   4.065 -2.0190 -0.9361 -0.1676
15670SOL     OW51051   0.170   7.842   6.887  0.0184  0.4514  0.2640
15670SOL    HW151052   0.098   7.835   6.824  1.4222 -0.2773 -1.3354
15670SOL    HW251053   0.209   7.755   6.888  1.5245  1.0984  0.2958
15671SOL     OW51054   5.644   4.025  10.209  0.1876 -0.3252  0.0887
15671SOL    HW151055   5.668   4.082  10.136 -0.9620 -0.5080 -0.4380
15671SOL    HW251056   5.691   3.943  10.192 -0.0205 -0.3442 -0.4159
15672SOL     OW51057   0.646   0.507   2.053  0.3734  0.0149  0.6048
15672SOL    HW151058   0.707   0.581   2.055  1.6967 -1.0225  0.1518
15672SOL    HW251059   0.675   0.455   1.978 -1.9905  0.2065 -0.5294
15673SOL     OW51060   7.039  10.288   9.020 -0.3859  0.3728  0.2457
15673SOL    HW151061   7.014  10.362   9.075 -0.3229  0.4128  0.2205
15673SOL    HW251062   7.041  10.324   8.931  0.0101  0.4322  0.2761
15674SOL     OW51063   8.895   7.832   3.910 -0.4907 -0.2195 -0.4070
15674SOL    HW151064   8.851   7.835   3.825  2.6376  0.1615 -2.1649
15674SOL    HW251065   8.910   7.924   3.933  0.2144 -0.3497 -0.3294
15675SOL     OW51066   5.017   1.977   8.890  0.4992  0.5434 -0.4446
15675SOL    HW151067   5.080   1.905   8.894 -0.0001  0.0962 -0.3808
15675SOL    HW251068   4.962   1.956   8.815 -1.4579 -0.7208  1.2256
15676SOL     OW51069   8.662   6.222   0.963 -0.1716 -0.7191 -0.0962
15676SOL    HW151070   8.741   6.230   1.018 -1.1577 -3.0828  1.8499
15676SOL    HW251071   8.642   6.128   0.963 -3.0345 -0.2069 -0.4251
15677SOL     OW51072   7.817   9.197   7.700 -0.1244  0.5823 -0.6071
15677SOL    HW151073   7.769   9.166   7.777 -1.2539  2.1149 -0.6374
15677SOL    HW251074   7.889   9.249   7.737  0.0601  0.3037 -0.5751
15678SOL     OW51075   3.107   4.922   6.853  0.5342 -0.1388  0.4297
15678SOL    HW151076   3.175   4.893   6.913 -0.0323 -0.4105  0.9534
15678SOL    HW251077   3.154   4.958   6.778  1.2748  1.3743  1.5666
15679SOL     OW51078   0.902   0.447   5.035 -0.1897 -0.3144  0.2748
15679SOL    HW151079   0.993   0.455   5.007 -0.0034 -0.0692  0.9401
15679SOL    HW251080   0.907   0.400   5.118 -0.7099 -0.7069  0.0894
15680SOL     OW51081   4.552   1.034  10.253  0.3513  0.2916  0.5411
15680SOL    HW151082   4.624   1.095  10.238 -0.1265  0.5533 -0.8772
15680SOL    HW251083   4.488   1.083  10.305 -0.0873  1.0948 -0.6969
15681SOL     OW51084   4.374   5.490   8.962 -0.5866 -0.0651  0.1633
15681SOL    HW151085   4.422   5.419   8.919  0.7648  1.7646 -1.5193
15681SOL    HW251086   4.283   5.460   8.964 -0.4596 -0.8650 -2.7043
15682SOL     OW51087   5.956   1.361   3.088 -0.0258  1.2158  0.2283
15682SOL    HW151088   5.991   1.275   3.068 -1.3254  0.7406 -0.0942
15682SOL    HW251089   5.945   1.403   3.003 -0.6519  1.1833  0.2902
15683SOL     OW51090   3.705   2.869   8.195  0.0821 -0.1959 -0.2464
15683SOL    HW151091   3.666   2.943   8.242  0.7085 -0.6183  0.9735
15683SOL    HW251092   3.789   2.854   8.239  1.2412  0.1077 -2.2210
15684SOL     OW51093   0.871   0.583   2.329 -0.8301 -0.8250 -0.1027
15684SOL    HW151094   0.872   0.497   2.287  0.3407 -0.7638 -0.2195
15684SOL    HW251095   0.956   0.590   2.373 -1.6179 -0.4631  1.4131
15685SOL     OW51096   1.969   4.592   7.448  0.7466  0.6422  0.0160
15685SOL    HW151097   1.877   4.611   7.429  0.8307  0.3507 -0.7045
15685SOL    HW251098   1.969   4.560   7.538 -0.1312 -1.2266 -0.5959
15686SOL     OW51099   8.350   4.900   8.018 -0.4128 -0.5552  0.0700
15686SOL    HW151100   8.427   4.911   8.074 -1.1953  1.2190  0.8518
15686SOL    HW251101   8.370   4.822   7.966  0.5538 -1.9968  2.4456
15687SOL     OW51102   4.591   5.829  10.080  0.2001  0.1023  0.1304
15687SOL    HW151103   4.540   5.769  10.025  0.1633 -0.2744  0.5648
15687SOL    HW251104   4.528   5.862  10.144  0.3651  0.0953  0.2982
15688SOL     OW51105   5.676   9.096   7.389 -0.2025  0.4637 -0.4221
15688SOL    HW151106   5.719   9.030   7.443 -0.8666 -0.9459 -1.5531
15688SOL    HW251107   5.744   9.163   7.376  0.6214 -0.1725  0.4247
15689SOL     OW51108   6.034   6.413   8.727 -0.0263 -0.1709 -0.3111
15689SOL    HW151109   5.981   6.417   8.647 -2.0601 -1.6734  0.8673
15689SOL    HW251110   5.972   6.430   8.798  1.6419  0.6934  1.0215
15690SOL     OW51111   2.013   9.481   1.584 -0.5988 -0.0322  0.5118
15690SOL    HW151112   1.928   9.495   1.626 -1.1272  1.4824 -0.9637
15690SOL    HW251113   2.038   9.567   1.550  2.0872 -0.1854  1.8364
15691SOL     OW51114   4.520   3.946   6.348  0.0523 -0.0881  0.8793
15691SOL    HW151115   4.590   3.991   6.395  0.3337 -0.6708  1.0250
15691SOL    HW251116   4.529   3.977   6.258  0.1082  0.3052  1.0142
15692SOL     OW51117   4.410   6.853   2.668 -0.1507  0.2211 -0.5351
15692SOL    HW151118   4.351   6.840   2.742  1.6849  1.7819  1.3722
15692SOL    HW251119   4.362   6.912   2.609 -0.1346  2.6074  1.6252
15693SOL     OW51120   8.834   5.245   9.406  0.4541 -0.0080  0.1075
15693SOL    HW151121   8.760   5.288   9.448  0.2978 -0.8843  0.7645
15693SOL    HW251122   8.862   5.306   9.337  0.2185  1.0942  0.9663
15694SOL     OW51123   5.692   6.752   1.287 -0.5202 -0.0954  0.3241
15694SOL    HW151124   5.765   6.720   1.340  1.3960  1.8814 -0.9324
15694SOL    HW251125   5.702   6.706   1.203 -0.9171 -0.0493  0.2515
15695SOL     OW51126   8.663   7.748   0.657 -0.1818 -0.3917 -0.1103
15695SOL    HW151127   8.730   7.694   0.615  0.6896 -0.8001  1.7119
15695SOL    HW251128   8.590   7.688   0.672  0.1075 -0.6384  0.3359
15696SOL     OW51129   9.686   8.236   7.610 -0.4135  0.1448  0.3054
15696SOL    HW151130   9.630   8.165   7.641 -2.5992  1.3846 -0.5642
15696SOL    HW251131   9.685   8.301   7.681  1.4984 -0.5869  1.0599
15697SOL     OW51132   6.455   1.068   2.447 -0.0469  0.9885 -0.1018
15697SOL    HW151133   6.407   1.048   2.366  0.0673  1.2607 -0.2377
15697SOL    HW251134   6.391   1.053   2.516 -0.0040  0.2889 -0.2077
15698SOL     OW51135   4.931   6.042   1.339 -0.3469 -0.7850 -0.1533
15698SOL    HW151136   4.835   6.044   1.345 -0.4014 -1.4917 -0.7873
15698SOL    HW251137   4.959   6.118   1.391 -1.2800 -0.0797 -0.6547
15699SOL     OW51138   6.671   0.102   7.845 -0.1297 -0.2123 -0.0393
15699SOL    HW151139   6.577   0.104   7.863 -0.2179  2.0226 -0.5115
15699SOL    HW251140   6.711   0.083   7.929 -0.9247  1.0464  0.6464
15700SOL     OW51141   8.578   2.462   3.934 -0.3883  0.1221 -0.0880
15700SOL    HW151142   8.673   2.469   3.932 -0.3172  1.3941  2.8084
15700SOL    HW251143   8.550   2.489   3.847  1.8335  1.0152 -0.5883
15701SOL     OW51144   6.309   1.707   1.232 -0.5118  0.0048  0.0670
15701SOL    HW151145   6.362   1.644   1.185  1.6345  0.6620  1.4516
15701SOL    HW251146   6.322   1.790   1.185 -2.7460 -0.3681 -1.3251
15702SOL     OW51147   9.399   2.274   4.009  0.1114 -0.2694 -0.4509
15702SOL    HW151148   9.345   2.198   3.990 -0.0525 -0.2129 -0.2170
15702SOL    HW251149   9.424   2.308   3.923 -0.4920 -0.1034 -0.5645
15703SOL     OW51150   4.807   6.662   0.586 -0.3651  0.2952  0.3872
15703SOL    HW151151   4.729   6.609   0.568 -0.6084  1.0916 -1.0058
15703SOL    HW251152   4.783   6.750   0.558  0.7170  0.7489  0.8481
15704SOL     OW51153   4.606   1.932   7.731 -0.8617 -0.1741 -0.3363
15704SOL    HW151154   4.698   1.947   7.751 -0.7228 -0.2810 -0.8814
15704SOL    HW251155   4.563   2.014   7.754 -0.7006 -0.2700  0.3274
15705SOL     OW51156   4.071   5.199   2.706 -0.0402 -0.1672  0.0009
15705SOL    HW151157   3.994   5.142   2.706 -0.5613  0.5234  0.2599
15705SOL    HW251158   4.055   5.259   2.633  0.9433 -0.9128 -0.8597
15706SOL     OW51159  10.285   9.340   4.106  0.1040 -0.4077 -0.2279
15706SOL    HW151160  10.318   9.302   4.187 -0.1166 -0.9565 -0.3965
15706SOL    HW251161  10.328   9.426   4.102 -0.9331  0.2171  1.1711
15707SOL     OW51162   3.414   3.223   8.293  0.1066  0.1109 -0.9268
15707SOL    HW151163   3.395   3.315   8.309 -1.8695 -0.6126  1.7115
15707SOL    HW251164   3.349   3.197   8.227  0.5961  0.5359 -1.5940
15708SOL     OW51165   8.662   1.621   7.469 -0.3720  0.0558 -0.4838
15708SOL    HW151166   8.609   1.549   7.436  0.3587 -0.1914 -1.1668
15708SOL    HW251167   8.650   1.619   7.564 -1.2384 -0.2549 -0.5943
15709SOL     OW51168   6.572   0.541   8.641  0.5504 -0.3351  0.1804
15709SOL    HW151169   6.505   0.606   8.657 -0.2363 -0.9432 -0.5349
15709SOL    HW251170   6.538   0.461   8.682  1.7001 -0.2219  1.4332
15710SOL     OW51171   1.140   3.540   1.444  0.2817 -0.0234  0.1791
15710SOL    HW151172   1.078   3.597   1.398 -0.3273 -1.5244 -0.9447
15710SOL    HW251173   1.205   3.600   1.481  0.1326  1.3357 -1.6353
15711SOL     OW51174   4.022   0.328   6.532  0.0661  0.5238 -0.4438
15711SOL    HW151175   4.106   0.348   6.574  1.3604 -0.8840 -2.1640
15711SOL    HW251176   3.969   0.289   6.601  1.6313 -0.5288  0.2324
15712SOL     OW51177   4.582   8.079   4.511 -0.2142 -0.1113 -0.2054
15712SOL    HW151178   4.625   8.003   4.551  0.3612  0.6914  0.7473
15712SOL    HW251179   4.649   8.148   4.513 -0.4477  0.1969 -1.8062
15713SOL     OW51180   5.224   3.081   3.722 -0.1081 -0.0648  0.0141
15713SOL    HW151181   5.279   3.067   3.645  1.1985  1.7194  0.5574
15713SOL    HW251182   5.268   3.035   3.793 -0.7376 -0.8046 -0.0589
15714SOL     OW51183   0.443   1.007   0.982 -0.4321 -0.1294  0.3208
15714SOL    HW151184   0.365   0.957   0.959 -0.1202 -1.1098  1.3517
15714SOL    HW251185   0.412   1.098   0.988 -0.9435 -0.0895 -1.8541
15715SOL     OW51186   2.918   4.461   0.879  0.4317  0.6760  0.7480
15715SOL    HW151187   2.975   4.421   0.945 -0.1027  0.1193  0.8839
15715SOL    HW251188   2.833   4.417   0.891  0.0385  1.3167  0.3915
15716SOL     OW51189   0.516   2.894   7.228 -0.5195 -0.5610  0.1967
15716SOL    HW151190   0.562   2.863   7.150  1.5838  3.7285 -0.5734
15716SOL    HW251191   0.580   2.885   7.298  0.3341  2.1022 -0.1438
15717SOL     OW51192   5.146   9.542   3.875  0.2890 -0.4820 -0.3600
15717SOL    HW151193   5.173   9.628   3.841 -1.0349 -0.0990 -0.5155
15717SOL    HW251194   5.087   9.507   3.808 -3.4107  0.8432  1.8634
15718SOL     OW51195   1.435   3.070   2.386 -0.4670 -0.4294 -0.1318
15718SOL    HW151196   1.456   3.036   2.473  0.3402 -0.1045 -0.1942
15718SOL    HW251197   1.497   3.141   2.372 -2.6509  1.7097  0.3711
15719SOL     OW51198   2.083  10.183   6.476 -0.0352  0.4212 -0.0392
15719SOL    HW151199   2.164  10.208   6.431 -0.4909  0.2158 -0.9899
15719SOL    HW251200   2.021  10.165   6.406 -0.1347 -2.1035  0.6292
15720SOL     OW51201   6.314   9.524   7.620 -0.8461  0.1743 -0.1819
15720SOL    HW151202   6.377   9.484   7.679  0.7143  0.7979 -1.3323
15720SOL    HW251203   6.290   9.454   7.559 -0.9519  0.0369  0.0181
15721SOL     OW51204  10.214   9.313   1.991 -0.0675  0.4723 -0.8564
15721SOL    HW151205  10.231   9.238   2.048 -0.4321 -0.4998 -1.9909
15721SOL    HW251206  10.192   9.384   2.051 -0.1695 -0.4470  0.2248
15722SOL     OW51207   5.265   8.819   2.119  0.3755  0.1651 -0.0791
15722SOL    HW151208   5.179   8.798   2.155  1.0113 -1.2963  0.6422
15722SOL    HW251209   5.326   8.800   2.190  1.1779  3.5091  0.3237
15723SOL     OW51210   8.676   2.974   1.585 -0.0962  0.1126 -0.4058
15723SOL    HW151211   8.713   3.031   1.518  0.3790  2.0557  1.3986
15723SOL    HW251212   8.689   2.886   1.552 -1.8647  0.9860 -3.8619
15724SOL     OW51213   6.392   0.394   5.163  0.7644  0.2530 -0.0508
15724SOL    HW151214   6.364   0.304   5.175  1.8311 -0.1552 -0.4926
15724SOL    HW251215   6.474   0.388   5.114  1.1589  1.4239  0.4136
15725SOL     OW51216   4.618   7.965   8.202  0.7006 -0.3634  0.2042
15725SOL    HW151217   4.685   7.918   8.252  2.0141 -0.1647 -1.2862
15725SOL    HW251218   4.626   7.931   8.113 -0.3436  0.5743 -0.2732
15726SOL     OW51219   9.428   7.626   1.586  0.0646  0.2071  0.6932
15726SOL    HW151220   9.420   7.709   1.538 -0.0337 -0.4922 -0.5558
15726SOL    HW251221   9.513   7.631   1.630  1.8590 -0.4677 -2.3825
15727SOL     OW51222   3.916   9.486   2.036  0.4213  0.0820 -0.0523
15727SOL    HW151223   3.864   9.565   2.024  0.7455  0.2178 -0.6175
15727SOL    HW251224   3.995   9.516   2.081 -0.4829 -0.3150  1.9024
15728SOL     OW51225   6.235   2.050   1.484 -0.5057 -0.0659  0.0468
15728SOL    HW151226   6.227   1.966   1.530  0.2195 -0.9894 -1.4642
15728SOL    HW251227   6.151   2.061   1.439 -0.9915  0.5506  1.0655
15729SOL     OW51228   9.248   9.882   0.216 -0.5999 -0.1580  0.6870
15729SOL    HW151229   9.177   9.941   0.242 -0.0748  0.6316  0.3373
15729SOL    HW251230   9.258   9.896   0.122 -1.3789 -1.8026  0.3138
15730SOL     OW51231   4.414   7.358   3.973  0.4998  0.1868  0.1955
15730SOL    HW151232   4.432   7.451   3.987  1.3629 -0.1104  1.1667
15730SOL    HW251233   4.403   7.322   4.061  0.7869 -0.7533 -0.1432
15731SOL     OW51234   3.956   7.450   6.821  0.2353 -0.3994  0.2365
15731SOL    HW151235   3.957   7.489   6.908  2.3066  1.0827 -0.3814
15731SOL    HW251236   3.887   7.498   6.774  0.0100 -0.2987  0.6657
15732SOL     OW51237   5.488   6.553   1.106  0.6957  0.5341 -0.1111
15732SOL    HW151238   5.573   6.579   1.071  1.2956  1.1809  1.7167
15732SOL    HW251239   5.424   6.595   1.048  1.6246  0.9616 -0.8473
15733SOL     OW51240   6.226   3.567   4.601  0.1122  0.2599  0.1173
15733SOL    HW151241   6.307   3.577   4.550  1.8282  3.2728  3.0200
15733SOL    HW251242   6.184   3.653   4.595 -1.1978 -0.2762  1.2554
15734SOL     OW51243   6.304   4.552   6.404  0.0552 -0.0522 -0.2108
15734SOL    HW151244   6.239   4.518   6.342 -1.5963 -0.2424  1.5568
15734SOL    HW251245   6.337   4.631   6.361 -0.0903 -0.8487 -1.8883
15735SOL     OW51246   7.283   4.763   1.268  0.1654 -0.1939  0.1530
15735SOL    HW151247   7.337   4.713   1.330  0.1284 -0.0794  0.2780
15735SOL    HW251248   7.194   4.756   1.302 -0.0421 -1.1457 -0.5532
15736SOL     OW51249   7.330   6.827   9.252  0.7395 -0.1117  0.0856
15736SOL    HW151250   7.371   6.745   9.278 -0.0959 -0.2287  1.1186
15736SOL    HW251251   7.242   6.801   9.222  0.8228  0.3000 -0.5295
15737SOL     OW51252   1.185   9.275   4.164  0.0742  0.5044 -0.0612
15737SOL    HW151253   1.157   9.205   4.224  0.8982  0.4473  0.2714
15737SOL    HW251254   1.106   9.328   4.150 -1.0737 -1.5064 -1.7874
15738SOL     OW51255   3.227   7.373   2.780  0.2373 -0.3582 -0.5377
15738SOL    HW151256   3.137   7.367   2.751  0.5148 -1.6415 -1.2357
15738SOL    HW251257   3.258   7.458   2.748 -0.3484 -0.4565 -1.3935
15739SOL     OW51258   9.256   5.175   0.744  0.0169  0.2830  0.0920
15739SOL    HW151259   9.334   5.213   0.784  0.7824 -1.0069 -0.1158
15739SOL    HW251260   9.208   5.250   0.709  2.4233  0.9518 -2.0455
15740SOL     OW51261   6.048   0.845   7.411 -0.6687  0.4145 -0.0240
15740SOL    HW151262   5.958   0.818   7.392 -0.8862  1.7680 -1.1329
15740SOL    HW251263   6.056   0.930   7.368  1.5187 -0.2243 -1.0031
15741SOL     OW51264   9.011   5.323   9.777  0.0923  0.1534  0.4169
15741SOL    HW151265   9.063   5.368   9.710  0.7468 -0.3927  0.5383
15741SOL    HW251266   8.921   5.331   9.748 -0.0303  2.9842  1.2522
15742SOL     OW51267   0.184   9.851   1.464 -0.3105  0.1281  0.9128
15742SOL    HW151268   0.124   9.812   1.400  1.1236 -0.3889 -0.1463
15742SOL    HW251269   0.189   9.785   1.534 -1.8478  0.6803  1.6108
15743SOL     OW51270   4.839   7.780   5.423  0.4905 -0.2110 -0.1089
15743SOL    HW151271   4.795   7.862   5.448  2.6857  1.1116 -0.2950
15743SOL    HW251272   4.888   7.803   5.344 -0.1696 -2.2049 -1.1443
15744SOL     OW51273   6.809   7.224   9.996 -0.0298 -0.1933 -0.1935
15744SOL    HW151274   6.743   7.264   9.939  0.0254  0.2619  0.0590
15744SOL    HW251275   6.853   7.159   9.940 -0.7997 -0.6190 -0.3130
15745SOL     OW51276   9.256   6.469   1.313 -0.3272 -0.1338 -0.0844
15745SOL    HW151277   9.329   6.421   1.352  1.5616  1.3849 -1.5482
15745SOL    HW251278   9.205   6.402   1.267 -0.0300 -1.2679  1.1924
15746SOL     OW51279   7.448   5.480   3.280 -0.0723  0.4156 -0.3577
15746SOL    HW151280   7.490   5.402   3.317 -1.9352 -0.5824 -0.2231
15746SOL    HW251281   7.369   5.447   3.238 -2.7633  2.4983  2.5675
15747SOL     OW51282   5.419   7.956  10.055 -0.1581  0.1581  0.1481
15747SOL    HW151283   5.436   8.020   9.986  0.0985  1.8599  1.7090
15747SOL    HW251284   5.444   7.872  10.016  0.1895  1.0641 -1.7292
15748SOL     OW51285   2.658   4.519   9.142 -0.3588  0.3230 -0.1212
15748SOL    HW151286   2.631   4.456   9.209  1.1550 -1.5518 -1.1800
15748SOL    HW251287   2.580   4.535   9.090 -0.9440 -0.0843  0.6167
15749SOL     OW51288   1.513   3.828   1.381  0.3443  0.0207  0.0296
15749SOL    HW151289   1.503   3.898   1.316 -0.5568  0.6969  0.8599
15749SOL    HW251290   1.525   3.748   1.329  1.6173  0.7988 -0.9381
15750SOL     OW51291   7.637   5.958   1.899  0.8020  0.0949  0.3562
15750SOL    HW151292   7.639   5.909   1.817  0.8287 -0.8125  0.8950
15750SOL    HW251293   7.597   5.899   1.962  1.5455  0.4720  1.2032
15751SOL     OW51294   4.944   1.882   6.346 -0.1731  0.4779  0.7011
15751SOL    HW151295   4.860   1.872   6.392  0.5468 -1.9994  1.6593
15751SOL    HW251296   4.997   1.936   6.404 -0.5563  0.6472  0.8990
15752SOL     OW51297   0.933   6.582   1.297 -0.0317  0.5748 -0.4164
15752SOL    HW151298   0.964   6.666   1.329 -0.9022  0.2440  1.4484
15752SOL    HW251299   0.866   6.555   1.360  0.3862 -1.6207 -0.7998
15753SOL     OW51300  10.090   8.410   0.301 -0.2683 -0.3284  0.0189
15753SOL    HW151301   9.996   8.427   0.292 -0.5518 -2.1660 -1.0036
15753SOL    HW251302  10.128   8.440   0.219  0.3649  1.9723  1.0654
15754SOL     OW51303   5.312   8.162   4.521 -0.4301 -0.1657  0.3902
15754SOL    HW151304   5.334   8.100   4.452  0.0916 -0.9936  1.2765
15754SOL    HW251305   5.359   8.130   4.598  0.1872  1.5711  0.7764
15755SOL     OW51306   7.513   1.205   2.291  0.1319  0.2093 -0.1624
15755SOL    HW151307   7.597   1.178   2.253  0.2200 -0.4569  0.4618
15755SOL    HW251308   7.483   1.277   2.237  1.1821  0.5443 -0.3137
15756SOL     OW51309   3.969   9.294   6.157 -0.1458 -0.2063 -0.1631
15756SOL    HW151310   4.041   9.345   6.195  0.8174 -1.1909 -0.6002
15756SOL    HW251311   3.898   9.301   6.221  0.3079  0.8310  0.2553
15757SOL     OW51312   6.289   4.837   0.491  0.2635 -0.2567 -0.5102
15757SOL    HW151313   6.221   4.834   0.424  1.2125  1.6794 -1.6420
15757SOL    HW251314   6.241   4.840   0.574 -1.0232  0.6577 -1.2594
15758SOL     OW51315   0.876  10.142   9.754 -0.2857 -0.3412  0.2673
15758SOL    HW151316   0.845  10.052   9.767  0.8496 -0.6291  1.1320
15758SOL    HW251317   0.912  10.142   9.665 -0.1944 -0.7657  0.3038
15759SOL     OW51318   6.086   8.117   8.407 -0.4635  0.1742 -0.3081
15759SOL    HW151319   6.128   8.033   8.428  0.1465  0.5571  0.0376
15759SOL    HW251320   6.159   8.177   8.393 -0.8516  0.2808 -2.1739
15760SOL     OW51321   5.738   8.988   9.693 -0.1026  0.3128 -0.6795
15760SOL    HW151322   5.819   8.966   9.737 -1.6585  0.7831  2.7531
15760SOL    HW251323   5.684   8.909   9.700 -0.7370  0.7198 -0.8344
15761SOL     OW51324   6.613   4.111   8.310 -0.3475  0.0328 -0.2447
15761SOL    HW151325   6.682   4.116   8.243  1.4638  4.7891  1.4919
15761SOL    HW251326   6.661   4.106   8.393 -2.3074 -0.2729  0.9260
15762SOL     OW51327   7.231   2.024   9.256  0.5540  0.2160 -0.2790
15762SOL    HW151328   7.239   2.001   9.164 -1.4915 -1.0412 -0.2011
15762SOL    HW251329   7.139   2.049   9.267  0.8326  0.6748  1.3620
15763SOL     OW51330   8.318   1.134   6.359  0.3190 -0.3156  0.1222
15763SOL    HW151331   8.254   1.190   6.404  0.8156  0.5424 -0.2178
15763SOL    HW251332   8.402   1.158   6.397  0.3714 -2.0850  1.2098
15764SOL     OW51333   2.413   7.185   0.341 -0.2602  0.3669  0.2570
15764SOL    HW151334   2.415   7.124   0.415  1.1378 -0.6507 -0.5796
15764SOL    HW251335   2.357   7.142   0.276 -1.9322  1.5036  0.8617
15765SOL     OW51336   9.644   7.136   7.273 -0.1701 -0.3178  0.5970
15765SOL    HW151337   9.619   7.049   7.243 -4.2184  0.6752  0.5142
15765SOL    HW251338   9.640   7.131   7.369 -0.3051 -0.2344  0.5954
15766SOL     OW51339   8.914   6.859   8.166  0.0352  0.0067  0.1238
15766SOL    HW151340   8.965   6.903   8.098  0.3995 -1.4166 -0.5799
15766SOL    HW251341   8.851   6.924   8.196  0.7672  1.0863 -0.6133
15767SOL     OW51342   1.744   9.376   9.200  0.0759  0.0280 -0.0051
15767SOL    HW151343   1.669   9.350   9.147  0.5753 -1.2808 -0.1078
15767SOL    HW251344   1.740   9.471   9.202 -1.3353 -0.0006 -0.3710
15768SOL     OW51345   3.063   9.741   7.662 -0.1263  0.5751 -0.3873
15768SOL    HW151346   3.101   9.735   7.750 -0.2278  0.0282 -0.3770
15768SOL    HW251347   3.114   9.809   7.618  0.6561  0.0712 -0.2680
15769SOL     OW51348   7.262  10.148   8.532  0.1916  0.0355  0.1108
15769SOL    HW151349   7.289  10.182   8.617  2.7865  0.6126 -0.8576
15769SOL    HW251350   7.252  10.227   8.477  0.8427 -0.4349 -0.7085
15770SOL     OW51351   2.999   7.249   9.737 -0.3007 -0.3768  0.0812
15770SOL    HW151352   2.926   7.311   9.744 -1.5487 -1.6903 -0.8353
15770SOL    HW251353   3.072   7.302   9.704 -0.9615  0.8481  0.5130
15771SOL     OW51354   9.558   0.690   7.098 -0.2857 -0.1189 -0.2728
15771SOL    HW151355   9.590   0.600   7.086 -0.9093 -0.0842 -2.9588
15771SOL    HW251356   9.485   0.681   7.159  2.0471 -0.7753  2.6501
15772SOL     OW51357   3.508   2.394   3.453  0.4201  0.0019 -0.0705
15772SOL    HW151358   3.443   2.415   3.520  0.1380  0.1471 -0.3858
15772SOL    HW251359   3.576   2.461   3.463  0.2393  0.1928 -0.1177
15773SOL     OW51360   4.089   8.961   2.932 -0.1990 -0.2266 -0.0186
15773SOL    HW151361   4.055   9.051   2.930 -0.9165 -0.4203  1.6982
15773SOL    HW251362   4.178   8.970   2.965 -0.6942 -0.2202  1.3796
15774SOL     OW51363   2.638   8.819   3.082  0.0126  0.0034 -0.1432
15774SOL    HW151364   2.641   8.812   2.987  0.8923  0.2979 -0.1509
15774SOL    HW251365   2.592   8.740   3.111  1.2520 -0.9711 -0.7246
15775SOL     OW51366   9.895   5.420   5.363  0.1072  0.5208  0.2841
15775SOL    HW151367   9.818   5.393   5.413  0.0549  0.3601  0.1174
15775SOL    HW251368   9.965   5.363   5.394  0.1259  0.5662  0.3268
15776SOL     OW51369   4.022   4.816   9.114 -0.0352  0.1778 -0.1156
15776SOL    HW151370   3.953   4.881   9.100  0.1164  0.6665  1.2424
15776SOL    HW251371   4.086   4.862   9.169 -0.0319 -1.1904  1.0552
15777SOL     OW51372   2.404  10.060   1.154 -0.1172  0.3532 -0.4384
15777SOL    HW151373   2.400  10.123   1.225 -0.7011  0.8602 -0.9066
15777SOL    HW251374   2.317  10.019   1.152  0.4764 -1.0234  0.3395
15778SOL     OW51375   2.793   4.475   7.960  0.0674  0.1351 -0.2705
15778SOL    HW151376   2.778   4.381   7.954 -1.3311  0.3550 -0.4657
15778SOL    HW251377   2.710   4.512   7.989 -0.6473  1.6801 -3.6941
15779SOL     OW51378   9.423   9.719   5.180  0.5138 -0.4580  0.5787
15779SOL    HW151379   9.445   9.812   5.169  0.9589 -0.3586  2.0558
15779SOL    HW251380   9.336   9.720   5.221  0.9787 -0.6378  1.6115
15780SOL     OW51381   6.633   5.527   2.076  0.4888  0.1589 -0.3603
15780SOL    HW151382   6.702   5.562   2.133 -0.8119  0.9401  0.8112
15780SOL    HW251383   6.608   5.602   2.021  1.1779 -0.3720 -1.4233
15781SOL     OW51384   5.351   0.547   1.622 -0.1677  0.3345 -0.5731
15781SOL    HW151385   5.415   0.479   1.597  1.4683  1.4188  0.4811
15781SOL    HW251386   5.345   0.540   1.717 -1.4532  0.4401 -0.6327
15782SOL     OW51387   2.562   0.208   3.647 -0.3216 -0.2861 -0.0297
15782SOL    HW151388   2.553   0.122   3.688 -1.3220  0.0928  0.5938
15782SOL    HW251389   2.613   0.260   3.709  1.1625 -0.6934 -0.8593
15783SOL     OW51390   2.440   6.602   8.368  0.1615 -0.0452  0.2361
15783SOL    HW151391   2.461   6.516   8.406  2.1681 -0.0803 -0.8231
15783SOL    HW251392   2.448   6.663   8.441  3.1240 -0.2281  0.1719
15784SOL     OW51393   9.802   8.432   0.214 -0.1107  0.2872  0.3788
15784SOL    HW151394   9.732   8.425   0.149  2.3220 -1.3155 -2.3272
15784SOL    HW251395   9.807   8.345   0.254  0.6651  0.1741  0.0740
15785SOL     OW51396   7.826   8.885   2.484  0.1870 -0.4918 -0.0038
15785SOL    HW151397   7.886   8.913   2.415  1.6114 -1.6526  0.7175
15785SOL    HW251398   7.875   8.897   2.565 -0.5674 -1.4487  0.6104
15786SOL     OW51399   1.825   8.231   0.559  0.3355 -0.4324  0.0283
15786SOL    HW151400   1.856   8.158   0.613 -1.2353 -0.3275  1.1233
15786SOL    HW251401   1.730   8.225   0.562  0.1752  0.0465 -2.1370
15787SOL     OW51402   5.664   9.041   8.135  0.0054 -0.0620 -0.4351
15787SOL    HW151403   5.748   9.022   8.093  0.5897 -1.2577  1.1934
15787SOL    HW251404   5.640   9.128   8.102  0.5911 -0.7565 -2.9148
15788SOL     OW51405   9.459   7.888   9.380 -0.3087 -0.2381  0.2618
15788SOL    HW151406   9.527   7.894   9.313 -1.3301  0.0348 -0.7776
15788SOL    HW251407   9.446   7.794   9.394  0.3293 -0.2891  0.5290
15789SOL     OW51408   7.033   9.614   5.405 -0.2892 -0.1130  0.5879
15789SOL    HW151409   7.099   9.585   5.342 -1.0216 -1.1864  0.2982
15789SOL    HW251410   7.076   9.607   5.490  0.4427  0.5987  0.2977
15790SOL     OW51411   7.228   2.243   5.682  0.2531 -0.6504  0.4537
15790SOL    HW151412   7.239   2.189   5.604  1.2250 -0.7280  0.6309
15790SOL    HW251413   7.295   2.212   5.743 -1.1799 -1.3126  1.7549
15791SOL     OW51414   0.347   9.086   2.528  0.0069 -0.0616 -0.7566
15791SOL    HW151415   0.263   9.041   2.514 -1.1899  1.9184 -0.3995
15791SOL    HW251416   0.386   9.090   2.441 -1.1403  0.5468 -1.2747
15792SOL     OW51417   0.761   4.876   2.876 -0.3110 -0.0118  0.4999
15792SOL    HW151418   0.707   4.933   2.931  0.3701  0.1414  1.0094
15792SOL    HW251419   0.848   4.916   2.877 -0.4338  0.4029 -1.2543
15793SOL     OW51420   1.650   3.265   2.354  0.4268  0.1569 -0.2403
15793SOL    HW151421   1.729   3.307   2.319  0.8616  1.6730  2.3490
15793SOL    HW251422   1.605   3.333   2.403 -1.1103 -1.3700  0.5976
15794SOL     OW51423   2.163   6.388   7.513 -0.3179 -0.2978 -0.4286
15794SOL    HW151424   2.228   6.458   7.504 -0.3514 -0.4158 -1.8212
15794SOL    HW251425   2.110   6.394   7.434  0.2843 -2.4805 -1.0848
15795SOL     OW51426   1.456   1.567   0.397  0.0390  0.6564  0.3671
15795SOL    HW151427   1.365   1.565   0.426 -0.0917  2.1356  0.1294
15795SOL    HW251428   1.506   1.569   0.479 -0.0523 -1.6448  0.5221
15796SOL     OW51429  10.199   0.239   4.265  0.0767  0.4241 -0.7993
15796SOL    HW151430  10.233   0.151   4.281 -1.2065 -0.3305 -2.0069
15796SOL    HW251431  10.259   0.277   4.200  0.7019  0.5020 -0.1859
15797SOL     OW51432   9.476   1.071   5.602  0.4193  0.4198  0.0027
15797SOL    HW151433   9.381   1.083   5.592  0.3925  0.5231  0.3687
15797SOL    HW251434   9.495   1.106   5.689  0.4399 -1.6051  0.8738
15798SOL     OW51435   9.042   0.660   4.061 -0.5065 -0.1584 -0.1331
15798SOL    HW151436   9.063   0.567   4.071  0.1163 -0.1043 -0.8499
15798SOL    HW251437   9.028   0.671   3.967  0.4851  0.6881 -0.1920
15799SOL     OW51438   4.718   6.535   9.375 -0.6046 -0.1230  0.2305
15799SOL    HW151439   4.722   6.463   9.439  2.7703 -0.5511 -0.2967
15799SOL    HW251440   4.647   6.509   9.316  0.5484 -3.1782 -0.0177
15800SOL     OW51441   8.490  10.280   3.895  0.4472  0.6431  0.2662
15800SOL    HW151442   8.450  10.242   3.817 -0.2957  3.1265 -0.6524
15800SOL    HW251443   8.480  10.212   3.962  0.2246 -1.1787 -1.5139
15801SOL     OW51444   0.802   6.400   2.772  0.0046  0.3557  0.3416
15801SOL    HW151445   0.789   6.398   2.677 -0.0021  1.0042  0.3214
15801SOL    HW251446   0.883   6.450   2.784 -0.2382  0.6773  0.6927
15802SOL     OW51447   0.770   1.621   8.059  0.3703 -0.0973  0.2533
15802SOL    HW151448   0.725   1.659   8.134  0.3583  1.9456 -0.7262
15802SOL    HW251449   0.709   1.557   8.023 -0.2299  0.0015  1.0796
15803SOL     OW51450   6.840   6.629   7.022 -0.3548 -0.2251 -0.1075
15803SOL    HW151451   6.837   6.690   6.949 -0.8586 -0.0209  0.0768
15803SOL    HW251452   6.883   6.677   7.092 -1.4327  0.1954  0.2806
15804SOL     OW51453   8.950   8.514   1.186 -0.5740  0.1090 -0.0906
15804SOL    HW151454   8.947   8.422   1.213 -2.6020  0.2437  0.3393
15804SOL    HW251455   9.043   8.535   1.180 -0.0759 -1.6048  1.0558
15805SOL     OW51456   1.866   9.976   7.034 -0.5199  0.4053  0.0709
15805SOL    HW151457   1.778   9.997   7.067 -1.0468  1.5887 -1.8940
15805SOL    HW251458   1.858   9.887   7.000 -0.8901  0.4034  0.1582
15806SOL     OW51459   0.912   5.751  10.100  0.0627 -0.4597  0.4757
15806SOL    HW151460   0.994   5.706  10.121 -0.0772 -1.0521 -0.2097
15806SOL    HW251461   0.933   5.804  10.023 -0.4556 -1.4494 -0.3723
15807SOL     OW51462   7.567   2.139   8.755  0.2551  0.2237 -0.0240
15807SOL    HW151463   7.651   2.106   8.723  1.5314  1.9606  1.3405
15807SOL    HW251464   7.507   2.066   8.742  1.2852 -0.1704 -3.5678
15808SOL     OW51465   3.791   1.148   1.321  0.0137  0.6806 -0.1509
15808SOL    HW151466   3.735   1.100   1.259  0.7604  0.9651 -1.0710
15808SOL    HW251467   3.777   1.104   1.405  0.2059 -0.7575 -0.8470
15809SOL     OW51468   8.979   4.447   6.434 -0.5193 -0.2099 -0.6201
15809SOL    HW151469   9.021   4.386   6.495 -0.3667  1.1970  0.7301
15809SOL    HW251470   8.905   4.398   6.399 -0.9336 -0.8823  1.1192
15810SOL     OW51471   2.700   6.804   1.066 -0.4731  0.3702 -0.0915
15810SOL    HW151472   2.708   6.710   1.052 -1.2133  0.3588 -0.5144
15810SOL    HW251473   2.726   6.818   1.157 -2.6083 -0.5728  0.7079
15811SOL     OW51474   0.509   5.497   6.600  0.1469 -0.1386  0.2275
15811SOL    HW151475   0.427   5.546   6.605 -0.7276 -1.4663 -0.6849
15811SOL    HW251476   0.487   5.409   6.629  1.2637 -0.5097  0.0140
15812SOL     OW51477   2.780   5.325   0.264 -0.1287  0.2602 -0.2047
15812SOL    HW151478   2.796   5.260   0.332  0.0666  0.5812  0.0620
15812SOL    HW251479   2.706   5.291   0.214 -0.7040  0.3376  0.5801
15813SOL     OW51480   1.550   9.581   3.176 -0.0679  0.1502 -0.3715
15813SOL    HW151481   1.615   9.623   3.233  1.1549 -1.9289 -0.1329
15813SOL    HW251482   1.476   9.642   3.176  1.4617  2.1152  0.1819
15814SOL     OW51483  10.191   5.994   2.185  0.9446 -0.9213 -0.3546
15814SOL    HW151484  10.229   5.969   2.101  0.2797 -1.0853 -0.6098
15814SOL    HW251485  10.232   5.935   2.248  1.3989 -0.8408 -0.5662
15815SOL     OW51486   2.541   6.547   9.055 -0.0640  0.0138  0.1564
15815SOL    HW151487   2.538   6.518   8.964  0.8373  0.8405 -0.1555
15815SOL    HW251488   2.515   6.639   9.053 -2.2569 -0.5230  1.0521
15816SOL     OW51489   8.297   4.520   0.615 -0.4145  0.4532  0.5472
15816SOL    HW151490   8.244   4.503   0.693 -2.4493 -0.0811 -0.8354
15816SOL    HW251491   8.329   4.433   0.588 -0.9701  0.4007  0.0085
15817SOL     OW51492   4.282   1.208   5.169  0.1526 -0.1748  0.0450
15817SOL    HW151493   4.337   1.276   5.130  2.3038 -1.9877 -0.2924
15817SOL    HW251494   4.193   1.234   5.146  0.7924  2.8758  0.5794
15818SOL     OW51495   7.060   5.170   3.174 -0.6358  0.4229  0.7403
15818SOL    HW151496   7.133   5.223   3.206 -0.7674  1.2691 -0.2908
15818SOL    HW251497   7.034   5.213   3.092 -1.6019 -0.4859  0.5539
15819SOL     OW51498   6.578   6.402   8.955 -0.3577 -0.0286  0.1174
15819SOL    HW151499   6.520   6.381   8.882  0.4716  1.1690 -0.9412
15819SOL    HW251500   6.626   6.321   8.973 -2.5447 -1.1443  1.2538
15820SOL     OW51501   9.507   1.807   6.317 -0.1239  1.5639 -0.7430
15820SOL    HW151502   9.482   1.763   6.399  0.0962  2.0717 -0.3991
15820SOL    HW251503   9.426   1.808   6.265 -0.0887  0.5927 -0.8359
15821SOL     OW51504   5.049   1.325   5.394  0.6416  0.4349 -0.0859
15821SOL    HW151505   5.125   1.325   5.452 -0.0035 -0.2912  0.7840
15821SOL    HW251506   5.016   1.235   5.399 -0.6157  0.8921 -0.0089
15822SOL     OW51507   0.670   7.489   4.453 -0.4215  0.2170  0.1393
15822SOL    HW151508   0.578   7.485   4.480 -0.4883  1.0743  0.0670
15822SOL    HW251509   0.707   7.562   4.504  0.6132 -1.0823  1.3253
15823SOL     OW51510   3.124   2.927   5.747 -0.3137  0.2630 -0.1368
15823SOL    HW151511   3.171   2.877   5.680 -0.2096 -0.1741  0.2596
15823SOL    HW251512   3.055   2.973   5.698  0.1474  0.4426 -0.6320
15824SOL     OW51513   4.811   0.155   0.401  0.0342  0.3421 -0.2127
15824SOL    HW151514   4.857   0.233   0.371  0.2761 -0.9183 -3.4500
15824SOL    HW251515   4.881   0.095   0.426 -0.0212  0.0054 -0.8653
15825SOL     OW51516   3.752   8.541   8.487  0.1446  0.3268  0.2923
15825SOL    HW151517   3.802   8.604   8.539  2.5290 -2.0003  1.0310
15825SOL    HW251518   3.714   8.482   8.552  2.2685 -1.9762 -0.3790
15826SOL     OW51519   9.413   8.278   2.148  0.0758 -0.3304  0.4986
15826SOL    HW151520   9.380   8.189   2.159  1.8338 -0.9681  0.9761
15826SOL    HW251521   9.502   8.266   2.114  0.1037  1.2695 -0.0621
15827SOL     OW51522   8.370   2.436   5.476  1.0904  0.2098  0.5906
15827SOL    HW151523   8.399   2.495   5.406  2.1323 -1.1961 -0.2288
15827SOL    HW251524   8.451   2.415   5.523  0.3605  1.4400  2.5414
15828SOL     OW51525   1.429   2.841   0.940 -0.3115 -0.3756 -0.0522
15828SOL    HW151526   1.453   2.756   0.976 -0.6826 -1.0033 -1.2242
15828SOL    HW251527   1.351   2.866   0.989  0.8978  0.2402  1.6506
15829SOL     OW51528   9.733   1.088   4.715  0.2606  0.4577  0.4985
15829SOL    HW151529   9.639   1.086   4.700 -0.1238  2.2117  2.2861
15829SOL    HW251530   9.744   1.052   4.803  1.5630 -2.0447 -0.6063
15830SOL     OW51531   2.595   5.462   2.746  0.2481 -0.0922 -0.1280
15830SOL    HW151532   2.655   5.397   2.709 -0.9871 -1.2071 -0.2086
15830SOL    HW251533   2.509   5.421   2.744 -0.5430  1.4685  0.0232
15831SOL     OW51534   4.054   3.509  10.235  0.4102 -0.5702 -0.4258
15831SOL    HW151535   4.042   3.528  10.328 -1.4543 -1.7617 -0.3705
15831SOL    HW251536   4.006   3.578  10.189  0.9304 -0.2551 -0.5066
15832SOL     OW51537   0.272   9.796   2.458 -0.4070  0.1226  0.0471
15832SOL    HW151538   0.359   9.760   2.475 -0.2692  0.9169  1.2164
15832SOL    HW251539   0.287   9.890   2.448 -1.1549  0.3195  0.6332
15833SOL     OW51540   6.437   8.156   9.450  0.2235 -0.4985  0.0746
15833SOL    HW151541   6.500   8.211   9.404  0.3515  0.7418  1.6442
15833SOL    HW251542   6.444   8.183   9.542 -1.0671 -1.8407  0.6127
15834SOL     OW51543   0.227   3.583   0.691 -0.4802  0.5291  0.4374
15834SOL    HW151544   0.143   3.538   0.678  0.0726 -0.0954 -1.2204
15834SOL    HW251545   0.239   3.634   0.610  0.7843  0.5113  0.5999
15835SOL     OW51546   9.483   9.543   9.617 -0.2678  0.3138 -0.0961
15835SOL    HW151547   9.509   9.588   9.698 -0.9845  1.2954 -0.3958
15835SOL    HW251548   9.390   9.524   9.630 -0.5965  1.2357 -1.0273
15836SOL     OW51549   7.449   1.395   0.020  0.2461 -0.5229  0.2626
15836SOL    HW151550   7.462   1.301   0.034 -1.9587 -0.9142  0.1049
15836SOL    HW251551   7.475   1.409  -0.071 -0.8072 -1.3123 -0.1839
15837SOL     OW51552   9.723   3.629   7.755  0.6092 -0.3079  0.5134
15837SOL    HW151553   9.667   3.693   7.800 -0.5627 -0.4662 -0.6869
15837SOL    HW251554   9.788   3.682   7.710 -0.3057  0.0502 -0.4061
15838SOL     OW51555   5.085   6.751   6.289  0.2041  0.0441  0.4826
15838SOL    HW151556   5.044   6.828   6.328  3.6094  0.9235  2.7507
15838SOL    HW251557   5.046   6.677   6.335 -1.5840  0.4748 -0.2461
15839SOL     OW51558   0.444   4.525   5.622  0.0564 -0.1507  0.0718
15839SOL    HW151559   0.360   4.506   5.581 -0.9922 -0.1176  2.0383
15839SOL    HW251560   0.493   4.574   5.556 -1.7653  0.4880 -0.8835
15840SOL     OW51561   7.345   5.489   6.925  0.0595  0.4134 -0.1502
15840SOL    HW151562   7.344   5.393   6.929  0.3304  0.4488  1.0460
15840SOL    HW251563   7.264   5.515   6.969 -0.2797  0.7284 -0.9500
15841SOL     OW51564   5.729   3.015   4.230 -0.4910  0.4485  0.5733
15841SOL    HW151565   5.672   2.968   4.169  1.2336 -1.7731  0.5472
15841SOL    HW251566   5.792   3.060   4.174 -1.8561  2.5780  0.6193
15842SOL     OW51567   6.664   1.594   3.130  0.1679  0.6185  1.0894
15842SOL    HW151568   6.694   1.584   3.040 -0.6578  0.4154  0.8363
15842SOL    HW251569   6.745   1.609   3.180  0.9483 -1.7693  0.7020
15843SOL     OW51570   4.733   7.657   0.560  0.0312  0.2805 -0.3425
15843SOL    HW151571   4.642   7.639   0.538  0.3603 -1.6013 -0.3880
15843SOL    HW251572   4.729   7.726   0.626 -1.2616  2.0209 -2.1278
15844SOL     OW51573   9.958   7.852   0.975  0.2952  0.0431  0.0304
15844SOL    HW151574   9.999   7.859   1.061  2.6332  1.9862 -1.1301
15844SOL    HW251575  10.023   7.809   0.920 -0.4965  0.2728 -1.1314
15845SOL     OW51576   4.362   6.349   3.532 -0.3936  0.1434 -0.0400
15845SOL    HW151577   4.300   6.388   3.594 -1.1971  0.6041 -1.1119
15845SOL    HW251578   4.319   6.355   3.447  1.2298  0.6915 -0.8648
15846SOL     OW51579   8.213   5.296   5.360  0.2485 -0.0311  0.2870
15846SOL    HW151580   8.298   5.288   5.405  0.0489 -3.5844  0.2676
15846SOL    HW251581   8.230   5.264   5.272 -0.9949 -0.2071  0.1015
15847SOL     OW51582   9.670   4.465   3.007  0.9776 -0.2705  0.0246
15847SOL    HW151583   9.647   4.375   3.031  2.0802 -0.4984  0.2475
15847SOL    HW251584   9.750   4.483   3.055  1.7177  0.2328 -1.3591
15848SOL     OW51585   7.586   1.528   0.574  0.9104 -0.0793 -0.3330
15848SOL    HW151586   7.530   1.562   0.644 -1.2171  2.1357 -2.8590
15848SOL    HW251587   7.624   1.607   0.534  0.4022 -1.0197 -2.8840
15849SOL     OW51588   7.139   5.371  10.297  0.8537  0.2814  0.1729
15849SOL    HW151589   7.129   5.461  10.327  1.1089  0.5310 -0.4702
15849SOL    HW251590   7.097   5.318  10.365 -0.2146  0.9425  0.0418
15850SOL     OW51591   9.625   6.870   7.260 -0.1752  0.2709  0.4595
15850SOL    HW151592   9.699   6.865   7.321 -0.0927  1.4728  0.4800
15850SOL    HW251593   9.579   6.787   7.272  2.1440 -1.3349 -0.8734
15851SOL     OW51594   0.690   0.735   8.289  0.0579 -0.1976  0.1059
15851SOL    HW151595   0.759   0.671   8.304 -0.3216 -0.9090 -1.0349
15851SOL    HW251596   0.675   0.733   8.195  0.0243  1.5783  0.0317
15852SOL     OW51597   5.545   2.118   1.717  0.5928  0.4158 -0.1596
15852SOL    HW151598   5.532   2.032   1.678 -0.3841  0.3354  0.2953
15852SOL    HW251599   5.531   2.179   1.645 -0.4054  0.2386 -0.1391
15853SOL     OW51600   5.298   2.903   9.316  0.0143  0.3789 -0.0216
15853SOL    HW151601   5.365   2.902   9.384  1.5285 -0.6430 -1.4330
15853SOL    HW251602   5.306   2.991   9.277  1.3471 -0.0796 -0.8725
15854SOL     OW51603   6.293   1.315   9.607  0.3389 -0.0411  0.2894
15854SOL    HW151604   6.342   1.396   9.622  1.2391 -0.4865 -0.1003
15854SOL    HW251605   6.333   1.252   9.666 -0.7421 -0.0662  1.0069
15855SOL     OW51606   7.479   2.436   6.698  0.4425  0.2122  0.3856
15855SOL    HW151607   7.551   2.401   6.751 -0.6910 -0.6457  1.4469
15855SOL    HW251608   7.453   2.362   6.642  0.5110  0.5783 -0.1346
15856SOL     OW51609   5.797   5.925   6.498  0.0741  0.5647  0.5634
15856SOL    HW151610   5.727   5.896   6.441  1.5450 -1.3504 -0.3707
15856SOL    HW251611   5.837   5.845   6.531  2.0717  1.5512  0.7390
15857SOL     OW51612   6.963   1.767   7.445  0.5303 -0.0426 -0.2521
15857SOL    HW151613   7.020   1.724   7.381  1.5392  0.4192  0.3192
15857SOL    HW251614   6.981   1.860   7.434  0.0828  0.0918  0.1377
15858SOL     OW51615   9.260   9.738   0.797 -0.1721 -0.3926 -0.5325
15858SOL    HW151616   9.330   9.677   0.819 -0.1202  0.0756  0.6470
15858SOL    HW251617   9.183   9.705   0.845  0.0674  0.9202  0.8426
15859SOL     OW51618   2.742   2.886   4.893  0.0390  0.0585 -0.0153
15859SOL    HW151619   2.749   2.845   4.979  0.5821  0.6227  0.2161
15859SOL    HW251620   2.739   2.813   4.831  0.0587 -0.3414  0.4550
15860SOL     OW51621   6.564  10.005   6.719 -0.0890 -0.1137  0.4854
15860SOL    HW151622   6.587   9.950   6.644  0.7821  0.8494  0.0302
15860SOL    HW251623   6.546  10.091   6.681 -0.9467  0.0521  1.2445
15861SOL     OW51624   5.140   0.425   8.475 -0.4006 -0.2207 -0.2971
15861SOL    HW151625   5.224   0.421   8.428  0.4621 -0.6292  1.2132
15861SOL    HW251626   5.161   0.466   8.559 -1.8834  0.4188 -0.2072
15862SOL     OW51627  10.051   6.423   4.585 -0.5066  0.1811 -0.1730
15862SOL    HW151628   9.961   6.431   4.615 -0.6817  0.5766 -0.8057
15862SOL    HW251629  10.081   6.339   4.620 -0.7567  0.5567  0.9836
15863SOL     OW51630   8.834   2.677   6.741 -0.1641 -0.3184  0.2817
15863SOL    HW151631   8.764   2.614   6.754 -1.8104  1.2875 -0.3323
15863SOL    HW251632   8.808   2.727   6.664  0.4132  1.8931  1.4172
15864SOL     OW51633   5.026   5.626   5.963 -0.3210 -0.3975  0.2653
15864SOL    HW151634   5.015   5.683   5.886 -1.1972 -1.7715 -0.6699
15864SOL    HW251635   4.973   5.549   5.943 -1.0188 -0.5567  2.5188
15865SOL     OW51636   3.972   2.938   5.921 -0.1497  0.3678  0.0771
15865SOL    HW151637   4.005   2.851   5.944 -0.9859  0.1486  0.4857
15865SOL    HW251638   3.994   2.949   5.829  1.5353  0.4626  0.4483
15866SOL     OW51639   5.966   5.526   9.075  0.5879 -0.3039 -0.6987
15866SOL    HW151640   5.995   5.531   8.984 -0.9436  0.6815 -1.1781
15866SOL    HW251641   5.905   5.452   9.076 -1.5582  1.3555 -1.1950
15867SOL     OW51642   7.628   3.134   7.577  0.0813  0.2079  0.3366
15867SOL    HW151643   7.712   3.142   7.623 -0.0028 -2.2710  1.1185
15867SOL    HW251644   7.570   3.092   7.642 -0.5255 -1.9138 -1.4440
15868SOL     OW51645   5.897   7.546   6.403 -0.1934 -0.7817 -0.0207
15868SOL    HW151646   5.979   7.589   6.427 -1.6180  1.6239  1.0327
15868SOL    HW251647   5.868   7.504   6.484 -0.1958 -1.2721 -0.2770
15869SOL     OW51648   8.302   9.255   9.357  0.2710  0.4520  0.1841
15869SOL    HW151649   8.253   9.227   9.280 -0.1709 -0.1341  0.6703
15869SOL    HW251650   8.276   9.346   9.370  1.8338  1.2138 -1.4983
15870SOL     OW51651   2.119   9.231   5.192 -1.1266 -0.3593 -0.1628
15870SOL    HW151652   2.049   9.238   5.128 -0.5846  0.1053 -0.7199
15870SOL    HW251653   2.100   9.300   5.256 -0.5355  0.5704 -0.9636
15871SOL     OW51654   3.372   5.270   1.639  0.2943  0.4970  0.0681
15871SOL    HW151655   3.399   5.180   1.657  4.0893  1.6174  1.0194
15871SOL    HW251656   3.403   5.288   1.551 -1.2522  0.6577 -0.4695
15872SOL     OW51657   8.795   5.176   5.082 -0.5411  0.5572 -0.1306
15872SOL    HW151658   8.795   5.126   5.163  1.0853 -0.4842 -0.7275
15872SOL    HW251659   8.771   5.112   5.014  0.1373  0.9183 -0.7252
15873SOL     OW51660   8.138  10.194   9.773 -0.9534 -0.0572  0.0948
15873SOL    HW151661   8.101  10.157   9.694 -0.5666 -0.9431  0.3141
15873SOL    HW251662   8.067  10.190   9.838 -1.8118  2.1920 -0.6107
15874SOL     OW51663   7.296   3.668   7.869 -0.6977  0.0707 -0.6930
15874SOL    HW151664   7.219   3.612   7.880 -1.3498  1.4087  3.7043
15874SOL    HW251665   7.362   3.629   7.928  1.2473  0.2572 -2.6318
15875SOL     OW51666   7.089   4.105   0.973  0.3066  0.4139 -0.3591
15875SOL    HW151667   7.120   4.189   0.941  0.5179  0.6693  0.4706
15875SOL    HW251668   7.156   4.078   1.037 -0.4673  0.3165  0.4377
15876SOL     OW51669   3.501   4.994   1.682 -0.3802 -0.0513 -0.7739
15876SOL    HW151670   3.497   4.910   1.729 -2.0312  0.9761  1.0442
15876SOL    HW251671   3.566   5.045   1.730 -0.5295  0.2698 -0.9130
15877SOL     OW51672   8.232   3.483   4.765 -0.1986  0.1910  0.2535
15877SOL    HW151673   8.323   3.504   4.788 -0.4537 -0.5474  2.0932
15877SOL    HW251674   8.184   3.563   4.784  0.1218  0.8341 -1.4233
15878SOL     OW51675   6.357   9.957  10.046 -0.4308  0.0093 -0.2430
15878SOL    HW151676   6.433   9.919  10.003 -0.4565 -0.1147 -0.1784
15878SOL    HW251677   6.394  10.013  10.114 -0.4172 -1.6897  1.2016
15879SOL     OW51678   5.673   8.566   4.290 -0.2581  0.0992  0.0968
15879SOL    HW151679   5.601   8.572   4.353 -1.2349 -1.8611 -0.7404
15879SOL    HW251680   5.649   8.629   4.222 -0.7989  0.0121  0.1999
15880SOL     OW51681   5.811   4.415   4.895 -0.0989 -0.1658  0.0106
15880SOL    HW151682   5.758   4.419   4.816 -0.4383 -1.6859  0.1319
15880SOL    HW251683   5.776   4.485   4.951 -2.2132 -1.2896  0.2008
15881SOL     OW51684   7.895   2.562   5.925  0.1655  0.0345  0.5020
15881SOL    HW151685   7.948   2.631   5.885 -0.1017 -0.3129 -0.4876
15881SOL    HW251686   7.853   2.518   5.851  1.1632 -1.8877  1.0089
15882SOL     OW51687   0.744   8.856   4.778 -0.1066  0.5945  0.0453
15882SOL    HW151688   0.763   8.946   4.806  0.0383 -0.2103  2.9147
15882SOL    HW251689   0.755   8.804   4.858 -1.7348 -1.7640 -1.1560
15883SOL     OW51690   0.888   7.738   5.969  0.0382  0.0941 -0.2564
15883SOL    HW151691   0.795   7.720   5.981  0.0092 -0.4916 -1.2320
15883SOL    HW251692   0.918   7.769   6.055 -1.3867  1.8511 -0.3390
15884SOL     OW51693   6.113   4.555   3.749 -0.5865  0.3883 -0.1538
15884SOL    HW151694   6.126   4.481   3.689 -0.2362  0.6594 -0.4181
15884SOL    HW251695   6.048   4.523   3.812  0.0804 -0.3984  0.1593
15885SOL     OW51696   2.989   1.844   6.163  0.0415  0.2550  0.8054
15885SOL    HW151697   2.899   1.817   6.143  0.9012 -1.6521 -0.8709
15885SOL    HW251698   3.012   1.903   6.091  0.4429 -0.0520  0.6798
15886SOL     OW51699   2.116   7.076   7.808 -0.3821  0.8207  0.1545
15886SOL    HW151700   2.033   7.117   7.786 -0.6440  0.4326  0.4064
15886SOL    HW251701   2.181   7.123   7.756 -0.7834  0.9937 -0.1923
15887SOL     OW51702   4.047   7.889   4.235  0.5201 -0.3063  0.3046
15887SOL    HW151703   4.004   7.817   4.190 -1.7306  1.0206  0.2143
15887SOL    HW251704   4.017   7.882   4.326  0.0830  0.6321  0.2461
15888SOL     OW51705   0.615   3.708   4.561 -0.5710 -1.1058 -0.6494
15888SOL    HW151706   0.609   3.746   4.473 -0.2890 -1.0190 -0.6316
15888SOL    HW251707   0.639   3.781   4.617  0.0110 -1.3139 -0.6195
15889SOL     OW51708   1.158   1.103   5.427  0.1230 -0.5834 -0.0458
15889SOL    HW151709   1.070   1.083   5.459  0.2913 -0.1865  0.6700
15889SOL    HW251710   1.215   1.045   5.476  0.1901 -1.5712 -1.2238
15890SOL     OW51711   5.773   5.696   2.693 -0.2862  0.8146  0.4584
15890SOL    HW151712   5.790   5.633   2.623 -2.0896  0.2147  0.5080
15890SOL    HW251713   5.785   5.646   2.774  0.3919  1.1271  0.5577
15891SOL     OW51714   5.141   2.787   6.647 -0.5456 -0.5789  0.3482
15891SOL    HW151715   5.074   2.734   6.605 -0.7902 -1.3746  1.6926
15891SOL    HW251716   5.134   2.766   6.740  2.7110 -2.0785  0.3951
15892SOL     OW51717   1.420   4.444   6.254  0.2839  0.2167 -0.2842
15892SOL    HW151718   1.421   4.383   6.328  1.3579  0.6708  0.0868
15892SOL    HW251719   1.426   4.387   6.176  3.4429 -0.1520  0.0908
15893SOL     OW51720   0.798   0.033   5.974  0.3985  0.6829  0.2582
15893SOL    HW151721   0.835   0.090   6.042 -0.1460  0.6149  0.6131
15893SOL    HW251722   0.831  -0.054   5.997 -0.9412  0.4176  1.2864
15894SOL     OW51723   9.085   9.662   8.123 -0.2913  0.1495 -0.3616
15894SOL    HW151724   9.167   9.667   8.173  0.5163 -0.1197 -1.5959
15894SOL    HW251725   9.090   9.578   8.078 -0.4355  0.8605 -1.7694
15895SOL     OW51726   8.139   2.762   7.991  0.2178 -0.3945  0.8631
15895SOL    HW151727   8.185   2.756   7.907 -1.6927  2.0149 -0.4890
15895SOL    HW251728   8.209   2.775   8.056  1.6119 -0.0456 -0.6411
15896SOL     OW51729   2.867   1.440   4.811  0.2086  0.0662  0.7815
15896SOL    HW151730   2.791   1.471   4.763 -0.0500  0.2045  1.2777
15896SOL    HW251731   2.942   1.468   4.758  0.0410  2.4015  1.6729
15897SOL     OW51732   9.890   6.708   5.428 -0.0761  0.1752 -0.2950
15897SOL    HW151733   9.969   6.656   5.443 -0.4336 -0.2742  0.0726
15897SOL    HW251734   9.845   6.707   5.513 -1.0501 -0.5450 -0.8056
15898SOL     OW51735   6.747   3.128   5.720 -0.1191  0.2825  0.0857
15898SOL    HW151736   6.823   3.186   5.719  0.1547 -0.0662  0.6279
15898SOL    HW251737   6.750   3.084   5.635 -0.2611  0.9586 -0.2812
15899SOL     OW51738   7.628   0.118   5.477 -0.1206 -0.6917  0.6989
15899SOL    HW151739   7.649   0.209   5.500  0.1540 -1.2870  3.1754
15899SOL    HW251740   7.658   0.108   5.387 -1.1824  1.9536 -0.0556
15900SOL     OW51741   5.073   5.809   1.783 -0.0163  0.1840 -0.2529
15900SOL    HW151742   5.048   5.898   1.758  0.7096  0.3490 -0.4186
15900SOL    HW251743   5.124   5.820   1.863  2.4250  0.2065 -1.7340
15901SOL     OW51744   5.319   0.701   7.709 -0.1502  0.2300  0.2769
15901SOL    HW151745   5.227   0.723   7.718 -0.1682  0.2962 -0.0608
15901SOL    HW251746   5.363   0.784   7.689 -0.2213 -0.0110 -0.9968
15902SOL     OW51747   6.170   9.080   1.278 -0.3783  0.6205 -0.5533
15902SOL    HW151748   6.123   9.030   1.344  0.4357  0.4292 -0.0956
15902SOL    HW251749   6.215   9.013   1.226  1.1203  0.8399  0.3720
15903SOL     OW51750   3.120   0.517   3.382 -0.4937  0.2390 -0.3320
15903SOL    HW151751   3.110   0.488   3.291  2.4215 -1.6940 -0.1867
15903SOL    HW251752   3.131   0.611   3.376  0.2767  0.0753 -2.0788
15904SOL     OW51753   7.921   4.519   0.581 -0.0004 -0.0339  0.1331
15904SOL    HW151754   7.958   4.582   0.642 -1.8769  0.1126  1.1749
15904SOL    HW251755   7.842   4.487   0.623 -1.7260  0.5128 -2.4650
15905SOL     OW51756   1.855   0.396   9.761 -0.1764  0.3462 -0.4066
15905SOL    HW151757   1.868   0.330   9.829  0.7414  1.4037  0.4815
15905SOL    HW251758   1.927   0.382   9.700  0.7508  1.2691  0.4320
15906SOL     OW51759   6.244   4.323   3.126  0.5343 -0.0277 -0.1077
15906SOL    HW151760   6.206   4.359   3.207  1.8237  0.2035  0.4196
15906SOL    HW251761   6.229   4.392   3.061  3.6774  1.9897  1.0714
15907SOL     OW51762   8.357   6.043   5.195 -0.3436 -0.1831 -0.0598
15907SOL    HW151763   8.401   6.043   5.110 -0.8138  0.0270 -0.3091
15907SOL    HW251764   8.339   5.951   5.213 -0.8684 -0.1807 -0.5265
15908SOL     OW51765   5.280   1.231   5.705 -0.5483  0.4474 -0.3381
15908SOL    HW151766   5.342   1.158   5.694  1.7168  2.3136 -0.7564
15908SOL    HW251767   5.196   1.188   5.723  0.8714 -2.2435  0.5444
15909SOL     OW51768   7.748   3.490   2.641  0.3444 -0.9191 -0.3995
15909SOL    HW151769   7.772   3.416   2.697  0.8476 -2.8412 -2.9709
15909SOL    HW251770   7.831   3.535   2.624  0.6859 -1.9933 -1.7502
15910SOL     OW51771   0.613   1.960   9.356 -0.3697 -0.2422 -0.6193
15910SOL    HW151772   0.582   1.869   9.359  2.7101 -1.4266 -1.1102
15910SOL    HW251773   0.615   1.982   9.263 -0.7977  0.2289 -0.5222
15911SOL     OW51774   7.751   3.704   9.103 -0.5103 -0.5381 -0.1336
15911SOL    HW151775   7.775   3.795   9.123 -2.6924 -0.0804  0.6837
15911SOL    HW251776   7.777   3.656   9.182  1.2164 -0.8014 -0.8050
15912SOL     OW51777   8.235   8.506   5.470  0.4531  0.2498  0.2190
15912SOL    HW151778   8.202   8.510   5.560  0.2711  2.2906  0.0936
15912SOL    HW251779   8.245   8.412   5.453 -2.6153 -0.3976  1.2440
15913SOL     OW51780   8.758   2.605   9.776 -0.0150  0.0045 -0.2013
15913SOL    HW151781   8.760   2.512   9.796  2.3042 -0.1692 -0.9242
15913SOL    HW251782   8.851   2.631   9.771 -0.5657  2.7098  1.5339
15914SOL     OW51783   0.514   0.162   7.314  0.3232  0.3202 -0.7672
15914SOL    HW151784   0.536   0.076   7.278  1.3863 -0.5024  1.6794
15914SOL    HW251785   0.440   0.192   7.261  0.7777 -1.4729 -2.5321
15915SOL     OW51786   0.258   5.680   2.895  0.0730  0.5907 -0.9591
15915SOL    HW151787   0.319   5.729   2.839  0.5253 -0.3673 -1.3237
15915SOL    HW251788   0.311   5.653   2.970 -0.2345  0.8569 -0.6422
15916SOL     OW51789   2.695   5.900   0.001 -0.5992  0.3417 -0.2051
15916SOL    HW151790   2.636   5.961   0.046 -0.3551  1.3571 -1.1993
15916SOL    HW251791   2.638   5.847  -0.054 -1.0867 -1.9885  2.3717
15917SOL     OW51792   8.391   9.599   5.075  0.5430  0.3441  0.0185
15917SOL    HW151793   8.412   9.669   5.137 -2.1035  2.8147 -1.6016
15917SOL    HW251794   8.319   9.551   5.116  1.0844 -0.2399  0.3014
15918SOL     OW51795   3.740   5.948   7.708  0.4225  0.3133  0.1803
15918SOL    HW151796   3.735   6.043   7.720  0.3079  0.3392 -0.0843
15918SOL    HW251797   3.658   5.924   7.666 -2.0266 -0.6268  4.8852
15919SOL     OW51798   1.904   7.103   6.715  0.4805 -0.1150 -0.2297
15919SOL    HW151799   1.952   7.186   6.711 -0.2130  0.4347  1.8733
15919SOL    HW251800   1.812   7.129   6.711  0.2765 -0.9071 -0.8824
15920SOL     OW51801   5.945   8.356   5.527 -0.3491 -0.1669 -0.3738
15920SOL    HW151802   6.015   8.359   5.462 -1.3626  0.9047 -1.4929
15920SOL    HW251803   5.930   8.447   5.550 -1.4563 -0.3615 -0.2703
15921SOL     OW51804   7.510   8.964   2.171  0.4576  0.3248 -0.1712
15921SOL    HW151805   7.438   9.021   2.198  0.3476  0.7134 -1.2014
15921SOL    HW251806   7.589   9.010   2.200  0.3765  1.0891 -1.0829
15922SOL     OW51807   0.410   0.925   6.533  0.1134  0.6258 -0.2524
15922SOL    HW151808   0.318   0.949   6.530 -0.2130 -0.5907 -0.8243
15922SOL    HW251809   0.434   0.908   6.442  0.0836 -1.8099  0.1132
15923SOL     OW51810   3.641   8.420   6.625 -0.0973  0.3978  0.5482
15923SOL    HW151811   3.678   8.493   6.575  1.4335 -0.5553  0.2145
15923SOL    HW251812   3.712   8.356   6.629 -1.2510 -0.8782  1.2368
15924SOL     OW51813   8.160   5.598   5.454  0.3528 -0.5457  0.0495
15924SOL    HW151814   8.134   5.620   5.543  0.3632 -0.8668  0.1361
15924SOL    HW251815   8.250   5.566   5.462  0.2958 -0.7362 -0.0486
15925SOL     OW51816   9.920   1.828   7.088 -0.0265 -0.0804 -0.2454
15925SOL    HW151817   9.968   1.911   7.089 -1.1769  0.6388 -1.3132
15925SOL    HW251818   9.903   1.809   7.180 -3.5471  3.2427  0.0253
15926SOL     OW51819   5.133   9.180   8.797 -0.5302 -0.8971  0.3121
15926SOL    HW151820   5.091   9.160   8.881  0.3073  1.0770  1.2584
15926SOL    HW251821   5.197   9.109   8.786  0.7525 -0.1624  2.3912
15927SOL     OW51822   9.662   9.476   7.654  0.0424  0.0367 -0.2982
15927SOL    HW151823   9.746   9.440   7.626  1.4069  1.6739  1.4363
15927SOL    HW251824   9.669   9.570   7.638 -1.1183  0.3075  0.6393
15928SOL     OW51825   0.649   7.355   1.836  0.0262 -0.2460  0.1653
15928SOL    HW151826   0.661   7.376   1.744  3.3067  0.5238  0.6707
15928SOL    HW251827   0.637   7.260   1.837  0.7168 -0.3623 -1.0091
15929SOL     OW51828   7.387   9.818   1.555  0.2009  0.0694  0.2502
15929SOL    HW151829   7.344   9.771   1.484 -1.4255  0.4742  0.9372
15929SOL    HW251830   7.471   9.846   1.517 -0.1710 -0.6330 -1.1625
15930SOL     OW51831   5.947   4.680   2.243 -0.4875 -0.2270  0.5935
15930SOL    HW151832   5.957   4.630   2.325 -0.3563 -2.3312 -0.6185
15930SOL    HW251833   5.854   4.698   2.238 -0.8185 -1.8278  0.3082
15931SOL     OW51834   1.825   6.460   6.247  0.0454 -0.3616  0.2643
15931SOL    HW151835   1.831   6.459   6.151 -2.5684  0.2999 -0.0042
15931SOL    HW251836   1.824   6.553   6.270  1.2961 -0.5176  1.0176
15932SOL     OW51837   8.998   0.617  10.032  0.0792 -0.1177 -0.2544
15932SOL    HW151838   9.021   0.695  10.083 -2.2427 -0.2841  1.1939
15932SOL    HW251839   9.021   0.544  10.090  1.8372 -0.5640 -1.4297
15933SOL     OW51840   2.514   3.370   0.960 -0.1874 -0.0583  0.0714
15933SOL    HW151841   2.601   3.379   1.000  0.4060 -0.8249 -0.9926
15933SOL    HW251842   2.496   3.276   0.961  0.8093 -0.4389 -3.2404
15934SOL     OW51843   9.651   8.026   1.255 -0.3792  0.4195  0.1273
15934SOL    HW151844   9.742   8.038   1.282 -0.3962  0.2391  0.2715
15934SOL    HW251845   9.656   7.975   1.174 -0.3373  0.7515 -0.0785
15935SOL     OW51846   8.835   5.194   7.265 -0.0280 -0.1066  0.3796
15935SOL    HW151847   8.800   5.281   7.246 -0.6590 -0.3737  0.2808
15935SOL    HW251848   8.832   5.148   7.181 -0.9412 -0.6444  0.6896
15936SOL     OW51849   5.765   5.562   1.646 -0.2105 -0.5902 -0.2465
15936SOL    HW151850   5.775   5.486   1.703 -1.9577 -1.8242 -1.4616
15936SOL    HW251851   5.822   5.542   1.571 -0.7346 -0.7636 -0.6039
15937SOL     OW51852   8.099   8.174   6.335 -0.7672  0.1192 -0.6790
15937SOL    HW151853   8.121   8.086   6.365 -1.3143  0.6317  1.3766
15937SOL    HW251854   8.175   8.228   6.357 -1.4074  0.6175  0.4429
15938SOL     OW51855   7.001  10.028   4.189  0.7682  0.3425 -0.2877
15938SOL    HW151856   7.033  10.105   4.234  0.8362  2.0456 -2.9897
15938SOL    HW251857   6.999  10.053   4.096 -1.8256 -1.9724 -1.0231
15939SOL     OW51858   0.718   3.389   0.153  0.2745  0.0186  0.3863
15939SOL    HW151859   0.743   3.441   0.076  1.7112 -1.3433 -0.1218
15939SOL    HW251860   0.633   3.352   0.130 -0.7271  1.9743  0.7119
15940SOL     OW51861   7.782   9.560   1.507 -0.0928  0.2788 -0.3564
15940SOL    HW151862   7.856   9.570   1.448 -1.7865 -1.5812 -2.9783
15940SOL    HW251863   7.819   9.523   1.587  1.8488 -0.1784 -1.4243
15941SOL     OW51864   4.709   6.234   4.831 -0.0090  0.0203  0.2471
15941SOL    HW151865   4.718   6.227   4.926 -1.8685 -1.4831  0.3860
15941SOL    HW251866   4.622   6.198   4.813 -0.7086  2.4429 -1.8046
15942SOL     OW51867   0.621   3.584   8.998  0.0215  0.7575  0.0341
15942SOL    HW151868   0.686   3.561   8.932  3.1225  1.1617  2.7064
15942SOL    HW251869   0.629   3.679   9.008  0.1333  0.6182  1.4684
15943SOL     OW51870   7.411  10.217   9.775 -0.0573  0.3529 -0.9358
15943SOL    HW151871   7.501  10.192   9.796  0.3086  2.4711  0.2983
15943SOL    HW251872   7.363  10.134   9.771  1.3889 -0.6722  1.2226
15944SOL     OW51873   3.970   5.249   5.496 -0.1182  0.0302  0.2153
15944SOL    HW151874   3.988   5.343   5.485 -1.0858  0.4544  1.9453
15944SOL    HW251875   4.056   5.209   5.508  0.7327  0.0676 -4.0118
15945SOL     OW51876   1.372  10.183   8.330  1.1706  0.3287 -0.3182
15945SOL    HW151877   1.355  10.231   8.411 -1.6771 -0.4799 -0.3247
15945SOL    HW251878   1.373  10.091   8.357  0.8849  0.0950 -1.0957
15946SOL     OW51879   7.358   0.056   5.484 -0.2975  0.2295 -0.1652
15946SOL    HW151880   7.451   0.066   5.503 -0.6623  0.9463  1.3966
15946SOL    HW251881   7.356   0.001   5.406  1.3798 -1.8148  1.1124
15947SOL     OW51882   1.940   1.541   2.431  0.2378 -0.3944  0.5079
15947SOL    HW151883   1.934   1.547   2.336  0.6132  0.7774  0.5420
15947SOL    HW251884   2.033   1.525   2.448  0.6591  1.9652  0.7464
15948SOL     OW51885   1.319   0.742   1.474  0.5810  0.3113  0.3819
15948SOL    HW151886   1.264   0.665   1.460  0.6173  0.1013  1.3008
15948SOL    HW251887   1.304   0.797   1.398 -0.1009 -0.2232  0.1234
15949SOL     OW51888   7.367   7.213   7.468 -0.7956 -0.0313 -0.3249
15949SOL    HW151889   7.274   7.224   7.449 -0.4443  2.7994 -0.8729
15949SOL    HW251890   7.394   7.136   7.418 -2.5019  0.0508 -1.4409
15950SOL     OW51891   1.921   1.573   5.890 -0.1789 -0.1340  0.6622
15950SOL    HW151892   1.945   1.516   5.817 -0.6034 -0.1308  0.5192
15950SOL    HW251893   1.900   1.657   5.850 -2.0190 -0.5785  0.5876
15951SOL     OW51894   4.086   8.610   5.277  0.3952 -0.4379  0.6477
15951SOL    HW151895   4.100   8.517   5.258  0.9965  0.2045 -2.7126
15951SOL    HW251896   3.991   8.618   5.288 -0.0909 -1.0772 -2.2411
15952SOL     OW51897   9.873   7.918   6.126  0.0915 -0.4052 -0.3457
15952SOL    HW151898   9.855   7.856   6.055 -2.5721 -0.5469  0.3533
15952SOL    HW251899   9.946   7.971   6.093 -0.4521 -1.0390 -2.8086
15953SOL     OW51900   9.414   9.157   5.942  0.0372 -0.8038  0.3025
15953SOL    HW151901   9.493   9.166   5.889 -0.1873 -1.5141 -0.1647
15953SOL    HW251902   9.342   9.165   5.879 -0.2701 -0.3445  0.6986
15954SOL     OW51903   5.034   9.836   7.780  0.5591  0.2106  0.3195
15954SOL    HW151904   5.108   9.777   7.767  1.1308  1.1559 -0.8559
15954SOL    HW251905   5.024   9.841   7.875  1.0108 -1.1228  0.4600
15955SOL     OW51906   9.056   0.900   9.531  0.0500 -0.4022 -0.0218
15955SOL    HW151907   8.996   0.919   9.458 -0.7842 -2.1989  0.1557
15955SOL    HW251908   9.081   0.809   9.519  1.2408 -0.2379  1.0210
15956SOL     OW51909   5.332   0.084   0.926  0.1150 -0.9407 -0.4279
15956SOL    HW151910   5.253   0.112   0.973 -0.7839 -0.6762 -2.0124
15956SOL    HW251911   5.321  -0.010   0.916 -0.2238 -0.8479 -0.9990
15957SOL     OW51912   0.097   2.511   7.697 -0.2809 -0.1793 -0.5295
15957SOL    HW151913   0.038   2.451   7.742 -0.2198 -0.6383 -1.0466
15957SOL    HW251914   0.094   2.591   7.749  0.9210 -1.1594  1.1181
15958SOL     OW51915   5.282   8.213   7.747 -0.1408 -0.6245  0.5520
15958SOL    HW151916   5.346   8.158   7.701 -2.4048 -1.6041 -1.6141
15958SOL    HW251917   5.334   8.283   7.785  1.9502  0.6397 -4.0066
15959SOL     OW51918   6.782   5.380  10.036 -0.2884  0.6724  0.0385
15959SOL    HW151919   6.780   5.469  10.070  1.2883  0.0670  1.9059
15959SOL    HW251920   6.690   5.355  10.029 -0.7269  1.7159  1.5630
15960SOL     OW51921   7.073   3.194   8.096  0.4977 -0.2760  0.0756
15960SOL    HW151922   7.136   3.265   8.109 -0.4962  0.7482 -0.5499
15960SOL    HW251923   7.100   3.126   8.158  1.9224  0.3308  0.1572
15961SOL     OW51924   4.946   7.098   1.768 -0.5476  0.2998  0.0310
15961SOL    HW151925   4.874   7.161   1.775 -0.1320  0.9452 -1.2099
15961SOL    HW251926   5.009   7.140   1.710  0.5579 -0.5262  0.5929
15962SOL     OW51927   1.696   8.484   3.988 -0.3916 -0.1425  0.3746
15962SOL    HW151928   1.659   8.571   4.006  0.0578 -0.0491  0.8829
15962SOL    HW251929   1.667   8.463   3.899  1.6088  1.6653 -0.8085
15963SOL     OW51930   9.782   2.069   6.713  0.6213  0.0750 -0.1192
15963SOL    HW151931   9.699   2.073   6.760  1.0966  2.8212  0.6764
15963SOL    HW251932   9.758   2.054   6.622 -0.6331 -0.3582  0.2634
15964SOL     OW51933   7.753   2.955  10.156  0.5803 -0.4943 -0.0464
15964SOL    HW151934   7.759   2.863  10.181 -1.4679 -1.1837 -1.7995
15964SOL    HW251935   7.725   3.000  10.235  1.8217 -1.3142  0.8940
15965SOL     OW51936   2.040   8.825   7.087  0.1304 -0.1359 -0.1385
15965SOL    HW151937   2.006   8.905   7.126  0.1273  1.7972 -3.6734
15965SOL    HW251938   2.134   8.840   7.080  0.1007 -0.2689 -1.0240
15966SOL     OW51939   6.034   3.548   3.465 -0.1089 -0.0818 -0.0665
15966SOL    HW151940   5.959   3.506   3.423  0.7481  0.0997 -1.9266
15966SOL    HW251941   6.100   3.479   3.472  0.4754  0.3597 -0.9661
15967SOL     OW51942   8.349   2.142   2.132  0.4394  0.7019  0.1154
15967SOL    HW151943   8.380   2.231   2.112 -0.0422  1.3518  2.0507
15967SOL    HW251944   8.299   2.152   2.213 -0.8156 -1.1230 -0.3744
15968SOL     OW51945   2.765   7.973  10.012  0.7930 -0.0321 -0.0002
15968SOL    HW151946   2.801   8.000  10.096  0.7544  0.7390 -0.2221
15968SOL    HW251947   2.693   7.913  10.034 -0.4986  1.6700  0.6001
15969SOL     OW51948   3.513   0.817   5.143  0.0103  0.5041 -0.5901
15969SOL    HW151949   3.552   0.780   5.064 -0.0937  0.8353 -0.7977
15969SOL    HW251950   3.517   0.912   5.130 -0.1613  0.5569 -0.2742
15970SOL     OW51951   0.661   5.038   4.491 -0.4386  0.0366 -0.8044
15970SOL    HW151952   0.750   5.071   4.497 -0.7724  1.0625 -1.2169
15970SOL    HW251953   0.656   4.997   4.404  0.1514 -1.7022 -0.0578
15971SOL     OW51954   6.350   8.480   4.352  0.2397 -0.2538 -0.3242
15971SOL    HW151955   6.355   8.575   4.345  2.0466 -0.3991 -2.1109
15971SOL    HW251956   6.300   8.452   4.275 -0.2909 -0.7554  0.1926
15972SOL     OW51957   7.905   5.226   0.243  0.6337 -0.5190 -0.1125
15972SOL    HW151958   7.985   5.212   0.295  1.0906  2.1104  0.0082
15972SOL    HW251959   7.890   5.320   0.246 -1.5996 -0.7520 -1.4912
15973SOL     OW51960   9.869   1.892   2.731 -1.3642 -0.2232  0.3001
15973SOL    HW151961   9.809   1.828   2.770 -1.8990 -0.8530 -1.4636
15973SOL    HW251962   9.918   1.843   2.665 -1.1393  0.9702 -0.4598
15974SOL     OW51963   8.453   3.046   1.370 -0.5280  0.5292  0.0833
15974SOL    HW151964   8.389   3.110   1.338 -1.0082 -1.1223 -2.5892
15974SOL    HW251965   8.538   3.083   1.344 -0.6132  1.2237  0.7728
15975SOL     OW51966   0.708   4.655   3.355  0.6383  0.0287 -0.2898
15975SOL    HW151967   0.770   4.584   3.337  0.8768  0.6672 -2.2119
15975SOL    HW251968   0.658   4.665   3.275 -0.2593  1.2128  0.3776
15976SOL     OW51969   3.474   7.780   0.801  0.0901  0.4964 -0.1821
15976SOL    HW151970   3.495   7.786   0.894  0.1658 -0.2726 -0.1414
15976SOL    HW251971   3.505   7.862   0.763  0.0219  0.8263  0.4804
15977SOL     OW51972   6.572   1.230   5.259 -0.2855 -0.8789 -0.2368
15977SOL    HW151973   6.528   1.147   5.241 -0.2243 -0.6067 -1.7749
15977SOL    HW251974   6.543   1.288   5.188  0.4364  0.1149  0.2653
15978SOL     OW51975   1.875   8.029   1.630 -0.6037 -0.5225  0.4604
15978SOL    HW151976   1.818   7.972   1.680 -0.4994 -0.7232  0.3525
15978SOL    HW251977   1.883   7.986   1.545 -0.6541 -0.2647  0.3240
15979SOL     OW51978   3.991   9.802   7.280 -0.1646  0.8076  0.0540
15979SOL    HW151979   3.962   9.718   7.246  0.3775  0.9869 -0.8998
15979SOL    HW251980   3.930   9.822   7.351 -0.6740 -0.0906 -0.1185
15980SOL     OW51981   1.096   8.358   1.489  0.1621  0.2441  0.1575
15980SOL    HW151982   1.057   8.274   1.466  1.4059  0.0146 -1.2856
15980SOL    HW251983   1.023   8.419   1.494 -0.4764 -0.2966 -1.8096
15981SOL     OW51984   9.671   4.185   0.969 -0.4442 -0.1517 -0.2106
15981SOL    HW151985   9.676   4.230   1.053 -0.6949  0.6821 -0.6290
15981SOL    HW251986   9.762   4.169   0.945 -0.3675 -0.2624  0.1422
15982SOL     OW51987   2.975   5.573   7.346  0.2876 -0.6516  0.6749
15982SOL    HW151988   2.929   5.554   7.264  1.2448 -0.6063  0.1173
15982SOL    HW251989   2.906   5.571   7.413 -1.0544  2.1254 -0.4603
15983SOL     OW51990   6.834   1.253   2.529 -0.3662  0.0881  0.3414
15983SOL    HW151991   6.745   1.264   2.561 -0.3809  1.9473 -0.2282
15983SOL    HW251992   6.890   1.278   2.603 -0.3761  1.6222 -0.1348
15984SOL     OW51993   4.438   0.970   0.461  0.2347  0.4169 -0.3198
15984SOL    HW151994   4.478   1.049   0.426 -0.2006 -0.0677 -2.0044
15984SOL    HW251995   4.408   0.922   0.384  0.1119 -1.1921  0.6766
15985SOL     OW51996   2.930   3.557   6.387 -0.0197  0.0489 -0.4581
15985SOL    HW151997   2.897   3.498   6.319  1.9424  1.3363 -2.6839
15985SOL    HW251998   3.025   3.554   6.378  0.2077  3.0591 -0.3182
15986SOL     OW51999   9.186   0.321   1.713 -0.4217 -0.3246  0.4900
15986SOL    HW152000   9.182   0.321   1.809  0.6912 -0.7700  0.5522
15986SOL    HW252001   9.140   0.242   1.687 -3.3549  1.2665  0.4724
15987SOL     OW52002   0.043   4.474   5.892  0.1274  0.1828 -0.1602
15987SOL    HW152003   0.073   4.384   5.910  0.6008  0.2017 -0.8433
15987SOL    HW252004  -0.005   4.467   5.810  1.0465  0.7292 -0.7607
15988SOL     OW52005   0.889   4.981   2.145  0.1418  0.4709  0.7047
15988SOL    HW152006   0.895   4.994   2.240 -1.0508  0.6703  0.7648
15988SOL    HW252007   0.796   4.966   2.129  0.1341  1.7354 -0.5989
15989SOL     OW52008   8.357   8.397   8.115 -0.0028  0.3885 -0.4846
15989SOL    HW152009   8.279   8.397   8.059 -0.4174  0.5673  0.0765
15989SOL    HW252010   8.430   8.414   8.055 -0.3085 -0.4887 -1.1270
15990SOL     OW52011   6.341   6.196   2.438  0.0186  0.2304 -0.4142
15990SOL    HW152012   6.347   6.262   2.369  0.5184  1.5726  0.8496
15990SOL    HW252013   6.378   6.240   2.515 -1.0803 -0.9962  0.8507
15991SOL     OW52014   3.200   5.316   6.284 -0.6763 -0.4178  0.4810
15991SOL    HW152015   3.236   5.340   6.369 -0.8125 -1.0642  0.7244
15991SOL    HW252016   3.275   5.292   6.231 -0.6823 -1.1505  0.7905
15992SOL     OW52017   7.258   6.956   7.003  0.2207  0.2691 -0.2022
15992SOL    HW152018   7.288   7.047   6.996  1.8238 -0.3578 -2.5234
15992SOL    HW252019   7.296   6.912   6.927 -2.2735 -1.8963 -0.3205
15993SOL     OW52020   3.925   9.241   9.592 -0.3665  0.2330  0.1287
15993SOL    HW152021   3.993   9.287   9.542 -1.7304 -0.0336 -2.0823
15993SOL    HW252022   3.952   9.149   9.591 -0.5778  0.1735 -0.4649
15994SOL     OW52023   8.344   9.298   0.847  0.4629  0.6840  0.0259
15994SOL    HW152024   8.410   9.364   0.827 -0.1531  0.7363 -2.0420
15994SOL    HW252025   8.262   9.335   0.814 -0.1241 -0.5421  0.0568
15995SOL     OW52026   9.966  10.170   6.154 -0.2502  0.6682 -0.1151
15995SOL    HW152027  10.051  10.199   6.187  1.0489 -0.5890 -2.1504
15995SOL    HW252028   9.979  10.078   6.132 -2.5916  0.0323  0.8297
15996SOL     OW52029   5.016   8.831   8.710  0.0082  0.4316  0.0834
15996SOL    HW152030   5.054   8.755   8.754 -0.5435  0.6608  0.9939
15996SOL    HW252031   5.024   8.902   8.773  2.0566  1.5917 -1.3880
15997SOL     OW52032   1.621   7.805   0.005 -0.6290  0.1117 -0.1266
15997SOL    HW152033   1.673   7.728   0.026 -2.8579 -1.4447  0.0235
15997SOL    HW252034   1.617   7.806  -0.091  0.5750  0.9312 -0.1973
15998SOL     OW52035   6.966   2.491   2.572 -0.0561  0.6267  0.0145
15998SOL    HW152036   6.879   2.464   2.599 -0.9076  2.3103 -0.9088
15998SOL    HW252037   7.010   2.517   2.653 -0.2961 -0.4549  0.5100
15999SOL     OW52038   5.082   2.787   8.089  0.2170 -0.1213 -0.1993
15999SOL    HW152039   5.038   2.869   8.113 -0.9091 -1.0569  1.1213
15999SOL    HW252040   5.057   2.726   8.158  1.4678 -1.4456 -0.8723
16000SOL     OW52041   8.219   4.943   8.795  0.1997 -0.0504  0.1535
16000SOL    HW152042   8.274   4.930   8.872  0.4920  0.7807  0.0967
16000SOL    HW252043   8.224   5.037   8.778  0.2579 -0.2480 -0.9672
16001SOL     OW52044   8.669   2.098   6.617 -0.1941 -0.3502 -0.2773
16001SOL    HW152045   8.581   2.104   6.580  0.2654  0.6023 -1.2752
16001SOL    HW252046   8.717   2.043   6.554  0.2844  0.3036 -0.4973
16002SOL     OW52047   7.821   0.154   2.262  0.3540 -0.4374  0.7008
16002SOL    HW152048   7.770   0.073   2.265  0.7750 -0.7821 -0.5817
16002SOL    HW252049   7.904   0.132   2.305 -0.1316 -0.2087  1.7714
16003SOL     OW52050   2.515   1.948   4.440 -0.0997  0.1196 -0.6857
16003SOL    HW152051   2.465   1.917   4.365 -0.0999 -1.4848 -0.0572
16003SOL    HW252052   2.473   1.908   4.516  0.2467  1.2554  0.1333
16004SOL     OW52053   4.922   1.630   0.880  0.7516 -0.1563 -0.3431
16004SOL    HW152054   4.904   1.537   0.897 -1.1149  0.1605 -0.3210
16004SOL    HW252055   4.994   1.629   0.818  1.2610 -1.6050  0.2211
16005SOL     OW52056   7.837   0.934   8.817 -0.1436  0.0629  0.0056
16005SOL    HW152057   7.852   0.961   8.726 -2.2635 -0.6071 -0.6209
16005SOL    HW252058   7.874   1.004   8.870 -0.0446  1.1276 -1.4172
16006SOL     OW52059   7.852   7.557   3.807  0.4067 -0.1417  0.5979
16006SOL    HW152060   7.880   7.556   3.715 -0.4202 -1.0258  0.3330
16006SOL    HW252061   7.881   7.473   3.842  0.8869  0.2747  1.2078
16007SOL     OW52062   7.294   5.555   4.767 -0.0126  0.4782  0.1223
16007SOL    HW152063   7.246   5.527   4.844 -0.5048  0.0520 -0.3341
16007SOL    HW252064   7.321   5.645   4.787  0.0825  0.2849  0.8846
16008SOL     OW52065   1.022   5.598   2.641  0.5009 -0.1985 -0.8568
16008SOL    HW152066   1.045   5.605   2.734  0.4657  1.0492 -0.9201
16008SOL    HW252067   0.979   5.513   2.633  1.2794 -0.7037  0.0966
16009SOL     OW52068   1.345   4.226   4.906 -0.9283  0.0815 -0.0697
16009SOL    HW152069   1.310   4.196   4.822 -0.9616  0.3126 -0.1390
16009SOL    HW252070   1.273   4.275   4.946 -1.0928 -0.4826  0.3331
16010SOL     OW52071   6.311   7.457   1.019  0.3389  0.6659  0.0955
16010SOL    HW152072   6.392   7.505   1.034  0.5971 -0.1263  1.4793
16010SOL    HW252073   6.241   7.520   1.037  0.6606  0.9981  0.1859
16011SOL     OW52074   9.004   2.051   2.218 -0.0598  0.2099  0.3229
16011SOL    HW152075   8.909   2.050   2.217 -0.0964  1.6803 -0.8590
16011SOL    HW252076   9.028   2.026   2.308 -1.5893  1.0770  1.0028
16012SOL     OW52077   1.238   7.672   0.352 -0.4809 -0.1033 -0.1874
16012SOL    HW152078   1.167   7.657   0.289 -0.9998  0.4260  0.2528
16012SOL    HW252079   1.305   7.719   0.302 -0.4738 -0.5339 -0.5860
16013SOL     OW52080   5.000   1.210   3.868 -0.3067  0.1172  0.0658
16013SOL    HW152081   5.038   1.278   3.812  0.3043  0.0196  0.3529
16013SOL    HW252082   4.969   1.258   3.946 -2.8262  0.5294 -1.0977
16014SOL     OW52083   0.455   2.523   8.826 -0.3088  0.0629  0.0468
16014SOL    HW152084   0.438   2.589   8.759  1.5840 -0.3940 -0.9609
16014SOL    HW252085   0.495   2.451   8.778  0.2398 -0.6675  1.5456
16015SOL     OW52086   2.814   0.153   7.579 -0.1121  0.0184 -0.1150
16015SOL    HW152087   2.846   0.190   7.497 -1.2145 -0.1639 -0.6402
16015SOL    HW252088   2.893   0.119   7.622  1.0295  3.2263  0.5688
16016SOL     OW52089   5.615   8.205   4.782  0.0540 -0.3986 -0.3266
16016SOL    HW152090   5.542   8.226   4.841 -0.8148  0.1996 -1.5799
16016SOL    HW252091   5.586   8.127   4.735  0.7559 -0.8844  0.0212
16017SOL     OW52092   4.216   4.786   3.163  0.2471 -0.1787  0.1674
16017SOL    HW152093   4.165   4.861   3.132 -1.6606 -2.2010 -1.9743
16017SOL    HW252094   4.165   4.753   3.237 -0.3840 -0.8610 -0.5502
16018SOL     OW52095   0.720   9.425   3.911  0.1960  0.4413 -0.0152
16018SOL    HW152096   0.638   9.378   3.899  0.7730 -0.8665  0.9619
16018SOL    HW252097   0.722   9.489   3.840 -3.3204  2.9572  1.7926
16019SOL     OW52098   1.692   2.389   5.292 -0.2611 -0.5081  0.7643
16019SOL    HW152099   1.656   2.318   5.239  0.8542 -0.7742  0.3271
16019SOL    HW252100   1.714   2.458   5.229 -0.2531 -0.2534  1.0445
16020SOL     OW52101   9.775   3.911   5.253 -0.1518 -0.0538 -0.0758
16020SOL    HW152102   9.706   3.848   5.237 -0.6641  0.7723 -1.2589
16020SOL    HW252103   9.836   3.865   5.311  0.5238 -2.3825 -2.4252
16021SOL     OW52104   3.759   9.221   4.645 -0.2484 -0.2851  0.6169
16021SOL    HW152105   3.744   9.287   4.577  3.0748  0.6354  0.6208
16021SOL    HW252106   3.741   9.267   4.728  0.4828  0.1281  0.5494
16022SOL     OW52107   3.738   1.411   6.201  0.1329 -0.0208  0.2410
16022SOL    HW152108   3.741   1.338   6.263 -0.4914  0.7006  1.1546
16022SOL    HW252109   3.719   1.370   6.116 -3.1015 -0.7585  1.1634
16023SOL     OW52110   4.381   0.957   6.732  0.8272 -0.1419 -0.1117
16023SOL    HW152111   4.440   0.922   6.665 -1.2686 -2.1549 -1.0819
16023SOL    HW252112   4.337   1.030   6.688  0.4641 -0.5617 -0.4579
16024SOL     OW52113   0.597   4.180   3.855  0.8236  0.2806 -0.3807
16024SOL    HW152114   0.591   4.231   3.936 -1.1662  0.8661 -0.8212
16024SOL    HW252115   0.614   4.091   3.883 -1.4889  0.1577  0.8547
16025SOL     OW52116   7.248   3.727   8.311 -0.1887 -0.0325 -0.2867
16025SOL    HW152117   7.206   3.783   8.247 -1.0175  0.5299  0.7193
16025SOL    HW252118   7.317   3.781   8.350 -1.5402  0.6595  1.2945
16026SOL     OW52119   8.515   6.584   6.829 -0.1176  0.4040  0.7237
16026SOL    HW152120   8.567   6.608   6.752 -1.0354  1.7814  0.4976
16026SOL    HW252121   8.452   6.655   6.838 -1.6280 -0.9503  1.2977
16027SOL     OW52122   4.959   0.198   1.545  0.4903 -0.1362  0.2064
16027SOL    HW152123   5.024   0.173   1.480 -0.6474  1.2486 -1.5442
16027SOL    HW252124   4.996   0.275   1.588  0.9886 -0.7127  0.8342
16028SOL     OW52125   0.841   0.459   3.602  0.4499 -0.5149 -0.0053
16028SOL    HW152126   0.844   0.476   3.696  2.4295 -0.9308  0.0600
16028SOL    HW252127   0.827   0.365   3.595  1.4027 -0.6644 -0.0729
16029SOL     OW52128   6.629   6.564   2.868 -0.0964 -0.6285 -0.1788
16029SOL    HW152129   6.626   6.641   2.812  0.0438 -1.0498 -0.7806
16029SOL    HW252130   6.719   6.532   2.860 -0.9001 -2.6267 -2.4172
16030SOL     OW52131   6.192   7.577   2.337  0.1495 -0.0908  0.2768
16030SOL    HW152132   6.193   7.495   2.388  0.7865 -0.1358  0.1954
16030SOL    HW252133   6.207   7.645   2.402 -1.1440  0.0364  0.4629
16031SOL     OW52134  10.262   6.589   3.681 -0.4758 -0.8174  0.5571
16031SOL    HW152135  10.246   6.681   3.662  2.7581 -0.2560 -0.0736
16031SOL    HW252136  10.201   6.542   3.624 -1.2937  0.9445 -0.0757
16032SOL     OW52137   9.128  10.248   4.216 -0.0539 -0.4413  1.1300
16032SOL    HW152138   9.053  10.245   4.156  0.2514  0.8849  0.6350
16032SOL    HW252139   9.180  10.171   4.194 -0.7200 -0.7894  0.7422
16033SOL     OW52140   6.412   0.155   7.869 -0.5019 -0.5011 -0.0304
16033SOL    HW152141   6.342   0.094   7.844 -1.4190  0.1678  0.7900
16033SOL    HW252142   6.366   0.229   7.909  0.5825  0.7379 -0.9729
16034SOL     OW52143   9.046   2.547   1.743  0.1811 -0.0371 -0.4150
16034SOL    HW152144   9.085   2.465   1.711 -1.0283 -0.5451 -0.6149
16034SOL    HW252145   9.079   2.614   1.684 -1.3440 -0.8338 -2.2683
16035SOL     OW52146   6.311   3.920   9.141 -0.7719 -0.3287 -0.0815
16035SOL    HW152147   6.217   3.904   9.128 -0.9573  0.7613 -0.2234
16035SOL    HW252148   6.314   4.003   9.190  0.1286  0.2383 -1.0633
16036SOL     OW52149   7.703   3.445   7.882 -0.0797  0.2566  0.0725
16036SOL    HW152150   7.648   3.401   7.817 -0.4321 -0.3623  0.7825
16036SOL    HW252151   7.792   3.428   7.853 -0.1145 -2.4709  1.2664
16037SOL     OW52152   9.421   3.980   5.392  0.3602  0.6555  0.2216
16037SOL    HW152153   9.486   4.050   5.388  0.2709  0.7053 -0.4926
16037SOL    HW252154   9.435   3.929   5.312 -1.3210  1.4452 -0.6308
16038SOL     OW52155   5.065   6.617   3.733  0.5252  0.5622  0.1515
16038SOL    HW152156   5.122   6.540   3.722 -1.1417 -0.6805 -0.2144
16038SOL    HW252157   5.045   6.644   3.643  0.4987  0.9808  0.2810
16039SOL     OW52158   8.352   3.935   5.302  0.2337  0.2561  0.5679
16039SOL    HW152159   8.273   3.930   5.247  1.3318 -0.2837 -1.0318
16039SOL    HW252160   8.405   4.003   5.261  2.1279 -1.7627 -0.5526
16040SOL     OW52161   1.510   9.321   0.940 -0.0419 -0.1628 -0.1647
16040SOL    HW152162   1.465   9.393   0.983 -0.4013 -0.9029  0.7428
16040SOL    HW252163   1.538   9.264   1.012  2.3079  0.2162 -0.6787
16041SOL     OW52164   4.113   8.649   7.552 -0.5033  0.6947  0.1073
16041SOL    HW152165   4.084   8.572   7.601 -0.3026  0.4406 -0.1710
16041SOL    HW252166   4.047   8.661   7.483 -0.1011  0.2801 -0.3565
16042SOL     OW52167   0.234   7.669   9.398  0.2241  0.1055  0.0591
16042SOL    HW152168   0.148   7.665   9.440  0.0355 -2.1841 -0.4163
16042SOL    HW252169   0.290   7.614   9.453  0.4264 -1.4285 -1.5700
16043SOL     OW52170   8.662   9.531   6.548  0.1053 -0.0363 -0.5659
16043SOL    HW152171   8.730   9.547   6.483 -0.3321 -2.4262 -1.7229
16043SOL    HW252172   8.587   9.583   6.519  0.4206  0.1250 -1.1032
16044SOL     OW52173   7.677   5.358   5.203  0.0059 -0.2965 -0.3313
16044SOL    HW152174   7.633   5.443   5.207  0.6934  0.2378 -2.5835
16044SOL    HW252175   7.769   5.378   5.218  0.0485 -0.8037  0.1255
16045SOL     OW52176   9.938   3.044   8.324  0.2753 -0.2756  0.0110
16045SOL    HW152177   9.936   2.950   8.306  2.2315  0.0150 -2.2594
16045SOL    HW252178  10.029   3.069   8.310 -0.0611  1.8738  1.2140
16046SOL     OW52179   9.838   7.550   3.472  0.4835 -0.5027  0.0843
16046SOL    HW152180   9.852   7.478   3.534 -2.3456  0.9270  2.6236
16046SOL    HW252181   9.916   7.605   3.481  0.6578 -0.9479  1.5019
16047SOL     OW52182   3.899   7.785   7.356 -0.6200  0.2429 -0.0113
16047SOL    HW152183   3.859   7.719   7.413 -0.4368  0.6614  0.6215
16047SOL    HW252184   3.897   7.747   7.269 -0.4295 -0.6340  0.3597
16048SOL     OW52185   9.689   5.051   8.150 -0.5919 -0.0309  0.0328
16048SOL    HW152186   9.666   5.061   8.058 -0.9422  0.1031  0.1356
16048SOL    HW252187   9.753   4.980   8.151  1.8232  1.9818 -0.6947
16049SOL     OW52188   2.200   5.830   3.946  0.2279  0.7244 -0.1411
16049SOL    HW152189   2.254   5.788   4.013  0.0744  1.0641  0.1936
16049SOL    HW252190   2.124   5.773   3.938 -0.1221  1.0962  0.5265
16050SOL     OW52191   7.702   7.539   5.138  0.6201 -0.2034 -0.7340
16050SOL    HW152192   7.731   7.615   5.187 -1.6982  0.9247 -0.9348
16050SOL    HW252193   7.711   7.466   5.198 -0.2319  0.8107  0.6963
16051SOL     OW52194   6.201   6.515   4.433  0.4452 -0.0334 -0.2658
16051SOL    HW152195   6.247   6.582   4.383  1.0479 -0.2896 -0.0600
16051SOL    HW252196   6.249   6.434   4.414  1.2975  0.0260  1.4744
16052SOL     OW52197   4.710   4.589   7.451  0.3844 -0.0394 -0.6276
16052SOL    HW152198   4.666   4.541   7.522 -0.2596  2.3122  0.6430
16052SOL    HW252199   4.656   4.572   7.374 -0.3568 -0.5825 -0.0091
16053SOL     OW52200   7.228   9.774   1.942 -0.4454  0.2382  0.2203
16053SOL    HW152201   7.141   9.801   1.912 -0.3245 -0.7907 -1.2014
16053SOL    HW252202   7.288   9.813   1.878 -0.2315 -2.6607 -1.5492
16054SOL     OW52203   9.940   6.713   9.690 -0.3871 -0.4204  0.1228
16054SOL    HW152204   9.904   6.718   9.778 -1.2009 -0.2012 -0.2088
16054SOL    HW252205  10.011   6.649   9.696  0.3903  0.4973  1.2030
16055SOL     OW52206   1.855   0.228   8.907  0.5564 -0.0578  0.0885
16055SOL    HW152207   1.860   0.207   9.000  0.3621  3.1874  0.9445
16055SOL    HW252208   1.868   0.144   8.862  1.4597 -1.5796  2.9920
16056SOL     OW52209   3.746   7.724   3.297  0.1030  0.0356  0.0646
16056SOL    HW152210   3.809   7.685   3.358 -1.1255 -0.0872  1.3078
16056SOL    HW252211   3.798   7.784   3.244  1.5083 -1.0995  0.0963
16057SOL     OW52212   2.643   4.583   3.183  0.1107 -0.2081  0.2443
16057SOL    HW152213   2.709   4.645   3.153  0.8724 -1.0005  0.2197
16057SOL    HW252214   2.568   4.597   3.125  0.1167  0.9433  0.4999
16058SOL     OW52215   0.837   9.832   8.370 -0.2058 -0.0131 -0.0666
16058SOL    HW152216   0.766   9.799   8.315 -0.1354  0.4725 -0.4506
16058SOL    HW252217   0.793   9.886   8.436 -0.2515 -0.2581  0.1048
16059SOL     OW52218   8.389   6.509   3.998 -0.7640  0.6263  0.2218
16059SOL    HW152219   8.359   6.513   3.907 -1.5026  0.1120  0.4309
16059SOL    HW252220   8.475   6.467   3.993 -1.7082 -1.4335 -0.0839
16060SOL     OW52221   3.274   8.628  10.008  0.3628 -0.3025 -0.1265
16060SOL    HW152222   3.347   8.580   9.969  1.3116  0.2643  0.8988
16060SOL    HW252223   3.291   8.719   9.987 -0.5922 -0.2397 -0.7120
16061SOL     OW52224   6.987   3.055   7.191 -0.0406 -0.0915 -0.3730
16061SOL    HW152225   6.976   2.969   7.152 -0.1454 -0.4228  0.3690
16061SOL    HW252226   7.082   3.069   7.192 -0.0197 -0.2277 -0.4327
16062SOL     OW52227   6.615   1.297   0.545  0.2720  0.0720 -0.3873
16062SOL    HW152228   6.711   1.292   0.551  0.3862  1.3078 -0.7199
16062SOL    HW252229   6.599   1.345   0.463 -0.7404 -2.5915 -1.8704
16063SOL     OW52230   9.720   5.046   6.887 -0.0843  0.6381  0.1052
16063SOL    HW152231   9.631   5.076   6.904  0.7836  2.5751  1.6749
16063SOL    HW252232   9.752   5.105   6.818  1.1620  2.5769  2.2050
16064SOL     OW52233   9.689   6.928   8.167  0.0559 -0.3044 -0.5916
16064SOL    HW152234   9.711   6.935   8.074 -1.3146 -0.6099 -0.9672
16064SOL    HW252235   9.671   6.835   8.180  0.3656 -0.2839  0.0200
16065SOL     OW52236   1.979   5.691   3.917  0.2713 -0.0323  0.0497
16065SOL    HW152237   2.011   5.603   3.937  0.3326  0.4765  2.3885
16065SOL    HW252238   1.915   5.710   3.985  0.3237  1.7897 -0.3542
16066SOL     OW52239   4.530   9.179   7.654  0.2284 -0.0836  0.6738
16066SOL    HW152240   4.464   9.244   7.628  0.8249  0.4906  0.5659
16066SOL    HW252241   4.596   9.230   7.701  0.1341 -0.8059  1.6093
16067SOL     OW52242   0.466   3.620   7.381  0.1862  0.2401  0.2059
16067SOL    HW152243   0.401   3.562   7.339  0.2063 -0.0420  0.5576
16067SOL    HW252244   0.437   3.708   7.359  2.1379  0.1592 -3.4358
16068SOL     OW52245   3.429  10.169   9.324  0.4129 -0.3899 -0.0113
16068SOL    HW152246   3.469  10.104   9.381 -0.4127 -0.5895  0.3610
16068SOL    HW252247   3.377  10.224   9.383 -0.0719 -0.3065 -0.5019
16069SOL     OW52248   0.592   8.406   5.465  0.2213 -0.6030  0.1104
16069SOL    HW152249   0.545   8.474   5.513  0.2292 -0.9323  0.5937
16069SOL    HW252250   0.685   8.427   5.477  0.2252 -0.7370  0.3188
16070SOL     OW52251   9.585   9.987   6.165 -0.7911  0.5560  0.0246
16070SOL    HW152252   9.601  10.019   6.254 -1.6580 -1.1250  0.8264
16070SOL    HW252253   9.659   9.930   6.146 -0.3378  1.3216 -0.5607
16071SOL     OW52254   1.375   7.537   5.342  0.2730 -0.2247 -0.5713
16071SOL    HW152255   1.381   7.631   5.323 -0.4371 -0.0698 -0.0529
16071SOL    HW252256   1.315   7.504   5.275  1.6104 -0.5751 -1.6296
16072SOL     OW52257   2.459   4.595   1.584  0.7470  0.1388 -0.1101
16072SOL    HW152258   2.491   4.522   1.637  0.3703  1.3643  1.9078
16072SOL    HW252259   2.475   4.568   1.493 -0.0417 -2.7290  0.5241
16073SOL     OW52260   6.362   3.444   7.234 -0.2890 -0.0721 -0.0233
16073SOL    HW152261   6.294   3.390   7.193 -1.0059  0.2296  0.7315
16073SOL    HW252262   6.412   3.383   7.288  0.4591 -0.4131 -1.0852
16074SOL     OW52263   2.683   5.196   1.778 -0.1455 -0.0317  0.0856
16074SOL    HW152264   2.746   5.160   1.715  0.5893  1.1927  0.0835
16074SOL    HW252265   2.683   5.133   1.850  0.0352 -0.7528 -0.5341
16075SOL     OW52266   6.430   0.820   8.963  0.1702 -0.3647 -0.0317
16075SOL    HW152267   6.368   0.767   9.014  0.4402 -0.5328  0.1266
16075SOL    HW252268   6.516   0.789   8.992  0.3254 -0.2747 -0.3993
16076SOL     OW52269   6.297   7.450   2.092  0.6618  0.6651  0.1340
16076SOL    HW152270   6.216   7.411   2.057  0.6032  0.6142  0.3238
16076SOL    HW252271   6.270   7.493   2.173  1.0109 -0.2802  0.7748
16077SOL     OW52272   3.150   8.638   4.161  0.8488  0.0052 -0.0465
16077SOL    HW152273   3.062   8.675   4.153  0.1132 -1.3646  1.2978
16077SOL    HW252274   3.203   8.709   4.196  0.2698  0.8087 -0.7573
16078SOL     OW52275   5.198   1.309   4.806  0.3294  0.2253  0.1916
16078SOL    HW152276   5.159   1.257   4.876  3.0502 -0.6805  1.2018
16078SOL    HW252277   5.232   1.387   4.851  2.8287 -0.7476  0.1771
16079SOL     OW52278   3.229   0.451   2.024 -0.1633  0.7291 -0.1393
16079SOL    HW152279   3.259   0.414   2.107 -0.6356 -0.2164 -0.3857
16079SOL    HW252280   3.187   0.534   2.048  0.4872  0.8919  0.4624
16080SOL     OW52281   2.427   9.133   3.651  0.0342 -0.6978  0.0079
16080SOL    HW152282   2.502   9.096   3.605 -0.1313 -1.2061  0.1381
16080SOL    HW252283   2.359   9.141   3.583  0.2634 -0.0493 -0.1542
16081SOL     OW52284   4.744   9.704   0.864 -0.0919 -0.3607  0.4478
16081SOL    HW152285   4.806   9.758   0.913 -1.3332  1.5413  0.0034
16081SOL    HW252286   4.755   9.616   0.901  1.4596  0.3166  1.7095
16082SOL     OW52287   4.214   1.048   2.051  0.1829 -0.2916 -0.0495
16082SOL    HW152288   4.180   0.972   2.099 -1.9655  0.5512 -0.1385
16082SOL    HW252289   4.306   1.026   2.034 -0.1732 -2.5397  0.5717
16083SOL     OW52290   4.299   1.430   1.338  0.2696  0.5365  0.0396
16083SOL    HW152291   4.284   1.383   1.256 -0.1869 -1.9748  1.4359
16083SOL    HW252292   4.286   1.522   1.316 -0.6371 -0.1095 -2.5108
16084SOL     OW52293   8.505   2.433   7.279  0.1094 -0.5394 -0.4232
16084SOL    HW152294   8.541   2.359   7.329 -1.7393 -0.2685  1.4636
16084SOL    HW252295   8.412   2.413   7.272 -0.2461  1.1372 -0.7533
16085SOL     OW52296   6.413   4.966   8.900 -0.5732 -0.0018  0.3876
16085SOL    HW152297   6.477   4.899   8.876 -2.1852 -1.4064 -0.1635
16085SOL    HW252298   6.401   5.017   8.820  0.0410  0.4448  0.5724
16086SOL     OW52299   6.323   6.054   3.595  0.1659 -0.8050  0.6189
16086SOL    HW152300   6.319   6.150   3.599 -0.1145 -0.7807 -0.1143
16086SOL    HW252301   6.295   6.026   3.682 -1.2002 -0.2514  0.3780
16087SOL     OW52302   9.655   7.318   6.963  0.6983 -0.1312 -0.0432
16087SOL    HW152303   9.731   7.320   7.022 -0.7233 -0.3780  1.8847
16087SOL    HW252304   9.623   7.408   6.962  0.6071 -0.1646 -0.3416
16088SOL     OW52305  10.234   6.626   9.437  1.0308  0.0190  0.5472
16088SOL    HW152306  10.309   6.633   9.378  2.1223  0.6730  1.9410
16088SOL    HW252307  10.273   6.624   9.525 -0.5498 -0.5226  1.2753
16089SOL     OW52308   0.662   7.957   7.092  0.0575  0.3972 -0.0198
16089SOL    HW152309   0.741   7.995   7.132  0.9170 -0.3569 -0.9491
16089SOL    HW252310   0.670   7.979   6.999 -0.2099 -0.7302 -0.3208
16090SOL     OW52311   8.404   5.219   6.583 -0.3961  0.5182 -0.3847
16090SOL    HW152312   8.359   5.216   6.667  0.7379  0.7405  0.2466
16090SOL    HW252313   8.349   5.275   6.528 -1.6925 -0.4760 -0.1345
16091SOL     OW52314   1.350   9.002   8.225 -0.6158 -0.1952 -0.8683
16091SOL    HW152315   1.380   8.970   8.310 -0.2086  0.0702 -0.9079
16091SOL    HW252316   1.420   8.977   8.165 -1.0517 -0.6773 -1.1890
16092SOL     OW52317   6.419   8.441   0.587  0.0164 -0.0836 -0.4489
16092SOL    HW152318   6.393   8.523   0.545 -0.0341 -0.0059 -0.2692
16092SOL    HW252319   6.436   8.466   0.678  1.1677 -0.0482 -0.6644
16093SOL     OW52320   2.884   1.790   5.598 -0.2767 -0.7366  0.0285
16093SOL    HW152321   2.927   1.871   5.568  0.8319 -1.3059  0.0135
16093SOL    HW252322   2.797   1.818   5.626 -1.0098 -0.0097 -2.7158
16094SOL     OW52323   0.705   6.483   6.162 -0.2665 -0.2011  0.4873
16094SOL    HW152324   0.624   6.449   6.125 -0.7379  0.2319  1.1011
16094SOL    HW252325   0.765   6.488   6.087 -1.4817  1.5328 -0.4698
16095SOL     OW52326   0.958   7.131   0.956  0.0554 -0.3110  0.2130
16095SOL    HW152327   0.875   7.135   0.908 -0.9590 -1.3256  1.7738
16095SOL    HW252328   0.980   7.222   0.973 -1.8935 -0.0396  1.5880
16096SOL     OW52329   7.011   3.283   5.390 -0.1103  0.3323 -0.4888
16096SOL    HW152330   7.052   3.326   5.315  1.2384 -0.0862 -0.0261
16096SOL    HW252331   7.007   3.191   5.365  0.0080  0.2461 -0.1957
16097SOL     OW52332   8.811   8.668  10.102  0.2297  0.0030 -0.2839
16097SOL    HW152333   8.836   8.649  10.193 -0.1517 -1.8383 -0.5183
16097SOL    HW252334   8.738   8.607  10.084 -2.4348  3.0260 -0.5988
16098SOL     OW52335   4.153   0.630   3.863  0.3719 -0.3310 -0.5268
16098SOL    HW152336   4.169   0.545   3.905  0.4385 -1.7732 -3.2183
16098SOL    HW252337   4.238   0.655   3.827  0.2608  0.6828 -0.0935
16099SOL     OW52338   4.495   9.186   9.190 -0.3341 -0.0740  0.0086
16099SOL    HW152339   4.455   9.140   9.264 -1.1992 -2.6636 -1.8969
16099SOL    HW252340   4.588   9.165   9.196 -0.1587  0.9385  1.1198
16100SOL     OW52341   1.449  10.297   5.268 -0.0945 -0.2638  0.2108
16100SOL    HW152342   1.395  10.330   5.340 -0.4254 -0.4315  0.0451
16100SOL    HW252343   1.442  10.364   5.201  0.5153  0.0675  0.4723
16101SOL     OW52344   4.935   4.523   0.153 -0.3607 -0.0397 -0.1061
16101SOL    HW152345   4.862   4.584   0.149 -0.4209 -0.1027  0.0528
16101SOL    HW252346   4.896   4.439   0.175 -0.3654 -0.2847 -1.0017
16102SOL     OW52347   4.156   0.909   3.588 -0.1241  0.6954  0.2398
16102SOL    HW152348   4.162   0.973   3.659 -1.3814  2.2847 -1.0082
16102SOL    HW252349   4.228   0.932   3.529 -0.4941  0.8982 -0.1400
16103SOL     OW52350   1.877   2.540   2.460 -0.7464  0.1711  0.2564
16103SOL    HW152351   1.905   2.521   2.371 -1.0718  0.1036  0.1665
16103SOL    HW252352   1.783   2.556   2.453 -0.4979  1.9220  0.2909
16104SOL     OW52353   1.556   8.146   7.255 -0.0152  0.0717  0.1658
16104SOL    HW152354   1.546   8.136   7.160  0.8953  1.1418 -0.0654
16104SOL    HW252355   1.507   8.226   7.275  1.3095  0.8847  0.2790
16105SOL     OW52356   5.852   7.857   3.455 -0.2856  0.1498 -0.4012
16105SOL    HW152357   5.797   7.871   3.532  1.0562 -0.2825  0.6814
16105SOL    HW252358   5.892   7.942   3.438 -0.4185  0.1941 -0.4959
16106SOL     OW52359   4.398   2.554   0.920 -0.0000 -0.0613 -0.1370
16106SOL    HW152360   4.488   2.586   0.930  0.5495 -1.6491  0.2113
16106SOL    HW252361   4.358   2.573   1.005 -0.1443  1.0079 -0.4201
16107SOL     OW52362   7.328   5.208   6.918  0.2380 -0.7485  0.0427
16107SOL    HW152363   7.363   5.125   6.886  0.0714 -1.2654  1.1261
16107SOL    HW252364   7.244   5.184   6.957 -0.0247  0.0117 -0.0420
16108SOL     OW52365   4.475   8.495   2.435 -0.2029 -0.3706 -0.2691
16108SOL    HW152366   4.383   8.500   2.461 -0.3197  0.5219 -0.8079
16108SOL    HW252367   4.519   8.454   2.509 -0.9778 -0.4481  0.1521
16109SOL     OW52368   2.153   8.075   6.858 -0.0903 -0.6999  0.2671
16109SOL    HW152369   2.160   8.123   6.775 -0.5923 -1.0646  0.0093
16109SOL    HW252370   2.165   7.983   6.833  2.7188 -0.6164  0.9847
16110SOL     OW52371   4.077   9.902   3.023  0.4090  0.5012 -0.3212
16110SOL    HW152372   4.053   9.964   2.955  1.7579  0.5721 -0.7796
16110SOL    HW252373   4.032   9.821   2.999 -0.9189  1.1238 -0.0254
16111SOL     OW52374   8.487   7.197   8.263 -0.4868  0.9434  0.1449
16111SOL    HW152375   8.520   7.167   8.178  2.3015 -0.9416  1.7794
16111SOL    HW252376   8.395   7.219   8.245 -0.2874 -0.2781 -3.1290
16112SOL     OW52377   0.489   5.203   3.648 -0.4700 -0.1801  0.3156
16112SOL    HW152378   0.560   5.218   3.711  1.1329 -1.5368 -1.0766
16112SOL    HW252379   0.533   5.184   3.566 -2.4947  0.0296 -0.8908
16113SOL     OW52380  10.185   4.323   8.594  0.1396  0.0237 -0.2373
16113SOL    HW152381  10.215   4.367   8.514 -0.1867 -1.5866 -1.3099
16113SOL    HW252382  10.238   4.243   8.598  0.9273  0.6014  1.8081
16114SOL     OW52383   2.200   7.965   4.118 -0.3998  0.5010 -0.5636
16114SOL    HW152384   2.196   7.876   4.085 -0.6392  0.3039 -0.0182
16114SOL    HW252385   2.112   8.000   4.106 -1.7542 -0.9214  3.4664
16115SOL     OW52386   3.354   2.128   4.101 -0.0513  0.0102  0.0921
16115SOL    HW152387   3.386   2.126   4.011 -0.3676 -0.5314 -0.0163
16115SOL    HW252388   3.316   2.215   4.112  1.7376  0.7936  0.3326
16116SOL     OW52389   1.284   8.943   7.746 -0.0676 -1.0943  0.0798
16116SOL    HW152390   1.213   8.914   7.689 -0.9106 -1.5645  1.3280
16116SOL    HW252391   1.342   8.867   7.751  1.0711 -0.4126 -1.6806
16117SOL     OW52392   9.754   3.811   2.018  0.5866  0.2677 -1.0503
16117SOL    HW152393   9.734   3.824   1.925 -1.8475  0.6566 -0.5257
16117SOL    HW252394   9.796   3.893   2.045 -0.5781  1.0032 -1.3699
16118SOL     OW52395   7.859   1.450   4.367  0.3694 -1.0462  0.1031
16118SOL    HW152396   7.768   1.431   4.343  0.1575 -2.0713  1.5752
16118SOL    HW252397   7.862   1.435   4.462  2.1639 -1.4031  0.0215
16119SOL     OW52398   6.797   3.910  10.156  0.0848  0.0804  0.3343
16119SOL    HW152399   6.851   3.908  10.235 -1.8899  2.3923  1.9132
16119SOL    HW252400   6.735   3.981  10.172 -0.8625  0.1851 -3.0480
16120SOL     OW52401   2.796   3.939   0.757  1.0257  0.3285  0.3646
16120SOL    HW152402   2.728   3.955   0.822 -0.3301 -0.8104 -0.7079
16120SOL    HW252403   2.796   4.017   0.702  0.0640  0.0504 -0.0493
16121SOL     OW52404   9.202   7.335   6.599  0.7412  0.4520 -0.1125
16121SOL    HW152405   9.198   7.414   6.545  0.0302  0.0778 -0.6111
16121SOL    HW252406   9.263   7.277   6.553  0.0137  0.0702 -0.6004
16122SOL     OW52407   3.481   7.102   8.198  1.2653  0.4538 -0.6979
16122SOL    HW152408   3.532   7.037   8.148 -0.2512 -0.5084 -1.0822
16122SOL    HW252409   3.537   7.125   8.272  1.7509 -1.5720 -0.3607
16123SOL     OW52410   2.400   9.952   8.199 -0.3404 -0.4827 -0.1757
16123SOL    HW152411   2.343  10.028   8.214 -0.2226 -0.7002  1.4772
16123SOL    HW252412   2.399   9.941   8.104 -0.3271  1.6075 -0.4630
16124SOL     OW52413   7.106   6.316   0.779  0.9237  0.3501  0.0093
16124SOL    HW152414   7.144   6.259   0.846 -1.1532 -1.6470 -0.3878
16124SOL    HW252415   7.027   6.352   0.819  0.6534  0.6142 -0.7398
16125SOL     OW52416   4.906   6.830   2.875 -0.1433  0.3796  0.2602
16125SOL    HW152417   4.812   6.846   2.874 -0.1240  0.4896 -0.3160
16125SOL    HW252418   4.942   6.890   2.809  0.0313 -1.3344 -1.2821
16126SOL     OW52419   8.700   8.949   3.780 -0.3659  0.2223 -0.1259
16126SOL    HW152420   8.667   9.033   3.812 -1.2018  0.0028 -0.3822
16126SOL    HW252421   8.681   8.887   3.852  0.3547  0.2678  0.1121
16127SOL     OW52422   8.571   8.200   2.784  0.0238  0.3355  0.4404
16127SOL    HW152423   8.492   8.213   2.730 -1.0051 -1.6471  1.3765
16127SOL    HW252424   8.602   8.113   2.760  0.6243  0.1830  1.7337
16128SOL     OW52425   2.942   8.370   8.782  0.1112 -0.4040 -0.2950
16128SOL    HW152426   2.998   8.367   8.705  1.1574 -1.4392  0.4786
16128SOL    HW252427   2.977   8.442   8.834  0.2810 -0.6051 -0.1320
16129SOL     OW52428   5.212   2.187   1.664  0.6560 -0.0381 -0.2666
16129SOL    HW152429   5.161   2.195   1.583 -0.1121 -1.0387  0.0851
16129SOL    HW252430   5.260   2.105   1.653 -0.4123 -0.8442  0.7746
16130SOL     OW52431   9.866   0.544   2.781  0.2668 -0.5328  0.6952
16130SOL    HW152432   9.853   0.540   2.686 -0.2017  1.6360  0.6064
16130SOL    HW252433   9.778   0.536   2.818  0.2037  0.5021  0.8141
16131SOL     OW52434   5.179   8.716   6.995  0.0197  0.2721  0.5318
16131SOL    HW152435   5.189   8.662   7.073 -1.9204 -2.0720 -0.7248
16131SOL    HW252436   5.096   8.761   7.008 -1.3856 -1.7324 -0.9776
16132SOL     OW52437   7.446   0.631   5.204 -0.0018 -0.5419  0.4393
16132SOL    HW152438   7.488   0.639   5.289  0.7448  0.6485 -0.0155
16132SOL    HW252439   7.473   0.545   5.171 -0.5897 -1.1651  1.5337
16133SOL     OW52440   9.904   7.260   9.780  0.3454  0.1613 -0.2780
16133SOL    HW152441   9.925   7.182   9.832  2.2199  0.5497 -0.3828
16133SOL    HW252442   9.935   7.333   9.833 -1.8017  0.9254  0.0233
16134SOL     OW52443   4.159   1.291   7.920 -0.5373  0.2304  0.0624
16134SOL    HW152444   4.138   1.361   7.982 -1.2463  0.6154 -0.5894
16134SOL    HW252445   4.134   1.210   7.965  2.0177  0.1702  1.5878
16135SOL     OW52446   0.670   1.979   3.553  0.1031 -0.2953  0.0362
16135SOL    HW152447   0.701   2.029   3.477  0.4401 -0.5109  0.0286
16135SOL    HW252448   0.652   1.892   3.518 -0.8436 -0.0878 -0.0300
16136SOL     OW52449   8.240   5.016   0.399  0.5424  0.2586  0.3474
16136SOL    HW152450   8.247   4.943   0.461  0.3671  0.5154  0.6734
16136SOL    HW252451   8.209   5.089   0.452 -1.1556  0.0812 -0.3273
16137SOL     OW52452   7.385   1.579   4.742  0.1676  0.1728 -0.0675
16137SOL    HW152453   7.359   1.536   4.660 -0.3284  0.2180  0.0644
16137SOL    HW252454   7.333   1.535   4.810 -0.7739  1.3524  0.0004
16138SOL     OW52455   9.918   3.298   3.310  0.0846  0.2685  0.2466
16138SOL    HW152456   9.932   3.334   3.398 -0.3145 -1.9238  1.2793
16138SOL    HW252457  10.006   3.283   3.276  0.2579 -0.2070  0.8787
16139SOL     OW52458   3.803   1.688   6.120  0.2421 -0.1826  0.0835
16139SOL    HW152459   3.809   1.593   6.130 -1.1849 -0.4022 -0.9220
16139SOL    HW252460   3.808   1.702   6.026  2.5208  0.9487  0.2894
16140SOL     OW52461   9.724   1.498   7.116 -0.2410 -0.3672 -0.3194
16140SOL    HW152462   9.751   1.576   7.164  0.1768 -1.0209  0.5302
16140SOL    HW252463   9.697   1.436   7.183 -0.8350 -0.8644 -1.0009
16141SOL     OW52464   0.940   3.343   4.596  0.3533 -0.4850  0.9033
16141SOL    HW152465   0.995   3.340   4.518 -0.3567  0.5377  0.3380
16141SOL    HW252466   0.858   3.381   4.566 -0.9123 -2.4809  1.5876
16142SOL     OW52467   1.152   7.808   8.506  0.0987 -0.3047 -0.1086
16142SOL    HW152468   1.245   7.802   8.484  0.4074 -0.8553  1.2092
16142SOL    HW252469   1.151   7.848   8.593 -0.7332 -2.1769  0.8121
16143SOL     OW52470   3.911   1.140   5.831  0.2817  0.0535 -0.3913
16143SOL    HW152471   3.974   1.140   5.759 -0.6404 -0.0085 -1.2153
16143SOL    HW252472   3.878   1.230   5.834  0.9031  0.2739  0.5075
16144SOL     OW52473   2.808   5.301   2.668 -0.2289 -0.7037 -0.1403
16144SOL    HW152474   2.785   5.208   2.671  2.8364 -1.5530  0.2212
16144SOL    HW252475   2.882   5.309   2.727 -0.3501  1.9815 -0.2597
16145SOL     OW52476   3.868   8.674   0.384  0.4688 -0.8261 -0.1508
16145SOL    HW152477   3.930   8.705   0.318  1.1193  0.8205  1.1558
16145SOL    HW252478   3.903   8.589   0.412  0.7396 -1.0631 -1.1593
16146SOL     OW52479   0.506   1.033   0.524 -0.1742 -0.8816 -0.3928
16146SOL    HW152480   0.438   1.051   0.589  1.5198  2.4180  0.7665
16146SOL    HW252481   0.467   1.057   0.440 -0.8380 -0.1588  0.1075
16147SOL     OW52482   5.479   2.356   3.742  0.2975  0.3762  0.1409
16147SOL    HW152483   5.566   2.390   3.720  0.9907 -1.8428 -0.8466
16147SOL    HW252484   5.490   2.321   3.831  0.2666  0.5044  0.1964
16148SOL     OW52485   1.440   2.146   6.783 -0.3086  0.2983 -0.1847
16148SOL    HW152486   1.350   2.134   6.812 -0.6631  0.7464 -1.0592
16148SOL    HW252487   1.433   2.167   6.690  0.7588 -0.6527 -0.5055
16149SOL     OW52488   9.494   7.197   2.206 -0.6704  0.0164 -0.4205
16149SOL    HW152489   9.545   7.202   2.125  0.1726 -0.2665  0.0825
16149SOL    HW252490   9.408   7.231   2.182 -1.5008 -2.9684 -2.2859
16150SOL     OW52491   7.027  10.035   7.388 -0.2139 -0.8566  0.1169
16150SOL    HW152492   6.955   9.982   7.422  0.2611 -0.7193  1.3805
16150SOL    HW252493   6.992  10.074   7.308 -0.2961 -3.7764 -1.4112
16151SOL     OW52494   1.571   6.312   7.490  0.3771  0.9136  0.1260
16151SOL    HW152495   1.639   6.271   7.544  1.8095  2.7078 -0.2427
16151SOL    HW252496   1.493   6.310   7.546  0.9131 -0.4529  0.8796
16152SOL     OW52497   4.194   6.207   9.112 -0.1902  0.2827 -0.2002
16152SOL    HW152498   4.174   6.154   9.190 -0.0717  0.0882 -0.3016
16152SOL    HW252499   4.239   6.146   9.053  0.0543  0.5288 -0.2675
16153SOL     OW52500   4.714   9.329   6.786 -0.5462 -0.6482  0.3075
16153SOL    HW152501   4.797   9.322   6.833 -1.2783  2.3606  2.3734
16153SOL    HW252502   4.655   9.269   6.831 -0.2717 -0.5187  0.8427
16154SOL     OW52503   7.040   9.371   7.270 -0.4025 -0.0178  0.5076
16154SOL    HW152504   7.130   9.341   7.284 -0.0315  0.5558 -0.5570
16154SOL    HW252505   7.039   9.461   7.304 -0.4309  0.1510  0.0677
16155SOL     OW52506   1.179   8.478   6.703 -0.3096  0.0567 -0.4006
16155SOL    HW152507   1.195   8.383   6.706  0.2922  0.1694  0.2337
16155SOL    HW252508   1.086   8.487   6.722 -0.9490 -0.5512 -2.9478
16156SOL     OW52509   0.515   9.695   2.526  0.3459  0.1896 -0.3447
16156SOL    HW152510   0.549   9.621   2.475 -0.2280  0.2002 -0.7518
16156SOL    HW252511   0.578   9.705   2.598  0.4556 -0.6647 -0.3060
16157SOL     OW52512   9.921   6.672  10.220 -0.4035 -0.4612 -0.5049
16157SOL    HW152513   9.969   6.632  10.148  0.8212  0.2001 -0.0907
16157SOL    HW252514   9.831   6.678  10.189 -0.9192 -4.3717 -0.2321
16158SOL     OW52515   8.193   9.526   9.314  0.7740 -0.0600  0.5524
16158SOL    HW152516   8.167   9.616   9.337 -0.5971 -0.5652  1.0256
16158SOL    HW252517   8.144   9.507   9.234 -0.6112 -1.1301  1.6226
16159SOL     OW52518   9.292   2.799  10.077  0.2457 -0.6582 -0.0024
16159SOL    HW152519   9.328   2.831  10.160 -0.9330 -2.0166  1.0790
16159SOL    HW252520   9.365   2.750  10.038  0.3149 -1.4976  1.1020
16160SOL     OW52521   7.062   4.103   4.535 -0.6682  0.0930 -0.9219
16160SOL    HW152522   7.099   4.108   4.623  0.2376  0.7546 -1.3328
16160SOL    HW252523   7.113   4.036   4.490  0.7600  1.6776 -1.7948
16161SOL     OW52524   3.509   1.577   5.145 -0.0611 -0.4974 -0.2266
16161SOL    HW152525   3.550   1.663   5.134  2.2152 -1.3638  0.7657
16161SOL    HW252526   3.564   1.518   5.094 -0.2107 -1.6815  0.9195
16162SOL     OW52527   9.978  10.153   5.482 -0.7287 -0.1148 -0.2044
16162SOL    HW152528  10.015  10.156   5.570  1.4287 -4.1883 -0.6941
16162SOL    HW252529  10.043  10.197   5.427  0.5336 -1.9594 -0.2806
16163SOL     OW52530   2.851   5.827   4.469 -0.1112 -0.6999  0.5311
16163SOL    HW152531   2.795   5.750   4.466 -0.9004 -0.1054 -0.4456
16163SOL    HW252532   2.803   5.891   4.522 -0.9073  0.1835 -1.1544
16164SOL     OW52533   0.668   0.192   8.376  0.2463 -0.0537 -1.3090
16164SOL    HW152534   0.643   0.208   8.467 -1.3781 -0.3197 -1.6635
16164SOL    HW252535   0.761   0.213   8.372  0.3416 -0.0192  0.4015
16165SOL     OW52536   0.439   6.323   2.618  0.1398 -0.1535 -0.7232
16165SOL    HW152537   0.345   6.316   2.632  0.0637  0.6481 -0.7803
16165SOL    HW252538   0.449   6.322   2.523  0.0913  0.7914 -0.7458
16166SOL     OW52539   9.595   7.940   0.097 -0.0584 -0.0619 -0.1465
16166SOL    HW152540   9.569   7.879   0.028  0.4993 -0.5791  0.0863
16166SOL    HW252541   9.676   7.903   0.132 -0.3684  0.1462  0.8330
16167SOL     OW52542   6.794   3.992   8.469 -0.1110 -0.0282  0.6450
16167SOL    HW152543   6.852   3.985   8.544 -0.2869 -0.2121  0.7629
16167SOL    HW252544   6.721   3.933   8.488 -1.9102  2.4075  1.9292
16168SOL     OW52545   8.652   5.943   0.770  0.1082 -0.2029 -0.0796
16168SOL    HW152546   8.682   5.888   0.843  1.4123 -0.9815 -1.1460
16168SOL    HW252547   8.699   5.909   0.694  1.0728  2.4620 -0.7777
16169SOL     OW52548  10.096   8.027   6.840 -0.3463  0.8279 -0.1364
16169SOL    HW152549  10.148   7.979   6.775 -1.4087 -0.4436 -0.0775
16169SOL    HW252550  10.014   8.048   6.794 -0.6482  0.9218  0.4387
16170SOL     OW52551   0.994   9.418   1.069 -0.4565 -0.0802  0.3669
16170SOL    HW152552   0.996   9.348   1.135 -0.6397 -1.8752 -1.4153
16170SOL    HW252553   0.993   9.499   1.120  2.7815 -1.2151  2.5588
16171SOL     OW52554   2.000   8.312   2.457  0.1235 -0.4222  0.8685
16171SOL    HW152555   1.943   8.262   2.398  1.1172 -0.2496 -0.2836
16171SOL    HW252556   1.977   8.281   2.544 -1.5471 -0.5313  0.4217
16172SOL     OW52557   0.515   5.341   7.981 -0.1799  0.2875 -0.0288
16172SOL    HW152558   0.466   5.265   7.950 -0.4117 -0.0679  1.1441
16172SOL    HW252559   0.606   5.319   7.963 -0.1354 -0.8260  1.3613
16173SOL     OW52560   0.573   2.605   7.641 -0.4207  0.3160  0.1820
16173SOL    HW152561   0.664   2.582   7.659  0.1692 -0.4296 -3.1156
16173SOL    HW252562   0.522   2.541   7.690  0.9282 -1.1125 -0.2065
16174SOL     OW52563   0.902   0.435   0.698  0.0437  0.1092  0.4291
16174SOL    HW152564   0.822   0.386   0.678 -1.2018  2.1061  0.3425
16174SOL    HW252565   0.951   0.435   0.615 -0.4646 -0.0315  0.1210
16175SOL     OW52566   1.252   0.533   6.775 -0.3222  0.0304  0.0114
16175SOL    HW152567   1.312   0.533   6.850  0.6906 -0.1970 -0.7693
16175SOL    HW252568   1.213   0.620   6.776 -1.3994 -0.4449  1.6191
16176SOL     OW52569   2.516   2.226   5.937  0.3742  0.0702 -0.4183
16176SOL    HW152570   2.505   2.228   5.842  0.4243 -1.8196 -0.5016
16176SOL    HW252571   2.530   2.134   5.957 -0.2661  0.3517  1.5022
16177SOL     OW52572   6.545   9.134   1.214 -0.0987  0.1888  0.0891
16177SOL    HW152573   6.509   9.145   1.126 -1.1199  1.6208  0.6550
16177SOL    HW252574   6.610   9.204   1.223 -0.6585  0.6285  0.7918
16178SOL     OW52575   7.519   9.554   2.021 -0.4784 -0.7268 -0.0821
16178SOL    HW152576   7.533   9.563   1.926 -0.0550 -0.1363  0.0343
16178SOL    HW252577   7.576   9.620   2.060 -2.2585  0.5469  0.4879
16179SOL     OW52578   4.493   9.319   8.083 -0.7167  0.5057  0.2190
16179SOL    HW152579   4.435   9.391   8.108 -0.8263  0.0798  1.2192
16179SOL    HW252580   4.509   9.271   8.164  0.0669 -0.0906 -0.2717
16180SOL     OW52581   6.083   9.048   8.720 -0.0317 -0.4761 -0.7463
16180SOL    HW152582   6.067   9.069   8.812 -0.6099 -1.3530 -0.6293
16180SOL    HW252583   6.146   9.114   8.690  0.4984 -0.4394  0.3942
16181SOL     OW52584   2.240   3.298   1.777  0.1389 -0.3644  0.6755
16181SOL    HW152585   2.201   3.220   1.738 -0.3043 -0.8044  1.9460
16181SOL    HW252586   2.182   3.369   1.749 -0.5528 -0.7617  1.0536
16182SOL     OW52587   2.309   4.775   4.644 -0.2550 -0.3534 -0.0912
16182SOL    HW152588   2.276   4.747   4.730 -0.0331  1.7791  0.7314
16182SOL    HW252589   2.404   4.763   4.651 -0.2103  0.0906  0.0673
16183SOL     OW52590   3.505   3.750   0.491  0.4937 -0.2585  0.6597
16183SOL    HW152591   3.460   3.667   0.476  1.4606 -1.0744  2.0089
16183SOL    HW252592   3.565   3.759   0.418 -1.2920  0.5039 -0.7938
16184SOL     OW52593   5.346   7.464   9.762  0.2516  0.2122  0.1442
16184SOL    HW152594   5.393   7.383   9.742  0.0328  0.2184 -0.4208
16184SOL    HW252595   5.284   7.474   9.689 -0.2858  0.4587  0.6241
16185SOL     OW52596   8.619   2.206   5.504  0.0204  0.3414  0.1076
16185SOL    HW152597   8.597   2.258   5.582 -0.5297 -0.7222  0.6820
16185SOL    HW252598   8.534   2.185   5.465  0.1804 -0.7096  0.2889
16186SOL     OW52599   9.469   1.693   8.420  0.1285 -0.4620 -0.6455
16186SOL    HW152600   9.498   1.653   8.338  3.2621 -1.0792  0.6224
16186SOL    HW252601   9.498   1.784   8.414 -0.3799 -0.2852 -0.5211
16187SOL     OW52602   1.422   8.385   7.235 -0.4719 -0.2115  0.8255
16187SOL    HW152603   1.446   8.477   7.237 -2.0489  0.3045 -0.6159
16187SOL    HW252604   1.338   8.381   7.281 -3.4497  0.2998 -3.7709
16188SOL     OW52605   9.805   6.594   4.150  0.2333  0.0359  0.0579
16188SOL    HW152606   9.806   6.508   4.107 -0.7092 -0.0104  0.1103
16188SOL    HW252607   9.773   6.654   4.082  2.3229  0.6389 -0.4576
16189SOL     OW52608   3.689   8.337   9.082  0.4954 -0.5807  0.1108
16189SOL    HW152609   3.754   8.384   9.134 -0.1760  0.2102  0.2617
16189SOL    HW252610   3.729   8.326   8.996  0.7663  0.0311  0.1560
16190SOL     OW52611   0.600  10.227   7.167 -0.4997 -0.8787 -0.0342
16190SOL    HW152612   0.551  10.186   7.095  0.6397 -0.7517 -0.9037
16190SOL    HW252613   0.622  10.155   7.225  0.1499 -1.2701 -0.7580
16191SOL     OW52614   1.511   1.964   9.218 -0.1983  0.5710 -0.6217
16191SOL    HW152615   1.549   2.050   9.203 -2.7902  1.6753 -1.4371
16191SOL    HW252616   1.582   1.912   9.256  1.6116  2.8635 -0.6886
16192SOL     OW52617   5.259   5.020   5.145  0.0207  0.3832  0.0623
16192SOL    HW152618   5.317   4.962   5.096 -1.3540 -0.5478 -0.5307
16192SOL    HW252619   5.261   5.103   5.097  3.4742  1.5821  1.9548
16193SOL     OW52620   4.158   7.790   2.763  0.5537 -0.0442  0.5278
16193SOL    HW152621   4.226   7.754   2.705  2.1793  1.9628  1.0563
16193SOL    HW252622   4.161   7.884   2.746 -1.9427  0.1369  0.8026
16194SOL     OW52623   7.857   0.975  10.179  0.7252 -0.3276  0.1913
16194SOL    HW152624   7.852   1.066  10.210 -0.5177 -0.0139 -0.8463
16194SOL    HW252625   7.769   0.940  10.192  0.5706 -0.6588 -1.4983
16195SOL     OW52626   3.682   2.516   9.485 -0.2061 -0.1453  0.3445
16195SOL    HW152627   3.651   2.590   9.432  0.3752 -0.3957 -0.3578
16195SOL    HW252628   3.667   2.544   9.575  1.6403  1.6135  0.1832
16196SOL     OW52629   8.871   8.666   6.494 -0.2635  0.2290  0.0628
16196SOL    HW152630   8.965   8.686   6.490  0.1622 -1.3841  1.0134
16196SOL    HW252631   8.841   8.672   6.404  1.5494 -2.6144 -0.8785
16197SOL     OW52632   4.949   5.151   3.012  0.2709  0.0219 -0.0302
16197SOL    HW152633   4.982   5.085   2.950  2.4489 -0.0296  1.1223
16197SOL    HW252634   4.865   5.178   2.974  1.1467 -0.5567 -2.5907
16198SOL     OW52635   8.385   0.608   3.032 -0.3258 -0.0912 -0.0228
16198SOL    HW152636   8.432   0.567   3.105 -0.9145  0.2787  0.5676
16198SOL    HW252637   8.295   0.614   3.062 -0.7762 -0.8368 -1.1753
16199SOL     OW52638   4.007   6.870   6.541 -0.3478 -0.0715  0.0925
16199SOL    HW152639   4.006   6.965   6.531 -0.2719 -0.1567 -0.7999
16199SOL    HW252640   4.050   6.855   6.625 -0.0583  0.6715  0.0792
16200SOL     OW52641   0.249   2.405   5.477  0.1644  0.0499 -0.6964
16200SOL    HW152642   0.186   2.472   5.504  1.4182  0.3590  1.7303
16200SOL    HW252643   0.289   2.440   5.398 -0.3676  1.3859 -0.4018
16201SOL     OW52644   8.802   4.175   2.967 -0.2185  0.1915 -0.1133
16201SOL    HW152645   8.821   4.115   3.039  1.4575  0.8684  0.0385
16201SOL    HW252646   8.878   4.232   2.962 -0.9833  1.1503 -1.4384
16202SOL     OW52647  10.102   6.325   7.222  0.2507 -0.0185 -0.2080
16202SOL    HW152648  10.171   6.361   7.167  0.4627 -1.3779 -0.9039
16202SOL    HW252649  10.117   6.230   7.220  0.0105 -0.1535  1.8930
16203SOL     OW52650   5.453   7.929   1.006  0.3666  0.4690 -0.5198
16203SOL    HW152651   5.365   7.891   1.001  0.0079  0.8882  1.5393
16203SOL    HW252652   5.438   8.024   1.006  1.0938  0.6564 -3.3355
16204SOL     OW52653   4.519   8.766   7.309  0.1741  1.0307 -0.2831
16204SOL    HW152654   4.467   8.817   7.247 -0.0892  0.9158 -0.1606
16204SOL    HW252655   4.455   8.735   7.374  0.3490  0.6422 -0.2925
16205SOL     OW52656   5.841   1.436   2.851 -0.5250  0.0558 -0.3683
16205SOL    HW152657   5.826   1.514   2.904 -0.2144 -0.2114  0.1174
16205SOL    HW252658   5.886   1.468   2.773 -1.3741  0.5138 -0.6887
16206SOL     OW52659   2.342   7.037   3.771  0.1357  0.4683  0.0028
16206SOL    HW152660   2.288   7.116   3.777 -0.6539 -0.0152 -0.5054
16206SOL    HW252661   2.280   6.965   3.782 -0.0019 -0.2404 -3.8004
16207SOL     OW52662   0.041   5.621   9.848  0.6660  0.0699 -0.5949
16207SOL    HW152663   0.086   5.694   9.890  0.0878  1.1902 -1.8388
16207SOL    HW252664   0.024   5.559   9.919 -0.0427  1.7477  0.7896
16208SOL     OW52665   0.262   4.808   7.937  0.2128 -0.2984  0.1344
16208SOL    HW152666   0.268   4.891   7.985 -0.0667 -0.3099  0.1902
16208SOL    HW252667   0.345   4.763   7.957 -0.5561 -1.0194  1.9463
16209SOL     OW52668   7.193   3.394   3.081 -0.2655  0.1735 -0.4407
16209SOL    HW152669   7.126   3.455   3.052 -2.0746 -1.5902 -0.1843
16209SOL    HW252670   7.215   3.343   3.002  0.0632  0.1024 -0.3059
16210SOL     OW52671   3.457   1.909   7.115 -0.1683 -0.0262 -0.4315
16210SOL    HW152672   3.385   1.920   7.054 -0.7254 -0.5625  0.1143
16210SOL    HW252673   3.485   1.818   7.104  0.4259  0.1696 -0.6263
16211SOL     OW52674   6.287   0.291   1.978 -0.0578  0.1014 -0.9520
16211SOL    HW152675   6.325   0.304   1.891  2.3173  3.3505  0.3644
16211SOL    HW252676   6.223   0.361   1.987  1.2583  1.1809  0.5887
16212SOL     OW52677   6.139   4.591   0.347  0.6850  0.2242 -0.0216
16212SOL    HW152678   6.130   4.498   0.325 -0.0813 -0.1874  1.8644
16212SOL    HW252679   6.052   4.618   0.375  1.1383  1.2316  0.4736
16213SOL     OW52680   2.020   6.311  10.287  0.0268  0.7136 -0.1274
16213SOL    HW152681   1.995   6.245  10.222 -1.7683  1.9243 -0.7375
16213SOL    HW252682   1.954   6.302  10.357  0.9544  0.5399  0.7510
16214SOL     OW52683   1.001   2.874   0.547 -0.2848 -0.2311 -0.3580
16214SOL    HW152684   1.096   2.880   0.557 -0.0990 -0.4175 -1.7929
16214SOL    HW252685   0.988   2.847   0.456 -1.7029 -0.6646 -0.0507
16215SOL     OW52686   3.251   8.579   9.656  0.3709  0.7775  0.1249
16215SOL    HW152687   3.341   8.602   9.632  0.1538  1.2440 -0.2791
16215SOL    HW252688   3.199   8.656   9.629 -0.3764 -0.1487 -1.2117
16216SOL     OW52689   6.470   7.656   2.723 -0.3231  0.0747 -0.0266
16216SOL    HW152690   6.485   7.627   2.813 -1.7610  0.6449  0.4270
16216SOL    HW252691   6.389   7.708   2.728 -0.0140  0.7421 -1.5178
16217SOL     OW52692   2.760   6.875   0.810 -0.1092 -0.0722  0.7732
16217SOL    HW152693   2.742   6.861   0.903 -1.2841  1.3701  0.7893
16217SOL    HW252694   2.832   6.938   0.809 -0.3432  0.1944  0.7051
16218SOL     OW52695   4.458   7.039   1.024  0.1035  0.4361 -0.1041
16218SOL    HW152696   4.543   7.080   1.005 -0.7538  1.8027 -1.0995
16218SOL    HW252697   4.444   6.978   0.952  0.8224 -0.7707  0.7490
16219SOL     OW52698   4.511   5.629   9.857 -0.0003 -0.3916  0.0779
16219SOL    HW152699   4.435   5.600   9.806 -0.2482 -0.8890  0.7009
16219SOL    HW252700   4.583   5.628   9.795 -0.4872  0.0190 -0.5115
16220SOL     OW52701   0.512   8.235   7.967  0.2883 -0.2930  0.2703
16220SOL    HW152702   0.547   8.314   7.926 -0.6523  1.1560  2.0804
16220SOL    HW252703   0.580   8.169   7.957  1.3735  0.9429 -0.7188
16221SOL     OW52704   7.368   0.429   9.945  0.6577 -0.0471  0.2079
16221SOL    HW152705   7.412   0.514   9.953 -0.2565  0.3957  0.7052
16221SOL    HW252706   7.285   0.449   9.900  1.1103 -0.9267 -1.0840
16222SOL     OW52707   8.663   0.057   3.142  0.5299  0.2585 -0.0126
16222SOL    HW152708   8.730  -0.005   3.170 -0.3787 -0.8077 -0.1550
16222SOL    HW252709   8.682   0.073   3.049 -1.6336 -3.1176 -1.2302
16223SOL     OW52710   3.252   3.051   0.422  0.4318 -0.2190 -0.3209
16223SOL    HW152711   3.181   3.015   0.475 -0.3684  1.7615  0.0216
16223SOL    HW252712   3.220   3.136   0.393  1.7694 -0.2613 -2.0976
16224SOL     OW52713   4.673   5.546   8.702 -0.6856  0.4789  0.2279
16224SOL    HW152714   4.599   5.500   8.662 -1.5652  2.0405 -0.0494
16224SOL    HW252715   4.747   5.527   8.645 -1.7255  1.9506 -1.7603
16225SOL     OW52716   5.992   8.425   0.085 -0.1296  0.1959 -0.7339
16225SOL    HW152717   6.071   8.477   0.100  0.5573 -1.0074 -0.0062
16225SOL    HW252718   5.930   8.456   0.152 -0.1229  0.8080 -1.0009
16226SOL     OW52719   9.292   8.539   6.751  0.0800 -0.1255 -0.3016
16226SOL    HW152720   9.276   8.482   6.675 -1.8928  0.3851 -0.3131
16226SOL    HW252721   9.251   8.622   6.728  1.9696  0.9885  0.1755
16227SOL     OW52722   2.540   9.812   4.064 -0.0340 -0.6909 -0.0974
16227SOL    HW152723   2.516   9.759   3.989  1.0097 -0.6156 -0.4969
16227SOL    HW252724   2.614   9.766   4.104 -0.7281 -0.8576  1.0290
16228SOL     OW52725  10.176   8.316   6.583  0.2298 -0.0055  0.1996
16228SOL    HW152726  10.153   8.305   6.675 -1.1661  0.7481 -0.0247
16228SOL    HW252727  10.253   8.261   6.570  0.3390 -0.2584  1.7672
16229SOL     OW52728   9.824   5.926  10.153  0.1617  0.6309 -1.0175
16229SOL    HW152729   9.808   5.873  10.231  1.1418 -0.7371 -1.7010
16229SOL    HW252730   9.761   5.997  10.159  0.6720  0.9603  1.3680
16230SOL     OW52731   4.136   8.139   4.145  0.3533  0.3726  0.2415
16230SOL    HW152732   4.067   8.185   4.191  0.6852  1.2292 -0.1031
16230SOL    HW252733   4.114   8.046   4.155 -1.6531  0.6619 -1.1088
16231SOL     OW52734   3.085   1.692   0.240 -0.3598  0.3268  0.5768
16231SOL    HW152735   3.041   1.666   0.159 -0.0810  0.8568  0.2474
16231SOL    HW252736   3.025   1.667   0.309 -1.1766  1.0017  0.1313
16232SOL     OW52737   4.081   4.138   8.009 -0.1606  0.0947 -0.0206
16232SOL    HW152738   4.151   4.157   7.947 -0.3547  0.7707 -0.0356
16232SOL    HW252739   4.020   4.211   7.999 -0.2659  0.1326  0.8615
16233SOL     OW52740   3.796   8.003   4.876 -0.3681  0.4006  0.3213
16233SOL    HW152741   3.820   7.993   4.968  1.0011 -0.1866 -0.0726
16233SOL    HW252742   3.844   7.932   4.831 -2.2258 -0.3079 -0.6474
16234SOL     OW52743   4.214   8.148   4.765 -0.7292 -0.1564 -0.4406
16234SOL    HW152744   4.290   8.180   4.716  2.5252 -2.7636  2.4054
16234SOL    HW252745   4.158   8.107   4.698  1.0495  0.5471 -2.4951
16235SOL     OW52746   9.352   0.867   6.461  0.0003 -0.0962 -0.1382
16235SOL    HW152747   9.333   0.955   6.493  1.1375 -0.5743  2.0083
16235SOL    HW252748   9.280   0.813   6.492  0.5339 -0.3577  0.6582
16236SOL     OW52749   7.285   0.925   4.491 -0.7242  0.1220 -0.3136
16236SOL    HW152750   7.232   0.854   4.528  0.6451 -0.8920 -0.1964
16236SOL    HW252751   7.340   0.954   4.564 -1.0291  1.0986 -0.4531
16237SOL     OW52752   5.994   3.591   1.342  0.3604  0.1064  0.5094
16237SOL    HW152753   5.906   3.598   1.304  0.6649 -1.4906 -0.5853
16237SOL    HW252754   5.996   3.659   1.410 -1.6074  0.3725  0.3664
16238SOL     OW52755   1.366   2.485   9.120 -0.0442  0.4435  0.0848
16238SOL    HW152756   1.336   2.419   9.183 -0.4729  0.4736 -0.0825
16238SOL    HW252757   1.380   2.436   9.039  3.0685 -0.1126  0.8269
16239SOL     OW52758   5.950   2.662   8.449  0.3246  0.8322 -0.1539
16239SOL    HW152759   5.941   2.711   8.367 -1.3249 -0.7109 -0.9732
16239SOL    HW252760   5.862   2.629   8.467  0.9062  0.0868  1.5898
16240SOL     OW52761   9.399   1.245   9.312 -0.1094 -0.0031  0.3628
16240SOL    HW152762   9.471   1.230   9.373 -0.8265 -0.4585  1.1255
16240SOL    HW252763   9.334   1.178   9.334 -0.8263  0.4802 -0.2086
16241SOL     OW52764   2.961   2.726   5.904  0.5056  0.1968 -0.1877
16241SOL    HW152765   2.998   2.640   5.920 -0.6288 -0.4369 -0.8621
16241SOL    HW252766   3.030   2.773   5.855  0.4326 -0.9668 -1.4671
16242SOL     OW52767   5.794   5.267   7.131 -0.4069 -0.2649 -0.3277
16242SOL    HW152768   5.705   5.235   7.141 -1.0072  1.4147  0.1288
16242SOL    HW252769   5.816   5.305   7.216  0.6296 -0.3793 -0.5277
16243SOL     OW52770   0.156   1.402   7.165 -0.5230 -0.4454  0.7762
16243SOL    HW152771   0.221   1.454   7.211  1.3431 -0.6234 -1.5016
16243SOL    HW252772   0.126   1.457   7.093 -1.7962 -0.9383  0.8925
16244SOL     OW52773   9.620   2.144   7.807 -0.6755 -0.8952  0.0239
16244SOL    HW152774   9.610   2.181   7.895  0.2793 -1.2984  0.3082
16244SOL    HW252775   9.530   2.131   7.777 -1.0159 -0.5575  0.8513
16245SOL     OW52776  10.125   0.794   7.507 -0.3082 -0.5194  0.6020
16245SOL    HW152777  10.187   0.782   7.435  0.4582 -1.0947  1.3504
16245SOL    HW252778  10.046   0.827   7.464  0.1878 -0.6941 -0.4861
16246SOL     OW52779   1.590   4.198   0.101  0.5436  0.2575 -0.4238
16246SOL    HW152780   1.555   4.216   0.188 -1.2469 -0.1200 -1.0192
16246SOL    HW252781   1.513   4.194   0.044  1.6351  0.1648 -1.9791
16247SOL     OW52782   1.000   8.279   0.651 -0.4273  0.2725 -0.2750
16247SOL    HW152783   0.941   8.330   0.596 -2.0681 -1.1619  0.0561
16247SOL    HW252784   0.981   8.188   0.628 -0.2294 -0.3162  1.7280
16248SOL     OW52785   4.482   6.686   2.956 -0.6520  0.2176 -0.5293
16248SOL    HW152786   4.546   6.643   3.012  0.4442  1.7277 -0.5679
16248SOL    HW252787   4.484   6.636   2.874 -1.0914 -1.0170  0.1908
16249SOL     OW52788   6.842   4.985   3.068  0.1871  0.3120 -0.8951
16249SOL    HW152789   6.766   5.042   3.060 -0.9450 -1.1318 -0.7787
16249SOL    HW252790   6.879   5.005   3.154 -0.2151  0.8236 -0.8383
16250SOL     OW52791   3.058   2.486   0.877 -0.3788  0.0828  0.1272
16250SOL    HW152792   3.150   2.499   0.854 -0.2897 -0.7298  0.0034
16250SOL    HW252793   3.049   2.524   0.964  0.5923 -1.6533  1.0421
16251SOL     OW52794   8.508   0.259   0.926 -0.2335  0.0096  0.4892
16251SOL    HW152795   8.573   0.300   0.983  0.9179 -2.0429  0.7512
16251SOL    HW252796   8.425   0.297   0.955  0.7622  2.4104  0.3973
16252SOL     OW52797   5.148   1.919   7.149 -0.4425  0.0177  0.0372
16252SOL    HW152798   5.221   1.884   7.098 -1.3191  0.3471 -1.5131
16252SOL    HW252799   5.128   1.850   7.212  1.6035  0.1852  0.9656
16253SOL     OW52800   0.953   9.125   3.978  0.1655  0.2273 -0.0868
16253SOL    HW152801   0.976   9.101   4.068 -0.8700  0.8091  0.3561
16253SOL    HW252802   0.948   9.221   3.980 -4.5322  0.2090  0.5586
16254SOL     OW52803   1.565   5.240   1.386  0.1349  0.3430  0.2486
16254SOL    HW152804   1.577   5.334   1.372 -0.9101  0.7419  1.7804
16254SOL    HW252805   1.622   5.219   1.460  0.0975 -0.1619  0.1400
16255SOL     OW52806   4.107   0.197   3.489 -0.4015 -0.1929  0.1927
16255SOL    HW152807   4.047   0.189   3.414 -0.6804  0.0382  0.3879
16255SOL    HW252808   4.133   0.106   3.508  1.5729 -0.0700 -1.6802
16256SOL     OW52809   7.755   9.534   4.206 -0.0369 -0.1000  0.1867
16256SOL    HW152810   7.718   9.455   4.246  1.1142  0.1703  1.9000
16256SOL    HW252811   7.680   9.577   4.165 -0.7902 -1.7596 -0.2441
16257SOL     OW52812   7.891   1.674   0.212 -0.2923 -0.1155 -0.0315
16257SOL    HW152813   7.865   1.765   0.229  2.3389  0.6264  0.5001
16257SOL    HW252814   7.953   1.680   0.140 -0.5634 -1.6057 -0.4256
16258SOL     OW52815   7.028   1.739   4.178  0.1854  0.0516  0.1974
16258SOL    HW152816   6.980   1.687   4.243 -0.3415 -0.0148 -0.2423
16258SOL    HW252817   6.975   1.734   4.099  1.4184 -0.8686 -0.6133
16259SOL     OW52818   5.445   1.461   6.278 -0.2311  0.2575  0.0998
16259SOL    HW152819   5.367   1.462   6.333  0.2194 -0.8513  0.8071
16259SOL    HW252820   5.511   1.510   6.327  0.4624 -1.5475  1.0602
16260SOL     OW52821   7.537   6.653   1.814 -0.4495  0.0137 -0.3893
16260SOL    HW152822   7.538   6.740   1.854  0.2156  0.0295 -0.4259
16260SOL    HW252823   7.457   6.652   1.760 -1.2050  0.0835  0.7062
16261SOL     OW52824   2.679   1.412   6.246 -0.3414  0.3662  0.0632
16261SOL    HW152825   2.588   1.385   6.238  0.0413 -1.0266  0.1810
16261SOL    HW252826   2.702   1.446   6.159 -1.5334  2.7211  0.5720
16262SOL     OW52827   8.725   0.672   7.389  0.0503 -0.1417 -0.0765
16262SOL    HW152828   8.815   0.692   7.364 -0.4032  1.4472 -0.5847
16262SOL    HW252829   8.725   0.674   7.484  0.9470 -2.1800  0.0147
16263SOL     OW52830   3.916   2.495   2.852  0.4005 -0.3934 -0.2036
16263SOL    HW152831   3.970   2.562   2.894  0.8778  0.2756 -1.8004
16263SOL    HW252832   3.874   2.541   2.779  0.6810 -1.7881 -1.2897
16264SOL     OW52833   4.298   8.275   1.215  0.1926 -0.8476 -0.1068
16264SOL    HW152834   4.345   8.244   1.293 -0.3199  0.4294  0.7470
16264SOL    HW252835   4.309   8.370   1.217 -1.9327 -0.5455 -0.1907
16265SOL     OW52836   6.446   8.289   1.552 -0.7302  0.0842 -0.4328
16265SOL    HW152837   6.414   8.205   1.585  0.1783 -0.8715 -1.8790
16265SOL    HW252838   6.500   8.323   1.624 -0.7623 -0.7686  0.0154
16266SOL     OW52839   7.304   7.437   8.467  0.3475 -0.1025  0.0807
16266SOL    HW152840   7.238   7.500   8.496  0.8840  1.1179 -1.2351
16266SOL    HW252841   7.269   7.352   8.494 -2.0027  0.4507 -0.9280
16267SOL     OW52842   2.344   2.142   1.256 -0.2977  0.6688  0.2044
16267SOL    HW152843   2.325   2.195   1.178  0.1788  0.8967  0.2414
16267SOL    HW252844   2.276   2.168   1.319 -0.8462  0.2916 -0.2160
16268SOL     OW52845   9.903   7.315   1.220  0.2041 -0.0019  0.3069
16268SOL    HW152846   9.830   7.278   1.270 -0.6201 -0.1257 -0.9195
16268SOL    HW252847   9.957   7.240   1.196 -0.6363 -0.2583 -0.8798
16269SOL     OW52848   9.432  10.114   8.730  0.1797 -0.1104  0.0404
16269SOL    HW152849   9.494  10.091   8.799 -2.0089 -0.7565  1.8926
16269SOL    HW252850   9.375  10.038   8.722 -1.8064  1.2866  0.0916
16270SOL     OW52851   7.679   2.487   3.552  0.1600 -0.1839 -0.0753
16270SOL    HW152852   7.743   2.554   3.575 -0.7996  1.0416 -0.8219
16270SOL    HW252853   7.677   2.428   3.627  0.6002  0.9663  0.8601
16271SOL     OW52854   6.812   0.465   3.309 -0.0916  0.0670  0.0298
16271SOL    HW152855   6.892   0.504   3.273 -0.0103  0.7572  0.9116
16271SOL    HW252856   6.836   0.374   3.327  0.1097 -0.0636 -0.8672
16272SOL     OW52857   1.331   3.703   1.563 -0.6345 -0.4673 -0.4557
16272SOL    HW152858   1.410   3.746   1.530 -1.4252  2.1634  0.8614
16272SOL    HW252859   1.351   3.683   1.655 -1.4661  0.1706 -0.1251
16273SOL     OW52860   6.779   6.655  10.227  0.3767  0.9441  0.2298
16273SOL    HW152861   6.859   6.609  10.201 -0.9314 -0.7305 -1.0482
16273SOL    HW252862   6.755   6.706  10.150  0.4137  1.7934  0.7643
16274SOL     OW52863   2.188   8.661   3.103  0.6667 -0.2683  0.1996
16274SOL    HW152864   2.117   8.725   3.099 -0.6040 -1.6508 -0.2285
16274SOL    HW252865   2.144   8.576   3.105  2.3280 -1.1976 -0.5655
16275SOL     OW52866   9.458   8.144   6.823 -0.6806  0.5315  0.7533
16275SOL    HW152867   9.405   8.129   6.901 -0.4815 -0.7995  0.6592
16275SOL    HW252868   9.493   8.232   6.834  0.6232 -0.2038  2.9552
16276SOL     OW52869   9.469   9.375   1.836  0.0432 -0.1976 -0.2485
16276SOL    HW152870   9.541   9.319   1.806  0.3202 -0.2525  0.4893
16276SOL    HW252871   9.397   9.314   1.855  0.8320 -0.5120  2.0008
16277SOL     OW52872   8.076   8.132   5.009  0.4660 -0.0346 -0.2462
16277SOL    HW152873   8.045   8.081   5.084 -0.5945 -1.0495 -1.3104
16277SOL    HW252874   8.047   8.221   5.026 -0.5120 -0.4161  0.1672
16278SOL     OW52875   8.871   3.444   9.082  0.5673 -0.5090  0.1038
16278SOL    HW152876   8.913   3.381   9.141  0.5917 -0.5388  0.0554
16278SOL    HW252877   8.834   3.390   9.012  0.9544 -0.4357 -0.1587
16279SOL     OW52878   7.370   5.209   6.053  0.3493  0.3483  0.0393
16279SOL    HW152879   7.306   5.161   6.000  0.8738  0.0056 -0.2932
16279SOL    HW252880   7.416   5.265   5.990  0.8843  0.0395  0.1567
16280SOL     OW52881   3.668   4.118   2.584 -0.1760 -0.1386  0.3213
16280SOL    HW152882   3.644   4.154   2.499  0.4040 -0.3634  0.0592
16280SOL    HW252883   3.720   4.040   2.564 -0.2295 -0.3240  0.8810
16281SOL     OW52884   6.970   7.198   9.238  0.1561 -0.2358  0.2260
16281SOL    HW152885   6.993   7.287   9.264 -1.8349  0.0911  1.0701
16281SOL    HW252886   6.922   7.163   9.313 -1.0833 -1.1961 -0.9545
16282SOL     OW52887   6.170   2.601   6.429 -0.6081 -0.4409 -0.1358
16282SOL    HW152888   6.255   2.575   6.465 -0.2276 -0.5734 -1.0983
16282SOL    HW252889   6.128   2.650   6.500  0.4668  0.0293  0.1958
16283SOL     OW52890   5.156   2.176   9.755  0.4175  0.2351  0.3170
16283SOL    HW152891   5.133   2.122   9.679 -2.2967  1.3554  0.2298
16283SOL    HW252892   5.199   2.253   9.717  1.8019 -0.5484  0.2238
16284SOL     OW52893   0.916  10.093   5.963 -0.5580 -0.4250  0.5553
16284SOL    HW152894   0.874  10.039   5.897  0.7913 -3.5642  2.0860
16284SOL    HW252895   0.987  10.039   5.998  0.3015  1.9736  2.9034
16285SOL     OW52896   9.900   1.951   0.921  0.1820 -0.0246 -0.5440
16285SOL    HW152897   9.825   2.010   0.927 -0.1892 -0.4430 -0.9427
16285SOL    HW252898   9.888   1.890   0.993  0.8028  0.6474  0.1354
16286SOL     OW52899   1.918   2.251   2.434  0.3182  0.6013  0.0243
16286SOL    HW152900   1.970   2.211   2.504 -0.7935  0.0354  0.5624
16286SOL    HW252901   1.907   2.342   2.460 -1.2679  0.0770  1.3575
16287SOL     OW52902   9.542   2.208   5.170  0.3418  0.0243 -0.0287
16287SOL    HW152903   9.567   2.156   5.247 -0.4379  0.4429  0.5331
16287SOL    HW252904   9.448   2.223   5.182  0.0886 -0.3991 -1.3807
16288SOL     OW52905   7.409   8.099   3.884  0.0061 -0.1619 -0.1146
16288SOL    HW152906   7.485   8.063   3.837 -0.5445  0.5785 -1.6045
16288SOL    HW252907   7.434   8.189   3.905  0.0265 -0.3140  0.5398
16289SOL     OW52908   0.005   7.351   5.739 -0.2454 -0.0623 -0.2367
16289SOL    HW152909  -0.066   7.299   5.702  0.8242 -1.6247 -0.1918
16289SOL    HW252910   0.068   7.286   5.771  0.7358  1.2686  0.6442
16290SOL     OW52911   2.937   9.279   1.853 -0.4708  0.1373  0.5080
16290SOL    HW152912   2.876   9.218   1.895  0.6492 -2.8560 -1.8326
16290SOL    HW252913   3.021   9.261   1.895 -0.1646  0.1715 -0.0807
16291SOL     OW52914   4.752   9.961   5.887  0.0873  0.0654 -0.1868
16291SOL    HW152915   4.677   9.956   5.947  2.1421 -3.0239  2.4226
16291SOL    HW252916   4.722   9.917   5.807 -0.4770 -2.6832  1.4360
16292SOL     OW52917   1.195   7.569   3.328  0.0973  0.2108  0.1064
16292SOL    HW152918   1.207   7.662   3.310  0.5628  0.3229  0.9641
16292SOL    HW252919   1.284   7.534   3.337 -0.0964 -0.0538  1.0712
16293SOL     OW52920   4.110   0.975   6.964  0.0502  0.0250 -0.6523
16293SOL    HW152921   4.130   0.995   6.873 -0.8588  3.2000 -0.2446
16293SOL    HW252922   4.025   1.016   6.980  0.2196 -0.3909  1.6481
16294SOL     OW52923   8.194   3.175   3.857  0.3520  0.5332 -0.2651
16294SOL    HW152924   8.104   3.184   3.887  1.2836  2.9580  2.1651
16294SOL    HW252925   8.228   3.099   3.905 -0.2452 -0.1638 -0.9168
16295SOL     OW52926   4.506   7.807   5.885 -0.6209 -0.3493  0.0678
16295SOL    HW152927   4.503   7.807   5.789  4.6200 -1.1175 -0.3779
16295SOL    HW252928   4.590   7.848   5.907 -1.8807  0.4279  4.4538
16296SOL     OW52929   8.466   8.937   4.561 -0.4130  0.0109  0.3513
16296SOL    HW152930   8.492   8.951   4.652  0.1075 -0.0076  0.2053
16296SOL    HW252931   8.548   8.929   4.513 -0.6863 -0.3924 -0.0596
16297SOL     OW52932   9.760   1.154   9.203  0.1724 -0.1054  0.1630
16297SOL    HW152933   9.740   1.235   9.250 -1.1941 -0.1402 -0.2867
16297SOL    HW252934   9.734   1.084   9.263 -0.6662 -0.1630 -0.2513
16298SOL     OW52935   8.325   6.913   1.261  0.3008 -0.1140  0.4058
16298SOL    HW152936   8.294   6.872   1.181  0.4474 -1.7966  1.1545
16298SOL    HW252937   8.353   7.000   1.235  1.6942 -1.1128 -1.6470
16299SOL     OW52938   4.338   3.280   7.378 -0.4845 -0.1326  0.1500
16299SOL    HW152939   4.278   3.336   7.327 -0.8745 -1.0516 -0.4284
16299SOL    HW252940   4.424   3.320   7.365 -0.8562  0.7764  0.3765
16300SOL     OW52941   6.130   0.733   9.730 -0.2421  0.3495 -0.4926
16300SOL    HW152942   6.197   0.734   9.799 -0.0926  0.5019 -0.6390
16300SOL    HW252943   6.118   0.825   9.707 -0.0274  0.2737 -0.9237
16301SOL     OW52944   4.856   1.385   8.252  0.3908 -0.4369  0.3435
16301SOL    HW152945   4.927   1.421   8.199 -0.1410 -1.2062 -0.9360
16301SOL    HW252946   4.898   1.361   8.335  1.3048  0.5042  0.1785
16302SOL     OW52947   3.620  10.227   9.132 -0.4614 -0.5547 -0.0152
16302SOL    HW152948   3.551  10.200   9.193 -0.8979  0.4637 -0.0351
16302SOL    HW252949   3.674  10.288   9.182 -0.2439 -0.4691 -0.3486
16303SOL     OW52950   6.246   9.641   7.229  0.1876  0.6147 -0.7042
16303SOL    HW152951   6.255   9.653   7.323  0.6159  1.9928 -0.8972
16303SOL    HW252952   6.290   9.717   7.191  2.5751 -1.3275 -2.1157
16304SOL     OW52953   4.264   4.397   1.013 -1.0243  0.8707  0.1314
16304SOL    HW152954   4.266   4.492   1.021  0.0455  0.9353 -0.6987
16304SOL    HW252955   4.347   4.375   0.971 -1.9727 -0.2886 -1.1985
16305SOL     OW52956   4.854   8.269   0.855 -0.1913  0.2552  0.0719
16305SOL    HW152957   4.905   8.315   0.922 -2.5247  1.9562  0.8075
16305SOL    HW252958   4.895   8.295   0.772  2.6419 -1.7679  0.6947
16306SOL     OW52959   9.215   3.120   4.862 -0.3900  0.3601  0.1930
16306SOL    HW152960   9.201   3.210   4.890 -0.5895  0.2467  0.4534
16306SOL    HW252961   9.276   3.128   4.788  0.9084  0.5967  1.2423
16307SOL     OW52962   4.196   3.108   1.959  0.2301 -0.4285  0.3916
16307SOL    HW152963   4.145   3.159   2.023  1.9536  0.0030  1.4817
16307SOL    HW252964   4.172   3.017   1.977 -1.2588 -0.1749 -0.1325
16308SOL     OW52965   6.783   7.144   2.486  0.2298  0.2183 -0.5775
16308SOL    HW152966   6.819   7.165   2.573 -0.1052 -0.3308 -0.3017
16308SOL    HW252967   6.690   7.130   2.502 -0.2926  2.3057 -1.3927
16309SOL     OW52968   6.834   7.649   0.586 -0.0680  0.2095  0.4500
16309SOL    HW152969   6.923   7.660   0.554 -0.6801  0.5766 -1.2973
16309SOL    HW252970   6.836   7.677   0.677  1.9492 -1.4978  1.0073
16310SOL     OW52971   1.073   5.741   9.141  0.1550 -0.1465 -0.1008
16310SOL    HW152972   1.159   5.781   9.130  0.6337 -0.7662  1.1988
16310SOL    HW252973   1.012   5.802   9.099  1.1971  0.3886 -0.8781
16311SOL     OW52974   8.248   0.149   7.576 -0.4656 -0.3220 -0.3324
16311SOL    HW152975   8.189   0.198   7.519 -0.9452 -0.2399  0.2224
16311SOL    HW252976   8.196   0.130   7.653 -0.9271 -3.2792 -1.2346
16312SOL     OW52977   2.939   2.143   9.278  0.5233  0.5124 -0.0479
16312SOL    HW152978   2.922   2.104   9.192  1.2698  1.9951 -0.9098
16312SOL    HW252979   3.024   2.185   9.269  0.5538  0.8059  1.3884
16313SOL     OW52980   1.361   3.824   6.828 -0.0137  0.0758 -0.7647
16313SOL    HW152981   1.418   3.838   6.903 -1.2991  0.1600  0.2334
16313SOL    HW252982   1.280   3.790   6.865 -1.2404  1.5475 -1.9214
16314SOL     OW52983   0.104   7.078   5.717 -0.3114 -0.3327  0.2627
16314SOL    HW152984   0.074   7.037   5.798  1.2093 -1.0426  0.5132
16314SOL    HW252985   0.189   7.037   5.700  1.0606  2.3214  0.2275
16315SOL     OW52986   2.984   6.423   9.528 -0.2006 -0.1060  0.5273
16315SOL    HW152987   2.994   6.327   9.528 -0.0622 -0.1214 -1.2739
16315SOL    HW252988   3.002   6.449   9.618  1.1538 -1.6371  0.7357
16316SOL     OW52989   6.360   3.797   3.017 -0.5269  0.4308  0.3706
16316SOL    HW152990   6.400   3.765   3.097  0.4537  1.0479  0.1464
16316SOL    HW252991   6.412   3.874   2.993 -0.6852  0.1515 -0.9513
16317SOL     OW52992   0.578   8.749  10.098  0.3692  0.4149 -0.0289
16317SOL    HW152993   0.661   8.767  10.142  0.9045 -0.0085 -0.8359
16317SOL    HW252994   0.537   8.835  10.088 -0.1713  0.4608  2.0038
16318SOL     OW52995   2.440   5.023   1.225 -0.6831 -0.4570 -0.0387
16318SOL    HW152996   2.406   5.111   1.211  1.1866  0.1375 -1.2077
16318SOL    HW252997   2.387   4.988   1.298 -1.8081  1.4032  0.1005
16319SOL     OW52998   7.351   9.307   2.047 -0.2226 -0.1776  0.4286
16319SOL    HW152999   7.407   9.295   2.124 -0.1372  0.8745  0.5483
16319SOL    HW253000   7.380   9.390   2.009 -0.4994 -0.5149 -0.5442
16320SOL     OW53001   4.371  10.172   0.543 -0.4977 -0.7922 -0.7351
16320SOL    HW153002   4.384  10.226   0.620  0.2440 -1.6461 -0.2388
16320SOL    HW253003   4.445  10.111   0.544 -1.1783 -1.6577 -1.4029
16321SOL     OW53004   0.587   2.926   4.448  0.1628  0.0293  0.0515
16321SOL    HW153005   0.590   3.021   4.437  1.4004 -0.0618 -0.6434
16321SOL    HW253006   0.503   2.909   4.490  0.8641  1.6330  2.2956
16322SOL     OW53007   9.492   7.570   3.780 -0.1991  0.2138 -0.6042
16322SOL    HW153008   9.588   7.571   3.791 -0.1704  0.6384 -0.8422
16322SOL    HW253009   9.461   7.639   3.839 -0.4593 -0.6274  0.2645
16323SOL     OW53010   2.795   2.691   7.607  0.2078  0.1366 -0.1491
16323SOL    HW153011   2.885   2.679   7.637  0.1554  1.7070  0.7251
16323SOL    HW253012   2.773   2.608   7.564  0.8068 -1.6507  2.7578
16324SOL     OW53013   5.798   4.277   5.140 -0.3949 -0.3648 -0.1626
16324SOL    HW153014   5.846   4.333   5.080  1.7068  0.4203  2.0851
16324SOL    HW253015   5.730   4.334   5.177 -1.0003 -0.5528 -0.9529
16325SOL     OW53016   6.343   1.556   5.121 -0.2610  0.6552  0.0410
16325SOL    HW153017   6.375   1.545   5.210  2.2708  1.7847 -0.6467
16325SOL    HW253018   6.363   1.474   5.078 -0.7276  0.4133  0.2723
16326SOL     OW53019   7.979   3.191   3.026  0.1480 -0.3500  0.1588
16326SOL    HW153020   7.946   3.109   2.990 -0.2548 -0.3848  0.6171
16326SOL    HW253021   8.066   3.169   3.059  0.1209 -0.5413  0.1026
16327SOL     OW53022   8.908   1.959   4.560  0.2129  0.6036 -0.0383
16327SOL    HW153023   8.986   1.938   4.610  0.0912 -0.1888 -0.1740
16327SOL    HW253024   8.848   1.996   4.624 -1.4067 -3.7944  1.3571
16328SOL     OW53025   8.736   8.643   3.015 -0.4831  0.2569 -0.2579
16328SOL    HW153026   8.661   8.655   3.073 -0.7980 -1.7146 -0.1942
16328SOL    HW253027   8.700   8.651   2.927 -0.4357  1.0245 -0.2081
16329SOL     OW53028   1.519   6.511   6.662 -0.2202  0.1693 -0.0236
16329SOL    HW153029   1.528   6.597   6.622 -0.0894 -0.5393 -1.5947
16329SOL    HW253030   1.438   6.517   6.713 -0.9699  0.8096 -1.2506
16330SOL     OW53031   0.001   6.729   4.967  0.1301 -0.4468  0.1455
16330SOL    HW153032  -0.042   6.645   4.985 -1.9131  0.3622 -0.6745
16330SOL    HW253033   0.012   6.730   4.872  1.7864 -0.4988  0.3062
16331SOL     OW53034   7.697   5.124   6.635  0.4563  0.0276 -0.0565
16331SOL    HW153035   7.674   5.037   6.667 -2.0440  1.0961  1.3990
16331SOL    HW253036   7.627   5.145   6.573  2.1694  0.2417 -2.0232
16332SOL     OW53037   3.207   5.485   1.345  0.6417 -0.6615 -0.0689
16332SOL    HW153038   3.190   5.570   1.384 -1.8152 -0.9042 -0.4462
16332SOL    HW253039   3.201   5.500   1.250 -1.6664 -1.5181 -0.1156
16333SOL     OW53040   9.676   0.860   0.023  0.2482 -0.4109  0.0836
16333SOL    HW153041   9.667   0.955   0.011 -0.7445 -0.2973  1.5176
16333SOL    HW253042   9.586   0.827   0.022  0.4893 -1.1345  0.9628
16334SOL     OW53043   3.343   1.619   9.614 -0.6675  0.4190  0.2166
16334SOL    HW153044   3.403   1.620   9.689  0.6434  1.1119 -0.8126
16334SOL    HW253045   3.329   1.526   9.595 -1.5217  0.2146  1.6874
16335SOL     OW53046   5.821   4.859   8.678  0.0319  0.0028 -0.0080
16335SOL    HW153047   5.750   4.852   8.742  1.4952 -0.1979  1.6638
16335SOL    HW253048   5.887   4.914   8.721  1.0042 -0.0095 -1.4177
16336SOL     OW53049   0.924   1.133   9.993 -0.4973 -0.0399  0.3361
16336SOL    HW153050   0.863   1.085  10.048 -3.1334  0.4116 -1.9674
16336SOL    HW253051   0.943   1.213  10.042  2.0138 -2.1164  3.1121
16337SOL     OW53052   2.069   3.327   0.896 -0.2821  0.2553  0.0875
16337SOL    HW153053   2.042   3.415   0.869  0.8548  0.2638 -1.1355
16337SOL    HW253054   1.987   3.279   0.908 -0.9543  0.3681 -3.1159
16338SOL     OW53055   3.561   6.756   2.491  0.9573  0.7392 -0.0257
16338SOL    HW153056   3.592   6.777   2.579  0.4997  1.2143  0.0254
16338SOL    HW253057   3.636   6.774   2.434  1.4043 -0.0138  0.3100
16339SOL     OW53058   9.162   1.429  10.137 -0.3749  0.1958 -0.1713
16339SOL    HW153059   9.190   1.346  10.176 -2.4844 -0.6196 -0.2611
16339SOL    HW253060   9.113   1.473  10.207 -0.0594  0.9423 -0.4146
16340SOL     OW53061   0.674   8.862   9.708  0.1081 -0.1736  0.1759
16340SOL    HW153062   0.607   8.800   9.681  0.1219  0.1984 -0.7427
16340SOL    HW253063   0.629   8.920   9.770 -0.0694 -0.7062  0.5526
16341SOL     OW53064   1.378   9.046   0.237  0.0345 -0.2715  0.0893
16341SOL    HW153065   1.376   9.083   0.325 -0.8746  0.3772 -0.1916
16341SOL    HW253066   1.470   9.055   0.210  0.2624 -0.2167  0.8494
16342SOL     OW53067   3.611   6.181   8.520 -1.0275 -0.2196  0.1706
16342SOL    HW153068   3.651   6.216   8.600 -0.9849 -1.8952  0.9466
16342SOL    HW253069   3.682   6.134   8.477 -0.4475  2.4931 -2.1140
16343SOL     OW53070   8.486   1.832   3.494  0.5008  0.4019  0.2909
16343SOL    HW153071   8.484   1.802   3.585 -0.9100  1.2833  0.5705
16343SOL    HW253072   8.554   1.779   3.453  1.9753  0.7619  2.1288
16344SOL     OW53073   4.889   2.317   8.430 -0.1295 -0.2286  0.1115
16344SOL    HW153074   4.844   2.280   8.506 -0.0109 -2.4389 -0.8399
16344SOL    HW253075   4.853   2.271   8.355 -0.9375  2.5773 -1.3549
16345SOL     OW53076   1.676   6.563   0.670 -0.1243  0.6005 -0.0126
16345SOL    HW153077   1.655   6.656   0.677 -0.2919  0.5962 -0.4639
16345SOL    HW253078   1.712   6.553   0.582 -0.3871  0.1804 -0.0738
16346SOL     OW53079   4.559   2.594   8.959  0.2336 -0.0372  0.4823
16346SOL    HW153080   4.503   2.549   9.022  1.9670 -0.8382  1.5404
16346SOL    HW253081   4.628   2.633   9.012  0.9452  0.5035 -0.8055
16347SOL     OW53082   5.896   7.133   8.530  0.2620  0.0398  0.2659
16347SOL    HW153083   5.887   7.119   8.435  1.6575 -1.2814  0.2883
16347SOL    HW253084   5.979   7.091   8.552 -0.0571  0.3100  2.1001
16348SOL     OW53085   0.254   7.688   1.914  0.0200 -0.2082 -0.3546
16348SOL    HW153086   0.308   7.616   1.945 -2.1309 -2.5481 -1.7262
16348SOL    HW253087   0.291   7.712   1.829  0.7278  0.3203  0.0963
16349SOL     OW53088   9.413   4.673   5.702  0.4793  0.2107  0.3687
16349SOL    HW153089   9.479   4.669   5.632 -0.8128 -0.4179 -0.8732
16349SOL    HW253090   9.366   4.589   5.695 -0.3385  0.5748  1.3286
16350SOL     OW53091   3.991   7.688   9.626  0.4735  0.0640 -0.0293
16350SOL    HW153092   3.926   7.639   9.677 -0.2865 -1.5442 -2.3366
16350SOL    HW253093   3.939   7.745   9.570  0.8101 -2.0549 -2.7282
16351SOL     OW53094   7.954   6.513   7.340 -0.1556 -0.1948  0.5509
16351SOL    HW153095   8.007   6.519   7.419  0.8960  0.0952 -0.1548
16351SOL    HW253096   7.876   6.565   7.360  0.4000  0.4238  1.1639
16352SOL     OW53097   2.745   4.066   4.030  0.2524  0.1768  0.1246
16352SOL    HW153098   2.807   4.121   3.982 -1.2992  1.3846 -0.5798
16352SOL    HW253099   2.718   4.120   4.105  0.6432 -0.6628  0.8953
16353SOL     OW53100   9.629   9.307   0.099  0.0256 -0.2267 -0.5785
16353SOL    HW153101   9.549   9.293   0.048 -1.1892  1.1160  0.8457
16353SOL    HW253102   9.605   9.375   0.162  2.3911  0.3951 -0.2777
16354SOL     OW53103   9.153   4.458   0.921  0.8116 -0.6917  0.0268
16354SOL    HW153104   9.116   4.437   1.007  0.0655  1.8079  0.3889
16354SOL    HW253105   9.099   4.409   0.859 -1.6311  0.9231  0.7261
16355SOL     OW53106   0.032   9.056   5.460 -0.4576 -0.6540  0.3065
16355SOL    HW153107   0.095   9.119   5.496 -1.8099  0.8744  0.1160
16355SOL    HW253108   0.012   9.090   5.373 -1.1588 -1.4037  0.1597
16356SOL     OW53109   8.391   8.073   7.681  0.0589 -0.2028 -0.1081
16356SOL    HW153110   8.406   8.164   7.706 -0.7755 -0.0980  0.0472
16356SOL    HW253111   8.315   8.076   7.623 -0.3637 -0.8611  0.3897
16357SOL     OW53112   4.146   6.485   8.989 -0.6305 -0.3582  0.0513
16357SOL    HW153113   4.088   6.533   9.049  0.2186 -0.1972  0.7699
16357SOL    HW253114   4.142   6.394   9.019 -0.1910 -0.2747  0.3672
16358SOL     OW53115   7.116   5.289   9.715  0.2319 -0.4675 -0.1126
16358SOL    HW153116   7.089   5.197   9.717 -0.3237 -0.3086 -0.1700
16358SOL    HW253117   7.140   5.308   9.806  0.9518 -0.8372 -0.2144
16359SOL     OW53118   4.474   6.411   2.207  0.5872  0.3822  0.5601
16359SOL    HW153119   4.438   6.498   2.223  0.2541  0.4842 -0.6461
16359SOL    HW253120   4.545   6.425   2.144 -1.5902 -0.5280 -2.2856
16360SOL     OW53121   5.515   1.029   0.608  0.2990  0.1444  0.0347
16360SOL    HW153122   5.504   1.081   0.686  1.7404  1.0276 -0.3080
16360SOL    HW253123   5.431   0.985   0.595 -1.7018  3.7774 -0.7063
16361SOL     OW53124   8.613   9.168   3.914  0.2993 -0.1773  0.0736
16361SOL    HW153125   8.626   9.251   3.869  0.2312 -0.9053 -1.3498
16361SOL    HW253126   8.529   9.178   3.960  0.7010  0.8158  0.5989
16362SOL     OW53127   1.856   3.452   1.849  0.1483  0.3139  0.0222
16362SOL    HW153128   1.926   3.491   1.797  0.5545 -0.5948 -0.1304
16362SOL    HW253129   1.899   3.383   1.900 -0.2461  1.1569  1.5533
16363SOL     OW53130   7.309   9.789   8.568  0.1285  0.1952 -0.0886
16363SOL    HW153131   7.380   9.831   8.616  0.6170 -0.4350 -0.2405
16363SOL    HW253132   7.232   9.844   8.584  0.6541  0.8981  0.0602
16364SOL     OW53133   5.800   4.230   4.103 -0.5789 -0.2573 -0.1890
16364SOL    HW153134   5.719   4.234   4.154 -0.0158 -0.3209  0.7356
16364SOL    HW253135   5.797   4.144   4.061 -1.1110 -0.1524 -0.3799
16365SOL     OW53136   7.994   0.037   3.883  0.0487  0.5190  0.7892
16365SOL    HW153137   8.038  -0.047   3.894  1.6018  1.1209 -0.5651
16365SOL    HW253138   7.907   0.015   3.849  0.6264 -0.5173 -0.0444
16366SOL     OW53139   2.099   3.975   6.160 -0.1015 -0.1662 -0.4719
16366SOL    HW153140   2.021   4.025   6.184 -0.1346 -0.2173 -0.4735
16366SOL    HW253141   2.149   3.968   6.241 -0.0868 -0.1121 -0.4765
16367SOL     OW53142   3.509   0.693   6.856 -0.0186  0.0263 -0.3063
16367SOL    HW153143   3.491   0.628   6.788 -0.7546  1.7240 -1.8201
16367SOL    HW253144   3.430   0.747   6.859  0.6184  0.9485  0.7754
16368SOL     OW53145   9.053   4.700   6.958  0.1183  0.3283 -0.2735
16368SOL    HW153146   9.131   4.755   6.953  0.7865 -0.6497 -1.3231
16368SOL    HW253147   9.026   4.688   6.866  1.6467 -3.2335 -0.4584
16369SOL     OW53148   7.639   7.187   1.323  0.1646  0.4546 -0.6975
16369SOL    HW153149   7.675   7.158   1.407  0.2714  0.1247 -0.8585
16369SOL    HW253150   7.712   7.182   1.262 -0.3326 -0.9746 -1.2079
16370SOL     OW53151   2.591   7.884   1.447  0.5917 -0.0504  0.5421
16370SOL    HW153152   2.621   7.870   1.357 -0.4755  2.5527 -0.2973
16370SOL    HW253153   2.573   7.795   1.480  2.3358 -1.1644 -1.2952
16371SOL     OW53154   5.005   8.406   0.636 -0.0251  0.1687 -0.6066
16371SOL    HW153155   5.007   8.378   0.545  0.9577 -1.0917 -0.2345
16371SOL    HW253156   4.982   8.499   0.633  0.7432  0.3299 -2.1811
16372SOL     OW53157   4.600   9.279  10.003  0.1714 -0.4061 -0.1951
16372SOL    HW153158   4.649   9.209   9.960  0.0349 -0.8741  0.4050
16372SOL    HW253159   4.557   9.325   9.931 -0.5961 -1.6029 -0.5273
16373SOL     OW53160   4.193   9.236  10.199 -0.1936  0.0291  0.1026
16373SOL    HW153161   4.178   9.316  10.250  1.4295 -0.0120  0.7074
16373SOL    HW253162   4.232   9.175  10.262 -0.0352 -0.7280 -0.7148
16374SOL     OW53163   3.640   5.329   6.037  0.5422  0.0836  0.3763
16374SOL    HW153164   3.550   5.299   6.048  0.2699  0.5321 -0.4941
16374SOL    HW253165   3.664   5.365   6.122  0.3058 -1.0714  0.9558
16375SOL     OW53166   3.657   3.335   6.907  0.1285 -0.3308  0.4246
16375SOL    HW153167   3.670   3.240   6.898 -1.4472 -0.5840  0.5274
16375SOL    HW253168   3.716   3.360   6.977  1.7641 -0.9282 -0.6600
16376SOL     OW53169   1.282   2.695   9.812  0.0108  0.0943  0.0323
16376SOL    HW153170   1.193   2.664   9.829  0.3853 -1.1457 -0.1675
16376SOL    HW253171   1.271   2.767   9.750 -0.8824  0.2926  0.4041
16377SOL     OW53172   4.495   4.816   1.553 -0.3339  0.0797  0.3109
16377SOL    HW153173   4.419   4.759   1.563 -1.6091  2.0576  3.6952
16377SOL    HW253174   4.461   4.894   1.510 -0.3643  0.9961  1.8884
16378SOL     OW53175   3.890   1.029   6.767  0.0618  0.5325 -0.1764
16378SOL    HW153176   3.855   1.118   6.773 -0.3972  0.4381 -1.2236
16378SOL    HW253177   3.817   0.973   6.790  0.7478  0.4294  1.9811
16379SOL     OW53178   9.518   7.547   9.912 -0.0537 -0.1693 -0.0902
16379SOL    HW153179   9.598   7.590   9.941 -0.3073 -1.3778  2.7279
16379SOL    HW253180   9.465   7.537   9.991 -2.5887 -0.3386 -1.6633
16380SOL     OW53181   3.314   2.854   3.137  0.0179 -0.0966  0.0798
16380SOL    HW153182   3.237   2.910   3.148  0.4578  0.7042 -0.7350
16380SOL    HW253183   3.357   2.888   3.059  1.7426  0.1358  1.0682
16381SOL     OW53184   4.666   2.469   8.758 -0.1873  0.3792  0.2561
16381SOL    HW153185   4.628   2.383   8.741 -0.0713  0.2869  0.4624
16381SOL    HW253186   4.625   2.499   8.839 -1.7901  1.4372 -0.8997
16382SOL     OW53187   0.711   2.835   5.615 -0.3790 -0.4494 -0.0157
16382SOL    HW153188   0.691   2.891   5.690  0.2733 -1.2655  0.7893
16382SOL    HW253189   0.626   2.803   5.585 -0.6251 -0.2760  0.4941
16383SOL     OW53190  10.222   8.923   8.342 -0.6398  0.2155  0.4767
16383SOL    HW153191  10.208   8.990   8.409  1.2789 -1.8041  3.0888
16383SOL    HW253192  10.241   8.843   8.391 -1.0041 -1.8811 -2.5071
16384SOL     OW53193   1.525   8.522   3.361 -0.4312  0.2782  0.3154
16384SOL    HW153194   1.594   8.557   3.417  0.2972 -2.0157  0.9507
16384SOL    HW253195   1.448   8.573   3.384  0.6029  1.6231  0.9645
16385SOL     OW53196   3.055   1.509   2.991 -0.6400 -0.0265 -0.3777
16385SOL    HW153197   3.132   1.452   2.985 -1.0119 -0.4620 -1.1672
16385SOL    HW253198   2.987   1.453   3.029 -1.3588 -0.5193 -2.2795
16386SOL     OW53199   0.873   5.970   0.076 -0.3241  0.4423 -0.0054
16386SOL    HW153200   0.870   6.065   0.080 -0.9413  0.3996  2.3077
16386SOL    HW253201   0.888   5.943   0.167 -1.0201 -1.6800 -0.4638
16387SOL     OW53202   8.549   3.727   5.065  0.4374 -0.0566 -0.0286
16387SOL    HW153203   8.613   3.670   5.025  1.0649  0.0911  0.7425
16387SOL    HW253204   8.548   3.702   5.158  1.0790  1.4749  0.4311
16388SOL     OW53205   1.894   7.313   9.635  0.3139  0.2111  0.5469
16388SOL    HW153206   1.949   7.352   9.567 -0.2424  0.7631  0.4170
16388SOL    HW253207   1.916   7.362   9.715 -0.1861  0.6210  0.4384
16389SOL     OW53208   9.715   2.566   4.003 -0.1236 -0.7104  0.1127
16389SOL    HW153209   9.681   2.512   4.075 -2.9228  0.2497 -0.3517
16389SOL    HW253210   9.753   2.642   4.047  0.3443 -1.2438  0.6430
16390SOL     OW53211   6.669  10.161   7.425 -0.3035  0.9506  0.2841
16390SOL    HW153212   6.741  10.127   7.477  2.2511  2.9158 -1.6946
16390SOL    HW253213   6.620  10.084   7.397  0.6811 -0.4157  2.1315
16391SOL     OW53214   6.779   3.806   3.062 -0.3430 -0.4527  0.0001
16391SOL    HW153215   6.755   3.713   3.063  0.3544 -0.6671  1.9691
16391SOL    HW253216   6.803   3.825   3.153  0.8535  1.3192 -0.6374
16392SOL     OW53217   0.367   2.294   2.660 -0.4207 -0.1495  0.1982
16392SOL    HW153218   0.352   2.258   2.572 -0.2028 -0.8306  0.4391
16392SOL    HW253219   0.281   2.292   2.701 -0.4517 -0.1732  0.1325
16393SOL     OW53220   6.546   9.061  10.280  0.0235  0.2142 -0.1779
16393SOL    HW153221   6.609   9.130  10.260 -1.9337  1.8535 -1.1368
16393SOL    HW253222   6.508   9.086  10.364  0.8462 -0.9642  0.5804
16394SOL     OW53223   4.989   5.653   2.719 -0.1505  0.2398 -0.1350
16394SOL    HW153224   4.992   5.745   2.693  0.0950  0.2652 -0.0170
16394SOL    HW253225   5.076   5.619   2.698 -0.5507 -0.2191 -1.1087
16395SOL     OW53226   1.049   3.578   5.489 -0.7139 -0.4380  0.5037
16395SOL    HW153227   1.135   3.536   5.487 -0.7207 -0.4442 -1.0515
16395SOL    HW253228   0.999   3.534   5.420 -1.1062  1.2962 -0.3874
16396SOL     OW53229   1.319   7.095   0.450 -0.3131 -1.3290  0.5582
16396SOL    HW153230   1.247   7.091   0.513 -0.3691 -2.3571  0.4475
16396SOL    HW253231   1.372   7.169   0.479 -1.7257 -0.1745  0.2739
16397SOL     OW53232   9.011   8.034   5.895  0.7815 -0.1355  0.1070
16397SOL    HW153233   9.097   8.033   5.937  1.6732  3.2048 -1.2851
16397SOL    HW253234   8.991   8.127   5.885 -2.5369 -0.8042 -0.6289
16398SOL     OW53235   8.994   2.542   3.601 -0.0117  0.2367  0.2218
16398SOL    HW153236   8.990   2.524   3.507  0.7948  0.8752  0.0566
16398SOL    HW253237   8.902   2.543   3.629 -0.2576  0.0195 -0.5507
16399SOL     OW53238   3.328   7.266   5.286 -0.2407  0.4123 -0.0760
16399SOL    HW153239   3.319   7.231   5.197 -1.2368  0.3138  0.0430
16399SOL    HW253240   3.310   7.190   5.342 -2.0772  1.0030  0.1883
16400SOL     OW53241   7.138   5.300   9.064  0.7538 -0.2606  0.1825
16400SOL    HW153242   7.182   5.257   9.138 -0.6638 -1.6666  0.2570
16400SOL    HW253243   7.162   5.248   8.988 -0.6808 -1.0230  0.2183
16401SOL     OW53244   1.145   3.321   1.190 -0.3445 -0.9862 -0.2224
16401SOL    HW153245   1.051   3.322   1.209  0.1396 -1.4719  2.6534
16401SOL    HW253246   1.169   3.413   1.185 -1.0509 -0.8578 -1.5551
16402SOL     OW53247   8.706   5.609  10.044  0.4214  0.3348 -0.1138
16402SOL    HW153248   8.752   5.663   9.980  0.3468  0.9987  0.3796
16402SOL    HW253249   8.759   5.529  10.051  1.7708  1.2695  0.7624
16403SOL     OW53250   8.210   0.816   0.928 -0.0308  0.3728 -0.0489
16403SOL    HW153251   8.151   0.875   0.975  2.4150  0.6727  2.9587
16403SOL    HW253252   8.264   0.874   0.874  0.1440  0.5490  0.3110
16404SOL     OW53253   9.021   8.441   2.064 -0.5371 -0.0465  0.3741
16404SOL    HW153254   9.053   8.474   1.980 -0.0299  1.8168  1.2289
16404SOL    HW253255   8.937   8.486   2.077  0.9444  2.4633  2.3345
16405SOL     OW53256   3.282   6.568   2.547 -0.0479  0.2552 -0.1679
16405SOL    HW153257   3.348   6.581   2.479  0.6013 -0.1408  0.3741
16405SOL    HW253258   3.232   6.492   2.518  1.8137 -1.5242  0.9546
16406SOL     OW53259   3.673   4.676   6.527  0.9226  0.2614  0.3009
16406SOL    HW153260   3.626   4.613   6.472  2.0722 -2.0744  1.7989
16406SOL    HW253261   3.732   4.622   6.579  1.9727  2.6361  1.7376
16407SOL     OW53262   9.881   6.760   4.916 -0.1230 -0.1550 -0.0881
16407SOL    HW153263   9.869   6.726   5.005  1.3371 -0.6149 -0.0319
16407SOL    HW253264   9.801   6.736   4.870 -0.1466 -1.5621  0.6231
16408SOL     OW53265   8.971   0.635   5.246 -0.3350 -0.2169  0.1477
16408SOL    HW153266   8.999   0.556   5.292 -0.6488 -0.1960  0.3708
16408SOL    HW253267   8.906   0.604   5.183 -0.6931 -0.0929  0.4535
16409SOL     OW53268   9.844   8.909   1.670 -0.3451  0.8729  0.2337
16409SOL    HW153269   9.903   8.965   1.721 -1.2020  1.1537  0.9423
16409SOL    HW253270   9.770   8.892   1.729  0.0170 -1.2748  0.1535
16410SOL     OW53271   8.648   0.614   9.058  0.2084  0.0822  0.3199
16410SOL    HW153272   8.674   0.631   9.149  0.6469  1.1113  0.0131
16410SOL    HW253273   8.622   0.700   9.024  2.2507  0.1630 -1.2157
16411SOL     OW53274   8.833   1.196   3.476  0.2101 -0.0559 -0.0216
16411SOL    HW153275   8.837   1.142   3.555 -0.4499  0.3655  0.3108
16411SOL    HW253276   8.875   1.278   3.500 -1.0868  0.5476  0.3120
16412SOL     OW53277   8.001   9.270   8.913 -0.2930  0.1448  0.0558
16412SOL    HW153278   7.928   9.229   8.959 -0.4666  0.7084  0.2890
16412SOL    HW253279   8.031   9.203   8.851  0.0922 -0.6994  1.1307
16413SOL     OW53280   3.336   3.436   3.947  0.1272  0.5426 -0.5015
16413SOL    HW153281   3.396   3.497   3.905  0.2933 -0.5977 -2.0233
16413SOL    HW253282   3.374   3.350   3.930 -0.9247 -0.0890  0.2037
16414SOL     OW53283   7.718   7.092   8.248 -0.2712 -0.1659 -0.3625
16414SOL    HW153284   7.728   7.047   8.331  0.2534 -0.5802 -0.6411
16414SOL    HW253285   7.624   7.111   8.241 -0.5064 -1.2300 -0.2413
16415SOL     OW53286   3.884   7.832   6.415 -0.0820  0.4737  0.0139
16415SOL    HW153287   3.863   7.924   6.402 -1.2035  0.7936  3.1281
16415SOL    HW253288   3.904   7.825   6.508 -0.4344 -2.4864 -0.0226
16416SOL     OW53289   3.708   2.155   0.385  0.5644  0.2494 -0.4206
16416SOL    HW153290   3.707   2.079   0.444 -1.1607  0.1914 -0.4988
16416SOL    HW253291   3.727   2.229   0.442  0.0469  0.0443  0.0252
16417SOL     OW53292   4.028   5.431   1.750 -0.3400 -0.1844  0.3723
16417SOL    HW153293   3.983   5.514   1.767  1.5188  1.0103 -0.2517
16417SOL    HW253294   4.107   5.436   1.804  0.0417 -1.3465 -0.0545
16418SOL     OW53295   2.904   7.927   1.220 -0.4885  0.3263 -0.5082
16418SOL    HW153296   2.962   7.885   1.157  1.7499 -0.5004  1.8852
16418SOL    HW253297   2.819   7.884   1.209  0.3519 -1.1000 -1.6604
16419SOL     OW53298   6.383   4.353   0.720  0.0685 -0.0520 -0.4928
16419SOL    HW153299   6.322   4.424   0.698 -0.5642 -0.4669 -0.1154
16419SOL    HW253300   6.450   4.396   0.773  0.7877  0.6534 -1.9114
16420SOL     OW53301   4.080   3.313   8.944 -0.0537 -0.2854 -0.4510
16420SOL    HW153302   4.132   3.259   8.885  1.3412  0.2435  0.2458
16420SOL    HW253303   4.087   3.402   8.908  1.7331  0.2485  1.0229
16421SOL     OW53304   0.084   8.155   8.970 -0.6328  0.0404  0.5187
16421SOL    HW153305   0.016   8.178   8.907 -1.6540 -1.2953  1.0961
16421SOL    HW253306   0.079   8.223   9.037 -0.4130  0.7426 -0.1582
16422SOL     OW53307   7.515   4.411   1.254  0.6196 -0.2439 -0.3391
16422SOL    HW153308   7.452   4.375   1.316  2.5421 -1.2584  1.1134
16422SOL    HW253309   7.589   4.351   1.256  2.5746  2.0098 -0.3553
16423SOL     OW53310   6.754   6.944   9.166  0.2737  0.4030 -0.1858
16423SOL    HW153311   6.726   7.027   9.128 -1.4944  0.0712  0.3147
16423SOL    HW253312   6.827   6.915   9.110 -0.1056  1.5309 -1.2913
16424SOL     OW53313   8.765   9.977   3.966  0.1758 -0.7950  0.4029
16424SOL    HW153314   8.670   9.972   3.962  0.1749 -1.5048  1.2699
16424SOL    HW253315   8.789  10.028   3.888 -0.8407 -1.4276 -0.3523
16425SOL     OW53316   5.751   9.829   4.239 -0.5943 -0.3255  0.3484
16425SOL    HW153317   5.802   9.749   4.238 -0.4727 -0.2466 -0.0316
16425SOL    HW253318   5.759   9.864   4.150 -1.7079 -0.5689  0.1408
16426SOL     OW53319   7.716   5.607   9.240 -0.1664  0.4005 -0.6028
16426SOL    HW153320   7.707   5.541   9.172  1.6058  0.3307 -0.8063
16426SOL    HW253321   7.625   5.627   9.266 -0.7807 -2.0817 -0.5345
16427SOL     OW53322   6.040   4.277   9.289  0.2579 -0.4795 -0.1903
16427SOL    HW153323   6.032   4.335   9.365 -1.0942  0.2342 -0.8563
16427SOL    HW253324   5.988   4.200   9.312  2.3463 -1.6728  0.8463
16428SOL     OW53325   4.582   5.442   4.381  0.0581 -0.0676  0.3659
16428SOL    HW153326   4.639   5.395   4.321 -1.3351 -0.9964 -0.2660
16428SOL    HW253327   4.621   5.529   4.388 -0.0754  0.2972 -2.4115
16429SOL     OW53328   5.201   1.071   5.414 -0.2517  0.6333  0.9564
16429SOL    HW153329   5.249   1.123   5.350  0.0784  1.1222  1.5814
16429SOL    HW253330   5.269   1.036   5.472 -0.6950  2.3846  2.6312
16430SOL     OW53331   6.289   2.697   2.467  0.4006 -0.7731 -0.0066
16430SOL    HW153332   6.329   2.747   2.396  0.4489 -0.5421  0.1824
16430SOL    HW253333   6.335   2.726   2.546  1.7295 -2.4467 -0.1011
16431SOL     OW53334   8.261   5.043   0.137 -0.0237  0.2555  0.2120
16431SOL    HW153335   8.273   5.138   0.142 -0.2347  0.2656  0.5897
16431SOL    HW253336   8.257   5.015   0.229 -0.3489 -0.0661  0.1016
16432SOL     OW53337   3.560   5.257   0.737  0.6268 -0.2929  0.2668
16432SOL    HW153338   3.509   5.239   0.816 -0.0375 -1.1334 -0.3367
16432SOL    HW253339   3.628   5.318   0.766 -0.5633  0.6692  1.1483
16433SOL     OW53340   1.013   9.594   7.647 -0.5688 -0.0933 -0.5634
16433SOL    HW153341   1.060   9.540   7.711 -0.2459 -0.5154 -1.1484
16433SOL    HW253342   1.081   9.642   7.601 -0.5367 -1.8150 -2.4322
16434SOL     OW53343   8.015   2.706   2.413 -0.0001 -0.1484  0.0426
16434SOL    HW153344   8.029   2.776   2.349  0.2777 -1.3021 -1.1811
16434SOL    HW253345   8.099   2.699   2.459 -0.2949  0.8870  0.7906
16435SOL     OW53346  10.265   3.194   9.100 -0.0074 -0.4230 -0.2204
16435SOL    HW153347  10.254   3.212   9.006 -0.4135  1.7262  0.1790
16435SOL    HW253348  10.187   3.233   9.140  0.1680 -1.3167  1.0124
16436SOL     OW53349   0.485   3.124   7.820 -0.2996  0.3647 -0.1483
16436SOL    HW153350   0.468   3.034   7.791  0.9618 -0.1982  0.7605
16436SOL    HW253351   0.407   3.149   7.868 -0.0853 -0.8306  0.8954
16437SOL     OW53352   8.035   5.501  10.124 -0.6896 -0.1967 -0.2103
16437SOL    HW153353   8.104   5.491  10.189 -1.0536 -0.1442  0.1815
16437SOL    HW253354   8.065   5.575  10.070  2.2323 -3.2971 -3.4159
16438SOL     OW53355   3.273   0.207   3.395 -0.4918 -0.0413 -0.2299
16438SOL    HW153356   3.195   0.184   3.344  0.7513 -0.3806 -2.0899
16438SOL    HW253357   3.310   0.122   3.420 -0.9877  0.1225  1.1468
16439SOL     OW53358   7.984   7.903   8.781  0.0159 -0.1435 -0.0305
16439SOL    HW153359   7.983   7.949   8.697  1.9792 -1.3191 -0.7935
16439SOL    HW253360   8.006   7.970   8.845 -0.8172  0.6397 -0.5401
16440SOL     OW53361   3.568   5.679   6.561  0.3370 -0.9916  0.1513
16440SOL    HW153362   3.500   5.714   6.620  0.3132  0.5933 -0.7520
16440SOL    HW253363   3.518   5.634   6.493  0.1216  0.3479 -0.6251
16441SOL     OW53364   6.850  10.237   0.790  0.0039  0.2031 -0.1122
16441SOL    HW153365   6.897  10.162   0.826  2.2284  1.2285 -0.6876
16441SOL    HW253366   6.764  10.233   0.830  1.0270 -0.9882  2.1370
16442SOL     OW53367   0.593   3.293   0.625  0.3720  0.3711  0.6328
16442SOL    HW153368   0.645   3.359   0.580 -0.6290  0.6223 -0.1788
16442SOL    HW253369   0.635   3.210   0.603  1.3451  0.6763  1.2618
16443SOL     OW53370   6.118   7.751   8.694 -0.2266 -0.6497  0.2254
16443SOL    HW153371   6.178   7.707   8.634 -0.9897 -0.3615 -0.7842
16443SOL    HW253372   6.067   7.680   8.734 -1.5244 -0.7449 -1.4700
16444SOL     OW53373   8.961   6.782   9.227 -0.6115  0.0232 -0.1397
16444SOL    HW153374   8.965   6.755   9.319 -0.8576 -1.0129 -0.4195
16444SOL    HW253375   9.040   6.834   9.213 -0.7082  0.4117  0.7249
16445SOL     OW53376   3.327   4.122   1.997  0.4417 -0.0072  0.0702
16445SOL    HW153377   3.290   4.209   1.982 -2.0728 -0.8958  0.6180
16445SOL    HW253378   3.344   4.118   2.091 -1.3142 -0.7028  0.4061
16446SOL     OW53379   5.184   2.028   5.044  0.5134  0.2629  0.1951
16446SOL    HW153380   5.205   2.002   5.134  0.5144 -0.6477 -0.0638
16446SOL    HW253381   5.098   2.068   5.050  0.1428 -0.5555  0.4786
16447SOL     OW53382   2.589   1.266   4.870  0.1380  0.3569 -0.0618
16447SOL    HW153383   2.614   1.275   4.777  0.3331  1.0518  0.0483
16447SOL    HW253384   2.616   1.178   4.893  0.3930  0.2909 -0.5837
16448SOL     OW53385   8.909   0.194   2.872  0.3197  0.4017  0.4665
16448SOL    HW153386   8.833   0.249   2.853  1.4107  1.9954  0.4665
16448SOL    HW253387   8.945   0.231   2.953  1.4755  0.1304  0.0936
16449SOL     OW53388   4.564   9.640   6.042  0.1274  0.3625  0.1428
16449SOL    HW153389   4.575   9.547   6.021  1.8331 -0.3516  3.5182
16449SOL    HW253390   4.653   9.675   6.043 -0.3830  1.7213  0.2776
16450SOL     OW53391   8.266   4.645  10.148 -0.0936  0.0289 -0.3064
16450SOL    HW153392   8.344   4.678  10.103 -0.1504  1.7041  0.7319
16450SOL    HW253393   8.273   4.679  10.237 -1.8755  0.0035 -0.1162
16451SOL     OW53394   8.626   2.087   0.039 -0.2473  0.1559 -0.6109
16451SOL    HW153395   8.681   2.091  -0.040  0.6287  0.7303  0.0162
16451SOL    HW253396   8.688   2.079   0.111 -0.8955  1.9564  0.2178
16452SOL     OW53397   8.167   4.958  10.106  0.0059 -0.2643  0.1290
16452SOL    HW153398   8.131   4.879  10.064  0.0682 -0.9399  1.2893
16452SOL    HW253399   8.188   4.929  10.195 -0.0585  1.0982  0.5988
16453SOL     OW53400   7.534   7.118   7.906 -0.0241 -0.1675  0.2919
16453SOL    HW153401   7.480   7.119   7.827 -0.5207  1.4549  0.6064
16453SOL    HW253402   7.498   7.047   7.959  0.0252 -0.9755 -0.7207
16454SOL     OW53403   6.119   4.460   3.310  0.2541 -0.0641  0.6314
16454SOL    HW153404   6.181   4.533   3.298  1.1682 -0.9294 -0.1221
16454SOL    HW253405   6.033   4.502   3.311  0.7038  0.9609 -0.6045
16455SOL     OW53406   4.048   0.107   6.726  0.0319  0.8532  0.9633
16455SOL    HW153407   4.130   0.074   6.688 -0.2513  2.7258 -1.5008
16455SOL    HW253408   3.981   0.050   6.690  0.0652  0.5027  1.4486
16456SOL     OW53409   8.067  10.115   1.076  0.2827 -0.5611 -0.0686
16456SOL    HW153410   8.047  10.197   1.119 -0.2053 -0.4861 -0.4338
16456SOL    HW253411   8.160  10.101   1.093  0.1474 -0.4318  0.8255
16457SOL     OW53412  10.263   3.131   8.007  0.3952  0.3146 -0.2887
16457SOL    HW153413  10.311   3.052   7.982  0.7768  0.1013  1.0313
16457SOL    HW253414  10.280   3.193   7.936  1.1957 -0.3378 -0.6848
16458SOL     OW53415   3.609   0.382   6.249 -0.3474  0.0174  0.0104
16458SOL    HW153416   3.631   0.464   6.294 -0.0692  0.3271 -0.6798
16458SOL    HW253417   3.624   0.314   6.315  1.5529  0.3225 -0.0601
16459SOL     OW53418   8.731   0.035   9.350 -1.2562 -0.3134 -0.4155
16459SOL    HW153419   8.669  -0.008   9.291 -0.4737 -2.2795  0.0994
16459SOL    HW253420   8.682   0.049   9.431 -2.0611  1.5553 -1.1648
16460SOL     OW53421   0.622   5.652   1.101  0.2754 -0.7360 -0.4298
16460SOL    HW153422   0.553   5.711   1.131  0.6920  0.0488 -0.9741
16460SOL    HW253423   0.625   5.583   1.167  0.1705  0.1545  0.5344
16461SOL     OW53424   7.511   5.353   0.798  0.2488  0.1043  0.1876
16461SOL    HW153425   7.478   5.408   0.868  1.9973  0.9597  0.3825
16461SOL    HW253426   7.553   5.279   0.842  1.4963  0.7272  0.0781
16462SOL     OW53427   0.169   3.845   5.293  0.0097 -0.2504 -0.6494
16462SOL    HW153428   0.246   3.884   5.332  1.7489 -1.7611 -2.3603
16462SOL    HW253429   0.183   3.750   5.302 -1.5165 -0.5648 -1.2359
16463SOL     OW53430   8.793   2.396   5.895 -0.7149 -0.1319 -0.3362
16463SOL    HW153431   8.758   2.307   5.902 -1.8896  0.3566  0.3791
16463SOL    HW253432   8.792   2.430   5.985  0.2077  0.4290 -0.5269
16464SOL     OW53433  10.191   0.201   7.343  0.5415 -0.3544 -0.7095
16464SOL    HW153434  10.251   0.189   7.417 -1.2903 -0.2864  0.8662
16464SOL    HW253435  10.158   0.113   7.325 -0.4333 -0.1166 -0.1580
16465SOL     OW53436   0.175   9.042   3.032 -0.0010  0.9091  0.1651
16465SOL    HW153437   0.126   9.041   2.951 -0.7714 -0.4950  0.6270
16465SOL    HW253438   0.151   8.961   3.077 -0.9240  2.4136  2.5843
16466SOL     OW53439   8.584   1.127   0.067  0.2220  0.6289  0.0471
16466SOL    HW153440   8.531   1.056   0.031 -0.4885  0.0783  2.0556
16466SOL    HW253441   8.649   1.083   0.121  0.9478  1.4480 -0.1379
16467SOL     OW53442   9.676   3.266   8.924 -0.0090  0.0961  0.3071
16467SOL    HW153443   9.610   3.258   8.854  0.9837  2.0749 -0.9644
16467SOL    HW253444   9.756   3.230   8.886  0.2124 -0.1035  0.9511
16468SOL     OW53445   9.099   3.246   0.462 -0.4141  0.0475  0.7264
16468SOL    HW153446   9.071   3.187   0.392  0.0931 -1.6288  1.8893
16468SOL    HW253447   9.080   3.199   0.543  2.0790  0.4879  1.6653
16469SOL     OW53448  10.134   9.984   6.008 -0.6927 -0.7256  0.0714
16469SOL    HW153449  10.209  10.001   6.064 -0.5038  0.4551 -0.5066
16469SOL    HW253450  10.134   9.889   5.996 -0.2843 -0.9241  1.4144
16470SOL     OW53451   7.985   1.282   7.823 -0.4607 -0.8083  0.3145
16470SOL    HW153452   7.901   1.237   7.827 -0.9050 -0.0142  0.0882
16470SOL    HW253453   7.980   1.350   7.890 -0.2478 -0.3571 -0.1183
16471SOL     OW53454   9.303   8.079   0.737  0.2579  0.1475  0.5743
16471SOL    HW153455   9.386   8.039   0.711 -1.0635 -2.3460 -0.1070
16471SOL    HW253456   9.313   8.095   0.831  1.9297  1.1382  0.2772
16472SOL     OW53457   8.083   3.514   9.578 -0.5472  0.2825 -0.0379
16472SOL    HW153458   8.017   3.494   9.644  0.6665  0.5754  1.3235
16472SOL    HW253459   8.054   3.597   9.539 -1.4499 -0.0656 -0.1254
16473SOL     OW53460   9.301   1.916   2.762 -0.3660  0.0897  0.3839
16473SOL    HW153461   9.242   1.987   2.787 -0.0298  1.3081 -2.0446
16473SOL    HW253462   9.244   1.849   2.724 -0.2541  1.3570 -2.1600
16474SOL     OW53463   4.569   8.357   9.499  0.1534 -0.0468 -0.2679
16474SOL    HW153464   4.484   8.361   9.543 -0.5440 -1.2497 -1.4167
16474SOL    HW253465   4.604   8.446   9.506 -0.0687 -0.0904  2.3336
16475SOL     OW53466   5.945   0.228   6.003  0.3411 -0.1706 -0.4832
16475SOL    HW153467   5.972   0.136   6.008 -0.9961 -0.5265  1.0272
16475SOL    HW253468   5.850   0.225   5.992  0.4515  1.0560 -2.1086
16476SOL     OW53469   0.667   5.869   4.283 -0.3847 -0.3753  0.0646
16476SOL    HW153470   0.589   5.851   4.335 -0.6306  1.9349  0.5810
16476SOL    HW253471   0.634   5.911   4.204  0.3319  0.6895  0.3198
16477SOL     OW53472   9.811   9.588   3.102 -0.2969 -0.1451 -0.0865
16477SOL    HW153473   9.843   9.545   3.022 -1.5262 -0.9188 -0.1843
16477SOL    HW253474   9.747   9.526   3.138 -0.0105  0.3511  1.3204
16478SOL     OW53475   2.786   8.132   7.779 -0.0994 -0.2172 -0.3020
16478SOL    HW153476   2.804   8.226   7.786  0.1101 -0.2861  0.0805
16478SOL    HW253477   2.726   8.125   7.705 -1.7452  0.4415  0.9164
16479SOL     OW53478   0.794   8.717   2.545 -0.4127 -0.6702 -0.1327
16479SOL    HW153479   0.785   8.809   2.571 -0.2432 -1.2270  2.1457
16479SOL    HW253480   0.887   8.706   2.527  0.1681 -1.0182  2.5935
16480SOL     OW53481   9.485   5.259   1.119  0.1280  0.2834  0.6612
16480SOL    HW153482   9.408   5.312   1.135 -0.8995  0.0412 -2.7018
16480SOL    HW253483   9.557   5.306   1.161 -1.4814  1.6876  1.9490
16481SOL     OW53484   3.059   3.848   1.266 -0.4231 -0.3254 -0.2118
16481SOL    HW153485   2.986   3.871   1.210 -1.6119 -2.0058  0.5523
16481SOL    HW253486   3.083   3.759   1.240 -0.0433 -0.5926  0.9467
16482SOL     OW53487   0.644   3.637   2.100 -0.3480  0.1832 -0.0279
16482SOL    HW153488   0.673   3.728   2.090  1.8112 -0.2793  1.5182
16482SOL    HW253489   0.554   3.645   2.132 -0.3364  1.7641 -0.2940
16483SOL     OW53490   7.521   1.245   3.512  0.8368  0.0030 -0.5271
16483SOL    HW153491   7.439   1.232   3.559  0.5292 -2.6068 -1.5884
16483SOL    HW253492   7.522   1.338   3.490 -1.8618  0.0983 -0.5254
16484SOL     OW53493   2.928   8.819   9.244  0.1852 -0.0638  0.1286
16484SOL    HW153494   2.903   8.786   9.158  0.7556  0.2863 -0.1780
16484SOL    HW253495   2.980   8.748   9.283 -1.2727 -0.8191  0.7926
16485SOL     OW53496   0.946   7.847   8.004 -0.1633  0.1044  0.1349
16485SOL    HW153497   0.984   7.809   7.924 -0.8577 -1.5937  0.5483
16485SOL    HW253498   0.959   7.779   8.070 -0.8677  0.8959  1.1058
16486SOL     OW53499   7.038   0.103   0.683 -0.3156  0.4267  0.0339
16486SOL    HW153500   6.986   0.041   0.733  2.3097  1.1462  4.1924
16486SOL    HW253501   7.114   0.053   0.653 -0.7023  0.5472 -1.1914
16487SOL     OW53502   2.968   4.910   4.477  0.4397 -0.0266  0.2694
16487SOL    HW153503   3.058   4.893   4.449 -0.1550 -0.5463 -1.4846
16487SOL    HW253504   2.966   5.004   4.495  1.3842 -0.0525  0.5310
16488SOL     OW53505   5.886   2.120   1.903  0.5072 -0.1527  0.0780
16488SOL    HW153506   5.965   2.169   1.880  0.9628 -0.9706 -0.1441
16488SOL    HW253507   5.879   2.053   1.835 -1.2782  0.8733 -0.8067
16489SOL     OW53508   7.169   4.407   3.283 -0.4549 -0.5027  0.5572
16489SOL    HW153509   7.148   4.362   3.365 -1.2235  1.3350  1.4107
16489SOL    HW253510   7.150   4.499   3.300  2.1327  0.3750 -0.7715
16490SOL     OW53511   0.887   8.511   1.507  0.2746 -0.0708  0.2965
16490SOL    HW153512   0.791   8.515   1.504  0.3341  1.2167 -1.2911
16490SOL    HW253513   0.916   8.595   1.471  2.0051 -0.6685  0.2036
16491SOL     OW53514   4.356   7.420   6.869  0.0074 -0.1586 -0.6371
16491SOL    HW153515   4.299   7.443   6.795  0.4653 -2.0157 -1.6358
16491SOL    HW253516   4.351   7.325   6.874  0.1055 -0.0981  1.6912
16492SOL     OW53517   6.528   7.798   5.475 -0.1043  0.0113 -0.1886
16492SOL    HW153518   6.621   7.802   5.496 -0.1211 -0.6739  0.0505
16492SOL    HW253519   6.509   7.704   5.469 -0.9029  0.1298  0.3426
16493SOL     OW53520   4.673   2.926   9.541 -0.8913 -0.2912 -0.0709
16493SOL    HW153521   4.709   2.989   9.604 -1.3733  0.6160 -0.6928
16493SOL    HW253522   4.674   2.843   9.589 -0.4832  0.2192  0.8507
16494SOL     OW53523   5.142   5.711   3.339 -0.2976 -0.3475 -0.2612
16494SOL    HW153524   5.236   5.689   3.342 -0.0038  0.9199  0.6492
16494SOL    HW253525   5.121   5.711   3.246  0.6084 -0.6228 -0.4819
16495SOL     OW53526   9.203   2.136   2.902  0.2190 -0.0550 -0.3309
16495SOL    HW153527   9.273   2.163   2.961 -0.2129 -1.1825  0.7255
16495SOL    HW253528   9.138   2.207   2.908  0.8354  0.5469 -0.6131
16496SOL     OW53529   7.561   1.803  10.061  0.7715 -0.0980 -0.1268
16496SOL    HW153530   7.605   1.726  10.025  0.7038 -0.7727  1.1357
16496SOL    HW253531   7.570   1.870   9.994  3.2112 -0.3809 -0.1684
16497SOL     OW53532   3.166   9.297   6.322  0.3103  0.1456 -0.7958
16497SOL    HW153533   3.112   9.266   6.249  1.1959 -2.0013 -0.6250
16497SOL    HW253534   3.150   9.234   6.392  1.7993  0.3813 -0.2036
16498SOL     OW53535   0.016   5.985   3.583 -0.1851  0.2080 -0.0470
16498SOL    HW153536  -0.073   6.019   3.596 -0.7308 -1.7412  1.7993
16498SOL    HW253537   0.006   5.918   3.515 -0.7926 -1.9913  2.0450
16499SOL     OW53538   1.361   6.819   0.165  0.6034 -0.1881 -0.1845
16499SOL    HW153539   1.415   6.897   0.152 -2.2817  1.9201 -0.4715
16499SOL    HW253540   1.346   6.817   0.260 -0.9097  0.8486 -0.3644
16500SOL     OW53541   0.530   4.210   2.909  0.0963  0.2364 -0.7081
16500SOL    HW153542   0.575   4.127   2.924  0.4071  0.2579 -1.4900
16500SOL    HW253543   0.589   4.277   2.944  0.6684  0.2588 -1.6602
16501SOL     OW53544   0.373   2.360   3.079 -0.2708  0.4828  0.5101
16501SOL    HW153545   0.420   2.430   3.124 -0.1855 -0.7202  2.4050
16501SOL    HW253546   0.380   2.285   3.137 -1.0242 -0.9033 -1.0982
16502SOL     OW53547   3.420   2.074   6.234  0.5602 -0.3184 -0.1562
16502SOL    HW153548   3.354   2.143   6.225 -0.2706 -0.9624  0.8065
16502SOL    HW253549   3.436   2.045   6.144  0.2461  0.5118 -0.4876
16503SOL     OW53550   5.257   9.142  10.078  0.4348  0.0991 -0.2627
16503SOL    HW153551   5.174   9.100  10.055  0.6309 -0.7560  0.5056
16503SOL    HW253552   5.232   9.223  10.122 -0.0364 -0.4557  0.5373
16504SOL     OW53553   2.146   5.259   1.976  0.0273 -0.6137 -0.1134
16504SOL    HW153554   2.053   5.266   1.999 -0.1596  0.0394 -1.0139
16504SOL    HW253555   2.176   5.179   2.020 -0.7814 -0.4414  0.7650
16505SOL     OW53556   2.762   4.975   6.174 -0.0378 -0.1818 -0.3350
16505SOL    HW153557   2.817   5.053   6.182 -1.4861  0.8814 -0.4755
16505SOL    HW253558   2.824   4.902   6.182  1.5993  0.9574 -1.7496
16506SOL     OW53559   6.674   6.501   5.554 -0.3528  0.2352 -0.2084
16506SOL    HW153560   6.597   6.463   5.513  0.4368  0.6045 -2.1600
16506SOL    HW253561   6.676   6.591   5.521  0.8130  0.2710 -0.0800
16507SOL     OW53562   7.788   5.605   4.466 -0.1964 -0.6808  0.4959
16507SOL    HW153563   7.716   5.585   4.526 -1.1093 -2.0509 -0.9762
16507SOL    HW253564   7.858   5.544   4.491 -0.9966 -2.0849 -0.4791
16508SOL     OW53565  10.232   7.302   2.056 -0.5590  0.2212 -0.2509
16508SOL    HW153566  10.164   7.241   2.082 -0.7129  1.1689  1.7582
16508SOL    HW253567  10.281   7.319   2.136  0.5283  1.4294 -1.1255
16509SOL     OW53568   8.135   0.068   7.825 -0.1059 -0.4080  0.5897
16509SOL    HW153569   8.072   0.015   7.874 -0.5432 -0.3814  0.0616
16509SOL    HW253570   8.198   0.097   7.891  0.8076 -2.5160  0.7225
16510SOL     OW53571  10.113  10.289   2.510  0.1176  0.1542 -0.1325
16510SOL    HW153572  10.204  10.317   2.516  1.0548 -2.7999  1.1361
16510SOL    HW253573  10.063  10.368   2.530  2.3953  1.6955 -0.1252
16511SOL     OW53574   6.004   9.623   1.821  0.0441 -0.3685 -0.1604
16511SOL    HW153575   5.955   9.701   1.847 -2.2565 -1.6748 -0.2789
16511SOL    HW253576   6.017   9.633   1.727 -1.0056 -0.5145 -0.3254
16512SOL     OW53577   0.713   8.531   3.345  0.1152 -0.4377  0.0818
16512SOL    HW153578   0.673   8.457   3.299  0.1918  1.5087 -3.4560
16512SOL    HW253579   0.798   8.499   3.374 -0.2490 -2.0026 -0.4895
16513SOL     OW53580   7.631   2.956   2.211  0.1608  0.2509  0.0942
16513SOL    HW153581   7.697   2.973   2.279  0.0979 -0.6846  0.4073
16513SOL    HW253582   7.666   2.999   2.133  0.1844  1.4457  0.7304
16514SOL     OW53583   4.356   4.153   5.816  0.1143  0.5075  0.1757
16514SOL    HW153584   4.408   4.126   5.740 -2.7540  1.9896 -2.5813
16514SOL    HW253585   4.287   4.087   5.822 -0.6463  1.3029  0.3802
16515SOL     OW53586   3.686   9.601   2.368  0.0249 -0.1397 -0.1450
16515SOL    HW153587   3.728   9.528   2.323 -0.4313 -1.8926  2.0950
16515SOL    HW253588   3.660   9.661   2.298  3.7398 -0.2481 -1.8130
16516SOL     OW53589   4.651   8.880   4.490 -0.6912  0.3402  0.7903
16516SOL    HW153590   4.740   8.911   4.478  0.0994 -1.2597  2.1309
16516SOL    HW253591   4.600   8.927   4.423  1.7104 -1.2829 -2.4782
16517SOL     OW53592   0.804   6.778   2.107  0.0530 -0.2248  0.4879
16517SOL    HW153593   0.725   6.773   2.161  0.1538  0.0451  0.6591
16517SOL    HW253594   0.805   6.868   2.074 -0.6413 -0.6959 -0.9221
16518SOL     OW53595   2.122   1.099   7.998 -1.2971 -0.0627 -0.2479
16518SOL    HW153596   2.179   1.156   8.050 -0.3798 -1.2191  0.0472
16518SOL    HW253597   2.093   1.032   8.059  0.3418 -1.8487 -1.3187
16519SOL     OW53598   1.108   1.630   0.194  1.3325 -0.2890  0.4845
16519SOL    HW153599   1.146   1.629   0.106 -0.1254  0.0864 -0.1782
16519SOL    HW253600   1.075   1.541   0.207 -0.4084  0.1916 -0.2828
16520SOL     OW53601   6.894   5.084   5.021  0.4055  0.2701 -0.2669
16520SOL    HW153602   6.815   5.137   5.031  0.3887  0.6600 -2.1541
16520SOL    HW253603   6.928   5.107   4.935  2.0863 -0.5723  0.1318
16521SOL     OW53604   9.411   7.920   6.655 -0.4659 -0.0211  0.1162
16521SOL    HW153605   9.326   7.955   6.629 -0.2410  0.4362 -0.0206
16521SOL    HW253606   9.445   7.983   6.719 -0.2172 -0.1844  0.1495
16522SOL     OW53607  10.252   4.453   0.563  0.0973  0.2306  0.1171
16522SOL    HW153608  10.290   4.401   0.492 -0.4259 -0.8071  0.5614
16522SOL    HW253609  10.168   4.483   0.528 -0.0194 -0.0204  0.1746
16523SOL     OW53610   2.707   7.657   7.170  0.0284 -0.3602  0.3168
16523SOL    HW153611   2.694   7.603   7.092 -2.0285  3.2712 -2.1252
16523SOL    HW253612   2.626   7.647   7.220  0.4515 -0.9575  0.9127
16524SOL     OW53613   1.786   5.795   1.180 -0.6643 -0.0736  0.1236
16524SOL    HW153614   1.880   5.787   1.161 -0.0854  1.9354  1.7832
16524SOL    HW253615   1.746   5.723   1.132  1.5056  0.1086 -2.1884
16525SOL     OW53616   2.500   7.385   5.972 -1.1819 -0.4136  0.1416
16525SOL    HW153617   2.425   7.358   6.024  0.9625 -1.8343  2.7501
16525SOL    HW253618   2.503   7.480   5.981 -2.5948 -0.3363  0.0144
16526SOL     OW53619   0.622   0.354   0.644  0.1480  0.5131  0.0433
16526SOL    HW153620   0.628   0.271   0.691 -0.2376  0.4765  0.0363
16526SOL    HW253621   0.558   0.405   0.695  1.4137  1.3402  0.8431
16527SOL     OW53622   4.856   0.075   2.001 -0.1080 -0.3943  0.5451
16527SOL    HW153623   4.864   0.128   1.922  1.3298 -0.1763  0.8083
16527SOL    HW253624   4.795   0.005   1.977 -1.3656  0.8786 -0.0635
16528SOL     OW53625   4.712   1.878   2.759 -0.7781 -0.2123 -0.6837
16528SOL    HW153626   4.638   1.836   2.803 -0.2597 -0.8514 -0.4166
16528SOL    HW253627   4.672   1.923   2.684 -1.7004  1.0341  0.4826
16529SOL     OW53628   5.128   7.135   6.886 -0.5184  0.0291 -0.4454
16529SOL    HW153629   5.184   7.060   6.866 -1.6071 -1.1593  0.7681
16529SOL    HW253630   5.126   7.186   6.805  3.0304  0.6825 -0.2790
16530SOL     OW53631   9.112   9.886   2.215  0.3637  0.0522  0.6913
16530SOL    HW153632   9.039   9.946   2.234 -0.2057 -0.4051 -0.0324
16530SOL    HW253633   9.095   9.855   2.127 -1.0266 -3.5385  2.0586
16531SOL     OW53634   8.380   3.981   6.863 -0.1750  0.0879  0.8373
16531SOL    HW153635   8.467   3.951   6.835 -0.4466  2.0280 -2.7476
16531SOL    HW253636   8.397   4.059   6.915  0.3527  1.9650 -1.9466
16532SOL     OW53637   8.883   7.784   5.727  0.3090 -0.1249  0.1220
16532SOL    HW153638   8.878   7.738   5.811 -0.5961 -0.9555 -0.3611
16532SOL    HW253639   8.956   7.743   5.682  0.4570 -0.0503  0.2956
16533SOL     OW53640   6.046  10.018   6.048  0.4340 -0.0573 -0.0393
16533SOL    HW153641   6.060   9.931   6.011 -2.4609 -0.8606  0.5039
16533SOL    HW253642   6.046  10.004   6.143 -0.2987  0.4449  0.0472
16534SOL     OW53643   7.012   4.728   1.299 -0.3734  0.1001 -0.5512
16534SOL    HW153644   7.022   4.682   1.216  2.1758 -0.8977  0.2093
16534SOL    HW253645   6.924   4.706   1.329 -1.4457  0.6870 -3.0326
16535SOL     OW53646   7.024   6.278   7.521  0.3772 -0.0937 -0.6233
16535SOL    HW153647   7.056   6.275   7.612  0.8424 -0.5245 -0.7963
16535SOL    HW253648   7.103   6.273   7.468  0.2660  1.9760 -1.0666
16536SOL     OW53649  10.045   9.718   8.813  0.6621 -0.0266 -0.2376
16536SOL    HW153650   9.980   9.648   8.803  1.1696 -0.6029  0.3947
16536SOL    HW253651  10.060   9.724   8.907  1.6924 -0.0698 -0.3888
16537SOL     OW53652   5.507   1.638   4.177  0.5454 -0.0169 -0.0611
16537SOL    HW153653   5.457   1.649   4.096  0.7370 -1.5546 -0.4094
16537SOL    HW253654   5.538   1.727   4.197 -0.7819  0.6519 -0.8143
16538SOL     OW53655   7.541   8.465   8.657  0.1787 -0.3677 -0.4543
16538SOL    HW153656   7.595   8.420   8.722  0.1951  1.4609  0.8506
16538SOL    HW253657   7.577   8.554   8.653 -1.7119  0.4232 -0.7275
16539SOL     OW53658   4.893   8.776   7.939  0.0773  0.1343 -0.5284
16539SOL    HW153659   4.828   8.707   7.927  0.9959 -1.3495  2.2092
16539SOL    HW253660   4.856   8.834   8.006  1.0027 -0.0104  0.1312
16540SOL     OW53661   7.481   1.294   9.535  0.6425  0.2071  0.1182
16540SOL    HW153662   7.479   1.260   9.624 -0.3520 -1.0269 -0.3547
16540SOL    HW253663   7.572   1.320   9.521  0.7496  0.7294  1.5836
16541SOL     OW53664   8.940   2.262   4.658  0.2599 -0.4004 -0.0090
16541SOL    HW153665   8.994   2.284   4.733 -2.0304  1.3128  1.2598
16541SOL    HW253666   8.851   2.284   4.685 -1.1070 -2.8327 -2.0613
16542SOL     OW53667   0.508   7.068   4.159  0.4502 -0.0932 -0.4776
16542SOL    HW153668   0.595   7.102   4.183 -0.1125  0.6848  0.5387
16542SOL    HW253669   0.490   7.001   4.225  0.2601 -0.2447 -0.6828
16543SOL     OW53670   3.024   4.098   1.383 -0.0108 -0.1274  0.5970
16543SOL    HW153671   2.940   4.145   1.384  0.1437  0.2135 -0.8312
16543SOL    HW253672   3.082   4.153   1.331  1.0862 -0.4219  1.4789
16544SOL     OW53673   3.489   2.665   8.214 -0.8696 -0.0626 -0.2413
16544SOL    HW153674   3.576   2.706   8.209 -1.1974  0.5283 -1.7304
16544SOL    HW253675   3.457   2.687   8.301 -0.3689  1.5058 -0.4234
16545SOL     OW53676   0.822  10.176   7.782  0.2925 -0.1073  0.0614
16545SOL    HW153677   0.904  10.161   7.735  0.2017 -0.4654  0.0130
16545SOL    HW253678   0.849  10.198   7.871  0.4238 -2.7131  0.7505
16546SOL     OW53679   3.493   7.317   2.794 -0.3162 -0.2534  0.0334
16546SOL    HW153680   3.399   7.304   2.781 -0.3839 -0.9006  1.0609
16546SOL    HW253681   3.520   7.243   2.847  0.5749  0.4831  0.6332
16547SOL     OW53682   8.709   2.047   0.348 -0.1766 -0.2730  0.0184
16547SOL    HW153683   8.625   2.006   0.365 -0.2313 -0.1915 -0.0524
16547SOL    HW253684   8.773   1.978   0.362 -0.3634 -0.8272 -1.6435
16548SOL     OW53685   9.171   6.767   2.617  0.1535 -0.2140 -0.1714
16548SOL    HW153686   9.115   6.709   2.564  1.8904 -2.0621 -0.1100
16548SOL    HW253687   9.124   6.775   2.700 -0.5548 -0.8147 -0.5010
16549SOL     OW53688   7.338   7.889   9.200  0.5512  0.0142  0.3982
16549SOL    HW153689   7.396   7.960   9.226  0.2301  0.0762  0.9463
16549SOL    HW253690   7.256   7.907   9.245  0.8670 -1.4176  1.6377
16550SOL     OW53691  10.140  10.239   1.633  0.2040  0.2733 -0.2570
16550SOL    HW153692  10.122  10.318   1.683  0.8497  0.3289 -0.1044
16550SOL    HW253693  10.060  10.223   1.583  0.2926  1.3911 -0.7962
16551SOL     OW53694   2.840   4.129   2.965 -0.1975 -0.2015  0.4307
16551SOL    HW153695   2.874   4.047   2.999  0.0896  0.1409  0.9929
16551SOL    HW253696   2.914   4.168   2.918 -0.3904 -0.3587  0.0013
16552SOL     OW53697   0.065   1.146   9.494  0.2240 -0.8070  0.4860
16552SOL    HW153698   0.069   1.155   9.589 -0.5715  0.0563  0.4577
16552SOL    HW253699   0.020   1.226   9.465 -0.1104 -1.3602 -0.5520
16553SOL     OW53700   2.583   7.734   9.955  0.6663 -0.0924 -0.3708
16553SOL    HW153701   2.629   7.674  10.013 -0.4153 -1.9168 -1.3284
16553SOL    HW253702   2.490   7.724   9.977  0.3607  0.3028 -1.3775
16554SOL     OW53703   9.231   4.737   4.681  0.3020  0.3549  0.4635
16554SOL    HW153704   9.257   4.829   4.687  1.6051 -0.0381  1.2503
16554SOL    HW253705   9.233   4.706   4.771  0.5989 -0.6326  0.1251
16555SOL     OW53706   8.890   2.017   7.374 -0.3471  0.1599 -0.1896
16555SOL    HW153707   8.964   1.957   7.382 -0.9336 -0.3634  2.0647
16555SOL    HW253708   8.827   1.971   7.319  0.6366  0.2650 -1.4374
16556SOL     OW53709   6.736   4.483   2.120 -0.0883 -0.1258  0.3036
16556SOL    HW153710   6.749   4.396   2.083 -0.8407 -0.4462  0.7691
16556SOL    HW253711   6.659   4.517   2.074 -0.4536 -0.1504  0.8844
16557SOL     OW53712   2.659   4.248   9.692  0.5982 -0.2489 -0.1240
16557SOL    HW153713   2.727   4.219   9.752  0.6461 -1.1222 -0.5853
16557SOL    HW253714   2.584   4.267   9.749  1.0699  0.2952  0.3380
16558SOL     OW53715   0.012   3.963   5.628 -0.5243  0.2762 -0.1615
16558SOL    HW153716   0.068   3.893   5.595 -0.4521 -0.1392  0.7927
16558SOL    HW253717   0.003   3.944   5.722 -0.8056  1.3363  0.0432
16559SOL     OW53718   1.938   7.630   1.773 -0.0164  0.3387 -0.9457
16559SOL    HW153719   1.988   7.698   1.729 -1.6155  3.1110  1.2315
16559SOL    HW253720   1.973   7.628   1.862 -2.0568  0.5988 -0.0912
16560SOL     OW53721   0.496   6.464   3.531 -0.4980 -0.2742 -0.0598
16560SOL    HW153722   0.570   6.457   3.470 -2.1938 -3.5252 -2.0885
16560SOL    HW253723   0.437   6.394   3.503 -3.0303  0.3181  3.2733
16561SOL     OW53724   6.139   6.606  10.090  0.0261 -0.1803  0.4294
16561SOL    HW153725   6.053   6.568  10.075 -0.2022  0.3123  0.4668
16561SOL    HW253726   6.194   6.568  10.022 -0.7476  1.2251 -1.0585
16562SOL     OW53727   2.129   0.164   3.221  0.4085  0.4728 -0.8826
16562SOL    HW153728   2.072   0.241   3.216 -0.7754 -0.3077  0.1055
16562SOL    HW253729   2.199   0.182   3.157 -1.0979  1.3202 -2.3681
16563SOL     OW53730   0.824   8.862  10.213 -0.0362 -0.1638 -0.4050
16563SOL    HW153731   0.892   8.862  10.280  0.5857 -2.3442 -0.9453
16563SOL    HW253732   0.826   8.950  10.176  1.1368  0.4026  0.9105
16564SOL     OW53733   3.313   2.617   1.386  1.1055 -0.4524  0.2663
16564SOL    HW153734   3.291   2.599   1.477  2.0894  0.2186  0.6577
16564SOL    HW253735   3.368   2.542   1.360  1.7938 -0.0790  0.6064
16565SOL     OW53736   8.645   9.173   0.659 -0.2646  0.5997 -0.1134
16565SOL    HW153737   8.698   9.149   0.583  0.2691  0.5111  0.2826
16565SOL    HW253738   8.611   9.260   0.637 -0.4579  0.3972 -0.6321
16566SOL     OW53739   5.391   5.510   6.567  0.0828 -0.5078 -0.4589
16566SOL    HW153740   5.419   5.524   6.477 -0.1037 -1.0593 -0.6070
16566SOL    HW253741   5.322   5.574   6.582  0.2554 -0.2804 -0.6417
16567SOL     OW53742   6.211   5.217   6.228 -0.0394 -1.0157 -0.3199
16567SOL    HW153743   6.172   5.269   6.298 -0.4529 -0.7172 -0.7585
16567SOL    HW253744   6.286   5.268   6.199 -0.4076 -0.6834 -0.7065
16568SOL     OW53745   5.149   4.303   0.212  0.6897  0.2092 -0.0365
16568SOL    HW153746   5.129   4.351   0.292  0.0292  3.4899 -1.9811
16568SOL    HW253747   5.067   4.257   0.190  0.5202  0.2304  0.5543
16569SOL     OW53748   2.294   8.572   6.370  0.0617  0.1755 -0.2043
16569SOL    HW153749   2.375   8.571   6.421 -0.5126  2.6004  0.9284
16569SOL    HW253750   2.252   8.655   6.393 -1.5081  0.2107 -2.7251
16570SOL     OW53751   9.575   9.130   0.374 -0.0952  0.3783  1.0289
16570SOL    HW153752   9.654   9.155   0.422 -0.9157 -1.0817  3.2879
16570SOL    HW253753   9.507   9.187   0.409 -0.4465  0.2619  0.5433
16571SOL     OW53754   8.072   8.635   9.302  0.3591 -0.4646 -0.2227
16571SOL    HW153755   8.053   8.606   9.391  0.4593 -0.7882 -0.3065
16571SOL    HW253756   8.154   8.684   9.311  0.2428 -0.2876 -0.0993
16572SOL     OW53757   5.296   8.344   0.004 -0.3395  0.0879  0.3641
16572SOL    HW153758   5.260   8.420  -0.041  0.0512  0.3333  0.4621
16572SOL    HW253759   5.276   8.270  -0.053  0.9656  0.5062 -0.6960
16573SOL     OW53760   3.723   2.920  10.146 -0.3853  1.0211 -0.2013
16573SOL    HW153761   3.801   2.976  10.142  1.5758 -1.5436 -0.2699
16573SOL    HW253762   3.687   2.933  10.234  0.9048  1.2710  0.3000
16574SOL     OW53763   5.507   2.014   2.315  0.1691  0.1937 -0.2068
16574SOL    HW153764   5.440   1.975   2.371 -1.1601 -0.4109 -2.1271
16574SOL    HW253765   5.589   1.997   2.361 -0.5454 -3.0651  0.1441
16575SOL     OW53766   4.355   1.252   3.695  0.0353 -0.3799 -0.1819
16575SOL    HW153767   4.396   1.334   3.723 -0.0815 -0.0527 -0.9572
16575SOL    HW253768   4.424   1.204   3.651 -0.4452  0.2948 -1.7420
16576SOL     OW53769   0.714   8.282   4.051 -0.2821 -1.2542 -0.3534
16576SOL    HW153770   0.644   8.347   4.042  0.3697 -0.7381 -1.9492
16576SOL    HW253771   0.678   8.217   4.111 -1.1083  0.3520  0.9727
16577SOL     OW53772   6.196   8.494   6.664 -0.0281  0.2464 -0.2553
16577SOL    HW153773   6.159   8.557   6.603  0.3594  1.2951  0.5682
16577SOL    HW253774   6.221   8.546   6.740 -1.3630 -1.1489  1.2051
16578SOL     OW53775   4.999   2.624   9.008 -0.6177  0.5811  0.4706
16578SOL    HW153776   5.093   2.614   8.991 -1.0387 -0.5642 -1.6108
16578SOL    HW253777   4.957   2.591   8.928 -2.8055  0.8421  1.4415
16579SOL     OW53778   6.160   2.614   4.026  0.3985  0.3531  0.0826
16579SOL    HW153779   6.230   2.588   4.086 -1.1475 -1.4083  1.2501
16579SOL    HW253780   6.139   2.535   3.977 -2.5326 -0.0136  1.6861
16580SOL     OW53781   7.093   7.959   9.327 -0.4355  0.7632  0.0301
16580SOL    HW153782   7.079   7.897   9.398 -1.7813 -0.2410 -1.0479
16580SOL    HW253783   7.005   7.977   9.293  0.2314  0.2356 -2.1368
16581SOL     OW53784   6.789   1.935   1.418  0.2585 -0.1513 -0.2638
16581SOL    HW153785   6.695   1.921   1.409  0.3009 -0.3814 -0.3584
16581SOL    HW253786   6.801   2.029   1.403  0.0947 -0.1930 -0.6812
16582SOL     OW53787   0.195   4.670   6.714  0.0569 -0.6250 -0.1344
16582SOL    HW153788   0.107   4.679   6.678 -0.1613  0.3792  0.6184
16582SOL    HW253789   0.212   4.575   6.711 -0.5765 -0.7251 -1.3522
16583SOL     OW53790   0.076   8.236   3.270  0.1733 -0.3679  0.1303
16583SOL    HW153791   0.074   8.157   3.323  2.3178 -0.0696  0.7566
16583SOL    HW253792   0.042   8.305   3.327 -2.9643 -0.9254 -0.8286
16584SOL     OW53793   2.269   3.842   3.141 -0.1591 -0.5349 -0.1197
16584SOL    HW153794   2.244   3.933   3.126 -2.0024 -1.0365 -0.3387
16584SOL    HW253795   2.333   3.823   3.073 -0.1857  0.4325 -0.4292
16585SOL     OW53796   5.462   9.088   0.442 -0.5701 -0.6074  0.1181
16585SOL    HW153797   5.440   9.094   0.349 -2.3674 -1.7738  0.4269
16585SOL    HW253798   5.461   8.994   0.461 -0.6821 -0.3595  1.4182
16586SOL     OW53799   0.138   4.211   1.684  0.7751 -0.0084 -0.2678
16586SOL    HW153800   0.202   4.232   1.752 -0.0002  0.6501  0.2717
16586SOL    HW253801   0.173   4.252   1.605  0.8017  0.7178  0.1184
16587SOL     OW53802   2.588   4.763   4.592 -0.3782  0.7026  0.3648
16587SOL    HW153803   2.622   4.839   4.545  0.2915  0.3385  0.2433
16587SOL    HW253804   2.596   4.691   4.530  1.0654  0.0940  1.1881
16588SOL     OW53805   2.419   9.886   9.372  0.1389  0.0974  0.1406
16588SOL    HW153806   2.452   9.935   9.448  0.8618 -1.7609  1.0853
16588SOL    HW253807   2.497   9.859   9.325 -0.2839  0.4799 -0.7907
16589SOL     OW53808   0.243   6.121   4.987  0.1057 -0.6689  0.0507
16589SOL    HW153809   0.261   6.113   4.893 -0.4696  0.9227 -0.2313
16589SOL    HW253810   0.295   6.052   5.027 -1.0179 -2.5398 -1.5757
16590SOL     OW53811   4.195   2.222   4.802 -0.1931  0.3192 -0.0134
16590SOL    HW153812   4.105   2.208   4.833 -0.5514  1.1646 -0.6414
16590SOL    HW253813   4.215   2.313   4.825  1.1689 -0.3422  1.7067
16591SOL     OW53814   3.175   9.721   2.718  0.0427  0.2615  0.4503
16591SOL    HW153815   3.184   9.721   2.623 -0.8161 -0.8026  0.3536
16591SOL    HW253816   3.086   9.753   2.734  0.2955  0.7460  0.9083
16592SOL     OW53817   2.696   3.323   3.066 -0.3699  0.2483  0.5928
16592SOL    HW153818   2.756   3.388   3.101  0.1382  0.0960  0.0382
16592SOL    HW253819   2.657   3.281   3.142  1.4090 -0.7330  1.0203
16593SOL     OW53820   7.916   7.919   4.549 -0.2277 -0.0078 -0.8117
16593SOL    HW153821   7.884   7.937   4.637  0.9143 -0.2120 -0.3310
16593SOL    HW253822   7.893   7.996   4.498  0.5545  0.8417  0.0809
16594SOL     OW53823   7.549   2.579   4.724  0.0520  0.4436 -0.2113
16594SOL    HW153824   7.598   2.632   4.661  1.9823  0.4931  1.2491
16594SOL    HW253825   7.556   2.490   4.691 -0.3866  0.6619 -0.9248
16595SOL     OW53826  10.025   5.012   1.823 -0.6296  0.4526 -0.2834
16595SOL    HW153827   9.944   5.057   1.802 -0.2576  1.1983 -0.1647
16595SOL    HW253828  10.000   4.942   1.883 -1.2597  0.3162 -0.7054
16596SOL     OW53829   0.670   2.971   9.544  0.6202  0.1812 -0.5113
16596SOL    HW153830   0.748   3.025   9.531  1.2176  0.3793  2.9569
16596SOL    HW253831   0.600   3.035   9.559  0.6755  0.0445  0.4095
16597SOL     OW53832   5.528   1.273   9.251  0.9035 -0.3685  0.4612
16597SOL    HW153833   5.601   1.301   9.195  1.1346 -0.8973  0.4954
16597SOL    HW253834   5.536   1.328   9.329  0.8838  0.0190  0.1913
16598SOL     OW53835   2.026   3.793   1.797 -0.6825 -0.0220 -0.0551
16598SOL    HW153836   2.011   3.865   1.858 -0.8772 -1.5102  1.7301
16598SOL    HW253837   2.117   3.803   1.769 -0.0666 -0.2217  1.7644
16599SOL     OW53838   2.474   1.184   0.991  0.2144  0.3437  0.1216
16599SOL    HW153839   2.405   1.117   0.993  1.0402 -0.5173  0.7400
16599SOL    HW253840   2.554   1.135   0.973  1.0672  0.9502  2.0958
16600SOL     OW53841   9.590   2.875   1.421  0.3510  0.2954 -0.1640
16600SOL    HW153842   9.580   2.789   1.461 -0.2092  0.9813  1.2460
16600SOL    HW253843   9.685   2.889   1.419  0.4228 -0.1076  0.1564
16601SOL     OW53844   2.274   4.503   0.296 -0.2263 -0.3859 -0.5877
16601SOL    HW153845   2.338   4.431   0.303  0.2258  0.1147  0.6974
16601SOL    HW253846   2.287   4.554   0.376 -4.2524 -1.8831  1.3162
16602SOL     OW53847   3.570   0.568   9.683  0.2289  0.1544  0.0173
16602SOL    HW153848   3.622   0.561   9.603 -1.2922 -0.4019 -0.9812
16602SOL    HW253849   3.633   0.589   9.752  1.7757 -0.6708 -1.0918
16603SOL     OW53850   4.754   5.539   2.642  0.6641  0.5356 -0.0076
16603SOL    HW153851   4.833   5.562   2.691 -1.1472  1.1846  2.8556
16603SOL    HW253852   4.684   5.587   2.686 -1.4665 -0.6267 -1.9372
16604SOL     OW53853   3.159   8.842   3.293 -0.7493  0.1345  0.2684
16604SOL    HW153854   3.232   8.865   3.351 -0.3234  2.3629 -1.0215
16604SOL    HW253855   3.141   8.750   3.312 -0.4848  0.6368  3.7431
16605SOL     OW53856   6.217   2.151   8.019 -0.2398 -0.2167 -0.3005
16605SOL    HW153857   6.278   2.120   7.952  0.7102  1.9468 -0.5365
16605SOL    HW253858   6.260   2.134   8.102  1.5991  2.7419 -0.4984
16606SOL     OW53859   8.545   6.805   8.976  0.2070  0.3697 -0.4388
16606SOL    HW153860   8.615   6.746   9.003 -0.3333 -1.0799 -2.0013
16606SOL    HW253861   8.490   6.814   9.055  0.1148 -1.5524 -0.2258
16607SOL     OW53862   9.692   3.811   1.431 -0.0927  0.0058 -0.1516
16607SOL    HW153863   9.664   3.887   1.483 -1.2323 -0.9080  0.6045
16607SOL    HW253864   9.765   3.774   1.481  1.3832  1.3411 -1.2089
16608SOL     OW53865   4.362   2.721  10.109 -0.0213 -0.9605  0.3392
16608SOL    HW153866   4.363   2.793  10.171  0.0651  1.0863 -1.9198
16608SOL    HW253867   4.431   2.742  10.046 -2.1197 -1.3024 -2.2157
16609SOL     OW53868   7.559   5.622   6.443 -0.6876  0.5983  0.1806
16609SOL    HW153869   7.643   5.638   6.399 -0.3076  0.1474  0.7210
16609SOL    HW253870   7.560   5.528   6.461 -0.6310  0.8419  1.5469
16610SOL     OW53871   3.055   9.561   2.436 -0.2755  0.3386  0.2447
16610SOL    HW153872   2.978   9.596   2.391 -1.3719 -1.6923  0.4484
16610SOL    HW253873   3.027   9.551   2.527  0.0074 -1.0017  0.1955
16611SOL     OW53874   9.882   3.415   6.661 -0.1126  0.2319 -0.1394
16611SOL    HW153875   9.901   3.495   6.709 -0.9388 -0.4828  1.4370
16611SOL    HW253876   9.954   3.356   6.682 -0.7528 -0.2716  0.6949
16612SOL     OW53877  10.077   5.739   2.570 -0.2636 -0.1306  0.7619
16612SOL    HW153878  10.125   5.820   2.551 -3.2494  2.3775  2.9363
16612SOL    HW253879  10.099   5.719   2.661 -0.5364 -1.0954  0.6280
16613SOL     OW53880   2.073   4.528   9.531 -0.4747  0.1966 -0.0061
16613SOL    HW153881   2.059   4.440   9.567 -2.3863  0.9515  1.2669
16613SOL    HW253882   2.075   4.585   9.608  2.7940  1.1171 -0.6495
16614SOL     OW53883   2.299   0.034  10.109 -0.0968  0.2621 -0.8857
16614SOL    HW153884   2.363  -0.032  10.081 -0.1653  0.1369 -0.7467
16614SOL    HW253885   2.221   0.014  10.057  0.3763  1.2020 -2.0017
16615SOL     OW53886  10.072   0.324   4.487 -0.2718  0.1455 -0.3491
16615SOL    HW153887  10.125   0.301   4.410 -0.4460  1.1103 -0.7622
16615SOL    HW253888  10.128   0.300   4.562  0.3059  0.1332 -0.7731
16616SOL     OW53889   9.645   3.785   4.195 -0.6612 -0.1297 -0.6253
16616SOL    HW153890   9.720   3.843   4.187  0.9493 -1.8260  1.0033
16616SOL    HW253891   9.663   3.713   4.134 -2.4583  0.7889 -2.3730
16617SOL     OW53892   9.107   3.122   6.376 -0.4579 -0.2015 -0.1516
16617SOL    HW153893   9.089   3.037   6.336 -0.1030 -0.4417  0.1997
16617SOL    HW253894   9.156   3.102   6.455 -0.5394  0.3196  0.0352
16618SOL     OW53895   2.438   9.445   6.605 -0.0253 -0.0816  0.9230
16618SOL    HW153896   2.396   9.468   6.688  0.8885 -0.0277  1.3810
16618SOL    HW253897   2.384   9.488   6.539 -0.6341  0.0657  1.4964
16619SOL     OW53898   0.617   1.257   7.543  0.1058 -0.0088 -0.3754
16619SOL    HW153899   0.651   1.339   7.580 -1.9874  0.7023  0.1223
16619SOL    HW253900   0.552   1.228   7.607  0.3268 -1.7164 -0.8962
16620SOL     OW53901   4.231   9.653  10.235 -0.7672  0.3060 -0.1588
16620SOL    HW153902   4.312   9.700  10.254 -0.2325 -0.2405 -1.0128
16620SOL    HW253903   4.162   9.706  10.276 -0.0132  0.9098  0.3625
16621SOL     OW53904   0.956   0.542   1.830 -0.2366  0.0415 -0.0605
16621SOL    HW153905   0.957   0.606   1.901  0.1098  1.4736 -1.2860
16621SOL    HW253906   1.032   0.566   1.776 -2.1462  0.9473 -2.5278
16622SOL     OW53907   8.072   3.243   1.146 -0.1811  0.4224  0.0354
16622SOL    HW153908   7.982   3.211   1.149  0.4377 -1.3417  1.7140
16622SOL    HW253909   8.063   3.338   1.159 -1.8500  0.5212 -1.3894
16623SOL     OW53910  10.017   7.310   5.626  0.0892  0.3842  0.0325
16623SOL    HW153911   9.962   7.254   5.681 -1.0896  0.6958 -0.7713
16623SOL    HW253912   9.997   7.281   5.536  2.8001 -0.8794 -0.2467
16624SOL     OW53913   9.321   3.375   0.353 -0.0713  0.3022 -0.4537
16624SOL    HW153914   9.258   3.328   0.409  0.2166  0.5619  0.0957
16624SOL    HW253915   9.405   3.364   0.398  0.0485  1.0968 -0.4835
16625SOL     OW53916   5.461   7.664   2.568  0.0919  0.0035 -0.5466
16625SOL    HW153917   5.405   7.709   2.505 -0.4879  1.8424  1.1908
16625SOL    HW253918   5.494   7.733   2.625  1.3531 -1.4720  0.6143
16626SOL     OW53919   2.256   7.730   5.988 -0.2091 -0.1379 -0.2229
16626SOL    HW153920   2.317   7.702   5.920  1.6926  0.9356  0.9521
16626SOL    HW253921   2.207   7.803   5.949 -0.8249 -1.0393 -1.1898
16627SOL     OW53922   2.590   7.611   1.827  0.5284  0.3074 -0.1288
16627SOL    HW153923   2.541   7.650   1.755  0.0228 -1.2974 -0.7106
16627SOL    HW253924   2.524   7.592   1.893  0.5434 -0.6636 -0.3736
16628SOL     OW53925   9.402   1.001   2.438 -0.7079  0.0492  0.1079
16628SOL    HW153926   9.495   1.020   2.446 -0.9188  1.0775  0.3239
16628SOL    HW253927   9.396   0.906   2.441  0.3231 -0.0204  0.1985
16629SOL     OW53928   2.244   8.872   3.564 -0.7050  0.1094  0.0891
16629SOL    HW153929   2.239   8.955   3.517 -0.4451  0.6911  1.0774
16629SOL    HW253930   2.290   8.813   3.504 -0.2312  0.8877 -0.3217
16630SOL     OW53931   1.189   1.547  10.242  0.2872  0.1875  0.0061
16630SOL    HW153932   1.183   1.546  10.147  1.4324  1.7018 -0.1317
16630SOL    HW253933   1.192   1.455  10.267 -1.1973 -0.2654 -1.2990
16631SOL     OW53934   0.390  10.291   1.591  0.0701  0.1470  0.7325
16631SOL    HW153935   0.336  10.230   1.540  1.5925 -0.7307  0.0813
16631SOL    HW253936   0.330  10.360   1.618 -1.6047 -1.3284  0.9845
16632SOL     OW53937   4.893   5.065   9.550 -0.4718 -0.1309 -0.0123
16632SOL    HW153938   4.933   5.085   9.635 -0.7918 -0.6204  0.2536
16632SOL    HW253939   4.963   5.083   9.487 -0.4100  0.7860  0.2986
16633SOL     OW53940   7.624   9.596   1.142 -0.0900 -0.2728 -0.7036
16633SOL    HW153941   7.716   9.576   1.122  0.5753 -0.1061  1.8005
16633SOL    HW253942   7.607   9.678   1.096  1.2059 -0.0247 -0.7815
16634SOL     OW53943   3.457   5.756   1.346  0.1067  0.0369  0.0182
16634SOL    HW153944   3.368   5.742   1.376 -0.0826  0.7906 -0.1544
16634SOL    HW253945   3.465   5.851   1.337  0.1647 -0.1122 -2.2531
16635SOL     OW53946  10.076   0.699   2.811 -0.1612 -0.7174 -0.2343
16635SOL    HW153947  10.111   0.685   2.899 -0.2477  2.1453  0.3707
16635SOL    HW253948  10.010   0.631   2.799  1.3867 -2.5491  0.9726
16636SOL     OW53949   2.876   5.928   3.702  0.2669  0.4948 -0.2547
16636SOL    HW153950   2.794   5.965   3.734  0.6690  0.7935  0.4682
16636SOL    HW253951   2.934   5.929   3.778  0.4478 -1.1988 -0.3371
16637SOL     OW53952   5.248   7.082   3.214  0.2009 -0.2390  0.2224
16637SOL    HW153953   5.316   7.146   3.238  0.4941  0.2437 -1.7147
16637SOL    HW253954   5.275   7.051   3.128 -2.2916  0.3088 -0.8164
16638SOL     OW53955   8.263   6.778   9.706 -0.2566  0.0259  0.0434
16638SOL    HW153956   8.201   6.847   9.679 -0.0954  0.4720  0.7770
16638SOL    HW253957   8.207   6.705   9.733 -0.4423  0.0643 -0.2316
16639SOL     OW53958   3.128   9.065   2.930 -0.7235 -0.0654  0.9040
16639SOL    HW153959   3.145   9.120   2.853 -1.3841 -2.3167 -0.9884
16639SOL    HW253960   3.065   9.115   2.982 -0.5260  1.3844 -0.1975
16640SOL     OW53961   9.510   0.886   4.011 -1.0301 -0.0772 -0.1746
16640SOL    HW153962   9.562   0.966   4.016 -0.6711 -0.3735  2.3310
16640SOL    HW253963   9.428   0.912   3.971  0.0032  0.9766 -1.7150
16641SOL     OW53964   5.515   7.532   8.777 -0.2384  0.1380  0.2400
16641SOL    HW153965   5.558   7.464   8.726  0.2478  0.4814  0.1819
16641SOL    HW253966   5.446   7.486   8.825 -0.4117 -0.2602 -0.3776
16642SOL     OW53967   9.922   8.153   4.582  0.3180  0.1340  0.1666
16642SOL    HW153968   9.836   8.149   4.541  0.1865  2.3670  0.0869
16642SOL    HW253969   9.946   8.246   4.577  2.2998 -0.2879  1.0654
16643SOL     OW53970   7.411   9.895   6.761 -0.7118  0.0041  0.3495
16643SOL    HW153971   7.320   9.891   6.791 -0.9206 -1.6850 -0.3864
16643SOL    HW253972   7.409   9.861   6.672  0.6908 -0.4106  0.4473
16644SOL     OW53973   7.474   4.427   8.371  0.5654  0.5304  0.2594
16644SOL    HW153974   7.412   4.357   8.393 -0.5609  0.2539 -3.1076
16644SOL    HW253975   7.560   4.388   8.380  0.1081 -0.1794  1.7314
16645SOL     OW53976   6.211   0.395   1.054  0.7087  0.0908  0.0737
16645SOL    HW153977   6.129   0.437   1.029 -0.3345 -1.3953  0.8844
16645SOL    HW253978   6.237   0.439   1.135  1.0561  0.9575 -0.4859
16646SOL     OW53979   6.491   5.701   5.552 -0.1686  0.6874  0.3388
16646SOL    HW153980   6.473   5.670   5.641  1.0845  1.5999  0.9396
16646SOL    HW253981   6.533   5.627   5.508 -0.4172  0.3692  0.6316
16647SOL     OW53982   9.751   6.207  10.280  0.0667  0.3902 -0.0481
16647SOL    HW153983   9.785   6.281  10.230 -2.6827  2.9297  1.4659
16647SOL    HW253984   9.808   6.200  10.356  0.2640  1.0603 -0.1325
16648SOL     OW53985   6.192   5.406   0.372 -0.0121 -0.3802  0.1111
16648SOL    HW153986   6.169   5.453   0.452 -1.6422 -0.3541 -0.3336
16648SOL    HW253987   6.250   5.335   0.401 -0.5023 -0.3165  1.2941
16649SOL     OW53988   1.323   8.949   2.854 -0.0321  0.0328  0.2249
16649SOL    HW153989   1.345   8.936   2.762  0.1622 -1.5499  0.4609
16649SOL    HW253990   1.401   8.988   2.893  0.8386 -1.6137  0.1987
16650SOL     OW53991   9.465   0.399   3.635  0.2897  0.0978 -0.1390
16650SOL    HW153992   9.534   0.389   3.570  0.4757 -0.0727  0.0860
16650SOL    HW253993   9.491   0.477   3.686  0.5520 -0.2288  0.2343
16651SOL     OW53994   8.295   4.137   3.670  0.3583  0.4469 -0.1692
16651SOL    HW153995   8.328   4.189   3.743  3.0445  1.0031 -1.6666
16651SOL    HW253996   8.292   4.048   3.703 -0.4992  0.9521  1.2099
16652SOL     OW53997   1.067   6.961   6.138 -0.2615 -0.0852  0.3638
16652SOL    HW153998   1.120   7.015   6.080 -1.0716 -0.2450 -0.5459
16652SOL    HW253999   0.983   6.954   6.094 -0.6816 -0.7590  1.2481
16653SOL     OW54000   7.417   7.251  10.213 -0.4120  0.2566  0.1642
16653SOL    HW154001   7.422   7.340  10.247 -2.2151  0.5984 -0.4031
16653SOL    HW254002   7.385   7.199  10.287  0.3570  0.1119  0.4070
16654SOL     OW54003   8.202   2.289   2.583 -0.0685  0.0418  0.4614
16654SOL    HW154004   8.222   2.200   2.614  1.5166  0.0669 -0.3935
16654SOL    HW254005   8.130   2.276   2.521  0.0661 -0.6374  0.4333
16655SOL     OW54006   8.248   5.543   4.125  0.1053  0.1933 -0.0833
16655SOL    HW154007   8.214   5.505   4.044 -1.5792  1.8474 -0.2343
16655SOL    HW254008   8.292   5.623   4.096  0.0567  0.4602  0.5706
16656SOL     OW54009   8.346   7.855   8.487 -0.4981  0.0169 -0.4388
16656SOL    HW154010   8.285   7.796   8.531 -0.5668  0.8401  0.6178
16656SOL    HW254011   8.319   7.853   8.395 -0.2954 -1.8093 -0.4894
16657SOL     OW54012   8.576   5.083   0.872 -0.0624 -0.3036  0.1825
16657SOL    HW154013   8.541   5.129   0.948 -0.8920 -2.1644  0.9730
16657SOL    HW254014   8.671   5.098   0.876 -0.2557  0.9653  0.6102
16658SOL     OW54015   6.337   7.482   7.477  0.6651  0.0745 -0.4579
16658SOL    HW154016   6.396   7.544   7.435  1.3671 -1.2508 -1.5155
16658SOL    HW254017   6.373   7.396   7.454  0.5617 -0.7430  2.1340
16659SOL     OW54018   3.549   3.878   6.807 -0.1224 -0.3713 -0.0241
16659SOL    HW154019   3.569   3.869   6.714 -2.1040 -2.1182 -0.3653
16659SOL    HW254020   3.500   3.799   6.829 -0.3553  0.3436  2.3390
16660SOL     OW54021  10.262   6.971   5.506 -0.1278 -0.1261  0.1699
16660SOL    HW154022  10.299   7.026   5.575 -1.5940 -1.0855  1.7675
16660SOL    HW254023  10.317   6.893   5.505 -0.4545 -0.3584  0.6315
16661SOL     OW54024   9.341   0.343   3.870 -0.3217  0.0662 -0.0945
16661SOL    HW154025   9.249   0.359   3.849 -0.6976 -1.6187  0.1070
16661SOL    HW254026   9.384   0.338   3.785 -0.0444  2.6271 -0.1590
16662SOL     OW54027   3.085   5.001   8.238  0.1511 -0.2651  0.3087
16662SOL    HW154028   3.115   5.088   8.265 -1.5172 -0.0667  1.6865
16662SOL    HW254029   2.994   4.997   8.267  0.3465 -2.6780  0.7459
16663SOL     OW54030   6.896   4.729   2.953  0.7325 -0.3495 -0.4652
16663SOL    HW154031   6.885   4.820   2.980  0.9544 -0.3383 -0.4129
16663SOL    HW254032   6.960   4.693   3.015  0.2984 -0.6677 -0.1918
16664SOL     OW54033   3.122   0.814   9.490  0.0799 -0.3564  0.0255
16664SOL    HW154034   3.213   0.785   9.489 -0.0822 -0.8557 -0.2921
16664SOL    HW254035   3.072   0.737   9.464 -0.2799  0.4759 -1.9330
16665SOL     OW54036   3.611   1.360   1.273 -0.4702 -0.0853 -0.1157
16665SOL    HW154037   3.535   1.321   1.230 -1.4699  0.7018  0.8334
16665SOL    HW254038   3.651   1.289   1.322 -1.3200 -0.2863  0.3166
16666SOL     OW54039   9.008   9.169   8.724 -0.5911 -0.4854 -0.5004
16666SOL    HW154040   9.089   9.209   8.758 -1.1818  1.4591 -1.2433
16666SOL    HW254041   8.970   9.125   8.800  0.3308 -0.0155  0.2608
16667SOL     OW54042  10.235   5.602   4.637 -0.0151  0.2749 -0.3486
16667SOL    HW154043  10.310   5.563   4.593  0.3970  1.8027 -1.0686
16667SOL    HW254044  10.162   5.589   4.576 -0.3757 -1.2368  0.3650
16668SOL     OW54045   2.086   8.770   9.596  0.5474 -0.2054 -0.7167
16668SOL    HW154046   2.122   8.842   9.647  0.0340 -0.8688  0.6355
16668SOL    HW254047   1.992   8.790   9.589  0.4714 -0.5469 -0.6735
16669SOL     OW54048   9.996  10.123   4.279 -0.0306 -0.0381  0.6099
16669SOL    HW154049  10.022  10.162   4.196  1.0547 -0.9940  0.4728
16669SOL    HW254050   9.971  10.034   4.258  0.3778 -0.3316  1.3090
16670SOL     OW54051   3.752   1.377   7.649  0.3328 -0.1020 -0.7381
16670SOL    HW154052   3.780   1.406   7.562 -0.4622 -2.2607 -1.7926
16670SOL    HW254053   3.833   1.349   7.692  0.7444  1.0601 -0.7165
16671SOL     OW54054   2.412   4.871   1.585  0.1475 -0.0371  0.0461
16671SOL    HW154055   2.369   4.892   1.502  0.9383  0.0984 -0.3299
16671SOL    HW254056   2.442   4.781   1.575  1.2094  0.3381 -0.2313
16672SOL     OW54057   1.427   0.953   3.954 -0.2193 -0.2820 -0.0263
16672SOL    HW154058   1.445   1.028   3.898  0.7552 -0.5325 -0.0665
16672SOL    HW254059   1.463   0.878   3.906  0.3713 -0.5382  0.7994
16673SOL     OW54060   3.511   6.461   5.946 -0.8837  0.1338  0.5388
16673SOL    HW154061   3.602   6.486   5.929 -0.8885  0.3718  0.8584
16673SOL    HW254062   3.459   6.523   5.895 -0.8609 -0.2626  0.0258
16674SOL     OW54063   4.928   9.306   6.222  0.3029  0.3614 -0.3825
16674SOL    HW154064   5.023   9.319   6.219  0.3754  0.1689  0.7337
16674SOL    HW254065   4.903   9.291   6.131  1.7174 -2.1606 -0.4524
16675SOL     OW54066   1.963   9.973   4.568 -0.2213  0.0830 -0.1510
16675SOL    HW154067   1.893   9.983   4.503 -2.1821 -0.3414  1.7516
16675SOL    HW254068   1.986   9.880   4.564 -0.5044  0.0085 -0.0750
16676SOL     OW54069   1.889   4.712   2.112  0.5424  0.1916 -0.8624
16676SOL    HW154070   1.951   4.648   2.146 -0.0908 -0.9294 -1.7507
16676SOL    HW254071   1.804   4.668   2.116  0.1367  0.8484 -1.7919
16677SOL     OW54072   9.884   4.549   3.166  0.6855 -0.3358 -0.2687
16677SOL    HW154073   9.912   4.604   3.093 -1.1655  2.2675  0.8194
16677SOL    HW254074   9.935   4.582   3.241 -0.8593  0.3916  0.5161
16678SOL     OW54075   6.278   7.650   9.050 -0.0339 -0.4796  0.3988
16678SOL    HW154076   6.332   7.620   8.978  1.4910 -1.8007  2.0288
16678SOL    HW254077   6.224   7.575   9.073  0.2772 -0.4342  1.3255
16679SOL     OW54078   4.033   4.308   9.315  0.2424 -0.3975 -0.6492
16679SOL    HW154079   4.018   4.364   9.238 -0.3785 -0.7069 -0.7574
16679SOL    HW254080   3.969   4.338   9.379 -0.7033 -1.5459 -1.0145
16680SOL     OW54081   1.387   6.131   5.445 -0.3070 -0.1984  0.6264
16680SOL    HW154082   1.471   6.177   5.449 -0.3965 -0.1570  3.1991
16680SOL    HW254083   1.321   6.197   5.463 -1.1296  0.0586 -2.6728
16681SOL     OW54084   4.212   1.625  10.214  0.1734 -0.0816  0.1500
16681SOL    HW154085   4.288   1.633  10.156 -1.0751  0.6919 -1.4468
16681SOL    HW254086   4.142   1.672  10.170 -1.1399 -0.3564  1.8109
16682SOL     OW54087   7.294   5.875   7.145  0.0891  0.5838 -0.1559
16682SOL    HW154088   7.381   5.838   7.158 -0.4839 -0.8241 -0.2287
16682SOL    HW254089   7.311   5.959   7.101  1.3312 -0.3307 -1.5179
16683SOL     OW54090   6.851   8.697  10.115  0.7508  0.4659  0.3102
16683SOL    HW154091   6.849   8.784  10.075  0.0376  0.7463  0.9524
16683SOL    HW254092   6.836   8.712  10.208  0.9950 -0.3140  0.4854
16684SOL     OW54093   2.028   1.992   2.244 -0.1737  0.1658 -0.1455
16684SOL    HW154094   1.993   1.978   2.332  0.5119 -0.2424  0.0717
16684SOL    HW254095   2.112   1.946   2.245  0.7408  1.7558 -0.3911
16685SOL     OW54096   2.191  10.075   4.424 -0.0876  0.2794  0.4795
16685SOL    HW154097   2.243   9.997   4.409 -0.4974 -0.3038  1.9179
16685SOL    HW254098   2.115  10.045   4.475 -0.3038  1.5787  0.9892
16686SOL     OW54099   3.477   2.901   2.392 -0.5467 -0.2428 -0.5231
16686SOL    HW154100   3.460   2.970   2.327 -1.5808  1.2395  1.2345
16686SOL    HW254101   3.423   2.828   2.363 -1.0151  0.3887 -1.3176
16687SOL     OW54102   9.838   2.317   3.623  0.1240  0.2399  0.2476
16687SOL    HW154103   9.776   2.275   3.562  1.6719  0.6291 -1.7062
16687SOL    HW254104   9.794   2.314   3.708 -2.3048 -0.0308 -0.9311
16688SOL     OW54105   8.064   3.593   2.317  0.2921 -0.1785 -0.4370
16688SOL    HW154106   8.035   3.678   2.283  0.5274 -0.6202 -1.7968
16688SOL    HW254107   8.124   3.560   2.250  1.2362 -0.8371  0.7008
16689SOL     OW54108   6.751   3.369   1.713 -0.2678  0.3771 -0.5460
16689SOL    HW154109   6.781   3.450   1.754  0.3192  0.7591 -1.6920
16689SOL    HW254110   6.659   3.362   1.739 -0.2019  1.1644 -0.0553
16690SOL     OW54111   9.502   4.161  10.200 -0.4685 -0.2849  0.3762
16690SOL    HW154112   9.462   4.201  10.277 -0.0888  1.2526 -0.2026
16690SOL    HW254113   9.428   4.121  10.153 -0.9753  0.3658  0.6029
16691SOL     OW54114   4.902   8.383   8.468  0.1324  0.8511 -0.4092
16691SOL    HW154115   4.989   8.358   8.498 -1.2613 -3.3024  0.8646
16691SOL    HW254116   4.854   8.404   8.548 -0.9412 -0.3468 -0.7114
16692SOL     OW54117   9.990   0.485   3.923  0.1911 -0.3679  0.2013
16692SOL    HW154118   9.939   0.547   3.975  0.2453  0.0712 -0.2614
16692SOL    HW254119  10.018   0.535   3.847  1.0820 -0.6876  0.3098
16693SOL     OW54120   6.051   7.335   7.718  0.4457 -0.0572 -0.4818
16693SOL    HW154121   6.063   7.273   7.646  0.3364  1.2396 -1.6433
16693SOL    HW254122   6.036   7.419   7.676 -1.4257  0.4418  1.0415
16694SOL     OW54123   8.568   1.935   7.505  0.3356 -1.1463 -0.2623
16694SOL    HW154124   8.490   1.893   7.542 -0.3593 -0.3670 -0.8271
16694SOL    HW254125   8.575   1.898   7.417 -2.2247  2.1936 -2.1012
16695SOL     OW54126   7.232   8.871   9.228  0.2661 -0.2269 -0.6023
16695SOL    HW154127   7.270   8.958   9.236 -0.3773 -0.0376  0.7657
16695SOL    HW254128   7.292   8.814   9.275  0.0559 -0.3081 -0.4266
16696SOL     OW54129   2.062   7.414   4.694  0.3128 -0.1796 -0.4212
16696SOL    HW154130   2.006   7.368   4.631  1.9483 -1.7868 -0.7567
16696SOL    HW254131   2.011   7.413   4.775 -0.9697  0.1407 -1.1893
16697SOL     OW54132   9.967   9.807   8.563 -0.2366 -0.2606  0.2510
16697SOL    HW154133   9.988   9.814   8.656  0.3221  1.4633  0.0365
16697SOL    HW254134  10.042   9.761   8.526 -0.5927 -1.2066  0.6826
16698SOL     OW54135   9.172   8.681   5.488  0.2477  0.0705 -0.1443
16698SOL    HW154136   9.078   8.690   5.500 -0.2509  0.4609 -3.3927
16698SOL    HW254137   9.205   8.771   5.491  0.3196  0.0497 -0.3126
16699SOL     OW54138   8.957   9.087   1.978  0.5639 -0.3720 -0.3462
16699SOL    HW154139   9.006   9.039   1.911  0.6370  0.7993 -1.1617
16699SOL    HW254140   8.885   9.028   2.001  0.8512 -1.0266 -1.0574
16700SOL     OW54141   6.430   4.669   6.997 -0.2242  0.0997  0.8573
16700SOL    HW154142   6.515   4.675   6.953  0.1281  3.0164  1.6884
16700SOL    HW254143   6.367   4.705   6.934 -0.7157 -1.1638  0.6008
16701SOL     OW54144   7.101   5.727   9.403  0.0720  0.3711  0.1051
16701SOL    HW154145   7.169   5.702   9.341  0.9459 -0.3709  1.3311
16701SOL    HW254146   7.101   5.658   9.469 -0.5029  1.3828  1.2071
16702SOL     OW54147   5.027   4.799   4.717 -0.4940  0.5830  0.4098
16702SOL    HW154148   5.011   4.843   4.801  0.7867  1.5425  0.1906
16702SOL    HW254149   5.092   4.732   4.738  0.5143  1.4173  0.0595
16703SOL     OW54150   9.964   9.608   3.410  0.1933 -0.1389 -0.1138
16703SOL    HW154151  10.017   9.594   3.331  1.2097 -3.1208  0.9409
16703SOL    HW254152   9.874   9.587   3.382  0.4082 -0.3196 -0.6885
16704SOL     OW54153   1.119   9.509   5.657  0.0948  0.1610 -0.1727
16704SOL    HW154154   1.082   9.519   5.569 -3.0469 -0.1238  0.9688
16704SOL    HW254155   1.213   9.523   5.646 -0.2420  0.5858 -3.4668
16705SOL     OW54156   3.496   1.479   5.408 -0.3353  0.1485 -0.0045
16705SOL    HW154157   3.487   1.506   5.317 -1.3459  1.0425  0.3427
16705SOL    HW254158   3.517   1.386   5.403  1.6172  0.5939 -1.1927
16706SOL     OW54159   0.357   3.555   4.378  0.6905 -0.1807  0.2600
16706SOL    HW154160   0.387   3.484   4.321  2.4492 -0.4204  1.4124
16706SOL    HW254161   0.280   3.519   4.423 -0.1508 -0.3178 -1.1980
16707SOL     OW54162   2.936   4.343   1.115  0.1397 -0.1423  0.1637
16707SOL    HW154163   2.986   4.312   1.190 -0.3791 -0.6201  0.3210
16707SOL    HW254164   2.878   4.410   1.151  0.4342  0.1801  0.0423
16708SOL     OW54165   8.419   4.163   2.954 -0.3658 -0.5737  0.6151
16708SOL    HW154166   8.436   4.256   2.962 -0.3411 -0.3542 -1.4432
16708SOL    HW254167   8.430   4.128   3.043 -0.6590  1.4026  1.4701
16709SOL     OW54168   3.874   0.746   1.537  0.0122  0.1686  0.7102
16709SOL    HW154169   3.925   0.801   1.477  1.5948 -1.1897  0.7310
16709SOL    HW254170   3.933   0.730   1.611 -0.3300 -1.6424  0.6320
16710SOL     OW54171   9.132   4.177   4.399 -0.0255 -0.2679  0.3703
16710SOL    HW154172   9.096   4.233   4.330  1.1325  1.5611  1.1809
16710SOL    HW254173   9.097   4.214   4.480 -1.8360 -2.7322  0.8323
16711SOL     OW54174   4.856   9.801  10.177  0.1774  0.0817 -0.2215
16711SOL    HW154175   4.843   9.760  10.091  0.8369 -1.7430  0.4972
16711SOL    HW254176   4.863   9.728  10.238 -1.6433  1.3333  1.6441
16712SOL     OW54177   9.554   3.577   9.117  0.0072  0.4474  0.1038
16712SOL    HW154178   9.648   3.581   9.099  0.8385 -1.9501  3.0637
16712SOL    HW254179   9.513   3.616   9.040  3.3921  1.9152 -1.1574
16713SOL     OW54180   0.603   0.560   8.578  0.0595  0.4427 -0.0971
16713SOL    HW154181   0.527   0.538   8.631 -0.4223 -0.4125 -1.0991
16713SOL    HW254182   0.566   0.605   8.501  0.8078  2.5016  0.6772
16714SOL     OW54183   5.836   2.074   2.655 -0.5029 -0.4210  0.0595
16714SOL    HW154184   5.834   2.051   2.747 -0.7365 -0.0918  0.1361
16714SOL    HW254185   5.930   2.079   2.634 -0.4317  0.8536  0.6188
16715SOL     OW54186   1.284   6.751   3.875  0.2442  0.2425 -0.3822
16715SOL    HW154187   1.252   6.817   3.813 -1.2529 -1.9860 -2.1622
16715SOL    HW254188   1.209   6.691   3.886  1.2307 -0.6892  1.8522
16716SOL     OW54189   2.675   5.264   8.232 -0.1102 -0.4075 -0.0777
16716SOL    HW154190   2.741   5.331   8.216  1.2953 -1.3185  1.6073
16716SOL    HW254191   2.621   5.301   8.302 -0.0146 -0.5853  0.0890
16717SOL     OW54192   7.732   6.562   5.723  0.2989  0.1062  0.4033
16717SOL    HW154193   7.660   6.588   5.781 -0.0148  0.1702 -0.0035
16717SOL    HW254194   7.773   6.488   5.767  0.2843  0.3743  0.8733
16718SOL     OW54195   1.045   2.813   1.985  0.1571  0.1449 -0.0025
16718SOL    HW154196   1.005   2.899   1.978 -0.2521  0.1580  1.9561
16718SOL    HW254197   1.065   2.803   2.078  0.1665 -1.8806 -0.1741
16719SOL     OW54198   6.159   2.447   7.090 -0.2855  0.4650 -0.1588
16719SOL    HW154199   6.159   2.415   7.000  0.4407  0.2065 -0.0733
16719SOL    HW254200   6.249   2.436   7.119 -0.5595  0.3462  0.6733
16720SOL     OW54201  10.237   3.570   3.237  0.7970 -0.0966 -0.0296
16720SOL    HW154202  10.332   3.581   3.234  0.9335 -0.6085  1.4910
16720SOL    HW254203  10.203   3.655   3.266  1.0021 -0.4983  1.5166
16721SOL     OW54204   4.008   5.261   4.313  0.5790  0.2751  0.6554
16721SOL    HW154205   4.053   5.296   4.390  0.1752 -0.5207  1.2688
16721SOL    HW254206   3.985   5.339   4.262  1.9411  0.7544  0.7054
16722SOL     OW54207   9.326   6.505   3.969 -0.5121  0.1983  0.2527
16722SOL    HW154208   9.413   6.484   3.935 -0.5944  0.1070  0.0987
16722SOL    HW254209   9.327   6.601   3.978 -1.0613  0.4057 -1.5869
16723SOL     OW54210   0.994   3.931   5.291  0.5067 -0.0619 -0.4137
16723SOL    HW154211   1.022   3.901   5.377  2.3354  1.2998 -0.4655
16723SOL    HW254212   0.912   3.977   5.307 -0.0188 -1.2049  0.3144
16724SOL     OW54213   6.832   9.477   1.067 -0.4050  0.1522 -0.2370
16724SOL    HW154214   6.902   9.537   1.093 -0.3386 -0.7566  1.8613
16724SOL    HW254215   6.756   9.534   1.053 -0.1129  0.8442  0.8467
16725SOL     OW54216   9.827   6.103   6.552  0.5993  0.0361 -0.8971
16725SOL    HW154217   9.752   6.047   6.534  1.0994 -0.0039 -3.2082
16725SOL    HW254218   9.901   6.043   6.562  0.3266  0.0363  1.9365
16726SOL     OW54219   5.740   2.731   2.615  1.0170 -0.0389 -0.5029
16726SOL    HW154220   5.755   2.759   2.524  1.2752 -2.1924 -1.1687
16726SOL    HW254221   5.784   2.647   2.622  1.2286  0.1948  1.7393
16727SOL     OW54222   6.539   4.363   4.533  0.0159  0.2095  0.3254
16727SOL    HW154223   6.532   4.293   4.598 -0.9793  0.6254  0.6810
16727SOL    HW254224   6.631   4.388   4.535 -0.2150  1.1385  2.5927
16728SOL     OW54225   7.963   5.674   4.779  0.1339  0.0925 -0.8555
16728SOL    HW154226   7.976   5.705   4.689 -0.0088 -2.9870 -2.0545
16728SOL    HW254227   7.964   5.578   4.772 -1.0066 -0.2675  2.2787
16729SOL     OW54228  10.018   6.588   7.229  0.3446  0.0320  0.0917
16729SOL    HW154229  10.049   6.498   7.242 -0.5471 -0.3049  0.0313
16729SOL    HW254230   9.948   6.579   7.163  0.2920  0.7791  0.0413
16730SOL     OW54231   3.750   6.945   6.678 -0.1657 -0.5098  0.5045
16730SOL    HW154232   3.762   6.985   6.591  0.7802 -2.1702 -0.1770
16730SOL    HW254233   3.665   6.902   6.673 -0.5320  0.1880  0.7296
16731SOL     OW54234   3.937   2.494   3.166 -0.6115  0.4820  0.3520
16731SOL    HW154235   3.893   2.483   3.082  0.4569 -0.5560 -0.0953
16731SOL    HW254236   4.000   2.423   3.170 -1.5211 -0.2905  2.6349
16732SOL     OW54237   4.205   4.410   4.550  0.5943 -0.1236  0.0221
16732SOL    HW154238   4.182   4.379   4.638 -1.6998 -0.4752 -0.6349
16732SOL    HW254239   4.132   4.467   4.525  1.5762  0.5685 -1.3659
16733SOL     OW54240   1.975   8.107   4.649 -0.1237  0.0178  0.2738
16733SOL    HW154241   2.054   8.059   4.673 -0.6898 -0.5366  1.0754
16733SOL    HW254242   1.926   8.116   4.731 -0.7666  0.5913 -0.1608
16734SOL     OW54243   0.465   7.917  10.068  0.3806 -0.3713  0.0696
16734SOL    HW154244   0.401   7.886  10.004  0.8445  0.2185 -0.7055
16734SOL    HW254245   0.467   7.850  10.136 -0.3743 -0.8411 -0.3651
16735SOL     OW54246   1.018   2.076   8.581  0.4176 -0.5258 -0.0622
16735SOL    HW154247   1.054   2.006   8.635  0.5000 -1.1911 -0.9722
16735SOL    HW254248   0.937   2.101   8.625  1.1417 -0.1231  1.1124
16736SOL     OW54249   6.581   6.350   3.330 -0.1001  0.4575 -0.3342
16736SOL    HW154250   6.513   6.327   3.267  1.4681 -0.2196 -1.8554
16736SOL    HW254251   6.663   6.337   3.283  1.1441  0.2436  1.7661
16737SOL     OW54252   5.465   1.862   5.547 -0.4072  0.2095  0.5647
16737SOL    HW154253   5.400   1.931   5.562  0.6556  0.8894  2.3718
16737SOL    HW254254   5.414   1.781   5.552 -1.2604  0.7568  1.1418
16738SOL     OW54255   0.370  10.266   8.753  0.1186 -0.2141 -0.1837
16738SOL    HW154256   0.383  10.359   8.731 -0.2606 -0.5146 -1.8204
16738SOL    HW254257   0.296  10.266   8.814 -0.2904  0.5312 -0.6589
16739SOL     OW54258   0.631   1.256   0.666 -0.0180 -0.1111  0.7749
16739SOL    HW154259   0.607   1.165   0.645  0.4002 -0.1459  0.4415
16739SOL    HW254260   0.685   1.249   0.744 -1.5762  0.0184  1.9207
16740SOL     OW54261   2.517   1.257   2.043 -0.3296 -0.3592  0.0152
16740SOL    HW154262   2.440   1.214   2.005 -0.5108 -0.7773  0.8373
16740SOL    HW254263   2.552   1.193   2.105 -1.4062  1.1514  2.3066
16741SOL     OW54264   8.606   2.297   6.195 -0.1045 -0.3855  0.3565
16741SOL    HW154265   8.647   2.221   6.154  0.5569  0.2449 -0.1700
16741SOL    HW254266   8.664   2.318   6.269  0.7744  0.7518 -0.6256
16742SOL     OW54267   9.760   0.257   9.722  0.4835  0.2311 -0.4831
16742SOL    HW154268   9.775   0.320   9.652  3.5009 -0.6586 -0.7839
16742SOL    HW254269   9.783   0.304   9.802  0.4099  0.2263 -0.4590
16743SOL     OW54270   3.521   8.186   2.857  0.9039  0.0636  0.1375
16743SOL    HW154271   3.446   8.188   2.798  0.3769  0.5356  0.8150
16743SOL    HW254272   3.504   8.256   2.920  2.6649  1.2638 -0.6237
16744SOL     OW54273   8.286   1.598   7.491  0.2443  0.8633  0.5216
16744SOL    HW154274   8.321   1.574   7.577 -0.5226 -0.1320  0.5735
16744SOL    HW254275   8.204   1.644   7.510 -1.1729 -1.4622  0.3033
16745SOL     OW54276   2.700   1.714   1.239  0.4497  0.3666  0.2557
16745SOL    HW154277   2.769   1.741   1.299 -0.5421 -0.1637  1.6999
16745SOL    HW254278   2.667   1.796   1.201  0.1734  0.8608  1.5173
16746SOL     OW54279   1.315   7.478   0.022 -0.4213  0.9546 -0.5012
16746SOL    HW154280   1.236   7.451   0.068 -1.1989  1.5440 -1.4525
16746SOL    HW254281   1.319   7.422  -0.055  0.6309  0.2717  0.0289
16747SOL     OW54282   3.683   9.925   0.674 -0.1481 -0.0246 -0.2248
16747SOL    HW154283   3.594   9.901   0.697 -0.4257  1.2745  0.0922
16747SOL    HW254284   3.681  10.019   0.660  0.7324 -0.2493 -2.2545
16748SOL     OW54285   3.776   1.877   6.754 -0.2870 -0.0794 -0.0778
16748SOL    HW154286   3.794   1.863   6.847  1.2743 -1.2140 -0.5110
16748SOL    HW254287   3.680   1.881   6.749 -0.4188 -0.2705  1.5259
16749SOL     OW54288   2.486   2.650   5.989  0.1142  0.2894 -0.5932
16749SOL    HW154289   2.547   2.577   5.976  0.5831  0.7352 -0.9503
16749SOL    HW254290   2.433   2.624   6.064 -0.4684 -0.9046 -1.4009
16750SOL     OW54291   3.732   0.959   9.907 -0.2317  0.6455  0.1533
16750SOL    HW154292   3.669   0.945   9.978  1.1058 -1.4275  1.0466
16750SOL    HW254293   3.681   0.950   9.827 -1.2860  0.2800  0.8504
16751SOL     OW54294   0.289   3.542   9.921  0.8421 -0.2389  0.7723
16751SOL    HW154295   0.379   3.562   9.947  0.5257  0.2222  1.5627
16751SOL    HW254296   0.289   3.548   9.826  1.7712 -0.7958  0.7256
16752SOL     OW54297   8.936   8.777   1.882 -0.7184 -0.1867 -0.0697
16752SOL    HW154298   8.921   8.684   1.899 -1.4599  0.0347  0.6015
16752SOL    HW254299   8.849   8.811   1.861 -0.4384  0.3365 -0.3858
16753SOL     OW54300   6.474   7.404   8.526  0.1866  0.2830 -0.4787
16753SOL    HW154301   6.507   7.331   8.578  0.5608  0.4563 -0.4700
16753SOL    HW254302   6.547   7.465   8.522 -0.1975  0.7555 -0.3068
16754SOL     OW54303   4.613   1.213   6.581 -0.0713 -0.7668 -0.9046
16754SOL    HW154304   4.566   1.145   6.533 -1.3426  0.4290 -1.4205
16754SOL    HW254305   4.545   1.273   6.611  0.6794 -1.2466  2.1699
16755SOL     OW54306   3.661   7.103   1.611 -0.8616  0.2771 -0.2396
16755SOL    HW154307   3.656   7.182   1.665 -0.4499 -0.1449  0.4265
16755SOL    HW254308   3.654   7.031   1.673  0.6090 -0.2273 -0.6372
16756SOL     OW54309   6.258   6.178   6.904  0.0445 -0.3567 -0.6454
16756SOL    HW154310   6.282   6.222   6.822  0.0236 -0.0823 -0.5052
16756SOL    HW254311   6.239   6.250   6.964  2.5882 -0.4384  0.3877
16757SOL     OW54312   0.895   1.057   4.832 -0.5998  0.1648  0.5559
16757SOL    HW154313   0.840   1.135   4.833 -2.0496 -0.7792 -0.7629
16757SOL    HW254314   0.859   1.003   4.762  1.5889 -0.8379  0.1097
16758SOL     OW54315   1.251   8.201   6.788 -0.6867  0.0781  0.4972
16758SOL    HW154316   1.313   8.205   6.861 -0.0980 -0.5427  0.0423
16758SOL    HW254317   1.170   8.168   6.828 -0.0588 -1.2950  0.6864
16759SOL     OW54318   3.847   4.373   0.567 -0.5876  0.0854  0.4102
16759SOL    HW154319   3.828   4.466   0.553 -0.5841 -0.0923 -0.9326
16759SOL    HW254320   3.935   4.371   0.604 -0.4200  0.5972  0.0458
16760SOL     OW54321   6.459   1.444   6.330  0.3593  0.8404 -0.1897
16760SOL    HW154322   6.446   1.400   6.246  1.8200 -0.1120  0.0571
16760SOL    HW254323   6.428   1.534   6.314  1.3069  0.8975 -1.9845
16761SOL     OW54324   2.499  10.283   3.833 -0.7094 -0.2760  0.7856
16761SOL    HW154325   2.406  10.259   3.834 -0.7852  0.0221  0.9115
16761SOL    HW254326   2.515  10.318   3.920  0.0213 -2.2124  1.4865
16762SOL     OW54327   1.914  10.233   7.314  0.0509 -0.1358 -0.0846
16762SOL    HW154328   1.929  10.237   7.408 -0.1898  0.8521 -0.0775
16762SOL    HW254329   1.850  10.162   7.303 -0.0906 -0.1063  0.5210
16763SOL     OW54330   4.184   6.285   2.589  0.1715  0.0136 -0.6026
16763SOL    HW154331   4.089   6.293   2.575 -0.0754 -0.0089  0.8964
16763SOL    HW254332   4.201   6.191   2.583  0.1291  0.0259 -0.9777
16764SOL     OW54333   9.778   6.806   4.651  0.0783  0.3595  0.5920
16764SOL    HW154334   9.689   6.841   4.655 -0.4870 -1.0882  1.2781
16764SOL    HW254335   9.785   6.771   4.562  0.7017  2.2239 -0.1541
16765SOL     OW54336   0.591   6.002   2.456  0.0995  0.2868  0.7386
16765SOL    HW154337   0.510   6.004   2.506 -0.4504 -0.5292 -0.0868
16765SOL    HW254338   0.659   6.026   2.519 -0.7472  0.7380  1.4943
16766SOL     OW54339   5.355   0.696   5.581  0.3922 -0.2998 -0.1862
16766SOL    HW154340   5.337   0.639   5.506  0.5165 -0.6470  0.0439
16766SOL    HW254341   5.318   0.648   5.655  1.8920 -0.8333  0.2437
16767SOL     OW54342   3.558   6.962   4.076 -0.4191  0.1179  0.1856
16767SOL    HW154343   3.650   6.954   4.053 -0.6722 -1.0771 -0.4987
16767SOL    HW254344   3.551   7.047   4.120  1.0079  0.1901  0.3126
16768SOL     OW54345   2.256   2.340   5.128  0.1787  0.2475 -0.0973
16768SOL    HW154346   2.348   2.351   5.104 -0.1807  0.4833 -1.4252
16768SOL    HW254347   2.228   2.429   5.152  0.0253  0.3598 -0.6926
16769SOL     OW54348   9.123   2.591   3.999 -0.0565  0.2551 -0.0695
16769SOL    HW154349   9.208   2.622   3.969  0.9335 -1.7787  0.4240
16769SOL    HW254350   9.127   2.598   4.095  1.1097 -3.1727  0.2891
16770SOL     OW54351   6.715   1.407  10.261 -0.1348 -0.3410  0.3300
16770SOL    HW154352   6.774   1.426  10.334 -1.3277 -0.0429  1.2380
16770SOL    HW254353   6.768   1.355  10.201  1.7351  1.6425  0.1089
16771SOL     OW54354   3.944   4.073   9.404  0.2685 -0.1117  0.0667
16771SOL    HW154355   3.931   4.026   9.322 -0.3979  1.3411 -0.7041
16771SOL    HW254356   3.983   4.157   9.379 -1.4008  1.0281  1.0006
16772SOL     OW54357   7.664   4.746   3.317 -0.3211 -0.2851  0.7268
16772SOL    HW154358   7.670   4.716   3.227  1.4127  0.7271  0.4782
16772SOL    HW254359   7.741   4.708   3.360  0.0504  1.0055  1.2293
16773SOL     OW54360   9.355   6.070   4.993  0.0675 -0.1483 -0.2492
16773SOL    HW154361   9.288   6.090   4.927 -1.1960  2.7156  1.7237
16773SOL    HW254362   9.306   6.041   5.069  1.2610 -0.3916  0.4470
16774SOL     OW54363   9.400   1.385   4.460  0.7241 -0.8665  0.4920
16774SOL    HW154364   9.382   1.479   4.457  1.7555 -0.6631  0.2519
16774SOL    HW254365   9.384   1.360   4.551  1.0235 -0.3232  0.7003
16775SOL     OW54366   2.261   2.994   4.824 -0.4995  0.1082  0.2541
16775SOL    HW154367   2.280   3.048   4.901  1.0104  2.0364 -1.3403
16775SOL    HW254368   2.187   3.037   4.782  0.9631  1.2959 -1.2418
16776SOL     OW54369   0.883   5.104   9.840  0.0331  0.3227 -0.1214
16776SOL    HW154370   0.820   5.154   9.892  0.6907  0.7570  0.2794
16776SOL    HW254371   0.854   5.013   9.849 -0.2016  0.4532  0.5446
16777SOL     OW54372   1.830   1.298   3.157  0.2836 -0.5131  0.0420
16777SOL    HW154373   1.837   1.376   3.212  0.0274 -1.8314  2.0817
16777SOL    HW254374   1.736   1.287   3.142  0.4000  0.2749 -1.3702
16778SOL     OW54375   3.478   8.761   4.782  0.5418 -0.1274  0.4176
16778SOL    HW154376   3.482   8.834   4.843  0.4996 -0.2003  0.5076
16778SOL    HW254377   3.530   8.790   4.706 -2.8674  1.7586 -1.4413
16779SOL     OW54378   1.928   0.582   6.320 -0.2124  0.1449  0.2895
16779SOL    HW154379   1.909   0.489   6.309  0.7698  0.0999 -1.5300
16779SOL    HW254380   1.849   0.626   6.289 -0.8886 -0.0612  1.6641
16780SOL     OW54381   5.050   3.038   5.535 -0.4152  0.2424 -0.4307
16780SOL    HW154382   5.063   2.951   5.572 -0.7043  0.1417 -0.5628
16780SOL    HW254383   5.099   3.096   5.593 -0.9588  0.1036  0.1799
16781SOL     OW54384   3.477   7.383   4.371 -0.0374 -0.5493  0.6661
16781SOL    HW154385   3.448   7.453   4.431  0.4607 -0.4624  0.8042
16781SOL    HW254386   3.456   7.302   4.417 -0.2615 -0.4908  0.6707
16782SOL     OW54387   7.680   8.518   7.070 -0.1110 -0.1628  0.3182
16782SOL    HW154388   7.714   8.604   7.096  0.3235 -0.2201 -0.0487
16782SOL    HW254389   7.620   8.494   7.140  0.5405 -0.0227  0.9369
16783SOL     OW54390   8.938   1.203   1.940 -0.6419 -0.0591  0.0794
16783SOL    HW154391   8.911   1.290   1.971 -1.9895  0.0385 -1.2270
16783SOL    HW254392   9.023   1.219   1.898  0.1212  0.2091  1.6552
16784SOL     OW54393   3.777   9.965   8.177  0.2353  0.2124 -0.0344
16784SOL    HW154394   3.759  10.010   8.260 -0.5601  1.1324 -0.6702
16784SOL    HW254395   3.863   9.997   8.151 -0.3628  1.4983 -0.5254
16785SOL     OW54396   4.456   8.586   8.196 -0.6462 -0.0596  0.1459
16785SOL    HW154397   4.436   8.636   8.118  0.7617 -0.5479 -0.5593
16785SOL    HW254398   4.491   8.650   8.258  1.2606 -0.1318 -0.7952
16786SOL     OW54399   4.016   3.557   2.923 -0.1858  0.0977 -0.2549
16786SOL    HW154400   3.942   3.518   2.971  0.6380 -2.6907 -1.0378
16786SOL    HW254401   4.082   3.574   2.990 -0.4775 -0.1636  0.1046
16787SOL     OW54402   1.237   3.307   4.011  0.0305  0.2598  0.2145
16787SOL    HW154403   1.320   3.340   3.976  0.0297 -0.8218 -0.8611
16787SOL    HW254404   1.242   3.326   4.105  2.2249 -1.2185  0.4790
16788SOL     OW54405   6.859   3.638   4.836 -0.3796 -0.3694 -0.2404
16788SOL    HW154406   6.884   3.696   4.764  0.4018 -1.9964 -1.3344
16788SOL    HW254407   6.790   3.582   4.799  1.8753 -3.0563 -0.7025
16789SOL     OW54408  10.174   0.729   1.382  0.6491 -0.2299 -0.3212
16789SOL    HW154409  10.107   0.739   1.450  1.5248  2.0373  0.2679
16789SOL    HW254410  10.124   0.725   1.300 -0.2837 -0.1949  0.2329
16790SOL     OW54411   9.642   6.678  10.172  0.2172  0.2165  0.2661
16790SOL    HW154412   9.602   6.603  10.128 -0.5394  1.0359 -0.4672
16790SOL    HW254413   9.569   6.722  10.215  0.1965  1.9602 -1.4179
16791SOL     OW54414   9.193   1.286   0.706  0.3660 -0.1048  0.5898
16791SOL    HW154415   9.251   1.349   0.749 -0.2586  1.7742 -1.1349
16791SOL    HW254416   9.125   1.340   0.665  1.2814 -1.5712 -3.3564
16792SOL     OW54417   8.251   9.628   1.587  0.5383 -0.2635  0.6986
16792SOL    HW154418   8.213   9.551   1.630  0.5665  0.4538  2.0599
16792SOL    HW254419   8.262   9.601   1.496 -1.4075 -1.1705  0.6656
16793SOL     OW54420   6.381   1.947   1.119  0.4011 -0.1747  0.3428
16793SOL    HW154421   6.331   1.986   1.047  0.5313  1.4417  1.0804
16793SOL    HW254422   6.463   1.998   1.121  0.5037 -0.3582  1.4731
16794SOL     OW54423   8.777  10.027   6.980  0.2182 -0.2505  0.1461
16794SOL    HW154424   8.773  10.119   7.007 -0.5406 -0.8548  2.3816
16794SOL    HW254425   8.867  10.001   7.000  0.3454 -0.0673 -0.1892
16795SOL     OW54426   4.199   3.052   1.220 -0.3857  0.3571  0.1318
16795SOL    HW154427   4.258   3.117   1.259 -0.9109  0.3839  0.8888
16795SOL    HW254428   4.215   3.060   1.126 -0.0489  1.2096  0.2476
16796SOL     OW54429   8.159   0.531   4.488  0.2511  0.3651  0.3409
16796SOL    HW154430   8.076   0.484   4.479  0.9946 -1.1328  0.9554
16796SOL    HW254431   8.133   0.621   4.510 -1.2059  0.0542  0.0101
16797SOL     OW54432   8.797   4.085   4.628  0.6740  0.3118  0.0049
16797SOL    HW154433   8.767   4.055   4.714  1.0896 -0.7445 -0.2087
16797SOL    HW254434   8.871   4.142   4.647  0.3116  0.6623  0.3843
16798SOL     OW54435   8.838   4.879   4.366 -0.0444  0.3895 -0.7129
16798SOL    HW154436   8.841   4.784   4.375 -0.8436  0.4826  1.0457
16798SOL    HW254437   8.750   4.898   4.333 -0.7500  0.5918  1.1390
16799SOL     OW54438   8.657   9.576   0.885 -0.1296  0.7847 -0.4989
16799SOL    HW154439   8.563   9.592   0.876 -0.1232  0.6502 -0.8262
16799SOL    HW254440   8.698   9.629   0.817 -0.1575 -1.0296 -2.0321
16800SOL     OW54441   5.286   9.833   4.452  0.1343 -0.2369  0.0510
16800SOL    HW154442   5.375   9.869   4.456  0.4287 -0.9950  0.5144
16800SOL    HW254443   5.245   9.881   4.380  0.6600  0.6777  0.3348
16801SOL     OW54444   6.235   2.933   7.119  0.0458  0.3868 -0.1369
16801SOL    HW154445   6.161   2.872   7.115  0.4518 -0.3735  2.2456
16801SOL    HW254446   6.295   2.903   7.050 -1.3195  0.3284 -1.3437
16802SOL     OW54447   5.138   5.076   8.355 -0.4628  0.0154  0.3571
16802SOL    HW154448   5.182   5.014   8.297  0.5410  2.4948 -1.7162
16802SOL    HW254449   5.053   5.036   8.374  0.6427 -2.5492  0.2302
16803SOL     OW54450   0.448   8.126   2.242  0.2637 -0.4230 -0.1195
16803SOL    HW154451   0.444   8.044   2.291 -1.8203 -0.0055  0.5323
16803SOL    HW254452   0.471   8.100   2.153 -0.1100 -1.6896  0.1377
16804SOL     OW54453   0.566   7.743   8.634  0.1310 -0.3174  0.1827
16804SOL    HW154454   0.576   7.728   8.540  0.2372  0.2567  0.1026
16804SOL    HW254455   0.579   7.656   8.674  2.3950 -0.1938 -0.1407
16805SOL     OW54456   0.623   6.015   0.818 -0.8298  0.1751 -0.0564
16805SOL    HW154457   0.625   6.049   0.907 -0.4957 -0.8338  0.3370
16805SOL    HW254458   0.591   6.088   0.765 -1.3831  0.6773  0.9349
16806SOL     OW54459   8.359   6.821   2.989 -0.3013  0.0001  0.2870
16806SOL    HW154460   8.421   6.772   2.935  1.0359  0.7265  1.1069
16806SOL    HW254461   8.302   6.865   2.927  0.0844 -0.5740 -0.4893
16807SOL     OW54462   1.165   2.064   9.235 -0.1210  0.2822 -0.3810
16807SOL    HW154463   1.177   1.979   9.193  1.7913 -0.8631  2.1979
16807SOL    HW254464   1.114   2.044   9.314  0.1229  1.5759  0.1277
16808SOL     OW54465   3.072   4.993   1.598  0.0803 -0.4440  0.1336
16808SOL    HW154466   3.003   4.949   1.548 -0.0957 -0.4671  0.3930
16808SOL    HW254467   3.035   5.080   1.618  0.4415 -0.1610 -0.4115
16809SOL     OW54468   9.456   9.323   7.412  0.3411 -0.4368 -0.0527
16809SOL    HW154469   9.383   9.343   7.352  0.6666  0.8075 -0.0743
16809SOL    HW254470   9.427   9.357   7.496  0.8381 -0.0301 -0.0381
16810SOL     OW54471   6.171   8.124   9.409 -0.1061 -0.5033 -0.2599
16810SOL    HW154472   6.164   8.110   9.503 -1.0409  0.5394 -0.1450
16810SOL    HW254473   6.265   8.128   9.391  0.0724  0.0060  0.7491
16811SOL     OW54474   3.567   8.992   2.565  0.2793 -0.0720  0.1358
16811SOL    HW154475   3.496   8.929   2.549  0.6648 -0.5708  0.3623
16811SOL    HW254476   3.647   8.943   2.545  0.5176  0.8188 -1.2104
16812SOL     OW54477  10.290   7.156   6.643  0.0198  0.0829 -0.3272
16812SOL    HW154478  10.383   7.141   6.627  0.4805  2.9859 -0.9422
16812SOL    HW254479  10.246   7.114   6.569  1.1269  1.5163 -1.8538
16813SOL     OW54480   3.698   7.412   3.276 -0.3945 -0.0788 -0.0094
16813SOL    HW154481   3.717   7.394   3.184 -1.1599  1.1736 -0.4278
16813SOL    HW254482   3.685   7.506   3.281  0.6941  0.0354  1.6002
16814SOL     OW54483   3.272   9.490   3.652  0.7012 -0.7164  0.1689
16814SOL    HW154484   3.217   9.418   3.623  1.5097 -0.6081 -1.8423
16814SOL    HW254485   3.261   9.557   3.584  3.1053 -0.6274 -0.2177
16815SOL     OW54486   8.033   9.375   2.977 -0.8373  0.7127  0.5154
16815SOL    HW154487   8.089   9.431   3.030 -1.0201 -1.0066  2.6449
16815SOL    HW254488   7.951   9.423   2.969  0.1893  2.3364 -0.8919
16816SOL     OW54489   7.925   7.051   9.424  0.3270 -0.0066  0.3770
16816SOL    HW154490   7.898   7.138   9.452  0.2908  0.0856  0.0517
16816SOL    HW254491   7.946   7.061   9.331  1.6889 -0.0150  0.6602
16817SOL     OW54492   9.302   9.191   1.971 -0.7970 -0.1403  0.9835
16817SOL    HW154493   9.304   9.100   1.941 -1.7084  0.2075 -0.2410
16817SOL    HW254494   9.256   9.188   2.054 -2.7098 -0.5900 -0.0280
16818SOL     OW54495   3.169   2.886   1.543  0.0900 -0.0053 -0.3281
16818SOL    HW154496   3.244   2.910   1.489  1.6062 -0.5474  1.4210
16818SOL    HW254497   3.181   2.792   1.559  0.5134  0.3808  2.0410
16819SOL     OW54498   5.299   5.805   5.495  0.0255  0.0114 -0.6226
16819SOL    HW154499   5.251   5.886   5.509 -0.1601 -0.4120  1.6139
16819SOL    HW254500   5.270   5.774   5.409  0.7854  2.7025 -1.9272
16820SOL     OW54501   9.926   3.684   6.475 -0.0314 -0.3934  0.1183
16820SOL    HW154502   9.879   3.767   6.475  0.7304  0.0789 -1.2840
16820SOL    HW254503   9.867   3.623   6.429  0.2942 -0.0451 -0.7919
16821SOL     OW54504   5.389   7.212   1.340 -0.3724  0.1217  0.3632
16821SOL    HW154505   5.417   7.170   1.259 -0.9756 -0.2086  0.3188
16821SOL    HW254506   5.296   7.191   1.347 -0.5227  0.8578  0.7087
16822SOL     OW54507   4.551   5.752   9.531  0.0794  0.5921  0.0502
16822SOL    HW154508   4.539   5.677   9.473  0.2510 -0.7014  1.6219
16822SOL    HW254509   4.464   5.789   9.541  0.0321  0.7663 -0.9207
16823SOL     OW54510   8.978   1.686   2.183 -0.0628  0.1897 -0.1416
16823SOL    HW154511   8.979   1.743   2.106  1.7231  1.5443  0.8323
16823SOL    HW254512   9.059   1.706   2.230  0.0705 -2.3338  0.8701
16824SOL     OW54513   6.930   9.057   0.601 -0.1577  0.2772  0.1980
16824SOL    HW154514   7.013   9.019   0.631  1.1352  2.3952 -0.5147
16824SOL    HW254515   6.903   9.000   0.529  0.8011 -0.3211  0.2821
16825SOL     OW54516   0.948   9.395   3.380 -0.4894  0.6164  0.5347
16825SOL    HW154517   0.941   9.350   3.464 -0.5842  1.4061  0.9609
16825SOL    HW254518   0.885   9.466   3.386 -2.2847 -0.7107 -1.1390
16826SOL     OW54519   0.344   6.816   1.924  0.0179  0.1035  0.1405
16826SOL    HW154520   0.254   6.829   1.956 -0.7653 -0.8818 -1.5437
16826SOL    HW254521   0.339   6.736   1.872  2.0038 -0.2165  0.3791
16827SOL     OW54522   6.734   9.817   2.781 -0.4732  0.5428  0.4590
16827SOL    HW154523   6.671   9.745   2.781 -0.0123  0.1289 -0.1299
16827SOL    HW254524   6.745   9.840   2.873 -0.6963 -0.0784  0.6454
16828SOL     OW54525   7.578   2.874   0.328 -0.0767 -0.4853  0.0257
16828SOL    HW154526   7.617   2.864   0.415 -1.3428 -1.8493  0.5006
16828SOL    HW254527   7.576   2.785   0.293  0.8332  0.1076 -1.6255
16829SOL     OW54528   9.173   3.935   4.313 -0.0855  0.1045 -0.1055
16829SOL    HW154529   9.247   3.945   4.253  0.8588  1.6024  1.2047
16829SOL    HW254530   9.152   4.025   4.340 -1.3288 -0.4253  0.7996
16830SOL     OW54531   9.962   0.981   6.715 -0.0243  0.6987 -0.1836
16830SOL    HW154532   9.893   0.939   6.663  0.7356  0.5382 -1.0848
16830SOL    HW254533   9.930   0.975   6.805 -0.8321 -0.0738 -0.5004
16831SOL     OW54534   0.074   6.446   8.225  0.4437  0.1492 -0.0854
16831SOL    HW154535  -0.014   6.411   8.232 -0.1387  1.7338  1.0929
16831SOL    HW254536   0.100   6.431   8.134 -0.1877 -2.2180  0.0713
16832SOL     OW54537   1.674   8.827   2.352  0.0042 -0.2103  0.5788
16832SOL    HW154538   1.646   8.886   2.282 -2.1625 -0.7364  0.9363
16832SOL    HW254539   1.697   8.745   2.306 -0.5728 -0.2763  0.4028
16833SOL     OW54540   5.023   6.126   7.129  0.6018  0.2595  0.0287
16833SOL    HW154541   4.950   6.153   7.185  0.8556  0.7122  0.1501
16833SOL    HW254542   4.982   6.096   7.048  0.3217  1.7603 -0.4275
16834SOL     OW54543   7.349   9.839   5.453  0.0869 -0.0021 -0.3181
16834SOL    HW154544   7.357   9.744   5.464 -1.2559 -0.0031  1.1528
16834SOL    HW254545   7.409   9.876   5.519 -0.7575  0.1228  0.4032
16835SOL     OW54546   1.466   8.149   8.125 -0.1186  0.0508 -0.0078
16835SOL    HW154547   1.474   8.240   8.154 -0.7783 -1.2619  5.5988
16835SOL    HW254548   1.555   8.121   8.106  0.5154  1.1146  1.2834
16836SOL     OW54549   5.911   6.730   4.941  0.2689  0.8485 -0.2531
16836SOL    HW154550   5.851   6.746   5.015  0.9349  2.4744 -0.0271
16836SOL    HW254551   5.969   6.661   4.973 -2.5577 -2.2591 -1.1692
16837SOL     OW54552   1.561   3.222   1.373  0.3147 -0.0747  0.3998
16837SOL    HW154553   1.492   3.255   1.429  0.0989 -0.2325  0.2291
16837SOL    HW254554   1.583   3.136   1.409 -0.3525 -0.5146 -0.1926
16838SOL     OW54555   0.928   7.282   5.837 -0.4702  0.3276 -0.4733
16838SOL    HW154556   0.942   7.374   5.813  0.1474  0.8994  1.8625
16838SOL    HW254557   0.914   7.283   5.931  0.1951 -2.0435 -0.2786
16839SOL     OW54558   6.110   2.853   0.613  0.2744 -0.1048  0.1730
16839SOL    HW154559   6.145   2.882   0.697 -0.4527  0.4176  0.3143
16839SOL    HW254560   6.119   2.929   0.555  0.0224 -0.1915  0.0164
16840SOL     OW54561   2.228   4.872   4.335  0.5181 -0.7580  0.3472
16840SOL    HW154562   2.294   4.919   4.284 -0.6427  0.9387  0.3330
16840SOL    HW254563   2.275   4.840   4.411  1.8647 -1.6930 -0.8282
16841SOL     OW54564   7.833   1.675  10.223  0.4847 -0.6083  0.2786
16841SOL    HW154565   7.777   1.752  10.223  0.1450 -0.7688 -2.0212
16841SOL    HW254566   7.922   1.710  10.210  0.5954 -0.5150  1.2183
16842SOL     OW54567   5.190   0.359   4.743  0.3720  0.5765  0.0562
16842SOL    HW154568   5.228   0.428   4.798 -0.8020  0.3573  1.1883
16842SOL    HW254569   5.103   0.392   4.721 -0.0579 -0.3788  0.3093
16843SOL     OW54570   3.019   6.294   2.872  0.4194  0.4018 -0.6981
16843SOL    HW154571   3.011   6.221   2.810 -0.2550 -0.4815  0.3799
16843SOL    HW254572   3.110   6.289   2.902  0.4566  0.1784 -0.8434
16844SOL     OW54573   2.970   3.687   5.340  0.2530 -0.1533  0.5531
16844SOL    HW154574   3.031   3.761   5.337  1.1347 -0.7167  2.6859
16844SOL    HW254575   2.911   3.708   5.412 -2.4054  0.5216 -1.6333
16845SOL     OW54576   7.336   0.449   2.309  0.2148  0.2911  0.0097
16845SOL    HW154577   7.265   0.404   2.264  1.2712  0.3670 -1.8367
16845SOL    HW254578   7.362   0.390   2.379 -0.4475 -0.5620 -0.4463
16846SOL     OW54579   8.006   2.427   0.386  0.1154  0.3707  0.0435
16846SOL    HW154580   7.995   2.350   0.442  0.4581 -1.0207 -1.7135
16846SOL    HW254581   7.970   2.400   0.301  1.8385  1.5394 -1.1154
16847SOL     OW54582   4.849   3.515   5.521 -0.1984  0.3832 -0.0041
16847SOL    HW154583   4.768   3.485   5.563  2.1979 -1.0976  4.2610
16847SOL    HW254584   4.874   3.594   5.569  1.0028  0.6878 -1.0522
16848SOL     OW54585   9.134   2.725   4.932 -0.4815  0.3042  0.7816
16848SOL    HW154586   9.128   2.807   4.981  2.0468  1.7310 -1.0560
16848SOL    HW254587   9.189   2.669   4.986 -0.8248  0.4426  1.2828
16849SOL     OW54588   2.693   8.560   2.085  0.3447 -0.0455 -0.4107
16849SOL    HW154589   2.750   8.497   2.040 -0.0876  0.5331 -1.8209
16849SOL    HW254590   2.754   8.623   2.124  0.7243 -0.2436 -0.6753
16850SOL     OW54591   9.087   8.397   3.223 -0.0058 -0.0096  0.1367
16850SOL    HW154592   9.112   8.489   3.229  0.1762 -0.0984  4.7297
16850SOL    HW254593   9.168   8.353   3.196  0.4460  1.0270 -0.2681
16851SOL     OW54594   4.334   8.357  10.039 -0.1857 -0.1387 -0.7981
16851SOL    HW154595   4.352   8.320  10.126  0.1680  0.1463 -0.7452
16851SOL    HW254596   4.351   8.286   9.978 -1.7261 -0.7542 -0.5553
16852SOL     OW54597   3.617   3.151   0.981  0.2014  0.1453  0.4074
16852SOL    HW154598   3.700   3.196   0.992  0.2038  0.4198 -0.6121
16852SOL    HW254599   3.551   3.221   0.982 -0.2947 -0.2395  3.5060
16853SOL     OW54600   0.360   8.608   4.828  0.3213 -0.4205  0.0194
16853SOL    HW154601   0.405   8.581   4.748 -2.1247 -3.1963 -0.5980
16853SOL    HW254602   0.421   8.584   4.899  1.0783 -1.2202 -0.8746
16854SOL     OW54603  10.292   2.349   7.012 -0.7246 -0.7448 -0.1912
16854SOL    HW154604  10.218   2.401   6.982 -0.9403 -1.4171 -0.8614
16854SOL    HW254605  10.311   2.290   6.939  0.7470 -0.3016 -0.1990
16855SOL     OW54606   6.424   5.198   6.503  0.1527  0.3895  0.3718
16855SOL    HW154607   6.413   5.219   6.410 -2.3444 -1.2164  0.2225
16855SOL    HW254608   6.501   5.141   6.505 -0.6665 -0.8397 -0.9850
16856SOL     OW54609   0.483   6.039   4.865  0.5493  0.8301  0.3549
16856SOL    HW154610   0.501   5.950   4.895 -0.6080  0.3151 -0.4136
16856SOL    HW254611   0.500   6.037   4.771 -0.2584  1.2034  0.1944
16857SOL     OW54612   4.852   8.595   1.317 -0.4835  0.8976  0.3737
16857SOL    HW154613   4.763   8.625   1.299 -0.4774  0.1264 -1.2186
16857SOL    HW254614   4.840   8.513   1.366 -0.6721  0.6800 -0.0264
16858SOL     OW54615   0.721   5.351   6.733 -0.2193 -0.0954  0.0271
16858SOL    HW154616   0.697   5.365   6.824  2.7870  0.9572  0.7514
16858SOL    HW254617   0.669   5.415   6.684 -1.4917 -0.3381  0.9952
16859SOL     OW54618   7.691   6.685   7.718  0.3272  0.2750 -0.3805
16859SOL    HW154619   7.596   6.676   7.718  0.2522  0.8656  0.9323
16859SOL    HW254620   7.707   6.769   7.762  1.3865  1.2064 -2.4026
16860SOL     OW54621   3.168   3.105   2.420 -0.1480  0.1430 -0.2046
16860SOL    HW154622   3.194   3.047   2.491  1.5146 -1.9541 -2.3481
16860SOL    HW254623   3.080   3.135   2.444  0.8544  0.6523  3.2952
16861SOL     OW54624   3.318   9.474   5.062 -0.6432  0.2336 -0.2839
16861SOL    HW154625   3.359   9.486   5.148 -2.3319 -0.5934  0.6817
16861SOL    HW254626   3.280   9.386   5.065 -0.9252  0.2800 -1.8002
16862SOL     OW54627   0.583   4.841   8.823  0.0905  0.3215 -0.7404
16862SOL    HW154628   0.496   4.854   8.859 -0.3356  0.1859 -1.6762
16862SOL    HW254629   0.624   4.927   8.825 -0.8175  0.8176 -2.1540
16863SOL     OW54630   2.830   9.455   7.979 -0.2063  0.3377  0.0836
16863SOL    HW154631   2.862   9.428   8.065 -1.3123 -0.5267  0.2480
16863SOL    HW254632   2.765   9.389   7.956  0.2242  0.4281 -1.5252
16864SOL     OW54633   6.478   4.760   5.890  0.3975 -0.2704 -0.3252
16864SOL    HW154634   6.445   4.707   5.963  0.3770  0.7217  0.3933
16864SOL    HW254635   6.568   4.782   5.915  0.4748 -0.1339 -0.7207
16865SOL     OW54636   0.261   1.379   3.161  0.5490  0.2505 -0.3762
16865SOL    HW154637   0.190   1.318   3.179  0.5024  0.5569  0.5223
16865SOL    HW254638   0.339   1.337   3.197  0.7104  0.2181 -0.7606
16866SOL     OW54639   1.446   6.106   8.313 -0.0325 -0.6921 -0.1916
16866SOL    HW154640   1.411   6.032   8.362  0.0819 -1.8166 -1.7359
16866SOL    HW254641   1.404   6.100   8.227 -0.5367  1.4461 -0.1463
16867SOL     OW54642   8.658   4.529   3.788  0.2289  0.3204  0.1481
16867SOL    HW154643   8.625   4.619   3.780 -0.1454  0.3543  1.8196
16867SOL    HW254644   8.753   4.540   3.800  0.6198  0.3224 -2.3335
16868SOL     OW54645   2.347   7.914   3.693 -0.3594 -0.4232  0.1980
16868SOL    HW154646   2.337   7.902   3.599 -0.1846 -0.4906  0.1869
16868SOL    HW254647   2.301   7.839   3.732 -1.4856  0.2447  0.2066
16869SOL     OW54648   5.744   6.158   1.568  0.0052 -0.0506  0.2833
16869SOL    HW154649   5.679   6.228   1.566 -0.2958 -0.2747  1.3877
16869SOL    HW254650   5.795   6.176   1.647  0.8941 -0.2263 -0.2457
16870SOL     OW54651   9.626   9.456   9.140 -0.0823  0.3488  0.0729
16870SOL    HW154652   9.555   9.502   9.094  2.4523  2.0501 -2.5341
16870SOL    HW254653   9.637   9.505   9.222 -1.0422  0.9095 -0.1135
16871SOL     OW54654   0.906   2.494   8.668  0.6264 -0.2032  0.4106
16871SOL    HW154655   0.970   2.535   8.725 -1.2678  0.7439  1.9511
16871SOL    HW254656   0.853   2.440   8.726 -0.3376 -0.5321 -0.7328
16872SOL     OW54657   3.945   6.964  10.278  0.2934 -0.0457 -0.2248
16872SOL    HW154658   3.943   6.886  10.334 -0.5218  1.3564  1.8072
16872SOL    HW254659   3.935   6.930  10.189  0.3068 -2.2696  0.5644
16873SOL     OW54660   2.521   5.751   3.222 -0.8168  0.1754 -0.5289
16873SOL    HW154661   2.466   5.708   3.288  0.4356 -1.7054 -0.6355
16873SOL    HW254662   2.506   5.700   3.142  2.5607 -1.8344 -0.0849
16874SOL     OW54663   7.325   1.801   1.024  0.2769 -0.0415 -0.2958
16874SOL    HW154664   7.379   1.778   0.949 -0.1626  0.1620 -0.6835
16874SOL    HW254665   7.236   1.780   0.997 -0.2224  2.4495 -0.8726
16875SOL     OW54666   1.445   3.339   1.164 -0.5454  0.5833 -0.0497
16875SOL    HW154667   1.485   3.285   1.233 -0.0653 -2.8691 -2.7134
16875SOL    HW254668   1.358   3.302   1.153 -0.4257  0.6984 -1.5963
16876SOL     OW54669   8.120   1.282   4.842 -0.3449 -0.2499  0.2934
16876SOL    HW154670   8.160   1.357   4.797 -2.0384 -0.2760 -1.3526
16876SOL    HW254671   8.183   1.211   4.831 -0.7999 -0.3471 -2.4237
16877SOL     OW54672   0.463   5.985   1.977  0.2197  0.2915  0.1010
16877SOL    HW154673   0.552   5.968   2.008 -0.3475 -1.8185  0.7017
16877SOL    HW254674   0.434   6.061   2.028  0.9460 -0.2781  1.4142
16878SOL     OW54675   0.919   1.359   2.793  0.1454 -0.1414  0.2383
16878SOL    HW154676   0.924   1.399   2.706 -2.2433 -0.8491 -0.2935
16878SOL    HW254677   0.957   1.272   2.782  0.4833  0.0229  0.0853
16879SOL     OW54678   7.894   8.270   3.952  0.0713  0.1107  0.5344
16879SOL    HW154679   7.964   8.209   3.930 -0.0582 -0.0804  0.6500
16879SOL    HW254680   7.851   8.231   4.029  0.4331  0.6997  1.0466
16880SOL     OW54681   7.555   6.413   8.233 -0.0905 -0.3604 -0.1612
16880SOL    HW154682   7.590   6.474   8.168  2.0120 -1.8502 -0.5163
16880SOL    HW254683   7.580   6.327   8.202 -0.0279 -1.2083  2.0306
16881SOL     OW54684   5.759   9.201   1.894 -0.4095 -0.7312  0.2110
16881SOL    HW154685   5.754   9.136   1.964  0.6719  0.0694  1.0819
16881SOL    HW254686   5.766   9.285   1.940 -1.0344 -0.0628 -0.8809
16882SOL     OW54687   6.203  10.213   4.297 -0.3496  0.1087 -0.2497
16882SOL    HW154688   6.265  10.148   4.330 -0.6246 -0.2466 -0.4350
16882SOL    HW254689   6.251  10.259   4.228  0.5010  1.3589  1.1087
16883SOL     OW54690   0.483   1.017   9.367 -0.1294  0.4410  0.0124
16883SOL    HW154691   0.541   1.056   9.301  0.4652 -0.9693 -0.3342
16883SOL    HW254692   0.448   0.939   9.325  0.7543 -0.8442  1.5660
16884SOL     OW54693   7.828   4.485   6.553  0.4143  0.6919 -0.1178
16884SOL    HW154694   7.879   4.427   6.496 -1.0594  1.3152 -2.1746
16884SOL    HW254695   7.817   4.565   6.502 -0.0742  1.7196  1.5088
16885SOL     OW54696   0.515   0.565   3.912  0.2337 -0.3034 -0.2229
16885SOL    HW154697   0.455   0.600   3.847  0.5242 -0.1489 -0.4108
16885SOL    HW254698   0.596   0.615   3.899  0.4361 -0.5817 -0.0441
16886SOL     OW54699   0.388   7.345   9.953 -0.4090  0.7418 -0.1101
16886SOL    HW154700   0.374   7.434   9.922  0.6566  0.5811 -1.1195
16886SOL    HW254701   0.473   7.348   9.996 -1.2445  0.6358  1.6183
16887SOL     OW54702   9.457   8.954   0.562  0.0498 -0.0293  0.2937
16887SOL    HW154703   9.461   8.861   0.543 -0.5000 -0.2216  1.0592
16887SOL    HW254704   9.493   8.996   0.484 -0.2033 -0.8530 -0.2807
16888SOL     OW54705   8.515  10.247  10.139 -0.5501 -0.0824  0.0296
16888SOL    HW154706   8.560  10.330  10.157  0.5329 -0.4929 -0.7151
16888SOL    HW254707   8.427  10.272  10.112 -0.3510  0.8043  0.1901
16889SOL     OW54708   6.316  10.105   5.589 -0.7066 -0.0429  0.0430
16889SOL    HW154709   6.344  10.026   5.541 -1.8377 -0.6656  0.3747
16889SOL    HW254710   6.286  10.072   5.673 -0.9827  0.7784  0.2705
16890SOL     OW54711   5.581   3.410   5.765 -0.3173 -0.3354  0.1709
16890SOL    HW154712   5.638   3.384   5.838 -1.1594  0.3705  1.1068
16890SOL    HW254713   5.522   3.336   5.752 -0.2411 -0.4168  0.2846
16891SOL     OW54714   6.879   3.824   6.610  0.7399  0.8676  0.2163
16891SOL    HW154715   6.806   3.860   6.659  0.5709 -0.7262  1.2121
16891SOL    HW254716   6.946   3.805   6.676  0.9874 -0.1826 -0.3033
16892SOL     OW54717   8.586   2.340   2.399 -0.8179 -0.8221 -0.9119
16892SOL    HW154718   8.640   2.325   2.321  0.9907 -1.5632  0.4194
16892SOL    HW254719   8.546   2.256   2.418 -1.7279 -0.4989 -1.3609
16893SOL     OW54720   9.690   1.144   8.405  0.0603 -0.4767  0.5413
16893SOL    HW154721   9.690   1.100   8.320 -3.1682 -0.2223  0.2966
16893SOL    HW254722   9.688   1.074   8.469  1.0906 -0.6571  0.3960
16894SOL     OW54723   7.637   2.311   7.780  0.0952  0.0960  0.2943
16894SOL    HW154724   7.668   2.221   7.770 -0.0653  0.1090 -0.3358
16894SOL    HW254725   7.616   2.319   7.874  0.1139 -0.5184  0.3525
16895SOL     OW54726   8.731   5.398   1.740 -0.1436  0.5124  0.1998
16895SOL    HW154727   8.817   5.435   1.720 -0.5198  1.7646  0.7999
16895SOL    HW254728   8.689   5.387   1.655  0.8389 -0.7507 -0.1573
16896SOL     OW54729   7.551   7.351   1.764  0.0382 -0.4403  0.7517
16896SOL    HW154730   7.625   7.410   1.751 -0.3845  0.2231  1.2927
16896SOL    HW254731   7.517   7.336   1.676  0.5942 -0.4654  0.5373
16897SOL     OW54732   2.217   1.361   9.945  0.7746 -0.0772 -0.0355
16897SOL    HW154733   2.148   1.392   9.886 -0.8851 -0.3932  1.6535
16897SOL    HW254734   2.290   1.339   9.887 -0.3365  0.7808 -1.8409
16898SOL     OW54735   9.887   1.719   8.130  0.3235 -0.3970  0.4334
16898SOL    HW154736   9.833   1.691   8.203  0.4022 -2.8691 -0.3551
16898SOL    HW254737   9.955   1.774   8.170  0.6560 -2.0583  2.3068
16899SOL     OW54738   6.070   5.388   0.719 -0.3996 -0.2924 -0.5174
16899SOL    HW154739   6.068   5.292   0.725 -0.1416 -0.2245  1.4461
16899SOL    HW254740   6.160   5.409   0.698 -0.4531 -0.4885 -0.9399
16900SOL     OW54741   0.857   4.134   8.516  0.4097 -0.1368  0.3256
16900SOL    HW154742   0.850   4.230   8.509  0.9352  0.0829  2.1438
16900SOL    HW254743   0.924   4.111   8.453  1.2255  0.8919  0.7722
16901SOL     OW54744   5.679   9.093   0.796 -0.0724 -0.1565  0.1448
16901SOL    HW154745   5.686   9.002   0.823  0.8310 -0.0063  0.4283
16901SOL    HW254746   5.595   9.122   0.832  0.9201 -0.0557  2.5679
16902SOL     OW54747   6.826   3.390   6.305 -0.0128  0.1705  0.4649
16902SOL    HW154748   6.909   3.359   6.340  0.7244  2.7606  1.1845
16902SOL    HW254749   6.846   3.415   6.214 -0.5329 -1.1128 -0.0228
16903SOL     OW54750   9.127   5.774   7.892  0.1164  0.8223  0.2455
16903SOL    HW154751   9.033   5.762   7.883 -0.1142  1.7781  1.1575
16903SOL    HW254752   9.149   5.845   7.832 -0.0730  1.8363  1.3474
16904SOL     OW54753   1.139   3.635   4.272  0.3276 -0.8476 -0.0780
16904SOL    HW154754   1.048   3.617   4.292 -0.0430  0.2756 -0.6658
16904SOL    HW254755   1.146   3.731   4.273  1.8503 -0.9316  1.4488
16905SOL     OW54756  10.038   3.311   9.762  0.4051 -0.2426  0.2161
16905SOL    HW154757  10.004   3.373   9.697  1.8797 -1.0977 -1.4819
16905SOL    HW254758  10.121   3.349   9.790 -0.2148  0.1091  1.6485
16906SOL     OW54759   6.295   8.424   8.178 -0.5794 -0.3010 -0.6772
16906SOL    HW154760   6.376   8.383   8.147  1.3281  3.5611 -1.5344
16906SOL    HW254761   6.263   8.473   8.102 -2.4263  0.1249  0.3177
16907SOL     OW54762  10.214   5.475   3.535 -0.4739 -0.1944  0.2749
16907SOL    HW154763  10.273   5.509   3.602  1.5782 -1.7938 -0.6366
16907SOL    HW254764  10.156   5.549   3.515  1.7323  1.7496  0.6440
16908SOL     OW54765   9.460   5.159   6.918  0.3167  0.2254  0.1132
16908SOL    HW154766   9.475   5.185   7.008  0.9390 -2.1054  0.7340
16908SOL    HW254767   9.370   5.127   6.917  0.9877 -1.7799  0.4689
16909SOL     OW54768   8.693   4.534   6.087  0.2304  0.0711  0.2692
16909SOL    HW154769   8.679   4.585   6.167  0.8214  1.8347 -0.7174
16909SOL    HW254770   8.646   4.452   6.103 -1.8172  1.3912  1.4179
16910SOL     OW54771   7.827   4.504   8.141  0.1096 -0.2289 -0.3349
16910SOL    HW154772   7.919   4.531   8.151 -0.4437  1.7941 -0.0972
16910SOL    HW254773   7.804   4.468   8.227  0.8383 -1.3509 -0.5920
16911SOL     OW54774   6.908   6.413   6.257  0.1041  0.5374 -0.0886
16911SOL    HW154775   6.974   6.375   6.315 -0.1085 -1.2460 -0.9548
16911SOL    HW254776   6.912   6.360   6.178 -3.8610 -1.1297  0.6044
16912SOL     OW54777   3.386   3.473   8.826  0.6870 -0.2760  0.1689
16912SOL    HW154778   3.465   3.523   8.809  0.6549 -0.0632  0.6306
16912SOL    HW254779   3.418   3.386   8.851  0.8802  0.3539  2.3182
16913SOL     OW54780   0.560   4.625   6.372  0.2081  0.1696  0.1214
16913SOL    HW154781   0.489   4.605   6.310 -1.1180 -0.8988  1.8801
16913SOL    HW254782   0.518   4.677   6.441  0.9020 -1.0994  1.5773
16914SOL     OW54783   9.851   6.536   2.633  0.2910  0.3471 -0.9757
16914SOL    HW154784   9.782   6.497   2.580  0.6484 -2.1091  0.1844
16914SOL    HW254785   9.806   6.574   2.708  0.1033 -1.1527 -0.2764
16915SOL     OW54786   6.494   3.040   9.071  0.9437 -0.7019  0.4691
16915SOL    HW154787   6.440   2.971   9.109  2.2712 -2.0290  0.0824
16915SOL    HW254788   6.583   3.019   9.100  1.3692  0.9746  0.4793
16916SOL     OW54789   6.403  10.197   3.016 -0.2163 -0.4967  0.6073
16916SOL    HW154790   6.468  10.267   3.012 -1.6833  0.8875 -2.1066
16916SOL    HW254791   6.321  10.242   3.037 -1.0878 -1.4610 -0.5975
16917SOL     OW54792   0.123   3.155   9.681  0.4026 -0.3680  0.5939
16917SOL    HW154793   0.038   3.115   9.662  1.2340 -1.2167 -1.6135
16917SOL    HW254794   0.120   3.241   9.639  0.6134 -0.3675  0.5774
16918SOL     OW54795   1.992   2.744   5.575 -0.4258  0.0834 -0.7331
16918SOL    HW154796   2.076   2.784   5.552  0.6875 -1.6048  0.1354
16918SOL    HW254797   1.938   2.817   5.607  0.8479  1.1458 -0.9273
16919SOL     OW54798   1.087   7.062   3.936 -0.3205  0.3413  0.9434
16919SOL    HW154799   1.126   7.063   3.848  1.3892 -1.2073  1.6068
16919SOL    HW254800   0.994   7.047   3.920 -0.0375  0.0287 -0.6147
16920SOL     OW54801   8.622   7.461   2.778  0.0168  0.4117  0.3543
16920SOL    HW154802   8.679   7.388   2.753  0.9159  1.3253 -0.3350
16920SOL    HW254803   8.533   7.424   2.775  0.3146 -0.2723 -1.4397
16921SOL     OW54804   6.629   6.374   6.595 -0.6605  0.4036  0.3508
16921SOL    HW154805   6.689   6.416   6.657 -2.3648  0.1719  2.2598
16921SOL    HW254806   6.668   6.288   6.580  0.1422  0.7206  0.5352
16922SOL     OW54807   6.011   7.787   9.103 -0.0242  0.0651  0.2709
16922SOL    HW154808   6.057   7.745   9.175  0.1344  1.6640  1.1547
16922SOL    HW254809   6.074   7.788   9.031  0.8843  1.0555  1.0555
16923SOL     OW54810   6.939   0.877   9.553 -0.1767  0.1927 -0.1453
16923SOL    HW154811   7.028   0.911   9.540 -0.2129 -0.3395 -2.2525
16923SOL    HW254812   6.938   0.796   9.502 -1.3162 -0.8123  1.4194
16924SOL     OW54813   8.884   1.197   7.344 -0.6220  0.0468  0.3237
16924SOL    HW154814   8.838   1.125   7.387  0.1486 -1.6068 -1.4539
16924SOL    HW254815   8.958   1.216   7.402 -0.9553 -0.4567  0.9246
16925SOL     OW54816   9.503   7.055   9.532  0.4697 -0.3145 -0.2290
16925SOL    HW154817   9.481   7.011   9.614 -0.8225 -0.7813 -0.8037
16925SOL    HW254818   9.524   6.984   9.471 -0.1919 -0.0630 -0.7597
16926SOL     OW54819   5.913   2.278   7.560 -0.1554  0.4753  0.4446
16926SOL    HW154820   5.881   2.198   7.517  1.1357  0.3238 -0.2950
16926SOL    HW254821   5.949   2.247   7.643 -0.1497  0.3672  0.4025
16927SOL     OW54822   7.371   0.163   3.890  0.4637  0.0743  0.1890
16927SOL    HW154823   7.289   0.210   3.909  0.8131  0.8562 -0.1959
16927SOL    HW254824   7.386   0.108   3.967 -1.4413 -1.5824 -0.5167
16928SOL     OW54825   5.977   5.847   1.382 -0.0843  0.4967 -0.0944
16928SOL    HW154826   5.903   5.825   1.325 -0.5800  0.2649  0.6212
16928SOL    HW254827   5.954   5.931   1.421 -0.3970 -0.0004  0.8168
16929SOL     OW54828   4.531   0.880   9.731 -0.6215  0.1571 -0.0260
16929SOL    HW154829   4.529   0.931   9.811  1.4957  1.1910 -0.5668
16929SOL    HW254830   4.487   0.798   9.754 -0.2035  0.4768  2.1422
16930SOL     OW54831   7.519   2.859   2.603  0.0628 -0.1145  0.2441
16930SOL    HW154832   7.458   2.815   2.543  2.0782 -0.4936 -1.6844
16930SOL    HW254833   7.463   2.903   2.666 -2.1729 -0.9723 -1.0114
16931SOL     OW54834   2.120   8.153   2.989 -0.4038  0.0188 -0.9592
16931SOL    HW154835   2.176   8.075   2.984  0.7803  0.8402 -0.7792
16931SOL    HW254836   2.094   8.157   3.081 -1.8212 -1.0494 -1.2606
16932SOL     OW54837   9.087   2.718   5.977  0.0118 -0.0786  0.0751
16932SOL    HW154838   9.177   2.697   5.950 -0.1113 -1.1891  0.4664
16932SOL    HW254839   9.097   2.769   6.057  0.3029  0.3213 -0.2103
16933SOL     OW54840   7.653   7.785   2.857 -0.0112 -0.3065  0.1346
16933SOL    HW154841   7.742   7.786   2.823 -0.1565 -0.3679 -0.2568
16933SOL    HW254842   7.599   7.811   2.783 -0.3107 -0.1867  0.3935
16934SOL     OW54843   4.070   5.755   0.006 -0.5111 -0.7008 -0.6859
16934SOL    HW154844   3.997   5.817   0.004 -1.3184 -1.5612  0.3833
16934SOL    HW254845   4.130   5.792   0.070 -0.4982 -0.4987 -0.8143
16935SOL     OW54846   9.736   3.794  10.077 -0.1433 -0.1258  0.2373
16935SOL    HW154847   9.749   3.715  10.024  0.2459  0.1211 -0.0331
16935SOL    HW254848   9.777   3.864  10.027 -2.6187  0.7308 -0.7431
16936SOL     OW54849   5.749   4.087   8.729 -0.1400 -0.5732  0.0161
16936SOL    HW154850   5.673   4.114   8.781 -0.5484  0.2728 -1.0042
16936SOL    HW254851   5.725   4.000   8.696 -0.8795 -0.1220 -0.6798
16937SOL     OW54852   4.741   8.866   9.343  0.2435 -0.1993  0.2920
16937SOL    HW154853   4.821   8.819   9.319  0.0874 -0.4778  0.3156
16937SOL    HW254854   4.686   8.799   9.384  0.0061 -0.0015  0.2933
16938SOL     OW54855   2.142   4.251   8.847  0.0530  0.1173  0.0965
16938SOL    HW154856   2.079   4.321   8.831 -0.6551 -0.5128  0.0904
16938SOL    HW254857   2.160   4.256   8.941 -0.5922 -0.1921  0.2371
16939SOL     OW54858   2.171   9.910   2.642  0.6838  0.2589 -0.6465
16939SOL    HW154859   2.167   9.991   2.692  1.0537  0.8347 -1.5274
16939SOL    HW254860   2.111   9.851   2.688  1.4779  0.5530  0.8237
16940SOL     OW54861   2.485   2.796   7.532  0.2902 -0.0921  0.2626
16940SOL    HW154862   2.501   2.887   7.507 -0.4896 -0.4863 -1.9296
16940SOL    HW254863   2.563   2.769   7.579 -0.7689  2.6429  4.0117
16941SOL     OW54864   0.679   3.969   1.480  0.3541 -0.0707 -0.3908
16941SOL    HW154865   0.632   4.050   1.500  0.9044  0.4640 -1.1769
16941SOL    HW254866   0.751   3.997   1.423  0.6061 -1.1034 -0.5981
16942SOL     OW54867   3.367   5.296  10.139  0.1003 -0.0386 -0.0503
16942SOL    HW154868   3.455   5.258  10.136 -0.2413 -0.8662 -2.6747
16942SOL    HW254869   3.309   5.222  10.122 -0.8445  0.9603 -1.4499
16943SOL     OW54870   6.932   7.078   0.561 -0.1133 -0.0932  0.3160
16943SOL    HW154871   6.884   7.060   0.642 -1.4106 -0.8339 -0.5764
16943SOL    HW254872   7.000   7.011   0.559  2.1517  1.9421  2.4074
16944SOL     OW54873   4.357   2.048   2.116  0.6268  0.3809 -0.3900
16944SOL    HW154874   4.376   2.061   2.023 -0.9445  0.8037 -0.6968
16944SOL    HW254875   4.268   2.084   2.127  1.4216  1.9194  1.6390
16945SOL     OW54876   8.781   3.783   5.643 -0.4425 -0.2681 -0.8358
16945SOL    HW154877   8.833   3.766   5.565 -0.1027  1.6306 -1.0778
16945SOL    HW254878   8.694   3.808   5.610 -0.9136 -1.4321 -0.5137
16946SOL     OW54879   0.396   9.160   5.569 -0.0182 -0.2849  0.3168
16946SOL    HW154880   0.405   9.242   5.521 -1.7342  0.9189  1.9566
16946SOL    HW254881   0.482   9.146   5.609  0.8171 -0.2569 -1.3771
16947SOL     OW54882   8.483   3.055   5.840  0.5389  0.2957  0.2107
16947SOL    HW154883   8.559   3.112   5.854 -1.3383  2.9719  0.3577
16947SOL    HW254884   8.467   3.059   5.746 -0.5006  1.3620  0.4049
16948SOL     OW54885   6.339   6.102   4.566 -0.5085 -0.0326 -0.2868
16948SOL    HW154886   6.398   6.178   4.561  0.3934 -0.7763 -1.6453
16948SOL    HW254887   6.251   6.139   4.558 -0.3301  1.1517  2.1774
16949SOL     OW54888   4.684   7.314   4.378  0.4179 -0.0315  0.6434
16949SOL    HW154889   4.674   7.315   4.473 -1.9621 -0.5062  0.4495
16949SOL    HW254890   4.699   7.222   4.357  1.8968  0.1958  0.6025
16950SOL     OW54891   0.520   5.266   0.308  0.2230 -0.2007  0.5323
16950SOL    HW154892   0.562   5.202   0.365 -0.2462 -0.8002  0.2077
16950SOL    HW254893   0.581   5.275   0.234 -0.3344 -1.2863 -0.0809
16951SOL     OW54894   4.665   1.538   7.895 -0.5814 -0.3864 -0.1676
16951SOL    HW154895   4.727   1.609   7.878 -1.0871  0.7773  2.4204
16951SOL    HW254896   4.716   1.458   7.887  0.6106  0.4014 -0.6509
16952SOL     OW54897   1.687   6.028   3.364 -0.0735 -0.2216 -0.1552
16952SOL    HW154898   1.631   5.958   3.330 -1.0468 -0.7453  2.3206
16952SOL    HW254899   1.626   6.097   3.389  0.7066  0.6011 -0.4611
16953SOL     OW54900   3.893   6.472   0.186 -0.1771  0.7154 -0.5334
16953SOL    HW154901   3.871   6.400   0.127  0.4875  0.4813 -0.5026
16953SOL    HW254902   3.985   6.456   0.210 -1.1231 -0.7236  2.6964
16954SOL     OW54903   1.747   1.702   0.293 -1.1237 -0.0543 -0.5122
16954SOL    HW154904   1.833   1.674   0.322 -0.7686 -0.7727 -2.1096
16954SOL    HW254905   1.742   1.795   0.315 -0.1241 -0.1108 -0.0184
16955SOL     OW54906   7.680   9.199   3.651  0.2658 -0.0533  0.4591
16955SOL    HW154907   7.607   9.252   3.684 -0.6444  0.7335 -2.4355
16955SOL    HW254908   7.741   9.264   3.613  0.6297 -0.8938 -0.4361
16956SOL     OW54909   2.832   0.052   4.537 -0.0004  0.5604  0.2616
16956SOL    HW154910   2.831  -0.019   4.602  1.1023 -0.5695 -0.9034
16956SOL    HW254911   2.886   0.120   4.577 -1.8771  1.2498  1.8245
16957SOL     OW54912   9.082   4.806   4.216  0.3285  0.1468 -0.2875
16957SOL    HW154913   9.155   4.863   4.194 -0.1213  0.7807 -0.1855
16957SOL    HW254914   9.009   4.866   4.233 -0.3737 -0.4956 -0.9633
16958SOL     OW54915   0.435   3.782   8.077 -0.0021 -0.6812 -0.3452
16958SOL    HW154916   0.520   3.766   8.119 -0.2910  0.4731  0.7276
16958SOL    HW254917   0.447   3.751   7.987  1.0975 -1.8445  0.1702
16959SOL     OW54918   0.308   4.539   1.782 -0.0024  0.3944  0.0603
16959SOL    HW154919   0.232   4.593   1.759 -0.1090 -0.1673 -0.9573
16959SOL    HW254920   0.371   4.556   1.713  0.8149  0.8351  0.8885
16960SOL     OW54921   1.899   0.914   5.248 -0.6953 -0.0136  0.4775
16960SOL    HW154922   1.886   0.883   5.337 -1.1786 -1.3502 -0.0281
16960SOL    HW254923   1.980   0.966   5.252  0.2245 -1.4323  1.3897
16961SOL     OW54924   0.504   5.271   4.420 -0.5111  0.2627  0.1302
16961SOL    HW154925   0.545   5.211   4.483  1.7790  1.0046 -0.5392
16961SOL    HW254926   0.432   5.220   4.382  0.3227 -1.4949  0.7675
16962SOL     OW54927   1.107   9.264   2.172 -0.1993  0.3039  0.0207
16962SOL    HW154928   1.033   9.319   2.146 -2.2727 -2.2082  0.1376
16962SOL    HW254929   1.073   9.213   2.247  1.0229 -2.1313 -0.9615
16963SOL     OW54930   0.381   0.538   0.288  0.0587  0.7242 -0.1915
16963SOL    HW154931   0.385   0.606   0.355 -0.0882 -0.0449  0.6124
16963SOL    HW254932   0.357   0.584   0.208  0.0621  1.6280  0.3211
16964SOL     OW54933   4.331   2.545   9.107 -0.0956 -0.1150 -0.1707
16964SOL    HW154934   4.264   2.476   9.108 -0.2178  0.0041  0.4071
16964SOL    HW254935   4.296   2.613   9.165 -0.4560  0.9044 -1.5608
16965SOL     OW54936   0.424   1.387   4.939  0.0619  0.1750 -0.0068
16965SOL    HW154937   0.366   1.461   4.959 -0.4512 -0.4222  0.7724
16965SOL    HW254938   0.487   1.386   5.012  1.4851  1.2093 -1.1604
16966SOL     OW54939   8.284   0.329  10.234  0.3277  0.2878 -0.0523
16966SOL    HW154940   8.221   0.292  10.296  1.7722 -0.8325  0.8061
16966SOL    HW254941   8.238   0.327  10.150 -0.1432 -2.3175  0.1783
16967SOL     OW54942   5.240   1.195   1.692 -0.1331  0.0515 -0.0801
16967SOL    HW154943   5.225   1.103   1.670  0.0222  0.1881 -0.8011
16967SOL    HW254944   5.166   1.219   1.747  0.1472 -0.6692  0.6211
16968SOL     OW54945   0.458   0.769   0.468  0.2708 -0.0597 -0.0147
16968SOL    HW154946   0.459   0.747   0.561 -0.4860  0.6305  0.1588
16968SOL    HW254947   0.491   0.858   0.463 -2.0199  0.8416 -0.1328
16969SOL     OW54948   4.185   5.596   2.329 -0.0324  0.3696 -0.2943
16969SOL    HW154949   4.235   5.542   2.391 -0.4128  0.3335 -0.0111
16969SOL    HW254950   4.099   5.606   2.371 -0.0593  0.9517 -0.4819
16970SOL     OW54951   9.203   1.770   7.597 -0.1521 -0.5195  0.0087
16970SOL    HW154952   9.240   1.700   7.544 -1.2215 -0.9239 -0.2357
16970SOL    HW254953   9.183   1.841   7.535 -0.4521 -0.5906  0.0202
16971SOL     OW54954   9.668   0.133   5.206 -0.2400 -0.1508  0.4277
16971SOL    HW154955   9.668   0.063   5.139  1.0512 -0.5736  0.8427
16971SOL    HW254956   9.719   0.096   5.278  1.0684  1.4797  0.3801
16972SOL     OW54957   6.841   0.917   4.820  0.5869  0.0405  0.9503
16972SOL    HW154958   6.790   0.867   4.883  1.4129 -2.2043 -0.0289
16972SOL    HW254959   6.930   0.881   4.828  1.5040  2.1793  0.9550
16973SOL     OW54960   8.566   6.156   3.981 -0.4353 -0.1900  0.1281
16973SOL    HW154961   8.544   6.139   3.889 -2.3440  1.0102  0.3160
16973SOL    HW254962   8.521   6.087   4.029  0.2806 -0.6125  0.2015
16974SOL     OW54963   9.424   7.058   1.553  0.1958 -0.0151  0.3475
16974SOL    HW154964   9.471   7.008   1.487 -2.0357 -1.2034 -0.4611
16974SOL    HW254965   9.469   7.143   1.555  0.9302 -0.2601 -2.0273
16975SOL     OW54966   3.752   7.734   2.694  0.6583  0.0974  0.1796
16975SOL    HW154967   3.773   7.827   2.689  0.5982  0.0973 -0.1405
16975SOL    HW254968   3.680   7.723   2.632 -0.5516  0.1688  1.5370
16976SOL     OW54969   4.093   3.648   1.587  0.3719 -0.1199  0.0780
16976SOL    HW154970   4.048   3.647   1.672 -2.1698 -2.3137 -1.1273
16976SOL    HW254971   4.135   3.562   1.581 -0.2256 -0.3515 -1.1762
16977SOL     OW54972   1.936   6.106   9.514  0.6275  0.3423  0.1550
16977SOL    HW154973   1.855   6.057   9.501  1.7952 -1.8685  0.7846
16977SOL    HW254974   1.911   6.197   9.499 -1.6153 -0.4140 -1.2181
16978SOL     OW54975   1.131   0.669   2.161  0.1681 -0.6354 -0.0570
16978SOL    HW154976   1.121   0.713   2.077  0.8175 -0.2469  0.0584
16978SOL    HW254977   1.180   0.731   2.216  2.3610 -1.9894 -0.3368
16979SOL     OW54978   6.807   3.565   2.853  0.2950 -0.3348  0.1737
16979SOL    HW154979   6.790   3.505   2.780 -0.3555 -0.3876  0.3618
16979SOL    HW254980   6.841   3.644   2.811 -1.0859  0.0382 -0.3137
16980SOL     OW54981   6.777   4.391   4.984  0.1555  0.5297  0.3290
16980SOL    HW154982   6.794   4.314   5.039 -0.9512  0.3431  0.4232
16980SOL    HW254983   6.690   4.377   4.949  0.5439  1.0198 -0.8877
16981SOL     OW54984   6.856   4.052   5.971 -0.1307  0.0912  0.1467
16981SOL    HW154985   6.874   4.109   5.896 -0.1407 -1.0998 -0.7884
16981SOL    HW254986   6.828   4.112   6.040  2.4330  1.5094  0.0687
16982SOL     OW54987   4.254   5.813   9.529 -0.2222  0.3971 -0.1931
16982SOL    HW154988   4.195   5.760   9.476 -0.3765  0.6338 -0.2555
16982SOL    HW254989   4.218   5.808   9.617  0.6286 -0.8884  0.1209
16983SOL     OW54990   0.661   4.282   6.097  0.7289  0.1407  0.4187
16983SOL    HW154991   0.604   4.313   6.027  1.3955  0.5598  0.0413
16983SOL    HW254992   0.690   4.195   6.069  0.7082  0.1561  0.3513
16984SOL     OW54993   7.180   6.079   1.955 -0.3273 -0.1945 -0.4862
16984SOL    HW154994   7.148   6.076   1.865 -1.5894  0.5690 -0.0899
16984SOL    HW254995   7.122   6.020   2.003  0.3178 -0.5740 -0.1553
16985SOL     OW54996   4.446  10.029   1.383  0.1413 -0.0086 -0.2150
16985SOL    HW154997   4.403  10.105   1.423 -0.2510 -1.0347  1.4255
16985SOL    HW254998   4.412  10.026   1.294 -2.0048  0.1522  0.5441
16986SOL     OW54999   5.432   7.695   2.011 -0.7379  0.0962 -0.0296
16986SOL    HW155000   5.446   7.632   1.940 -0.6157  0.7711 -0.6118
16986SOL    HW255001   5.358   7.659   2.060 -0.9718 -0.2667 -0.6322
16987SOL     OW55002   3.139   4.818   8.459 -0.7213 -0.4381 -0.3085
16987SOL    HW155003   3.060   4.767   8.441 -0.3572 -0.4541 -2.0908
16987SOL    HW255004   3.140   4.886   8.391 -0.7108  1.4011  1.4456
16988SOL     OW55005   5.922   2.240   6.234  0.1674 -0.5973  0.2049
16988SOL    HW155006   5.915   2.237   6.138 -1.0352  1.2161  0.1779
16988SOL    HW255007   5.989   2.307   6.251 -0.0296 -0.5005  0.6197
16989SOL     OW55008   7.777   4.980   0.554 -0.4170 -0.4889 -0.0314
16989SOL    HW155009   7.782   4.929   0.472  0.1346  1.0398 -0.9885
16989SOL    HW255010   7.694   5.027   0.548 -0.8948 -1.1797  0.8272
16990SOL     OW55011   8.930   4.020   0.408  0.3459 -0.0297 -0.6099
16990SOL    HW155012   8.940   3.926   0.400 -1.5233 -0.4432  1.2902
16990SOL    HW255013   8.980   4.044   0.485  1.0803  0.6159 -1.2629
16991SOL     OW55014   5.151   7.700   1.588  0.4432  0.5382  0.0138
16991SOL    HW155015   5.227   7.747   1.622  0.1647 -1.4206  3.9458
16991SOL    HW255016   5.076   7.749   1.620  0.1621 -0.9438  1.7758
16992SOL     OW55017   0.070   3.272   1.763 -0.4194  0.2228 -0.2402
16992SOL    HW155018   0.111   3.232   1.687  3.0553 -0.6436  1.8480
16992SOL    HW255019   0.014   3.203   1.800  1.9478 -1.2969  0.7570
16993SOL     OW55020   4.364   9.749   9.886 -0.2965  1.1747 -0.1957
16993SOL    HW155021   4.332   9.762   9.797 -3.5685 -0.1379  0.6550
16993SOL    HW255022   4.349   9.834   9.929  1.2133  1.7843 -0.8081
16994SOL     OW55023   6.680   7.493   6.026  0.2663  0.4705 -0.0782
16994SOL    HW155024   6.710   7.577   6.063  0.2964  0.4244  0.0020
16994SOL    HW255025   6.760   7.452   5.993  0.2950  0.3311  0.1681
16995SOL     OW55026   3.756   3.478   3.024  0.1675  0.5380  0.2057
16995SOL    HW155027   3.726   3.511   3.108  0.9986  1.6952  0.0642
16995SOL    HW255028   3.676   3.450   2.979 -0.1829 -1.3926  1.8779
16996SOL     OW55029   7.353   4.178   1.697  0.1826  0.0783  0.9282
16996SOL    HW155030   7.362   4.256   1.644  0.6547 -0.5179  0.1113
16996SOL    HW255031   7.275   4.134   1.662 -0.1177  0.1982  1.4246
16997SOL     OW55032   3.949   9.379   5.900 -0.5352  0.6283 -0.0776
16997SOL    HW155033   3.965   9.349   5.990  0.6081  2.9825  0.5664
16997SOL    HW255034   3.975   9.471   5.900 -0.4380  0.6764 -2.8584
16998SOL     OW55035   7.322   2.865   1.814  0.5272  0.2174 -0.1019
16998SOL    HW155036   7.255   2.842   1.878 -0.5961 -1.2846 -1.6936
16998SOL    HW255037   7.390   2.798   1.825  2.3888  2.3258  2.2057
16999SOL     OW55038   0.260   3.128   9.411  0.2284 -0.1518 -0.0820
16999SOL    HW155039   0.291   3.096   9.496 -0.9272  0.1126  0.4485
16999SOL    HW255040   0.303   3.213   9.401  0.2568 -0.1180  0.3052
17000SOL     OW55041   1.524   9.591   5.107 -0.5752  0.5076  0.0737
17000SOL    HW155042   1.547   9.573   5.198 -1.8446  0.7874  0.4796
17000SOL    HW255043   1.545   9.684   5.095  0.7722  0.1669 -0.3188
17001SOL     OW55044   4.742   5.389   9.447 -0.0847 -0.3343 -0.3978
17001SOL    HW155045   4.796   5.447   9.393 -0.9545 -0.6175 -1.6201
17001SOL    HW255046   4.763   5.413   9.537  1.0027  0.5371 -0.8653
17002SOL     OW55047   0.003   3.496   2.946 -0.4980 -0.5405  0.7190
17002SOL    HW155048   0.006   3.588   2.972 -0.9221 -0.4140  0.3383
17002SOL    HW255049  -0.061   3.493   2.876  1.8354 -0.5619 -1.5709
17003SOL     OW55050   8.439   3.839   2.165  0.1872 -0.0084 -0.5322
17003SOL    HW155051   8.386   3.841   2.086  0.6801  0.5032 -0.8611
17003SOL    HW255052   8.501   3.767   2.151  0.8795  0.6659 -1.0273
17004SOL     OW55053   2.197   0.677   2.652  0.0292 -0.1721 -0.0379
17004SOL    HW155054   2.275   0.726   2.678  0.8482  0.0343 -2.5523
17004SOL    HW255055   2.226   0.586   2.650 -0.1842 -0.2473  0.3275
17005SOL     OW55056   5.660   4.056   0.275  0.1062 -0.3549  0.7583
17005SOL    HW155057   5.688   4.017   0.192  2.0967  1.7933  0.3141
17005SOL    HW255058   5.572   4.090   0.258  0.4284 -0.0772 -0.4428
17006SOL     OW55059   0.907   7.880   6.489  0.2736 -0.1882  0.0347
17006SOL    HW155060   0.898   7.966   6.529 -0.2189 -0.3720  0.3229
17006SOL    HW255061   0.951   7.826   6.555 -0.6318 -0.5197  0.3734
17007SOL     OW55062   5.996   0.908   1.974  0.2067  0.2902 -0.1411
17007SOL    HW155063   5.987   0.965   1.897  0.6849  0.6435  0.0535
17007SOL    HW255064   6.091   0.900   1.985  0.1370  0.0446  0.2704
17008SOL     OW55065   1.515   8.386   0.803  0.9104 -0.2528 -0.2431
17008SOL    HW155066   1.547   8.344   0.883 -0.3279 -0.2323  0.2914
17008SOL    HW255067   1.513   8.315   0.738  0.0384 -0.7583  0.3071
17009SOL     OW55068   9.043   8.756   8.760 -0.2089 -0.0784 -0.2022
17009SOL    HW155069   9.067   8.685   8.701  0.7982  0.5353 -0.5642
17009SOL    HW255070   9.017   8.713   8.841 -1.1757 -0.9208 -0.9321
17010SOL     OW55071   1.720   6.137   1.000 -0.1082  0.2056  0.0580
17010SOL    HW155072   1.704   6.209   0.939  1.2809 -0.0309 -0.6162
17010SOL    HW255073   1.758   6.179   1.077 -1.7814  0.4936  0.7605
17011SOL     OW55074   3.846   1.116   2.518 -0.0823 -0.6366  0.6400
17011SOL    HW155075   3.939   1.092   2.513  0.2382  0.7853 -1.1784
17011SOL    HW255076   3.838   1.193   2.461 -2.6780 -1.6471 -0.5045
17012SOL     OW55077   6.674   3.535   4.531 -0.0416 -0.1758 -0.1249
17012SOL    HW155078   6.759   3.497   4.511  0.3797 -1.0696  2.8871
17012SOL    HW255079   6.687   3.629   4.520  1.1974 -0.3352 -0.1742
17013SOL     OW55080   1.255   4.564   1.449  0.3758 -0.5772  0.2527
17013SOL    HW155081   1.255   4.659   1.444  0.8477 -0.5580  0.5819
17013SOL    HW255082   1.277   4.535   1.360 -1.5396 -0.4195 -0.3145
17014SOL     OW55083   5.130   4.231   1.489  0.2152  0.2900 -0.3584
17014SOL    HW155084   5.160   4.316   1.456 -0.7299  0.7714 -0.0272
17014SOL    HW255085   5.078   4.253   1.566  0.4457 -0.6433  0.0718
17015SOL     OW55086   2.079   3.493   1.686  0.4217 -0.0039 -0.7215
17015SOL    HW155087   2.098   3.477   1.594 -3.5531  0.7178 -1.8766
17015SOL    HW255088   2.078   3.589   1.694  2.2079 -0.0371  0.5398
17016SOL     OW55089   5.436   1.057   6.689  0.0163 -0.6367  0.0291
17016SOL    HW155090   5.392   0.991   6.741 -2.2299  1.8492  1.5548
17016SOL    HW255091   5.365   1.107   6.649  1.5909  0.8536 -1.0433
17017SOL     OW55092   3.405   3.863  10.155 -0.3436  0.6659 -0.1325
17017SOL    HW155093   3.485   3.828  10.195 -1.1214  0.3583  1.2314
17017SOL    HW255094   3.335   3.809  10.193 -1.0908 -0.0423 -2.4029
17018SOL     OW55095   5.324   7.721   9.579 -0.2289 -0.0000 -0.0797
17018SOL    HW155096   5.265   7.786   9.540  0.2587 -0.4643 -1.6730
17018SOL    HW255097   5.378   7.771   9.640  0.2593  1.1527 -1.4066
17019SOL     OW55098   3.772   6.291  10.292  0.7559  0.0205  0.2661
17019SOL    HW155099   3.713   6.219  10.267  1.9014 -0.3808 -1.5002
17019SOL    HW255100   3.860   6.257  10.273  1.5915  0.6803  2.6312
17020SOL     OW55101   7.534   9.635   2.758  0.5645  0.6671 -0.0058
17020SOL    HW155102   7.599   9.617   2.826  1.4767 -0.2103 -1.0599
17020SOL    HW255103   7.586   9.651   2.679 -0.4679 -1.3716 -1.1939
17021SOL     OW55104   6.114   2.780   2.042 -0.1621 -0.5206  0.4101
17021SOL    HW155105   6.157   2.853   2.088 -1.0863  0.1359  0.2535
17021SOL    HW255106   6.172   2.705   2.058  2.1059  0.6984 -1.3993
17022SOL     OW55107   8.793   5.742   1.795 -0.6560 -0.1472 -0.1794
17022SOL    HW155108   8.733   5.736   1.870  0.7855  5.2720  1.8427
17022SOL    HW255109   8.875   5.706   1.827 -1.1089 -1.8498 -0.8143
17023SOL     OW55110   6.811  10.219   8.037  0.4621  0.0959 -0.4095
17023SOL    HW155111   6.824  10.277   8.113  0.8085  0.6912 -0.9115
17023SOL    HW255112   6.883  10.156   8.043  0.9425  0.6048 -0.6500
17024SOL     OW55113   0.589   4.697   8.565 -0.3611 -0.0578 -0.0519
17024SOL    HW155114   0.662   4.639   8.545  0.5327  0.8126  0.6008
17024SOL    HW255115   0.578   4.691   8.660  0.0129  1.1097  0.0861
17025SOL     OW55116   7.006   9.821   9.318  0.6690 -0.3737  0.4792
17025SOL    HW155117   7.034   9.904   9.279 -1.0258 -1.2086 -2.8518
17025SOL    HW255118   7.054   9.754   9.270  0.1209 -1.4433  1.3725
17026SOL     OW55119   2.570   9.511   9.735  0.2602  0.2436  0.4898
17026SOL    HW155120   2.534   9.496   9.647 -0.0364 -0.0776  0.6628
17026SOL    HW255121   2.624   9.590   9.726 -0.1658  0.4974  0.1307
17027SOL     OW55122   1.135   0.309   9.456  0.4363 -0.3880 -0.1192
17027SOL    HW155123   1.147   0.227   9.504 -0.1242 -0.9416 -0.8992
17027SOL    HW255124   1.191   0.372   9.502 -0.2458 -0.8384  1.3776
17028SOL     OW55125   9.486   1.747   5.678 -0.1404 -0.2793  0.1762
17028SOL    HW155126   9.567   1.771   5.723 -0.9694  1.9019  0.5852
17028SOL    HW255127   9.512   1.739   5.586  0.4396  1.0636  0.2012
17029SOL     OW55128   5.176   5.272   8.998  0.4990 -0.1038  1.1781
17029SOL    HW155129   5.156   5.268   9.092 -2.3198  0.0916  0.6718
17029SOL    HW255130   5.142   5.357   8.970  0.2445 -0.6506 -0.2279
17030SOL     OW55131   0.014   6.021   9.704 -0.2626  0.3491 -0.0171
17030SOL    HW155132  -0.053   5.962   9.740 -1.2149 -0.3723 -2.7629
17030SOL    HW255133   0.096   5.971   9.711 -0.3330  0.3675  1.3439
17031SOL     OW55134   5.540   0.247   2.349 -0.0732  0.3009 -0.0753
17031SOL    HW155135   5.603   0.177   2.363 -0.3467 -0.1971 -1.1931
17031SOL    HW255136   5.560   0.312   2.416  0.8537 -0.3794  0.3238
17032SOL     OW55137   0.107   5.598   1.156  0.1591 -0.5777 -0.0352
17032SOL    HW155138   0.115   5.507   1.127  0.1052 -0.5971  0.0104
17032SOL    HW255139   0.148   5.599   1.243 -0.1215 -0.6256  0.0986
17033SOL     OW55140   0.971   5.360   5.463  0.0332 -0.4413 -0.4924
17033SOL    HW155141   0.963   5.297   5.536 -2.5004 -1.7705 -1.7783
17033SOL    HW255142   0.917   5.434   5.490 -0.1542 -0.5262 -0.6370
17034SOL     OW55143   3.757   7.533   1.505  0.0186  0.2776  0.2640
17034SOL    HW155144   3.794   7.595   1.567  2.9266  0.3736 -1.3879
17034SOL    HW255145   3.670   7.568   1.485  0.1057  1.7349  2.1273
17035SOL     OW55146   0.121   3.628   3.555  0.1285 -0.1651 -0.5967
17035SOL    HW155147   0.144   3.667   3.471 -1.4523  1.3918 -0.3572
17035SOL    HW255148   0.067   3.553   3.533  0.9538 -0.6666 -0.9827
17036SOL     OW55149   8.922   4.351   5.039  0.2977 -0.2869 -0.1752
17036SOL    HW155150   8.888   4.431   5.079  0.3884 -1.6145  2.8463
17036SOL    HW255151   8.850   4.319   4.984 -0.5535  0.7338  0.3232
17037SOL     OW55152   5.824   1.419   5.390  0.2212  0.2273  0.4690
17037SOL    HW155153   5.841   1.340   5.339 -2.0136  0.0724 -0.1258
17037SOL    HW255154   5.845   1.491   5.330 -1.0166  0.0492 -0.1963
17038SOL     OW55155   1.598   1.917   7.723  0.3312  0.4243  0.1265
17038SOL    HW155156   1.629   1.942   7.810  0.5419 -1.1587  0.5231
17038SOL    HW255157   1.516   1.871   7.739  1.8745 -2.6526 -0.1599
17039SOL     OW55158   3.317   9.513   7.946 -0.1739  0.7547 -0.4449
17039SOL    HW155159   3.291   9.598   7.980  0.0127  1.4589 -1.9694
17039SOL    HW255160   3.325   9.526   7.852 -1.0712 -1.1990 -0.8451
17040SOL     OW55161   7.995   3.296   6.437  0.2674 -0.6807  0.4274
17040SOL    HW155162   8.079   3.318   6.395  0.5776 -2.1687  0.2127
17040SOL    HW255163   8.011   3.211   6.478 -0.4573  0.0828  2.4070
17041SOL     OW55164   0.609   1.814   4.893  0.4968  0.6246 -0.3041
17041SOL    HW155165   0.528   1.803   4.842  1.1001  1.9305 -1.6195
17041SOL    HW255166   0.579   1.829   4.982 -0.5976 -1.9816 -0.1483
17042SOL     OW55167   6.940   6.365   6.968 -0.1899 -0.1982 -0.5276
17042SOL    HW155168   6.915   6.457   6.972 -2.6358 -0.8007 -0.2873
17042SOL    HW255169   6.949   6.347   6.875 -1.7604 -0.1678 -0.7130
17043SOL     OW55170   8.270   5.144   9.942  0.0225  0.1542 -0.1992
17043SOL    HW155171   8.252   5.079  10.010  0.7232 -1.7490 -1.7253
17043SOL    HW255172   8.301   5.221   9.990  1.6723 -1.5157  1.6023
17044SOL     OW55173   3.727   5.674   3.462 -0.3633 -0.2816  0.5604
17044SOL    HW155174   3.798   5.628   3.507  0.4345 -1.2505 -1.5619
17044SOL    HW255175   3.764   5.760   3.440 -0.7180  0.1519  1.5772
17045SOL     OW55176   9.328   7.601   7.284  0.1600  0.4038 -0.1739
17045SOL    HW155177   9.377   7.683   7.278 -0.8753  1.0169 -0.4097
17045SOL    HW255178   9.396   7.533   7.290  1.0311  1.2997  0.4746
17046SOL     OW55179   3.711   9.296   7.838 -0.4247 -0.0562 -0.0978
17046SOL    HW155180   3.653   9.284   7.763 -0.4957  1.8738 -0.3909
17046SOL    HW255181   3.707   9.213   7.885 -1.2487 -0.9106 -1.6159
17047SOL     OW55182   9.586   9.449   5.219 -0.3649 -0.3723 -0.3243
17047SOL    HW155183   9.627   9.532   5.193 -0.9280  0.0298  0.0246
17047SOL    HW255184   9.501   9.450   5.173 -0.6069 -0.4871  0.1139
17048SOL     OW55185   0.172   8.395   8.487 -0.1347  0.0921  0.2229
17048SOL    HW155186   0.195   8.430   8.573  1.1154 -2.0389  0.8536
17048SOL    HW255187   0.119   8.318   8.506 -0.8480  0.2656 -0.9823
17049SOL     OW55188   1.550   5.896   7.437 -0.3255 -0.0965 -0.1324
17049SOL    HW155189   1.463   5.908   7.398 -0.1747 -0.2627 -0.5274
17049SOL    HW255190   1.540   5.822   7.496 -0.8149  0.7970  0.9489
17050SOL     OW55191   4.925   6.053   8.189 -0.0898  0.3080 -0.1565
17050SOL    HW155192   4.833   6.079   8.181 -0.7667 -1.7801  0.1435
17050SOL    HW255193   4.962   6.068   8.102 -0.4158  2.1111 -0.0164
17051SOL     OW55194   3.556   1.264   4.362  0.0899  0.2015  0.8685
17051SOL    HW155195   3.551   1.195   4.296  0.4198  0.8022  0.2016
17051SOL    HW255196   3.649   1.269   4.384  0.0634  0.4148  0.9339
17052SOL     OW55197   5.477   5.216   1.504  0.0237  0.0142 -0.5871
17052SOL    HW155198   5.494   5.307   1.478  1.0558 -0.1239 -0.4433
17052SOL    HW255199   5.384   5.204   1.489 -0.4532  1.5718  0.8671
17053SOL     OW55200   4.483   3.979   1.785  0.2900 -0.2507 -0.4043
17053SOL    HW155201   4.477   4.025   1.701 -0.6587 -0.2534 -0.3431
17053SOL    HW255202   4.572   3.944   1.787  1.0005  1.4813 -0.5091
17054SOL     OW55203   9.975   8.077   2.009 -0.3735  0.0753  0.2098
17054SOL    HW155204   9.887   8.039   2.017  0.0143 -1.1538 -1.0482
17054SOL    HW255205  10.026   8.010   1.965  1.3785  0.5425  1.4442
17055SOL     OW55206   5.411   7.366   7.703 -0.1949 -0.1789  0.2007
17055SOL    HW155207   5.452   7.308   7.639  0.5537 -0.7674  1.1862
17055SOL    HW255208   5.385   7.443   7.653  2.9594  0.6503 -0.3586
17056SOL     OW55209   3.706   0.265  10.190 -0.1240 -0.2345 -0.0864
17056SOL    HW155210   3.743   0.352  10.207  0.5359 -0.9231  2.5058
17056SOL    HW255211   3.641   0.279  10.121  1.5936  1.8573 -1.4001
17057SOL     OW55212   8.381   5.155   7.918 -0.1720  0.3794  0.5212
17057SOL    HW155213   8.299   5.139   7.870  0.3448  0.9346 -0.5843
17057SOL    HW255214   8.402   5.071   7.958 -1.5402  0.3459  1.2512
17058SOL     OW55215   4.779   1.679   9.603  0.1750  0.4287  0.9175
17058SOL    HW155216   4.831   1.686   9.523 -0.0832  4.0940  0.9097
17058SOL    HW255217   4.695   1.643   9.574  0.5085  0.5066 -0.1975
17059SOL     OW55218   6.743   1.575   7.473 -0.4543 -0.4244 -0.2671
17059SOL    HW155219   6.767   1.524   7.396 -1.1705  0.4003 -1.0510
17059SOL    HW255220   6.806   1.647   7.475 -0.3978 -0.4794 -0.0434
17060SOL     OW55221   4.494   8.834   9.731 -0.7067 -0.0935  0.2672
17060SOL    HW155222   4.462   8.922   9.750 -2.5012 -0.1885 -1.9322
17060SOL    HW255223   4.462   8.781   9.804 -0.3999  0.8782  1.1376
17061SOL     OW55224   5.322   1.616   8.989  0.4783  0.3310 -0.2712
17061SOL    HW155225   5.336   1.574   8.905  0.1738  0.8228 -0.5740
17061SOL    HW255226   5.404   1.603   9.037 -0.0589 -1.7820  0.1851
17062SOL     OW55227   2.024   5.750   8.927  0.2684 -0.0111  0.4118
17062SOL    HW155228   2.036   5.740   9.022  1.0830 -1.6801  0.1610
17062SOL    HW255229   2.062   5.671   8.889 -0.9487  0.1533 -1.2588
17063SOL     OW55230   7.881   6.532   1.916 -0.4398  0.5056 -0.2595
17063SOL    HW155231   7.790   6.508   1.934 -0.6185  1.0055 -0.4994
17063SOL    HW255232   7.895   6.506   1.825 -0.4801  0.8366 -0.3614
17064SOL     OW55233   6.511   3.917   5.043 -0.3823  0.3319 -0.3481
17064SOL    HW155234   6.542   4.006   5.057 -1.6590  0.9826 -1.4125
17064SOL    HW255235   6.519   3.904   4.948  1.5353 -1.3917 -0.0325
17065SOL     OW55236   7.649   3.124   7.931 -0.1036 -0.1822 -0.4469
17065SOL    HW155237   7.742   3.145   7.922 -0.4673  1.3463 -0.9970
17065SOL    HW255238   7.618   3.183   8.000 -0.7732 -0.2615 -0.6698
17066SOL     OW55239   2.027   5.746   1.059  0.2382 -0.4256  0.1566
17066SOL    HW155240   1.961   5.776   0.996 -1.0532 -4.2074 -0.5387
17066SOL    HW255241   2.108   5.742   1.009 -0.3392 -1.4324 -0.7321
17067SOL     OW55242   8.644   4.036   2.792  0.8730  0.4244 -0.8881
17067SOL    HW155243   8.679   4.114   2.836  1.7718 -0.8088  0.6947
17067SOL    HW255244   8.714   4.008   2.734  1.9295 -1.0203  0.9670
17068SOL     OW55245   1.795   3.942   4.200  0.5976 -0.7986 -0.5765
17068SOL    HW155246   1.838   3.995   4.267 -0.5207 -0.6915  0.0726
17068SOL    HW255247   1.806   3.851   4.230  0.0686 -0.7489 -0.2137
17069SOL     OW55248   7.830   6.416   0.953 -0.6237 -0.7807 -0.2885
17069SOL    HW155249   7.737   6.396   0.951 -0.9603  0.4549  1.2483
17069SOL    HW255250   7.835   6.507   0.981  1.0430 -0.6112 -0.9874
17070SOL     OW55251   5.388   2.428   9.173 -0.2375  0.1735  0.0681
17070SOL    HW155252   5.388   2.338   9.205  1.2116 -0.3869 -1.3332
17070SOL    HW255253   5.407   2.481   9.251 -2.5736 -0.5479  1.1951
17071SOL     OW55254   0.860   3.581   4.261  0.4399 -0.1295  0.1945
17071SOL    HW155255   0.885   3.523   4.189  1.9856  0.1938  0.4489
17071SOL    HW255256   0.790   3.635   4.224 -1.0424 -2.0981 -0.0520
17072SOL     OW55257   6.955   0.301   5.765  0.3500 -0.1576 -0.2080
17072SOL    HW155258   6.867   0.313   5.799  0.7637  0.1593  0.7859
17072SOL    HW255259   6.973   0.381   5.715  0.2412 -0.0249 -0.0332
17073SOL     OW55260   8.603   3.820   3.817 -0.2308 -0.4611 -0.4031
17073SOL    HW155261   8.524   3.786   3.777  1.3188 -0.3226 -3.9374
17073SOL    HW255262   8.667   3.750   3.809  0.6341  0.2118  0.3498
17074SOL     OW55263   2.671   3.155   8.119 -0.1384 -0.3857  0.5606
17074SOL    HW155264   2.713   3.153   8.033 -0.5055 -0.6425  0.3818
17074SOL    HW255265   2.583   3.190   8.101  0.2222  0.7869  1.0306
17075SOL     OW55266   6.719   0.156   1.332 -0.5251  0.1759  0.0194
17075SOL    HW155267   6.749   0.245   1.353 -2.3559  0.3542  2.3124
17075SOL    HW255268   6.799   0.109   1.310  0.6490  2.0857 -0.0509
17076SOL     OW55269   5.187   8.476   2.606  0.7241 -0.0302  0.1203
17076SOL    HW155270   5.274   8.484   2.645  1.4376 -0.8722 -1.2056
17076SOL    HW255271   5.166   8.383   2.614  0.0370  0.1315  0.2351
17077SOL     OW55272   0.546   3.066   9.254 -0.2890  0.2386 -0.6640
17077SOL    HW155273   0.546   3.142   9.312  2.0226 -0.4909  0.4351
17077SOL    HW255274   0.524   2.992   9.310  0.1170 -0.2374 -1.1200
17078SOL     OW55275   7.282   5.010   1.148  0.0841 -0.7087 -0.2194
17078SOL    HW155276   7.188   5.025   1.140  0.2304 -0.0183 -0.8480
17078SOL    HW255277   7.290   4.922   1.185 -0.8268 -0.0245  1.7228
17079SOL     OW55278  10.133   8.170   2.212  0.1900  0.1135 -0.2698
17079SOL    HW155279  10.162   8.079   2.224 -0.5453 -0.1545 -0.4584
17079SOL    HW255280  10.066   8.164   2.144 -1.3904  0.4874  1.1765
17080SOL     OW55281   7.660   7.571   9.956 -0.0332  0.3494 -0.2334
17080SOL    HW155282   7.655   7.552  10.049 -0.9226  1.3933 -0.0429
17080SOL    HW255283   7.619   7.657   9.947  0.8800  0.6917 -1.4598
17081SOL     OW55284   0.104   0.709   5.747 -0.6001 -0.4991  0.0506
17081SOL    HW155285   0.013   0.737   5.748 -0.3760  0.2637  0.3438
17081SOL    HW255286   0.123   0.689   5.655 -0.9903 -0.4224 -0.0467
17082SOL     OW55287   6.975  10.117   3.916 -0.6058  0.1624  0.1005
17082SOL    HW155288   7.050  10.094   3.860  0.0059 -0.2802  1.0650
17082SOL    HW255289   6.900  10.075   3.875  0.2188 -2.2177  0.8972
17083SOL     OW55290   7.719   2.151   0.493  0.0195  0.3264 -0.4425
17083SOL    HW155291   7.810   2.130   0.471 -0.3101 -0.4983 -1.0680
17083SOL    HW255292   7.726   2.204   0.573  1.3445  4.3177 -2.9254
17084SOL     OW55293   6.826   3.172   6.776  0.7613  0.4252 -0.4315
17084SOL    HW155294   6.918   3.190   6.794  1.0638  0.4483 -1.8953
17084SOL    HW255295   6.798   3.116   6.848  2.4667 -1.2379 -0.9978
17085SOL     OW55296   5.622   0.018   7.312  0.0851 -0.4068 -0.3425
17085SOL    HW155297   5.595  -0.057   7.260  0.2718 -0.5824 -0.1868
17085SOL    HW255298   5.662   0.078   7.248 -0.3474 -0.3015 -0.5128
17086SOL     OW55299   6.961   7.406   6.176  0.6264  0.6075  0.0620
17086SOL    HW155300   7.012   7.437   6.251  0.6069  0.3476  0.1871
17086SOL    HW255301   7.014   7.428   6.100  1.7484 -1.1260  0.2761
17087SOL     OW55302  10.031   2.491   2.216 -0.2973  0.1130  0.0048
17087SOL    HW155303  10.000   2.453   2.298 -0.1306 -2.0513 -0.8532
17087SOL    HW255304   9.969   2.561   2.196 -2.2280 -1.3923  0.3995
17088SOL     OW55305   2.813   1.719   8.571 -0.8095 -0.4028 -0.0478
17088SOL    HW155306   2.802   1.653   8.503  2.2335  0.0775 -1.1367
17088SOL    HW255307   2.814   1.802   8.524  1.5530 -0.0727  0.4885
17089SOL     OW55308   0.627   2.554   0.368 -0.0444  0.2676 -0.1554
17089SOL    HW155309   0.598   2.465   0.352 -0.4915  0.4799 -0.5418
17089SOL    HW255310   0.719   2.545   0.395 -0.4321 -0.4034  1.0228
17090SOL     OW55311   4.339   4.275   6.588 -0.2676  0.0775  0.1469
17090SOL    HW155312   4.385   4.192   6.594 -1.5838 -0.7177 -0.2407
17090SOL    HW255313   4.347   4.313   6.676  0.5322 -0.3477  0.2694
17091SOL     OW55314   2.115   2.789   9.165  0.8431 -0.6653 -0.0666
17091SOL    HW155315   2.192   2.734   9.182  0.5906 -1.6068 -1.7155
17091SOL    HW255316   2.049   2.729   9.132 -0.7434  0.0889  1.5580
17092SOL     OW55317   5.378   7.941   4.356  0.4573  0.2528 -0.2020
17092SOL    HW155318   5.457   7.888   4.369  0.0717  0.1334  2.0028
17092SOL    HW255319   5.306   7.886   4.388 -0.5659  0.3750 -2.1268
17093SOL     OW55320   4.580   3.172   7.671 -1.2974 -0.0922 -0.2309
17093SOL    HW155321   4.506   3.127   7.631 -0.3173 -1.2198 -0.8380
17093SOL    HW255322   4.641   3.102   7.694  0.6138  0.9404 -1.8682
17094SOL     OW55323   0.825   5.358   3.502  0.2379 -0.2272  0.0456
17094SOL    HW155324   0.801   5.401   3.584  0.3783 -0.6263  0.3051
17094SOL    HW255325   0.742   5.340   3.459  0.1991  0.6762 -0.2660
17095SOL     OW55326   5.749   6.839   8.044  0.1000 -0.2613 -0.2648
17095SOL    HW155327   5.756   6.928   8.009  0.3140 -0.7960 -1.6165
17095SOL    HW255328   5.839   6.809   8.051 -0.0338 -1.0395 -1.6099
17096SOL     OW55329   6.990   1.143   3.028  0.1229 -0.4605 -0.2484
17096SOL    HW155330   7.070   1.194   3.016  1.2159 -2.0123  0.1879
17096SOL    HW255331   6.930   1.176   2.961  1.0454  0.8526 -0.4631
17097SOL     OW55332   5.113   1.110   7.214  0.2233  0.2921  0.2032
17097SOL    HW155333   5.200   1.138   7.186  1.0040  1.5024  3.4419
17097SOL    HW255334   5.128   1.061   7.294 -2.0952  1.2999  1.3540
17098SOL     OW55335   3.577   2.647   3.549 -0.0225  0.2342 -0.1839
17098SOL    HW155336   3.549   2.736   3.573 -0.7410 -0.2743  0.9346
17098SOL    HW255337   3.671   2.655   3.532 -0.1889  1.3191 -0.7179
17099SOL     OW55338   5.322   3.053  10.095  0.2238 -0.2187  0.3211
17099SOL    HW155339   5.337   2.964  10.127 -0.6818 -0.4286  0.1936
17099SOL    HW255340   5.359   3.110  10.162 -0.2623 -0.6786  0.9896
17100SOL     OW55341   5.804   6.033   9.932  0.3342 -0.1374  0.0755
17100SOL    HW155342   5.772   6.012  10.020 -2.2660 -2.2493 -1.2127
17100SOL    HW255343   5.859   5.958   9.908  0.1466 -0.1135 -0.4502
17101SOL     OW55344   3.390   6.049   1.121 -0.5757  0.1345  0.7866
17101SOL    HW155345   3.354   6.093   1.198  1.1277 -0.6539  2.0857
17101SOL    HW255346   3.485   6.055   1.131 -0.2967  0.0735 -1.3142
17102SOL     OW55347   3.724   5.380   9.922  0.0291 -0.1003 -0.1468
17102SOL    HW155348   3.764   5.401  10.006  0.1540 -0.9052  0.0089
17102SOL    HW255349   3.664   5.453   9.905  0.2758  0.2531  0.4590
17103SOL     OW55350   9.603   1.074   6.870 -0.3615  0.4877 -0.0377
17103SOL    HW155351   9.615   1.056   6.963 -2.0131  1.5245  0.4074
17103SOL    HW255352   9.616   0.989   6.828  1.0081  0.1209  1.0424
17104SOL     OW55353   5.940   1.039  10.097  0.2205  0.3281 -0.1680
17104SOL    HW155354   5.876   1.016  10.165 -0.4540 -0.3792 -1.0264
17104SOL    HW255355   5.888   1.077  10.026  0.8817  0.7318 -0.4458
17105SOL     OW55356   1.355   7.311  10.090  0.1473 -0.3096  0.7738
17105SOL    HW155357   1.395   7.224  10.090  0.6141 -0.1032  0.1696
17105SOL    HW255358   1.371   7.345  10.002  1.1035  0.9000  1.3892
17106SOL     OW55359   6.284   3.953   3.289 -0.2934 -0.0552 -0.3494
17106SOL    HW155360   6.362   4.007   3.302 -0.3373 -0.2142  0.6985
17106SOL    HW255361   6.317   3.868   3.261 -0.2429  0.5808 -2.3612
17107SOL     OW55362  10.294   0.770   2.347  0.2093  0.0615 -0.9965
17107SOL    HW155363  10.371   0.758   2.291  0.3269 -0.9397 -0.6477
17107SOL    HW255364  10.308   0.854   2.390  0.2684  0.6969 -2.2310
17108SOL     OW55365   5.783   0.314   4.623  0.2442 -0.6891 -1.1392
17108SOL    HW155366   5.874   0.305   4.592 -0.2850 -1.4412 -2.5801
17108SOL    HW255367   5.778   0.253   4.697  1.5449  1.1719  0.6226
17109SOL     OW55368   9.538   6.013   9.955 -0.6269 -0.5436 -0.9582
17109SOL    HW155369   9.552   5.919   9.962 -2.5918 -0.9189 -1.5413
17109SOL    HW255370   9.443   6.024   9.953 -0.6011  1.6545  1.9464
17110SOL     OW55371   4.500   5.956   4.778 -0.8345 -0.1103  0.0839
17110SOL    HW155372   4.432   5.889   4.770  0.1368 -1.1692  0.2698
17110SOL    HW255373   4.470   6.029   4.724 -0.9914 -1.5111 -1.8257
17111SOL     OW55374   1.107   1.869   1.403  0.5297  0.0328 -0.3246
17111SOL    HW155375   1.059   1.788   1.390  0.6366 -0.6533  2.8149
17111SOL    HW255376   1.055   1.918   1.467  2.2109  0.8550  0.4775
17112SOL     OW55377   8.842   4.334   1.337  0.1664 -0.0774  0.5642
17112SOL    HW155378   8.890   4.409   1.301 -0.4995 -0.0726 -0.3392
17112SOL    HW255379   8.750   4.360   1.333 -0.2617 -1.6734 -1.6082
17113SOL     OW55380   2.342   7.425   0.545 -0.2409 -0.1639  0.5843
17113SOL    HW155381   2.368   7.384   0.462 -0.7263  0.6221  0.0234
17113SOL    HW255382   2.262   7.380   0.570  0.1355 -0.6888  0.8479
17114SOL     OW55383   3.037   1.125   1.687  0.0187  0.2570  0.4635
17114SOL    HW155384   2.978   1.184   1.640 -0.5915 -1.4889 -1.0861
17114SOL    HW255385   2.995   1.112   1.772 -1.6152 -0.5326 -0.4086
17115SOL     OW55386   5.478   3.187   3.298 -1.0296  0.5331 -0.1228
17115SOL    HW155387   5.503   3.183   3.205 -1.5267  1.5396 -0.3071
17115SOL    HW255388   5.414   3.258   3.303 -1.1090  0.4003  0.9749
17116SOL     OW55389   9.888   7.363   4.851  0.3763 -0.3030 -0.1429
17116SOL    HW155390   9.919   7.422   4.920 -2.3590  0.1557  0.8097
17116SOL    HW255391   9.904   7.276   4.885  1.8293 -0.1411 -0.3214
17117SOL     OW55392   0.469   8.677   9.706 -0.1989 -0.2205  0.0869
17117SOL    HW155393   0.433   8.650   9.790  1.4241 -0.9734  0.5715
17117SOL    HW255394   0.403   8.648   9.642 -0.4748 -1.5580  0.9304
17118SOL     OW55395   2.887   4.149   2.663 -0.0325 -0.1834 -0.2860
17118SOL    HW155396   2.931   4.219   2.712  0.7794 -0.2339 -0.9094
17118SOL    HW255397   2.809   4.129   2.714  0.9723 -0.5002  1.2069
17119SOL     OW55398   0.166   1.565   2.962  0.6001  0.3010 -0.0490
17119SOL    HW155399   0.145   1.628   3.031  1.6103  0.1288  0.4324
17119SOL    HW255400   0.180   1.483   3.008 -0.5206 -0.2577 -0.6560
17120SOL     OW55401   3.360   8.285   9.767  0.2100  0.2910  0.1692
17120SOL    HW155402   3.439   8.262   9.814  0.9347  2.0041 -0.1140
17120SOL    HW255403   3.383   8.364   9.718 -1.6137  0.7359 -0.0679
17121SOL     OW55404   7.758   1.883   3.589  0.0937 -0.1330 -0.1504
17121SOL    HW155405   7.800   1.798   3.601 -0.2700 -0.3562 -0.4302
17121SOL    HW255406   7.695   1.888   3.661 -0.2068 -0.3047 -0.3969
17122SOL     OW55407   3.205   1.258   5.277 -0.5443  0.2617  0.1726
17122SOL    HW155408   3.190   1.344   5.317 -2.0833  0.3170 -0.4791
17122SOL    HW255409   3.297   1.239   5.297 -0.3828  1.7125  0.9779
17123SOL     OW55410   5.473   2.003   8.431  0.2684 -0.0484  0.5575
17123SOL    HW155411   5.414   2.076   8.410  1.2983  0.8830  0.8256
17123SOL    HW255412   5.504   2.022   8.519  1.9754  0.1903 -0.0584
17124SOL     OW55413  10.068   7.637   9.858 -0.2380 -0.3039 -0.2793
17124SOL    HW155414  10.031   7.621   9.771  2.4965  1.6930 -1.9751
17124SOL    HW255415  10.037   7.725   9.881  0.0323 -0.3341  0.2014
17125SOL     OW55416   8.631   4.750   3.401  0.0189  0.1258 -0.1464
17125SOL    HW155417   8.595   4.821   3.455  1.0821 -0.1074  0.9200
17125SOL    HW255418   8.688   4.701   3.461  0.9249 -0.3933 -1.3850
17126SOL     OW55419   6.292   2.651   3.638  0.4474 -0.2753  0.0052
17126SOL    HW155420   6.242   2.581   3.594 -2.5394  1.7142 -0.0602
17126SOL    HW255421   6.338   2.606   3.709  0.3733 -2.5984 -1.3115
17127SOL     OW55422   1.072   1.521   9.804  0.2339 -0.1183  0.1326
17127SOL    HW155423   1.116   1.606   9.805  1.3220 -0.6609  0.0856
17127SOL    HW255424   1.098   1.481   9.721 -0.2144 -0.5305  0.1815
17128SOL     OW55425   8.705   3.508   6.729  0.6439 -0.0402 -0.6897
17128SOL    HW155426   8.655   3.549   6.658 -1.1099 -0.6493  0.1347
17128SOL    HW255427   8.696   3.569   6.802 -1.2018 -1.3782  0.2663
17129SOL     OW55428   5.262   5.249   0.697  0.3545  0.0492  0.3132
17129SOL    HW155429   5.251   5.319   0.633  0.7614  0.2911  0.5086
17129SOL    HW255430   5.356   5.239   0.706  0.3046  0.1885  1.0604
17130SOL     OW55431   9.261   0.931   8.073 -0.2984  0.1670  0.2167
17130SOL    HW155432   9.222   0.986   8.005 -0.3094  0.5143  0.5000
17130SOL    HW255433   9.335   0.982   8.105  1.3252 -1.0878 -1.3304
17131SOL     OW55434   4.292   3.613   5.947 -0.1077  0.1142 -0.6134
17131SOL    HW155435   4.252   3.691   5.910  1.5099  1.1413 -0.3014
17131SOL    HW255436   4.241   3.595   6.026 -0.3043  1.0376 -0.5195
17132SOL     OW55437   6.100   8.043   9.067  0.1674 -0.1470 -0.5187
17132SOL    HW155438   6.087   8.028   8.974  0.9067  1.7653 -0.9804
17132SOL    HW255439   6.047   7.976   9.110  0.3623 -1.5108 -2.2983
17133SOL     OW55440   8.044   7.878   7.247 -0.0138  0.2546  0.2242
17133SOL    HW155441   8.046   7.812   7.317 -0.6083  0.3086  0.3059
17133SOL    HW255442   8.119   7.858   7.192 -1.7331 -2.3470 -1.4186
17134SOL     OW55443   5.333   8.766   0.767  0.2979  0.3550 -0.4500
17134SOL    HW155444   5.289   8.836   0.719  0.7061  1.2165  0.3992
17134SOL    HW255445   5.262   8.707   0.795 -0.0427  0.4109 -1.1887
17135SOL     OW55446   5.342   9.273   3.318  0.1047  0.3716  0.6437
17135SOL    HW155447   5.260   9.224   3.312  0.1654  0.3483 -0.1077
17135SOL    HW255448   5.372   9.258   3.407 -1.4210  1.5385  1.4007
17136SOL     OW55449   5.247   4.984   4.828  0.5593 -0.0449  0.0219
17136SOL    HW155450   5.211   4.904   4.866  0.1596 -0.2919 -0.8521
17136SOL    HW255451   5.174   5.045   4.827  0.7656  0.2094  0.3370
17137SOL     OW55452   9.104   4.551   4.524  0.2112  0.1692 -0.6553
17137SOL    HW155453   9.162   4.475   4.534  0.8054  0.6720 -0.2092
17137SOL    HW255454   9.142   4.618   4.580  0.1382  1.0652 -1.6302
17138SOL     OW55455   3.117   9.117   4.376 -0.5151 -0.3695 -0.8007
17138SOL    HW155456   3.107   9.202   4.419  3.3340 -0.9395  1.7023
17138SOL    HW255457   3.030   9.097   4.342 -2.4050  2.9510  1.5043
17139SOL     OW55458   2.654   9.189   1.593 -0.8747 -0.1323  0.2313
17139SOL    HW155459   2.703   9.107   1.581 -1.1138 -0.1700 -0.5882
17139SOL    HW255460   2.634   9.192   1.686  0.3541 -0.3064  0.5095
17140SOL     OW55461   1.589   3.032  10.151 -0.2888  0.1790  0.1354
17140SOL    HW155462   1.660   2.992  10.202 -0.7312 -1.1640 -0.2640
17140SOL    HW255463   1.611   3.013  10.060 -0.5120  0.8710 -0.0670
17141SOL     OW55464   5.207   1.709   4.767 -0.4815 -0.6966 -0.0542
17141SOL    HW155465   5.139   1.719   4.834 -0.7982 -2.3377 -0.0851
17141SOL    HW255466   5.164   1.733   4.685 -0.3194  0.5487  0.2014
17142SOL     OW55467   5.324   6.264   0.404 -0.6948 -0.7548  0.5173
17142SOL    HW155468   5.324   6.341   0.462 -0.7301  0.8197 -1.4730
17142SOL    HW255469   5.305   6.299   0.317 -0.1327 -2.9619 -0.5728
17143SOL     OW55470   6.098   9.823   6.745 -0.5321 -0.0505 -0.1970
17143SOL    HW155471   6.039   9.897   6.733 -0.5096  0.0257  0.1645
17143SOL    HW255472   6.168   9.857   6.801  1.9278  1.0473 -3.6089
17144SOL     OW55473   6.042   5.226   6.763 -0.0268 -0.0542 -0.6604
17144SOL    HW155474   6.106   5.175   6.813 -0.1537 -2.1558 -2.4730
17144SOL    HW255475   6.070   5.217   6.672  0.1398  3.5458 -1.1130
17145SOL     OW55476   8.308   1.739   1.256 -0.2604  0.1947 -0.4584
17145SOL    HW155477   8.213   1.736   1.240 -0.4458  1.2597  0.3024
17145SOL    HW255478   8.347   1.704   1.176 -1.3056 -0.7891 -0.5597
17146SOL     OW55479   5.795   7.853   9.311  0.3536 -0.1301 -0.2245
17146SOL    HW155480   5.860   7.807   9.365  1.4439  1.3218 -0.2469
17146SOL    HW255481   5.783   7.796   9.235  2.4945  0.0671 -0.7751
17147SOL     OW55482   0.927   9.287   8.466  0.3670 -0.2408 -0.3948
17147SOL    HW155483   0.842   9.257   8.497 -0.1718  3.0486  1.8007
17147SOL    HW255484   0.912   9.378   8.441  3.2208  0.4061 -0.0371
17148SOL     OW55485   8.137   2.873   6.214  0.0840 -0.8434  0.0156
17148SOL    HW155486   8.169   2.909   6.132  0.1585 -0.0002  0.4012
17148SOL    HW255487   8.072   2.808   6.188  0.6965 -1.1856 -0.7220
17149SOL     OW55488   2.008   6.567   5.876 -0.4021 -0.2240 -0.1470
17149SOL    HW155489   2.052   6.583   5.959 -1.0869  0.1909  0.1423
17149SOL    HW255490   2.071   6.517   5.824  0.9612  1.5226 -0.2494
17150SOL     OW55491   0.041   7.689   9.933 -0.8527  0.3273  0.1700
17150SOL    HW155492  -0.051   7.710   9.915 -0.8464  1.4577  1.3163
17150SOL    HW255493   0.051   7.599   9.902 -2.1961  0.3710 -0.4816
17151SOL     OW55494   4.026   8.029   8.172 -0.2854  0.5472  0.1632
17151SOL    HW155495   3.952   8.024   8.232 -0.1824 -2.4376  0.1758
17151SOL    HW255496   4.103   8.023   8.229 -0.0981  0.6642 -0.0724
17152SOL     OW55497   4.847   0.054   9.439  0.3740  0.6079 -0.5497
17152SOL    HW155498   4.829   0.065   9.346  0.0679 -0.4071 -0.6298
17152SOL    HW255499   4.891  -0.031   9.445  0.1443  0.5358  0.2546
17153SOL     OW55500   9.293   9.246   4.374 -0.1972  0.3207 -0.4681
17153SOL    HW155501   9.385   9.254   4.349 -0.0738 -0.3939 -0.2544
17153SOL    HW255502   9.267   9.336   4.394  0.4680  0.5278 -0.4782
17154SOL     OW55503   2.608   5.926   5.897  0.2224  0.4491 -0.2702
17154SOL    HW155504   2.631   5.943   5.988  2.2245  1.5488 -0.9158
17154SOL    HW255505   2.551   5.998   5.872  1.5574  1.4547 -0.5088
17155SOL     OW55506   8.193   7.574   0.429 -0.1599  0.2016  0.1177
17155SOL    HW155507   8.136   7.639   0.470  0.5231  1.6267 -1.0844
17155SOL    HW255508   8.216   7.612   0.344  0.2859 -1.6214 -0.6268
17156SOL     OW55509   4.473   1.773   2.869  0.0984 -0.1020  0.7903
17156SOL    HW155510   4.507   1.764   2.958  0.7054 -0.2933  0.5471
17156SOL    HW255511   4.440   1.686   2.848 -2.3470  0.5170  1.7156
17157SOL     OW55512   5.606   8.621   4.973 -0.4525 -0.5347  0.1919
17157SOL    HW155513   5.699   8.603   4.991 -0.1798 -0.9221 -1.4674
17157SOL    HW255514   5.601   8.716   4.969  0.1129 -0.5289 -0.7674
17158SOL     OW55515   8.888  10.174   1.550  0.3157  0.2881  0.6698
17158SOL    HW155516   8.837  10.220   1.484  1.2085 -0.3368 -0.4800
17158SOL    HW255517   8.824  10.152   1.619 -1.2111 -1.2767 -1.1259
17159SOL     OW55518   6.441   2.602   4.059  0.0518 -0.0413  0.0480
17159SOL    HW155519   6.444   2.619   3.965 -0.2755  0.6120  0.1553
17159SOL    HW255520   6.528   2.565   4.079  0.1098 -0.2156 -0.5103
17160SOL     OW55521   8.338   0.837   4.364  0.4293 -0.0270  0.0740
17160SOL    HW155522   8.319   0.824   4.271  0.3301 -1.2199  0.2344
17160SOL    HW255523   8.429   0.865   4.367 -0.1528  2.0813 -0.4880
17161SOL     OW55524   3.132   9.410   2.834  0.2273  0.1929 -0.1713
17161SOL    HW155525   3.051   9.358   2.827  0.6976 -0.5561 -0.1060
17161SOL    HW255526   3.116   9.486   2.779 -1.1790  0.9034  1.1206
17162SOL     OW55527   7.706   3.443   8.801  0.2713 -0.0399 -0.5481
17162SOL    HW155528   7.736   3.531   8.778 -0.1499  0.8029  1.8091
17162SOL    HW255529   7.612   3.453   8.816  0.1623 -0.9797 -0.5259
17163SOL     OW55530   1.765   7.907   3.335 -0.0695  0.1271  0.7116
17163SOL    HW155531   1.840   7.864   3.295 -0.3221  0.5649 -0.2794
17163SOL    HW255532   1.750   7.860   3.417  1.8276  0.6032  1.3718
17164SOL     OW55533   4.016   0.077  10.291 -0.0147  0.3849 -0.4324
17164SOL    HW155534   4.069   0.148  10.254  0.4104 -0.0285 -0.6271
17164SOL    HW255535   4.020   0.008  10.226  0.3151 -0.1602  0.1561
17165SOL     OW55536   7.812   1.756   0.753  0.2463  0.5266 -0.5647
17165SOL    HW155537   7.786   1.779   0.664  2.6647 -0.1328 -1.5160
17165SOL    HW255538   7.868   1.829   0.781  1.5979 -0.4464 -0.6235
17166SOL     OW55539   5.647   8.191   3.380 -0.4458 -0.5067 -0.1547
17166SOL    HW155540   5.741   8.205   3.379 -0.5862  0.5807  0.1886
17166SOL    HW255541   5.626   8.172   3.472 -0.4934 -1.3154 -0.3253
17167SOL     OW55542   0.168   9.749   3.710  0.2122 -0.1552  0.3867
17167SOL    HW155543   0.217   9.830   3.700 -0.5090  0.3092  0.5853
17167SOL    HW255544   0.085   9.764   3.665  0.0091 -0.7262  0.5546
17168SOL     OW55545   1.272   0.806   3.509  0.4462  0.3372 -0.0211
17168SOL    HW155546   1.297   0.750   3.436 -1.3099  0.5779 -0.8776
17168SOL    HW255547   1.292   0.895   3.479  0.2318  0.3969  0.0114
17169SOL     OW55548   9.752   2.720  10.202 -0.0943 -0.0674  0.1277
17169SOL    HW155549   9.809   2.721  10.278 -0.3069 -0.9485  0.3050
17169SOL    HW255550   9.790   2.785  10.142 -0.0121  0.7328  1.0275
17170SOL     OW55551   1.179   9.105   7.944  0.1146  0.8624 -0.2693
17170SOL    HW155552   1.200   9.034   7.884  2.4758 -0.0744  1.4970
17170SOL    HW255553   1.238   9.176   7.919  1.7586  0.1538  1.3722
17171SOL     OW55554   5.853   5.496   0.237  0.0815  0.6054 -0.7819
17171SOL    HW155555   5.933   5.488   0.184  0.3870  0.9825 -0.3785
17171SOL    HW255556   5.866   5.433   0.308 -0.4179 -0.0481 -1.2495
17172SOL     OW55557   6.969   3.028   5.286  0.2388  0.2663 -0.1657
17172SOL    HW155558   7.010   3.078   5.215  1.3535  0.9126  0.8909
17172SOL    HW255559   6.986   2.936   5.264  3.8302  0.4846  0.9953
17173SOL     OW55560   3.099   6.103   0.211 -0.1745 -0.2707  0.2802
17173SOL    HW155561   3.177   6.104   0.266 -0.6847  0.2504  1.0141
17173SOL    HW255562   3.069   6.013   0.214 -0.5856 -0.1178  1.4404
17174SOL     OW55563   8.056   0.685   9.563 -0.1302  0.7909 -0.0287
17174SOL    HW155564   8.064   0.595   9.533 -2.1465  0.2324  0.9548
17174SOL    HW255565   8.142   0.724   9.545  1.9449 -2.1792  2.4165
17175SOL     OW55566   3.026   1.521   0.846  0.2132  0.4357 -0.7163
17175SOL    HW155567   3.036   1.445   0.903  1.1289 -0.1273 -1.6016
17175SOL    HW255568   2.966   1.492   0.778  0.3376  0.5990 -0.8958
17176SOL     OW55569   7.532   4.197   4.485  0.1902 -0.3315 -0.1771
17176SOL    HW155570   7.461   4.258   4.506  0.8530  0.4393 -0.1153
17176SOL    HW255571   7.604   4.223   4.542  0.7659 -0.6445 -0.7399
17177SOL     OW55572   0.401   6.857   2.339  0.4273 -0.1772  0.1416
17177SOL    HW155573   0.337   6.912   2.295  1.1444 -0.2546 -1.0333
17177SOL    HW255574   0.349   6.799   2.395 -0.5685 -0.5851 -1.1792
17178SOL     OW55575   8.132   2.963   9.349  0.5157 -0.7305  0.0320
17178SOL    HW155576   8.046   2.948   9.309  0.5356 -0.0076 -0.3081
17178SOL    HW255577   8.111   2.991   9.439  0.3555 -0.0044 -0.2183
17179SOL     OW55578   0.341   6.849   7.472  0.1412  0.4669  0.8544
17179SOL    HW155579   0.280   6.921   7.454 -1.3761 -0.5726  1.6092
17179SOL    HW255580   0.398   6.882   7.541 -1.1368  0.6637  1.8500
17180SOL     OW55581   2.252   6.162   7.151 -0.0392 -0.0188 -0.4342
17180SOL    HW155582   2.311   6.102   7.106  0.4434  0.7575 -0.8544
17180SOL    HW255583   2.264   6.143   7.244 -0.1750 -0.8225 -0.5749
17181SOL     OW55584   7.587   1.923   7.494 -0.0407  0.0165 -0.1171
17181SOL    HW155585   7.502   1.891   7.525  0.3531 -0.5789  0.3665
17181SOL    HW255586   7.585   1.907   7.399 -0.4307 -0.0724 -0.0962
17182SOL     OW55587   7.872   3.089   7.667  0.2485 -0.1116 -0.1178
17182SOL    HW155588   7.948   3.101   7.611 -0.2887 -1.5363 -1.2412
17182SOL    HW255589   7.898   3.124   7.752  1.5405  0.9468 -0.9147
17183SOL     OW55590   0.041   4.782   1.118  0.1794  0.7074 -0.2775
17183SOL    HW155591   0.025   4.696   1.080 -0.0744  1.4586 -1.9690
17183SOL    HW255592  -0.034   4.835   1.091  1.0323  1.8341 -0.5123
17184SOL     OW55593   1.404   8.458   0.432 -0.1567 -0.8454  0.1790
17184SOL    HW155594   1.447   8.413   0.359 -0.4281 -0.4011 -0.2684
17184SOL    HW255595   1.476   8.497   0.482 -0.0460  1.5502 -1.6515
17185SOL     OW55596   5.906   8.100   4.733  0.3762  0.2752  0.0178
17185SOL    HW155597   5.925   8.012   4.701 -0.9155 -0.2603  0.6663
17185SOL    HW255598   5.811   8.108   4.728  0.4192  1.3872  0.6043
17186SOL     OW55599   6.616   5.843   7.871  0.1051 -0.0264  0.2902
17186SOL    HW155600   6.581   5.897   7.940  0.6406  1.1564 -0.3308
17186SOL    HW255601   6.540   5.798   7.833 -0.7664  2.2727 -0.8681
17187SOL     OW55602   7.014   2.324   0.234 -0.0401  0.1162  0.5490
17187SOL    HW155603   6.952   2.375   0.180 -2.5871  0.7312  3.7582
17187SOL    HW255604   7.084   2.386   0.254  1.3065 -0.3052 -2.3699
17188SOL     OW55605   2.507   1.109   6.076  0.0957 -0.2572 -0.6997
17188SOL    HW155606   2.425   1.144   6.042  0.4553  1.8222  0.3940
17188SOL    HW255607   2.573   1.175   6.052  1.1407 -1.0342 -0.0612
17189SOL     OW55608   8.564   1.469   8.492 -0.2666  0.0075 -0.6490
17189SOL    HW155609   8.597   1.547   8.536 -1.2219 -0.4328  0.9698
17189SOL    HW255610   8.472   1.489   8.474 -0.3047 -0.4414 -0.9780
17190SOL     OW55611   8.372   4.844   1.152  0.0228  0.1837  0.5833
17190SOL    HW155612   8.420   4.761   1.157  1.3436  0.9660  1.3941
17190SOL    HW255613   8.434   4.910   1.183 -0.4865  1.7352 -1.4909
17191SOL     OW55614   1.669   1.144   2.964  0.4602 -0.1349 -0.3201
17191SOL    HW155615   1.592   1.166   2.912  1.1461  0.5965 -1.0428
17191SOL    HW255616   1.690   1.054   2.939  0.1063 -0.1848 -0.4447
17192SOL     OW55617   9.379   7.294   9.875  0.0264  0.3385  0.2734
17192SOL    HW155618   9.299   7.258   9.837 -0.0193  1.1750 -0.4765
17192SOL    HW255619   9.415   7.224   9.929 -0.8373 -0.2862  0.0467
17193SOL     OW55620   5.623   1.861   5.835  0.1870 -0.6168 -0.8283
17193SOL    HW155621   5.650   1.786   5.889  0.1434 -0.5679 -0.7387
17193SOL    HW255622   5.572   1.822   5.764 -1.9405 -0.4643  0.5485
17194SOL     OW55623   7.185   6.258   2.667 -0.0994 -0.1848  0.1043
17194SOL    HW155624   7.138   6.175   2.656  1.2699 -1.1180  0.9344
17194SOL    HW255625   7.156   6.292   2.751  0.2797 -0.4801  0.3581
17195SOL     OW55626   5.472   8.346   8.663  0.7370  0.1204  0.4255
17195SOL    HW155627   5.469   8.396   8.744 -2.2714  0.0758  0.4508
17195SOL    HW255628   5.529   8.396   8.605  0.3207  1.8888  1.4903
17196SOL     OW55629   7.813   0.893   9.180 -0.3452 -0.3244  0.0068
17196SOL    HW155630   7.838   0.901   9.272 -0.2245 -0.3406 -0.0255
17196SOL    HW255631   7.761   0.812   9.177  0.5634 -0.9158 -0.1400
17197SOL     OW55632   0.641   3.935   9.265  0.1982  0.0652  0.2719
17197SOL    HW155633   0.642   4.027   9.292 -2.6096  0.0193  0.8192
17197SOL    HW255634   0.662   3.937   9.172 -2.3802  1.6112 -0.3720
17198SOL     OW55635   6.027   9.500   8.598  0.1015 -0.2639  0.0688
17198SOL    HW155636   5.999   9.564   8.663  0.4627 -0.5183  0.4784
17198SOL    HW255637   5.985   9.418   8.624  0.9440 -0.5725  0.4988
17199SOL     OW55638   4.287   9.439   1.097 -0.0840  0.1288  0.0798
17199SOL    HW155639   4.276   9.364   1.039 -0.5137  0.4494 -0.2576
17199SOL    HW255640   4.377   9.430   1.131 -0.9830 -2.0455  2.1914
17200SOL     OW55641   8.667   0.778   5.796  0.2923  0.4844 -0.0270
17200SOL    HW155642   8.733   0.810   5.858  1.1872 -1.0830 -0.1099
17200SOL    HW255643   8.658   0.685   5.817 -3.3098  0.9623  1.2190
17201SOL     OW55644   6.098   4.022   1.150 -0.8119 -0.5624 -0.1999
17201SOL    HW155645   6.177   3.996   1.102  0.2968 -0.7995  1.6251
17201SOL    HW255646   6.056   4.087   1.094  2.3038  1.8555 -0.0373
17202SOL     OW55647   1.216   6.264   1.583  0.0367 -0.2106  0.2546
17202SOL    HW155648   1.168   6.318   1.647  0.0629  1.5588 -1.1459
17202SOL    HW255649   1.308   6.278   1.605  0.0570 -2.2706  1.8656
17203SOL     OW55650  10.182   8.736   0.852  0.4534  0.0431 -0.3466
17203SOL    HW155651  10.276   8.747   0.862  0.2454  1.9841 -0.2360
17203SOL    HW255652  10.145   8.761   0.937 -0.3310  2.2542 -1.2688
17204SOL     OW55653   1.586   7.937   2.657  0.1321 -0.0079 -0.2486
17204SOL    HW155654   1.578   8.005   2.590 -1.2794 -0.1766 -0.2778
17204SOL    HW255655   1.581   7.984   2.740  3.0241  0.3436 -0.1680
17205SOL     OW55656   5.261   4.170   0.738 -0.3183  0.1085 -0.5028
17205SOL    HW155657   5.178   4.147   0.780 -1.2868  1.7893 -1.3470
17205SOL    HW255658   5.297   4.087   0.708 -2.9691 -0.5420 -2.3219
17206SOL     OW55659   4.118   3.811   6.448 -0.1448  0.6031  0.3366
17206SOL    HW155660   4.159   3.797   6.534  3.2631 -0.6019 -1.2723
17206SOL    HW255661   4.062   3.735   6.435  1.0329 -0.3595  0.6662
17207SOL     OW55662   3.389   2.012   5.498 -0.1997 -0.0572  0.1071
17207SOL    HW155663   3.455   1.943   5.493 -0.8548 -0.9050  2.1209
17207SOL    HW255664   3.395   2.058   5.414 -0.0387 -2.8449 -1.5196
17208SOL     OW55665   3.299   4.293   9.644  0.5503  0.0228 -0.5183
17208SOL    HW155666   3.310   4.229   9.574  0.3985 -0.0979 -0.4350
17208SOL    HW255667   3.358   4.364   9.622  0.9992 -0.3141 -0.4175
17209SOL     OW55668  10.274   8.109  10.073  0.8007 -0.5123 -0.0570
17209SOL    HW155669  10.360   8.097  10.032  0.9847  1.0637 -0.1990
17209SOL    HW255670  10.281   8.192  10.120 -0.1563 -1.1487  1.2765
17210SOL     OW55671   0.159   0.442   3.727  0.2834  0.1561  0.2029
17210SOL    HW155672   0.214   0.375   3.768 -0.1598  0.6759  1.7510
17210SOL    HW255673   0.089   0.392   3.685  0.3469 -0.3998  0.7274
17211SOL     OW55674   1.500   4.839   1.702 -0.2582 -0.4151 -0.0288
17211SOL    HW155675   1.487   4.751   1.738  1.8162  0.1808  2.4911
17211SOL    HW255676   1.591   4.839   1.672 -0.0112  1.0617  0.6618
17212SOL     OW55677   8.417   9.786   3.661  0.7159 -0.8877 -0.4157
17212SOL    HW155678   8.467   9.743   3.731  0.7062 -0.5139 -0.1773
17212SOL    HW255679   8.331   9.745   3.665  0.3004  0.0393  0.6579
17213SOL     OW55680   3.589   4.537   4.897  0.4028  0.2594  0.4284
17213SOL    HW155681   3.638   4.457   4.912  1.6483  0.9667  0.2616
17213SOL    HW255682   3.640   4.606   4.940 -0.3557  1.0500  0.1157
17214SOL     OW55683   8.542   7.928   6.719 -0.1400  0.1725 -0.4299
17214SOL    HW155684   8.602   8.002   6.711  2.0897 -1.3062  1.3121
17214SOL    HW255685   8.586   7.857   6.670 -1.5138 -0.4107 -0.8537
17215SOL     OW55686   7.742   0.199   1.243  0.0598 -0.0905 -0.2382
17215SOL    HW155687   7.669   0.140   1.226  0.7175 -0.9038 -0.3110
17215SOL    HW255688   7.728   0.229   1.333 -0.8811  0.5362 -0.5765
17216SOL     OW55689   1.084   8.444   7.939 -0.1050  0.6164 -0.0293
17216SOL    HW155690   1.153   8.406   7.885  0.6486  1.5987  0.2189
17216SOL    HW255691   1.095   8.402   8.025  1.0537  1.6976  0.3940
17217SOL     OW55692   8.476   5.012   2.101 -0.0893 -0.2139  0.6589
17217SOL    HW155693   8.515   5.098   2.086 -2.7634  0.8476 -0.9553
17217SOL    HW255694   8.522   4.954   2.040  1.8522 -0.0519  1.8795
17218SOL     OW55695   3.146   6.496   0.623 -0.0420 -0.2835 -0.1126
17218SOL    HW155696   3.241   6.487   0.628 -0.2666 -2.3464  2.1426
17218SOL    HW255697   3.131   6.591   0.619  2.0634  0.1348  0.8203
17219SOL     OW55698   1.129   1.607   1.000  0.2242  0.5851 -0.1319
17219SOL    HW155699   1.208   1.554   0.985 -1.0739 -1.0813 -1.6141
17219SOL    HW255700   1.142   1.685   0.947  0.8984  0.3380 -0.3437
17220SOL     OW55701   5.540   6.473   9.849 -0.0051 -0.3816  0.6336
17220SOL    HW155702   5.495   6.552   9.878 -0.1700  0.8464 -2.5908
17220SOL    HW255703   5.633   6.491   9.864 -0.1293 -0.2514  1.2991
17221SOL     OW55704   9.008   8.737   1.544 -0.2563 -0.1341 -0.4053
17221SOL    HW155705   8.949   8.782   1.606 -0.3022 -0.6442 -0.0774
17221SOL    HW255706   9.077   8.701   1.599 -0.8389 -1.4741 -0.5191
17222SOL     OW55707   2.687   9.938   0.092  0.2927 -0.1423  0.4657
17222SOL    HW155708   2.702  10.004   0.025 -0.0374 -0.6671 -0.1320
17222SOL    HW255709   2.772   9.894   0.101  0.5063  0.3289  0.8453
17223SOL     OW55710   4.509   2.616   6.605  0.0063  0.4079  0.2726
17223SOL    HW155711   4.538   2.704   6.631 -0.9073  0.5194  0.9491
17223SOL    HW255712   4.589   2.565   6.600  0.5266  1.2211  0.1014
17224SOL     OW55713  10.152   5.790   9.741 -0.3039 -0.1241  0.1798
17224SOL    HW155714  10.225   5.737   9.773  0.1540 -0.9181 -1.9973
17224SOL    HW255715  10.099   5.729   9.690 -1.2924  0.9453 -0.1072
17225SOL     OW55716   7.181   7.669   4.272  0.6236  0.1502  0.3891
17225SOL    HW155717   7.098   7.633   4.244  0.9403 -3.0075  2.9247
17225SOL    HW255718   7.244   7.598   4.261  2.1315  1.0958  2.1846
17226SOL     OW55719   0.364   8.437   2.648 -0.0154 -0.2777 -0.3644
17226SOL    HW155720   0.459   8.453   2.644 -0.1611  0.5749 -3.5012
17226SOL    HW255721   0.329   8.514   2.693  0.6322  0.5825 -1.2666
17227SOL     OW55722   0.122   9.568   4.152 -0.3583 -0.7704 -0.2439
17227SOL    HW155723   0.160   9.509   4.217 -1.4907 -1.3095 -0.0471
17227SOL    HW255724   0.185   9.640   4.145  1.2469 -2.1516 -0.7510
17228SOL     OW55725   3.431   4.458   5.890  0.9146  0.2336 -0.0685
17228SOL    HW155726   3.474   4.374   5.875  0.8687  0.3710 -1.0559
17228SOL    HW255727   3.346   4.450   5.847  0.6636  0.5796  0.3493
17229SOL     OW55728   1.277   9.851   0.985  0.4586 -0.1769  0.3981
17229SOL    HW155729   1.204   9.864   0.924  0.1886  0.1658  0.7868
17229SOL    HW255730   1.335   9.789   0.941  0.4093  0.2833 -0.3268
17230SOL     OW55731   6.619   7.672  10.009  0.8867 -0.5426  0.2473
17230SOL    HW155732   6.641   7.659   9.917  0.7403 -2.2253  0.4196
17230SOL    HW255733   6.545   7.734  10.007 -1.6227 -3.3280 -1.0728
17231SOL     OW55734   5.080   6.559  10.288 -0.2782 -0.4232 -0.0664
17231SOL    HW155735   5.068   6.648  10.320  1.6386 -0.4760  0.9458
17231SOL    HW255736   5.171   6.538  10.309  0.0384 -1.7653 -2.4182
17232SOL     OW55737   2.495   1.249   6.759  0.1868 -0.3462 -0.3942
17232SOL    HW155738   2.520   1.180   6.698 -0.1619 -0.5121 -0.3477
17232SOL    HW255739   2.433   1.208   6.819 -0.9662  0.3035 -1.0943
17233SOL     OW55740   9.603   5.444   8.703  0.0872  0.1398  0.1087
17233SOL    HW155741   9.651   5.518   8.740  0.2695  0.4820 -0.8044
17233SOL    HW255742   9.519   5.480   8.677  0.0102 -0.0700  0.0606
17234SOL     OW55743   0.896   6.646   8.027 -0.1958 -0.5026 -0.1193
17234SOL    HW155744   0.872   6.559   8.060 -0.4475 -0.5584 -0.4407
17234SOL    HW255745   0.945   6.627   7.946 -0.2621 -0.3433 -0.1955
17235SOL     OW55746   9.636   8.096   2.800 -0.3020 -0.8086  0.4317
17235SOL    HW155747   9.622   8.025   2.737 -0.3482  0.6285 -1.2593
17235SOL    HW255748   9.698   8.154   2.757 -1.7972  1.2094  0.8703
17236SOL     OW55749   2.101   9.603   5.782  0.5991 -0.1121 -0.0882
17236SOL    HW155750   2.074   9.541   5.850  0.3904  0.1567  0.0773
17236SOL    HW255751   2.035   9.673   5.787  0.7221  0.0245 -0.4051
17237SOL     OW55752   9.436   1.644   3.064 -0.6069  0.3232  0.1850
17237SOL    HW155753   9.383   1.651   3.144 -1.8616  0.3374 -0.6203
17237SOL    HW255754   9.429   1.731   3.024 -0.4918  0.1291 -0.2530
17238SOL     OW55755   4.920   3.915   6.833  0.4410  0.4697 -0.0548
17238SOL    HW155756   5.002   3.944   6.792 -0.7723  1.5289 -1.8846
17238SOL    HW255757   4.902   3.979   6.901  1.4517 -0.1728  0.8603
17239SOL     OW55758   4.388   6.843   6.617 -0.3392  0.0063  0.1729
17239SOL    HW155759   4.467   6.788   6.622  0.4209  1.1874  1.8442
17239SOL    HW255760   4.316   6.782   6.630  0.4967 -0.6223  2.3417
17240SOL     OW55761   3.417   9.392   2.285  0.1335  0.7808  0.6859
17240SOL    HW155762   3.469   9.408   2.206  0.2789 -0.4111  0.5271
17240SOL    HW255763   3.478   9.348   2.344 -0.4442  0.1605  0.8243
17241SOL     OW55764   7.610   6.936   3.048 -0.3234 -0.2336 -0.4259
17241SOL    HW155765   7.647   6.949   3.135  0.8537  2.0478 -1.1837
17241SOL    HW255766   7.682   6.898   2.997 -0.7754 -0.8551 -0.6187
17242SOL     OW55767   3.687   2.717   4.862 -0.3913 -0.1368  0.0390
17242SOL    HW155768   3.597   2.701   4.890 -0.4252  0.2363  0.1520
17242SOL    HW255769   3.712   2.798   4.906  0.4961 -0.9749  1.1523
17243SOL     OW55770   5.907   8.911   7.692  0.8866  0.5137  0.2546
17243SOL    HW155771   5.963   8.840   7.724  0.5473 -0.5138 -1.3333
17243SOL    HW255772   5.910   8.903   7.597 -1.5761  0.7133  0.0981
17244SOL     OW55773   5.933   0.653   1.098 -0.3525 -0.0486  0.2135
17244SOL    HW155774   5.852   0.603   1.106 -1.1130  0.8316 -1.4928
17244SOL    HW255775   5.943   0.669   1.004  0.7406  1.5757  0.5609
17245SOL     OW55776   1.200   4.492   9.321  0.1040 -0.5407  0.3630
17245SOL    HW155777   1.149   4.568   9.293  0.0219 -0.5159  0.5789
17245SOL    HW255778   1.205   4.500   9.416 -0.4790 -1.1712  0.4510
17246SOL     OW55779   8.622   3.782   4.792 -0.5057 -0.1158 -0.5980
17246SOL    HW155780   8.549   3.729   4.823  0.4288 -0.6585  0.8005
17246SOL    HW255781   8.638   3.751   4.702 -1.6081 -0.3793 -0.7146
17247SOL     OW55782   7.947   5.271   9.017  0.0685 -0.0225 -0.1146
17247SOL    HW155783   7.909   5.194   8.976 -1.2999  0.0883  0.9097
17247SOL    HW255784   7.894   5.344   8.985  0.9094  0.4326 -0.5191
17248SOL     OW55785  10.288   8.007   7.036  0.0156 -0.2058  0.1905
17248SOL    HW155786  10.226   8.016   6.964 -0.9691  0.3012  1.0746
17248SOL    HW255787  10.367   7.972   6.996 -0.5078  0.0862 -1.1325
17249SOL     OW55788   4.785   1.662   8.272 -0.0111  0.3080  0.1662
17249SOL    HW155789   4.834   1.587   8.238 -0.4017  0.4123 -0.6496
17249SOL    HW255790   4.698   1.627   8.290  0.1816  0.2615  1.0559
17250SOL     OW55791   5.536   3.653  10.240 -0.7753  0.0249 -0.0032
17250SOL    HW155792   5.452   3.693  10.219 -0.9627  0.3767  1.3355
17250SOL    HW255793   5.542   3.577  10.181 -2.0312 -0.0188 -0.0980
17251SOL     OW55794   8.263   6.635   2.370  0.1907 -0.1005  0.1871
17251SOL    HW155795   8.295   6.580   2.299 -1.0636  1.5307 -1.7399
17251SOL    HW255796   8.168   6.619   2.372  0.2725 -0.5903  1.9670
17252SOL     OW55797   4.094   7.564   0.847 -0.1004  0.2545  0.1151
17252SOL    HW155798   4.122   7.628   0.913  0.4204  1.8112 -1.5332
17252SOL    HW255799   3.999   7.574   0.843 -0.0742  0.5639  0.2353
17253SOL     OW55800   9.539   7.143   0.349 -0.2235  0.7263 -0.0540
17253SOL    HW155801   9.609   7.207   0.339  1.2224 -0.7929 -0.0501
17253SOL    HW255802   9.476   7.185   0.407  1.6540  1.3668  1.6233
17254SOL     OW55803   8.302   3.410   3.943  0.5482  0.1439  0.6868
17254SOL    HW155804   8.271   3.326   3.909  0.7519  0.4365 -0.2546
17254SOL    HW255805   8.323   3.392   4.035 -0.6167 -0.5130  0.8535
17255SOL     OW55806   1.783   9.171   6.011 -0.3695 -0.6297  0.1227
17255SOL    HW155807   1.727   9.220   6.071 -0.4181  0.5891 -0.9039
17255SOL    HW255808   1.822   9.237   5.953  2.3926 -1.3515  0.9670
17256SOL     OW55809   1.746   5.705   1.904  0.9657 -0.0872  0.3554
17256SOL    HW155810   1.808   5.658   1.959  1.0513  0.7061  0.9609
17256SOL    HW255811   1.660   5.682   1.939  0.9989  0.0821  0.5487
17257SOL     OW55812   1.923   8.210   5.803 -0.4697  0.7268  0.0139
17257SOL    HW155813   1.848   8.215   5.862  0.4607 -1.0463  1.4351
17257SOL    HW255814   1.949   8.118   5.805  0.7438  0.9858 -1.7439
17258SOL     OW55815   2.521   2.942   1.413 -0.4553  0.3941 -0.0167
17258SOL    HW155816   2.612   2.959   1.390 -0.2842 -0.2384  0.1697
17258SOL    HW255817   2.482   2.905   1.334 -0.5501  0.6651 -0.0968
17259SOL     OW55818   3.860   0.854   7.744  0.1169  0.3930 -0.7539
17259SOL    HW155819   3.882   0.800   7.668 -0.3543 -0.1495 -0.5101
17259SOL    HW255820   3.801   0.799   7.796  0.7664  0.6015  0.2180
17260SOL     OW55821   9.281   2.672   6.934  0.5594 -0.0623  0.2059
17260SOL    HW155822   9.310   2.598   6.881 -0.9638  0.1084 -0.9405
17260SOL    HW255823   9.185   2.668   6.929  0.4415  1.6361  0.6194
17261SOL     OW55824  10.095   0.649   1.676  0.7069  0.3228  0.1137
17261SOL    HW155825  10.084   0.569   1.728 -0.9351  1.3219  1.4135
17261SOL    HW255826  10.023   0.646   1.614  1.2932  0.2849 -0.5749
17262SOL     OW55827   0.357   3.254   0.347  0.0324 -0.2370  0.6266
17262SOL    HW155828   0.375   3.162   0.363 -2.2386 -0.9016 -0.2419
17262SOL    HW255829   0.414   3.277   0.273  0.8656 -0.8218  1.0745
17263SOL     OW55830   9.317   8.576   0.681  0.2554 -0.1789 -0.1795
17263SOL    HW155831   9.226   8.548   0.673 -0.9098  3.2494 -0.7190
17263SOL    HW255832   9.326   8.647   0.617  2.8191  0.7413  1.0558
17264SOL     OW55833   2.158   6.169   1.686 -0.0518  0.1946  0.3506
17264SOL    HW155834   2.156   6.223   1.607  2.3951 -0.2277 -0.0841
17264SOL    HW255835   2.176   6.081   1.655 -1.7143 -0.5140  1.2372
17265SOL     OW55836   6.001   0.631   4.072 -0.0082 -0.8329  0.3267
17265SOL    HW155837   5.964   0.563   4.129 -1.2253 -1.7999 -1.5295
17265SOL    HW255838   6.079   0.590   4.034  0.8110 -0.1830  1.2618
17266SOL     OW55839   8.637   9.288   5.427  0.1925  0.5170 -0.0220
17266SOL    HW155840   8.721   9.288   5.473  0.3509 -2.0214 -0.1715
17266SOL    HW255841   8.661   9.279   5.335 -0.2356 -0.3140 -0.0554
17267SOL     OW55842   9.534   7.177   4.139  0.2615 -0.2494  0.2373
17267SOL    HW155843   9.452   7.186   4.091  0.6646 -0.1452 -0.4489
17267SOL    HW255844   9.577   7.262   4.130  1.2669 -0.8540 -0.9806
17268SOL     OW55845   1.279   4.322   0.388 -0.1386  0.8756 -0.1372
17268SOL    HW155846   1.293   4.356   0.300  3.4501 -0.5337 -0.2726
17268SOL    HW255847   1.346   4.365   0.442 -0.1168 -0.6561  1.1604
17269SOL     OW55848   9.031   6.391   3.178  0.0985 -0.6571  0.1306
17269SOL    HW155849   9.057   6.299   3.169  1.2926 -0.2695 -0.7230
17269SOL    HW255850   9.096   6.439   3.126 -2.0478  0.4709 -1.6784
17270SOL     OW55851   8.156   4.536   7.998 -0.5496 -0.2057  0.6485
17270SOL    HW155852   8.155   4.441   8.010 -0.5971 -0.0866  1.7232
17270SOL    HW255853   8.248   4.560   7.998 -0.5594 -0.0538  2.3329
17271SOL     OW55854   7.180   9.113  10.255  0.4820  0.8343 -0.3657
17271SOL    HW155855   7.267   9.140  10.284  0.6187  1.6177 -1.4170
17271SOL    HW255856   7.189   9.103  10.160  0.0343 -1.5435 -0.2127
17272SOL     OW55857   0.977  10.025  10.224 -0.4144 -0.2580 -0.2943
17272SOL    HW155858   0.969  10.076  10.143 -0.0835  0.6748  0.2380
17272SOL    HW255859   0.891  10.032  10.264 -0.0973  0.7392  0.2523
17273SOL     OW55860   1.001   2.435   8.407  0.1188  0.5698 -0.0537
17273SOL    HW155861   0.978   2.436   8.500  0.6689  0.5259  0.0824
17273SOL    HW255862   0.919   2.457   8.362 -0.2202  0.2891  0.4241
17274SOL     OW55863   7.234   9.613   9.825 -0.7493 -0.8708  0.7852
17274SOL    HW155864   7.200   9.597   9.914 -0.6209 -3.0641  0.4741
17274SOL    HW255865   7.169   9.574   9.767 -0.4919 -0.0481 -0.0847
17275SOL     OW55866   1.455   2.573   5.296  0.4026  0.2885  0.2236
17275SOL    HW155867   1.416   2.514   5.232  1.0898  0.6192 -0.5089
17275SOL    HW255868   1.547   2.577   5.273  0.6902  0.3245  1.3123
17276SOL     OW55869   0.443   8.539   4.557  0.3136  0.1751  0.3859
17276SOL    HW155870   0.396   8.456   4.543  3.2545 -1.7957  1.2606
17276SOL    HW255871   0.452   8.577   4.470 -0.2492 -0.8996 -0.1652
17277SOL     OW55872   0.042   3.604   6.607 -0.1438 -0.3209 -0.3991
17277SOL    HW155873  -0.045   3.637   6.628 -0.1972  0.1919 -1.3401
17277SOL    HW255874   0.074   3.663   6.538  0.9171 -0.5488 -0.1197
17278SOL     OW55875   9.482   5.501   3.946  0.0332  0.3584 -0.8566
17278SOL    HW155876   9.412   5.557   3.981 -0.1177  0.3634 -1.1520
17278SOL    HW255877   9.467   5.416   3.986  2.4639  1.3332  2.5234
17279SOL     OW55878   1.620   3.773   5.703  0.6099 -0.0983  0.5225
17279SOL    HW155879   1.705   3.790   5.746  0.0989  0.7015  1.2530
17279SOL    HW255880   1.585   3.860   5.684  0.3484 -0.4290 -0.6118
17280SOL     OW55881   7.185   6.404   8.540  0.1898 -0.0490 -0.2743
17280SOL    HW155882   7.237   6.476   8.576 -0.4168  0.3698 -0.2092
17280SOL    HW255883   7.133   6.373   8.615  0.1541 -0.2909 -0.3990
17281SOL     OW55884   9.011   4.755   9.199 -0.3428 -0.3495 -0.5511
17281SOL    HW155885   8.945   4.780   9.134  0.7298 -0.2468 -1.6158
17281SOL    HW255886   8.960   4.715   9.270 -1.4714 -1.1660 -1.7850
17282SOL     OW55887   8.706   6.458   1.483 -0.2673 -0.3141 -0.0980
17282SOL    HW155888   8.640   6.470   1.551  2.0203 -1.4713  2.5487
17282SOL    HW255889   8.788   6.488   1.524  1.1506 -0.4523 -2.6181
17283SOL     OW55890   7.629  10.092   9.857 -0.3791  0.0021  0.0957
17283SOL    HW155891   7.714  10.064   9.891 -1.3008 -1.0791  1.6255
17283SOL    HW255892   7.633  10.072   9.763  1.0491  0.0018  0.1361
17284SOL     OW55893   2.962   1.946   7.416 -0.4644 -0.1310 -0.0661
17284SOL    HW155894   2.933   1.982   7.500 -0.4818 -0.1047 -0.0829
17284SOL    HW255895   2.974   1.853   7.433 -2.0295 -0.4365 -0.4378
17285SOL     OW55896   4.788   4.261   9.757 -1.1620 -0.3206 -0.4883
17285SOL    HW155897   4.814   4.332   9.815 -1.9004 -1.1004  0.8571
17285SOL    HW255898   4.836   4.277   9.675 -0.1819  0.8704  0.2894
17286SOL     OW55899   2.620   0.740   0.105  0.0562  0.1656  0.1949
17286SOL    HW155900   2.564   0.716   0.031 -2.4375 -0.4458  2.1289
17286SOL    HW255901   2.603   0.833   0.119 -0.0534  0.1121  0.4284
17287SOL     OW55902   0.450   5.892   0.521  0.1671  0.1640 -0.3544
17287SOL    HW155903   0.416   5.972   0.561 -0.2803 -1.2558  2.3745
17287SOL    HW255904   0.544   5.894   0.539 -0.0080 -0.3953  0.6772
17288SOL     OW55905   8.225   7.559   4.696  0.2596  0.5977  0.8451
17288SOL    HW155906   8.219   7.646   4.657  0.7331  0.4130  0.3491
17288SOL    HW255907   8.147   7.552   4.751 -1.4375  0.1461 -1.4800
17289SOL     OW55908   2.502   1.567   4.109  0.2651  0.5403  0.0963
17289SOL    HW155909   2.428   1.628   4.101  0.6990  1.2050  0.9459
17289SOL    HW255910   2.567   1.615   4.160  1.1865 -0.1351 -0.4160
17290SOL     OW55911   2.055   8.128   8.820 -0.0523 -0.3775 -0.1180
17290SOL    HW155912   2.070   8.100   8.730 -0.2855 -1.2125  0.0989
17290SOL    HW255913   2.138   8.110   8.865  1.0445  2.5862 -0.7545
17291SOL     OW55914   3.858   3.641   1.868  0.0482  0.2749  0.2693
17291SOL    HW155915   3.817   3.640   1.954 -0.9855 -1.4410 -0.1918
17291SOL    HW255916   3.811   3.573   1.818  2.3852 -0.6519 -0.8080
17292SOL     OW55917   0.267   3.333  10.114 -0.1725  0.4231  0.6133
17292SOL    HW155918   0.311   3.390  10.050  0.1786  1.0653  1.4092
17292SOL    HW255919   0.201   3.286  10.063  0.1481  0.8761 -0.2330
17293SOL     OW55920   5.287   1.112   6.302  0.0558  0.1682 -0.9752
17293SOL    HW155921   5.202   1.115   6.259  0.4982  0.4867 -1.8597
17293SOL    HW255922   5.346   1.156   6.241  0.4684  1.7982  0.5109
17294SOL     OW55923   9.673   0.645   8.140  0.2583  0.0570 -0.0559
17294SOL    HW155924   9.732   0.570   8.148  1.3390  1.0871  2.8886
17294SOL    HW255925   9.723   0.709   8.088  0.2194 -0.4143 -0.6857
17295SOL     OW55926   5.819   7.908   1.466  0.2109 -0.2472  0.1836
17295SOL    HW155927   5.740   7.938   1.511  0.3546  0.1354  0.1852
17295SOL    HW255928   5.869   7.862   1.534  0.9249  1.2344  0.7110
17296SOL     OW55929   9.932   8.968  10.156  0.1783 -0.3548  0.3119
17296SOL    HW155930  10.025   8.988  10.151 -0.0158  0.3767 -0.5456
17296SOL    HW255931   9.892   9.047  10.191 -0.2660 -0.2177 -0.4910
17297SOL     OW55932   0.431   4.899   7.562  0.2430 -0.3126  0.2456
17297SOL    HW155933   0.500   4.965   7.570  1.5868 -1.6605  0.3686
17297SOL    HW255934   0.407   4.900   7.469  0.6466 -0.0161  0.1420
17298SOL     OW55935   9.275   1.063   4.171 -0.2973  0.2676 -0.1818
17298SOL    HW155936   9.242   0.987   4.219 -0.4710  0.6319  0.2807
17298SOL    HW255937   9.254   1.044   4.080  1.8951 -1.4145 -0.4416
17299SOL     OW55938   9.234   2.658   6.462  0.6795 -0.5023  0.2590
17299SOL    HW155939   9.225   2.608   6.381  0.1078  0.0901 -0.0483
17299SOL    HW255940   9.155   2.711   6.467 -0.0550 -1.6539  2.0053
17300SOL     OW55941   1.415   1.219   5.733  0.0601 -0.5930  0.3446
17300SOL    HW155942   1.410   1.273   5.654  0.2422 -2.0875 -0.7438
17300SOL    HW255943   1.503   1.235   5.768 -0.2733  0.6197  0.6810
17301SOL     OW55944  10.075   1.430   2.583 -0.7719 -0.2371  0.3286
17301SOL    HW155945   9.989   1.457   2.552 -1.1276 -1.4155  0.2324
17301SOL    HW255946  10.063   1.339   2.611  0.5005 -0.5139  0.0464
17302SOL     OW55947   4.531   6.955   5.612 -0.3932 -0.1026 -0.0327
17302SOL    HW155948   4.444   6.989   5.592 -1.4835 -0.7541  3.0342
17302SOL    HW255949   4.518   6.860   5.620  1.0800 -0.4739 -1.4622
17303SOL     OW55950   4.379   2.637   2.665 -0.1180  0.0891  0.0879
17303SOL    HW155951   4.396   2.577   2.593  0.6281 -0.0357  0.3600
17303SOL    HW255952   4.284   2.649   2.665 -0.0499  0.7617 -1.4448
17304SOL     OW55953   1.208   2.864   2.366 -0.3539  0.1539 -0.0168
17304SOL    HW155954   1.174   2.865   2.456  0.8319  0.4426  0.4460
17304SOL    HW255955   1.296   2.901   2.373 -0.0962 -0.1837 -1.2431
17305SOL     OW55956   5.582   0.255   9.842 -0.0940 -0.2199  0.2958
17305SOL    HW155957   5.569   0.305   9.922 -2.0620 -0.5498  0.2359
17305SOL    HW255958   5.567   0.318   9.771 -0.2300 -0.3449  0.2111
17306SOL     OW55959   3.963   2.103   5.692 -0.4225 -0.6309 -0.3554
17306SOL    HW155960   3.902   2.159   5.739  0.9588  1.7101 -1.1745
17306SOL    HW255961   3.948   2.123   5.599  0.5842 -1.1106 -0.6402
17307SOL     OW55962   8.609   9.927   1.121 -0.2624  0.1206 -0.1687
17307SOL    HW155963   8.694   9.890   1.094  0.0987  0.1593  0.8661
17307SOL    HW255964   8.546   9.888   1.060  0.3554 -0.7628 -0.2691
17308SOL     OW55965   3.242   9.740   0.380 -0.1056 -0.2565 -0.0213
17308SOL    HW155966   3.319   9.794   0.364 -0.2955 -0.0863 -0.3504
17308SOL    HW255967   3.168   9.800   0.376 -0.2853 -0.4730 -0.0189
17309SOL     OW55968   3.313   6.519   9.148 -0.1942 -0.7767  0.6768
17309SOL    HW155969   3.349   6.607   9.139 -1.7040 -0.2526 -0.6979
17309SOL    HW255970   3.270   6.519   9.234 -4.2674  1.5417 -1.0407
17310SOL     OW55971   2.373   2.939   3.270  0.6676  0.3286 -0.5883
17310SOL    HW155972   2.300   2.879   3.285  0.3201  0.6828 -0.8457
17310SOL    HW255973   2.427   2.895   3.204  1.3281 -0.4794  0.4538
17311SOL     OW55974   4.972   1.914   1.854  0.2400 -0.0743 -0.3112
17311SOL    HW155975   5.021   1.850   1.906  3.3571  3.7747  2.0247
17311SOL    HW255976   4.909   1.952   1.914  0.7756  1.3101 -0.5753
17312SOL     OW55977   1.211   8.526   1.167  0.5934 -0.4678  0.1349
17312SOL    HW155978   1.243   8.552   1.081  0.8560 -0.7337  0.1511
17312SOL    HW255979   1.235   8.434   1.176 -0.1793 -0.6758  0.1532
17313SOL     OW55980   6.365   1.077  10.110 -0.5039 -0.1555  0.4637
17313SOL    HW155981   6.287   1.115  10.151 -0.5699  0.9500 -0.6217
17313SOL    HW255982   6.438   1.120  10.154 -0.5495 -0.0756  0.4626
17314SOL     OW55983   7.296   2.053   9.784  0.1078  0.1144  0.2570
17314SOL    HW155984   7.252   2.136   9.802  1.0359  0.6835 -0.0423
17314SOL    HW255985   7.383   2.078   9.755  1.1505 -1.0077  2.1964
17315SOL     OW55986   6.157   0.583   1.913 -0.1944  0.8088 -0.2893
17315SOL    HW155987   6.134   0.652   1.851 -0.9632  0.9679  0.1644
17315SOL    HW255988   6.094   0.593   1.984 -1.2557 -1.2290 -0.8638
17316SOL     OW55989   3.127   2.077   6.820  0.9004 -0.1827 -0.4363
17316SOL    HW155990   3.157   2.096   6.731  2.5325 -0.9508 -0.0929
17316SOL    HW255991   3.137   1.983   6.829  0.9135 -0.0932  0.6034
17317SOL     OW55992   2.088   8.960   7.918  0.2375  0.7953 -0.6799
17317SOL    HW155993   2.050   8.872   7.918  1.6699  0.1367 -1.5941
17317SOL    HW255994   2.022   9.015   7.876 -1.1919  0.4374  1.0002
17318SOL     OW55995   2.065   8.640   0.619  0.7599  0.7215  0.5025
17318SOL    HW155996   2.060   8.627   0.714  1.8122  1.9531  0.7591
17318SOL    HW255997   2.133   8.706   0.608  1.0665  0.1655 -1.1636
17319SOL     OW55998   6.822   5.207   3.297  0.1460  0.4849  0.0782
17319SOL    HW155999   6.830   5.295   3.334 -0.3933  0.8357 -0.6254
17319SOL    HW256000   6.910   5.187   3.265  0.1074  1.0641 -0.4036
17320SOL     OW56001   5.112   3.689   7.491  0.8563 -0.6810 -0.5243
17320SOL    HW156002   5.038   3.733   7.448  0.3347  1.5639  2.3710
17320SOL    HW256003   5.131   3.614   7.434 -1.1050  0.8125 -3.4222
17321SOL     OW56004   3.569   3.279   8.617 -0.2080  0.1707 -0.3527
17321SOL    HW156005   3.529   3.195   8.591  1.7012 -1.1457  0.7281
17321SOL    HW256006   3.586   3.269   8.710 -0.3792  2.0071 -0.0878
17322SOL     OW56007   0.605   8.151   3.498 -0.1485  0.4851  0.3312
17322SOL    HW156008   0.685   8.105   3.525 -0.1159 -1.3467 -2.5168
17322SOL    HW256009   0.626   8.243   3.507  1.5877  0.0325  1.4714
17323SOL     OW56010   9.630   1.626   7.448  0.0394  0.0919 -0.1737
17323SOL    HW156011   9.538   1.605   7.430 -0.1716  1.6476 -1.0942
17323SOL    HW256012   9.629   1.664   7.536 -0.3622  1.0253 -0.5739
17324SOL     OW56013   9.307  10.256   5.741  0.1165  0.1875  0.0080
17324SOL    HW156014   9.264  10.313   5.805  0.9206 -0.2447  0.9676
17324SOL    HW256015   9.312  10.309   5.662  1.5575  1.8208  1.0869
17325SOL     OW56016   8.609  10.287   5.371 -0.0173  0.1985  0.6691
17325SOL    HW156017   8.634  10.258   5.283  1.9447  1.6913  0.6694
17325SOL    HW256018   8.557  10.366   5.355  0.7300  0.7300  0.8599
17326SOL     OW56019   5.402   3.013   2.052  0.0990 -0.4955 -0.1310
17326SOL    HW156020   5.479   2.958   2.044  1.7086  1.6716 -0.5666
17326SOL    HW256021   5.384   3.017   2.146  0.6545 -0.8315 -0.0078
17327SOL     OW56022   1.272   1.301   0.800 -0.0867 -0.1706 -0.3586
17327SOL    HW156023   1.244   1.296   0.709  1.9383 -0.6026 -0.9942
17327SOL    HW256024   1.220   1.233   0.844  0.6337 -1.6396 -1.6887
17328SOL     OW56025   2.006   4.785   6.290  0.6602  0.1216 -0.1740
17328SOL    HW156026   1.928   4.833   6.319  0.1442  0.2486 -1.6979
17328SOL    HW256027   2.030   4.731   6.366 -1.3563 -0.5016  0.0888
17329SOL     OW56028   5.120   5.703   3.045  0.4854  0.1292 -0.1179
17329SOL    HW156029   5.085   5.616   3.026 -0.5341  0.7945 -1.4614
17329SOL    HW256030   5.202   5.707   2.995  1.8154 -0.8771  1.8368
17330SOL     OW56031   0.697   8.413   6.697  0.0022  0.5801 -0.1467
17330SOL    HW156032   0.745   8.494   6.713 -0.2623  1.0961 -1.7995
17330SOL    HW256033   0.745   8.371   6.625 -2.4124  1.5178 -2.4474
17331SOL     OW56034   9.652   7.107   7.543 -0.0514  0.4841 -0.5969
17331SOL    HW156035   9.681   7.018   7.564 -1.7435  0.2250  0.8744
17331SOL    HW256036   9.721   7.163   7.578  1.0836 -0.2115 -1.6234
17332SOL     OW56037   5.846   2.192   3.610  0.0961  0.3846  0.5643
17332SOL    HW156038   5.899   2.151   3.679  0.7776  1.3924  0.6492
17332SOL    HW256039   5.834   2.282   3.639  1.4782  1.2009 -1.2320
17333SOL     OW56040   4.541   2.339   8.455  0.5841 -0.1453 -0.7155
17333SOL    HW156041   4.527   2.433   8.444  3.1809  0.3734 -0.3062
17333SOL    HW256042   4.586   2.312   8.375  1.9152 -0.5113  0.1196
17334SOL     OW56043   4.497   0.500   5.901 -0.3604 -0.1023 -0.2596
17334SOL    HW156044   4.539   0.582   5.875  1.8264 -0.7851  0.9054
17334SOL    HW256045   4.457   0.519   5.986  0.7281 -0.3848  0.3331
17335SOL     OW56046   1.203   4.833   8.405 -0.3117 -0.2367  0.3900
17335SOL    HW156047   1.223   4.866   8.492  0.0665  0.8794 -0.0964
17335SOL    HW256048   1.282   4.784   8.379  0.0928  0.5095  0.1823
17336SOL     OW56049   0.650   6.692   2.613 -0.0437  0.2874  0.0623
17336SOL    HW156050   0.740   6.666   2.597  0.1808  1.0711 -0.0228
17336SOL    HW256051   0.604   6.673   2.531  0.1170  0.1795 -0.0028
17337SOL     OW56052   8.251  10.029   8.847  0.1140  0.4314 -0.3445
17337SOL    HW156053   8.188  10.002   8.914 -1.6222 -1.4623 -2.5611
17337SOL    HW256054   8.299  10.102   8.886 -0.7418 -0.6031  2.9357
17338SOL     OW56055   7.655   8.084   3.102  0.3600  0.3427  0.2070
17338SOL    HW156056   7.565   8.088   3.069  0.6433  0.2977 -0.6062
17338SOL    HW256057   7.671   8.170   3.140 -0.0993  0.2786  0.5582
17339SOL     OW56058   6.144   7.412   8.235  0.6983  0.0081 -0.8486
17339SOL    HW156059   6.230   7.454   8.229  1.0949 -0.8234 -1.2949
17339SOL    HW256060   6.084   7.482   8.261  1.5607  0.5409 -0.2302
17340SOL     OW56061   7.853   0.023   9.473 -0.1347 -0.2233  0.0667
17340SOL    HW156062   7.771   0.055   9.512  0.4326 -0.4423  1.5182
17340SOL    HW256063   7.917   0.030   9.544  0.3667 -3.1873  0.0505
17341SOL     OW56064   9.677   2.344   3.270  0.2632  0.0067  0.3912
17341SOL    HW156065   9.626   2.387   3.338  0.3165 -0.0897  0.4907
17341SOL    HW256066   9.767   2.344   3.302  0.1112 -1.1325  0.8781
17342SOL     OW56067   2.035   0.260   1.697  0.1121  0.1098  0.1791
17342SOL    HW156068   1.968   0.231   1.635  0.1281 -1.2322  0.7681
17342SOL    HW256069   2.108   0.200   1.685  1.8309  2.3463 -1.3906
17343SOL     OW56070   5.474   0.667   2.919  0.0592 -0.4975 -0.7248
17343SOL    HW156071   5.418   0.592   2.939  0.1596 -0.2409  0.6523
17343SOL    HW256072   5.413   0.737   2.897 -0.0847 -0.6375 -0.7797
17344SOL     OW56073   8.556   9.860   7.574  0.0588  0.6354 -0.3625
17344SOL    HW156074   8.593   9.846   7.661  0.6230 -0.8589 -0.8136
17344SOL    HW256075   8.602   9.938   7.541  0.5608  0.6236  0.2844
17345SOL     OW56076   3.403   7.918   3.118  0.0196 -0.0219 -0.4715
17345SOL    HW156077   3.312   7.939   3.098 -0.4523 -0.4123  1.0775
17345SOL    HW256078   3.439   7.884   3.036 -0.8774  1.2476 -1.4261
17346SOL     OW56079   9.365   6.525   6.307 -0.7134  0.8688 -0.5396
17346SOL    HW156080   9.392   6.545   6.217  0.4480  1.1948 -0.1380
17346SOL    HW256081   9.373   6.609   6.352 -2.7958  1.0692 -0.4663
17347SOL     OW56082   0.602   0.361   6.151 -0.3103  0.4383 -0.5065
17347SOL    HW156083   0.580   0.313   6.071  1.2127 -1.5454  0.1757
17347SOL    HW256084   0.660   0.431   6.122 -0.5656  0.3576 -1.2409
17348SOL     OW56085   6.592   8.058   6.925 -0.0633  0.6444  0.1294
17348SOL    HW156086   6.580   8.087   6.835  1.4505 -1.2238 -0.7127
17348SOL    HW256087   6.674   8.098   6.953  0.5665 -0.4705 -0.0737
17349SOL     OW56088   7.872   6.544   1.626 -0.6944  0.1041  0.3938
17349SOL    HW156089   7.883   6.449   1.634 -0.3171  0.1104  0.0016
17349SOL    HW256090   7.830   6.557   1.542  0.7546  0.3666 -0.3295
17350SOL     OW56091   8.679   2.952   9.482 -0.0674  0.8616 -0.0943
17350SOL    HW156092   8.614   2.990   9.423 -0.0181  1.0274 -0.0424
17350SOL    HW256093   8.703   2.869   9.441 -1.4897  0.0266  0.6750
17351SOL     OW56094   7.146   3.175   0.652  0.7264 -0.4156  0.1158
17351SOL    HW156095   7.087   3.247   0.676  1.3374 -0.5135  2.0767
17351SOL    HW256096   7.103   3.096   0.684  0.6772 -0.7989 -0.8623
17352SOL     OW56097   6.508   8.241   8.756 -0.3742  0.1254  0.6308
17352SOL    HW156098   6.559   8.262   8.678  2.0981 -0.1251  2.1009
17352SOL    HW256099   6.492   8.325   8.798  0.6732  0.0366  1.2360
17353SOL     OW56100   2.360   8.874   4.913  0.1852  0.0012  0.2380
17353SOL    HW156101   2.384   8.784   4.890  0.5801  0.0026  0.6410
17353SOL    HW256102   2.442   8.924   4.903  0.6381 -0.1745  2.6157
17354SOL     OW56103   1.227   8.788   4.641  0.0391 -1.2928  0.1243
17354SOL    HW156104   1.201   8.702   4.674  0.0258 -1.7709 -1.0586
17354SOL    HW256105   1.145   8.830   4.615 -0.1491 -0.1637  2.3296
17355SOL     OW56106   6.427   6.020   8.896  0.6915 -0.2681  0.1535
17355SOL    HW156107   6.377   5.957   8.949 -2.0456  1.1645 -0.5144
17355SOL    HW256108   6.483   6.065   8.960 -2.0979  1.0315  1.8825
17356SOL     OW56109   1.626   4.007   4.468  0.0494 -0.3543 -0.4411
17356SOL    HW156110   1.606   3.993   4.560 -1.6251  1.3138 -0.4871
17356SOL    HW256111   1.717   4.038   4.467  0.6705 -2.0524  0.4397
17357SOL     OW56112   7.938   0.978   1.488  0.2150  0.3680  0.4823
17357SOL    HW156113   7.938   0.924   1.568  2.0424 -0.5093 -0.0553
17357SOL    HW256114   7.908   0.918   1.419  2.2412 -0.0286 -0.1166
17358SOL     OW56115   9.406   8.816   8.095 -0.0187  0.0175 -0.0833
17358SOL    HW156116   9.403   8.823   8.190  2.1050 -1.1042  0.1133
17358SOL    HW256117   9.330   8.763   8.072  0.1202 -0.7102  1.0983
17359SOL     OW56118   5.275   7.692   1.340  0.0114  0.0320 -0.0590
17359SOL    HW156119   5.245   7.662   1.426  1.8323 -4.5366 -0.7198
17359SOL    HW256120   5.212   7.655   1.278 -0.2640  1.7360 -0.8652
17360SOL     OW56121   8.285   1.663   1.971 -0.2781  0.5646 -0.2447
17360SOL    HW156122   8.241   1.585   2.005 -0.2959  0.9481  0.6329
17360SOL    HW256123   8.236   1.686   1.892 -1.0311  0.3904  0.1590
17361SOL     OW56124   0.584   2.534   2.317 -0.2781  0.1927 -0.1767
17361SOL    HW156125   0.559   2.442   2.317  1.2801 -0.2713  0.5368
17361SOL    HW256126   0.606   2.554   2.408 -1.4902  1.5670 -0.1328
17362SOL     OW56127   7.103   5.404   6.398 -0.2006  0.0459  0.0994
17362SOL    HW156128   7.094   5.399   6.494  1.0684 -1.3943  0.1707
17362SOL    HW256129   7.015   5.429   6.368 -0.5224  0.9557  1.6422
17363SOL     OW56130   4.273   9.051   6.299 -0.0330  0.1241 -0.3917
17363SOL    HW156131   4.243   8.965   6.272 -0.1018  0.0031  0.0630
17363SOL    HW256132   4.323   9.084   6.224  0.4013 -0.5108 -0.3870
17364SOL     OW56133   0.864   6.251   0.192 -0.0128 -0.1456  0.4456
17364SOL    HW156134   0.850   6.332   0.142  0.5545  0.4876  1.2764
17364SOL    HW256135   0.927   6.276   0.260  1.1030 -1.5947 -0.0219
17365SOL     OW56136   5.587   6.985   6.857  0.2293  0.1262 -0.1417
17365SOL    HW156137   5.635   6.903   6.847 -2.1266 -1.3191 -0.4583
17365SOL    HW256138   5.613   7.018   6.943  2.1652 -0.2660 -0.5465
17366SOL     OW56139   0.485   8.540   0.110 -0.0753 -0.3860 -0.6291
17366SOL    HW156140   0.399   8.497   0.117  0.7760 -1.9966  0.6045
17366SOL    HW256141   0.516   8.518   0.022 -1.2006  0.8196 -1.3630
17367SOL     OW56142   6.108   6.103   6.095  0.8590  0.3898  0.2795
17367SOL    HW156143   6.189   6.079   6.139  0.5408 -0.3033  0.5012
17367SOL    HW256144   6.039   6.077   6.156  0.4391  0.1475 -0.2844
17368SOL     OW56145   8.276   6.279   3.448 -0.3304 -0.3392  0.0930
17368SOL    HW156146   8.317   6.304   3.366 -0.0793 -0.1302  0.2798
17368SOL    HW256147   8.288   6.184   3.453  2.5433 -0.0098  1.3989
17369SOL     OW56148   0.831   3.609   2.954  0.2351 -0.2358 -0.5310
17369SOL    HW156149   0.738   3.606   2.933  0.2772 -0.9104 -0.6450
17369SOL    HW256150   0.865   3.525   2.923  0.2336 -1.4922  2.5032
17370SOL     OW56151   8.720   5.252   4.797 -0.0247  0.6434  0.1886
17370SOL    HW156152   8.812   5.270   4.817 -0.0435 -0.5436  1.5571
17370SOL    HW256153   8.713   5.156   4.801 -0.6127  0.3937 -3.3226
17371SOL     OW56154   0.039   9.343   5.622  0.2208  0.3028  0.0471
17371SOL    HW156155   0.007   9.399   5.550  0.4458 -1.1155 -1.2075
17371SOL    HW256156   0.086   9.403   5.680 -0.0769  1.5161 -0.9161
17372SOL     OW56157   3.622   2.155   6.365  0.4026 -0.1476 -0.3218
17372SOL    HW156158   3.549   2.123   6.312  0.2793 -0.3698 -0.0205
17372SOL    HW256159   3.607   2.249   6.373  0.0626 -0.2190 -0.1240
17373SOL     OW56160   4.396   0.960   6.130  0.4194  0.0260  0.0272
17373SOL    HW156161   4.413   0.920   6.045  2.0135 -0.4439  0.5272
17373SOL    HW256162   4.391   1.054   6.113  2.1888  0.0686 -0.4093
17374SOL     OW56163   5.791   3.073   6.887  0.0430  0.4899  0.1114
17374SOL    HW156164   5.751   2.989   6.905  0.7110 -0.0355 -0.7554
17374SOL    HW256165   5.760   3.096   6.799  0.6013  0.6981 -0.0354
17375SOL     OW56166   3.130   6.197   8.992 -0.0681 -0.9013  0.5032
17375SOL    HW156167   3.049   6.199   9.043 -0.5362  0.3069 -0.2440
17375SOL    HW256168   3.101   6.181   8.902  0.2939  1.6272 -0.1187
17376SOL     OW56169   8.528   2.014   6.093 -0.0123 -0.2510  0.0367
17376SOL    HW156170   8.522   2.004   6.188 -1.9565  0.9330  0.0891
17376SOL    HW256171   8.555   1.927   6.061 -0.6411 -1.0445  1.5667
17377SOL     OW56172   7.125   4.696   3.392  0.1792  0.7610  0.1234
17377SOL    HW156173   7.152   4.783   3.363  0.7934  0.4655 -0.1964
17377SOL    HW256174   7.068   4.713   3.468  1.7458  1.3732  1.2098
17378SOL     OW56175   9.361   6.833   8.952 -0.0048  0.1832  0.5834
17378SOL    HW156176   9.407   6.903   8.905  0.3757 -1.1884 -1.2189
17378SOL    HW256177   9.374   6.755   8.897 -3.3475 -0.5674  0.6635
17379SOL     OW56178   4.218   8.417   2.484  0.1981  0.2678  0.2897
17379SOL    HW156179   4.181   8.436   2.571  0.6690 -0.4707  0.6558
17379SOL    HW256180   4.265   8.335   2.495 -1.5056 -0.9899 -1.1779
17380SOL     OW56181   8.935   5.217   8.177  0.2668 -0.2898  0.2323
17380SOL    HW156182   8.983   5.205   8.095 -0.6466 -1.4677 -0.1541
17380SOL    HW256183   8.883   5.297   8.163  0.8386  0.0472  0.0283
17381SOL     OW56184   6.213   6.256   9.937 -0.2653  0.3941  0.8778
17381SOL    HW156185   6.195   6.193   9.867 -1.1277  1.2304  0.3348
17381SOL    HW256186   6.128   6.275   9.975 -0.3938  2.9948 -0.5072
17382SOL     OW56187   4.841   0.935   1.172 -0.0616  0.2082  0.2062
17382SOL    HW156188   4.868   0.896   1.089  1.1557 -1.0727  1.1594
17382SOL    HW256189   4.754   0.897   1.189 -0.7415  1.1817 -0.8744
17383SOL     OW56190   2.173   4.073   3.022 -0.0363  0.0128  0.2832
17383SOL    HW156191   2.235   4.147   3.025 -0.0589  0.0815 -0.7810
17383SOL    HW256192   2.171   4.047   2.931 -1.2904 -0.2504  0.3725
17384SOL     OW56193   7.070   3.437   1.029  0.1896 -0.2362  0.0288
17384SOL    HW156194   7.127   3.501   1.072 -0.5363  0.8717 -0.6017
17384SOL    HW256195   7.014   3.403   1.099  0.9216 -0.5621  0.4616
17385SOL     OW56196   8.901   8.099   3.030  0.1915  0.0214 -0.0840
17385SOL    HW156197   8.844   8.175   3.041  0.4014  0.4605 -1.8143
17385SOL    HW256198   8.852   8.040   2.972  0.2202 -0.9862  0.8763
17386SOL     OW56199   6.855   1.264   9.227 -0.6384  0.2472  0.3025
17386SOL    HW156200   6.781   1.212   9.195 -0.4722 -0.4246  0.9707
17386SOL    HW256201   6.814   1.334   9.279 -0.8045 -1.2697  2.3594
17387SOL     OW56202   8.699   4.849   7.486 -0.6150 -0.2525 -0.4740
17387SOL    HW156203   8.618   4.887   7.452 -0.2912 -1.2245 -2.4918
17387SOL    HW256204   8.767   4.876   7.424  0.4326 -0.3787  0.5693
17388SOL     OW56205   1.339   2.353   7.651 -0.2248  0.3604 -0.4813
17388SOL    HW156206   1.390   2.330   7.573  0.4759  1.4178 -0.3538
17388SOL    HW256207   1.280   2.278   7.664  0.2989 -0.2458 -1.4703
17389SOL     OW56208   0.158   0.433   1.679 -0.3663 -0.4610 -0.2608
17389SOL    HW156209   0.151   0.483   1.597 -0.1038  0.0164  0.0001
17389SOL    HW256210   0.253   0.425   1.694 -0.4119 -0.6888 -0.0877
17390SOL     OW56211   1.988   4.482   7.194 -0.0502 -0.4481  0.2340
17390SOL    HW156212   1.948   4.400   7.223 -1.2153 -0.3979 -1.1422
17390SOL    HW256213   1.960   4.546   7.258 -0.7745 -0.7537  0.2346
17391SOL     OW56214   2.895   7.047   1.367  0.1532  0.2123 -0.1556
17391SOL    HW156215   2.965   7.014   1.310 -0.0477  1.9027 -1.4617
17391SOL    HW256216   2.818   6.995   1.343  0.7481 -1.1157  0.7290
17392SOL     OW56217   0.383   3.472   9.057  0.0156  0.0131 -0.2869
17392SOL    HW156218   0.376   3.438   8.968 -0.8791  0.6614 -0.4752
17392SOL    HW256219   0.466   3.521   9.057  0.7948 -1.2544 -0.3036
17393SOL     OW56220   5.215   9.626   8.391 -0.1117  0.2043  0.5630
17393SOL    HW156221   5.167   9.706   8.371  0.1505  0.3156  0.3649
17393SOL    HW256222   5.211   9.619   8.486  0.0299  0.5601  0.5975
17394SOL     OW56223   7.400   9.166   0.109  0.2316 -0.2073 -0.0498
17394SOL    HW156224   7.392   9.095   0.174  0.0079  0.8810  1.1432
17394SOL    HW256225   7.401   9.246   0.161  2.0041  0.6173 -1.2738
17395SOL     OW56226   0.450   1.247   7.323  0.0228 -0.3488  0.0471
17395SOL    HW156227   0.441   1.152   7.320  0.0890 -0.3266 -1.3673
17395SOL    HW256228   0.519   1.263   7.388 -0.5053 -1.2133  0.8328
17396SOL     OW56229   7.272   4.447   1.864 -0.6029 -0.3296 -0.2559
17396SOL    HW156230   7.293   4.470   1.955  0.4167  0.4637 -0.6892
17396SOL    HW256231   7.193   4.392   1.872 -0.7310  0.0084  1.0796
17397SOL     OW56232   4.995   3.842   3.391  0.0012 -0.1069 -0.2495
17397SOL    HW156233   5.018   3.807   3.305  1.1449  1.1186 -0.4747
17397SOL    HW256234   4.933   3.913   3.373 -2.6911 -2.1569  0.2330
17398SOL     OW56235  10.103   6.865   1.343  0.4577  0.2922 -0.2582
17398SOL    HW156236  10.124   6.772   1.339  0.3176  0.0370  2.9002
17398SOL    HW256237  10.037   6.877   1.274  2.2055 -1.3362 -2.4011
17399SOL     OW56238  10.169   0.255   5.806  0.3822  0.6183  0.5818
17399SOL    HW156239  10.171   0.253   5.901 -1.5246 -2.5703  0.7048
17399SOL    HW256240  10.254   0.222   5.779 -0.2347 -1.7576  1.3454
17400SOL     OW56241   2.716   5.657   9.020  0.5965 -0.1622 -0.5529
17400SOL    HW156242   2.676   5.614   8.945  0.6685 -1.3905  0.0875
17400SOL    HW256243   2.775   5.592   9.057  0.6513  0.4521  0.4938
17401SOL     OW56244   9.435   4.706   2.645  0.3508  0.6379  0.0967
17401SOL    HW156245   9.458   4.694   2.553 -0.4966  1.9559 -0.3167
17401SOL    HW256246   9.355   4.759   2.643  0.8641  1.5465  1.5987
17402SOL     OW56247   6.765   1.766   1.044  0.0373 -0.1079  0.1870
17402SOL    HW156248   6.706   1.839   1.059  1.3008  0.8571  0.7285
17402SOL    HW256249   6.779   1.728   1.131  0.9299  0.2942  0.2412
17403SOL     OW56250   2.643  10.183   2.987 -0.2793 -0.4485  0.6272
17403SOL    HW156251   2.715  10.132   2.950  0.3038  1.3406 -0.8883
17403SOL    HW256252   2.568  10.164   2.931  0.2283  1.1357 -0.6646
17404SOL     OW56253   2.493   5.824   4.654 -0.3022  0.5264  0.1763
17404SOL    HW156254   2.470   5.785   4.569 -1.0952  1.9709 -0.2991
17404SOL    HW256255   2.511   5.748   4.710 -0.6832 -0.4905 -1.0117
17405SOL     OW56256   3.467   8.708   1.227  0.1211 -0.4379  0.2722
17405SOL    HW156257   3.444   8.709   1.320 -1.3301  2.2113 -0.0183
17405SOL    HW256258   3.560   8.684   1.225 -0.0716 -1.5376  2.2874
17406SOL     OW56259   5.183   2.943   5.808  0.0243 -0.2839  0.4805
17406SOL    HW156260   5.191   2.992   5.890  1.3212  0.7100 -0.2068
17406SOL    HW256261   5.221   3.001   5.741  0.0824 -1.5560 -0.6299
17407SOL     OW56262   1.314   1.979   7.399 -0.1214 -0.4058 -0.7776
17407SOL    HW156263   1.402   1.988   7.436 -0.2299 -0.0755 -0.5922
17407SOL    HW256264   1.310   2.045   7.330 -0.6341  0.4468  0.0274
17408SOL     OW56265   2.466   2.759   1.603  0.0729  0.1862 -0.1621
17408SOL    HW156266   2.496   2.830   1.546 -0.4482  1.2730  0.8696
17408SOL    HW256267   2.538   2.696   1.602 -0.5187 -0.5505 -3.1310
17409SOL     OW56268   7.582   5.753   0.253  0.2856 -0.3061  0.6450
17409SOL    HW156269   7.646   5.786   0.316  1.7853  1.7121 -1.7208
17409SOL    HW256270   7.541   5.832   0.218 -0.1686 -1.2950 -1.1819
17410SOL     OW56271   3.502   6.435   6.769 -0.4866  0.0715 -0.2565
17410SOL    HW156272   3.591   6.429   6.734 -0.2523  3.8364 -0.7478
17410SOL    HW256273   3.448   6.390   6.705  1.0111 -3.1444  0.5170
17411SOL     OW56274   8.618   5.036   6.648  0.5239  0.0760 -0.0312
17411SOL    HW156275   8.578   4.960   6.606 -0.1941 -0.3136  1.2862
17411SOL    HW256276   8.552   5.105   6.639  0.3006 -0.0540  0.5709
17412SOL     OW56277   7.553   4.291   5.986 -0.4738 -0.2418  0.1172
17412SOL    HW156278   7.481   4.326   5.934  0.2400  0.8059 -0.1953
17412SOL    HW256279   7.593   4.224   5.931 -0.6822 -0.2199 -0.0595
17413SOL     OW56280   5.799   6.501   7.587  0.6011 -0.3721 -0.2641
17413SOL    HW156281   5.859   6.446   7.536  0.5048 -0.2019 -0.5648
17413SOL    HW256282   5.821   6.482   7.678 -0.0094 -1.5597 -0.3368
17414SOL     OW56283   8.622   4.729   5.893  0.4095 -0.4538 -0.0803
17414SOL    HW156284   8.614   4.673   5.969  3.7173 -1.8985 -0.6351
17414SOL    HW256285   8.669   4.807   5.924  0.8213 -0.5629 -0.4133
17415SOL     OW56286   9.219   7.008   6.010 -0.5981  0.1237  0.2407
17415SOL    HW156287   9.167   6.944   5.962 -0.8183  0.5765 -0.1301
17415SOL    HW256288   9.249   6.960   6.088 -0.6948 -0.4480 -0.0665
17416SOL     OW56289   9.661   2.419   5.437  0.2696  0.4643  0.0321
17416SOL    HW156290   9.659   2.456   5.348  0.8996 -0.3623 -0.3399
17416SOL    HW256291   9.569   2.415   5.463 -0.0387 -0.3619 -1.0650
17417SOL     OW56292   6.726   8.643   3.811  0.8988  0.1520 -0.6639
17417SOL    HW156293   6.748   8.735   3.799 -0.3139  0.4755 -0.4686
17417SOL    HW256294   6.743   8.603   3.725 -0.1713  0.8916 -1.2348
17418SOL     OW56295   2.284   8.434   4.354 -0.2200 -0.2575 -0.5174
17418SOL    HW156296   2.294   8.446   4.260  0.6209 -0.5289 -0.4722
17418SOL    HW256297   2.374   8.429   4.387 -0.5037  0.4074  0.3769
17419SOL     OW56298   1.374   1.089   1.492 -0.2027  0.0434  0.0592
17419SOL    HW156299   1.342   1.029   1.425 -0.6053 -0.1983  0.4621
17419SOL    HW256300   1.467   1.100   1.472 -0.2689 -0.2078 -0.3985
17420SOL     OW56301   7.206   8.887   5.465 -0.4671  0.6451  0.2714
17420SOL    HW156302   7.175   8.852   5.548 -2.2376  1.1041 -0.1679
17420SOL    HW256303   7.284   8.938   5.488 -0.8655  0.6724  1.6155
17421SOL     OW56304   5.596   1.998   9.577 -0.0980  0.2027 -0.6139
17421SOL    HW156305   5.528   1.933   9.560 -1.3059  0.1722  3.3868
17421SOL    HW256306   5.551   2.068   9.625  2.3716  0.9151  0.8252
17422SOL     OW56307   7.869   9.685   2.833  1.2778 -0.3341  0.1002
17422SOL    HW156308   7.839   9.618   2.894  1.3539 -0.1190  0.3722
17422SOL    HW256309   7.869   9.766   2.883  1.0345 -0.0980 -0.2720
17423SOL     OW56310   3.384   4.168   9.299 -0.3429 -0.0550 -0.2050
17423SOL    HW156311   3.448   4.122   9.354 -1.2512 -0.1756  0.7683
17423SOL    HW256312   3.421   4.256   9.289 -1.5562  0.9911  3.2019
17424SOL     OW56313   4.820   4.421   1.431 -0.4392  0.2893 -0.4190
17424SOL    HW156314   4.841   4.362   1.359  1.3792  0.6433 -0.2193
17424SOL    HW256315   4.846   4.507   1.400 -0.2666  0.5467  0.4129
17425SOL     OW56316   8.445   2.258   3.702 -0.1145  0.8025 -0.2542
17425SOL    HW156317   8.444   2.202   3.779  1.4270 -0.6401 -1.2152
17425SOL    HW256318   8.476   2.201   3.631  1.5117  2.8478 -1.2971
17426SOL     OW56319   1.475   4.861  10.241 -0.5629 -0.2199 -0.5000
17426SOL    HW156320   1.530   4.940  10.237  2.0038 -1.7403  1.4999
17426SOL    HW256321   1.389   4.893  10.270  0.8003  1.7632  1.7970
17427SOL     OW56322   7.427   4.256   9.081 -0.4104  0.3514 -0.0867
17427SOL    HW156323   7.399   4.184   9.025  0.8856 -1.0718  0.9794
17427SOL    HW256324   7.377   4.244   9.162  0.8628 -0.3142  0.6475
17428SOL     OW56325   0.310   9.665   7.952 -0.1886 -0.1725 -0.1369
17428SOL    HW156326   0.218   9.637   7.952  0.1113 -1.2838 -1.4796
17428SOL    HW256327   0.307   9.755   7.918 -0.9126  0.5049  1.5828
17429SOL     OW56328   0.772   1.978   2.220  0.4147  0.1804 -0.2127
17429SOL    HW156329   0.761   2.070   2.243  2.5155  0.5209 -0.4605
17429SOL    HW256330   0.764   1.975   2.125 -1.3425 -0.1951 -0.0941
17430SOL     OW56331   2.134   5.631   8.485  0.1705 -0.3425  0.4630
17430SOL    HW156332   2.229   5.624   8.485  0.1671 -0.8319 -1.0456
17430SOL    HW256333   2.113   5.682   8.563  1.7859  1.1681 -0.0244
17431SOL     OW56334   1.985   8.562   9.202 -0.0451  0.2859 -0.6403
17431SOL    HW156335   2.078   8.582   9.216  0.0266 -1.6041  2.4611
17431SOL    HW256336   1.938   8.627   9.254 -0.6097  1.7224 -2.8060
17432SOL     OW56337   0.725   8.933   6.883 -0.5302  0.0346  0.4547
17432SOL    HW156338   0.678   8.861   6.840 -1.9240  1.1512  0.0463
17432SOL    HW256339   0.790   8.962   6.819 -0.1128 -0.6832  0.5377
17433SOL     OW56340   9.127   0.932   5.525  0.2364 -0.6880 -0.3305
17433SOL    HW156341   9.066   0.908   5.595 -1.8722 -1.2297 -2.2456
17433SOL    HW256342   9.167   0.849   5.499  1.7372 -0.3548  0.8149
17434SOL     OW56343   0.050   4.716   2.871  0.0897 -0.1423  0.3518
17434SOL    HW156344   0.141   4.713   2.903 -0.3641 -0.3230  1.6918
17434SOL    HW256345  -0.000   4.748   2.946 -0.8958  0.4682 -0.5444
17435SOL     OW56346   9.583   7.147   2.890 -0.5823 -0.4177 -0.2551
17435SOL    HW156347   9.593   7.063   2.845  0.6099 -0.4590  0.0538
17435SOL    HW256348   9.489   7.166   2.885 -0.8990 -1.8545 -0.1711
17436SOL     OW56349   3.885   9.830   6.598 -0.4759 -0.5649 -0.0821
17436SOL    HW156350   3.821   9.768   6.631  0.7180 -1.6859  0.2200
17436SOL    HW256351   3.858   9.846   6.507 -0.7783 -1.5946 -0.1915
17437SOL     OW56352   7.723   2.285   0.742  0.1906  0.0910 -0.3506
17437SOL    HW156353   7.651   2.278   0.804  1.1260  0.4696  0.8052
17437SOL    HW256354   7.801   2.268   0.794  1.0908  1.4851 -1.1787
17438SOL     OW56355   0.727   5.510   2.791 -0.5908  0.1150 -0.2188
17438SOL    HW156356   0.655   5.484   2.848  0.2533  0.2513  0.9612
17438SOL    HW256357   0.796   5.538   2.851  0.3141  0.3446 -1.3203
17439SOL     OW56358  10.188   2.941   5.068  0.0490 -0.2601 -0.1226
17439SOL    HW156359  10.219   3.027   5.042 -0.9883  0.3868  0.6769
17439SOL    HW256360  10.095   2.941   5.044 -0.3377 -0.5607  1.2691
17440SOL     OW56361   0.026   4.987   5.605  0.4698  0.4021  0.7063
17440SOL    HW156362   0.078   4.907   5.613  2.0135  1.3190  0.2365
17440SOL    HW256363   0.008   5.012   5.696 -2.1664 -1.7380  0.8926
17441SOL     OW56364   7.282   9.087   1.886  0.5464  0.4032  0.2887
17441SOL    HW156365   7.324   9.156   1.938  3.6561 -1.0985 -0.0435
17441SOL    HW256366   7.285   9.119   1.796 -0.9245  1.1122  0.4448
17442SOL     OW56367   8.904   5.887   6.910 -0.2191  0.1032 -0.2631
17442SOL    HW156368   8.939   5.824   6.974 -1.4723 -1.1999 -0.8109
17442SOL    HW256369   8.969   5.957   6.909  0.1029 -0.0676  2.0546
17443SOL     OW56370   6.780   4.654   3.505  0.5890  0.0787 -0.2227
17443SOL    HW156371   6.796   4.561   3.518  3.1667  0.4549 -0.0361
17443SOL    HW256372   6.800   4.694   3.589  0.0466  0.8633 -0.4535
17444SOL     OW56373   2.407   3.259   5.715  0.2610 -0.0062  0.3445
17444SOL    HW156374   2.325   3.301   5.689 -0.1829 -1.2077 -0.2628
17444SOL    HW256375   2.388   3.221   5.801  0.6683  1.0197  0.9024
17445SOL     OW56376   0.952   1.131   5.745 -0.0660 -0.0717  0.0852
17445SOL    HW156377   0.999   1.208   5.775 -0.2220  0.7126 -1.5960
17445SOL    HW256378   0.969   1.065   5.813 -1.5061  1.9508  2.6054
17446SOL     OW56379   5.394  10.222   1.566  0.0302 -0.6591 -0.5803
17446SOL    HW156380   5.376  10.288   1.633  1.5197  0.4876 -1.2629
17446SOL    HW256381   5.350  10.144   1.598 -3.3934  1.0694 -0.6298
17447SOL     OW56382   1.775   1.261   8.097  0.2424  0.2510 -0.1570
17447SOL    HW156383   1.680   1.259   8.099  0.1581 -0.2359 -2.3204
17447SOL    HW256384   1.799   1.208   8.021  2.3326 -1.0948  1.3326
17448SOL     OW56385   4.669   5.039   9.737  0.3185  0.2971  0.1047
17448SOL    HW156386   4.721   5.039   9.656 -1.9636  0.6220 -1.4388
17448SOL    HW256387   4.666   5.131   9.763 -0.9863  0.5605 -0.8761
17449SOL     OW56388   8.455   6.055   2.518  0.5495  0.3629 -0.2390
17449SOL    HW156389   8.435   6.073   2.426 -1.2897  0.4131  0.1368
17449SOL    HW256390   8.394   5.986   2.543  1.6540 -0.3207  0.7172
17450SOL     OW56391   9.359   4.524   5.224  0.0950 -0.3719  0.7643
17450SOL    HW156392   9.403   4.552   5.144 -0.5615  1.4695  1.0098
17450SOL    HW256393   9.298   4.456   5.195  0.1837 -0.0496 -0.2214
17451SOL     OW56394   5.477   8.636   8.448 -0.0425  0.0928 -0.1425
17451SOL    HW156395   5.512   8.687   8.375  0.6774  0.5819  0.5356
17451SOL    HW256396   5.551   8.585   8.480 -0.2986  0.0512  0.3976
17452SOL     OW56397   3.320   6.202   7.309  0.4714 -0.4729 -0.6511
17452SOL    HW156398   3.260   6.174   7.378 -0.3190 -2.1849 -1.9534
17452SOL    HW256399   3.405   6.207   7.352 -0.2103 -0.2894  0.7185
17453SOL     OW56400   5.003   1.594   7.333  0.3611 -0.3048  0.3616
17453SOL    HW156401   5.002   1.585   7.237  3.0598 -0.3755  0.2493
17453SOL    HW256402   5.005   1.689   7.347  0.1445 -0.2975  0.3498
17454SOL     OW56403   4.618   3.658   0.454  0.2012 -0.6803 -0.0354
17454SOL    HW156404   4.662   3.583   0.414  0.7358 -0.0749 -0.5993
17454SOL    HW256405   4.536   3.667   0.404  0.6830 -0.1709 -0.7474
17455SOL     OW56406   1.104   6.953   7.356 -0.0478  0.2536 -0.0467
17455SOL    HW156407   1.172   6.995   7.410  1.2441  0.6236 -1.8617
17455SOL    HW256408   1.149   6.931   7.275 -2.3477  1.4529 -1.7629
17456SOL     OW56409   5.130  10.118   1.223  0.0697  0.7106 -0.1842
17456SOL    HW156410   5.068  10.100   1.152 -0.8298  0.0988  0.7252
17456SOL    HW256411   5.075  10.124   1.301  1.1787 -0.0712  0.6852
17457SOL     OW56412   0.542   9.688   8.965  0.2215  0.1589 -0.1116
17457SOL    HW156413   0.627   9.669   8.924  0.5028 -0.5038  0.7638
17457SOL    HW256414   0.491   9.607   8.953 -0.0281  0.2973  0.0105
17458SOL     OW56415   5.663   6.436   1.522 -0.3137  0.0762  1.0249
17458SOL    HW156416   5.617   6.495   1.462 -1.5202 -0.7385  1.1077
17458SOL    HW256417   5.608   6.435   1.600 -1.4619 -2.6712  0.3020
17459SOL     OW56418   6.971   7.041   7.005  0.8404  0.0623 -0.0483
17459SOL    HW156419   6.967   7.129   6.966 -0.3393  0.0101 -0.0628
17459SOL    HW256420   7.054   7.006   6.974  1.0137  0.9165 -0.6055
17460SOL     OW56421   5.006   7.784   2.168 -0.2519 -0.5770 -0.2983
17460SOL    HW156422   4.965   7.869   2.157  0.1968 -0.2718  0.2886
17460SOL    HW256423   4.958   7.743   2.240  0.3263 -0.2989  0.2580
17461SOL     OW56424   9.011   1.876   8.819  0.3611 -0.1582  0.1384
17461SOL    HW156425   8.949   1.937   8.859  0.2872  0.6484 -1.1463
17461SOL    HW256426   9.086   1.931   8.796  0.9531 -0.8536  0.3635
17462SOL     OW56427   8.377   7.062   6.690  0.5925  0.2024 -0.0862
17462SOL    HW156428   8.313   7.113   6.741  0.2492 -0.1237 -0.1888
17462SOL    HW256429   8.435   7.128   6.653  1.3475  0.4061  1.3803
17463SOL     OW56430   7.922   1.521   5.999  0.4762  0.3114 -0.3117
17463SOL    HW156431   7.995   1.534   5.939  1.4903 -0.1420  0.7847
17463SOL    HW256432   7.858   1.471   5.948  2.0113 -1.5371 -0.5322
17464SOL     OW56433   1.663   7.976   0.411 -0.0033 -0.3135 -0.0722
17464SOL    HW156434   1.690   7.886   0.391  0.4395 -0.2845  0.4015
17464SOL    HW256435   1.673   7.984   0.505  0.8151  0.5132 -0.2202
17465SOL     OW56436   1.299   0.355   6.191  0.4013 -0.5284  0.2084
17465SOL    HW156437   1.212   0.352   6.231  0.2506  1.9805  0.2060
17465SOL    HW256438   1.325   0.447   6.196  2.9778 -1.1738 -0.0187
17466SOL     OW56439   4.540   9.452  10.215 -0.2800  0.1130 -0.5352
17466SOL    HW156440   4.595   9.377  10.194  0.3609 -0.1268  1.7854
17466SOL    HW256441   4.481   9.459  10.140  0.2447 -2.1238 -1.2445
17467SOL     OW56442   9.845   5.941   5.857  0.1469  0.2641 -0.3085
17467SOL    HW156443   9.776   5.895   5.810 -1.0087  1.1980  0.4306
17467SOL    HW256444   9.890   5.873   5.908 -0.3756 -0.3150 -0.6241
17468SOL     OW56445   4.748   9.640   2.355  0.2864 -0.2607 -0.1063
17468SOL    HW156446   4.768   9.561   2.405  1.6337 -0.0581 -0.2820
17468SOL    HW256447   4.810   9.638   2.283 -0.0119  0.6994 -0.3941
17469SOL     OW56448   3.421   8.262   1.600  0.1456  0.0885 -0.4079
17469SOL    HW156449   3.464   8.343   1.626  1.0284 -0.8820  1.3706
17469SOL    HW256450   3.378   8.231   1.680 -1.2865 -0.5458 -1.3824
17470SOL     OW56451   9.989   1.611   4.878 -0.1622 -0.4859  0.6073
17470SOL    HW156452   9.956   1.647   4.961 -0.8156 -1.2745  0.7111
17470SOL    HW256453   9.921   1.632   4.814  1.2998  1.9912 -0.2350
17471SOL     OW56454   8.093   7.388   5.059  0.1234 -0.6976 -0.8164
17471SOL    HW156455   8.150   7.464   5.052 -0.0355 -0.4998 -0.0519
17471SOL    HW256456   8.105   7.357   5.149 -0.2850 -1.2034 -0.9301
17472SOL     OW56457   1.700   7.061   2.781 -0.4322 -0.3028  0.0865
17472SOL    HW156458   1.778   7.062   2.837  0.8439  1.0072 -1.6016
17472SOL    HW256459   1.644   7.131   2.815 -0.1999 -0.2806  0.4246
17473SOL     OW56460   7.619   6.256   1.213 -0.5989 -0.2457 -0.4963
17473SOL    HW156461   7.602   6.162   1.218 -1.9136 -0.0917 -1.6268
17473SOL    HW256462   7.589   6.282   1.126  0.0759  1.1604 -0.3384
17474SOL     OW56463   6.784   4.303   0.234 -0.2677  0.0519 -0.6009
17474SOL    HW156464   6.733   4.377   0.266 -2.3172 -1.7980  0.7737
17474SOL    HW256465   6.739   4.277   0.153  0.0811 -0.0384 -0.7669
17475SOL     OW56466   4.168   1.959   3.998  0.1925 -0.1135 -0.7929
17475SOL    HW156467   4.260   1.987   3.994 -0.7135  3.1453 -3.6974
17475SOL    HW256468   4.137   1.989   4.083  1.2191  1.0656 -0.8103
17476SOL     OW56469   0.669   0.973   0.789  0.1012 -0.1773  0.1717
17476SOL    HW156470   0.762   0.951   0.782  0.7859  2.5856 -0.8069
17476SOL    HW256471   0.666   1.048   0.849 -1.4338  0.0334 -0.1200
17477SOL     OW56472   7.585   8.100   1.195 -0.1915  0.2367  0.1047
17477SOL    HW156473   7.516   8.095   1.260 -0.3756  1.2853  0.0101
17477SOL    HW256474   7.653   8.041   1.227 -1.2029 -0.9794  0.0851
17478SOL     OW56475   3.730   8.655   6.433 -0.7563  0.2029  0.2815
17478SOL    HW156476   3.777   8.591   6.379 -0.3370  0.5837  0.1916
17478SOL    HW256477   3.768   8.646   6.520 -0.2950  0.7260  0.1396
17479SOL     OW56478  10.019   4.034   5.490 -0.1442 -0.3428  0.1464
17479SOL    HW156479  10.066   3.959   5.453 -0.5835 -0.7331  0.3652
17479SOL    HW256480  10.075   4.065   5.561  1.5606  1.4906 -1.8577
17480SOL     OW56481   4.129   9.458   7.940 -0.0380 -0.0398 -0.1124
17480SOL    HW156482   4.161   9.373   7.910  0.9809  0.2883 -0.0006
17480SOL    HW256483   4.038   9.442   7.965  0.8230 -1.7492  2.3541
17481SOL     OW56484   0.326   9.617  10.215 -0.5070  0.6806  0.6464
17481SOL    HW156485   0.285   9.629  10.300 -0.0757 -0.7576  1.0938
17481SOL    HW256486   0.414   9.585  10.234 -0.9718 -1.3677 -0.2927
17482SOL     OW56487   7.268   2.271   4.867  0.1620 -0.0692  0.0941
17482SOL    HW156488   7.270   2.201   4.932 -1.0910  0.1172  0.3460
17482SOL    HW256489   7.207   2.240   4.800  0.5459  0.2545 -0.4136
17483SOL     OW56490   0.429   7.824   7.142  0.0127 -0.1657 -0.3761
17483SOL    HW156491   0.504   7.871   7.107  0.0923 -1.2265 -1.7108
17483SOL    HW256492   0.396   7.880   7.212  0.3964  1.6066 -1.5619
17484SOL     OW56493   0.054  10.055   6.144 -0.3813  0.2960  0.1126
17484SOL    HW156494   0.117  10.005   6.195 -0.6612  0.8620  1.0467
17484SOL    HW256495   0.088  10.145   6.147 -1.0933  0.5597  0.4240
17485SOL     OW56496   0.857   5.922   2.242  0.2201 -0.1573  0.3905
17485SOL    HW156497   0.878   5.858   2.310  0.7565 -0.4690 -0.0564
17485SOL    HW256498   0.889   6.005   2.276 -2.0231  0.2236  1.7302
17486SOL     OW56499   8.784   7.605   1.604 -0.2477  0.0693 -0.2779
17486SOL    HW156500   8.765   7.685   1.655 -0.6052 -0.7824  0.9760
17486SOL    HW256501   8.711   7.547   1.624  0.8624 -1.2050  0.1984
17487SOL     OW56502   4.603   3.637   8.598 -0.2288  0.1666  0.1604
17487SOL    HW156503   4.646   3.704   8.545  0.0399  0.8374  1.2078
17487SOL    HW256504   4.511   3.644   8.575 -0.2002  0.8965  0.2589
17488SOL     OW56505   6.248   0.403   9.174 -0.0370  0.5977  0.0133
17488SOL    HW156506   6.194   0.454   9.113 -0.3782  0.7025  0.4054
17488SOL    HW256507   6.268   0.465   9.245  0.0121  0.3500  0.2144
17489SOL     OW56508   7.240   3.065   6.635 -0.0784 -0.8276  0.0012
17489SOL    HW156509   7.245   3.040   6.543  0.5542  0.2529 -0.2752
17489SOL    HW256510   7.324   3.035   6.672 -0.5931 -1.8321  0.3864
17490SOL     OW56511   1.998   5.704   3.657  0.2001  0.1909 -0.0073
17490SOL    HW156512   1.942   5.779   3.637 -1.8960 -0.8001  1.7453
17490SOL    HW256513   2.008   5.706   3.752  3.4212  0.4201 -0.2427
17491SOL     OW56514   9.427   0.406  10.003 -0.3162  0.7535  0.3242
17491SOL    HW156515   9.339   0.369  10.016 -0.6346  1.9597  2.0702
17491SOL    HW256516   9.484   0.351  10.057  0.1173 -0.3240 -1.1871
17492SOL     OW56517   0.643   3.185   7.063 -0.1408  0.0736  0.5310
17492SOL    HW156518   0.601   3.136   7.134 -0.0236  0.3148  0.7665
17492SOL    HW256519   0.664   3.118   6.998 -1.5089  0.0380  0.0943
17493SOL     OW56520  10.205   4.754   2.197  0.4045  0.2299  0.1005
17493SOL    HW156521  10.265   4.695   2.151 -1.8514  0.1809 -3.1721
17493SOL    HW256522  10.261   4.802   2.258  3.8502  0.2230 -2.6602
17494SOL     OW56523   6.540   7.319   2.803 -0.2488 -0.3914  0.3643
17494SOL    HW156524   6.569   7.369   2.727 -0.7820  1.3440  1.2394
17494SOL    HW256525   6.592   7.238   2.800 -0.6211 -0.6095 -2.0750
17495SOL     OW56526   6.588   0.446   6.154  0.7359 -0.4314 -0.1622
17495SOL    HW156527   6.528   0.514   6.122  0.5406 -0.0993  0.8874
17495SOL    HW256528   6.550   0.364   6.122  0.2147 -0.1548 -0.2657
17496SOL     OW56529   3.246   6.786   7.467 -0.2088 -0.1920 -0.0289
17496SOL    HW156530   3.221   6.872   7.503  0.5742  0.6905 -1.4821
17496SOL    HW256531   3.191   6.775   7.390 -0.1535 -0.9125  0.0294
17497SOL     OW56532   5.039   9.557   9.152 -0.5098 -0.1180 -0.3224
17497SOL    HW156533   5.049   9.521   9.064 -0.0249  0.5607 -0.5486
17497SOL    HW256534   5.128   9.577   9.180 -0.8157  2.0328 -0.6901
17498SOL     OW56535   2.266   2.492   1.452  0.0043  0.6242 -0.1627
17498SOL    HW156536   2.263   2.585   1.429  1.2905  0.9853  1.0058
17498SOL    HW256537   2.360   2.472   1.458 -0.2624 -0.4964  0.5593
17499SOL     OW56538   4.392   4.088   0.837  0.1151  0.1676 -0.3861
17499SOL    HW156539   4.429   4.071   0.750  1.1652  0.1008  0.0583
17499SOL    HW256540   4.302   4.058   0.831  0.2350 -0.0187 -1.3976
17500SOL     OW56541   9.364   1.651   1.690 -0.1429 -0.2914 -0.6931
17500SOL    HW156542   9.352   1.745   1.673  0.3951 -0.1783 -0.4827
17500SOL    HW256543   9.286   1.610   1.653 -0.3670  0.2364 -0.8230
17501SOL     OW56544   3.275   9.859   0.930  0.3157  0.0040 -0.2216
17501SOL    HW156545   3.349   9.835   0.875  0.1284 -1.4131  0.0928
17501SOL    HW256546   3.230   9.927   0.881 -0.0419 -1.4371 -2.0386
17502SOL     OW56547   0.294   3.533   2.915  0.2864  0.5802  0.0822
17502SOL    HW156548   0.201   3.514   2.929  0.4238 -0.4737 -0.3629
17502SOL    HW256549   0.311   3.503   2.825  0.8661  1.5295 -0.1400
17503SOL     OW56550   8.274  10.187   2.225  0.9547 -0.1007 -0.1022
17503SOL    HW156551   8.243  10.225   2.143 -0.9474 -1.5836 -0.1570
17503SOL    HW256552   8.326  10.256   2.266  2.6468  0.4222 -2.8883
17504SOL     OW56553   3.697   4.842   5.517  0.0093 -0.5796  0.6746
17504SOL    HW156554   3.603   4.859   5.514  0.0783 -0.1176  1.1359
17504SOL    HW256555   3.709   4.770   5.455 -0.3285  0.8008 -1.1059
17505SOL     OW56556   2.927   4.856   1.397 -0.1211  0.5327 -0.4348
17505SOL    HW156557   3.001   4.853   1.336  0.2744  0.7351  0.0222
17505SOL    HW256558   2.851   4.877   1.343  0.1001 -0.0036 -0.9596
17506SOL     OW56559   8.707   3.883   7.843 -0.8013  0.6931  0.4827
17506SOL    HW156560   8.670   3.972   7.841 -1.8546  0.3174  1.6591
17506SOL    HW256561   8.774   3.883   7.775 -2.0081  1.8515 -0.7711
17507SOL     OW56562   2.772   9.245   7.434  0.0979  0.9574 -0.3302
17507SOL    HW156563   2.741   9.291   7.511 -1.3929  0.2534 -0.4884
17507SOL    HW256564   2.854   9.203   7.462 -0.9689 -0.1949  1.2046
17508SOL     OW56565   7.702   6.777   2.358  0.2003  0.0821  0.1067
17508SOL    HW156566   7.648   6.735   2.291  0.4244  1.3699 -0.9152
17508SOL    HW256567   7.652   6.853   2.385 -0.4051 -0.9861  2.2632
17509SOL     OW56568   5.906   3.840   0.712  0.2036  0.1353 -0.3665
17509SOL    HW156569   5.940   3.921   0.674 -0.5856 -0.5987 -2.7924
17509SOL    HW256570   5.926   3.772   0.648 -2.0154 -1.0349  0.0591
17510SOL     OW56571   3.358   6.826   0.183 -0.1338  0.0901  0.2416
17510SOL    HW156572   3.340   6.904   0.130  0.0541 -1.0381 -1.5518
17510SOL    HW256573   3.369   6.756   0.119 -1.0525 -1.5774  1.8400
17511SOL     OW56574   9.545   8.925   0.885 -0.0218  0.0728 -0.2974
17511SOL    HW156575   9.566   8.925   0.791 -1.1787 -0.3208 -0.5698
17511SOL    HW256576   9.609   8.985   0.923  0.9422 -0.3258 -1.2250
17512SOL     OW56577   1.676   2.626   5.088 -0.1129 -0.2660  0.0139
17512SOL    HW156578   1.615   2.686   5.045  0.5621  0.8792  0.6032
17512SOL    HW256579   1.725   2.586   5.016 -0.1382  0.3763 -0.3692
17513SOL     OW56580   7.235   7.404   3.012 -0.1051  0.0887  0.8045
17513SOL    HW156581   7.199   7.402   3.100  2.5169  0.8534  2.0023
17513SOL    HW256582   7.234   7.313   2.983 -0.3424 -0.2655  1.8983
17514SOL     OW56583   7.153   0.457   0.096  0.9927  0.1737  0.0641
17514SOL    HW156584   7.241   0.451   0.133  1.2607  1.1956 -0.3652
17514SOL    HW256585   7.128   0.549   0.107  0.4430  0.1471 -0.8433
17515SOL     OW56586   1.040   4.989   6.579  0.0905  0.5594  0.4930
17515SOL    HW156587   1.012   5.026   6.496  1.5701  1.9434  0.5544
17515SOL    HW256588   0.964   4.996   6.636 -0.1931  1.9582 -0.0160
17516SOL     OW56589   1.813   2.947   8.638  0.1018 -0.3178 -0.1284
17516SOL    HW156590   1.772   3.027   8.607 -0.2518 -0.5559 -0.2826
17516SOL    HW256591   1.858   2.911   8.562 -0.0176 -0.4390 -0.1412
17517SOL     OW56592   0.092   1.067   4.476 -0.1016  0.0496 -0.5021
17517SOL    HW156593   0.152   1.010   4.429 -1.3166  0.2572 -2.4453
17517SOL    HW256594   0.032   1.007   4.521  1.2150 -0.1539  1.0449
17518SOL     OW56595   6.426   1.550   5.760  0.0791 -0.3336  0.2297
17518SOL    HW156596   6.482   1.473   5.750  0.2404 -0.2668  0.6103
17518SOL    HW256597   6.448   1.585   5.846 -2.3722 -1.7779  1.5446
17519SOL     OW56598   9.238   0.301   6.200  0.1818 -0.0189 -0.3065
17519SOL    HW156599   9.174   0.372   6.189 -0.1693 -0.5653 -2.0389
17519SOL    HW256600   9.254   0.298   6.294 -3.5305 -0.8502  0.4596
17520SOL     OW56601   4.259   4.718   1.439  0.0979  0.0932 -0.1821
17520SOL    HW156602   4.209   4.785   1.393 -0.8807 -0.5839 -0.1315
17520SOL    HW256603   4.302   4.668   1.370  0.7273  0.6742 -0.2255
17521SOL     OW56604  10.199   4.043   0.247 -0.1238 -0.0047 -0.0701
17521SOL    HW156605  10.115   4.032   0.291  0.6966 -1.7076  1.1559
17521SOL    HW256606  10.177   4.089   0.165 -2.0426  0.7493  0.8063
17522SOL     OW56607   2.563   9.523   3.621 -0.0855 -0.4409  0.1230
17522SOL    HW156608   2.473   9.544   3.597 -0.3811 -1.3814  0.3638
17522SOL    HW256609   2.565   9.428   3.627  1.2588 -0.5448 -1.1732
17523SOL     OW56610   9.465   1.479   2.662 -0.0096  0.0013 -0.3164
17523SOL    HW156611   9.408   1.466   2.738 -1.7212  0.6504 -1.4371
17523SOL    HW256612   9.545   1.431   2.684 -1.0415 -1.1050  1.2407
17524SOL     OW56613   2.901   1.074   7.443  0.2719 -0.3006 -0.0450
17524SOL    HW156614   2.819   1.082   7.396  0.1987 -0.4043  0.0626
17524SOL    HW256615   2.881   1.015   7.516  0.2590  0.2412  0.3957
17525SOL     OW56616   3.235   2.066   9.349 -0.5595  0.0076 -0.2260
17525SOL    HW156617   3.230   2.148   9.300  0.3150 -0.9422 -2.0272
17525SOL    HW256618   3.271   2.003   9.286 -1.9430 -1.9509  0.8342
17526SOL     OW56619   4.876   2.796   0.506  0.5627 -0.0798 -0.3534
17526SOL    HW156620   4.810   2.746   0.554 -0.2270 -0.7243 -2.0517
17526SOL    HW256621   4.959   2.756   0.531  0.0311 -1.5072 -0.7705
17527SOL     OW56622   5.016   9.822   6.722 -0.3484  0.0208  0.1724
17527SOL    HW156623   5.066   9.889   6.675 -0.4187  1.2645  1.7965
17527SOL    HW256624   5.052   9.739   6.689  0.0285  0.8225 -1.5793
17528SOL     OW56625   0.408   3.563   6.280  0.4431 -0.0982  0.6992
17528SOL    HW156626   0.442   3.638   6.232 -0.3837 -0.0159  0.2270
17528SOL    HW256627   0.406   3.592   6.371  1.2323  0.0361  0.6833
17529SOL     OW56628   5.453  10.257   0.212  0.3838  0.2309 -0.1434
17529SOL    HW156629   5.382  10.303   0.167 -0.5028 -1.1738 -0.2400
17529SOL    HW256630   5.524  10.321   0.218 -1.1256  1.9057  0.5488
17530SOL     OW56631   3.096   7.356   4.725 -0.0896 -0.1698 -0.1228
17530SOL    HW156632   3.135   7.443   4.722 -0.7682  0.1465 -0.0260
17530SOL    HW256633   3.001   7.372   4.723 -0.3229 -0.7593  2.5799
17531SOL     OW56634   8.032   1.699   7.242 -0.3424 -0.1311  0.0077
17531SOL    HW156635   8.127   1.687   7.243 -0.3543 -0.7961  3.3114
17531SOL    HW256636   8.021   1.794   7.242  0.2096 -0.0075 -2.1575
17532SOL     OW56637   1.938   2.591   9.104  0.7507 -0.7458 -0.0882
17532SOL    HW156638   1.980   2.534   9.169  0.0651 -0.0483  1.0144
17532SOL    HW256639   1.850   2.555   9.095  0.5738 -0.3349  0.0074
17533SOL     OW56640   3.384   5.254   3.559  0.2668 -0.9003  0.0814
17533SOL    HW156641   3.425   5.323   3.610 -1.0347  0.3838 -0.5309
17533SOL    HW256642   3.429   5.255   3.475  1.2786 -1.8754  0.5862
17534SOL     OW56643   0.674   9.874   4.201 -0.4369 -0.4497  0.7141
17534SOL    HW156644   0.629   9.803   4.156 -0.4388 -0.1482  0.2384
17534SOL    HW256645   0.694   9.938   4.133  1.3068 -0.8628  0.7869
17535SOL     OW56646   0.361   0.537   5.699  0.3343 -0.5365  0.2984
17535SOL    HW156647   0.443   0.488   5.700  1.0354  0.5448 -0.6558
17535SOL    HW256648   0.367   0.597   5.773  0.7516  0.0464 -0.1961
17536SOL     OW56649   2.673   5.686   0.192  0.1176 -0.0161  0.1469
17536SOL    HW156650   2.758   5.675   0.235  0.5403 -0.3787 -0.7316
17536SOL    HW256651   2.694   5.729   0.109 -0.6784  0.7415  0.3249
17537SOL     OW56652   5.211   9.743   2.143 -0.2571  0.0881  0.0743
17537SOL    HW156653   5.258   9.686   2.082  1.0005  0.1821  0.9127
17537SOL    HW256654   5.248   9.830   2.128  0.6049 -0.0178  1.4630
17538SOL     OW56655   2.307   8.630   9.072 -0.1042 -0.4011  0.1381
17538SOL    HW156656   2.322   8.550   9.022  0.4685 -0.4973  0.4501
17538SOL    HW256657   2.280   8.694   9.006 -0.1935 -0.7515 -0.1683
17539SOL     OW56658   8.140   1.189   7.407 -0.0518  0.2293  0.6715
17539SOL    HW156659   8.214   1.246   7.386  0.8304 -0.8834  0.6768
17539SOL    HW256660   8.079   1.246   7.455  0.6206  1.2591  0.3383
17540SOL     OW56661   0.675   3.886   1.966  0.0755 -0.1445 -0.5653
17540SOL    HW156662   0.726   3.932   1.900 -2.1303  1.5889 -1.1688
17540SOL    HW256663   0.600   3.851   1.919 -1.1381  0.4499  0.8407
17541SOL     OW56664   8.168   3.735   8.612 -0.6625 -0.4893 -0.3995
17541SOL    HW156665   8.136   3.821   8.585 -1.0610  0.3867  2.5093
17541SOL    HW256666   8.263   3.746   8.619 -0.7236 -0.2356  0.0623
17542SOL     OW56667   6.591   7.810   5.865 -0.2615 -0.5482  0.2444
17542SOL    HW156668   6.609   7.845   5.952  0.2521 -3.0545  1.2420
17542SOL    HW256669   6.497   7.827   5.851 -0.1093  0.8751  0.7540
17543SOL     OW56670   3.024   9.950   9.752 -0.6772  0.2400  0.2140
17543SOL    HW156671   3.055   9.939   9.662 -1.9466 -0.3417 -0.1756
17543SOL    HW256672   3.027  10.044   9.767  2.9839  0.1437  0.8699
17544SOL     OW56673   1.896   1.881   8.169  0.0700 -0.4906  0.0539
17544SOL    HW156674   1.959   1.923   8.110  0.1787 -0.7399 -0.0075
17544SOL    HW256675   1.852   1.954   8.213 -0.8151 -0.2497 -1.1614
17545SOL     OW56676   0.394   9.263   9.178  0.1032 -0.1912 -0.6133
17545SOL    HW156677   0.359   9.200   9.114 -0.8794 -0.6029  0.3137
17545SOL    HW256678   0.317   9.310   9.209  0.6049  0.1376  0.1331
17546SOL     OW56679   7.215   4.831   8.478  0.0415 -0.3556 -0.1068
17546SOL    HW156680   7.285   4.775   8.510 -1.6214 -2.4390  0.1270
17546SOL    HW256681   7.217   4.821   8.383 -1.2768 -2.2702  0.0024
17547SOL     OW56682   4.509   2.182   9.789  0.0273 -0.4757 -0.1811
17547SOL    HW156683   4.527   2.112   9.726 -0.0453  0.3072 -1.0867
17547SOL    HW256684   4.447   2.239   9.744  0.5064  0.4660  0.3372
17548SOL     OW56685   9.470   0.642   3.840  0.1279  0.1469  0.1992
17548SOL    HW156686   9.511   0.567   3.884  0.5692 -0.8151 -1.7437
17548SOL    HW256687   9.514   0.718   3.876  2.1013 -0.7386 -0.2320
17549SOL     OW56688   4.005   6.654   1.114 -0.1876 -0.8505  0.5217
17549SOL    HW156689   4.064   6.685   1.183 -1.3172  0.0392  1.1033
17549SOL    HW256690   4.006   6.724   1.049 -0.4783 -0.9087  0.4559
17550SOL     OW56691   3.912   5.592   1.308  0.4090  0.0104 -0.2489
17550SOL    HW156692   3.909   5.673   1.257 -0.7224 -1.6403 -3.0440
17550SOL    HW256693   3.821   5.569   1.323  0.7213 -0.4633  1.0328
17551SOL     OW56694   5.337   3.327   2.893 -0.3560  0.2843 -0.1994
17551SOL    HW156695   5.299   3.336   2.805  0.1381  0.3464 -0.4090
17551SOL    HW256696   5.263   3.341   2.952 -0.9064 -0.7247 -0.6136
17552SOL     OW56697   8.831   0.722   9.784 -0.6785  0.0082  0.0070
17552SOL    HW156698   8.847   0.664   9.858  0.3822  1.0448  0.6388
17552SOL    HW256699   8.736   0.729   9.777 -0.8349  1.4471  2.5657
17553SOL     OW56700   2.970   0.617   6.481 -0.2158 -0.4630 -0.5784
17553SOL    HW156701   2.952   0.527   6.510 -1.4524  0.0650  0.4058
17553SOL    HW256702   2.935   0.622   6.393 -1.8805 -0.4413  0.0563
17554SOL     OW56703   1.293   5.043   2.176 -0.1867 -0.2839 -0.3726
17554SOL    HW156704   1.258   5.016   2.262  1.4428 -1.3783 -0.0001
17554SOL    HW256705   1.244   4.990   2.113  0.8549 -1.9972  0.1609
17555SOL     OW56706   5.203   2.267   8.634  0.1638  0.6632  0.0236
17555SOL    HW156707   5.130   2.211   8.606 -0.4718  2.3132 -1.8445
17555SOL    HW256708   5.192   2.275   8.729 -0.9663 -0.6511  0.0369
17556SOL     OW56709   0.648   0.661   2.438  0.3668  0.2703  0.4525
17556SOL    HW156710   0.611   0.648   2.351  0.0062 -0.2851  0.6842
17556SOL    HW256711   0.741   0.639   2.428 -0.0192 -1.5412  0.5906
17557SOL     OW56712   4.227   1.632   4.324  0.2396  0.1711  0.0654
17557SOL    HW156713   4.308   1.589   4.297 -1.3835 -2.5509 -0.8730
17557SOL    HW256714   4.240   1.651   4.417  1.5442 -1.2888  0.2202
17558SOL     OW56715   0.333   1.047   1.762  0.5924 -0.2243  0.2957
17558SOL    HW156716   0.245   1.052   1.724  0.2032 -0.2037  1.1758
17558SOL    HW256717   0.359   0.955   1.752  1.0036  0.0263 -1.1077
17559SOL     OW56718   8.559   6.805   3.563 -0.0710 -0.1766  0.1420
17559SOL    HW156719   8.542   6.763   3.479 -0.6679  1.9051 -0.8393
17559SOL    HW256720   8.529   6.895   3.552  2.1705  0.8715  1.7648
17560SOL     OW56721   9.598   6.290   0.309 -0.4743 -0.3840 -0.0202
17560SOL    HW156722   9.690   6.314   0.296 -0.2264 -0.5030  1.3617
17560SOL    HW256723   9.602   6.206   0.354 -1.2696 -0.5813 -0.3155
17561SOL     OW56724   7.491   7.992   4.499  0.1024  0.1458 -0.2641
17561SOL    HW156725   7.553   7.973   4.428  2.5614  0.7845  1.5463
17561SOL    HW256726   7.408   7.955   4.470  1.3551 -0.8999 -2.8032
17562SOL     OW56727   6.232   1.378   3.572  0.2012 -0.4802  0.0956
17562SOL    HW156728   6.232   1.340   3.660  1.4088 -2.1511 -0.5796
17562SOL    HW256729   6.320   1.361   3.538 -0.1525  0.3868 -1.3414
17563SOL     OW56730   6.643   7.660   4.021  0.4188  0.3577 -0.1842
17563SOL    HW156731   6.668   7.752   4.015  1.1911  0.1715  0.1353
17563SOL    HW256732   6.557   7.656   3.979 -0.1611  1.4369  0.8477
17564SOL     OW56733   7.692   4.746   5.807 -0.1412  0.4497  0.0196
17564SOL    HW156734   7.679   4.677   5.741 -0.0277  0.2200  0.2352
17564SOL    HW256735   7.679   4.828   5.759 -0.2585  0.2789 -0.2442
17565SOL     OW56736   9.211   6.693   3.634 -1.1012 -0.0346  0.1751
17565SOL    HW156737   9.116   6.693   3.642 -1.0407  0.7806  1.0942
17565SOL    HW256738   9.227   6.704   3.540 -1.9292  1.5075  0.1861
17566SOL     OW56739   7.981   6.665   9.100 -0.1646  0.3831 -0.0935
17566SOL    HW156740   8.062   6.621   9.125  0.2707  1.0656 -0.2980
17566SOL    HW256741   7.953   6.620   9.020 -0.3869 -0.3349  0.3733
17567SOL     OW56742   8.966   6.704   1.787 -0.3593 -0.2734  0.8561
17567SOL    HW156743   8.983   6.788   1.744 -0.3937 -0.1897  1.0050
17567SOL    HW256744   8.887   6.720   1.839 -0.1462 -0.2884  1.1848
17568SOL     OW56745   5.861   8.683   7.268 -0.1329  0.0846 -0.7420
17568SOL    HW156746   5.863   8.590   7.291 -1.4228 -0.7003 -3.4527
17568SOL    HW256747   5.929   8.692   7.202 -1.6243  0.4757 -2.2827
17569SOL     OW56748   7.158   6.612   8.112 -0.2804 -0.0972 -0.2438
17569SOL    HW156749   7.095   6.612   8.184  1.5193 -0.8330  1.4457
17569SOL    HW256750   7.147   6.697   8.070 -0.1363  1.1776  2.1244
17570SOL     OW56751   8.184   2.746   8.821  0.3597  0.0184  0.0998
17570SOL    HW156752   8.116   2.723   8.885 -0.2284 -0.3926 -0.6685
17570SOL    HW256753   8.263   2.756   8.874  0.2484 -1.9119  0.7144
17571SOL     OW56754   8.111   2.947   8.371  0.0819 -0.2584 -0.3059
17571SOL    HW156755   8.150   2.862   8.353  0.4638 -0.2921  0.6423
17571SOL    HW256756   8.184   3.008   8.373  0.2554 -0.4490  2.2779
17572SOL     OW56757   1.517   8.431   3.768  0.1135 -0.3467  0.3816
17572SOL    HW156758   1.548   8.342   3.780 -0.0279 -0.8786 -2.4151
17572SOL    HW256759   1.423   8.427   3.788  0.2608 -0.6105  1.0487
17573SOL     OW56760   0.995   8.530   9.685 -0.2621 -1.1816  0.1687
17573SOL    HW156761   1.072   8.580   9.713 -1.8012  1.4544  0.0894
17573SOL    HW256762   1.024   8.481   9.608  2.3125 -3.4536  2.3789
17574SOL     OW56763   7.412   2.766   5.858 -0.4639 -0.9772  0.1165
17574SOL    HW156764   7.326   2.803   5.874 -0.1446  0.3963 -1.1232
17574SOL    HW256765   7.465   2.839   5.826  0.3479 -2.3560 -1.9940
17575SOL     OW56766   9.666   1.444   4.705  0.2845  0.8386 -0.4849
17575SOL    HW156767   9.740   1.388   4.681  0.0075  0.5572 -0.6989
17575SOL    HW256768   9.597   1.420   4.643 -0.0641  0.9266 -0.1355
17576SOL     OW56769   4.756   5.584   2.967 -0.0822 -0.1537 -0.2328
17576SOL    HW156770   4.843   5.553   2.992  0.6836  2.8679  1.2662
17576SOL    HW256771   4.704   5.504   2.957  1.1808 -2.0183  5.0292
17577SOL     OW56772   4.585   1.120   4.000  0.4398  0.3035 -0.2173
17577SOL    HW156773   4.517   1.056   3.980  0.8056 -0.1083 -0.1576
17577SOL    HW256774   4.660   1.093   3.947  1.0437 -0.1236  0.8116
17578SOL     OW56775   7.689   2.678   0.873  0.0366  0.1835  0.1535
17578SOL    HW156776   7.653   2.591   0.890  0.0688 -0.0940 -1.1360
17578SOL    HW256777   7.782   2.670   0.895 -0.1842  0.2454  1.1870
17579SOL     OW56778   8.335   0.110   2.872  0.1163 -0.2602 -0.3759
17579SOL    HW156779   8.323   0.028   2.824  1.5133 -0.7695  0.0874
17579SOL    HW256780   8.246   0.145   2.883 -0.3734 -0.9887 -1.8105
17580SOL     OW56781   4.273   5.482   8.258  0.0340  0.6578 -0.2026
17580SOL    HW156782   4.301   5.536   8.184  1.0322 -1.8599 -1.7859
17580SOL    HW256783   4.200   5.430   8.223  3.0900 -3.6348 -1.0337
17581SOL     OW56784   0.397   2.948   2.816 -0.0240  0.4581  0.1112
17581SOL    HW156785   0.314   2.929   2.860  0.4210 -0.1387  0.7262
17581SOL    HW256786   0.447   2.867   2.824  0.3455  0.5709 -0.9033
17582SOL     OW56787   9.095   7.562   1.392  0.1472 -0.3782  0.5061
17582SOL    HW156788   9.165   7.550   1.457  0.4954 -1.6321 -0.0630
17582SOL    HW256789   9.046   7.480   1.395  0.2894 -0.5349 -0.9345
17583SOL     OW56790   0.796   2.730   9.473  0.4856  0.5560  0.1042
17583SOL    HW156791   0.888   2.743   9.452  0.0577  1.6630 -1.2414
17583SOL    HW256792   0.759   2.818   9.476 -0.5820  0.1208  0.3799
17584SOL     OW56793  10.249   6.577   6.582  0.3866 -0.2326  0.3223
17584SOL    HW156794  10.322   6.619   6.537  1.9066 -2.9294  0.0578
17584SOL    HW256795  10.202   6.529   6.514  0.4356 -1.2800  0.9979
17585SOL     OW56796   9.928  10.016   6.559  0.4872  0.4982 -0.6015
17585SOL    HW156797  10.019  10.045   6.565  0.0403  2.1348 -1.1344
17585SOL    HW256798   9.895  10.022   6.648  0.4648  1.5165 -0.6633
17586SOL     OW56799   9.607   8.259   6.092  0.1360  0.3882 -0.5907
17586SOL    HW156800   9.624   8.353   6.093  1.6320  0.1504 -0.3075
17586SOL    HW256801   9.676   8.222   6.148  0.3955 -0.9805 -1.7467
17587SOL     OW56802   6.115   1.815   0.874  0.1380  0.6629 -0.4125
17587SOL    HW156803   6.146   1.860   0.795  1.6633  1.9667  0.8421
17587SOL    HW256804   6.195   1.786   0.918 -0.6556  0.2828  0.8488
17588SOL     OW56805   8.421   2.531   7.839  0.5322  0.3018  0.6725
17588SOL    HW156806   8.431   2.437   7.856  1.6865 -0.2296 -2.2645
17588SOL    HW256807   8.365   2.562   7.909  0.4473 -2.4946  2.0022
17589SOL     OW56808   7.786   8.134   2.453 -0.2764  0.0777  0.1553
17589SOL    HW156809   7.771   8.125   2.547 -2.5310 -0.6552 -0.2220
17589SOL    HW256810   7.852   8.067   2.434  0.7914  0.7456  1.2923
17590SOL     OW56811   9.202   1.833   4.170  0.0008  0.0972  0.2709
17590SOL    HW156812   9.167   1.747   4.147  0.2940 -0.1041  0.5679
17590SOL    HW256813   9.126   1.883   4.200 -0.1985  0.0016 -0.0704
17591SOL     OW56814   6.203   0.388   4.828 -0.1846  0.1440 -0.6840
17591SOL    HW156815   6.151   0.389   4.747 -0.1285 -0.4872 -0.7296
17591SOL    HW256816   6.226   0.296   4.841  0.4208  0.3410 -0.3375
17592SOL     OW56817   8.283   1.462   6.206  0.0153 -0.7226 -0.3823
17592SOL    HW156818   8.306   1.452   6.299  0.3816  1.0893 -0.2371
17592SOL    HW256819   8.201   1.511   6.208  0.1565 -0.4589 -1.0171
17593SOL     OW56820   6.244   7.100   9.453  0.3006  0.1919 -0.0255
17593SOL    HW156821   6.336   7.126   9.445  0.9386 -1.4173  1.3541
17593SOL    HW256822   6.217   7.134   9.538  0.0770 -0.5893  0.2200
17594SOL     OW56823   3.499   4.587   1.743  0.2626  0.2024  0.0633
17594SOL    HW156824   3.417   4.550   1.710 -0.0477  0.2291  0.7755
17594SOL    HW256825   3.563   4.569   1.675 -0.5829  1.2154 -1.0528
17595SOL     OW56826   9.195   0.326   9.233 -0.5317 -0.7265  0.7885
17595SOL    HW156827   9.168   0.417   9.219  0.9065 -0.0469  2.0983
17595SOL    HW256828   9.288   0.325   9.211 -0.5958 -1.9887  0.4729
17596SOL     OW56829   1.022   8.589   5.732 -0.2451 -0.2802  0.0618
17596SOL    HW156830   1.113   8.615   5.716 -0.0122 -1.6539 -1.0542
17596SOL    HW256831   0.970   8.664   5.705  0.5730  1.3099  2.5175
17597SOL     OW56832   0.252   0.901   7.930  0.2589 -0.0378  0.5908
17597SOL    HW156833   0.214   0.892   8.017  1.3581  0.7701  1.1859
17597SOL    HW256834   0.342   0.931   7.946  0.1206  1.3096 -0.8466
17598SOL     OW56835   3.155   9.794   4.794  0.0124  0.5253 -0.0519
17598SOL    HW156836   3.111   9.768   4.875 -1.2241  0.1857 -0.7938
17598SOL    HW256837   3.124   9.883   4.778 -1.7292 -0.2588 -1.3941
17599SOL     OW56838   0.805   6.863   9.742  0.5800  0.3299 -0.4058
17599SOL    HW156839   0.898   6.881   9.757  0.3649  1.6924 -0.5742
17599SOL    HW256840   0.775   6.935   9.686 -0.9412  0.8492  0.9926
17600SOL     OW56841   4.775   5.014   5.888 -0.2936 -0.2190 -0.5947
17600SOL    HW156842   4.852   5.061   5.919  0.5912 -1.0358 -1.4784
17600SOL    HW256843   4.804   4.923   5.879 -2.1159 -1.1357  1.6633
17601SOL     OW56844   1.998   8.388   7.403  0.2599 -0.4232 -0.0323
17601SOL    HW156845   1.957   8.367   7.319 -2.1198  0.2852  0.8495
17601SOL    HW256846   2.076   8.439   7.380  0.9442 -2.1830 -1.8349
17602SOL     OW56847   9.073   3.483   8.677 -0.3287 -0.1284 -0.4775
17602SOL    HW156848   9.143   3.518   8.622 -0.2729  0.1513 -0.2260
17602SOL    HW256849   8.992   3.507   8.632 -0.3315  1.1372  0.1639
17603SOL     OW56850   2.131   5.323   0.220 -0.6455  0.5941  0.7644
17603SOL    HW156851   2.168   5.410   0.206 -2.8980  1.4262 -0.3630
17603SOL    HW256852   2.070   5.334   0.292  0.0383 -0.3915  1.5181
17604SOL     OW56853   3.071   1.522   8.967 -0.1955  0.4071  0.1151
17604SOL    HW156854   3.016   1.500   9.042  1.3998  1.1765  1.5584
17604SOL    HW256855   3.034   1.470   8.895 -2.1267  0.0891  1.2538
17605SOL     OW56856   6.459   1.470   1.971  0.5205 -0.4630 -0.3336
17605SOL    HW156857   6.509   1.480   1.891  0.7001 -0.7936 -0.2661
17605SOL    HW256858   6.417   1.555   1.984 -0.1843 -0.6592 -1.2317
17606SOL     OW56859   0.102   4.291   4.636 -0.0481 -0.2796  0.0976
17606SOL    HW156860   0.133   4.303   4.547  3.8063 -2.0844  1.0017
17606SOL    HW256861   0.162   4.344   4.690 -2.1210  0.5896  1.7364
17607SOL     OW56862   2.347  10.294   0.105  0.0945  0.4021 -0.3317
17607SOL    HW156863   2.364  10.272   0.013  0.7220 -0.3024 -0.0581
17607SOL    HW256864   2.397  10.229   0.154 -0.5546  0.5286  0.5143
17608SOL     OW56865   7.102   0.373   9.132  0.0681 -0.1235 -0.3214
17608SOL    HW156866   7.187   0.332   9.114  0.1753 -0.5792  1.1125
17608SOL    HW256867   7.124   0.451   9.183 -0.3152  0.3569 -0.8795
17609SOL     OW56868   6.085   9.628   7.737  0.7989 -0.0157  0.2185
17609SOL    HW156869   6.175   9.604   7.712  1.7367 -0.4590  3.5521
17609SOL    HW256870   6.046   9.546   7.766 -0.1509  0.4617  0.3070
17610SOL     OW56871   6.854   8.084   7.214  0.8049 -0.7485  0.3763
17610SOL    HW156872   6.916   8.017   7.241 -0.1807 -1.7172  0.2861
17610SOL    HW256873   6.857   8.149   7.284 -0.2410 -2.2329  1.8559
17611SOL     OW56874   4.507   9.021   1.477  0.3305 -0.3327  0.5334
17611SOL    HW156875   4.506   9.094   1.539 -0.5625 -0.4955  0.7144
17611SOL    HW256876   4.550   8.950   1.524  0.6801 -0.1084  0.5583
17612SOL     OW56877   8.446   6.784   9.914 -0.3701  0.1782  0.2683
17612SOL    HW156878   8.404   6.774   9.829 -0.2548  0.7545  0.1400
17612SOL    HW256879   8.384   6.836   9.965 -0.8599 -0.9518  0.8453
17613SOL     OW56880   2.237   1.825  10.165 -0.3228 -0.3503  0.4921
17613SOL    HW156881   2.230   1.812  10.070  1.9602 -0.5439  0.2945
17613SOL    HW256882   2.241   1.736  10.200  2.2388 -0.3305  0.3962
17614SOL     OW56883   9.405   8.114   4.888 -0.3709 -0.2497  0.3714
17614SOL    HW156884   9.454   8.031   4.882 -1.8986 -1.2509  1.0284
17614SOL    HW256885   9.416   8.141   4.979 -1.3895 -0.7533  0.6673
17615SOL     OW56886   3.531   2.273   2.122  0.3522  0.1418  0.1828
17615SOL    HW156887   3.578   2.305   2.044  2.9033 -2.2494  0.5578
17615SOL    HW256888   3.440   2.299   2.107  1.3917  3.5380 -1.4900
17616SOL     OW56889   8.653   7.446   7.816 -0.1189  0.0884  0.1687
17616SOL    HW156890   8.714   7.471   7.747  0.2583 -0.9261  0.1242
17616SOL    HW256891   8.700   7.465   7.898 -1.3522  3.3315  0.2606
17617SOL     OW56892   9.935   6.391   9.586 -0.3952 -0.4705  0.2788
17617SOL    HW156893   9.976   6.341   9.514 -0.5157 -0.6887  0.3613
17617SOL    HW256894  10.009   6.436   9.628 -0.5877  1.7282 -1.5541
17618SOL     OW56895   8.303   6.344   7.165 -0.3201 -0.2505 -0.3955
17618SOL    HW156896   8.381   6.373   7.212 -1.2831  1.3408  0.3296
17618SOL    HW256897   8.328   6.343   7.073  0.8528 -0.8628 -0.0908
17619SOL     OW56898   2.986   6.821   5.279  0.0415 -0.0655 -0.4560
17619SOL    HW156899   3.021   6.903   5.313  0.3654 -0.5524  0.4229
17619SOL    HW256900   3.048   6.754   5.308  1.3830 -0.3639 -3.6015
17620SOL     OW56901   3.991   6.695   5.218  1.1995 -0.3221 -0.2595
17620SOL    HW156902   3.898   6.687   5.198  1.2308 -1.4064 -0.0311
17620SOL    HW256903   4.029   6.733   5.139  0.5883 -0.0274 -0.4159
17621SOL     OW56904   8.892   6.260   6.145  0.5722  0.3845  0.1937
17621SOL    HW156905   8.884   6.248   6.240  0.3979 -0.8737  0.0358
17621SOL    HW256906   8.815   6.217   6.109  0.5062  1.0672 -0.5250
17622SOL     OW56907   8.493   8.986   1.697  0.3775 -0.5236 -0.6008
17622SOL    HW156908   8.492   8.969   1.603 -3.0551 -1.1668 -0.5816
17622SOL    HW256909   8.526   9.076   1.705 -0.7953  0.1611 -2.6073
17623SOL     OW56910   8.504   6.036   9.998  0.2828 -0.4444 -0.3287
17623SOL    HW156911   8.427   6.032   9.942 -1.0863  1.7390  1.2140
17623SOL    HW256912   8.534   6.127   9.992  0.3934 -0.2601  1.9702
17624SOL     OW56913   7.318   3.004   6.982 -0.4104 -0.0125 -0.0742
17624SOL    HW156914   7.255   2.950   6.933  0.9809 -1.1201 -0.6998
17624SOL    HW256915   7.392   3.015   6.923  0.5439  0.1547  1.1139
17625SOL     OW56916   6.912   4.624   7.054 -0.0087 -0.0542  0.1856
17625SOL    HW156917   6.973   4.695   7.034 -0.3124 -0.0747 -0.9163
17625SOL    HW256918   6.948   4.548   7.008 -0.2139 -0.3725  0.5431
17626SOL     OW56919   4.960   8.403   6.540  0.0038  0.0544 -0.2688
17626SOL    HW156920   4.958   8.448   6.624  0.2558 -0.6935  0.1433
17626SOL    HW256921   5.026   8.450   6.489  0.6259 -0.1525  0.3352
17627SOL     OW56922  10.025   7.768   8.615  0.1859 -0.3192  0.0074
17627SOL    HW156923  10.007   7.678   8.589 -0.9675 -0.3370  0.8007
17627SOL    HW256924   9.946   7.797   8.661  0.8244  0.8430  0.4355
17628SOL     OW56925   0.404   0.077   9.530  0.3784  0.0917 -0.3800
17628SOL    HW156926   0.331   0.044   9.581 -0.4641 -0.5912 -1.9391
17628SOL    HW256927   0.473   0.095   9.594 -1.6004  2.1834  1.3510
17629SOL     OW56928   1.963   9.566   5.091  0.2652 -0.4914  0.1176
17629SOL    HW156929   1.940   9.506   5.162  0.0727 -1.2195 -0.5418
17629SOL    HW256930   2.027   9.626   5.129  0.5013 -1.1539  0.7750
17630SOL     OW56931   3.200   7.907   8.269  0.5998  0.0807  0.4252
17630SOL    HW156932   3.239   7.977   8.217  0.4642 -0.6978 -0.7665
17630SOL    HW256933   3.186   7.946   8.355  2.0325  1.0237  0.2667
17631SOL     OW56934   8.719   3.202   4.838 -0.3516  0.2894 -0.3856
17631SOL    HW156935   8.754   3.239   4.919 -1.2069  0.5296 -0.1128
17631SOL    HW256936   8.795   3.167   4.793  0.4555  2.0629 -0.4765
17632SOL     OW56937   9.206   4.519   7.090  0.6306  0.5107 -0.0529
17632SOL    HW156938   9.136   4.577   7.058 -0.0347  1.3941  2.7234
17632SOL    HW256939   9.204   4.445   7.030 -2.3167  0.8011 -0.5009
17633SOL     OW56940   3.988   9.779   8.613  0.2255 -0.3039 -0.0455
17633SOL    HW156941   4.018   9.845   8.550 -0.2988  1.1300  1.1392
17633SOL    HW256942   4.056   9.778   8.681  0.8235 -1.8898 -0.6194
17634SOL     OW56943   7.057   5.551   9.632 -0.2332  0.3437  0.2595
17634SOL    HW156944   7.055   5.456   9.625  0.4549  0.2829  0.7348
17634SOL    HW256945   7.067   5.568   9.726 -1.2516  0.9076  0.2722
17635SOL     OW56946   8.920   0.747   0.480 -0.7742 -0.2137 -0.1343
17635SOL    HW156947   8.892   0.732   0.389 -0.2084 -0.0885 -0.3345
17635SOL    HW256948   8.982   0.819   0.474 -1.7438  0.7165  0.5303
17636SOL     OW56949   6.131   8.639   1.573 -0.0169  0.6821  0.1485
17636SOL    HW156950   6.122   8.696   1.650  0.6748 -0.6622  1.2818
17636SOL    HW256951   6.077   8.681   1.506 -1.2989  1.5030  1.6002
17637SOL     OW56952   9.603   4.264   6.609  0.5718 -0.1226  0.2787
17637SOL    HW156953   9.626   4.267   6.516 -0.5235  0.0887  0.0103
17637SOL    HW256954   9.682   4.297   6.653  0.5427  1.3253 -0.6764
17638SOL     OW56955   8.653   4.116   8.883 -0.2275  0.2663 -0.0756
17638SOL    HW156956   8.693   4.126   8.797 -0.2196 -1.7402 -0.3482
17638SOL    HW256957   8.595   4.040   8.874 -1.1243  0.7320  1.3892
17639SOL     OW56958   9.501   0.856   0.765 -0.1628  0.0456 -0.0834
17639SOL    HW156959   9.413   0.826   0.742 -1.0757  0.3161  2.6395
17639SOL    HW256960   9.519   0.926   0.702 -1.9159  0.0167 -0.6934
17640SOL     OW56961   2.940   4.542   4.250 -0.1177  0.6907 -0.4155
17640SOL    HW156962   2.900   4.625   4.277  0.0535  0.0236  2.1149
17640SOL    HW256963   3.016   4.567   4.199 -1.0918  2.0499 -1.2622
17641SOL     OW56964   3.509   9.827   3.591  0.1777 -0.3227  0.0378
17641SOL    HW156965   3.480   9.884   3.662  1.6135 -0.9370  1.1955
17641SOL    HW256966   3.565   9.883   3.537 -0.9271  0.1493 -0.6534
17642SOL     OW56967   1.484   8.608  10.173  0.5051  0.7193  0.1782
17642SOL    HW156968   1.466   8.516  10.191 -2.4685  1.1475 -0.1626
17642SOL    HW256969   1.440   8.656  10.244 -1.4840  1.9529 -1.7397
17643SOL     OW56970   1.523   1.163   8.039 -0.1627 -0.4729  0.4370
17643SOL    HW156971   1.471   1.193   7.965  0.2903  2.2366  1.1261
17643SOL    HW256972   1.471   1.093   8.078 -2.5476  1.0521  0.1748
17644SOL     OW56973   0.398   3.902   5.438  0.5669 -0.3019  0.5212
17644SOL    HW156974   0.487   3.916   5.406  1.0000 -1.6311  1.0545
17644SOL    HW256975   0.384   3.972   5.501 -0.6237  2.9441 -2.9915
17645SOL     OW56976   1.318   2.908   9.378 -0.3759  0.2775  0.7023
17645SOL    HW156977   1.331   2.887   9.285  0.4183  0.5686  0.7424
17645SOL    HW256978   1.368   2.841   9.424 -0.0175  0.6739  0.8954
17646SOL     OW56979   8.754   9.038   6.468 -0.0524  0.1711 -0.8116
17646SOL    HW156980   8.689   8.972   6.445  0.2136 -0.5684  0.4763
17646SOL    HW256981   8.704   9.112   6.502 -0.2465 -0.5021  0.4356
17647SOL     OW56982   9.042   2.767   2.213 -0.0583 -0.2943 -0.0778
17647SOL    HW156983   9.048   2.821   2.292  1.8576  1.0467 -1.0488
17647SOL    HW256984   8.950   2.742   2.208 -0.9199  2.3378  0.8457
17648SOL     OW56985   9.755   1.709  10.119  0.4187 -0.0508 -0.0545
17648SOL    HW156986   9.748   1.616  10.097 -1.7069  0.0176  0.0562
17648SOL    HW256987   9.767   1.752  10.035 -2.9361 -0.1695 -0.7590
17649SOL     OW56988   3.162   1.187   9.363  0.2405 -0.0977 -0.4865
17649SOL    HW156989   3.091   1.127   9.386  1.2613 -0.8465  0.8623
17649SOL    HW256990   3.211   1.141   9.294 -0.3005  0.2107 -1.0806
17650SOL     OW56991   2.772   4.864   7.381  0.4524 -0.1369 -0.6878
17650SOL    HW156992   2.787   4.807   7.456 -0.5186  0.2357 -0.1897
17650SOL    HW256993   2.715   4.813   7.323 -1.2890  0.6573  0.2389
17651SOL     OW56994   0.953   5.650   5.084 -0.2958  0.2346 -0.0470
17651SOL    HW156995   1.043   5.619   5.077 -0.1100  1.1476 -3.0121
17651SOL    HW256996   0.951   5.698   5.166  1.6730 -0.5067  0.4990
17652SOL     OW56997   6.454   7.053   8.064  0.6109  0.0217  0.0181
17652SOL    HW156998   6.435   7.025   8.153  1.9107 -0.0580  0.2915
17652SOL    HW256999   6.381   7.109   8.040  0.3004  0.1254  1.1677
17653SOL     OW57000   5.813  10.085   8.652 -0.4123 -0.3479 -0.3413
17653SOL    HW157001   5.723  10.055   8.652 -1.0502  1.4358 -0.0733
17653SOL    HW257002   5.843  10.071   8.742  0.4465 -3.1932 -0.9706
17654SOL     OW57003   6.702   9.446   0.629 -0.0168  0.1498 -0.3307
17654SOL    HW157004   6.736   9.479   0.545  0.4852  1.7068  0.4499
17654SOL    HW257005   6.608   9.464   0.624 -0.0378 -0.0272 -0.6634
17655SOL     OW57006   0.596   3.994   6.758  0.1274 -0.2990 -0.2389
17655SOL    HW157007   0.509   3.976   6.723  0.0732  0.4490 -0.4963
17655SOL    HW257008   0.592   3.966   6.849  0.3870 -2.6760 -0.8767
17656SOL     OW57009   4.859   1.906   1.356  0.1661 -0.0255  0.2160
17656SOL    HW157010   4.904   1.822   1.364 -0.2866 -0.2062  0.9447
17656SOL    HW257011   4.927   1.971   1.372  0.7826 -0.1923 -1.4785
17657SOL     OW57012   1.207   0.834   8.373 -0.6786 -0.1205  0.3296
17657SOL    HW157013   1.161   0.918   8.381 -0.8117 -0.2080  0.4910
17657SOL    HW257014   1.212   0.818   8.279  0.6306  0.7763  0.2129
17658SOL     OW57015   1.193   0.168   8.396 -0.0196  0.4684 -0.2270
17658SOL    HW157016   1.260   0.187   8.461 -1.4560 -0.2134  1.5579
17658SOL    HW257017   1.208   0.232   8.326  1.8349  0.9637  0.5605
17659SOL     OW57018   1.746   0.564   3.797  0.0417 -0.2201  0.5951
17659SOL    HW157019   1.684   0.635   3.811  0.9350  1.3678 -2.6025
17659SOL    HW257020   1.781   0.545   3.884 -1.9023  1.6521  1.8696
17660SOL     OW57021   1.640   7.016   7.213  0.4965 -0.3325 -0.1574
17660SOL    HW157022   1.694   7.095   7.220 -1.1581  0.8291  0.0584
17660SOL    HW257023   1.687   6.961   7.150  1.0930  1.3347 -1.2454
17661SOL     OW57024   2.544   2.093   3.543 -0.6355 -0.1419 -0.2574
17661SOL    HW157025   2.605   2.019   3.543 -1.8921 -1.2263 -1.1429
17661SOL    HW257026   2.546   2.126   3.633  0.2548 -1.0041  0.0550
17662SOL     OW57027   2.814   9.900   7.014  0.2284 -0.3866 -0.3901
17662SOL    HW157028   2.877   9.891   7.085  0.0441 -0.0849 -0.1869
17662SOL    HW257029   2.814   9.994   6.994  0.1636 -0.4481 -0.6826
17663SOL     OW57030   6.666   4.927  10.194  0.8010 -0.5466 -0.0240
17663SOL    HW157031   6.635   5.017  10.193  0.8043 -0.4972 -2.8337
17663SOL    HW257032   6.758   4.933  10.221  1.1499  0.4634 -1.3405
17664SOL     OW57033   0.182   0.046   6.803 -0.2613  0.1470 -0.2414
17664SOL    HW157034   0.245   0.013   6.739 -1.4664 -1.7102 -0.5289
17664SOL    HW257035   0.155   0.131   6.768 -0.7549 -0.7493 -2.1398
17665SOL     OW57036   0.705   6.255   6.845 -0.1749 -0.0820  0.1095
17665SOL    HW157037   0.743   6.167   6.838 -1.5260 -0.6232 -1.0050
17665SOL    HW257038   0.679   6.262   6.937 -0.4886 -1.0593  0.1102
17666SOL     OW57039   9.493   9.536   3.786  0.2736  0.3512 -0.1630
17666SOL    HW157040   9.555   9.606   3.764  1.9446 -1.0741 -0.1634
17666SOL    HW257041   9.468   9.554   3.876  1.1485  0.6336  0.0327
17667SOL     OW57042   0.069   5.562   2.386 -0.4840  0.1015 -0.5592
17667SOL    HW157043   0.089   5.600   2.301  0.8332 -1.9625 -1.2277
17667SOL    HW257044  -0.022   5.531   2.378 -1.0593  1.6971 -0.4913
17668SOL     OW57045   6.920   3.591   3.224 -0.1376 -0.5800 -0.0765
17668SOL    HW157046   6.894   3.667   3.276  3.3677 -0.6423  2.1039
17668SOL    HW257047   6.906   3.516   3.281 -1.6315 -1.3904 -1.4518
17669SOL     OW57048   1.781   1.116   8.685  0.2856 -0.0817  0.5247
17669SOL    HW157049   1.876   1.114   8.679  0.2138  1.2289 -3.4318
17669SOL    HW257050   1.754   1.027   8.661  0.4749  0.1009 -0.3720
17670SOL     OW57051   1.775   0.747   1.125 -0.2487  0.8046 -0.4778
17670SOL    HW157052   1.681   0.742   1.143 -0.0235 -0.4323  0.4439
17670SOL    HW257053   1.780   0.797   1.043 -1.7803  0.0026 -1.1113
17671SOL     OW57054   7.529   7.391   7.830  0.0883 -0.4708 -0.4737
17671SOL    HW157055   7.590   7.438   7.886 -1.0044 -0.3329  0.6666
17671SOL    HW257056   7.500   7.317   7.884 -1.5559  0.0855 -0.5353
17672SOL     OW57057   5.617   2.065   9.096 -0.0423  0.5300 -0.1121
17672SOL    HW157058   5.652   2.027   9.177  0.1728  0.7638 -0.0933
17672SOL    HW257059   5.626   1.995   9.031 -0.5281  0.2284  0.1426
17673SOL     OW57060   3.375   7.449   4.128 -0.2734  0.2080 -0.5862
17673SOL    HW157061   3.280   7.453   4.133 -0.2852 -1.1278  1.3793
17673SOL    HW257062   3.401   7.399   4.206  2.0685  1.0844 -0.7248
17674SOL     OW57063   2.319   8.056   1.874  0.1864 -0.4654 -0.1408
17674SOL    HW157064   2.391   8.093   1.821 -0.8157  0.5298 -0.8454
17674SOL    HW257065   2.240   8.076   1.824 -0.6586 -0.8997  0.9882
17675SOL     OW57066   6.418   9.538   1.794 -0.1071 -0.1731 -0.0348
17675SOL    HW157067   6.446   9.545   1.886  0.8732  0.8468 -0.3854
17675SOL    HW257068   6.463   9.610   1.750 -1.3854 -0.0057 -1.1299
17676SOL     OW57069   3.187   9.591   6.400  0.1411  0.4483 -0.0398
17676SOL    HW157070   3.172   9.497   6.394  0.5799  0.3570  0.2738
17676SOL    HW257071   3.131   9.619   6.473  1.2119  0.1557  0.9306
17677SOL     OW57072   2.835   7.916   0.550 -0.3769 -0.6350 -0.2154
17677SOL    HW157073   2.847   7.988   0.611 -1.0650 -0.0445 -0.7696
17677SOL    HW257074   2.876   7.841   0.594  2.1292  0.4748 -0.4816
17678SOL     OW57075   9.775   8.809   6.181  0.3517  0.5270 -0.0302
17678SOL    HW157076   9.794   8.837   6.271  0.9417  1.5764 -0.4659
17678SOL    HW257077   9.811   8.721   6.175 -1.3878 -0.3521  1.3284
17679SOL     OW57078   9.308   7.180   3.991  0.1376 -0.0417  0.3409
17679SOL    HW157079   9.235   7.241   3.982 -0.4071 -0.6293  0.7079
17679SOL    HW257080   9.325   7.151   3.901 -0.4363 -0.3015  0.3082
17680SOL     OW57081   7.465   5.997   0.203 -1.0224 -0.2030  0.6108
17680SOL    HW157082   7.532   6.050   0.247  0.0025 -1.3674  0.5073
17680SOL    HW257083   7.481   6.010   0.110 -1.8607  0.6050  0.5571
17681SOL     OW57084   9.783   1.797   4.277 -0.6740  0.1694 -0.4296
17681SOL    HW157085   9.815   1.839   4.197  0.9490 -0.9528 -0.4109
17681SOL    HW257086   9.688   1.797   4.267 -0.5173 -0.1398 -2.4964
17682SOL     OW57087   9.014   6.209   3.765  0.1973  0.0756  0.3229
17682SOL    HW157088   8.921   6.190   3.750  0.0768  0.4952  0.5120
17682SOL    HW257089   9.019   6.305   3.764  0.8137  0.0495 -0.7853
17683SOL     OW57090   8.592   6.127   1.715  0.7724  0.3353 -0.3314
17683SOL    HW157091   8.682   6.158   1.723  0.5538  0.5341  1.8906
17683SOL    HW257092   8.540   6.190   1.766 -0.4700 -0.4425 -0.5796
17684SOL     OW57093   4.004  10.108   3.856  0.0491  0.1778 -0.2120
17684SOL    HW157094   4.075  10.064   3.809  0.9521  2.2714 -0.9275
17684SOL    HW257095   3.931  10.109   3.794  0.3719  0.5772 -0.5979
17685SOL     OW57096   6.051   8.967   4.643 -0.1262  0.2523  0.2021
17685SOL    HW157097   6.104   8.895   4.607  0.8192  1.4683 -0.9461
17685SOL    HW257098   6.098   8.994   4.721 -0.4012 -0.2637  0.5525
17686SOL     OW57099   8.994   6.465   7.339  0.2178  0.3052 -0.0333
17686SOL    HW157100   9.046   6.463   7.258  0.5376 -1.2399  0.1737
17686SOL    HW257101   9.038   6.403   7.397 -3.0349 -2.9357 -0.6549
17687SOL     OW57102   8.485  10.118   4.662  0.1539 -0.2864  0.1538
17687SOL    HW157103   8.527  10.033   4.673  1.3095 -0.0580 -1.9520
17687SOL    HW257104   8.537  10.178   4.715 -0.1353 -0.7221  0.9453
17688SOL     OW57105   6.511   7.554   3.461  0.2630 -0.3066 -0.2675
17688SOL    HW157106   6.581   7.601   3.415  0.5531 -0.4724 -0.0074
17688SOL    HW257107   6.557   7.509   3.533 -0.2262  0.1815  0.3501
17689SOL     OW57108   3.797   0.352   1.039 -0.5402  0.1049 -0.7915
17689SOL    HW157109   3.870   0.294   1.059 -2.3863 -2.5048 -1.0859
17689SOL    HW257110   3.778   0.336   0.947 -0.9132  1.4646 -0.9794
17690SOL     OW57111   3.467   0.812   9.795 -0.0441  0.0611  0.0040
17690SOL    HW157112   3.392   0.804   9.853  0.2733 -1.8459  0.2414
17690SOL    HW257113   3.463   0.734   9.740  1.9523 -0.3258  0.3057
17691SOL     OW57114   4.134   6.080   5.078  0.2844 -0.2258  0.0593
17691SOL    HW157115   4.160   6.083   4.986 -1.6264 -0.8483 -0.5435
17691SOL    HW257116   4.045   6.046   5.077 -0.1680  0.7239  2.0691
17692SOL     OW57117   5.801   9.779   2.651 -0.1323 -0.0265  0.2433
17692SOL    HW157118   5.725   9.733   2.616 -1.6740  3.0644 -0.8464
17692SOL    HW257119   5.857   9.710   2.686 -2.5358 -2.5980 -0.6254
17693SOL     OW57120   6.753   9.572   0.370 -0.0617  0.1072  0.0356
17693SOL    HW157121   6.753   9.667   0.367  1.1141  0.1075 -1.2763
17693SOL    HW257122   6.712   9.546   0.287  2.9751 -0.4413 -1.4371
17694SOL     OW57123   0.084   8.406   2.835 -0.1664  0.2975 -0.1395
17694SOL    HW157124   0.003   8.366   2.867 -0.8162  0.6482 -1.2822
17694SOL    HW257125   0.055   8.482   2.784  0.9930  1.6339  1.1009
17695SOL     OW57126   0.398   2.064   5.431 -0.5498  0.1753  0.4057
17695SOL    HW157127   0.390   2.159   5.427  0.5427  0.2428 -1.4239
17695SOL    HW257128   0.466   2.048   5.497 -0.0421  0.7194  0.0171
17696SOL     OW57129  10.294   8.578   3.088  0.8334  0.2535 -0.1018
17696SOL    HW157130  10.283   8.593   2.994  0.4366  0.8972  0.0431
17696SOL    HW257131  10.207   8.549   3.118  1.0761 -0.3972 -0.0129
17697SOL     OW57132   3.212   0.548   4.674  0.1448 -0.0622  0.1443
17697SOL    HW157133   3.160   0.551   4.754 -2.4512 -0.2228 -1.4429
17697SOL    HW257134   3.219   0.455   4.653 -0.1573  0.0320 -0.3951
17698SOL     OW57135   9.922   9.469   1.522 -0.9095  0.1875  0.7685
17698SOL    HW157136   9.975   9.538   1.482 -2.3164 -0.3915 -2.3766
17698SOL    HW257137   9.974   9.390   1.512 -1.6206 -0.1141 -0.9200
17699SOL     OW57138   9.186   8.831   4.048 -0.8719  0.2217  0.5301
17699SOL    HW157139   9.198   8.914   4.093 -0.8030 -0.6788  2.2717
17699SOL    HW257140   9.259   8.826   3.986 -1.7082  2.0768 -0.6694
17700SOL     OW57141   7.920   2.721   9.184 -0.3147  0.2735 -0.0476
17700SOL    HW157142   7.841   2.722   9.130 -0.1979 -2.3709 -0.3966
17700SOL    HW257143   7.896   2.771   9.262 -3.3191 -2.5705  1.0519
17701SOL     OW57144   5.197   0.909   8.640  0.1479 -0.2123 -0.2734
17701SOL    HW157145   5.158   0.822   8.637  0.2288 -0.2298 -1.3639
17701SOL    HW257146   5.276   0.898   8.692 -0.0909 -0.6889 -0.0050
17702SOL     OW57147   3.943   9.624   5.516  0.0936 -0.1987  0.1401
17702SOL    HW157148   3.903   9.679   5.583  0.3195  0.1426  0.0000
17702SOL    HW257149   3.936   9.676   5.435  2.4113  0.6594  0.4304
17703SOL     OW57150   8.501   8.153   1.835 -0.4981 -0.1356  0.0099
17703SOL    HW157151   8.560   8.170   1.761 -1.7371  0.8916 -0.7797
17703SOL    HW257152   8.557   8.112   1.901  1.1457  0.9894 -0.6195
17704SOL     OW57153   1.324   5.129   8.871 -0.7712  0.3707 -0.2515
17704SOL    HW157154   1.385   5.202   8.864 -1.5152  1.1846  1.2568
17704SOL    HW257155   1.373   5.063   8.921 -0.7024  0.5427 -0.0878
17705SOL     OW57156   1.856   2.535   3.313 -0.5553 -0.3581  0.2393
17705SOL    HW157157   1.825   2.447   3.291  0.7223 -0.5302 -1.0093
17705SOL    HW257158   1.931   2.549   3.256 -1.1737  1.8494 -0.1225
17706SOL     OW57159   9.671   1.267   0.337  0.2236 -0.1437  0.2774
17706SOL    HW157160   9.734   1.195   0.332  0.8616  0.4154  0.1198
17706SOL    HW257161   9.586   1.224   0.332  0.6013 -0.8292 -0.7763
17707SOL     OW57162   7.963   0.777   8.498 -0.0872 -0.1236  0.3052
17707SOL    HW157163   8.042   0.757   8.448  0.0546 -0.0024  0.4798
17707SOL    HW257164   7.957   0.872   8.498  1.4207  0.0573  2.8043
17708SOL     OW57165   5.923   5.285   2.811 -0.1072 -0.5791 -0.0506
17708SOL    HW157166   5.936   5.198   2.773  0.3284 -0.7150  0.3933
17708SOL    HW257167   5.935   5.346   2.738  0.7890 -0.8294 -0.1203
17709SOL     OW57168   0.056   2.307   3.577 -0.0075 -0.1279  0.4098
17709SOL    HW157169   0.028   2.288   3.487  1.2377  0.7205 -0.1805
17709SOL    HW257170  -0.026   2.317   3.626 -0.7058 -0.2863 -0.6929
17710SOL     OW57171   6.930   9.587   3.955  0.7088  0.4417  0.6707
17710SOL    HW157172   6.996   9.645   3.917  0.0859  0.6617 -0.1038
17710SOL    HW257173   6.923   9.614   4.046  1.4266  0.6532  0.6650
17711SOL     OW57174   7.330   7.841   0.135  0.5173  0.2655  0.3610
17711SOL    HW157175   7.395   7.804   0.194  0.8956 -0.3801 -0.4474
17711SOL    HW257176   7.333   7.786   0.057 -0.7771  0.4089  0.1770
17712SOL     OW57177   9.946   5.380   5.974  0.1258 -0.4203 -0.5195
17712SOL    HW157178   9.860   5.419   5.961 -0.0606 -1.1250 -1.5087
17712SOL    HW257179  10.004   5.454   5.994 -0.6613  0.0775 -0.0471
17713SOL     OW57180   3.738   1.441   9.742  0.1394  0.0253 -0.2368
17713SOL    HW157181   3.815   1.394   9.774 -1.1409 -0.8420  1.7922
17713SOL    HW257182   3.677   1.373   9.715 -0.4404  0.6527 -0.5589
17714SOL     OW57183   9.182   4.075   1.218 -0.3440  0.1881 -0.0207
17714SOL    HW157184   9.229   4.047   1.296 -0.1893  1.0102  0.1922
17714SOL    HW257185   9.090   4.073   1.244 -0.2661  0.9210  0.3534
17715SOL     OW57186   6.345   4.750   8.594  0.5185  0.3745 -0.1888
17715SOL    HW157187   6.380   4.699   8.520  0.2901  0.4800 -0.3719
17715SOL    HW257188   6.420   4.763   8.651  1.4567  2.8305 -1.8114
17716SOL     OW57189   1.179  10.046   2.533 -0.3568  0.2628 -0.4909
17716SOL    HW157190   1.238  10.120   2.542 -0.1039  0.2216 -1.6202
17716SOL    HW257191   1.184  10.023   2.440  0.0645 -1.5811 -0.0441
17717SOL     OW57192   5.689   7.430   4.960  0.2725  0.0101 -0.0007
17717SOL    HW157193   5.749   7.504   4.952  1.6416 -0.9935  0.5969
17717SOL    HW257194   5.708   7.375   4.884  0.8139 -0.7961  0.7047
17718SOL     OW57195   7.472   2.701   6.810  0.2075  0.4794 -0.0172
17718SOL    HW157196   7.463   2.614   6.771 -0.8585  0.3489  0.4697
17718SOL    HW257197   7.527   2.687   6.887  0.5477  0.3502 -0.2832
17719SOL     OW57198   9.741   0.466   4.863  0.5935  0.0192  0.1543
17719SOL    HW157199   9.705   0.446   4.950  0.7497  0.6323  0.3581
17719SOL    HW257200   9.669   0.446   4.803  0.6914 -1.0165  0.3612
17720SOL     OW57201   4.055   8.063   0.924 -0.3348  0.0957 -0.3917
17720SOL    HW157202   4.087   8.150   0.948  0.2054 -0.6830  1.8603
17720SOL    HW257203   4.128   8.022   0.879  0.3133 -0.0753  0.7861
17721SOL     OW57204   9.537   1.142   1.683  0.2740 -0.0978 -0.2652
17721SOL    HW157205   9.456   1.185   1.656  0.5130  1.0980  0.8328
17721SOL    HW257206   9.513   1.090   1.759  0.1744 -1.2508 -1.0601
17722SOL     OW57207   3.588  10.166   5.814  0.4775  0.5077 -0.1442
17722SOL    HW157208   3.508  10.174   5.865  0.5317 -1.3007  0.3159
17722SOL    HW257209   3.656  10.208   5.867  0.9781 -3.1578  2.5078
17723SOL     OW57210   9.525   5.759  10.106 -0.7520  0.7414  0.2957
17723SOL    HW157211   9.588   5.713  10.162  1.2643  1.8490 -0.9574
17723SOL    HW257212   9.478   5.818  10.166 -0.5628 -0.0376  1.2346
17724SOL     OW57213   4.199   6.713   4.110  0.2564 -0.6927 -0.2160
17724SOL    HW157214   4.194   6.623   4.143  0.7101 -0.9392 -0.8108
17724SOL    HW257215   4.240   6.705   4.024 -0.4304  0.0010 -0.6165
17725SOL     OW57216  10.226   5.831   6.697  0.6398 -0.0690  0.2281
17725SOL    HW157217  10.315   5.817   6.729  1.6564 -0.3418 -2.4233
17725SOL    HW257218  10.227   5.920   6.661 -0.2800  0.0697  0.5149
17726SOL     OW57219   8.942   9.354   6.300 -0.6688  0.5707 -0.7213
17726SOL    HW157220   8.989   9.426   6.257  0.7458 -0.3989 -0.8400
17726SOL    HW257221   8.862   9.395   6.333 -0.5349  1.9165 -1.9463
17727SOL     OW57222   2.680   0.812   7.033  0.3360 -0.2161  0.1345
17727SOL    HW157223   2.710   0.765   7.110 -1.6669 -0.5825  0.7638
17727SOL    HW257224   2.620   0.751   6.989  0.7877  0.2960 -1.2568
17728SOL     OW57225   8.418   4.360   3.189  0.0129  0.0104  0.0219
17728SOL    HW157226   8.425   4.298   3.261  0.1201 -0.3814 -0.3253
17728SOL    HW257227   8.326   4.384   3.187 -0.0597 -0.2683  0.0427
17729SOL     OW57228   7.171   8.309   3.305  0.0805  0.5119  0.2035
17729SOL    HW157229   7.183   8.240   3.240  0.9814  1.3156 -0.5111
17729SOL    HW257230   7.186   8.265   3.389  1.0056 -0.0996 -0.2634
17730SOL     OW57231   5.178   3.667  10.272 -0.2831  0.2106  0.1557
17730SOL    HW157232   5.191   3.638  10.182  0.3045 -0.5337  0.4604
17730SOL    HW257233   5.121   3.600  10.310 -0.0002  0.1586  0.5021
17731SOL     OW57234   7.685   8.967   8.394  0.4008  0.1663  0.4100
17731SOL    HW157235   7.689   8.983   8.488 -0.0503  1.0092  0.2972
17731SOL    HW257236   7.595   8.988   8.370  0.1530 -1.2565 -0.0091
17732SOL     OW57237   9.345   3.209   2.308 -0.2305  0.4033  0.3467
17732SOL    HW157238   9.365   3.264   2.232 -1.1194  1.0370  0.5498
17732SOL    HW257239   9.272   3.254   2.351 -1.3136 -1.2097  0.2557
17733SOL     OW57240   3.910   9.428   9.983 -0.3975  0.4435 -0.0867
17733SOL    HW157241   3.978   9.472   9.932  0.4134  0.1314  0.6810
17733SOL    HW257242   3.919   9.336   9.958 -1.1362  0.5140 -0.6334
17734SOL     OW57243   0.637   2.848   6.967  0.1911  0.9882  0.2829
17734SOL    HW157244   0.625   2.757   6.992 -0.8247  1.4533  1.6527
17734SOL    HW257245   0.600   2.855   6.879 -2.0352  0.5691  1.1332
17735SOL     OW57246   3.958   9.636   7.668  0.3519  0.4093  0.1092
17735SOL    HW157247   3.864   9.654   7.676  0.5997  1.5488  0.7316
17735SOL    HW257248   3.968   9.546   7.697 -0.4176  0.6172  1.0633
17736SOL     OW57249   8.221   4.817   0.616 -0.1447  0.6638  0.3370
17736SOL    HW157250   8.266   4.736   0.593  0.8932  0.9901  1.1061
17736SOL    HW257251   8.242   4.830   0.709 -0.9372  1.4133  0.4261
17737SOL     OW57252   1.958   2.511   2.203 -0.3297 -0.3677 -0.3731
17737SOL    HW157253   2.045   2.478   2.227  0.0159  0.2063 -0.7806
17737SOL    HW257254   1.946   2.484   2.112 -0.4989 -0.2886 -0.3744
17738SOL     OW57255   9.148   0.622   6.326  0.7664  0.4714 -0.1984
17738SOL    HW157256   9.164   0.643   6.418 -0.0790 -0.3578  0.1527
17738SOL    HW257257   9.223   0.659   6.279  1.6803  0.0809  0.9231
17739SOL     OW57258   4.681   9.340   5.617 -0.2684  0.3841  0.5622
17739SOL    HW157259   4.760   9.308   5.574 -0.0623 -0.8817  1.7991
17739SOL    HW257260   4.610   9.289   5.578 -0.3717  0.8426  0.1368
17740SOL     OW57261   5.401   6.462   5.884 -0.1151  0.0568 -0.2547
17740SOL    HW157262   5.398   6.484   5.790  1.1233 -0.5357 -0.4607
17740SOL    HW257263   5.421   6.368   5.886  1.0024  0.2961  0.5987
17741SOL     OW57264   2.360   9.440   2.595  0.0851  0.3888 -0.2551
17741SOL    HW157265   2.302   9.365   2.580  0.9225 -0.0190 -1.6179
17741SOL    HW257266   2.300   9.513   2.614 -0.8515 -0.1333 -1.0949
17742SOL     OW57267   0.694   4.921   8.237 -0.2446 -0.2359 -0.6721
17742SOL    HW157268   0.692   4.892   8.146  0.8893 -2.1000 -0.1526
17742SOL    HW257269   0.756   4.993   8.239  1.5279 -1.6743 -1.0435
17743SOL     OW57270   4.784   4.508   9.462 -0.6135 -0.1748  0.1958
17743SOL    HW157271   4.828   4.593   9.466 -0.2129 -0.3625 -0.1117
17743SOL    HW257272   4.711   4.516   9.523 -0.2069  0.1743  0.6440
17744SOL     OW57273  10.095   7.706   7.528  0.2174  0.3486 -0.1974
17744SOL    HW157274  10.037   7.761   7.581 -0.5249 -0.1994 -0.4310
17744SOL    HW257275  10.158   7.671   7.590 -1.0673 -0.8484  0.4694
17745SOL     OW57276   1.634   5.152   3.732 -0.3887 -0.3174  0.7390
17745SOL    HW157277   1.582   5.073   3.716  2.1672 -2.3980  1.9799
17745SOL    HW257278   1.604   5.183   3.818  0.3052 -1.4532  1.4116
17746SOL     OW57279   7.657   5.584   6.121  0.5001 -0.1093  0.2822
17746SOL    HW157280   7.681   5.533   6.044 -1.2495  0.7255 -0.8904
17746SOL    HW257281   7.740   5.617   6.155  1.3198 -0.4440 -1.2876
17747SOL     OW57282   7.038   5.275   8.593  0.1155 -0.3388 -0.7563
17747SOL    HW157283   7.028   5.214   8.666 -0.2856  0.6649  0.0432
17747SOL    HW257284   7.131   5.299   8.595 -0.1108  0.4909  0.0845
17748SOL     OW57285   3.432   4.202   6.297 -0.9688 -0.1715  0.4879
17748SOL    HW157286   3.460   4.132   6.356  1.7214  0.5375  0.1675
17748SOL    HW257287   3.336   4.196   6.297 -1.1751 -0.2014  4.9241
17749SOL     OW57288   9.836   5.797   9.879  0.1965  0.1789  0.4620
17749SOL    HW157289   9.843   5.841   9.964  0.3197  1.0527  0.0141
17749SOL    HW257290   9.910   5.831   9.829  0.6153 -0.9732  0.2828
17750SOL     OW57291   9.854   4.015   0.758 -0.4943 -0.1815 -0.0448
17750SOL    HW157292   9.898   3.965   0.689 -0.1629 -1.7273  1.2275
17750SOL    HW257293   9.915   4.086   0.779 -0.0333 -0.4499 -0.4673
17751SOL     OW57294   1.602   8.084   2.886  0.3335  0.2976  0.2393
17751SOL    HW157295   1.626   8.102   2.977  0.4350 -0.1856  0.3099
17751SOL    HW257296   1.644   8.153   2.836  0.8064  0.2013  0.4957
17752SOL     OW57297   3.067   2.573   1.123 -0.3360 -0.8876  0.1834
17752SOL    HW157298   3.160   2.595   1.130 -0.4461  0.8436 -2.4415
17752SOL    HW257299   3.026   2.621   1.195  0.6705 -1.0014  0.8614
17753SOL     OW57300   6.952   5.844   3.412  0.8240  0.4767  0.0002
17753SOL    HW157301   6.877   5.861   3.355  0.6044 -0.2072  0.0749
17753SOL    HW257302   6.999   5.927   3.415 -0.0127  0.9641  0.0718
17754SOL     OW57303   8.263   5.438   8.637 -0.2083  0.2307  0.2620
17754SOL    HW157304   8.241   5.397   8.553 -1.2169  1.3058 -0.0351
17754SOL    HW257305   8.180   5.476   8.667  0.2104  0.1014  1.6082
17755SOL     OW57306   0.188   0.047  10.283 -0.6690 -0.3903 -0.2990
17755SOL    HW157307   0.262   0.077  10.335  0.6996 -3.3254 -0.3643
17755SOL    HW257308   0.226   0.024  10.198 -1.5056 -2.3402 -0.1991
17756SOL     OW57309   7.551   6.990   9.151 -0.3502  0.0707  0.2657
17756SOL    HW157310   7.495   6.924   9.191 -0.8297 -0.0807 -0.6373
17756SOL    HW257311   7.560   7.058   9.218 -1.1128 -0.1902  0.6374
17757SOL     OW57312   0.421   4.209   8.721 -0.9302  0.4030  0.1442
17757SOL    HW157313   0.473   4.261   8.660  1.0697 -3.2954 -1.6824
17757SOL    HW257314   0.471   4.210   8.803 -0.7662  1.0930  0.0375
17758SOL     OW57315   7.059   5.213   1.599  0.2664  0.2600 -0.1373
17758SOL    HW157316   7.034   5.201   1.691 -0.1544 -0.1456 -0.2977
17758SOL    HW257317   6.978   5.238   1.555  0.6105  1.1488 -0.2841
17759SOL     OW57318   4.839   3.273   8.630  0.6515 -0.5383 -0.5632
17759SOL    HW157319   4.871   3.335   8.564  1.3390 -2.2618 -1.9107
17759SOL    HW257320   4.747   3.296   8.641  0.9063  0.7673 -0.9643
17760SOL     OW57321   2.401   1.084   7.209 -0.7241  0.3839 -0.0677
17760SOL    HW157322   2.404   1.013   7.273 -1.8357 -0.2839 -0.7275
17760SOL    HW257323   2.352   1.153   7.254 -0.6601  0.2908  0.1505
17761SOL     OW57324   3.910   6.621   9.173  0.6510  0.2476 -0.2698
17761SOL    HW157325   3.971   6.562   9.218  0.1535  0.0018  0.0886
17761SOL    HW257326   3.916   6.704   9.220  1.2041  0.4344 -0.6517
17762SOL     OW57327   9.833   0.378   5.871  0.2273 -0.7815  0.0041
17762SOL    HW157328   9.882   0.309   5.916  0.3878 -1.0916 -0.6360
17762SOL    HW257329   9.746   0.340   5.856  0.5135 -1.0941 -0.9234
17763SOL     OW57330   9.510   1.365  10.284  0.1555  0.4552 -0.1323
17763SOL    HW157331   9.430   1.316  10.299  0.0577  0.3545 -0.9561
17763SOL    HW257332   9.486   1.434  10.223  1.1252 -0.8411 -2.0735
17764SOL     OW57333   0.084   9.945   8.009  0.3038 -0.4010  0.0506
17764SOL    HW157334   0.061  10.038   8.013 -1.8359 -0.9215  1.3775
17764SOL    HW257335   0.152   9.940   7.942 -3.6695  1.3566 -4.7085
17765SOL     OW57336   8.167   8.049   2.341 -0.0574  0.5159 -0.4821
17765SOL    HW157337   8.119   8.097   2.274  0.0005  0.1835 -0.7635
17765SOL    HW257338   8.099   8.010   2.396 -0.1627 -0.9520 -1.5796
17766SOL     OW57339  10.068   1.199   4.176  0.2888  0.1320  0.1264
17766SOL    HW157340  10.079   1.259   4.250  3.0200  2.3726 -1.8778
17766SOL    HW257341  10.156   1.169   4.156 -0.3615 -0.4485 -2.1524
17767SOL     OW57342   7.069   6.501   6.682 -0.3913  0.3310 -0.0018
17767SOL    HW157343   7.018   6.582   6.680  0.5112  0.9303  0.5064
17767SOL    HW257344   7.052   6.460   6.598 -0.3353  1.3854 -0.5467
17768SOL     OW57345   1.312   6.222   9.800  0.0522 -0.5027  0.0826
17768SOL    HW157346   1.281   6.269   9.877 -0.3522 -1.6651  0.6578
17768SOL    HW257347   1.407   6.217   9.810  0.0840  0.0482  0.0857
17769SOL     OW57348   1.264   7.401   6.602 -0.3969  0.1838  0.6634
17769SOL    HW157349   1.346   7.412   6.552 -0.4508  0.2944  0.5992
17769SOL    HW257350   1.205   7.467   6.565 -0.5626  0.0064  0.6089
17770SOL     OW57351   7.617   1.363   4.757 -0.4799 -0.2202 -0.1322
17770SOL    HW157352   7.695   1.328   4.714  0.9251  1.0733  1.1982
17770SOL    HW257353   7.652   1.409   4.834 -2.5438  0.6443  0.3433
17771SOL     OW57354   6.829   6.861   6.863 -0.2184  0.2334  0.8136
17771SOL    HW157355   6.806   6.920   6.791 -0.6768 -1.9733 -0.9942
17771SOL    HW257356   6.854   6.918   6.935  0.1119  2.5749 -1.0534
17772SOL     OW57357   9.086   0.859   0.947 -0.2435  0.2205  0.2994
17772SOL    HW157358   9.058   0.782   0.996  2.3111 -0.0213  1.5422
17772SOL    HW257359   9.087   0.930   1.012  1.4686  0.3080  0.2131
17773SOL     OW57360   4.164   1.527   8.077 -0.5894 -0.1673 -0.1902
17773SOL    HW157361   4.086   1.566   8.118  1.0468  2.2148  0.8780
17773SOL    HW257362   4.232   1.593   8.087  1.0908 -1.3186 -2.9232
17774SOL     OW57363   9.556   9.895   5.677 -0.1265  0.3707  0.3495
17774SOL    HW157364   9.591   9.819   5.723  1.2162  0.8976  0.2486
17774SOL    HW257365   9.527   9.862   5.593  0.3962 -0.0546  0.3311
17775SOL     OW57366   9.777   4.221   6.852  0.5282  0.0596  0.4216
17775SOL    HW157367   9.776   4.271   6.934  0.7415 -0.8043  0.9682
17775SOL    HW257368   9.744   4.134   6.877 -0.3050  0.0689 -0.6108
17776SOL     OW57369   5.498   2.816   7.442 -0.1021 -0.5387  0.3671
17776SOL    HW157370   5.431   2.787   7.380  0.9315 -1.1785 -0.4784
17776SOL    HW257371   5.539   2.735   7.473  0.3349 -0.1556  0.8125
17777SOL     OW57372   4.003   7.008   1.538  0.5959  0.1323 -0.2174
17777SOL    HW157373   3.969   7.097   1.547 -0.0803 -0.2671  1.5964
17777SOL    HW257374   4.094   7.014   1.567  0.4827  0.1851  0.1246
17778SOL     OW57375   9.297   9.619   7.460 -0.5064 -0.6820 -0.2434
17778SOL    HW157376   9.213   9.595   7.420  0.0445 -1.1026 -1.1823
17778SOL    HW257377   9.307   9.558   7.533 -0.5602 -1.2869 -0.7342
17779SOL     OW57378   8.311   7.966   3.990  0.3759 -0.2792  0.4987
17779SOL    HW157379   8.352   7.881   3.970 -1.9121 -0.9399 -2.1844
17779SOL    HW257380   8.357   7.998   4.067  2.9307 -2.8559  0.2128
17780SOL     OW57381   0.357   6.900   5.692  0.0029 -0.0507  0.3800
17780SOL    HW157382   0.415   6.974   5.674 -0.7875  0.6612  0.7146
17780SOL    HW257383   0.369   6.882   5.785  0.6324 -0.7481  0.1811
17781SOL     OW57384  10.146   6.842   6.247 -0.4120  0.0503 -0.0043
17781SOL    HW157385  10.075   6.900   6.275 -0.9584  0.6379 -2.3937
17781SOL    HW257386  10.102   6.765   6.211  0.1683  0.0358 -0.7082
17782SOL     OW57387   1.850   8.898   5.221  0.1453 -0.1430  0.2784
17782SOL    HW157388   1.923   8.868   5.166  0.7574 -0.1763  1.0728
17782SOL    HW257389   1.783   8.927   5.160  1.9919  2.8273 -0.5716
17783SOL     OW57390   8.998   2.012   7.010 -0.1496 -0.2032  0.0710
17783SOL    HW157391   8.919   1.960   6.997  0.5256 -0.6830 -2.6970
17783SOL    HW257392   9.021   2.044   6.923  1.5563  1.6800  1.1123
17784SOL     OW57393   6.899   0.705   1.822 -0.1153  0.4268 -0.0475
17784SOL    HW157394   6.966   0.637   1.824 -0.6990 -0.3200 -2.8271
17784SOL    HW257395   6.948   0.787   1.826  0.6380 -0.0353  2.4866
17785SOL     OW57396   4.125   6.087   4.478 -0.3599 -0.1346  0.0093
17785SOL    HW157397   4.097   6.088   4.386 -1.3504 -1.6640  0.2515
17785SOL    HW257398   4.211   6.046   4.476  0.9040  2.3370 -0.4779
17786SOL     OW57399   0.554   6.178   9.630  0.2828 -0.1132  0.0931
17786SOL    HW157400   0.522   6.229   9.556 -3.4713 -0.9215  0.9225
17786SOL    HW257401   0.572   6.243   9.698 -0.5032  0.3900 -0.1658
17787SOL     OW57402   9.703   1.060   6.377  0.2688 -0.1094 -0.4596
17787SOL    HW157403   9.750   0.977   6.373 -0.5839 -0.6654  0.6878
17787SOL    HW257404   9.771   1.125   6.396  0.5105 -1.0354  2.2936
17788SOL     OW57405   3.018   2.158   8.737  0.5137 -0.2910 -0.1996
17788SOL    HW157406   3.038   2.214   8.811 -0.1474 -0.5353  0.1762
17788SOL    HW257407   2.986   2.076   8.776 -0.9542 -0.0119 -0.7261
17789SOL     OW57408   3.912   4.393   1.961  0.3732  0.1357 -0.4875
17789SOL    HW157409   3.893   4.312   1.913 -1.1175  0.3036 -0.2283
17789SOL    HW257410   3.972   4.441   1.904 -1.1900  0.2339 -2.1371
17790SOL     OW57411   8.362   5.534   2.144  0.2700 -0.6122  0.1737
17790SOL    HW157412   8.349   5.546   2.050  0.5600 -0.3393  0.1666
17790SOL    HW257413   8.395   5.619   2.174 -0.7453 -0.3852  0.6835
17791SOL     OW57414   0.733   2.157   1.402  0.3758 -0.4046  0.5651
17791SOL    HW157415   0.685   2.145   1.320 -1.7561 -1.1056  1.8248
17791SOL    HW257416   0.686   2.228   1.446  1.1725 -0.3774  1.3927
17792SOL     OW57417   8.129   3.491   8.329 -0.1411  0.1035 -0.4662
17792SOL    HW157418   8.191   3.447   8.272  0.1885  1.2689 -1.0505
17792SOL    HW257419   8.118   3.433   8.404  2.3627  0.2567  0.0857
17793SOL     OW57420   7.526   2.873   4.112 -0.1367 -0.6188  0.0848
17793SOL    HW157421   7.539   2.967   4.128  0.4257 -0.9336  1.6375
17793SOL    HW257422   7.501   2.868   4.020 -1.8945  1.2291  0.3808
17794SOL     OW57423   5.221   5.416   5.236  0.1159  0.1140 -0.7027
17794SOL    HW157424   5.242   5.509   5.230  1.4933 -0.1270  0.0226
17794SOL    HW257425   5.248   5.379   5.152  3.4668 -0.3094  0.4278
17795SOL     OW57426   1.765   9.578   2.713  0.1297 -0.1336  0.3203
17795SOL    HW157427   1.818   9.606   2.639 -0.8058 -1.9963 -1.1430
17795SOL    HW257428   1.818   9.512   2.758 -0.1364 -0.5582  0.0226
17796SOL     OW57429   8.881   0.290   4.683  0.2073 -0.0166 -0.3019
17796SOL    HW157430   8.790   0.275   4.656 -0.0009  1.5650 -0.5465
17796SOL    HW257431   8.918   0.344   4.615  0.8221  0.7953  0.6512
17797SOL     OW57432   5.738   2.901   0.541 -0.0046  0.3559  0.1592
17797SOL    HW157433   5.800   2.938   0.479  0.3397  0.0065  0.2909
17797SOL    HW257434   5.725   2.811   0.512 -1.6736  0.8634 -0.8013
17798SOL     OW57435   3.386   5.674   0.075 -0.5299  0.8652  0.2985
17798SOL    HW157436   3.335   5.753   0.058 -0.1595  0.7550 -1.5170
17798SOL    HW257437   3.330   5.602   0.047 -1.3213  0.3146  2.9720
17799SOL     OW57438   2.847   9.970   8.583  0.2569 -0.1550 -0.4154
17799SOL    HW157439   2.916   9.954   8.518  0.3361 -0.0616 -0.3543
17799SOL    HW257440   2.785   9.899   8.570 -0.0073  0.1668 -0.9667
17800SOL     OW57441   0.662   9.544   9.543  0.3589 -0.2013  0.1489
17800SOL    HW157442   0.647   9.620   9.487  1.4466  0.9489  1.3244
17800SOL    HW257443   0.725   9.575   9.608 -0.4192 -1.6298  1.6665
17801SOL     OW57444   8.867   0.998   2.488 -0.1758  0.6002  0.1319
17801SOL    HW157445   8.871   0.941   2.411 -2.4615  1.3602 -0.6350
17801SOL    HW257446   8.951   1.043   2.490  0.9254 -1.3163 -0.3786
17802SOL     OW57447   9.005   3.270   6.721 -0.1386 -0.1560  0.3245
17802SOL    HW157448   8.999   3.334   6.792  1.5293 -1.4443  1.7181
17802SOL    HW257449   9.095   3.239   6.724 -0.6505 -1.9371 -0.8557
17803SOL     OW57450   5.263   6.263  10.293 -0.0901 -0.0422  0.2546
17803SOL    HW157451   5.241   6.308  10.375  1.4821 -0.0168  0.6823
17803SOL    HW257452   5.351   6.293  10.272 -0.4326 -0.1231 -1.4124
17804SOL     OW57453   8.103   7.960   5.234 -0.2003  0.3470 -0.1232
17804SOL    HW157454   8.042   7.886   5.229  0.7388 -0.4535 -0.0300
17804SOL    HW257455   8.189   7.919   5.240  0.3930  1.4625 -0.8443
17805SOL     OW57456   3.027   6.519   4.010 -0.5078 -0.4186 -0.1528
17805SOL    HW157457   3.055   6.579   4.079  0.4005 -0.8021 -0.1722
17805SOL    HW257458   3.031   6.572   3.930  0.0524 -0.4312 -0.1359
17806SOL     OW57459   9.230   5.651   8.783 -0.8938 -0.0886 -0.0575
17806SOL    HW157460   9.177   5.667   8.861 -0.1082 -0.3064  0.5305
17806SOL    HW257461   9.240   5.556   8.779 -1.3846 -0.1215 -0.7411
17807SOL     OW57462   0.689   6.717   5.825 -0.2513 -0.0396 -0.0904
17807SOL    HW157463   0.663   6.752   5.910  1.1079  3.0990 -0.8247
17807SOL    HW257464   0.773   6.759   5.807 -0.0429 -1.3456 -2.5763
17808SOL     OW57465   5.107   3.241   3.411  0.2082  0.2027 -0.5297
17808SOL    HW157466   5.062   3.166   3.451  0.4018  0.4086  0.0913
17808SOL    HW257467   5.040   3.308   3.404  0.5847  0.8266  1.2365
17809SOL     OW57468   7.864   8.456   2.237 -0.1817 -0.8506  0.1411
17809SOL    HW157469   7.804   8.382   2.238  0.0933 -1.0740  0.8971
17809SOL    HW257470   7.897   8.462   2.327 -0.5789  0.4943  0.2244
17810SOL     OW57471   3.012   4.543   6.353  0.1749 -0.0151 -0.1094
17810SOL    HW157472   3.011   4.619   6.411  0.1945 -0.3895  0.3901
17810SOL    HW257473   2.941   4.487   6.386  1.2916 -1.0279  0.6484
17811SOL     OW57474   6.139   7.922   6.708  0.7093  0.1835  0.1967
17811SOL    HW157475   6.055   7.932   6.755  1.3399  0.3666  1.3274
17811SOL    HW257476   6.204   7.959   6.768  1.4401  1.3969 -1.2832
17812SOL     OW57477   0.997  10.243   3.486  0.1810 -0.2675 -0.1198
17812SOL    HW157478   1.050  10.241   3.406 -0.8823 -1.2475 -0.8302
17812SOL    HW257479   1.046  10.190   3.548  0.6302 -0.1443 -0.3621
17813SOL     OW57480   6.362   6.567   2.502  0.1053 -0.8403 -0.2085
17813SOL    HW157481   6.352   6.481   2.543 -0.8971 -0.2485  0.8557
17813SOL    HW257482   6.353   6.630   2.574  0.2621  0.1730 -1.0422
17814SOL     OW57483   9.499   8.006   3.911 -0.1642 -0.1318 -0.4571
17814SOL    HW157484   9.464   8.025   3.824 -0.4261  0.3361 -0.2536
17814SOL    HW257485   9.424   8.012   3.969  0.1419  0.2992 -0.0965
17815SOL     OW57486   2.736   8.739   8.565 -0.5083  0.4770 -0.3676
17815SOL    HW157487   2.799   8.764   8.633 -0.3845  0.1472 -0.3575
17815SOL    HW257488   2.681   8.816   8.554  0.6750  1.2368 -1.2662
17816SOL     OW57489   1.963   4.905   2.951 -0.2545 -0.7916 -0.0066
17816SOL    HW157490   1.914   4.921   2.870 -1.0808 -2.9124  0.0067
17816SOL    HW257491   1.935   4.818   2.979  0.8819 -0.5869  1.9611
17817SOL     OW57492   1.380   5.556   8.942  0.2623  0.2826 -0.1127
17817SOL    HW157493   1.446   5.621   8.968 -1.2834  2.1385 -0.5885
17817SOL    HW257494   1.332   5.537   9.022 -0.7368  1.5310 -0.3731
17818SOL     OW57495   7.340   4.373   1.495 -0.9600 -0.7848  0.0055
17818SOL    HW157496   7.299   4.301   1.447 -0.5252 -0.2458 -1.2124
17818SOL    HW257497   7.269   4.436   1.510 -1.1057 -0.9768  0.1357
17819SOL     OW57498   2.891   4.695   4.667 -0.1860 -0.6486 -0.0084
17819SOL    HW157499   2.895   4.763   4.600  1.4438  0.6487  1.3100
17819SOL    HW257500   2.845   4.736   4.740  1.8225 -0.4770  1.2364
17820SOL     OW57501   9.684   2.462   8.998 -0.1319  0.1528  0.2569
17820SOL    HW157502   9.684   2.436   9.090 -0.8676 -0.2300  0.1512
17820SOL    HW257503   9.602   2.510   8.987 -0.1818 -0.0552 -0.2758
17821SOL     OW57504   9.310   2.467   7.886  0.0082  0.1832 -0.2349
17821SOL    HW157505   9.381   2.528   7.866  0.5346  0.0975  1.2220
17821SOL    HW257506   9.247   2.479   7.815  0.3848  1.9772 -0.3152
17822SOL     OW57507   8.540   0.139   7.464 -0.0474 -0.6589  0.0626
17822SOL    HW157508   8.523   0.066   7.525  0.3915  0.8920  2.1468
17822SOL    HW257509   8.453   0.173   7.444 -0.2290 -1.4908 -0.6101
17823SOL     OW57510   4.334   1.574   1.886 -0.1480  0.6358 -0.5366
17823SOL    HW157511   4.404   1.528   1.932 -1.7786 -2.1149 -0.5694
17823SOL    HW257512   4.362   1.666   1.885  1.9883  0.1461  2.0773
17824SOL     OW57513   2.554   0.104   9.476 -0.2877 -0.3978  0.0774
17824SOL    HW157514   2.517   0.038   9.535 -1.6075 -0.2806 -0.6029
17824SOL    HW257515   2.612   0.054   9.419 -1.6136 -1.0768 -0.7201
17825SOL     OW57516   9.940   7.400   6.659  0.2510 -0.1269  0.8872
17825SOL    HW157517   9.944   7.305   6.658 -0.5352 -0.1659  0.4483
17825SOL    HW257518   9.847   7.421   6.667  0.4064  0.6010  0.9237
17826SOL     OW57519   4.197   6.702   2.935  1.0181  0.7353 -0.1582
17826SOL    HW157520   4.170   6.615   2.905 -0.4491 -0.3296  3.6597
17826SOL    HW257521   4.292   6.697   2.941  1.1605  0.2430 -2.1204
17827SOL     OW57522   8.745   6.437   3.700 -0.4529  0.1119 -0.0747
17827SOL    HW157523   8.762   6.419   3.792  1.9321  0.4615 -0.3833
17827SOL    HW257524   8.766   6.355   3.655 -2.1833 -0.2494 -0.3002
17828SOL     OW57525   6.898   6.999   8.070 -0.3274  0.1186 -0.6875
17828SOL    HW157526   6.829   7.029   8.011 -1.2906  0.8677  0.7597
17828SOL    HW257527   6.858   6.929   8.121 -0.4897  1.4157  1.0601
17829SOL     OW57528  10.073   8.836   3.296  0.0745  0.1575  0.1366
17829SOL    HW157529  10.100   8.789   3.375 -0.3849 -1.2413 -0.4915
17829SOL    HW257530  10.037   8.918   3.328 -1.1291 -0.8381  1.5134
17830SOL     OW57531   3.413   0.860   7.149  0.0772 -0.4486  0.2594
17830SOL    HW157532   3.433   0.905   7.231  0.4479  1.1478 -0.6485
17830SOL    HW257533   3.388   0.771   7.175 -0.2723  0.1443  2.1211
17831SOL     OW57534   8.026   2.557   7.843  0.2571  0.0362  0.5844
17831SOL    HW157535   7.997   2.599   7.924  0.3041  0.8445  0.1905
17831SOL    HW257536   8.058   2.629   7.789 -1.4694 -0.2329 -0.8990
17832SOL     OW57537   6.117   4.951   6.624  0.4859 -0.2628  0.3244
17832SOL    HW157538   6.084   4.868   6.590  0.2123 -0.5241  1.2174
17832SOL    HW257539   6.210   4.951   6.601  0.9035 -1.6318  1.8715
17833SOL     OW57540   1.955   1.589   0.969 -0.6480  0.3250  0.8738
17833SOL    HW157541   1.966   1.539   1.050  2.0230 -1.5572 -0.4685
17833SOL    HW257542   2.004   1.670   0.984  1.6380 -0.9220  0.5327
17834SOL     OW57543   9.920   6.920   3.445 -0.0625 -0.0835  0.3618
17834SOL    HW157544   9.917   6.824   3.446 -1.4323 -0.0498  1.5427
17834SOL    HW257545   9.997   6.940   3.391 -1.5227 -1.7904 -2.6627
17835SOL     OW57546   6.652   2.279   8.672  0.3953  0.1306 -0.7318
17835SOL    HW157547   6.716   2.295   8.741  0.0066  2.5532 -0.8389
17835SOL    HW257548   6.682   2.331   8.598 -0.8012  0.0191 -1.3266
17836SOL     OW57549   3.907   2.350   2.338  0.1449 -0.2048  0.1047
17836SOL    HW157550   3.940   2.302   2.414  0.4390  1.3575  1.0086
17836SOL    HW257551   3.860   2.284   2.287  0.3021 -1.3874  1.4169
17837SOL     OW57552   9.754   6.569   7.407  0.0140 -0.5086 -0.3369
17837SOL    HW157553   9.792   6.490   7.370 -0.9072  0.0993 -2.7496
17837SOL    HW257554   9.659   6.557   7.399 -0.1466  0.9411 -1.1258
17838SOL     OW57555   4.524   2.299   7.592 -0.2918  0.2024 -0.1394
17838SOL    HW157556   4.596   2.258   7.544 -0.6955  0.5557 -1.0708
17838SOL    HW257557   4.517   2.248   7.673 -1.1404 -1.9693 -1.4788
17839SOL     OW57558   0.881   6.283   3.009 -0.5252  0.4197  0.1302
17839SOL    HW157559   0.964   6.328   3.024 -1.2033  2.2181 -1.1433
17839SOL    HW257560   0.852   6.314   2.923 -1.7385 -1.4255 -0.1875
17840SOL     OW57561   7.444   3.994   6.170  0.6326  0.4390 -0.1492
17840SOL    HW157562   7.503   3.918   6.175 -0.5706 -0.5790 -0.7523
17840SOL    HW257563   7.499   4.069   6.191  2.0739 -0.5112 -0.4033
17841SOL     OW57564   3.438   7.960  10.212 -0.3978 -0.6200 -0.5130
17841SOL    HW157565   3.373   7.889  10.209 -0.6240 -0.4644  0.5042
17841SOL    HW257566   3.389   8.038  10.186 -0.9124 -0.3079  1.2740
17842SOL     OW57567   4.643   6.314   3.544  0.4899 -0.4954  0.1223
17842SOL    HW157568   4.674   6.368   3.471 -0.0522  2.6671  2.0562
17842SOL    HW257569   4.548   6.321   3.540  0.3897 -1.6144  0.2419
17843SOL     OW57570   1.993   7.292   6.434 -0.5777  0.2594 -0.0610
17843SOL    HW157571   2.011   7.386   6.444 -0.2522  0.0010  2.1814
17843SOL    HW257572   2.023   7.253   6.516  0.1324 -1.9514 -1.3047
17844SOL     OW57573   2.096   5.169   3.642  0.0412 -0.1105  0.0502
17844SOL    HW157574   2.143   5.252   3.629 -0.5423  0.0518 -1.1461
17844SOL    HW257575   2.142   5.127   3.715  1.6886  0.2949 -0.7058
17845SOL     OW57576  10.057   6.864   2.294  0.2132 -0.4433 -0.5427
17845SOL    HW157577  10.077   6.799   2.361 -0.8102  0.1303  0.3505
17845SOL    HW257578  10.048   6.814   2.213  0.0047 -1.3324  0.0232
17846SOL     OW57579   7.669   9.768   9.885  0.0777 -0.0246  0.1436
17846SOL    HW157580   7.702   9.763   9.795  1.9574  1.2974  0.6958
17846SOL    HW257581   7.737   9.727   9.938 -1.1448 -1.0586  0.9670
17847SOL     OW57582   2.237   3.164   0.774  0.1525  0.4049 -0.1381
17847SOL    HW157583   2.174   3.196   0.838 -0.7827  0.2892 -0.9827
17847SOL    HW257584   2.206   3.198   0.690  0.2033 -1.1197 -0.8063
17848SOL     OW57585   0.635   6.546   6.953  0.0717  0.2998  0.3450
17848SOL    HW157586   0.539   6.546   6.957  0.0185 -1.2843 -0.3847
17848SOL    HW257587   0.655   6.563   6.861  0.4662 -0.1542  0.3429
17849SOL     OW57588   0.469   6.302   5.697  0.0878 -0.4225  0.0449
17849SOL    HW157589   0.416   6.369   5.654  0.4414  0.7715  1.3920
17849SOL    HW257590   0.542   6.350   5.736 -0.5982 -1.3100  2.6012
17850SOL     OW57591   8.518   3.132   6.922 -0.0485 -0.3893  0.4406
17850SOL    HW157592   8.597   3.186   6.927  0.7239 -1.5188  0.6503
17850SOL    HW257593   8.471   3.153   7.003  0.0057  0.3122  0.3013
17851SOL     OW57594   7.409   3.737   7.503 -0.3590  0.4339  0.2532
17851SOL    HW157595   7.458   3.741   7.585  1.2168  0.1558 -0.6278
17851SOL    HW257596   7.325   3.699   7.527 -0.4325  1.5624  1.9434
17852SOL     OW57597   9.280   5.940   4.573  0.0850 -0.4163  0.2595
17852SOL    HW157598   9.319   5.891   4.501  1.1418  0.8191 -0.0494
17852SOL    HW257599   9.289   5.883   4.649  0.4042 -1.0834 -0.2694
17853SOL     OW57600   8.957   8.059   9.326  0.2872 -0.4487  0.3162
17853SOL    HW157601   9.019   8.128   9.351 -0.8955  0.1894  1.6580
17853SOL    HW257602   9.011   7.981   9.312  1.6055  0.6091 -0.7922
17854SOL     OW57603   2.839   0.462   1.007 -0.4421  0.1925  0.4642
17854SOL    HW157604   2.837   0.449   1.102  0.7481  0.0342  0.4763
17854SOL    HW257605   2.863   0.554   0.997  0.4540 -0.0502  0.3191
17855SOL     OW57606   9.662   8.882   8.696  0.5330  0.3368  0.2525
17855SOL    HW157607   9.593   8.816   8.700  0.7262  0.1452  0.4620
17855SOL    HW257608   9.618   8.961   8.665  0.4955 -0.1535 -0.9731
17856SOL     OW57609   9.441  10.194   7.206  0.1340  0.6385  0.4113
17856SOL    HW157610   9.489  10.189   7.288  1.4763 -0.1492 -0.3647
17856SOL    HW257611   9.495  10.144   7.144 -1.9811 -0.7795 -0.4037
17857SOL     OW57612   7.471   9.020   1.136  0.3434  0.0861 -0.8538
17857SOL    HW157613   7.537   8.954   1.155  0.5400  0.7293  0.8869
17857SOL    HW257614   7.512   9.103   1.159 -0.3432  0.7181 -1.7959
17858SOL     OW57615   1.594   2.670   4.252 -0.1804  0.3707 -0.3396
17858SOL    HW157616   1.678   2.625   4.253 -0.0475  0.5678 -1.3478
17858SOL    HW257617   1.534   2.611   4.298  0.0184 -0.8073 -1.5244
17859SOL     OW57618   8.459   0.403   7.581  0.0044  0.6437 -0.7228
17859SOL    HW157619   8.410   0.383   7.661  0.5427  1.7333 -0.1069
17859SOL    HW257620   8.531   0.340   7.580 -0.2616  0.3343 -0.5977
17860SOL     OW57621   4.611   8.732   8.919 -0.3078 -0.3947  0.3702
17860SOL    HW157622   4.624   8.719   9.013  0.0345 -1.8091  0.1553
17860SOL    HW257623   4.647   8.653   8.879  0.1107  0.4642 -1.0036
17861SOL     OW57624   8.584   2.537   4.617 -0.2662  0.5853  0.3301
17861SOL    HW157625   8.659   2.579   4.575 -1.1797 -1.1148 -3.4789
17861SOL    HW257626   8.533   2.609   4.653  0.6404  2.3167 -1.6065
17862SOL     OW57627   8.693   2.338   4.761  0.5942  0.6326  0.0159
17862SOL    HW157628   8.647   2.406   4.711  1.2167  0.3845 -0.9286
17862SOL    HW257629   8.651   2.338   4.846 -2.1429 -0.5021 -1.2014
17863SOL     OW57630   9.265   1.915   1.584  0.0914  0.0668 -0.5479
17863SOL    HW157631   9.215   1.935   1.505  0.8712  3.0803 -0.3765
17863SOL    HW257632   9.204   1.932   1.656  0.5017  1.0473 -0.4210
17864SOL     OW57633   7.095   3.492   7.924 -0.1368 -0.0345 -0.0462
17864SOL    HW157634   7.040   3.524   7.996 -0.1999 -0.7565  0.2338
17864SOL    HW257635   7.036   3.438   7.871 -0.0667  0.4176 -0.5946
17865SOL     OW57636   1.692   2.978   9.319 -0.0732 -0.2848  0.7838
17865SOL    HW157637   1.774   2.929   9.319  0.8161  1.1442  1.2878
17865SOL    HW257638   1.659   2.969   9.230  1.1085 -0.1504  0.3074
17866SOL     OW57639   7.411   0.320   7.798 -0.2548  0.1868 -0.1379
17866SOL    HW157640   7.496   0.324   7.841 -0.8155 -1.1435  1.1823
17866SOL    HW257641   7.350   0.293   7.867 -1.9131  1.8657 -0.8491
17867SOL     OW57642   2.269   9.105   8.398 -0.0676  0.3271  0.3796
17867SOL    HW157643   2.334   9.145   8.455 -1.0177  0.3102  1.4854
17867SOL    HW257644   2.321   9.052   8.336  0.9834  0.6266  0.9922
17868SOL     OW57645   2.320   2.723   5.806 -0.0237  0.5056  0.3587
17868SOL    HW157646   2.380   2.672   5.861  0.0371  2.2415  2.0091
17868SOL    HW257647   2.368   2.735   5.724  0.2993 -1.2930  0.2416
17869SOL     OW57648   0.724   4.440   2.932 -0.5743 -0.3510 -0.1668
17869SOL    HW157649   0.679   4.512   2.976  0.5058 -0.4984  1.2323
17869SOL    HW257650   0.770   4.482   2.859 -3.9192 -0.3596 -2.5444
17870SOL     OW57651   0.857   8.046   3.558  0.1912  0.3180  0.1468
17870SOL    HW157652   0.912   7.998   3.619 -0.3991 -0.0718  0.3803
17870SOL    HW257653   0.917   8.108   3.516  0.8070 -0.1047  0.3807
17871SOL     OW57654   7.667   0.616   9.692 -0.0381  0.5688  0.1025
17871SOL    HW157655   7.593   0.630   9.750  0.7052 -0.2500  1.2874
17871SOL    HW257656   7.699   0.704   9.673 -1.1884  0.9212 -0.2950
17872SOL     OW57657   9.506   5.114   3.253  0.2812  0.8422  0.1210
17872SOL    HW157658   9.511   5.107   3.348  0.0995  0.6855  0.1204
17872SOL    HW257659   9.586   5.073   3.221  1.4094  2.8252  0.2724
17873SOL     OW57660   7.141   9.622  10.080  0.3255  0.4179  0.2363
17873SOL    HW157661   7.191   9.660  10.152  0.7404 -0.8518  0.6495
17873SOL    HW257662   7.050   9.622  10.112  0.2480  1.4498  0.0430
17874SOL     OW57663   3.083   1.529   1.396  0.3044 -0.1042  0.1610
17874SOL    HW157664   2.994   1.555   1.372 -0.7841 -2.2443  1.5369
17874SOL    HW257665   3.094   1.564   1.484  1.2285  0.9709 -0.3652
17875SOL     OW57666  10.233   7.769   3.745  0.3577  0.5000  0.4850
17875SOL    HW157667  10.231   7.830   3.819  2.4659  2.0066 -0.5794
17875SOL    HW257668  10.326   7.747   3.735 -0.0963 -1.0720 -0.6260
17876SOL     OW57669   5.523   5.340   7.985 -0.6862 -0.1511  0.4683
17876SOL    HW157670   5.454   5.281   7.955  0.9502 -2.2894  0.6729
17876SOL    HW257671   5.518   5.338   8.081 -0.1620 -0.5689  0.4929
17877SOL     OW57672   6.539   2.953   7.134 -0.3530 -0.5903  0.1900
17877SOL    HW157673   6.497   2.931   7.051 -0.8163 -0.3152  0.3421
17877SOL    HW257674   6.479   2.918   7.201 -0.7747  0.5222  0.4241
17878SOL     OW57675  10.080  10.259   7.292  0.5525 -0.5807  0.1143
17878SOL    HW157676  10.048  10.285   7.205  1.1253  0.7449  0.2721
17878SOL    HW257677  10.139  10.186   7.275  1.8800  0.6613 -0.7994
17879SOL     OW57678   8.571   6.654   5.123 -0.4235 -0.4906  0.3567
17879SOL    HW157679   8.599   6.726   5.178  0.6269 -3.0301  3.4604
17879SOL    HW257680   8.652   6.618   5.087 -0.8779 -0.5246 -0.6622
17880SOL     OW57681   0.051   5.633   0.378 -0.5300  0.5428  0.3618
17880SOL    HW157682   0.144   5.653   0.383 -0.7990  1.8968  0.4078
17880SOL    HW257683   0.046   5.552   0.328  0.6833  0.2901  0.6233
17881SOL     OW57684   3.655   0.385   0.228  0.1379  0.1104 -0.1835
17881SOL    HW157685   3.608   0.463   0.257 -0.7198 -0.2640 -0.5577
17881SOL    HW257686   3.637   0.380   0.134  2.0534  0.7371 -0.6416
17882SOL     OW57687   3.266   0.495   1.273 -0.0992 -0.1232 -0.5999
17882SOL    HW157688   3.271   0.574   1.328 -2.4180  1.0501 -1.9180
17882SOL    HW257689   3.216   0.433   1.326 -0.6571  0.3178 -0.5861
17883SOL     OW57690   8.269   0.336   7.185  0.5663 -0.1420  0.3026
17883SOL    HW157691   8.263   0.264   7.247 -1.1567 -0.4959 -0.2339
17883SOL    HW257692   8.326   0.302   7.116  0.4073 -0.7096  0.4396
17884SOL     OW57693   9.311  10.055   4.074  0.4774  0.3425  0.0330
17884SOL    HW157694   9.396  10.012   4.079  0.2064 -0.0866  1.1166
17884SOL    HW257695   9.299  10.073   3.980  0.6735 -1.7794 -0.4408
17885SOL     OW57696   0.680   7.814   1.849  0.3799  0.1683 -0.0124
17885SOL    HW157697   0.757   7.847   1.802  0.4445  0.0717  0.0249
17885SOL    HW257698   0.622   7.783   1.780 -0.8476  2.7594 -0.2523
17886SOL     OW57699   5.520  10.208   7.027 -0.3025 -0.4086 -0.2222
17886SOL    HW157700   5.480  10.292   7.005  0.0906  0.1120  0.9662
17886SOL    HW257701   5.475  10.180   7.106  2.1875  0.6399  1.7081
17887SOL     OW57702   8.460   0.153   4.367 -0.1718 -0.1476  0.0630
17887SOL    HW157703   8.453   0.230   4.311 -0.5285  0.7089  1.2415
17887SOL    HW257704   8.406   0.174   4.444 -1.1653 -2.0119 -0.0607
17888SOL     OW57705   6.256   8.873   1.138 -0.0574 -0.2227  0.0414
17888SOL    HW157706   6.339   8.833   1.164 -0.4307 -1.2987 -0.3888
17888SOL    HW257707   6.210   8.805   1.089 -2.0502 -0.3575  1.9029
17889SOL     OW57708   7.747   5.299   5.596 -0.1085 -0.0459 -0.0241
17889SOL    HW157709   7.759   5.394   5.601 -0.0047  0.1607 -2.6994
17889SOL    HW257710   7.822   5.268   5.546 -2.0569 -0.9272 -2.6551
17890SOL     OW57711   2.249   9.523   3.871 -0.7629 -0.2285 -0.0177
17890SOL    HW157712   2.258   9.512   3.965 -1.6634 -0.2741  0.0792
17890SOL    HW257713   2.196   9.448   3.843 -1.7504  0.5450 -0.3097
17891SOL     OW57714   0.537   2.334   6.786  0.1953  0.2155 -0.6499
17891SOL    HW157715   0.608   2.271   6.784  0.5480  0.6291 -1.3484
17891SOL    HW257716   0.504   2.330   6.876  2.0645  1.0791  0.1253
17892SOL     OW57717   7.741   9.319   0.142  0.4986 -0.4696 -0.2524
17892SOL    HW157718   7.816   9.377   0.157  0.5616 -0.0838 -1.8526
17892SOL    HW257719   7.778   9.231   0.143  0.7385 -0.3650  0.2753
17893SOL     OW57720   1.364   6.291   2.089 -0.6842  0.2695 -0.1733
17893SOL    HW157721   1.421   6.299   2.165 -1.8257 -1.6659  0.9634
17893SOL    HW257722   1.422   6.306   2.014  0.4928  2.0933  1.0209
17894SOL     OW57723   8.683   6.917   7.922  0.1916  0.1006  0.0395
17894SOL    HW157724   8.719   6.999   7.888 -0.5363 -0.3375 -1.8656
17894SOL    HW257725   8.638   6.943   8.003  1.0930  1.3382  0.1833
17895SOL     OW57726   1.672   1.280   6.103 -0.0127 -0.2979 -0.5758
17895SOL    HW157727   1.699   1.366   6.073 -0.7772 -0.3073 -1.3523
17895SOL    HW257728   1.605   1.297   6.169  0.1886 -0.2974 -0.3699
17896SOL     OW57729   4.813   2.312   0.935  1.0412  0.1069 -0.2852
17896SOL    HW157730   4.887   2.326   0.994 -0.4894  0.6289  1.6179
17896SOL    HW257731   4.746   2.273   0.990  0.3934 -1.8434 -2.3272
17897SOL     OW57732   3.575   7.743   5.177 -0.4718  0.9901 -0.1958
17897SOL    HW157733   3.618   7.686   5.114  1.2274 -0.5345  2.1666
17897SOL    HW257734   3.636   7.747   5.252 -2.7405  1.9148  1.7414
17898SOL     OW57735   7.970   6.306   5.641 -0.3553  0.5598  0.3513
17898SOL    HW157736   7.879   6.322   5.664 -0.0344  2.1885  0.6039
17898SOL    HW257737   8.013   6.285   5.724 -0.3399  0.6042  0.3547
17899SOL     OW57738   8.220   5.957   9.852 -0.0194  0.4220 -0.3491
17899SOL    HW157739   8.217   5.929   9.760 -2.1547  0.3368 -0.3067
17899SOL    HW257740   8.232   5.876   9.902 -0.6908  0.2291 -0.4875
17900SOL     OW57741   9.041   9.549   9.573 -0.2885  0.0163  0.2704
17900SOL    HW157742   8.960   9.499   9.585  0.2916 -1.0564 -0.1825
17900SOL    HW257743   9.055   9.549   9.478  0.0991  0.4432  0.3261
17901SOL     OW57744   3.993   4.154  10.211  0.2061 -0.9763 -0.0556
17901SOL    HW157745   4.015   4.108  10.130  2.1373 -0.7162  0.2752
17901SOL    HW257746   3.953   4.087  10.266  0.9409 -1.7210 -0.4050
17902SOL     OW57747   3.250   8.193   8.889 -0.8704 -0.2501 -0.5491
17902SOL    HW157748   3.301   8.245   8.951 -3.4523  0.6308  0.9844
17902SOL    HW257749   3.281   8.103   8.903  2.0817  0.4764 -1.6585
17903SOL     OW57750   6.522   8.246   4.324  0.4965 -0.0486  0.2403
17903SOL    HW157751   6.462   8.321   4.326 -0.0338 -0.4769  0.3014
17903SOL    HW257752   6.603   8.281   4.362  0.1671  0.4216  0.5350
17904SOL     OW57753   8.753   3.947   4.422 -0.1241  0.8399 -0.4958
17904SOL    HW157754   8.753   4.003   4.500  0.8929  2.3561 -1.5421
17904SOL    HW257755   8.706   3.998   4.356  1.4304  0.8104 -1.6781
17905SOL     OW57756   4.821   3.097   4.123 -0.0497  0.5381  0.0120
17905SOL    HW157757   4.807   3.186   4.090  1.4443  0.6803 -0.2842
17905SOL    HW257758   4.898   3.104   4.178  0.3902 -0.6722 -0.4304
17906SOL     OW57759   6.537   4.174   5.985 -0.4965 -0.1327 -0.0473
17906SOL    HW157760   6.469   4.215   5.932  1.0770  0.1483 -1.9760
17906SOL    HW257761   6.607   4.239   5.989 -0.4478 -0.2395  2.2442
17907SOL     OW57762   0.800   2.372   7.956 -0.1536  0.0235  0.0071
17907SOL    HW157763   0.716   2.327   7.945 -1.0459  1.2269  1.5164
17907SOL    HW257764   0.865   2.310   7.922 -1.5813 -1.2195 -0.5583
17908SOL     OW57765   4.400   9.798   7.633 -0.5407 -0.1407 -0.6870
17908SOL    HW157766   4.414   9.772   7.724 -0.6568  1.8839 -0.0515
17908SOL    HW257767   4.487   9.820   7.600 -0.8366  2.4653  0.0643
17909SOL     OW57768   6.744   2.177   7.719 -0.1553  0.3763  0.2841
17909SOL    HW157769   6.829   2.147   7.752 -0.0856  1.1045  0.7860
17909SOL    HW257770   6.684   2.105   7.740  0.3638 -0.2066 -0.2120
17910SOL     OW57771   6.756   6.142   6.616 -0.0601 -0.3532 -0.0016
17910SOL    HW157772   6.732   6.051   6.595  1.9018 -0.7352 -0.8301
17910SOL    HW257773   6.848   6.137   6.641  0.1802  1.4511 -0.4013
17911SOL     OW57774   3.733   1.045   3.591 -0.0844 -0.4777 -0.0901
17911SOL    HW157775   3.697   0.960   3.614  1.5023 -1.0490  0.4118
17911SOL    HW257776   3.792   1.028   3.518 -0.9340  0.4632 -1.0348
17912SOL     OW57777   5.258   5.193   8.586  0.3478  0.7516  0.0267
17912SOL    HW157778   5.259   5.115   8.642  1.4196  0.4724 -0.3385
17912SOL    HW257779   5.246   5.158   8.498  0.0602  1.0721 -0.0605
17913SOL     OW57780   8.422   2.266   9.520  0.1844  0.1190 -0.5969
17913SOL    HW157781   8.499   2.220   9.487 -0.3263  0.4674 -2.3761
17913SOL    HW257782   8.375   2.293   9.442 -1.2949  0.6993  0.4486
17914SOL     OW57783   9.135   6.674   7.565 -0.1132 -0.5876  0.2846
17914SOL    HW157784   9.175   6.758   7.587  0.1711 -0.6634  0.0611
17914SOL    HW257785   9.193   6.609   7.605  0.7119 -0.7541 -1.1088
17915SOL     OW57786   2.555   5.948   2.960  0.2334  0.3042  0.0125
17915SOL    HW157787   2.487   5.951   2.893 -0.0232 -0.6259  0.2079
17915SOL    HW257788   2.515   5.900   3.032  0.1940  2.0374  1.2140
17916SOL     OW57789   7.838   5.348   6.567 -0.1269  0.1559 -0.2569
17916SOL    HW157790   7.775   5.284   6.600 -0.2463  0.0807 -0.6213
17916SOL    HW257791   7.806   5.432   6.600 -2.7332  0.6891 -3.5690
17917SOL     OW57792   7.783   9.286  10.060  0.1029  0.8402 -0.2191
17917SOL    HW157793   7.710   9.259  10.116 -0.8101  2.8872 -0.3141
17917SOL    HW257794   7.844   9.213  10.064 -0.3255  0.4861  2.7155
17918SOL     OW57795   8.329   0.388   7.822 -0.4686  0.8445  0.0885
17918SOL    HW157796   8.297   0.382   7.912 -1.7606  1.0171 -0.3461
17918SOL    HW257797   8.322   0.481   7.800 -0.6352  0.7250 -0.3621
17919SOL     OW57798   1.873   8.679   3.622  0.5506 -0.3240 -0.5174
17919SOL    HW157799   1.779   8.692   3.609  1.0136  1.8901 -2.2466
17919SOL    HW257800   1.890   8.591   3.588 -0.4588  0.3576 -2.9606
17920SOL     OW57801   0.680   4.722   6.621 -0.0896 -0.3540  0.5978
17920SOL    HW157802   0.679   4.688   6.710 -1.9634 -0.8048  0.4356
17920SOL    HW257803   0.588   4.738   6.599  0.2059 -1.1938 -1.5945
17921SOL     OW57804   2.038   2.433   4.764 -0.3384  0.3956 -0.3025
17921SOL    HW157805   2.078   2.346   4.764 -0.2109  0.4430 -1.3501
17921SOL    HW257806   2.113   2.493   4.759 -0.4057  0.5862  0.8469
17922SOL     OW57807   6.176   9.590   1.452 -0.1716  0.3704 -0.3449
17922SOL    HW157808   6.126   9.516   1.486  0.0622  0.2178 -0.3278
17922SOL    HW257809   6.250   9.599   1.512  0.1308  0.2319 -0.6901
17923SOL     OW57810   0.455   0.312  10.019  0.6005  0.5872  0.2766
17923SOL    HW157811   0.524   0.310  10.085  1.7153  0.2660 -0.8655
17923SOL    HW257812   0.436   0.219  10.002  0.0482  0.6726  0.4171
17924SOL     OW57813   5.134   7.922   9.775 -0.7986  0.5062  0.2893
17924SOL    HW157814   5.059   7.865   9.760 -0.1109  0.0069 -1.4466
17924SOL    HW257815   5.195   7.868   9.825 -0.5406  0.0113 -0.5368
17925SOL     OW57816   6.671   9.903   6.502 -0.4656  0.3828  0.0160
17925SOL    HW157817   6.764   9.909   6.521 -0.5574  0.9382  0.3051
17925SOL    HW257818   6.659   9.953   6.421 -0.9110  2.5492  1.3558
17926SOL     OW57819   6.128   2.867   5.594  0.5268  0.6419 -0.3314
17926SOL    HW157820   6.198   2.841   5.534  2.5363  1.7143  1.3807
17926SOL    HW257821   6.097   2.951   5.559  0.0344  0.1288 -1.1427
17927SOL     OW57822   1.980   8.582   2.481  0.2103 -0.4188  0.0486
17927SOL    HW157823   1.917   8.592   2.553 -0.7151  2.6368 -1.0167
17927SOL    HW257824   2.004   8.489   2.482 -0.8131 -0.7786  3.3725
17928SOL     OW57825   0.677   2.703   0.128  0.7115 -1.2065  0.0233
17928SOL    HW157826   0.603   2.763   0.116  3.3245  2.1905 -0.6958
17928SOL    HW257827   0.658   2.656   0.209 -1.5548  0.5857  0.6152
17929SOL     OW57828   5.050   5.123   6.274 -0.1613  0.0640  0.2470
17929SOL    HW157829   4.977   5.140   6.334  1.2871 -0.1342  2.1473
17929SOL    HW257830   5.102   5.204   6.277 -0.3559  0.2759 -1.2365
17930SOL     OW57831   1.287   8.106   9.094 -0.2101  0.2452  0.1324
17930SOL    HW157832   1.230   8.075   9.164 -1.7808 -0.1901 -1.2967
17930SOL    HW257833   1.254   8.194   9.073 -0.6079 -0.1523 -0.9461
17931SOL     OW57834   5.730   1.582   3.487  0.1727  0.4450  0.7087
17931SOL    HW157835   5.820   1.577   3.518 -0.2531 -1.0671  1.8505
17931SOL    HW257836   5.678   1.601   3.565 -0.5967  0.1816  0.2767
17932SOL     OW57837   3.092   5.090   6.496  0.4021 -0.0075 -0.4624
17932SOL    HW157838   3.019   5.103   6.437  0.7625  1.5684 -0.6137
17932SOL    HW257839   3.124   5.178   6.515  0.1131 -0.3998  2.3374
17933SOL     OW57840   9.369   2.928   0.001 -0.0105  0.6224 -0.7391
17933SOL    HW157841   9.442   2.982   0.033 -0.5085  2.1672 -2.0756
17933SOL    HW257842   9.291   2.967   0.040 -0.2253 -0.4884 -0.0118
17934SOL     OW57843   0.144   6.380   2.679  0.9921  0.2837 -0.0074
17934SOL    HW157844   0.145   6.473   2.701  0.6229  0.1924  0.4012
17934SOL    HW257845   0.079   6.372   2.610  1.9872  0.5345 -1.0056
17935SOL     OW57846   9.274   1.878   3.645 -0.2470  0.0491 -0.2247
17935SOL    HW157847   9.363   1.908   3.628 -0.9069  2.2336 -0.1177
17935SOL    HW257848   9.285   1.799   3.698  1.6231  0.8196  0.6272
17936SOL     OW57849   2.584   2.253   1.298  0.4664  0.2356  0.0902
17936SOL    HW157850   2.547   2.327   1.345 -0.1871  2.3634 -3.3918
17936SOL    HW257851   2.512   2.191   1.289  0.3634  0.2030  1.0445
17937SOL     OW57852   4.746  10.123   3.523 -0.2580 -0.2749 -0.8269
17937SOL    HW157853   4.756  10.217   3.511 -0.2793 -0.2213 -0.4324
17937SOL    HW257854   4.681  10.114   3.593  0.0798 -0.5728 -0.5479
17938SOL     OW57855   8.225   2.360   9.684  0.1581 -0.2389  0.4833
17938SOL    HW157856   8.305   2.318   9.651  0.3969 -0.3146  1.1344
17938SOL    HW257857   8.254   2.445   9.715  0.1013 -0.5024  1.2716
17939SOL     OW57858   8.840   9.293   2.683  0.0078 -0.5479  0.4397
17939SOL    HW157859   8.791   9.294   2.765 -0.5713  0.2611  0.0974
17939SOL    HW257860   8.906   9.224   2.695  1.8922  1.4622  2.7148
17940SOL     OW57861   4.509   9.143   8.719  0.0927  0.2726 -0.3591
17940SOL    HW157862   4.493   9.228   8.679  1.6105  0.0842 -1.4490
17940SOL    HW257863   4.482   9.080   8.652 -0.1830 -0.0990  0.0926
17941SOL     OW57864   3.968  10.201   0.222  0.3778 -0.5767  0.3314
17941SOL    HW157865   3.938  10.111   0.238  0.2075 -0.3613  1.2443
17941SOL    HW257866   4.043  10.211   0.280  0.3222 -0.0884  0.3170
17942SOL     OW57867   6.098   4.887   1.198  0.2747  0.5883 -0.1406
17942SOL    HW157868   6.105   4.931   1.113 -0.7147  0.7843 -0.1298
17942SOL    HW257869   6.130   4.951   1.261 -1.9576  1.6710 -0.0252
17943SOL     OW57870   9.122   5.677   1.834 -0.2871  0.0919  0.6217
17943SOL    HW157871   9.103   5.761   1.876 -4.6995  0.4974 -1.5936
17943SOL    HW257872   9.153   5.701   1.746 -0.1975 -0.6338  0.4486
17944SOL     OW57873  10.122   7.945   3.473 -0.0653 -0.0623  0.1101
17944SOL    HW157874  10.058   7.978   3.536  0.4466  1.2122 -0.0117
17944SOL    HW257875  10.083   7.963   3.387  0.2704  0.3769  0.0425
17945SOL     OW57876   8.936   7.951   6.236  0.0991  0.0239  0.2641
17945SOL    HW157877   8.877   7.903   6.179  0.6998  0.5878 -0.8599
17945SOL    HW257878   8.985   8.008   6.178  2.9925 -1.6336  0.8770
17946SOL     OW57879   1.146   2.750   6.166  0.0964  0.3034 -0.0464
17946SOL    HW157880   1.085   2.824   6.167 -0.4176 -0.1225  0.3425
17946SOL    HW257881   1.104   2.683   6.220  0.6633 -0.1921 -0.2107
17947SOL     OW57882   9.703   7.697   8.998  0.3278 -0.1974  0.2693
17947SOL    HW157883   9.767   7.635   8.964 -0.7143 -0.6766 -0.8637
17947SOL    HW257884   9.626   7.685   8.944 -0.3059  1.2691  0.7870
17948SOL     OW57885   8.584   3.704   0.065  0.3490 -0.7133 -0.2082
17948SOL    HW157886   8.607   3.659   0.146  2.0734 -0.1602 -0.3506
17948SOL    HW257887   8.653   3.679   0.003  0.7907  1.3187 -0.5846
17949SOL     OW57888   3.610   4.081   8.632 -0.3315 -0.0062  0.3569
17949SOL    HW157889   3.655   4.129   8.563  1.1003 -1.5825  0.1143
17949SOL    HW257890   3.664   4.096   8.710 -1.2688  0.7852  0.8700
17950SOL     OW57891   9.263   8.902   2.778 -0.1317 -0.1249 -0.0921
17950SOL    HW157892   9.226   8.833   2.832  0.6142 -1.3432 -1.0602
17950SOL    HW257893   9.188   8.940   2.731 -0.4132 -1.1679 -0.5098
17951SOL     OW57894   9.150   8.809   0.535  0.0580  0.3089  0.0636
17951SOL    HW157895   9.223   8.805   0.473  0.4634 -0.6841  0.5789
17951SOL    HW257896   9.165   8.888   0.586 -0.0401  0.8985 -0.8015
17952SOL     OW57897   2.462   7.053   2.708  0.5458  0.0491  0.3174
17952SOL    HW157898   2.377   7.009   2.710 -0.1128  1.2761 -0.1432
17952SOL    HW257899   2.505   7.024   2.789  0.4627 -2.0423 -0.3280
17953SOL     OW57900   6.071   5.741   2.711 -0.1469  0.2071  0.0349
17953SOL    HW157901   5.995   5.686   2.696  0.5302 -0.9477  0.6745
17953SOL    HW257902   6.144   5.691   2.673  0.6053  0.2603  1.3694
17954SOL     OW57903   4.563   2.371   0.712  0.6556  0.2871 -0.1597
17954SOL    HW157904   4.561   2.352   0.805 -0.8589 -0.9046 -0.3914
17954SOL    HW257905   4.472   2.391   0.690  0.4199 -2.2684 -1.8843
17955SOL     OW57906   2.462   9.211   9.487 -0.2191 -0.1091  0.7411
17955SOL    HW157907   2.529   9.150   9.516 -0.4011 -0.4164  0.5147
17955SOL    HW257908   2.438   9.260   9.566  0.5726  0.2996  0.7367
17956SOL     OW57909   8.446   9.735   3.054  0.2028 -0.8057 -0.1034
17956SOL    HW157910   8.445   9.709   2.962  1.8927 -1.1405 -0.0661
17956SOL    HW257911   8.539   9.752   3.072 -0.1187 -0.6820  1.5181
17957SOL     OW57912   0.388   8.554   7.661  0.1063  0.1909  0.2159
17957SOL    HW157913   0.307   8.605   7.656 -0.5800 -0.8080  0.6973
17957SOL    HW257914   0.405   8.546   7.755  0.3674 -0.1909  0.1364
17958SOL     OW57915   2.156   9.652   4.386 -0.0088  0.0684 -0.0622
17958SOL    HW157916   2.085   9.716   4.383  0.8594  1.0687 -0.0120
17958SOL    HW257917   2.185   9.652   4.477  0.4220  0.1042 -0.1933
17959SOL     OW57918   3.779   6.535  10.151 -0.1484  0.4812 -0.2120
17959SOL    HW157919   3.851   6.503  10.096 -0.2265  1.7701 -1.1088
17959SOL    HW257920   3.739   6.456  10.187  0.8436 -0.3196 -0.8213
17960SOL     OW57921   5.379   7.050   2.422 -0.2011  0.2179 -0.3005
17960SOL    HW157922   5.455   6.992   2.424 -0.8126 -0.5823  1.6371
17960SOL    HW257923   5.416   7.138   2.421  0.7536 -0.1586  0.4543
17961SOL     OW57924   2.478   8.140   2.954 -0.1953  0.3716 -0.6327
17961SOL    HW157925   2.413   8.078   2.986 -0.4294  1.6966  1.7005
17961SOL    HW257926   2.437   8.181   2.878 -1.6919  0.4458  0.1766
17962SOL     OW57927   4.811   2.701   1.688  0.2306  0.4835  0.0604
17962SOL    HW157928   4.886   2.648   1.662  0.8957  1.4945 -0.1484
17962SOL    HW257929   4.741   2.676   1.629  0.4354 -0.3842  0.1747
17963SOL     OW57930   1.836   5.252   2.003 -0.3806  0.0570  0.2252
17963SOL    HW157931   1.760   5.298   2.038 -0.3512 -0.1756  0.5990
17963SOL    HW257932   1.834   5.270   1.909 -3.2123 -3.1077 -0.5333
17964SOL     OW57933   3.689   2.107   7.650 -0.4703  0.4998 -0.2323
17964SOL    HW157934   3.640   2.160   7.588 -2.0631  0.5947  1.0524
17964SOL    HW257935   3.732   2.041   7.596 -2.0036  0.4227 -1.4352
17965SOL     OW57936   5.145   8.851   3.584 -0.4981 -0.2413  0.5595
17965SOL    HW157937   5.139   8.939   3.621 -1.2079  0.2191 -0.5883
17965SOL    HW257938   5.072   8.804   3.623 -0.5431 -0.1031  0.6423
17966SOL     OW57939   5.083   6.285   2.254  0.3089 -0.3223 -0.0400
17966SOL    HW157940   5.011   6.329   2.299  1.5544 -0.0219  1.7545
17966SOL    HW257941   5.069   6.306   2.162 -1.0724  0.9589  0.4152
17967SOL     OW57942   2.640   2.062   2.681  0.1960 -0.1718  0.1518
17967SOL    HW157943   2.564   2.019   2.720  1.1210 -0.6944  1.4297
17967SOL    HW257944   2.706   1.993   2.675  2.0341  1.1472  3.0455
17968SOL     OW57945   0.095   5.699   5.295  0.2621  0.1794 -0.2717
17968SOL    HW157946   0.116   5.727   5.206 -0.4226  1.6190 -0.0139
17968SOL    HW257947   0.024   5.636   5.284  1.7720 -1.4946 -0.8657
17969SOL     OW57948   7.373   2.829   9.263  0.1916 -0.3690 -0.8232
17969SOL    HW157949   7.462   2.860   9.246 -0.1948  0.3093 -1.7099
17969SOL    HW257950   7.375   2.736   9.239  0.1664  0.1113 -2.9036
17970SOL     OW57951   8.360   2.955   2.391  0.2775  0.5510 -0.0373
17970SOL    HW157952   8.340   2.875   2.439  1.6525  0.2780  0.1126
17970SOL    HW257953   8.275   2.988   2.362 -0.4962  0.1357  1.6392
17971SOL     OW57954   9.302   3.003   1.517 -0.2702 -0.2599 -0.5828
17971SOL    HW157955   9.281   2.940   1.586 -0.0687  1.9738  1.6525
17971SOL    HW257956   9.244   3.077   1.533 -0.1840  0.3635 -2.8264
17972SOL     OW57957   7.759   8.539   3.881 -0.0841 -0.3775 -0.1818
17972SOL    HW157958   7.772   8.542   3.976  0.7898  0.7877 -0.3084
17972SOL    HW257959   7.705   8.616   3.862 -2.3436 -1.9349 -0.3759
17973SOL     OW57960   8.505   5.779   2.255  0.2892 -0.6147 -0.6720
17973SOL    HW157961   8.469   5.737   2.333 -2.0396  1.6758 -0.3610
17973SOL    HW257962   8.483   5.872   2.265  1.7271  0.0819 -3.0933
17974SOL     OW57963   3.466   8.639   5.914  0.0619  0.7251  0.9341
17974SOL    HW157964   3.497   8.553   5.940 -0.1044  0.3651 -0.0016
17974SOL    HW257965   3.401   8.622   5.846  1.8165  1.6360 -1.1111
17975SOL     OW57966   3.560   2.810   2.639 -0.1138  0.0743  0.3230
17975SOL    HW157967   3.503   2.867   2.690 -0.6211 -0.1002 -0.0390
17975SOL    HW257968   3.546   2.838   2.548  1.4632  1.0019  0.3372
17976SOL     OW57969   8.751   7.080   8.245  0.0479 -0.2506  0.5671
17976SOL    HW157970   8.655   7.087   8.244  0.0377 -0.4754  0.1729
17976SOL    HW257971   8.771   7.041   8.330 -0.1322  0.9321  1.1838
17977SOL     OW57972   3.842   9.863   3.897  0.8942  0.0248 -0.5021
17977SOL    HW157973   3.867   9.802   3.827 -1.9041 -0.9403 -0.7578
17977SOL    HW257974   3.795   9.933   3.852 -1.1690 -0.7431  0.3553
17978SOL     OW57975   3.179   8.525   0.380  0.3158  0.4993  0.1044
17978SOL    HW157976   3.085   8.541   0.380  0.2837  0.3123  0.2304
17978SOL    HW257977   3.216   8.598   0.431 -0.1398 -1.5665  3.6950
17979SOL     OW57978   6.052   3.215   1.194 -0.5876  0.1977  0.4030
17979SOL    HW157979   6.073   3.123   1.206 -0.9073 -0.0389 -0.7197
17979SOL    HW257980   5.957   3.218   1.186 -0.4499  0.2555 -2.0955
17980SOL     OW57981   9.233   6.306   6.289  0.2280 -0.2803  0.4127
17980SOL    HW157982   9.279   6.390   6.289  0.7154 -0.4840 -1.9919
17980SOL    HW257983   9.292   6.246   6.243 -0.8701 -1.4916  0.5212
17981SOL     OW57984   6.006   8.406   1.593 -0.2497 -0.0908  0.5454
17981SOL    HW157985   5.938   8.387   1.657 -1.2649  0.6810 -0.2749
17981SOL    HW257986   6.038   8.493   1.617 -0.1230 -0.1035  0.4245
17982SOL     OW57987   8.819   1.535   6.822  0.0116 -0.5815 -0.1974
17982SOL    HW157988   8.820   1.505   6.913  2.1696  0.5293  0.2229
17982SOL    HW257989   8.747   1.597   6.817  0.5743  0.2163  1.1023
17983SOL     OW57990   7.585   8.277   2.807 -0.1086 -0.0106 -0.0871
17983SOL    HW157991   7.649   8.348   2.801  0.0902 -0.1573  0.2509
17983SOL    HW257992   7.577   8.245   2.717  0.5775 -0.2296 -0.0791
17984SOL     OW57993   4.328   0.463   2.714 -0.0724  0.6685 -0.4999
17984SOL    HW157994   4.331   0.480   2.620 -2.5504  1.2818 -0.5544
17984SOL    HW257995   4.419   0.451   2.740  0.8584  2.5224 -2.6074
17985SOL     OW57996   3.152   2.936  10.174 -0.1135 -0.1143  0.1946
17985SOL    HW157997   3.178   2.966  10.262  0.8770  2.2514 -0.8239
17985SOL    HW257998   3.070   2.889  10.189 -0.3539  0.8252  2.3093
17986SOL     OW57999   1.564   6.258   5.994 -0.6337 -0.0376 -0.2556
17986SOL    HW158000   1.533   6.301   6.074 -0.1464  0.2397 -0.2143
17986SOL    HW258001   1.621   6.323   5.952 -0.4260 -0.3966 -0.5343
17987SOL     OW58002   4.195   7.577   2.356 -0.2964  0.5518 -0.2819
17987SOL    HW158003   4.201   7.537   2.443  0.9972  0.5713 -0.3333
17987SOL    HW258004   4.234   7.664   2.368  0.4021  0.3483 -0.9903
17988SOL     OW58005   2.538  10.191   8.539 -0.1625  1.1088  0.3322
17988SOL    HW158006   2.468  10.137   8.577  1.0145 -0.2090  0.7145
17988SOL    HW258007   2.580  10.135   8.474  0.8100  1.7192  0.4065
17989SOL     OW58008   2.236   0.406   5.878 -0.3402  0.6221  0.2656
17989SOL    HW158009   2.159   0.391   5.933 -1.1939  0.9300 -0.7911
17989SOL    HW258010   2.245   0.501   5.875  0.5715  0.5675  1.0152
17990SOL     OW58011  10.019   8.592   7.592  0.2348 -0.3087  0.8834
17990SOL    HW158012   9.966   8.671   7.579 -0.9351 -1.3812 -1.6271
17990SOL    HW258013   9.993   8.560   7.678  1.2752  2.3543  2.3131
17991SOL     OW58014   1.441   3.686   8.551 -0.2880 -0.7261 -0.3654
17991SOL    HW158015   1.381   3.618   8.581 -0.4599 -0.6830 -0.6072
17991SOL    HW258016   1.403   3.717   8.469 -2.4693  2.4803  1.6223
17992SOL     OW58017   8.857   6.173   6.426  0.3275 -0.1196  0.4428
17992SOL    HW158018   8.938   6.174   6.476  1.0349  1.7824 -0.6468
17992SOL    HW258019   8.788   6.170   6.492  1.2623  0.7005  1.4838
17993SOL     OW58020   3.712   0.550   7.495  0.1198 -0.3224  0.2919
17993SOL    HW158021   3.722   0.495   7.417  1.8240 -0.2501  0.4169
17993SOL    HW258022   3.700   0.487   7.566 -2.3817 -0.3651 -0.0993
17994SOL     OW58023   8.947   5.451   2.072  0.6049 -0.0695  0.0073
17994SOL    HW158024   8.964   5.371   2.120  1.9490 -0.9010 -1.7382
17994SOL    HW258025   9.014   5.513   2.103  1.9169 -0.8219 -1.1834
17995SOL     OW58026   3.107   3.960   7.440  0.0823  0.0286 -0.1339
17995SOL    HW158027   3.114   4.009   7.521  0.7550 -0.1200 -0.0960
17995SOL    HW258028   3.015   3.935   7.434  0.0816 -0.1822  0.7160
17996SOL     OW58029   2.501   7.252   5.713 -0.0194 -0.3436  0.4540
17996SOL    HW158030   2.500   7.293   5.800  1.4178 -1.1026  0.8670
17996SOL    HW258031   2.409   7.238   5.692 -0.6089  2.9919  0.3056
17997SOL     OW58032   9.039   2.847   6.451 -0.3443  0.4994 -0.1769
17997SOL    HW158033   8.944   2.848   6.440 -0.3234  1.6384 -0.3848
17997SOL    HW258034   9.054   2.891   6.535 -0.0602 -0.9151  0.5437
17998SOL     OW58035   0.532   9.540   5.790 -0.5998  0.0392  0.0391
17998SOL    HW158036   0.543   9.520   5.883 -3.1987  3.6667  1.3102
17998SOL    HW258037   0.459   9.485   5.762  0.9491 -1.9634 -0.3341
17999SOL     OW58038   7.555   3.625   0.628 -0.1607 -0.5082  0.3150
17999SOL    HW158039   7.553   3.534   0.598 -0.1337 -0.4645  0.1777
17999SOL    HW258040   7.553   3.676   0.547 -0.4654 -0.3834  0.4018
18000SOL     OW58041   6.764   7.735   6.146  0.3148 -0.4739 -0.4020
18000SOL    HW158042   6.856   7.758   6.130 -0.0625  0.9883 -0.6479
18000SOL    HW258043   6.717   7.819   6.141 -1.1656 -1.3015 -1.2299
18001SOL     OW58044   4.149   1.657   3.264  0.0768 -0.5581  0.0824
18001SOL    HW158045   4.218   1.607   3.221  0.3196  0.1641 -0.3767
18001SOL    HW258046   4.185   1.679   3.350  1.6391  2.2945 -1.1649
18002SOL     OW58047   0.859   5.550   7.369  0.7581  0.6601 -0.0290
18002SOL    HW158048   0.875   5.607   7.445 -2.7529  0.6579  0.8440
18002SOL    HW258049   0.792   5.596   7.318 -1.8745 -2.3407  0.4392
18003SOL     OW58050   0.032   5.839   6.224  0.7452 -0.3144 -0.2873
18003SOL    HW158051  -0.019   5.779   6.279 -1.6727  0.8112 -1.1600
18003SOL    HW258052   0.074   5.899   6.285 -2.8340  1.6619  0.4887
18004SOL     OW58053   6.323   9.201   4.588 -0.1367 -0.3820  0.2312
18004SOL    HW158054   6.335   9.214   4.682  2.0433 -0.7805  0.0621
18004SOL    HW258055   6.239   9.242   4.569 -0.6319 -0.2858  2.3401
18005SOL     OW58056   7.909   5.493   8.186  0.0903 -0.2906 -0.4940
18005SOL    HW158057   7.890   5.511   8.094 -1.0370 -1.6330 -0.5651
18005SOL    HW258058   7.919   5.398   8.190 -1.0440 -0.3848  0.9530
18006SOL     OW58059   3.204   3.394   2.847  0.3788 -0.1159 -0.1519
18006SOL    HW158060   3.215   3.392   2.942  0.9042  0.2557 -0.2024
18006SOL    HW258061   3.125   3.342   2.831 -0.1945  0.5013  0.5595
18007SOL     OW58062   2.118   7.308   0.602 -0.0413  0.5669  0.4880
18007SOL    HW158063   2.036   7.357   0.604 -1.2721 -1.3836  0.1956
18007SOL    HW258064   2.107   7.245   0.531  0.8677 -1.0986  1.7422
18008SOL     OW58065   1.962   8.504   4.126 -0.3865 -0.6382  0.2548
18008SOL    HW158066   1.874   8.492   4.091  0.3490  1.6040 -2.7993
18008SOL    HW258067   1.949   8.554   4.207 -1.9329 -1.4198  0.5312
18009SOL     OW58068   6.838   2.888   3.247 -0.4201 -0.2590 -0.2811
18009SOL    HW158069   6.891   2.938   3.184  0.1031 -0.2807  0.1333
18009SOL    HW258070   6.768   2.850   3.195 -0.3215  0.1982 -0.7526
18010SOL     OW58071   5.689   6.784   5.170  0.2724 -0.2822  0.2667
18010SOL    HW158072   5.736   6.743   5.242  1.1348  0.8757  0.3927
18010SOL    HW258073   5.601   6.746   5.174  0.9893 -2.0175  0.4193
18011SOL     OW58074  10.167   5.711   4.253 -0.3329  0.0389 -0.2620
18011SOL    HW158075  10.087   5.751   4.220 -0.3788 -0.8012 -1.2174
18011SOL    HW258076  10.227   5.714   4.178  0.6156  0.8627  0.5048
18012SOL     OW58077   3.041   9.045  10.113  0.6378 -0.4742  0.5400
18012SOL    HW158078   3.049   9.041  10.208  0.0070 -1.6872  0.5639
18012SOL    HW258079   3.059   9.137  10.091  0.1541 -0.0287  1.8900
18013SOL     OW58080   8.092   2.308   7.871  0.4951  0.4640  0.1689
18013SOL    HW158081   8.108   2.307   7.965 -1.2222 -0.3830  0.4856
18013SOL    HW258082   8.057   2.395   7.854  0.4450  0.4865  0.3800
18014SOL     OW58083   5.735   9.435   1.097  0.1970 -0.1915  0.1902
18014SOL    HW158084   5.651   9.392   1.081  1.3266 -2.3318 -0.3242
18014SOL    HW258085   5.788   9.413   1.021  1.1187  1.5424  0.2759
18015SOL     OW58086   4.248   5.606   9.267 -0.9427 -0.3722  0.0571
18015SOL    HW158087   4.330   5.573   9.303  1.2532  2.2219 -2.1413
18015SOL    HW258088   4.220   5.538   9.205  0.3482 -0.6752 -0.2237
18016SOL     OW58089   2.464   2.293   3.761 -0.1959  0.1306  0.6093
18016SOL    HW158090   2.549   2.298   3.804  0.4599 -0.4696 -0.5536
18016SOL    HW258091   2.424   2.213   3.797  0.9104 -1.1234 -0.7898
18017SOL     OW58092   2.648   1.039   2.896 -0.0409 -0.2726  0.4187
18017SOL    HW158093   2.597   1.113   2.862 -0.7449  0.3613  2.6600
18017SOL    HW258094   2.700   1.009   2.821 -1.6551  0.8231 -1.2348
18018SOL     OW58095   6.731   7.959   2.903 -0.3062 -0.2133  0.1620
18018SOL    HW158096   6.784   7.979   2.981  0.1825  1.0075 -0.4503
18018SOL    HW258097   6.792   7.971   2.830 -0.7634 -1.3472 -0.4176
18019SOL     OW58098   6.053   7.075   9.209  0.0390 -0.6915 -0.0442
18019SOL    HW158099   6.099   7.098   9.289  1.3361 -0.4235 -0.8406
18019SOL    HW258100   6.119   7.082   9.140 -1.4856  1.0419 -1.4342
18020SOL     OW58101   6.058   6.689   2.632 -0.2545 -0.6672 -0.3985
18020SOL    HW158102   6.141   6.733   2.612  0.0395 -1.5971 -1.3446
18020SOL    HW258103   6.063   6.671   2.726  0.7659 -0.9681 -0.4900
18021SOL     OW58104   8.732   7.648   8.104 -0.3739  0.1846 -0.2019
18021SOL    HW158105   8.717   7.560   8.139  0.4626  0.7783  1.8328
18021SOL    HW258106   8.684   7.706   8.164 -1.5006  1.1096 -1.9077
18022SOL     OW58107   3.783   5.961   3.517  0.1934 -0.4696 -0.1036
18022SOL    HW158108   3.797   6.004   3.433 -2.5070  1.1724  0.1863
18022SOL    HW258109   3.769   6.033   3.579  1.3473 -1.6674  1.6553
18023SOL     OW58110   5.023   8.257   2.322 -0.5041  0.0031 -0.3978
18023SOL    HW158111   5.091   8.322   2.337 -1.7235  1.4994 -1.0992
18023SOL    HW258112   5.064   8.194   2.262  0.5258  0.4045 -0.1437
18024SOL     OW58113   2.903   6.158   3.290 -0.6938 -0.3182 -0.4749
18024SOL    HW158114   2.933   6.117   3.371  0.1160  1.9561  0.4461
18024SOL    HW258115   2.817   6.118   3.274 -1.0918 -0.5086  1.7744
18025SOL     OW58116   2.073   7.961   5.883  0.1506 -0.1408 -0.1471
18025SOL    HW158117   2.025   7.884   5.852  0.1370 -0.3200  0.3106
18025SOL    HW258118   2.027   7.988   5.962 -1.7374  2.1949 -1.8785
18026SOL     OW58119   7.743   8.421   0.730 -0.3340 -0.2572 -0.4982
18026SOL    HW158120   7.673   8.484   0.709 -0.1163  0.4278  0.7306
18026SOL    HW258121   7.715   8.340   0.688 -1.0521  0.4360 -1.4015
18027SOL     OW58122   4.996   0.587   9.475  0.2175  0.4994  0.0603
18027SOL    HW158123   4.984   0.551   9.563  0.5920 -0.5024 -0.2864
18027SOL    HW258124   4.907   0.598   9.442  0.0859 -0.6651 -0.0329
18028SOL     OW58125   3.511   4.296   3.767  0.0148  0.7576  0.0674
18028SOL    HW158126   3.575   4.291   3.838 -0.4443  1.1530  0.5238
18028SOL    HW258127   3.535   4.227   3.706  0.1171  0.0918  0.8606
18029SOL     OW58128   6.714   5.639   2.595 -0.5555 -0.4202  0.4859
18029SOL    HW158129   6.733   5.724   2.635 -2.5398  0.2323  0.1385
18029SOL    HW258130   6.770   5.635   2.518  0.3654  0.0677  1.1122
18030SOL     OW58131   7.726   4.679   1.891  0.3068  0.0505 -0.6336
18030SOL    HW158132   7.656   4.742   1.909  0.4977 -0.1760  1.0758
18030SOL    HW258133   7.688   4.620   1.825 -0.9935  0.1664 -0.0362
18031SOL     OW58134   1.917   6.974   3.806 -0.3848  0.0079 -0.2042
18031SOL    HW158135   1.875   6.951   3.889  1.4234  1.9811  1.3731
18031SOL    HW258136   1.970   6.898   3.784 -0.7253 -0.4621  0.5639
18032SOL     OW58137   3.791   4.065   5.078  0.5183 -0.0216 -0.6446
18032SOL    HW158138   3.768   3.977   5.109  0.1006  0.1574 -0.4385
18032SOL    HW258139   3.771   4.123   5.152 -1.2341  0.5055 -1.4883
18033SOL     OW58140   3.816   7.957   3.176  0.0039  0.3083  0.2360
18033SOL    HW158141   3.838   7.996   3.092  1.9952  1.9395  1.3965
18033SOL    HW258142   3.740   8.007   3.207  1.5386  2.3417  0.9755
18034SOL     OW58143   3.462   0.249   0.854 -0.0924 -0.4745  0.9419
18034SOL    HW158144   3.372   0.270   0.827  0.6907  1.0588 -0.6940
18034SOL    HW258145   3.474   0.297   0.936 -0.3689  0.4283  0.4715
18035SOL     OW58146   7.755   1.346   6.410  0.9214  0.6970  0.0157
18035SOL    HW158147   7.737   1.257   6.439 -0.2548  1.3932  1.5917
18035SOL    HW258148   7.752   1.342   6.315 -0.5206 -0.7051  0.0793
18036SOL     OW58149   2.461   5.444   1.816 -0.0623  0.0143  0.0357
18036SOL    HW158150   2.538   5.391   1.797 -0.1097  0.3645 -1.2070
18036SOL    HW258151   2.440   5.425   1.908  0.8754 -0.8703  0.0737
18037SOL     OW58152   7.393   2.607   8.802  0.0423 -0.1302 -0.1369
18037SOL    HW158153   7.421   2.531   8.751  1.2520 -0.2852  0.7166
18037SOL    HW258154   7.465   2.623   8.863 -1.1499  0.3397  1.2042
18038SOL     OW58155   6.920   0.863   2.793 -0.2680 -0.0759  0.4149
18038SOL    HW158156   6.883   0.784   2.755 -0.0150  0.3685 -0.7866
18038SOL    HW258157   6.847   0.925   2.798 -0.0631  0.2312 -0.3700
18039SOL     OW58158   6.954   0.993   8.369  0.0717 -0.0176 -0.1967
18039SOL    HW158159   6.893   0.991   8.442  0.8785 -0.0822  0.4956
18039SOL    HW258160   7.020   0.927   8.391 -0.0347 -0.5015 -1.3059
18040SOL     OW58161  10.047   4.158   1.438  0.6499  0.0974  0.1336
18040SOL    HW158162  10.022   4.179   1.528  1.0295 -0.7011  0.4360
18040SOL    HW258163  10.088   4.238   1.405 -1.9614  1.3770 -0.2961
18041SOL     OW58164   1.028  10.180   1.233  0.0576 -0.2302 -0.5739
18041SOL    HW158165   0.983  10.138   1.160  0.1462 -0.3982 -0.5311
18041SOL    HW258166   0.968  10.249   1.262 -0.1861 -0.4703 -0.5016
18042SOL     OW58167  10.016   8.054   0.165 -0.0880  0.5062 -0.1061
18042SOL    HW158168  10.028   8.114   0.091 -0.1761  0.7495  0.0748
18042SOL    HW258169  10.097   8.060   0.214 -0.0107  0.3080 -0.2091
18043SOL     OW58170   2.718   9.749   8.498 -0.4338  0.7062 -0.2361
18043SOL    HW158171   2.666   9.680   8.539 -1.0662  1.3592  0.0590
18043SOL    HW258172   2.701   9.739   8.404 -2.3930  1.9110 -0.0693
18044SOL     OW58173   3.483   9.715   8.407 -0.6649 -0.3734 -0.0411
18044SOL    HW158174   3.403   9.766   8.394 -0.3595  0.0395 -0.3224
18044SOL    HW258175   3.529   9.720   8.323  1.2376  2.1880  1.0019
18045SOL     OW58176   1.529   0.583   6.068 -0.3037  0.1700 -0.0966
18045SOL    HW158177   1.572   0.498   6.057  0.2622  0.4730 -0.2385
18045SOL    HW258178   1.589   0.633   6.123 -0.3163  0.7121 -0.5703
18046SOL     OW58179   5.292   3.230   7.746  0.3103 -0.5768  0.1524
18046SOL    HW158180   5.210   3.230   7.697  0.5501  1.9398 -0.3643
18046SOL    HW258181   5.336   3.149   7.717 -0.3881 -0.1501 -2.4081
18047SOL     OW58182   3.592   6.571   6.278 -0.6978  0.2711 -0.0350
18047SOL    HW158183   3.591   6.602   6.368  2.6155 -0.1058  0.2460
18047SOL    HW258184   3.594   6.651   6.225  1.1515  0.5643  0.4243
18048SOL     OW58185   4.439   0.021   5.733 -0.2684 -0.2069  0.5396
18048SOL    HW158186   4.533   0.043   5.732  0.1715 -1.6357  2.9321
18048SOL    HW258187   4.395   0.106   5.728  1.1049  0.4526 -1.3289
18049SOL     OW58188   8.679   3.348   1.010  0.1842  0.2937  0.3896
18049SOL    HW158189   8.751   3.388   1.058  1.5987 -1.3244 -0.2678
18049SOL    HW258190   8.695   3.254   1.018 -1.7657 -0.1126  0.0375
18050SOL     OW58191   9.955   5.141   4.024 -0.0385 -0.2782 -0.5640
18050SOL    HW158192  10.006   5.060   4.033  2.0627  1.0612  0.5839
18050SOL    HW258193   9.967   5.166   3.933  1.8583  0.2425 -0.2177
18051SOL     OW58194   9.605   0.880   9.094 -0.0536  0.4568  0.3315
18051SOL    HW158195   9.694   0.849   9.110 -0.5566 -0.7434  0.9117
18051SOL    HW258196   9.606   0.912   9.004  0.8290 -0.0156  0.1663
18052SOL     OW58197   3.284   5.797   1.066  0.2693 -0.0779  0.1544
18052SOL    HW158198   3.318   5.886   1.067  1.9609 -0.6971  0.6604
18052SOL    HW258199   3.360   5.742   1.085 -0.8145 -1.6054  0.2236
18053SOL     OW58200   2.949   4.627   5.022  0.3633 -0.0297 -0.0958
18053SOL    HW158201   2.953   4.681   4.943 -0.9427  0.9362  0.4610
18053SOL    HW258202   2.918   4.542   4.991 -1.8433  0.8427 -0.4347
18054SOL     OW58203   3.104   2.329   4.629 -0.8932  0.0470 -0.4875
18054SOL    HW158204   3.062   2.245   4.644 -0.3380 -0.0679  0.4932
18054SOL    HW258205   3.033   2.393   4.636 -1.2600 -0.3093 -0.9236
18055SOL     OW58206   9.041   5.018   9.708  0.3727  0.2687  0.3365
18055SOL    HW158207   9.074   4.997   9.796  0.7488  0.8245  0.3314
18055SOL    HW258208   9.072   4.945   9.654  0.2863  0.0104  0.6276
18056SOL     OW58209   8.155   5.139   4.614  0.3370  0.0021  0.9509
18056SOL    HW158210   8.100   5.217   4.626 -0.8614 -0.7143  0.2224
18056SOL    HW258211   8.111   5.088   4.546  1.2270 -1.2235  1.2609
18057SOL     OW58212   6.825   7.817   8.045  0.2285  0.0498  0.0940
18057SOL    HW158213   6.822   7.788   7.954  1.7601 -0.6954  0.2579
18057SOL    HW258214   6.813   7.737   8.096  2.6679 -0.0972  0.5403
18058SOL     OW58215   6.333   8.964   9.205  0.5281 -0.3062 -0.0834
18058SOL    HW158216   6.294   8.947   9.291  1.9494 -1.4016  0.3763
18058SOL    HW258217   6.297   9.049   9.179 -0.3174 -0.1881  1.3642
18059SOL     OW58218   4.046   9.851   1.897 -0.3028 -0.2851 -0.2007
18059SOL    HW158219   3.976   9.898   1.851  1.1485  0.6932 -1.5112
18059SOL    HW258220   4.001   9.779   1.941 -2.1733  0.4940 -0.7254
18060SOL     OW58221   3.189   8.015   2.102 -0.0977  0.2904  0.0856
18060SOL    HW158222   3.205   8.108   2.087 -2.0947  0.7927  0.6803
18060SOL    HW258223   3.211   7.972   2.019  1.3199  1.2094 -0.0315
18061SOL     OW58224   1.613   3.011   7.848  0.5901 -0.1044  0.5437
18061SOL    HW158225   1.568   3.096   7.842 -0.3263 -0.6066  0.0799
18061SOL    HW258226   1.633   2.988   7.757  0.2638 -0.6815  0.6123
18062SOL     OW58227   5.384   1.652   4.437  0.2673 -0.3888 -0.6245
18062SOL    HW158228   5.432   1.643   4.355  0.1493 -0.4041 -0.6919
18062SOL    HW258229   5.452   1.658   4.504  0.4217  1.2039 -0.8718
18063SOL     OW58230   5.285   2.280   4.529  0.7368  0.1784  0.2759
18063SOL    HW158231   5.218   2.225   4.570  0.8024  0.1724  0.3760
18063SOL    HW258232   5.365   2.228   4.536  0.5605 -0.2683 -0.7722
18064SOL     OW58233   3.715   7.068   5.715  0.6480  0.0706  0.0045
18064SOL    HW158234   3.674   7.103   5.636  1.6357 -0.0457 -0.5760
18064SOL    HW258235   3.669   6.986   5.732  1.7171 -0.8873 -1.5924
18065SOL     OW58236   8.504  10.153   2.997  0.5212 -0.4568  0.1069
18065SOL    HW158237   8.582  10.201   2.970  1.2834 -2.8441 -2.4171
18065SOL    HW258238   8.528  10.061   2.988 -2.1454 -1.3122  0.6836
18066SOL     OW58239   9.102   6.930   7.093  0.1557  0.2872  0.1461
18066SOL    HW158240   9.184   6.891   7.063  1.1302  1.7049  0.8548
18066SOL    HW258241   9.045   6.926   7.017  1.8168  1.7959 -1.2735
18067SOL     OW58242   9.178   9.785   9.919  0.0444 -0.0826  0.3978
18067SOL    HW158243   9.127   9.817   9.844  0.7279 -0.7124 -0.3639
18067SOL    HW258244   9.190   9.861   9.975 -0.6295  0.3625 -0.0540
18068SOL     OW58245   6.273   7.824   3.524 -0.2528 -0.3859 -0.4427
18068SOL    HW158246   6.298   7.747   3.575 -0.4103  0.8524  1.6303
18068SOL    HW258247   6.304   7.806   3.436 -1.0044 -3.1469 -0.2261
18069SOL     OW58248   2.432   4.846   0.667 -0.2177  0.0408 -0.1592
18069SOL    HW158249   2.520   4.877   0.644  0.3086 -1.5002 -0.3126
18069SOL    HW258250   2.420   4.875   0.758  0.3576  0.4279 -0.1990
18070SOL     OW58251   2.643   4.463   3.984  0.6330  0.3219 -0.5499
18070SOL    HW158252   2.594   4.512   3.919  1.2612  2.7528  0.6942
18070SOL    HW258253   2.596   4.477   4.066  0.8850 -1.1472 -0.1117
18071SOL     OW58254   3.591   7.719   9.290 -0.1820 -0.3225  0.4482
18071SOL    HW158255   3.562   7.741   9.202  1.4245 -0.1516 -0.0700
18071SOL    HW258256   3.597   7.623   9.290 -0.4742 -0.3400  0.4658
18072SOL     OW58257   2.374   2.411   1.086  0.1343 -0.5077 -0.2766
18072SOL    HW158258   2.310   2.435   1.153 -0.9143 -2.2474 -0.5919
18072SOL    HW258259   2.417   2.494   1.064  0.8429  0.0783  2.8162
18073SOL     OW58260  10.053   9.988   3.162 -0.3631 -0.2339  0.5490
18073SOL    HW158261  10.107   9.910   3.169 -1.8036 -1.2839  0.5129
18073SOL    HW258262  10.016   9.983   3.074  0.8794  1.4516 -0.1280
18074SOL     OW58263   3.970   4.641   0.890  0.5539 -0.0439 -0.3248
18074SOL    HW158264   4.030   4.661   0.962 -1.4325 -1.2900  1.8155
18074SOL    HW258265   3.988   4.709   0.825  0.4747  3.0485  2.5597
18075SOL     OW58266   8.946   9.132   8.053  0.5199  0.0258 -0.0636
18075SOL    HW158267   8.851   9.142   8.044  0.8986  2.4370 -2.7791
18075SOL    HW258268   8.967   9.173   8.137 -0.7085  0.5605 -0.0024
18076SOL     OW58269   0.047   3.907  10.220 -0.5318 -0.2838  0.3969
18076SOL    HW158270  -0.042   3.905  10.256 -0.5106  0.1923  0.4821
18076SOL    HW258271   0.040   3.960  10.141 -1.0229 -3.1151 -1.5749
18077SOL     OW58272   7.109   4.519   3.920  0.8084  1.0502  0.2102
18077SOL    HW158273   7.156   4.436   3.931  0.7859  0.9173 -0.6456
18077SOL    HW258274   7.052   4.505   3.844 -1.5428  0.7950  1.9009
18078SOL     OW58275   3.267   2.349   2.047 -0.1766  0.3778  0.0263
18078SOL    HW158276   3.189   2.357   2.102 -0.2741  0.5167 -0.1319
18078SOL    HW258277   3.266   2.258   2.017 -0.4922  0.4856 -0.2921
18079SOL     OW58278   1.730   3.499  10.281 -0.1597 -0.0951  0.0027
18079SOL    HW158279   1.801   3.454  10.236  0.3463  0.7694 -0.0832
18079SOL    HW258280   1.709   3.442  10.355  2.7202  1.0468  1.8685
18080SOL     OW58281   7.980   1.691   4.593 -0.0625 -0.0193 -0.1007
18080SOL    HW158282   7.895   1.707   4.551 -1.1774 -4.2642  0.1005
18080SOL    HW258283   7.961   1.696   4.687  0.5611  1.4795 -0.0294
18081SOL     OW58284   8.455   5.690   3.023 -0.6824 -0.0190  0.2535
18081SOL    HW158285   8.446   5.627   2.951 -0.0828  1.1953 -0.9332
18081SOL    HW258286   8.432   5.640   3.101 -3.1408 -0.9257 -0.9432
18082SOL     OW58287   7.658   4.157   1.244 -0.0525  0.3056 -0.5663
18082SOL    HW158288   7.744   4.129   1.272 -0.8482 -0.8593  0.8154
18082SOL    HW258289   7.624   4.084   1.193 -0.8262  0.1152  0.2086
18083SOL     OW58290   7.575   1.842   9.411 -0.0150 -0.1613 -0.1612
18083SOL    HW158291   7.525   1.917   9.444 -0.5922 -0.4127 -0.4476
18083SOL    HW258292   7.644   1.880   9.358  0.4157  0.2149  0.6521
18084SOL     OW58293   9.117   4.828   9.534  0.0395 -0.2403  0.1176
18084SOL    HW158294   9.084   4.744   9.566 -2.3354  0.5871  0.0374
18084SOL    HW258295   9.160   4.807   9.451 -0.9628 -1.3213 -0.1510
18085SOL     OW58296   6.918   4.631   8.638 -0.6025  0.7108  0.1849
18085SOL    HW158297   6.929   4.711   8.587 -0.2250  1.0346  0.7680
18085SOL    HW258298   6.904   4.662   8.728 -0.2028  0.1139  0.4540
18086SOL     OW58299   8.648   5.315   2.313 -0.0086  0.2271  0.3583
18086SOL    HW158300   8.715   5.312   2.381 -1.3010  0.1570  1.6895
18086SOL    HW258301   8.680   5.256   2.245  0.9001 -0.4262  1.3173
18087SOL     OW58302   9.731   8.045   3.770  0.0941 -0.0104  0.7071
18087SOL    HW158303   9.646   8.017   3.804  0.2867  0.2276  1.4161
18087SOL    HW258304   9.795   8.005   3.830  0.4720 -0.0819  0.2585
18088SOL     OW58305   4.499   8.145   2.695 -0.8905  0.0817 -0.2619
18088SOL    HW158306   4.469   8.107   2.778  0.9248 -0.9396  0.0008
18088SOL    HW258307   4.528   8.233   2.718 -1.8233  0.3563 -0.1285
18089SOL     OW58308   8.463   5.010   9.477 -0.0995  0.0481  0.1047
18089SOL    HW158309   8.513   4.992   9.397  0.0233  0.9125 -0.0293
18089SOL    HW258310   8.464   5.106   9.484  0.9996 -0.0513  1.8447
18090SOL     OW58311   1.658   2.457   1.974  0.3701 -0.5935  0.3049
18090SOL    HW158312   1.583   2.403   1.996 -1.5986  0.2360 -3.5758
18090SOL    HW258313   1.702   2.410   1.903  1.1542  0.7983 -0.1822
18091SOL     OW58314   1.911   6.241   1.187  0.4281 -0.1061  0.3014
18091SOL    HW158315   1.983   6.225   1.126  0.2404 -0.8974  0.2798
18091SOL    HW258316   1.931   6.187   1.263 -1.0864 -1.8416 -0.4651
18092SOL     OW58317   0.642   4.973   6.258  0.1374  0.2341 -1.0121
18092SOL    HW158318   0.654   4.881   6.280 -0.5127  0.4168  0.1932
18092SOL    HW258319   0.574   4.973   6.190 -0.1629 -0.1528 -0.7174
18093SOL     OW58320   7.005   1.241   8.395 -0.7889  0.5017  0.0444
18093SOL    HW158321   7.094   1.244   8.430  0.5779  2.8944 -3.1059
18093SOL    HW258322   6.991   1.149   8.373  1.7479  0.3105 -1.1344
18094SOL     OW58323   6.109   5.225   6.503  0.2908  0.5503 -0.0385
18094SOL    HW158324   6.110   5.130   6.489  0.6738  0.6694 -0.9381
18094SOL    HW258325   6.200   5.247   6.525  0.1214  0.6567  0.5567
18095SOL     OW58326   4.731   6.009   6.477  0.0499 -0.6699 -0.2689
18095SOL    HW158327   4.699   6.080   6.533  0.5462 -1.1755  0.6873
18095SOL    HW258328   4.800   5.967   6.528  0.2752 -1.3782 -1.1227
18096SOL     OW58329   1.636   6.763   5.385  0.0299 -0.2917  0.5874
18096SOL    HW158330   1.616   6.681   5.431 -0.8493  0.6909  2.0268
18096SOL    HW258331   1.550   6.801   5.366  0.4330  0.2805 -0.1424
18097SOL     OW58332   9.935   6.238   0.216 -0.4604  0.1256  0.0009
18097SOL    HW158333   9.935   6.142   0.220  0.3000  0.0797 -0.6714
18097SOL    HW258334  10.023   6.263   0.245 -1.7642  0.8727  3.8553
18098SOL     OW58335   9.805   0.696   3.661 -0.2524 -0.4044  0.3058
18098SOL    HW158336   9.849   0.748   3.594 -1.6889  1.2439  0.5826
18098SOL    HW258337   9.835   0.734   3.744 -0.9106 -0.3505  0.5249
18099SOL     OW58338   3.617   1.459   3.939 -0.0104 -0.0838  0.1552
18099SOL    HW158339   3.622   1.363   3.936  0.8589 -0.0179 -1.0562
18099SOL    HW258340   3.706   1.486   3.962  0.1205  0.4782 -0.9726
18100SOL     OW58341   1.128   8.016   5.559 -0.1629 -0.0416  0.6151
18100SOL    HW158342   1.077   8.025   5.479 -1.5448  2.8668  1.6697
18100SOL    HW258343   1.091   7.940   5.603  0.3547 -1.4394 -1.2717
18101SOL     OW58344   2.577   1.994   9.636  0.2592 -0.1935  0.1227
18101SOL    HW158345   2.608   2.078   9.669  0.9230  0.1342 -1.2447
18101SOL    HW258346   2.572   2.006   9.541 -1.2826 -1.1653  0.0402
18102SOL     OW58347   7.763   9.522   0.507 -0.2051 -0.4245  0.2558
18102SOL    HW158348   7.669   9.522   0.522 -0.7255 -0.4098 -2.5600
18102SOL    HW258349   7.800   9.553   0.590 -2.7079  0.7498  1.0392
18103SOL     OW58350   3.711   5.055   5.786  0.2084  0.1542  0.3345
18103SOL    HW158351   3.688   5.134   5.834 -0.2186  0.0571  0.2925
18103SOL    HW258352   3.641   5.045   5.721 -0.1540 -0.6900  0.8490
18104SOL     OW58353   7.436   0.562   8.517  0.4671  0.0652  0.2945
18104SOL    HW158354   7.451   0.566   8.611  0.8403  2.9287  0.1927
18104SOL    HW258355   7.524   0.553   8.479  0.4152  0.0088  0.1877
18105SOL     OW58356   3.251   1.711   0.949  0.3480  0.0539 -0.1556
18105SOL    HW158357   3.245   1.639   1.011 -0.3719  1.3858  1.3985
18105SOL    HW258358   3.172   1.705   0.896  0.2212 -0.2139  0.0658
18106SOL     OW58359   4.281   1.766   4.684 -0.6461 -0.4459 -0.0206
18106SOL    HW158360   4.343   1.782   4.612  0.1422 -0.4367  0.6437
18106SOL    HW258361   4.283   1.847   4.735 -1.0684 -0.5211  0.1153
18107SOL     OW58362   2.693   6.357   6.617  0.1885  0.2140  0.3204
18107SOL    HW158363   2.713   6.370   6.709 -1.6351 -3.2640  1.4175
18107SOL    HW258364   2.772   6.315   6.581  0.0261 -0.6614  0.9621
18108SOL     OW58365   0.018   4.450   6.478  0.1503  0.3766  0.0166
18108SOL    HW158366   0.099   4.404   6.457  0.2052  0.1198  0.7474
18108SOL    HW258367   0.012   4.520   6.413  0.4089 -0.2494 -0.6947
18109SOL     OW58368   6.819  10.251   6.603  0.0465 -0.0352  0.1608
18109SOL    HW158369   6.730  10.230   6.632  0.0534 -0.2078  0.0549
18109SOL    HW258370   6.809  10.331   6.551  0.1457  0.7788  1.3497
18110SOL     OW58371   1.519   0.595   0.771 -0.2639  0.3930  0.2198
18110SOL    HW158372   1.557   0.541   0.840  0.0833 -0.6935 -0.7980
18110SOL    HW258373   1.592   0.614   0.713 -0.8418  0.0971 -0.6127
18111SOL     OW58374   9.261   6.691   1.463  0.3296 -0.3282  0.3220
18111SOL    HW158375   9.253   6.760   1.398 -3.0080  0.0201  0.9340
18111SOL    HW258376   9.280   6.612   1.412 -0.6696  0.2134 -0.9424
18112SOL     OW58377   8.470   6.717   3.331  0.2649 -0.3257  0.4746
18112SOL    HW158378   8.417   6.790   3.299  2.1685  0.7127 -0.5065
18112SOL    HW258379   8.462   6.650   3.262 -1.6500 -1.1982  1.4735
18113SOL     OW58380   2.520   6.134   0.134 -0.4002 -0.0243  0.1231
18113SOL    HW158381   2.562   6.188   0.066  2.1980 -0.2595  1.3938
18113SOL    HW258382   2.459   6.194   0.177 -2.6478 -0.0541 -2.7435
18114SOL     OW58383   1.036   9.019   0.265  0.6232  0.2017  0.1177
18114SOL    HW158384   1.048   9.111   0.285  2.5873 -0.1962  0.9464
18114SOL    HW258385   0.941   9.005   0.273  0.4722  1.7632  1.6455
18115SOL     OW58386   8.961   5.338   8.543 -0.1536 -0.5955  0.1776
18115SOL    HW158387   8.906   5.374   8.474  2.8084  1.1217 -1.5143
18115SOL    HW258388   8.930   5.379   8.623  0.5480  2.8052 -1.1513
18116SOL     OW58389   9.405  10.262   7.758  0.1455  0.1830 -0.0874
18116SOL    HW158390   9.316  10.261   7.791 -0.7958  0.2979 -2.4315
18116SOL    HW258391   9.442  10.178   7.785 -0.8785 -0.1184  0.4042
18117SOL     OW58392   7.874   5.920   7.394 -0.4294  0.9774  0.2278
18117SOL    HW158393   7.841   6.009   7.378  0.3150  1.2328  0.0857
18117SOL    HW258394   7.913   5.894   7.311  0.7428  1.1241  0.7180
18118SOL     OW58395   5.796   7.568   9.426 -0.1222  0.0187 -0.2308
18118SOL    HW158396   5.799   7.567   9.522  0.9228  0.1269 -0.2462
18118SOL    HW258397   5.704   7.578   9.405 -0.2158  1.9510  0.7920
18119SOL     OW58398   9.583   0.672   0.960 -0.2098  0.0149  0.2346
18119SOL    HW158399   9.659   0.641   0.912  2.1935  1.9849  2.4855
18119SOL    HW258400   9.561   0.756   0.920  0.2650  0.5174  1.0099
18120SOL     OW58401   9.657   5.383   7.183  0.1835  0.3558 -0.2356
18120SOL    HW158402   9.679   5.389   7.276 -1.0935 -0.2585  0.1293
18120SOL    HW258403   9.602   5.305   7.176  2.1019 -0.9434 -1.8992
18121SOL     OW58404   1.611   3.288   0.168  0.3612 -0.5940  0.2634
18121SOL    HW158405   1.599   3.193   0.168  1.5439 -0.7548  0.6205
18121SOL    HW258406   1.615   3.312   0.261  0.9400 -0.3166  0.1699
18122SOL     OW58407   4.199   6.000   9.860  0.2729 -0.3181 -0.4725
18122SOL    HW158408   4.230   5.910   9.871 -1.8024 -0.9929  0.2988
18122SOL    HW258409   4.235   6.047   9.935  1.0065 -0.5986 -0.6403
18123SOL     OW58410   9.216   9.275   6.282 -0.3378  0.3191  0.0434
18123SOL    HW158411   9.124   9.260   6.304 -0.2861 -2.9592 -1.4329
18123SOL    HW258412   9.259   9.287   6.367 -1.7750 -0.6688  0.9632
18124SOL     OW58413   7.960   1.562   1.834  0.7280 -0.0062  0.2072
18124SOL    HW158414   8.012   1.636   1.802 -0.6013  0.7860 -0.1959
18124SOL    HW258415   8.003   1.485   1.797  2.0739  0.5639  0.5441
18125SOL     OW58416   0.931   8.939   6.428  0.2870  0.4353 -0.4550
18125SOL    HW158417   0.948   8.845   6.436  2.0830  0.8163  0.8921
18125SOL    HW258418   0.836   8.948   6.438  0.1557 -1.1712 -0.0016
18126SOL     OW58419   0.969   9.237   4.660 -0.0594 -0.2964  0.7145
18126SOL    HW158420   0.903   9.301   4.633  0.3341 -0.4787 -0.7692
18126SOL    HW258421   1.049   9.288   4.671  0.4394 -0.6050 -1.2188
18127SOL     OW58422   2.344   7.918   2.653 -0.6906 -0.4407  0.1714
18127SOL    HW158423   2.416   7.975   2.626 -1.1530  0.4149  0.7007
18127SOL    HW258424   2.330   7.939   2.745 -0.3085 -2.0467  0.6273
18128SOL     OW58425   1.991   9.641   0.651 -0.9114 -0.2950  0.0339
18128SOL    HW158426   2.028   9.727   0.632 -0.4627 -0.2192  1.1443
18128SOL    HW258427   2.059   9.579   0.626 -1.4323 -0.3858 -1.2576
18129SOL     OW58428   3.592   9.866   1.502 -0.0715  0.2739 -0.8225
18129SOL    HW158429   3.577   9.941   1.444 -1.8033  0.3831 -0.2981
18129SOL    HW258430   3.676   9.830   1.474  1.0324  2.6537 -0.8229
18130SOL     OW58431   3.849   0.992   3.086  0.0849  0.3710 -0.2506
18130SOL    HW158432   3.770   1.023   3.130 -0.2531  0.6539 -1.0405
18130SOL    HW258433   3.921   1.029   3.137 -0.2981  0.5345  0.1761
18131SOL     OW58434  10.080   8.814   2.855  0.1218  0.5885 -0.0380
18131SOL    HW158435  10.155   8.757   2.837  0.7918  1.2724  0.5083
18131SOL    HW258436  10.008   8.754   2.871  0.3762 -0.0689 -1.2992
18132SOL     OW58437   9.729  10.254   1.382  0.3336  0.1078 -0.6737
18132SOL    HW158438   9.656  10.223   1.435  0.2859  1.0556 -0.1554
18132SOL    HW258439   9.804  10.202   1.410 -0.3593 -1.8046 -2.1300
18133SOL     OW58440   0.252   9.986   9.069 -0.3573  0.6327 -0.1707
18133SOL    HW158441   0.305  10.057   9.104  1.8521 -0.8868 -0.2248
18133SOL    HW258442   0.212   9.944   9.145  1.3749 -0.3234  0.2638
18134SOL     OW58443   5.795   9.408   9.645 -0.2960 -0.2062  1.1251
18134SOL    HW158444   5.736   9.340   9.613  0.9208  0.3714 -2.8288
18134SOL    HW258445   5.882   9.378   9.620  0.8548  0.5058  3.9021
18135SOL     OW58446   6.067   8.729   6.556 -0.0907  0.7118  0.6364
18135SOL    HW158447   5.995   8.788   6.533  0.3423  1.5131  1.3239
18135SOL    HW258448   6.145   8.783   6.554  0.0946  0.6396  3.0663
18136SOL     OW58449   3.334  10.057   3.118  0.0558 -0.0252  0.4526
18136SOL    HW158450   3.313  10.107   3.040 -1.5805 -0.6122  0.4665
18136SOL    HW258451   3.263   9.992   3.125  0.5907 -0.5082  1.9657
18137SOL     OW58452   3.232   1.756   1.565  0.1386 -0.0822 -0.2693
18137SOL    HW158453   3.319   1.719   1.582  0.6600  1.6582  1.1195
18137SOL    HW258454   3.193   1.767   1.651  0.1513  2.7997 -0.5300
18138SOL     OW58455   3.998   4.773   6.282  0.2379 -0.3174  0.5924
18138SOL    HW158456   4.036   4.688   6.257  1.5954  0.7093 -1.0653
18138SOL    HW258457   3.916   4.778   6.233 -0.0788 -0.8222  1.0449
18139SOL     OW58458   8.865   5.871   3.102  0.5421 -0.3128 -0.3613
18139SOL    HW158459   8.771   5.853   3.100  0.6906 -1.1536 -0.1569
18139SOL    HW258460   8.905   5.791   3.067  1.2498 -0.5139  0.8514
18140SOL     OW58461   4.722   3.806  10.291  0.1099 -0.3751 -0.0377
18140SOL    HW158462   4.696   3.830  10.379  0.5393  1.3131 -0.3314
18140SOL    HW258463   4.642   3.773  10.250 -0.6080  0.8488  0.3307
18141SOL     OW58464   2.394   8.188   8.807 -0.2986  0.1465 -0.5613
18141SOL    HW158465   2.470   8.202   8.863  0.8699 -0.0989 -2.0319
18141SOL    HW258466   2.373   8.095   8.818 -2.1181  0.7150  1.8666
18142SOL     OW58467   0.201  10.062   4.902  0.0543  0.3005 -0.9167
18142SOL    HW158468   0.138  10.082   4.970 -1.1281 -1.1622 -1.5181
18142SOL    HW258469   0.281  10.036   4.949  0.3047  2.3244 -0.1524
18143SOL     OW58470   1.784   6.421   6.692 -0.0830  0.1717  0.6085
18143SOL    HW158471   1.822   6.487   6.750  1.1522 -0.5289  0.6343
18143SOL    HW258472   1.697   6.455   6.670 -0.2768  0.8158  2.2474
18144SOL     OW58473   4.600   8.542   1.456  0.2946  0.2553  0.3729
18144SOL    HW158474   4.670   8.476   1.458  0.0570  0.0348  1.7153
18144SOL    HW258475   4.519   8.492   1.459  0.0884  0.5792  0.2998
18145SOL     OW58476   9.188   9.597   0.169  0.6141  0.1647  1.0340
18145SOL    HW158477   9.226   9.684   0.181 -0.5084  0.9511 -0.6611
18145SOL    HW258478   9.096   9.608   0.192  0.1645 -0.2044 -0.4814
18146SOL     OW58479   2.685   7.994   4.762  0.6470  0.0193 -0.1933
18146SOL    HW158480   2.669   7.901   4.750  0.9945  0.1446 -2.0197
18146SOL    HW258481   2.736   8.000   4.843  2.0307 -1.5659 -0.8845
18147SOL     OW58482   2.908   7.050   6.045  0.1436  0.2871  0.0799
18147SOL    HW158483   2.898   7.114   5.974  0.4904  1.6900  1.2382
18147SOL    HW258484   2.848   7.081   6.113  0.1946 -0.7363  0.6010
18148SOL     OW58485   5.086   1.899   2.919  0.6287  0.5187 -0.0494
18148SOL    HW158486   5.022   1.831   2.901  0.1828  1.1477 -0.9259
18148SOL    HW258487   5.117   1.881   3.008 -0.7895  0.2310  0.4022
18149SOL     OW58488   4.836   9.011   5.041  0.0971 -0.1957  0.1176
18149SOL    HW158489   4.907   8.963   5.084 -0.5882 -1.0545  0.3148
18149SOL    HW258490   4.764   8.949   5.037  0.2157 -0.3142 -2.5675
18150SOL     OW58491   4.593   0.965   7.131 -0.0005 -0.6753 -0.8601
18150SOL    HW158492   4.652   1.039   7.145 -1.3661  0.3101 -0.0069
18150SOL    HW258493   4.641   0.889   7.163  0.6685  0.1564  0.1665
18151SOL     OW58494   2.934   1.318   3.139 -0.1450  0.2011  0.1783
18151SOL    HW158495   2.875   1.282   3.073  0.2126  0.7075 -0.4160
18151SOL    HW258496   2.880   1.324   3.218  0.0784 -2.8268  0.6909
18152SOL     OW58497   3.724   2.948   8.700 -0.6140 -0.1271 -0.2123
18152SOL    HW158498   3.715   2.879   8.766  2.0504  0.6107  1.0645
18152SOL    HW258499   3.635   2.961   8.666 -2.2096 -0.3771  3.4299
18153SOL     OW58500   4.023   3.293   8.528  0.4334  0.4842 -0.3029
18153SOL    HW158501   4.074   3.363   8.486 -0.7838  1.7112  0.1936
18153SOL    HW258502   3.966   3.338   8.589 -0.7262 -0.9214 -0.3037
18154SOL     OW58503   0.378   4.758  10.160 -0.3296  0.2435 -0.1823
18154SOL    HW158504   0.394   4.803  10.077  0.2687  2.0799  0.8518
18154SOL    HW258505   0.461   4.765  10.207 -0.1371 -2.2719 -0.0579
18155SOL     OW58506   7.917   5.302   9.891 -0.0661  0.2440 -0.1200
18155SOL    HW158507   7.913   5.226   9.833 -1.3070 -0.7502  1.1922
18155SOL    HW258508   7.835   5.348   9.874  0.5742  1.1947 -0.7323
18156SOL     OW58509   6.727   9.423   9.378  0.5266  0.3099 -0.2287
18156SOL    HW158510   6.724   9.334   9.412  0.1463  1.4758  3.2078
18156SOL    HW258511   6.644   9.462   9.406  0.4721  1.6410 -2.0872
18157SOL     OW58512   9.930   0.308   1.463  0.5236  0.9708  1.0824
18157SOL    HW158513   9.851   0.345   1.503 -0.1305 -0.3482  1.0341
18157SOL    HW258514   9.973   0.384   1.422 -1.8236  1.4291 -0.7928
18158SOL     OW58515   7.925   8.317   9.806 -0.1343  0.1629  0.1390
18158SOL    HW158516   7.899   8.360   9.725 -0.2891 -0.4551 -0.1440
18158SOL    HW258517   7.921   8.386   9.873  0.0867  0.6984 -0.3904
18159SOL     OW58518   2.380   3.976   8.474 -0.4001 -0.1979 -0.0951
18159SOL    HW158519   2.370   3.982   8.379 -1.5735 -0.6110 -0.0044
18159SOL    HW258520   2.336   4.054   8.508 -2.3038 -1.3738  0.2374
18160SOL     OW58521   1.065   3.751   8.629  0.3304  0.3293 -0.4475
18160SOL    HW158522   1.122   3.779   8.701  0.7670 -0.4869 -0.4651
18160SOL    HW258523   1.120   3.693   8.576 -0.7406 -1.1334 -0.0173
18161SOL     OW58524   7.306   7.160   8.253  0.2083 -1.2414 -0.1056
18161SOL    HW158525   7.268   7.174   8.340 -1.1745 -0.0451 -0.8808
18161SOL    HW258526   7.237   7.184   8.192  1.6804 -0.5406 -1.5601
18162SOL     OW58527   7.644   2.095   5.946 -0.6118  0.2799 -0.6315
18162SOL    HW158528   7.668   2.124   5.858 -0.2092  1.7057 -0.0813
18162SOL    HW258529   7.720   2.116   5.999 -1.0029 -0.2203  0.1378
18163SOL     OW58530   1.825   0.544   1.914  0.0660 -0.2896  0.8666
18163SOL    HW158531   1.815   0.636   1.892 -0.3724 -0.0956  1.8462
18163SOL    HW258532   1.888   0.511   1.850 -0.6624  0.3999 -0.2427
18164SOL     OW58533   6.153   1.478   5.696  0.0100 -0.5885 -0.2614
18164SOL    HW158534   6.177   1.394   5.657  1.5557 -0.1505 -0.3387
18164SOL    HW258535   6.237   1.517   5.721 -0.6609  1.0713 -0.5076
18165SOL     OW58536   6.750   4.714   6.524  0.3803 -0.0370  1.0126
18165SOL    HW158537   6.790   4.745   6.443 -0.7754  1.1131  0.8467
18165SOL    HW258538   6.724   4.624   6.506  1.0418 -0.1177  0.4525
18166SOL     OW58539   0.955   1.306   3.178  0.0240  0.2539 -0.5367
18166SOL    HW158540   0.960   1.362   3.255  1.7843 -0.3976 -0.1253
18166SOL    HW258541   0.886   1.243   3.198 -0.3743  0.8427 -0.0292
18167SOL     OW58542   4.439   8.489   9.156  0.1379 -0.6244  0.3376
18167SOL    HW158543   4.389   8.566   9.182 -3.5555 -2.9502  0.9033
18167SOL    HW258544   4.414   8.473   9.065  1.0267 -1.0584  0.1545
18168SOL     OW58545   7.728   2.393   5.769  0.0521  0.1459 -0.6233
18168SOL    HW158546   7.693   2.466   5.718 -0.6186  0.6950  0.5945
18168SOL    HW258547   7.703   2.315   5.719  0.2802  0.7036 -1.6411
18169SOL     OW58548   7.095   8.677   8.247  0.0915 -0.0716  0.3537
18169SOL    HW158549   7.112   8.759   8.200 -1.2270  0.8248  1.3448
18169SOL    HW258550   7.103   8.700   8.340  0.9255 -1.3784  0.6289
18170SOL     OW58551   5.537   2.891   0.070  0.0956  0.5384 -0.4201
18170SOL    HW158552   5.498   2.945   0.139  1.2618 -0.7293  1.3159
18170SOL    HW258553   5.623   2.930   0.055  0.2737  0.1566 -0.3909
18171SOL     OW58554   4.841   6.476   1.594  0.0258  0.9329  0.4726
18171SOL    HW158555   4.833   6.430   1.678  1.9871 -0.4874 -0.0340
18171SOL    HW258556   4.758   6.523   1.584 -1.0147 -0.3754  2.3071
18172SOL     OW58557   4.340   8.264   0.230 -0.3574 -0.0129  0.0832
18172SOL    HW158558   4.272   8.209   0.270 -1.3850  0.3248 -1.1271
18172SOL    HW258559   4.305   8.353   0.236 -0.1445  0.1346 -0.7729
18173SOL     OW58560   3.058   3.859   4.212  0.3457  0.3699  0.0715
18173SOL    HW158561   3.046   3.829   4.122  1.8024  1.5234 -0.5463
18173SOL    HW258562   2.970   3.882   4.241 -0.5370 -2.3519 -0.1359
18174SOL     OW58563   8.899   3.053   0.284 -0.2640 -0.5583 -0.2151
18174SOL    HW158564   8.904   2.961   0.309  0.8995 -0.1848  1.0210
18174SOL    HW258565   8.827   3.057   0.220 -0.2182 -2.3311 -0.4115
18175SOL     OW58566   4.376   6.873   0.556 -0.0508  0.1494  0.3301
18175SOL    HW158567   4.320   6.949   0.540  0.0737  0.4604  1.3673
18175SOL    HW258568   4.318   6.798   0.539  0.1459  0.4235 -1.8639
18176SOL     OW58569   4.951   0.468   3.703 -0.1419 -0.5339 -0.4613
18176SOL    HW158570   4.920   0.534   3.642 -1.8200 -0.6589  0.2065
18176SOL    HW258571   5.039   0.445   3.672  0.7605  2.4377 -0.3533
18177SOL     OW58572   0.482   5.934   0.134  0.3055  1.0510  0.2527
18177SOL    HW158573   0.517   5.852   0.170 -2.3668  0.3827  1.5837
18177SOL    HW258574   0.496   5.999   0.204  1.0691  1.4028 -0.2103
18178SOL     OW58575   4.706   1.487   4.808  0.3976  0.9958 -0.2355
18178SOL    HW158576   4.707   1.397   4.840  1.1538  0.7810 -0.8404
18178SOL    HW258577   4.614   1.513   4.814 -0.3192 -0.7188 -2.5474
18179SOL     OW58578   2.893   7.239   0.588  0.2679 -0.1225 -0.2939
18179SOL    HW158579   2.967   7.283   0.547  0.8662 -0.6247  0.2235
18179SOL    HW258580   2.816   7.272   0.541  0.7767  0.7408 -0.5404
18180SOL     OW58581   0.860   4.357   8.769  0.1107 -0.1762 -0.4245
18180SOL    HW158582   0.948   4.321   8.757 -0.6038 -2.1613 -0.0997
18180SOL    HW258583   0.866   4.409   8.849  0.8662 -0.7981 -0.0578
18181SOL     OW58584   4.534   1.822  10.074 -0.1779 -0.6154 -0.3089
18181SOL    HW158585   4.495   1.763  10.009 -1.5955  0.7648 -0.7614
18181SOL    HW258586   4.588   1.764  10.129 -1.4228 -2.3163 -0.7944
18182SOL     OW58587   7.042   7.736   6.139  0.3710  0.2218 -0.1982
18182SOL    HW158588   7.120   7.719   6.086  0.4847  0.3484 -0.0722
18182SOL    HW258589   7.061   7.696   6.224 -0.5416 -1.5783 -0.8063
18183SOL     OW58590   9.729   4.762   6.898 -0.5964  0.2058  0.0499
18183SOL    HW158591   9.676   4.700   6.948  0.9444 -0.1599  1.2979
18183SOL    HW258592   9.751   4.831   6.960  1.9744 -0.6270  0.1882
18184SOL     OW58593   2.371   8.225   4.773 -0.0747 -0.1236  0.5345
18184SOL    HW158594   2.317   8.145   4.778  0.8798 -1.1066 -2.6625
18184SOL    HW258595   2.326   8.280   4.709  0.6485  0.7811  0.7943
18185SOL     OW58596   6.046   1.346   5.914 -0.0523 -0.3878 -0.1060
18185SOL    HW158597   6.111   1.352   5.983 -0.6965  0.8368  0.4230
18185SOL    HW258598   6.056   1.427   5.864 -0.7643 -0.4650 -0.3846
18186SOL     OW58599   6.628   8.031   9.807  0.1873 -0.5619 -0.3673
18186SOL    HW158600   6.662   8.003   9.892 -0.2626 -0.7772 -0.2512
18186SOL    HW258601   6.703   8.028   9.748  0.2404 -1.6409 -0.2645
18187SOL     OW58602   0.115   4.658   9.136 -0.2574 -0.2231  0.1999
18187SOL    HW158603   0.056   4.731   9.117  1.8966  1.1496 -1.9492
18187SOL    HW258604   0.065   4.580   9.116 -1.1846  0.9002 -2.2820
18188SOL     OW58605   8.031   8.361   5.142 -0.2721  0.0788  0.4415
18188SOL    HW158606   8.107   8.419   5.144  1.2497 -1.8296  0.7676
18188SOL    HW258607   7.998   8.363   5.232 -0.3257  0.5474  0.4139
18189SOL     OW58608   8.112   1.764   3.805 -0.1375  0.9697 -0.1334
18189SOL    HW158609   8.189   1.746   3.752 -0.5008 -0.7189 -0.1335
18189SOL    HW258610   8.125   1.853   3.837  1.7307  0.7745 -0.2640
18190SOL     OW58611   6.291   5.162   8.447  0.9960  0.2783 -0.3480
18190SOL    HW158612   6.241   5.087   8.415 -1.7117  2.3667 -1.4781
18190SOL    HW258613   6.352   5.183   8.376  0.6459  0.0944 -0.7043
18191SOL     OW58614   1.250   8.468   3.901  0.1985 -0.1556 -0.3545
18191SOL    HW158615   1.186   8.499   3.837 -0.3228 -0.6104 -0.0587
18191SOL    HW258616   1.233   8.520   3.979 -2.1588 -2.5759  0.8951
18192SOL     OW58617   6.696   9.714   3.264  0.7486 -0.1205 -0.3174
18192SOL    HW158618   6.624   9.742   3.321 -0.5435 -0.2290 -1.8363
18192SOL    HW258619   6.691   9.618   3.264  2.0555 -0.2251  0.9676
18193SOL     OW58620   5.740   6.641   3.316  0.4373  0.1313 -0.2407
18193SOL    HW158621   5.729   6.636   3.411 -1.1984 -1.1479 -0.4438
18193SOL    HW258622   5.817   6.696   3.303  1.1971 -0.3503  1.8498
18194SOL     OW58623   9.026   4.948   2.270  0.2924  0.4206  0.1560
18194SOL    HW158624   9.103   4.922   2.321  0.5640  2.4291  0.8765
18194SOL    HW258625   8.958   4.963   2.335 -0.7800 -1.3757 -0.4824
18195SOL     OW58626   6.642   5.019   2.530 -0.0683  0.4526 -0.2141
18195SOL    HW158627   6.694   4.946   2.564 -2.2251 -0.7128  0.7991
18195SOL    HW258628   6.657   5.018   2.436  1.6587  0.1346  0.0434
18196SOL     OW58629   1.093   2.352   0.910 -0.4861  0.0189 -0.4990
18196SOL    HW158630   1.140   2.273   0.883  0.6574 -0.0139  1.3855
18196SOL    HW258631   1.160   2.421   0.908 -0.3203  0.0199  2.0429
18197SOL     OW58632  10.208   4.334   1.282  0.3536  0.0113  0.1106
18197SOL    HW158633  10.143   4.329   1.212 -0.7816 -0.8664  1.1878
18197SOL    HW258634  10.280   4.385   1.244  0.6401 -2.0512 -2.3691
18198SOL     OW58635   2.022   6.651   2.072 -0.0269  0.3818  0.3392
18198SOL    HW158636   2.112   6.674   2.090  1.0572 -0.1772 -3.4480
18198SOL    HW258637   2.027   6.588   1.999 -3.4327 -0.4276  0.5977
18199SOL     OW58638   1.157   6.713   5.652  0.5172 -0.7601  0.1867
18199SOL    HW158639   1.219   6.677   5.716 -0.0199 -0.6046  0.8049
18199SOL    HW258640   1.201   6.791   5.618  1.7327 -1.9896 -1.2329
18200SOL     OW58641   6.979   0.924   5.289  0.5827 -0.1622  0.5176
18200SOL    HW158642   6.970   0.840   5.246 -2.0253  0.3157 -0.0665
18200SOL    HW258643   7.037   0.908   5.364  1.0346 -2.1681 -0.2212
18201SOL     OW58644   9.741   0.585   5.730  0.1687  0.3310 -0.5362
18201SOL    HW158645   9.804   0.519   5.760  0.4371  0.4682 -0.7993
18201SOL    HW258646   9.791   0.666   5.727 -0.6241  0.9769  1.6649
18202SOL     OW58647   8.867   5.225   6.353  0.0639 -0.2283 -0.0130
18202SOL    HW158648   8.898   5.313   6.373 -1.3155 -0.2201  2.4675
18202SOL    HW258649   8.771   5.231   6.356 -0.1699 -1.3451 -2.3077
18203SOL     OW58650   0.076   2.074   9.496  0.1414  0.1987  0.1219
18203SOL    HW158651   0.084   2.156   9.544  0.0037  0.4694 -0.3175
18203SOL    HW258652   0.001   2.030   9.536 -0.3893  0.7217 -0.2757
18204SOL     OW58653   2.637   8.169   1.250  0.4778  0.2068  0.3739
18204SOL    HW158654   2.605   8.259   1.258  1.4259  0.6009 -0.1907
18204SOL    HW258655   2.713   8.165   1.308  0.6045 -0.1659  0.1862
18205SOL     OW58656   7.079  10.212   1.088  0.5930 -0.0502 -0.2926
18205SOL    HW158657   7.143  10.244   1.025  1.3090  0.2705  0.5774
18205SOL    HW258658   7.026  10.149   1.039  1.7142 -0.4825 -0.9748
18206SOL     OW58659   1.935   3.579   1.424 -0.3719  0.6731  0.0159
18206SOL    HW158660   1.863   3.593   1.485  0.1863 -0.3194  0.9290
18206SOL    HW258661   1.901   3.516   1.361 -0.7708  1.2955 -0.4033
18207SOL     OW58662   4.525   5.259   8.933 -0.3430 -0.6168  0.2615
18207SOL    HW158663   4.579   5.282   8.857 -1.5208  2.2752  0.1681
18207SOL    HW258664   4.462   5.195   8.900 -1.1994  1.0055 -1.4308
18208SOL     OW58665   3.616   4.332   1.361  0.4219 -0.3566 -0.2609
18208SOL    HW158666   3.583   4.418   1.335  0.7843  0.0267  0.5276
18208SOL    HW258667   3.573   4.313   1.444  0.6473 -0.7615 -0.2317
18209SOL     OW58668   8.523   1.113   1.964  0.4590 -0.1342  0.5812
18209SOL    HW158669   8.540   1.034   1.912 -3.6424  0.0114 -1.3637
18209SOL    HW258670   8.491   1.079   2.048 -2.5090 -0.7652 -0.6818
18210SOL     OW58671   0.146   2.160   6.009 -0.0911  0.0993 -0.1000
18210SOL    HW158672   0.163   2.158   6.103 -0.2812  0.6149 -0.0515
18210SOL    HW258673   0.233   2.166   5.970 -0.0438  0.5619  0.0707
18211SOL     OW58674   0.634   7.190   5.842  0.1054  0.0271 -0.4022
18211SOL    HW158675   0.728   7.202   5.827  0.3851  0.6457  1.6337
18211SOL    HW258676   0.594   7.207   5.756  1.7889  0.3583 -1.1528
18212SOL     OW58677   1.478   5.577   8.526  0.2904  0.8261 -0.3387
18212SOL    HW158678   1.455   5.666   8.550 -0.0769  0.4099  0.9121
18212SOL    HW258679   1.574   5.576   8.525  0.3175  0.9597  0.7817
18213SOL     OW58680   6.560   2.570   6.957  0.8460 -0.0511  0.1853
18213SOL    HW158681   6.568   2.647   6.900 -0.6796  0.3987  0.5347
18213SOL    HW258682   6.584   2.496   6.901  1.3942  0.5783 -0.4338
18214SOL     OW58683   0.482   8.695   0.403 -0.5436  0.4671 -0.0146
18214SOL    HW158684   0.466   8.754   0.329  1.9330 -0.4561 -1.4297
18214SOL    HW258685   0.562   8.648   0.379 -0.1757 -0.5888  2.8596
18215SOL     OW58686   2.127   2.351   8.333 -0.4069  0.1581 -0.4620
18215SOL    HW158687   2.161   2.424   8.385  2.6379  0.6216 -2.8022
18215SOL    HW258688   2.080   2.393   8.261 -2.7026 -0.4095  0.6328
18216SOL     OW58689   8.243   2.305   5.160 -0.6288  0.2161  0.0384
18216SOL    HW158690   8.305   2.241   5.125 -1.2811  0.3595 -1.4389
18216SOL    HW258691   8.298   2.380   5.184  0.0147 -0.4814  0.8310
18217SOL     OW58692   9.825   2.289   8.225  0.2203 -0.3006  0.1309
18217SOL    HW158693   9.796   2.372   8.264  0.7995 -0.0010 -0.0679
18217SOL    HW258694   9.908   2.310   8.182  1.1161 -1.3030  1.3080
18218SOL     OW58695   9.183   4.610   2.014  0.2034  0.2666  0.1125
18218SOL    HW158696   9.121   4.571   2.075  0.0700 -0.6177 -0.5663
18218SOL    HW258697   9.220   4.536   1.966  1.2059  0.8483 -0.0359
18219SOL     OW58698   5.861   1.226   0.526  0.0716 -0.3911 -0.0567
18219SOL    HW158699   5.884   1.150   0.579 -1.0235 -0.5416  0.2378
18219SOL    HW258700   5.834   1.292   0.590  0.1971 -0.0487 -0.3560
18220SOL     OW58701   2.098   4.167   1.760 -0.3201 -0.5046 -0.1854
18220SOL    HW158702   2.109   4.257   1.789 -2.8836 -1.1831  3.6231
18220SOL    HW258703   2.182   4.125   1.775  0.1270  0.6515  0.6303
18221SOL     OW58704   4.914   3.670   2.646 -0.6297 -0.4552 -0.0737
18221SOL    HW158705   4.999   3.629   2.635  0.0066  0.4194  1.3323
18221SOL    HW258706   4.863   3.608   2.699 -1.1163 -1.2585 -1.4289
18222SOL     OW58707   4.704   5.807   1.069  0.1858 -0.3970  0.5929
18222SOL    HW158708   4.657   5.860   1.134 -1.1160 -0.1340 -0.5187
18222SOL    HW258709   4.637   5.781   1.006  1.3920 -0.6954 -0.6184
18223SOL     OW58710   6.132   5.699   4.470  0.1184 -0.1623  0.0002
18223SOL    HW158711   6.164   5.650   4.395 -0.9777  0.2672 -0.7713
18223SOL    HW258712   6.038   5.682   4.472  0.0575  0.1912  1.0132
18224SOL     OW58713   9.253   4.956  10.111  0.6985 -0.5320 -0.7983
18224SOL    HW158714   9.295   5.020  10.053 -1.3600  1.1642 -0.5117
18224SOL    HW258715   9.199   4.903  10.052  0.1567 -0.1070 -0.6880
18225SOL     OW58716   6.674   9.117   2.165 -0.0554 -0.6256  0.5584
18225SOL    HW158717   6.580   9.134   2.169  0.2439  1.7223 -0.5623
18225SOL    HW258718   6.694   9.120   2.072  1.4517  1.2685  0.8881
18226SOL     OW58719   9.211   2.758   3.343  0.1638 -0.0291 -0.0845
18226SOL    HW158720   9.277   2.770   3.411  0.6835  0.1943 -0.6172
18226SOL    HW258721   9.155   2.836   3.348 -1.5639 -1.3034  1.9596
18227SOL     OW58722   5.885   8.953   4.430  0.4653 -0.2529 -0.7388
18227SOL    HW158723   5.941   8.983   4.501  1.3285  0.0169 -1.5126
18227SOL    HW258724   5.863   9.032   4.381  0.8270 -0.5728 -1.4337
18228SOL     OW58725   2.955   7.059   6.429 -0.2355  0.3059 -0.0950
18228SOL    HW158726   2.869   7.019   6.439 -0.5817  0.5243 -1.9133
18228SOL    HW258727   2.939   7.153   6.430  0.2145  0.3985  1.1481
18229SOL     OW58728   6.338   9.157   5.814 -0.1824  0.2135  0.5888
18229SOL    HW158729   6.258   9.116   5.782  1.3327 -2.5122 -0.0543
18229SOL    HW258730   6.345   9.129   5.905 -0.2485  0.9621  0.8324
18230SOL     OW58731   0.584   7.472   0.259  0.2279  0.3651 -0.3651
18230SOL    HW158732   0.492   7.494   0.250  0.3385  0.7355 -0.6211
18230SOL    HW258733   0.592   7.438   0.348  0.1506  1.9098  0.2497
18231SOL     OW58734   9.915  10.282   0.380  0.0647 -0.3085  0.1866
18231SOL    HW158735   9.929  10.230   0.301  0.7699 -0.5415  0.4478
18231SOL    HW258736   9.827  10.318   0.371 -0.7388 -2.1504  0.3400
18232SOL     OW58737   3.930   2.453   6.406  0.1178 -0.6496  0.0684
18232SOL    HW158738   3.911   2.398   6.330 -1.1808 -1.4226  0.9313
18232SOL    HW258739   3.965   2.392   6.471 -1.3635 -0.4997  1.0422
18233SOL     OW58740   2.091   7.196   1.308 -0.1951 -0.3686  0.1271
18233SOL    HW158741   2.128   7.145   1.235  1.1640  1.8611 -0.8584
18233SOL    HW258742   2.126   7.154   1.386  1.2061 -0.7597 -0.6616
18234SOL     OW58743   7.617   6.864   6.931  0.2271 -0.4061  0.1055
18234SOL    HW158744   7.544   6.853   6.870 -1.7681  0.1959  2.2643
18234SOL    HW258745   7.656   6.948   6.906  0.0412 -0.5985 -0.9050
18235SOL     OW58746  10.181   3.706   1.972 -0.1442  0.4849 -0.3416
18235SOL    HW158747  10.168   3.618   1.936 -1.6578  0.9786 -1.0880
18235SOL    HW258748  10.128   3.707   2.051  0.2027  0.5960 -0.1113
18236SOL     OW58749   9.469   8.128   8.492 -0.1609 -0.1658  0.2205
18236SOL    HW158750   9.394   8.074   8.517  0.0661 -0.7828 -0.3864
18236SOL    HW258751   9.463   8.205   8.548 -0.3538 -0.9348  1.2998
18237SOL     OW58752   7.932   1.513   3.460 -0.0778  0.5812  0.3670
18237SOL    HW158753   7.869   1.468   3.517 -2.0498  1.7707 -0.7450
18237SOL    HW258754   7.992   1.444   3.431 -0.2983 -0.4255  2.1835
18238SOL     OW58755   1.149   0.147   4.907  0.0044  0.3046  0.2508
18238SOL    HW158756   1.168   0.173   4.817 -5.6272  0.2209 -1.2920
18238SOL    HW258757   1.138   0.230   4.954 -1.0147  0.4668 -0.2478
18239SOL     OW58758   1.261   8.102   2.863  0.2584 -0.5313  0.5993
18239SOL    HW158759   1.218   8.021   2.888  0.8991 -1.4674 -1.1608
18239SOL    HW258760   1.297   8.085   2.776  0.9744  1.4304  0.4452
18240SOL     OW58761   6.584   9.781   8.834  0.2007 -0.1341  0.6814
18240SOL    HW158762   6.515   9.845   8.852  0.8684  0.0977  2.5312
18240SOL    HW258763   6.629   9.816   8.757  0.4658  1.5933  1.5680
18241SOL     OW58764   7.515   0.879   8.045  0.3028 -0.2876 -1.1533
18241SOL    HW158765   7.499   0.965   8.083 -1.3442 -0.9800 -0.1298
18241SOL    HW258766   7.604   0.857   8.071  0.1084  0.3599  0.1481
18242SOL     OW58767   2.044   0.060   7.567  0.1911 -0.2726  0.1379
18242SOL    HW158768   2.112  -0.002   7.590  0.0974 -1.0505 -1.5342
18242SOL    HW258769   2.088   0.145   7.567  0.5651 -0.4446  1.4090
18243SOL     OW58770   1.977   1.739   6.329 -0.1979 -0.0107  0.0008
18243SOL    HW158771   1.993   1.831   6.306 -1.3123 -0.0285 -0.9586
18243SOL    HW258772   1.893   1.740   6.374  0.1991 -0.4631  0.7704
18244SOL     OW58773   7.807  10.003   8.466  0.5255 -0.3052 -0.0378
18244SOL    HW158774   7.745   9.999   8.538 -0.4780 -0.0754 -0.8758
18244SOL    HW258775   7.872  10.067   8.495 -1.6075  2.2858 -0.6316
18245SOL     OW58776   9.791   2.465   1.544 -0.0236 -0.4488 -0.8347
18245SOL    HW158777   9.747   2.545   1.573  0.9804 -0.6079  1.3420
18245SOL    HW258778   9.836   2.490   1.463 -0.0930  1.0789 -0.4285
18246SOL     OW58779   0.603   1.530   1.018  0.2045  1.4878  0.7398
18246SOL    HW158780   0.696   1.546   1.035  0.5256  0.2256  0.2925
18246SOL    HW258781   0.574   1.607   0.970  0.6375  2.5721  2.1284
18247SOL     OW58782   3.864   8.297   6.105  0.1024 -0.2946 -0.0883
18247SOL    HW158783   3.831   8.387   6.102 -1.0213 -0.6938 -0.2832
18247SOL    HW258784   3.831   8.262   6.187  0.3154 -0.6177 -0.1382
18248SOL     OW58785   2.815   1.274   9.392 -0.3650 -0.2141  0.0926
18248SOL    HW158786   2.863   1.197   9.421  0.1657 -0.6542 -1.8134
18248SOL    HW258787   2.820   1.335   9.466  2.1752 -0.6919  0.3915
18249SOL     OW58788   1.469   1.065   6.408  0.2080  0.0104  0.0398
18249SOL    HW158789   1.438   1.151   6.437 -1.4480 -0.9128  1.2218
18249SOL    HW258790   1.469   1.012   6.488 -1.6373 -1.8364 -1.0897
18250SOL     OW58791   8.323   8.290   6.398 -0.1668  0.0007  0.3524
18250SOL    HW158792   8.314   8.325   6.486 -1.8506 -1.5989  0.8771
18250SOL    HW258793   8.413   8.258   6.394  0.6133  1.9587  0.7048
18251SOL     OW58794   6.856   8.374   3.466  0.1977 -0.2815  0.0780
18251SOL    HW158795   6.813   8.333   3.540  2.5100 -3.0361  0.0273
18251SOL    HW258796   6.824   8.326   3.389  0.7653 -0.0454 -0.3157
18252SOL     OW58797   3.983   4.225   7.122  0.1785 -0.1105 -0.8465
18252SOL    HW158798   4.025   4.219   7.036  0.9444 -1.4028 -0.4211
18252SOL    HW258799   4.056   4.239   7.183 -0.4926  2.4454 -0.5227
18253SOL     OW58800   7.604   3.771   7.706 -0.4520  0.4147 -0.3224
18253SOL    HW158801   7.593   3.771   7.801  0.1736  0.4138 -0.2413
18253SOL    HW258802   7.667   3.841   7.689  1.6115 -1.3483 -0.4321
18254SOL     OW58803   9.791   6.319   1.607 -0.2457 -1.0926 -0.0905
18254SOL    HW158804   9.736   6.322   1.529  1.1974 -0.8973 -1.1324
18254SOL    HW258805   9.857   6.252   1.588  1.1777  0.1730  0.2164
18255SOL     OW58806   6.286   2.379   3.539 -0.1965  0.0005  0.1499
18255SOL    HW158807   6.264   2.298   3.585 -0.3297 -0.2909 -0.4133
18255SOL    HW258808   6.368   2.360   3.493 -0.0983  0.2645  0.2130
18256SOL     OW58809   6.571   2.546   3.056 -0.0585  0.3917  0.5844
18256SOL    HW158810   6.598   2.455   3.065  0.8841  0.7857  2.1476
18256SOL    HW258811   6.518   2.548   2.976  4.1463 -0.5672 -2.6121
18257SOL     OW58812   3.877   2.223   0.642  0.0510 -1.1222 -0.1748
18257SOL    HW158813   3.830   2.148   0.680 -0.7575 -0.9386 -0.7936
18257SOL    HW258814   3.916   2.189   0.562 -0.3081 -0.8950 -0.4516
18258SOL     OW58815   8.270   5.299   4.305 -0.2975  0.6357 -0.1685
18258SOL    HW158816   8.343   5.258   4.258  1.3484  2.5382  0.5602
18258SOL    HW258817   8.266   5.388   4.271  1.3054  2.3018  3.4199
18259SOL     OW58818  10.045   5.707   8.911 -0.1524 -0.0257  0.7439
18259SOL    HW158819   9.986   5.645   8.868  1.2273 -1.2471  0.5572
18259SOL    HW258820  10.077   5.661   8.988  2.6251 -0.5070 -0.5676
18260SOL     OW58821   7.055   9.453   8.182 -0.0456 -0.1847 -0.2071
18260SOL    HW158822   7.083   9.545   8.178  1.2983 -0.5213  0.7898
18260SOL    HW258823   7.037   9.438   8.274 -0.2046 -0.9478 -0.3599
18261SOL     OW58824   1.026   8.552   2.210  0.1210 -0.0309 -0.3431
18261SOL    HW158825   1.046   8.582   2.299 -0.5959  0.1543 -0.2316
18261SOL    HW258826   1.080   8.474   2.198 -0.4119 -0.5706  0.5834
18262SOL     OW58827   4.058   6.276  10.284  0.2404  0.4540  0.6232
18262SOL    HW158828   4.136   6.264  10.230 -0.6637  1.8161 -1.0484
18262SOL    HW258829   4.092   6.311  10.367  1.5990 -1.2337  0.8476
18263SOL     OW58830   8.283   3.594   1.002 -0.2453  0.2855  0.1365
18263SOL    HW158831   8.336   3.573   1.079  0.7276 -1.2440 -0.8810
18263SOL    HW258832   8.274   3.511   0.956 -3.0910  0.6156 -0.0607
18264SOL     OW58833   9.800   1.671   6.588  0.2505  0.0039 -0.3393
18264SOL    HW158834   9.790   1.694   6.680 -1.2275 -0.0518 -0.4544
18264SOL    HW258835   9.714   1.690   6.549  0.7379 -0.3077 -1.6266
18265SOL     OW58836   1.082  10.174   7.689  0.8123 -0.0415 -0.5212
18265SOL    HW158837   1.103  10.201   7.599 -0.2797  0.4977 -0.6257
18265SOL    HW258838   1.083  10.079   7.687 -0.7184 -0.0686 -1.4956
18266SOL     OW58839   9.897   3.377   0.930 -0.3365 -0.3941 -0.1483
18266SOL    HW158840   9.957   3.337   0.994  0.8266  1.2966 -0.1291
18266SOL    HW258841   9.929   3.347   0.845 -1.1025 -1.5958 -0.0488
18267SOL     OW58842   4.484   4.084   8.506 -0.3957 -0.4538 -0.0956
18267SOL    HW158843   4.575   4.095   8.534  0.0220 -0.2758 -1.4087
18267SOL    HW258844   4.473   3.989   8.498  0.0041 -0.4463 -0.8725
18268SOL     OW58845   5.479   2.281   0.717  0.6723  0.3341 -0.4405
18268SOL    HW158846   5.396   2.327   0.723  0.2667 -0.4018 -0.2312
18268SOL    HW258847   5.475   2.234   0.634  0.6569 -0.1121 -0.1914
18269SOL     OW58848   1.263   4.374   3.380  0.0062  0.0031 -0.0880
18269SOL    HW158849   1.176   4.364   3.343 -0.8068  0.7451  1.5261
18269SOL    HW258850   1.301   4.286   3.380 -0.6130 -0.2669 -1.0878
18270SOL     OW58851   0.120   8.960   4.897 -0.1117  0.0140  0.2959
18270SOL    HW158852   0.210   8.948   4.867  0.5754  0.7164  1.9096
18270SOL    HW258853   0.111   9.055   4.909 -0.3784 -0.1851  2.0087
18271SOL     OW58854   6.196   6.003   9.759 -0.5474 -0.1694  0.1882
18271SOL    HW158855   6.113   5.970   9.794 -1.4471  2.0473  0.3376
18271SOL    HW258856   6.242   5.925   9.729 -2.1792 -1.5926  1.1564
18272SOL     OW58857   0.236   9.865   6.234  0.0075  0.2013 -0.2738
18272SOL    HW158858   0.329   9.874   6.215  0.2015  0.2480  0.6567
18272SOL    HW258859   0.231   9.789   6.292 -0.4579  0.6118  0.2256
18273SOL     OW58860   0.593   8.609   7.482 -0.4213  0.4919 -0.0428
18273SOL    HW158861   0.601   8.703   7.501 -1.5733  0.2495  1.9258
18273SOL    HW258862   0.521   8.580   7.538 -0.3407 -1.4997 -0.9218
18274SOL     OW58863   9.932   8.142   2.401 -0.0640  0.4272 -0.4541
18274SOL    HW158864   9.933   8.198   2.478 -0.8032  1.8081 -1.3930
18274SOL    HW258865  10.005   8.173   2.348 -0.7552  0.8319 -1.1897
18275SOL     OW58866   0.258   7.457   4.216 -0.0754  0.0969  0.6129
18275SOL    HW158867   0.252   7.364   4.238 -0.2984  0.2702  1.3156
18275SOL    HW258868   0.190   7.470   4.150 -0.2397 -0.1727  0.7260
18276SOL     OW58869   9.852   8.327   2.982  0.2217 -0.0047 -0.4427
18276SOL    HW158870   9.816   8.414   2.965  1.1746  0.5055  0.0861
18276SOL    HW258871   9.820   8.305   3.069 -1.4917 -0.9828 -1.2517
18277SOL     OW58872   0.586   9.141  10.265  0.2127 -0.4200  0.0464
18277SOL    HW158873   0.636   9.122  10.185 -0.0623 -1.3060  0.0691
18277SOL    HW258874   0.643   9.112  10.336  0.6091  0.7101  0.1988
18278SOL     OW58875   4.242   5.713   3.862  0.0739 -0.1745  0.4056
18278SOL    HW158876   4.165   5.753   3.820  0.9295  0.4170 -0.6727
18278SOL    HW258877   4.266   5.774   3.931  0.0216  0.0359  0.2392
18279SOL     OW58878   0.473   5.612   4.619  1.1694  0.2984  0.1765
18279SOL    HW158879   0.422   5.532   4.604  0.4170  0.9311 -0.6982
18279SOL    HW258880   0.546   5.583   4.675  0.4686 -0.8325  0.5396
18280SOL     OW58881   6.209   3.123   8.430  0.1163 -0.0976 -0.0943
18280SOL    HW158882   6.135   3.132   8.370  1.4553 -0.0077 -1.8320
18280SOL    HW258883   6.194   3.041   8.476 -1.2992  0.1787 -0.0205
18281SOL     OW58884   5.671   7.575   3.058 -0.3882  0.0515  0.0380
18281SOL    HW158885   5.715   7.639   3.114  1.1178 -0.7504 -0.1865
18281SOL    HW258886   5.737   7.550   2.994 -1.2166 -1.1303 -0.3821
18282SOL     OW58887   5.251   9.971   0.389  0.2087 -0.2071 -0.0675
18282SOL    HW158888   5.263  10.033   0.317 -0.3272 -0.8492 -0.7368
18282SOL    HW258889   5.217   9.892   0.346 -1.6232 -0.1030  1.0584
18283SOL     OW58890  10.283   7.912   6.691  0.0752  0.1245  0.4107
18283SOL    HW158891  10.324   7.989   6.651  0.5842 -0.6112 -0.5213
18283SOL    HW258892  10.290   7.844   6.624  0.2232 -0.9253  1.4688
18284SOL     OW58893   8.334   5.163   5.149 -0.1904 -0.4066  0.3246
18284SOL    HW158894   8.361   5.137   5.061  0.7171 -1.5912  0.9205
18284SOL    HW258895   8.382   5.104   5.207 -1.1499  0.0236  1.6004
18285SOL     OW58896   1.266   7.679   3.037  0.2097 -0.3136  0.3538
18285SOL    HW158897   1.329   7.750   3.051  0.7316 -0.7322  0.1731
18285SOL    HW258898   1.317   7.599   3.048  0.0333 -0.6659 -1.1887
18286SOL     OW58899   7.350   6.487   2.132 -0.6636 -0.1907 -0.4889
18286SOL    HW158900   7.300   6.471   2.052  1.4860 -0.0730 -1.9718
18286SOL    HW258901   7.312   6.428   2.197 -1.5339 -1.4010 -2.0281
18287SOL     OW58902   5.087   6.076   9.926 -0.0399 -0.6485  0.3978
18287SOL    HW158903   5.114   6.081   9.835  1.0718 -1.1302  0.6810
18287SOL    HW258904   4.999   6.112   9.927  0.1539 -0.0980 -0.7660
18288SOL     OW58905   0.444   2.827   0.365  0.3187  0.6196  0.1015
18288SOL    HW158906   0.389   2.822   0.443  0.7888  0.4115  0.4251
18288SOL    HW258907   0.505   2.754   0.374 -0.3606 -0.1167 -1.0362
18289SOL     OW58908   4.578   9.816   2.845 -0.3333 -0.3167 -0.7623
18289SOL    HW158909   4.514   9.864   2.898 -2.5605 -4.9029  1.2174
18289SOL    HW258910   4.617   9.883   2.789 -0.9209  4.2145  3.5507
18290SOL     OW58911   4.311   8.744   5.793  0.2463  0.0005 -0.6285
18290SOL    HW158912   4.255   8.734   5.716  0.8308  0.7382 -1.1614
18290SOL    HW258913   4.360   8.662   5.798  1.1031  0.4215 -1.7839
18291SOL     OW58914   0.633   4.634   9.217 -0.5676  0.0195 -0.3216
18291SOL    HW158915   0.585   4.600   9.292 -0.1883 -1.4962 -0.7229
18291SOL    HW258916   0.660   4.722   9.243 -0.5337 -0.4322  1.2637
18292SOL     OW58917   0.921   0.347   2.850 -0.4664  0.5412 -0.5002
18292SOL    HW158918   0.912   0.298   2.768  1.9165 -2.2381  0.6941
18292SOL    HW258919   0.996   0.404   2.836  0.6534 -0.7479  0.0059
18293SOL     OW58920   1.426   4.550   1.224  0.0353  0.1692  0.1670
18293SOL    HW158921   1.474   4.480   1.179  0.0330  0.4647 -0.3109
18293SOL    HW258922   1.377   4.594   1.154 -0.0167  0.6020  0.4700
18294SOL     OW58923   1.644   9.793   4.118 -0.6143 -0.9044  0.8439
18294SOL    HW158924   1.563   9.843   4.122 -0.1532 -0.0744  0.1004
18294SOL    HW258925   1.649   9.761   4.028  1.1104  1.2171  0.0946
18295SOL     OW58926   6.672   5.526   5.474 -0.4060  0.6146 -0.6924
18295SOL    HW158927   6.750   5.579   5.456  0.6135 -0.4400  0.4078
18295SOL    HW258928   6.690   5.442   5.430 -0.1924 -0.1798  0.8464
18296SOL     OW58929   6.331   8.005   4.427 -0.3433 -0.1238 -0.0552
18296SOL    HW158930   6.394   8.075   4.412  1.1106 -0.9032  1.9917
18296SOL    HW258931   6.245   8.046   4.413  0.5372  1.0968 -2.3817
18297SOL     OW58932   6.327   3.917   7.720 -0.2878 -0.0536  1.0903
18297SOL    HW158933   6.328   4.010   7.698  1.5242 -0.3050 -0.1223
18297SOL    HW258934   6.409   3.902   7.767 -0.4770 -1.0803  1.1282
18298SOL     OW58935   2.407   9.540   4.938  0.8918  0.7437 -0.3560
18298SOL    HW158936   2.333   9.588   4.903 -0.1426  0.5587  1.4826
18298SOL    HW258937   2.415   9.463   4.881 -0.4067  0.6950 -0.4842
18299SOL     OW58938   2.748   3.622   3.504 -0.3468  0.2532  0.4023
18299SOL    HW158939   2.784   3.642   3.417 -0.4897 -0.2956  0.2059
18299SOL    HW258940   2.736   3.707   3.546 -1.5741  0.6299 -0.6360
18300SOL     OW58941   5.342   0.509   6.014  0.1577  0.0375  0.7138
18300SOL    HW158942   5.424   0.547   6.047  0.6686 -1.8221  1.7058
18300SOL    HW258943   5.368   0.426   5.975 -1.1775 -0.2558  0.3988
18301SOL     OW58944   1.014   1.582   5.262  0.1276  0.0022  0.5038
18301SOL    HW158945   1.025   1.504   5.317  1.3115 -0.0979  0.1417
18301SOL    HW258946   0.967   1.550   5.185  2.6647 -0.9095 -0.7549
18302SOL     OW58947   9.090   6.298   2.868  0.0332 -0.3214  0.0241
18302SOL    HW158948   9.158   6.348   2.913 -0.6663  1.3049 -0.6405
18302SOL    HW258949   9.113   6.207   2.884  1.3210  0.1892  1.3645
18303SOL     OW58950   0.843   2.007   5.099 -0.3091 -0.1438 -0.2647
18303SOL    HW158951   0.830   1.999   5.005 -0.8185 -1.7355 -0.0875
18303SOL    HW258952   0.812   1.924   5.135 -0.4272  0.5574  1.3437
18304SOL     OW58953   1.355   5.877   6.965  0.1607 -0.2559  0.5521
18304SOL    HW158954   1.298   5.882   6.889  0.1992  0.7295  0.5779
18304SOL    HW258955   1.387   5.787   6.965 -0.0313 -0.3327 -0.4532
18305SOL     OW58956   6.424   2.436   7.137  0.2731  0.3297 -0.3386
18305SOL    HW158957   6.471   2.354   7.153 -0.7418 -0.1039  0.5361
18305SOL    HW258958   6.477   2.481   7.071  3.0943  0.8634  2.1074
18306SOL     OW58959   3.944   0.118   0.781 -0.4840 -0.1792  0.3371
18306SOL    HW158960   3.924   0.137   0.689  0.9196 -0.2586  0.0010
18306SOL    HW258961   3.931   0.024   0.789 -0.2998 -0.2202  0.1437
18307SOL     OW58962   1.844   4.218   0.855 -0.2115  0.3906  0.0190
18307SOL    HW158963   1.857   4.234   0.762  1.2508  0.5000  0.2078
18307SOL    HW258964   1.927   4.245   0.895  0.5061 -2.7388  0.9731
18308SOL     OW58965   1.173   0.571   8.425  0.1580  0.1014 -0.2972
18308SOL    HW158966   1.252   0.529   8.458  0.4507 -0.1086 -1.2343
18308SOL    HW258967   1.193   0.665   8.425 -0.7281  0.3937  2.4245
18309SOL     OW58968   5.996   3.471   0.981  0.3534  0.2168 -0.3846
18309SOL    HW158969   6.055   3.523   1.034 -0.3633 -0.1099  0.7659
18309SOL    HW258970   5.985   3.389   1.030  2.3392 -1.5771 -2.6570
18310SOL     OW58971   1.702   6.101   4.229  0.4326  0.0762 -0.6963
18310SOL    HW158972   1.631   6.098   4.165  0.1944  0.1513 -0.4412
18310SOL    HW258973   1.717   6.010   4.253  0.4711  0.0543 -0.8043
18311SOL     OW58974   7.097   4.116   1.617  0.1555 -0.3394  0.4566
18311SOL    HW158975   7.042   4.119   1.538  0.7241 -1.1307  0.0204
18311SOL    HW258976   7.048   4.166   1.682 -0.5435 -0.0701 -0.2646
18312SOL     OW58977   7.280   4.994   0.625  0.2677  0.2325 -0.5758
18312SOL    HW158978   7.283   4.899   0.620  0.3261  0.2851 -2.3953
18312SOL    HW258979   7.304   5.015   0.715  0.2662 -1.4625 -0.1569
18313SOL     OW58980   4.634   4.216   4.646  0.5149  0.4840  0.5533
18313SOL    HW158981   4.720   4.178   4.665 -0.4208 -0.6663  2.7993
18313SOL    HW258982   4.609   4.261   4.726 -2.0050 -1.2722  0.8430
18314SOL     OW58983   0.647   9.364   3.410  0.5601  0.2247  0.1980
18314SOL    HW158984   0.612   9.299   3.470 -0.4829 -0.8135 -1.4526
18314SOL    HW258985   0.573   9.423   3.394  1.1922  1.2256  0.8632
18315SOL     OW58986   3.137   1.538   8.505  0.8418 -0.2130 -0.2419
18315SOL    HW158987   3.202   1.563   8.570  0.3112  1.2794 -0.2481
18315SOL    HW258988   3.087   1.618   8.488 -0.1443 -0.9908 -1.2124
18316SOL     OW58989   4.205   4.518   3.628 -0.4196  0.3522 -0.4753
18316SOL    HW158990   4.170   4.490   3.712  1.1786 -1.1753 -0.2610
18316SOL    HW258991   4.223   4.436   3.581  2.1601  1.0371 -0.8277
18317SOL     OW58992   0.137   1.841   5.460 -0.1918  0.3051 -0.4930
18317SOL    HW158993   0.178   1.916   5.503 -0.6976  1.5284 -2.0481
18317SOL    HW258994   0.043   1.860   5.465 -0.4027 -0.8471  0.1599
18318SOL     OW58995   1.149   8.009   9.295 -0.3493  0.4344  0.2780
18318SOL    HW158996   1.221   7.982   9.351 -1.4396  0.7026  1.8838
18318SOL    HW258997   1.090   7.934   9.293  0.9916 -0.7400 -3.0258
18319SOL     OW58998   7.537   2.231   6.255  0.0344 -0.0243 -0.3913
18319SOL    HW158999   7.597   2.286   6.205 -0.6479 -1.6747 -3.2809
18319SOL    HW259000   7.452   2.242   6.212 -0.2954 -2.6332 -0.5881
18320SOL     OW59001   8.587   2.619   9.570 -0.7685  0.2287 -0.1161
18320SOL    HW159002   8.502   2.605   9.612 -0.5600  1.2525  0.6921
18320SOL    HW259003   8.650   2.620   9.643  0.3046 -2.8930 -0.8703
18321SOL     OW59004   7.171   2.847   4.699  0.1740  0.5116  0.6827
18321SOL    HW159005   7.155   2.939   4.721  0.5483  0.2736  2.0439
18321SOL    HW259006   7.252   2.825   4.745  2.0193  0.4037 -2.3263
18322SOL     OW59007   2.511   3.871   6.496  0.0043  0.0290 -0.5854
18322SOL    HW159008   2.469   3.957   6.507  0.5068  0.1092  1.0208
18322SOL    HW259009   2.588   3.889   6.443  2.1402  1.3647  2.6162
18323SOL     OW59010   9.949   5.292   6.479  0.2627  0.1372  0.4558
18323SOL    HW159011   9.932   5.326   6.391  2.2986 -1.2138 -0.5363
18323SOL    HW259012   9.921   5.363   6.537 -0.0064  1.5771 -1.3243
18324SOL     OW59013   6.735   2.370   9.593 -0.3344  0.0534  0.0591
18324SOL    HW159014   6.674   2.299   9.569  0.6111 -0.9453  0.5511
18324SOL    HW259015   6.678   2.438   9.629 -0.9913 -2.0489  3.4059
18325SOL     OW59016   7.689   8.184   9.075 -0.1498 -0.0297  0.3591
18325SOL    HW159017   7.768   8.190   9.128 -0.4185  1.3996  0.6128
18325SOL    HW259018   7.619   8.167   9.137 -0.0867 -1.2199  0.1411
18326SOL     OW59019   9.497   5.394   4.677  0.4265 -0.6804 -0.5251
18326SOL    HW159020   9.566   5.420   4.739 -1.9495  2.1010  1.2245
18326SOL    HW259021   9.533   5.416   4.591  2.3319 -0.9190  0.1587
18327SOL     OW59022   1.025   0.521   4.551  0.8023 -0.3400  0.3418
18327SOL    HW159023   1.086   0.447   4.554 -0.7642 -1.9079 -2.3387
18327SOL    HW259024   0.988   0.524   4.640  2.2410 -1.5381  1.0441
18328SOL     OW59025   7.732   8.619   9.538 -0.3418 -0.5443 -0.4347
18328SOL    HW159026   7.715   8.625   9.632  0.1599  0.8745 -0.4139
18328SOL    HW259027   7.767   8.531   9.526 -0.2553 -0.6915  0.7440
18329SOL     OW59028   5.094   0.186   7.162 -0.2633  0.0838 -0.0892
18329SOL    HW159029   5.000   0.190   7.179 -0.2228 -0.0435  0.1870
18329SOL    HW259030   5.101   0.161   7.070 -0.4966  0.8678 -0.3253
18330SOL     OW59031   5.933   5.070   8.340  0.5446  0.1855  0.2978
18330SOL    HW159032   5.945   4.981   8.308 -0.2435  0.0937  0.2364
18330SOL    HW259033   5.997   5.122   8.290  0.5839 -0.2441 -0.1058
18331SOL     OW59034  10.090   1.726   6.320 -0.3594  1.0699  0.6118
18331SOL    HW159035  10.031   1.783   6.272 -1.4346  0.6877  1.4405
18331SOL    HW259036  10.175   1.735   6.275 -1.1849  1.1249 -1.0090
18332SOL     OW59037   5.526   7.797   0.183 -0.1164 -0.2928 -0.5974
18332SOL    HW159038   5.444   7.845   0.183 -0.4323 -0.8215 -0.8421
18332SOL    HW259039   5.586   7.851   0.234 -0.2249  0.7541 -1.5435
18333SOL     OW59040   7.414   3.129   4.400  0.1504 -0.2662  0.2300
18333SOL    HW159041   7.388   3.039   4.418  3.6911 -1.0935  2.2594
18333SOL    HW259042   7.378   3.180   4.473  1.1487 -0.7375  1.0685
18334SOL     OW59043   5.992   9.129   3.840  0.0197 -0.6354 -0.5743
18334SOL    HW159044   6.017   9.114   3.931  0.6947 -2.2193 -0.9743
18334SOL    HW259045   6.057   9.080   3.789  0.5091  1.3589 -1.9863
18335SOL     OW59046   9.727   5.763   4.257 -0.4026  0.0934 -0.8278
18335SOL    HW159047   9.660   5.700   4.283  0.1354 -1.6773 -3.3021
18335SOL    HW259048   9.681   5.846   4.250 -1.2968 -0.0911  1.9048
18336SOL     OW59049   8.748   8.519   7.035  0.3531 -0.3393 -0.0616
18336SOL    HW159050   8.766   8.611   7.058 -1.9858 -0.1085  1.2172
18336SOL    HW259051   8.735   8.520   6.940 -0.9236  0.9518  0.0886
18337SOL     OW59052   8.777   3.595   5.982 -0.3258  0.5159 -0.1205
18337SOL    HW159053   8.716   3.526   5.955  1.1992 -0.2318 -1.8874
18337SOL    HW259054   8.768   3.663   5.915 -1.6748  2.0313  1.5025
18338SOL     OW59055   9.316   3.443   2.867  0.3271 -0.3191 -0.2274
18338SOL    HW159056   9.247   3.377   2.859  0.6348 -1.0478  2.3487
18338SOL    HW259057   9.394   3.401   2.830  0.2525 -0.9726  0.3433
18339SOL     OW59058   3.211   9.445   4.485  0.5995 -0.2770  0.3921
18339SOL    HW159059   3.202   9.523   4.430 -0.5676 -0.3102  0.5065
18339SOL    HW259060   3.232   9.478   4.572 -0.2679 -0.0576  0.5247
18340SOL     OW59061   9.208  10.014   5.412  0.4237 -0.3788  0.1777
18340SOL    HW159062   9.193   9.996   5.319 -2.1024 -0.9577  0.6219
18340SOL    HW259063   9.127  10.054   5.442  1.1000 -0.4121  2.1970
18341SOL     OW59064   5.084   2.976   0.383  0.3719 -0.2639 -0.0626
18341SOL    HW159065   5.153   2.911   0.372 -0.0151 -0.8255  0.7390
18341SOL    HW259066   5.015   2.930   0.431  0.4302  0.9625  1.2620
18342SOL     OW59067   2.106   5.236   7.858 -0.7875  0.0669  0.0428
18342SOL    HW159068   2.173   5.243   7.789 -0.2362 -3.1520  0.0954
18342SOL    HW259069   2.039   5.180   7.820 -0.3376 -2.0352  2.1270
18343SOL     OW59070   2.369   3.594   2.686 -0.3686 -0.2242 -0.1417
18343SOL    HW159071   2.414   3.615   2.768 -0.9672  0.4362  0.0242
18343SOL    HW259072   2.401   3.507   2.663  1.2439  0.3626 -0.2150
18344SOL     OW59073   5.638   0.587   4.953 -0.3556 -0.4892  1.0133
18344SOL    HW159074   5.616   0.676   4.980  0.2868 -0.3101  0.9498
18344SOL    HW259075   5.707   0.559   5.013 -0.3710 -0.8495  0.8682
18345SOL     OW59076  10.116   3.444   1.848  0.1686  0.2326  0.2420
18345SOL    HW159077  10.195   3.391   1.853  0.8379  1.0615 -0.9878
18345SOL    HW259078  10.097   3.451   1.755 -2.5493 -1.5979  0.5211
18346SOL     OW59079   1.940   5.493   8.375 -0.1206  0.1976  0.8036
18346SOL    HW159080   2.007   5.545   8.418 -0.7086  0.7498  1.0749
18346SOL    HW259081   1.983   5.410   8.352  0.3479  0.1182  1.9476
18347SOL     OW59082   5.371   6.045   1.972 -0.0657 -0.3848 -0.1499
18347SOL    HW159083   5.327   5.963   1.989 -0.2021 -0.0878  0.9596
18347SOL    HW259084   5.391   6.081   2.058  0.9801  0.2204 -0.6189
18348SOL     OW59085   0.090   8.307   1.104 -0.5273  0.9394 -0.1774
18348SOL    HW159086   0.135   8.245   1.161 -0.6504  1.5465  0.6017
18348SOL    HW259087   0.107   8.276   1.015  1.7557  1.3666  0.0584
18349SOL     OW59088   1.971   3.854   0.141  0.3910  0.2547  0.8030
18349SOL    HW159089   2.031   3.814   0.078  0.9296  1.2618  0.6560
18349SOL    HW259090   1.888   3.858   0.095  0.2171 -1.0255  0.9573
18350SOL     OW59091   8.363   6.243   6.514 -0.2130  0.0071 -0.5164
18350SOL    HW159092   8.306   6.224   6.440  1.8642 -1.2867 -1.8670
18350SOL    HW259093   8.328   6.189   6.585  0.0803 -1.8135 -1.6990
18351SOL     OW59094   1.507   1.061   9.887  0.7330  0.1812  0.2270
18351SOL    HW159095   1.591   1.104   9.874  0.3321  0.2327 -3.0183
18351SOL    HW259096   1.530   0.973   9.919  1.9791  0.3355 -0.1798
18352SOL     OW59097   0.988   4.065   1.501 -0.2641 -0.0560  0.0841
18352SOL    HW159098   0.926   4.129   1.465 -0.3894  1.7183  3.0583
18352SOL    HW259099   1.074   4.100   1.480 -0.3354  0.6685  0.9251
18353SOL     OW59100   0.143   0.624   4.229  0.6016 -0.4221 -0.3989
18353SOL    HW159101   0.197   0.567   4.175  1.7082  2.2198 -2.2794
18353SOL    HW259102   0.080   0.662   4.168  0.4045  0.9447  0.6182
18354SOL     OW59103   0.319   2.808   0.588 -0.5095  0.5453  0.1712
18354SOL    HW159104   0.356   2.886   0.629 -1.2240  0.4144  1.1012
18354SOL    HW259105   0.344   2.735   0.646 -1.4799  0.3509  0.3786
18355SOL     OW59106   3.203   2.975   6.040 -0.5354  0.3264 -0.0721
18355SOL    HW159107   3.222   3.059   6.080 -1.6108 -1.1165  3.9248
18355SOL    HW259108   3.172   2.996   5.952  0.4735  3.9358  0.2982
18356SOL     OW59109   9.190   5.925   7.671 -0.0863 -0.4090 -0.1278
18356SOL    HW159110   9.133   5.969   7.608 -1.6067 -0.1557  1.3575
18356SOL    HW259111   9.275   5.968   7.660 -1.2214  2.1797  0.4848
18357SOL     OW59112   1.612   3.429   1.766  0.1342 -0.1160 -0.7308
18357SOL    HW159113   1.591   3.336   1.752 -0.9593 -0.1410  0.7737
18357SOL    HW259114   1.695   3.428   1.814 -0.5635 -0.4118  0.5180
18358SOL     OW59115   6.739   8.034   1.149  0.4322  0.5754  0.0335
18358SOL    HW159116   6.802   8.087   1.198 -0.9101  1.2812  1.0981
18358SOL    HW259117   6.744   7.947   1.189 -0.4915  1.0870  1.3677
18359SOL     OW59118   4.903   1.082   2.934 -0.7157  0.0853  0.5306
18359SOL    HW159119   4.979   1.071   2.877 -1.4461 -1.3790 -0.2017
18359SOL    HW259120   4.906   1.006   2.992 -1.3665  0.2580  0.7968
18360SOL     OW59121   3.448   0.602   8.998  0.2926 -0.6121  0.7756
18360SOL    HW159122   3.527   0.553   9.024  0.3012 -0.1183  1.7637
18360SOL    HW259123   3.463   0.690   9.033  1.3344  0.8706 -2.8980
18361SOL     OW59124   9.034   2.144   1.372 -0.4223  0.2664 -0.1979
18361SOL    HW159125   8.970   2.082   1.407  1.0646 -0.3042  1.7143
18361SOL    HW259126   9.000   2.230   1.395 -1.0980  0.0318 -0.3080
18362SOL     OW59127   2.050   3.181   5.595  0.0361  0.2066 -0.2756
18362SOL    HW159128   2.113   3.128   5.643 -1.3867 -0.9911  0.3243
18362SOL    HW259129   2.075   3.272   5.613  0.2223 -0.2256  1.8116
18363SOL     OW59130   4.226   0.673   9.344  0.0082  0.2710  0.3374
18363SOL    HW159131   4.244   0.581   9.324  1.8231  0.9118 -1.3790
18363SOL    HW259132   4.135   0.686   9.316  0.2413 -0.6395 -0.9736
18364SOL     OW59133   9.963   5.011   0.300  0.2006 -0.1263 -0.9751
18364SOL    HW159134   9.946   4.927   0.343  1.2915 -0.8641 -1.9147
18364SOL    HW259135   9.942   4.995   0.208 -0.6506  0.9768 -0.9871
18365SOL     OW59136   9.350   7.308   0.517 -0.3031  0.1831  0.0618
18365SOL    HW159137   9.284   7.371   0.487  1.2858  1.4540 -0.8916
18365SOL    HW259138   9.387   7.349   0.596 -1.5672 -1.1990  1.4522
18366SOL     OW59139   2.670   4.314   5.074  0.0323  0.2995  0.4566
18366SOL    HW159140   2.664   4.249   5.144 -0.2116  0.7365  0.8499
18366SOL    HW259141   2.609   4.283   5.007  0.9911 -0.6427 -0.0046
18367SOL     OW59142   8.395   4.261   9.538 -0.0253 -0.3667  0.3982
18367SOL    HW159143   8.395   4.319   9.614 -0.9465 -0.6399  0.6198
18367SOL    HW259144   8.487   4.254   9.513  0.1442  0.9507  0.5457
18368SOL     OW59145   0.828   3.174   6.805  0.6635 -0.7606 -0.6369
18368SOL    HW159146   0.881   3.229   6.747  0.2668  0.4551  0.1358
18368SOL    HW259147   0.740   3.212   6.802  0.8591 -0.0026  1.5715
18369SOL     OW59148   5.313   2.061   3.276  0.4701 -0.2615  0.1719
18369SOL    HW159149   5.356   2.082   3.360  0.9846 -0.1074 -0.1244
18369SOL    HW259150   5.354   2.121   3.214  0.6077 -0.8720 -0.3289
18370SOL     OW59151   4.792   3.114   0.231 -0.2301 -0.2526 -0.5673
18370SOL    HW159152   4.714   3.080   0.274 -0.1462  0.1990 -0.0496
18370SOL    HW259153   4.844   3.035   0.212 -1.9257 -0.8567 -3.3017
18371SOL     OW59154   9.856   2.769   4.133  0.2264  0.1146  0.0054
18371SOL    HW159155   9.792   2.795   4.199  0.8674  0.4655  0.5067
18371SOL    HW259156   9.892   2.686   4.167 -0.5541 -0.5313 -0.7001
18372SOL     OW59157   7.166   6.162   4.939  0.2413 -0.1822 -0.2385
18372SOL    HW159158   7.183   6.241   4.886 -0.5886  0.4791  0.4439
18372SOL    HW259159   7.198   6.185   5.026  0.8744 -0.9707 -0.2582
18373SOL     OW59160   6.207   7.111   6.580  0.3498 -0.1367  0.6482
18373SOL    HW159161   6.169   7.181   6.527 -0.2402 -1.0965 -0.2407
18373SOL    HW259162   6.296   7.140   6.598  0.6574  0.1063 -1.1216
18374SOL     OW59163   9.712   0.370   1.882  0.2067  0.1851 -0.3939
18374SOL    HW159164   9.645   0.433   1.906 -0.1109  0.4143 -1.7816
18374SOL    HW259165   9.701   0.298   1.944 -0.0634  1.0492  0.5848
18375SOL     OW59166  10.099   5.390   9.751  0.0240  0.7528 -0.1017
18375SOL    HW159167  10.185   5.420   9.720  0.3192 -0.3035 -0.3318
18375SOL    HW259168  10.037   5.454   9.715  0.7308  1.7267  0.3500
18376SOL     OW59169   8.568   7.249   6.627  0.1685  0.1286 -0.5985
18376SOL    HW159170   8.541   7.334   6.594 -0.4098  1.6073  3.2300
18376SOL    HW259171   8.664   7.253   6.629  0.1418  2.2007  2.6987
18377SOL     OW59172   8.732   4.081   0.223 -0.2315 -0.2881  0.6362
18377SOL    HW159173   8.801   4.046   0.279 -0.5384 -0.6583  0.7874
18377SOL    HW259174   8.778   4.108   0.143 -0.1311 -2.3081 -0.0594
18378SOL     OW59175   6.743   1.411   7.214  0.7185  0.3105 -0.2269
18378SOL    HW159176   6.733   1.325   7.256  0.9307  0.7813  0.8198
18378SOL    HW259177   6.790   1.393   7.133  0.0261 -0.6654 -0.4247
18379SOL     OW59178   9.976   8.157   9.899  0.1106  0.4711 -0.4745
18379SOL    HW159179   9.908   8.179   9.836  0.0787 -0.0745 -0.6291
18379SOL    HW259180   9.954   8.208   9.977 -0.0123  0.9219 -0.7978
18380SOL     OW59181   0.167   0.565   8.473  0.0329  0.5119  0.2650
18380SOL    HW159182   0.170   0.472   8.494  0.5390  0.4270 -0.1686
18380SOL    HW259183   0.237   0.578   8.409 -0.3686  1.0869 -0.0736
18381SOL     OW59184   2.796   0.644   1.967 -0.3262 -0.7277  0.0306
18381SOL    HW159185   2.845   0.619   1.889 -0.3591 -0.6493 -0.0151
18381SOL    HW259186   2.733   0.709   1.937  0.6824  0.4503  0.3769
18382SOL     OW59187   9.884   9.126   8.801 -0.5536  0.8145 -0.1268
18382SOL    HW159188   9.920   9.184   8.734  0.5708  1.0257  0.6356
18382SOL    HW259189   9.812   9.175   8.840 -3.2887 -0.4331 -3.1288
18383SOL     OW59190   8.408   9.091   3.338  0.2749 -0.1506  0.7154
18383SOL    HW159191   8.502   9.086   3.319  0.1609  2.6499 -1.2453
18383SOL    HW259192   8.403   9.080   3.433  2.6457  0.0908  0.9363
18384SOL     OW59193   5.693   7.129   7.677  0.0358 -0.0536 -0.6361
18384SOL    HW159194   5.733   7.210   7.642  0.8579 -0.6633 -1.1478
18384SOL    HW259195   5.665   7.081   7.599 -1.2032  0.0993 -0.2981
18385SOL     OW59196   2.832   0.333   2.888  0.1056  0.3368 -0.0374
18385SOL    HW159197   2.763   0.394   2.862  1.3336  1.1698 -1.5708
18385SOL    HW259198   2.911   0.367   2.846  1.3138 -0.9979  1.0343
18386SOL     OW59199   0.854   4.533   9.894 -0.2436  0.0493  0.1650
18386SOL    HW159200   0.898   4.495   9.970  1.1112 -2.7155 -1.8011
18386SOL    HW259201   0.761   4.528   9.915  0.1197 -0.0771  1.8665
18387SOL     OW59202   5.730   0.523   1.561  0.0591 -0.2569  0.4357
18387SOL    HW159203   5.797   0.592   1.556 -0.4890  0.2972  0.5783
18387SOL    HW259204   5.780   0.442   1.555  0.6241  0.1529 -0.8844
18388SOL     OW59205   5.829  10.102   3.125  0.2436  0.7265  0.2893
18388SOL    HW159206   5.780  10.147   3.056 -0.4746 -1.1941 -0.5210
18388SOL    HW259207   5.864  10.173   3.179 -0.6462  2.2480 -1.0226
18389SOL     OW59208   8.841   3.639   7.097  0.2561 -0.1008  0.2701
18389SOL    HW159209   8.757   3.641   7.051 -0.7599  1.0237  2.0510
18389SOL    HW259210   8.853   3.547   7.120 -1.1751 -0.1095  1.1214
18390SOL     OW59211   2.297   9.701   8.213  0.0529  0.3697 -0.0228
18390SOL    HW159212   2.330   9.790   8.198 -0.4571  0.0935 -3.6480
18390SOL    HW259213   2.210   9.700   8.173 -0.7034 -1.3253  1.5210
18391SOL     OW59214   1.121   6.993   0.273 -0.8782  0.4522 -0.4052
18391SOL    HW159215   1.198   7.044   0.298 -0.4610  0.0067 -0.7463
18391SOL    HW259216   1.119   6.921   0.336  0.5255 -1.0153 -1.9173
18392SOL     OW59217   4.467   3.665   4.494  0.4252  0.4624  0.0926
18392SOL    HW159218   4.519   3.586   4.478  0.0672  0.4605 -1.1104
18392SOL    HW259219   4.530   3.737   4.491  0.6630  0.2782  0.6266
18393SOL     OW59220   1.561   9.343   9.898  0.3141 -0.1965  0.3252
18393SOL    HW159221   1.581   9.414   9.959 -0.3530  0.3542 -0.0925
18393SOL    HW259222   1.531   9.386   9.818  1.0416 -0.9091 -0.3622
18394SOL     OW59223   0.890   2.146   1.176 -0.0097 -0.2061  0.7233
18394SOL    HW159224   0.855   2.119   1.261  0.7886  0.6271  1.3357
18394SOL    HW259225   0.979   2.176   1.195 -0.4818  1.8224 -0.0652
18395SOL     OW59226   6.598   3.710   5.734 -0.3224  0.3707  0.0086
18395SOL    HW159227   6.503   3.711   5.726 -0.5242 -2.0243  1.0850
18395SOL    HW259228   6.618   3.778   5.799 -1.3997  0.3019  0.4288
18396SOL     OW59229   5.792   8.699   8.607  0.1678  0.0191 -0.6612
18396SOL    HW159230   5.879   8.670   8.635 -0.4473  1.0082  2.7771
18396SOL    HW259231   5.803   8.791   8.584  0.0347  0.1501 -0.2070
18397SOL     OW59232   3.241   7.824   3.786 -0.5442 -1.0144  0.2358
18397SOL    HW159233   3.319   7.846   3.734  0.0167  0.4643  1.6056
18397SOL    HW259234   3.196   7.757   3.735 -0.3238  0.7359 -2.4598
18398SOL     OW59235   2.545   6.039   0.727  0.0496 -0.2940  0.0130
18398SOL    HW159236   2.624   6.084   0.698  0.5492 -0.7412  0.6492
18398SOL    HW259237   2.561   5.947   0.707 -0.4236 -0.3586 -0.0859
18399SOL     OW59238   7.650   1.177   7.065  0.0076 -0.1278 -0.8159
18399SOL    HW159239   7.661   1.204   6.974 -0.3256  2.5622 -0.1302
18399SOL    HW259240   7.592   1.243   7.103  1.1866 -0.4197  1.6816
18400SOL     OW59241   1.811   1.243   5.479  0.1007  0.0039 -0.1361
18400SOL    HW159242   1.758   1.259   5.401 -0.1443  0.1576  0.0591
18400SOL    HW259243   1.895   1.283   5.459  0.7948 -1.8449 -1.1928
18401SOL     OW59244   5.123   9.161   5.849 -0.5461  0.0182 -0.4073
18401SOL    HW159245   5.200   9.123   5.892 -0.8280  0.2954  0.3684
18401SOL    HW259246   5.159   9.220   5.783 -0.1023 -0.6728 -0.7896
18402SOL     OW59247   0.446   6.945   6.861  0.3722  0.2532 -0.0369
18402SOL    HW159248   0.367   6.994   6.839  0.7853  0.4868 -1.0419
18402SOL    HW259249   0.415   6.869   6.910 -0.4199  0.6148  0.0313
18403SOL     OW59250   6.754   8.842   2.728 -0.7466  0.1036 -0.2940
18403SOL    HW159251   6.805   8.889   2.794 -0.6319  2.5666 -1.9993
18403SOL    HW259252   6.744   8.754   2.764  2.1966  0.3384  1.4351
18404SOL     OW59253   3.431  10.215   6.960  0.2785  0.6190 -0.5178
18404SOL    HW159254   3.379  10.209   7.041 -0.3852 -1.0382 -1.0308
18404SOL    HW259255   3.512  10.257   6.988  0.2008 -0.2104  1.0922
18405SOL     OW59256   0.704   5.146   8.812 -0.2959  0.1494 -0.0273
18405SOL    HW159257   0.771   5.215   8.816 -0.0968 -0.0351 -0.1387
18405SOL    HW259258   0.708   5.116   8.721 -2.4567  2.0406 -0.8546
18406SOL     OW59259   8.920   2.322   8.106 -0.2719 -0.6603 -0.5822
18406SOL    HW159260   8.905   2.237   8.148  2.6728 -1.2214 -0.4568
18406SOL    HW259261   8.987   2.304   8.040  2.3493  1.9160  1.1323
18407SOL     OW59262   9.050   3.531   0.567  0.1526  0.2632 -0.0660
18407SOL    HW159263   9.121   3.555   0.626 -1.6207  2.5885  1.2658
18407SOL    HW259264   9.050   3.435   0.567  2.2314  0.2061  1.1121
18408SOL     OW59265   1.201   9.187   2.524 -0.2542 -0.1907  0.1865
18408SOL    HW159266   1.290   9.212   2.499 -0.8333  0.6680 -1.1078
18408SOL    HW259267   1.192   9.219   2.614  0.9326 -0.8294  0.5618
18409SOL     OW59268   9.793   3.979   3.240  0.4388  0.1703  0.3849
18409SOL    HW159269   9.840   4.001   3.159 -0.9390  1.2754 -0.1525
18409SOL    HW259270   9.810   3.885   3.253 -0.6606 -0.4610 -2.1255
18410SOL     OW59271   6.542   7.157   1.188  0.3444 -0.1859  0.0370
18410SOL    HW159272   6.628   7.197   1.195 -0.3607  1.1444  2.5628
18410SOL    HW259273   6.558   7.063   1.200  1.3285  0.2414  3.0410
18411SOL     OW59274   3.684   7.556   0.998  0.3425  0.6598 -0.6558
18411SOL    HW159275   3.703   7.467   0.970  0.8913  0.6500 -0.2749
18411SOL    HW259276   3.619   7.547   1.068 -0.4046  0.6343 -1.3364
18412SOL     OW59277   3.592   1.790   2.469 -0.0532  0.1130 -0.0357
18412SOL    HW159278   3.675   1.817   2.508 -0.1162  0.2099  0.0327
18412SOL    HW259279   3.544   1.747   2.540  0.0529 -0.1950 -0.1488
18413SOL     OW59280   3.510   9.261   4.897 -0.6778 -0.4136  0.3865
18413SOL    HW159281   3.479   9.264   4.987  0.4686  0.3394  0.7750
18413SOL    HW259282   3.587   9.317   4.896  0.0568 -1.3946 -0.7878
18414SOL     OW59283   2.147   9.332   7.102  0.0705  0.2328  0.5596
18414SOL    HW159284   2.090   9.334   7.025 -2.4553 -1.3176  2.2249
18414SOL    HW259285   2.162   9.424   7.124 -0.8072  0.6888 -0.6316
18415SOL     OW59286   5.656   1.406   8.342 -0.5966  0.2006  0.3427
18415SOL    HW159287   5.645   1.493   8.303 -1.3299 -0.4532 -0.9498
18415SOL    HW259288   5.649   1.421   8.436  0.6215  1.7293  0.2243
18416SOL     OW59289   7.522   3.848   8.313  0.2074 -0.0032  0.0339
18416SOL    HW159290   7.618   3.845   8.318  0.1847 -0.6819  0.1959
18416SOL    HW259291   7.504   3.883   8.225  0.6165 -1.9913 -0.8943
18417SOL     OW59292  10.256   5.905   7.929  0.3831  0.2467  0.7515
18417SOL    HW159293  10.324   5.861   7.877  0.3876  1.4029 -0.2673
18417SOL    HW259294  10.230   5.840   7.994  0.9594 -0.9708 -0.1848
18418SOL     OW59295   3.021   3.456   9.187 -0.2271  0.0282 -0.3766
18418SOL    HW159296   3.015   3.433   9.280 -0.0927 -0.7571 -0.5528
18418SOL    HW259297   2.961   3.396   9.144  1.8660 -1.6513 -1.1158
18419SOL     OW59298   1.219   9.870  10.232 -0.2562  0.5631  0.5319
18419SOL    HW159299   1.269   9.918  10.166  0.0895  0.1992  0.5260
18419SOL    HW259300   1.143   9.926  10.251  1.1101  2.0556  1.9365
18420SOL     OW59301   3.992   3.968   9.649 -0.4067  0.0663  0.4287
18420SOL    HW159302   3.984   3.980   9.554 -0.0846 -0.4456  0.3312
18420SOL    HW259303   4.066   4.023   9.674  1.8802 -2.5023 -0.2117
18421SOL     OW59304   2.948   8.150   4.836  0.4931 -0.0576 -0.1783
18421SOL    HW159305   3.008   8.179   4.768 -1.8655 -0.2075 -2.4968
18421SOL    HW259306   2.888   8.224   4.849  1.7200  0.5437  2.9276
18422SOL     OW59307   7.205  10.173   0.618  0.2572  0.1605 -0.4040
18422SOL    HW159308   7.260  10.238   0.575  0.6193  0.1415  0.0317
18422SOL    HW259309   7.262  10.132   0.683  0.2479 -1.0829 -1.1442
18423SOL     OW59310   6.631   0.402   6.431  0.0433 -0.2765 -0.7983
18423SOL    HW159311   6.618   0.430   6.340 -1.5041  0.8125 -0.2814
18423SOL    HW259312   6.603   0.478   6.483  0.8122 -0.9270  0.5872
18424SOL     OW59313   6.391   5.926  10.167  1.3530  0.4517  0.0744
18424SOL    HW159314   6.486   5.921  10.156  1.0200  0.2985 -4.5645
18424SOL    HW259315   6.374   6.020  10.177  1.9051  0.6147 -0.4512
18425SOL     OW59316   2.988   7.774   3.097 -0.1732  0.2310 -0.8790
18425SOL    HW159317   3.043   7.853   3.103 -0.2049  0.2466 -0.7887
18425SOL    HW259318   3.049   7.705   3.071 -0.1652  0.3074 -1.0622
18426SOL     OW59319   2.129   0.867   5.564  0.0837 -0.5372  0.1398
18426SOL    HW159320   2.183   0.853   5.486 -0.0688 -0.2008 -0.0283
18426SOL    HW259321   2.191   0.897   5.631  0.0375  0.3510 -0.1980
18427SOL     OW59322   0.702   6.231   9.038 -0.0402  0.3621 -0.6396
18427SOL    HW159323   0.750   6.171   9.096 -1.5199  1.1652  1.5544
18427SOL    HW259324   0.621   6.184   9.017  0.3616  0.1925 -1.9101
18428SOL     OW59325   2.494   7.307   1.424  0.0783 -0.5770 -0.0657
18428SOL    HW159326   2.586   7.319   1.398  0.0002 -0.6600 -0.3885
18428SOL    HW259327   2.489   7.217   1.455  0.6136  0.0904  2.1453
18429SOL     OW59328   3.816   5.553   6.626 -0.1803  0.2954  0.5705
18429SOL    HW159329   3.796   5.523   6.715  0.1659  2.2926  1.3654
18429SOL    HW259330   3.742   5.608   6.602  0.7507  1.5982  0.5537
18430SOL     OW59331   4.696   8.251   0.263 -0.2486 -0.1540  0.3987
18430SOL    HW159332   4.672   8.173   0.214 -0.7805 -0.3825  1.0055
18430SOL    HW259333   4.682   8.324   0.203 -1.8580 -0.3371  0.5210
18431SOL     OW59334   3.686   3.464   8.466  0.0304  0.2730 -0.4702
18431SOL    HW159335   3.759   3.508   8.509 -0.0476  0.2723 -0.3374
18431SOL    HW259336   3.657   3.398   8.529 -0.5606  0.7620 -0.2215
18432SOL     OW59337   8.059   2.346   6.696  1.0760 -0.0569 -0.4890
18432SOL    HW159338   8.116   2.270   6.707 -0.3096 -0.8672  2.0600
18432SOL    HW259339   8.043   2.377   6.786 -0.7456  1.4366 -1.2520
18433SOL     OW59340   7.066   5.581   3.329 -0.1133 -0.4123  0.1262
18433SOL    HW159341   6.975   5.553   3.335 -0.2197  0.0174  0.5624
18433SOL    HW259342   7.071   5.660   3.382 -0.2323  1.4993 -2.5059
18434SOL     OW59343   0.256   3.621   4.056 -0.0207 -0.0756 -0.4709
18434SOL    HW159344   0.181   3.574   4.094 -0.8925 -0.8276 -2.9217
18434SOL    HW259345   0.217   3.680   3.992  1.1954  2.9192  1.2983
18435SOL     OW59346   3.909   6.252   6.829 -0.7500  0.1180  0.0777
18435SOL    HW159347   3.938   6.171   6.871  0.1759  1.9859  3.4225
18435SOL    HW259348   3.822   6.269   6.866 -0.1976  1.4887  0.8241
18436SOL     OW59349   6.360   0.042   9.058 -0.1639  0.0256 -0.3431
18436SOL    HW159350   6.357   0.132   9.089 -0.7771 -0.5917  1.5309
18436SOL    HW259351   6.399  -0.007   9.130  0.7395 -1.1400 -1.5716
18437SOL     OW59352   2.272   8.633   8.263 -0.3744 -0.2429  0.3141
18437SOL    HW159353   2.313   8.547   8.273 -0.4814 -0.2258  0.9165
18437SOL    HW259354   2.341   8.687   8.224  0.3335 -0.1030  1.7125
18438SOL     OW59355   1.295   8.928   2.377  0.2627 -0.6489  0.3566
18438SOL    HW159356   1.315   8.956   2.467 -0.0230 -0.2677  0.3074
18438SOL    HW259357   1.225   8.863   2.388 -0.5971  0.2464  0.3535
18439SOL     OW59358   1.302   3.093   8.380 -0.3656 -0.9501  0.6355
18439SOL    HW159359   1.368   3.079   8.312  0.5219  0.8216  1.0805
18439SOL    HW259360   1.351   3.093   8.462 -1.1386 -1.0769  1.1121
18440SOL     OW59361   4.395   6.648   9.003 -0.1407 -0.7583 -0.5139
18440SOL    HW159362   4.300   6.654   9.016 -0.2198 -1.0666 -0.9149
18440SOL    HW259363   4.411   6.698   8.923  0.0638 -0.5537 -0.3467
18441SOL     OW59364  10.077   1.230   6.688  0.1143 -0.2917 -0.3750
18441SOL    HW159365  10.007   1.295   6.685 -0.3688 -0.7437  0.7070
18441SOL    HW259366  10.032   1.146   6.689  0.6968 -0.6102 -0.4051
18442SOL     OW59367   5.481   6.694   9.960 -0.1498 -0.6485  0.0011
18442SOL    HW159368   5.479   6.780   9.918  0.8584 -0.0393  1.1309
18442SOL    HW259369   5.389   6.672   9.976 -0.3934  0.5494  0.3381
18443SOL     OW59370   3.066   9.946   0.357  0.0827 -0.5578  0.3557
18443SOL    HW159371   3.110  10.028   0.378 -2.4452  1.0711 -0.2592
18443SOL    HW259372   3.087   9.929   0.266  1.4231 -1.1817  0.7610
18444SOL     OW59373   6.239   2.689   5.819  0.0992 -0.1204  0.5651
18444SOL    HW159374   6.226   2.781   5.794 -1.8086 -0.3488  0.5795
18444SOL    HW259375   6.240   2.642   5.735  2.8912  0.0386  0.4152
18445SOL     OW59376   7.429   9.825   4.278  0.3870 -0.1652  0.2988
18445SOL    HW159377   7.440   9.767   4.203  0.1195  0.9024 -0.6055
18445SOL    HW259378   7.334   9.831   4.290  0.4427 -1.9436  2.0713
18446SOL     OW59379   3.160   3.938   9.904 -0.2729  0.1630 -0.3850
18446SOL    HW159380   3.076   3.934   9.858  0.2136 -3.1817 -1.2018
18446SOL    HW259381   3.155   3.869   9.970  0.8402  1.7708  1.4964
18447SOL     OW59382   2.321   0.393   4.269 -0.0362  0.0390 -0.1580
18447SOL    HW159383   2.377   0.329   4.313 -1.0336 -0.1861  0.8546
18447SOL    HW259384   2.323   0.368   4.177  1.7873  0.2622 -0.2049
18448SOL     OW59385   4.872   7.033   0.049 -0.3529 -0.3152  0.1238
18448SOL    HW159386   4.884   6.938   0.061 -0.8978 -0.4893 -0.6420
18448SOL    HW259387   4.860   7.066   0.138 -2.3924 -1.2971  0.2659
18449SOL     OW59388   1.337   5.249   3.521 -0.0167  0.1101 -0.9274
18449SOL    HW159389   1.348   5.264   3.615  1.8574 -1.5495 -0.8295
18449SOL    HW259390   1.252   5.288   3.501 -1.2404 -0.8900  1.7706
18450SOL     OW59391   3.446   8.949   5.480  0.1101 -0.1947  0.3709
18450SOL    HW159392   3.379   8.976   5.417  0.4986  1.2102  0.5318
18450SOL    HW259393   3.397   8.924   5.558 -0.3889 -2.1112 -0.5030
18451SOL     OW59394   8.138   3.982   8.456 -0.2437  0.0140 -0.1842
18451SOL    HW159395   8.056   3.960   8.411 -0.1887 -0.2717 -0.1530
18451SOL    HW259396   8.165   4.066   8.420  0.3131 -0.6683 -1.4155
18452SOL     OW59397   5.924   0.751   6.294  0.1053 -0.4877 -0.4246
18452SOL    HW159398   5.990   0.697   6.250  1.0586 -0.0267  0.3816
18452SOL    HW259399   5.975   0.803   6.356 -0.9424  0.4398 -0.3224
18453SOL     OW59400   9.130   8.234   3.984  0.3898 -0.1959  0.8914
18453SOL    HW159401   9.070   8.285   4.039 -1.7911 -2.2371  0.5462
18453SOL    HW259402   9.111   8.264   3.895 -0.5011 -1.1540  0.7399
18454SOL     OW59403   4.935   5.320   0.989  0.2195 -0.4213 -0.2332
18454SOL    HW159404   4.904   5.407   1.017  1.1838  0.1865 -0.9979
18454SOL    HW259405   4.982   5.286   1.065  3.1672  1.3915 -1.0812
18455SOL     OW59406  10.129   6.861   2.607 -0.0030 -0.3114 -0.4228
18455SOL    HW159407  10.210   6.896   2.645  0.1168  2.0679 -2.5506
18455SOL    HW259408  10.089   6.811   2.678  1.3334  1.8202  2.0471
18456SOL     OW59409   2.246   5.827   2.242 -0.1010 -0.1806  0.3617
18456SOL    HW159410   2.205   5.812   2.157 -0.3228 -0.3699  0.4984
18456SOL    HW259411   2.229   5.746   2.291  4.0250 -2.1181 -0.9505
18457SOL     OW59412   8.170   9.103   8.785 -0.1008 -0.1968  0.5839
18457SOL    HW159413   8.261   9.076   8.793 -0.5063 -1.0151  3.2768
18457SOL    HW259414   8.133   9.045   8.718  1.3974  0.5051 -0.9508
18458SOL     OW59415   3.992   3.436   0.248  0.0454  0.0594 -0.4455
18458SOL    HW159416   3.953   3.378   0.184  1.0037 -1.1222 -0.0084
18458SOL    HW259417   4.050   3.380   0.299 -0.5740  0.9785  1.3731
18459SOL     OW59418   2.349   9.836   3.397  0.2350  0.0915 -0.0432
18459SOL    HW159419   2.396   9.753   3.403  1.3111  0.5293 -1.6152
18459SOL    HW259420   2.404   9.890   3.339 -1.7009  0.9957 -1.1295
18460SOL     OW59421   6.461   8.388   1.899  0.1009 -0.1705 -0.1335
18460SOL    HW159422   6.419   8.303   1.907 -0.4613  0.2167  1.6440
18460SOL    HW259423   6.391   8.448   1.875  0.4235 -0.1246 -1.0111
18461SOL     OW59424   7.169   2.501   4.283 -0.8449 -0.2228 -0.2990
18461SOL    HW159425   7.129   2.496   4.370 -0.7417  0.1314 -0.2298
18461SOL    HW259426   7.145   2.588   4.250 -1.1934 -0.4978 -0.7777
18462SOL     OW59427   6.537   3.299   3.075  0.2463  0.1769 -0.8273
18462SOL    HW159428   6.485   3.227   3.111  1.2793 -0.2698 -0.1827
18462SOL    HW259429   6.624   3.262   3.065  0.7502  1.2950 -0.6504
18463SOL     OW59430   8.596   5.893   4.435 -0.0244 -0.3700 -0.2347
18463SOL    HW159431   8.562   5.807   4.410 -1.4942 -0.5250  2.0294
18463SOL    HW259432   8.532   5.927   4.496  2.1635  0.9171  1.4926
18464SOL     OW59433   3.437   7.696   9.061 -0.2108 -0.1420 -0.0150
18464SOL    HW159434   3.415   7.671   8.971 -0.2868  1.2768 -0.4172
18464SOL    HW259435   3.355   7.687   9.109 -0.5367  0.4829 -0.4292
18465SOL     OW59436   0.140   4.966   4.016  0.0559 -0.3161  0.0011
18465SOL    HW159437   0.126   5.008   3.931  0.3168  0.5925  0.3873
18465SOL    HW259438   0.055   4.926   4.037  0.0223 -0.6374 -0.7287
18466SOL     OW59439   7.151   1.517   7.015 -0.8185  0.4684 -0.0760
18466SOL    HW159440   7.065   1.477   6.998 -1.7759  2.4553 -0.1440
18466SOL    HW259441   7.164   1.577   6.941  0.2854  0.7627  0.3452
18467SOL     OW59442   0.275   2.069   9.299 -0.4821 -0.1060 -0.3625
18467SOL    HW159443   0.207   2.056   9.366 -1.3388  1.0179 -0.9641
18467SOL    HW259444   0.333   2.135   9.336 -0.0113 -0.6843 -0.0638
18468SOL     OW59445   3.348   3.485   2.631 -0.2314  0.5706 -0.5766
18468SOL    HW159446   3.321   3.423   2.699  0.6517 -1.7859 -2.2386
18468SOL    HW259447   3.389   3.557   2.679  1.2511 -1.4525  1.4059
18469SOL     OW59448   8.804   1.850   0.664 -0.3792 -0.2312  0.4957
18469SOL    HW159449   8.799   1.755   0.669  0.9883 -0.2987  0.9921
18469SOL    HW259450   8.862   1.867   0.590 -0.5525  0.2176  0.4616
18470SOL     OW59451   2.409   3.957   2.670 -0.5528 -0.1089 -0.4578
18470SOL    HW159452   2.437   3.889   2.610 -0.7510  0.3697 -1.1124
18470SOL    HW259453   2.452   4.037   2.638 -1.2600  0.2956 -0.4376
18471SOL     OW59454   5.463   2.347   8.405  0.4015  0.2275  0.3778
18471SOL    HW159455   5.469   2.428   8.354 -0.3618  2.1276  3.0821
18471SOL    HW259456   5.534   2.293   8.372  1.2041  2.1557 -1.2794
18472SOL     OW59457   1.629   9.442   1.769  0.5075 -0.0647 -0.3610
18472SOL    HW159458   1.647   9.510   1.703 -0.7074 -0.9613 -1.6816
18472SOL    HW259459   1.716   9.419   1.803  1.3104 -0.2895 -2.3982
18473SOL     OW59460   4.824   5.612   1.496  0.6009 -0.1037 -0.1904
18473SOL    HW159461   4.830   5.668   1.573 -1.4872 -1.4132  1.0102
18473SOL    HW259462   4.797   5.671   1.425  0.3542  0.7132  0.5769
18474SOL     OW59463   8.008   6.905   4.801  0.2330  0.2274 -0.1822
18474SOL    HW159464   8.078   6.858   4.845 -1.1150 -0.7762  0.9956
18474SOL    HW259465   7.957   6.837   4.757  0.3114  0.9961 -1.5168
18475SOL     OW59466   6.357   6.990   0.010 -0.5475  0.4855  0.4910
18475SOL    HW159467   6.411   6.957  -0.061 -1.4678  0.9653 -0.4688
18475SOL    HW259468   6.313   6.913   0.045 -2.1222  0.4997 -1.2541
18476SOL     OW59469   3.237   3.250   1.165 -0.5626 -0.3123  0.4837
18476SOL    HW159470   3.256   3.216   1.252 -1.7941  2.2223  1.8603
18476SOL    HW259471   3.300   3.322   1.153 -0.9697 -0.0759 -0.3324
18477SOL     OW59472   4.616   3.539   3.534 -0.5615  0.3610 -0.1361
18477SOL    HW159473   4.655   3.625   3.549 -0.1845  0.2189 -0.2851
18477SOL    HW259474   4.688   3.485   3.501 -0.2283 -0.6667  2.1112
18478SOL     OW59475   5.941   5.371   5.066  0.0954 -0.2502  0.5285
18478SOL    HW159476   6.007   5.414   5.012 -2.0224  1.8617 -0.5658
18478SOL    HW259477   5.931   5.284   5.027  0.0896  0.5036 -1.2567
18479SOL     OW59478   1.144   8.580   4.809 -0.1539  0.7799  0.0679
18479SOL    HW159479   1.192   8.607   4.887 -0.0149  1.0112 -0.0970
18479SOL    HW259480   1.052   8.601   4.828 -0.2261  0.1120  0.4799
18480SOL     OW59481   8.686   2.178   7.722  0.3444 -0.0236  0.7965
18480SOL    HW159482   8.664   2.224   7.641 -0.1684 -0.5894  0.6097
18480SOL    HW259483   8.625   2.105   7.725  1.4290 -0.9483  0.8804
18481SOL     OW59484   1.023   6.166   1.175  0.1378 -0.5726 -0.1930
18481SOL    HW159485   0.972   6.130   1.249  2.0014 -0.6248  1.1279
18481SOL    HW259486   0.957   6.209   1.120 -1.3276 -0.5500  1.4732
18482SOL     OW59487  10.044   0.517   5.982  0.2698  0.0670 -0.1361
18482SOL    HW159488   9.962   0.480   5.952 -1.6107  2.0812  2.0247
18482SOL    HW259489  10.090   0.544   5.903 -1.9895  0.4712 -1.3717
18483SOL     OW59490   0.649   6.640   8.312  0.0933 -0.5072 -0.1597
18483SOL    HW159491   0.588   6.606   8.247 -0.4655  0.5078 -0.1975
18483SOL    HW259492   0.717   6.573   8.319 -0.0095 -0.7912 -1.5437
18484SOL     OW59493   7.969   8.408   6.838 -0.2355 -0.5828  0.1659
18484SOL    HW159494   8.009   8.363   6.764 -0.0673  0.4585 -0.3881
18484SOL    HW259495   8.017   8.375   6.914  2.7312  1.6568 -0.5742
18485SOL     OW59496   3.282   3.395   5.929  0.6088  0.5164  0.3013
18485SOL    HW159497   3.227   3.464   5.893  1.5372  0.8314 -0.5806
18485SOL    HW259498   3.353   3.385   5.864  0.1876 -1.6650  0.1091
18486SOL     OW59499   4.577   9.391   0.178 -0.4862 -0.1376  0.7292
18486SOL    HW159500   4.557   9.418   0.089 -0.3544 -0.8053  0.4930
18486SOL    HW259501   4.672   9.381   0.179 -0.3684  0.8422  1.2304
18487SOL     OW59502   9.797   3.115   6.463  0.2797  0.5207 -0.0617
18487SOL    HW159503   9.837   3.098   6.548 -0.3700  1.4506  0.4492
18487SOL    HW259504   9.756   3.032   6.437  1.1280  0.0254  0.1675
18488SOL     OW59505   6.679   6.219   0.452 -0.4265 -0.3018 -0.0059
18488SOL    HW159506   6.626   6.296   0.476 -0.8132 -0.3391 -0.6935
18488SOL    HW259507   6.753   6.221   0.511  0.5850  1.7045 -1.2308
18489SOL     OW59508   0.796   8.274   2.276  0.7656  0.6041  0.0151
18489SOL    HW159509   0.864   8.207   2.268  0.7935  0.7601 -1.4506
18489SOL    HW259510   0.838   8.353   2.242 -0.3308  0.5327 -1.6214
18490SOL     OW59511   7.621   5.891   8.331  0.1826 -0.5205 -0.1307
18490SOL    HW159512   7.692   5.953   8.315 -1.6926  1.5723 -0.9175
18490SOL    HW259513   7.612   5.890   8.426  1.8829 -1.6460  0.0665
18491SOL     OW59514   1.023   5.407  10.285 -0.5174  0.1232 -0.1343
18491SOL    HW159515   1.059   5.480  10.234 -0.3723 -1.3456 -2.2653
18491SOL    HW259516   0.973   5.449  10.355  2.3631  2.2597  0.8623
18492SOL     OW59517   7.085   2.912   0.446 -0.4462 -0.3476  0.0738
18492SOL    HW159518   7.162   2.885   0.395 -0.6106 -0.5127 -0.0906
18492SOL    HW259519   7.013   2.907   0.383 -0.9884 -2.3658  0.7749
18493SOL     OW59520   2.842   7.055   5.033  0.2278 -0.2196 -0.1807
18493SOL    HW159521   2.905   6.984   5.020 -0.1654 -0.5346 -0.4025
18493SOL    HW259522   2.761   7.010   5.060  0.0932  0.1774  0.0952
18494SOL     OW59523   8.429   2.413   0.120  0.5783  0.1596 -0.0617
18494SOL    HW159524   8.385   2.344   0.170  0.4725  0.4131  0.1953
18494SOL    HW259525   8.447   2.373   0.035  0.2030 -0.0754 -0.0346
18495SOL     OW59526   2.529   1.738   9.777 -0.0476 -0.7293 -0.1021
18495SOL    HW159527   2.525   1.651   9.738  0.1703 -2.1761  2.8383
18495SOL    HW259528   2.546   1.797   9.703 -0.5438 -3.1020 -2.2343
18496SOL     OW59529   1.334   4.079   0.029  0.1840  0.1269  0.6082
18496SOL    HW159530   1.355   3.987   0.046  2.1599  0.3147 -0.4796
18496SOL    HW259531   1.269   4.102   0.095  0.8354 -1.6036  1.9139
18497SOL     OW59532   1.995   2.062   1.735  0.1992  0.3332 -0.0127
18497SOL    HW159533   2.035   2.099   1.814 -1.2300  2.4182 -0.1918
18497SOL    HW259534   1.927   2.003   1.769  0.7347 -0.1182  0.2911
18498SOL     OW59535   3.726   1.920   1.389  0.2916 -0.1032  0.2872
18498SOL    HW159536   3.713   1.935   1.295  0.5980 -2.2746 -0.1627
18498SOL    HW259537   3.642   1.944   1.429 -0.0668  0.2189 -0.6385
18499SOL     OW59538   0.587  10.208   6.350  0.4976 -0.4460  0.0962
18499SOL    HW159539   0.538  10.135   6.387  0.8772 -1.3308 -1.1116
18499SOL    HW259540   0.676  10.175   6.340  0.4630 -0.1508 -1.3665
18500SOL     OW59541   6.658   0.940   0.906 -0.0332 -0.1858  0.4262
18500SOL    HW159542   6.731   0.950   0.844  0.6440 -0.6846  1.1187
18500SOL    HW259543   6.582   0.922   0.851  0.1891  1.1808 -0.3673
18501SOL     OW59544  10.217   8.747   4.456  0.0399  0.1888  0.0818
18501SOL    HW159545  10.260   8.663   4.468 -1.4483 -0.4919  1.0334
18501SOL    HW259546  10.285   8.805   4.423  0.3804 -2.2289 -4.3260
18502SOL     OW59547   7.395   2.129   1.895  0.3088 -0.1828  0.4161
18502SOL    HW159548   7.328   2.111   1.829 -0.4825  0.7958  0.9352
18502SOL    HW259549   7.357   2.100   1.977  0.6554  0.0975  0.6768
18503SOL     OW59550  10.250  10.246   4.054 -0.0939  0.5508 -0.0694
18503SOL    HW159551  10.214  10.225   3.968  0.2487 -0.5431  0.0404
18503SOL    HW259552  10.337  10.282   4.035  0.9272 -1.7816 -0.1260
18504SOL     OW59553   4.943   3.470  10.153  0.3248 -0.1518 -0.8505
18504SOL    HW159554   4.993   3.499  10.077  0.7650 -0.8039 -0.8153
18504SOL    HW259555   4.999   3.405  10.196  0.1726  0.3638  0.1529
18505SOL     OW59556   7.646   4.676   1.320  0.5725 -0.1687 -0.1763
18505SOL    HW159557   7.582   4.714   1.379  0.1910 -0.4130 -0.4299
18505SOL    HW259558   7.605   4.596   1.288  0.8392 -0.1190 -0.6489
18506SOL     OW59559   9.817   0.038   2.898 -0.1948 -0.5097  0.4576
18506SOL    HW159560   9.831  -0.007   2.982 -0.0115 -0.8239  0.2641
18506SOL    HW259561   9.750   0.104   2.916  1.1732  0.7025  1.3081
18507SOL     OW59562   3.361   2.471   5.448 -0.2476 -0.2205  1.0359
18507SOL    HW159563   3.351   2.413   5.372 -1.7215  0.0964  0.9567
18507SOL    HW259564   3.439   2.523   5.428 -1.4352  0.9018 -1.0085
18508SOL     OW59565   8.408  10.284   3.227  1.0749  0.5452  0.7212
18508SOL    HW159566   8.389  10.251   3.139  1.8616 -0.3878  0.8826
18508SOL    HW259567   8.501  10.307   3.225  0.9510  1.1160  1.1352
18509SOL     OW59568   9.045   6.899  10.155 -0.1928 -0.3201  0.5769
18509SOL    HW159569   9.020   6.858  10.072  3.9401 -0.4302 -0.8463
18509SOL    HW259570   9.056   6.826  10.216 -1.2002 -0.4420  0.6255
18510SOL     OW59571   3.881   7.292   1.530 -0.3991 -0.1062 -0.3689
18510SOL    HW159572   3.839   7.361   1.479  2.4149  1.7750 -0.3869
18510SOL    HW259573   3.887   7.328   1.619  2.1870  0.3114 -0.6383
18511SOL     OW59574   0.171   5.091   7.373  0.1313 -0.9511  0.1202
18511SOL    HW159575   0.232   5.018   7.360 -0.3341 -1.3751  0.2970
18511SOL    HW259576   0.123   5.068   7.453 -0.3964 -0.7123 -0.1246
18512SOL     OW59577   9.229   0.418   8.794  0.1037  0.0080 -0.1748
18512SOL    HW159578   9.277   0.387   8.718 -0.2591  1.5280 -1.0449
18512SOL    HW259579   9.160   0.474   8.759 -0.6934 -0.0309  1.2142
18513SOL     OW59580   7.689   3.661   9.721 -0.4402  0.4238 -0.7012
18513SOL    HW159581   7.678   3.752   9.749  0.4231  1.1727 -2.5817
18513SOL    HW259582   7.601   3.625   9.719 -0.6005  0.1662  3.0493
18514SOL     OW59583  10.033  10.009   7.146 -0.5344 -0.0595  0.1527
18514SOL    HW159584   9.981  10.028   7.068  0.3890  1.2905 -0.1691
18514SOL    HW259585   9.968   9.985   7.213 -1.5046  0.7443 -0.4735
18515SOL     OW59586   7.848   8.633   4.401  0.0278 -0.1203  0.0847
18515SOL    HW159587   7.848   8.715   4.351  0.0102 -1.0579 -1.4903
18515SOL    HW259588   7.938   8.602   4.395 -0.1254 -0.5627  0.0937
18516SOL     OW59589   5.689   9.195   7.764 -0.5813 -0.0353 -0.1342
18516SOL    HW159590   5.718   9.126   7.823  0.5124  0.8542  0.4046
18516SOL    HW259591   5.635   9.252   7.819 -1.3071 -0.3235 -0.5260
18517SOL     OW59592   2.201   6.207   0.183  0.4434  0.3171 -0.0885
18517SOL    HW159593   2.171   6.258   0.108 -1.0249 -1.5899 -0.8914
18517SOL    HW259594   2.147   6.238   0.256  0.1380  0.4858 -0.3836
18518SOL     OW59595   6.567   7.168   5.918  0.3381  0.5968 -0.1241
18518SOL    HW159596   6.521   7.181   5.835 -0.0573 -0.1785 -0.0297
18518SOL    HW259597   6.660   7.175   5.894  0.2276  0.4054 -0.6253
18519SOL     OW59598   7.770   8.828   1.046  0.5264 -0.2561  0.4474
18519SOL    HW159599   7.849   8.789   1.083  0.3229 -0.2059  0.9462
18519SOL    HW259600   7.795   8.918   1.027  0.3198  0.0579  1.5487
18520SOL     OW59601   5.794   7.946   7.285 -0.3775  0.2614  0.5575
18520SOL    HW159602   5.821   7.873   7.229  0.5186  1.0099 -0.0042
18520SOL    HW259603   5.828   7.924   7.372  0.0350  0.0924  0.3543
18521SOL     OW59604   0.451   8.332   1.576  0.1090  0.6323 -0.6855
18521SOL    HW159605   0.355   8.332   1.572  0.0739  0.3630  0.0798
18521SOL    HW259606   0.472   8.394   1.646  0.4502 -0.1374 -0.0898
18522SOL     OW59607   7.019   1.599   1.554 -0.9070 -0.0176  0.1627
18522SOL    HW159608   7.099   1.646   1.536 -0.7038 -0.0629  0.8978
18522SOL    HW259609   7.034   1.510   1.520 -0.5443 -0.0984  0.5295
18523SOL     OW59610   1.573   6.038   5.830  0.2081 -0.0605  0.1121
18523SOL    HW159611   1.482   6.014   5.814  0.2180  0.3432 -0.6439
18523SOL    HW259612   1.568   6.116   5.885 -0.0138  1.3640 -1.8086
18524SOL     OW59613   2.246   1.203   3.122  0.1180 -0.3517  0.2507
18524SOL    HW159614   2.214   1.162   3.042  0.7263  0.6239 -0.5147
18524SOL    HW259615   2.323   1.253   3.094 -1.0143  1.9222  0.9777
18525SOL     OW59616   5.245   4.284   6.294  0.7474 -0.0681 -0.2254
18525SOL    HW159617   5.238   4.234   6.212  1.9672 -0.5141 -0.0760
18525SOL    HW259618   5.339   4.294   6.308  0.5417  0.6903  0.7207
18526SOL     OW59619   0.029   8.419   2.308  0.4219 -0.2117 -0.4152
18526SOL    HW159620   0.124   8.404   2.304  0.2520 -2.0434  1.0098
18526SOL    HW259621  -0.009   8.332   2.293 -0.9703  0.1620  0.7658
18527SOL     OW59622   0.381   2.128   3.242 -0.2480 -0.1116 -0.0507
18527SOL    HW159623   0.332   2.118   3.324  0.9367 -1.1046  0.5913
18527SOL    HW259624   0.319   2.106   3.173 -1.3515  1.0280  0.5418
18528SOL     OW59625   3.173   7.818   9.863  0.3409  0.1001  0.3543
18528SOL    HW159626   3.137   7.812   9.952 -1.6447  1.2297 -0.3179
18528SOL    HW259627   3.131   7.746   9.816  1.8595 -0.8830  0.4274
18529SOL     OW59628   4.413   4.226   9.935 -0.2955 -0.1790 -0.5660
18529SOL    HW159629   4.500   4.187   9.940  0.7677  2.1504  3.7922
18529SOL    HW259630   4.358   4.172   9.992 -1.5960 -1.0610 -2.5187
18530SOL     OW59631   1.459   6.879   1.733 -0.1109 -0.2515 -0.4439
18530SOL    HW159632   1.485   6.922   1.815 -0.5540  0.2945 -0.5852
18530SOL    HW259633   1.422   6.796   1.761 -1.2098  0.3641  0.0072
18531SOL     OW59634   0.272   1.779   2.790 -0.0356  0.5701 -0.1586
18531SOL    HW159635   0.216   1.721   2.842  0.0324 -1.0802 -1.7874
18531SOL    HW259636   0.342   1.722   2.758  0.6291  1.8031 -0.9956
18532SOL     OW59637   8.186   7.327  10.001 -0.5846 -0.1186  0.2556
18532SOL    HW159638   8.166   7.248   9.951 -2.8209 -0.3484  1.3780
18532SOL    HW259639   8.130   7.321  10.078 -0.1970  2.1767  0.7881
18533SOL     OW59640   8.174   2.997   1.081 -0.5646  0.2120 -0.4598
18533SOL    HW159641   8.101   2.957   1.128  0.8334 -1.3387  0.4985
18533SOL    HW259642   8.160   3.091   1.091 -1.7366 -0.0632  0.7791
18534SOL     OW59643   0.725   2.321   9.140  0.3230  0.3556 -0.1268
18534SOL    HW159644   0.767   2.270   9.209  0.2648  1.5626  0.8461
18534SOL    HW259645   0.759   2.410   9.152  0.9552  0.4523 -2.2015
18535SOL     OW59646   9.356   8.289   9.012 -0.1963  0.5627 -0.6173
18535SOL    HW159647   9.336   8.202   8.978  0.4292  0.4010 -0.5919
18535SOL    HW259648   9.287   8.307   9.075 -0.0258 -0.1482 -0.2176
18536SOL     OW59649   3.691   5.610   9.786  0.0075  0.2081  0.5080
18536SOL    HW159650   3.613   5.660   9.764  0.1474 -0.1488 -0.8996
18536SOL    HW259651   3.763   5.658   9.744  0.7310  1.1540  2.6963
18537SOL     OW59652   3.131   4.339   1.302  0.6707  0.2180 -0.6022
18537SOL    HW159653   3.133   4.394   1.381 -0.2709 -0.6056  0.0168
18537SOL    HW259654   3.144   4.401   1.230 -0.0580  1.2238  0.0945
18538SOL     OW59655   8.171   6.944   2.818 -0.1697 -0.4997 -0.2298
18538SOL    HW159656   8.170   7.022   2.873 -2.4195 -1.0011  0.5871
18538SOL    HW259657   8.177   6.976   2.728  0.6175  0.4903  0.1642
18539SOL     OW59658   1.448   0.493   3.763  0.0254 -0.5687  0.4540
18539SOL    HW159659   1.455   0.463   3.854 -0.4410  0.5525  0.8756
18539SOL    HW259660   1.519   0.447   3.718 -0.1923 -1.7082  1.2198
18540SOL     OW59661   4.339   8.587   3.594  0.2190 -0.2836 -0.2758
18540SOL    HW159662   4.248   8.596   3.564  0.7987  1.9563 -1.6227
18540SOL    HW259663   4.348   8.495   3.617 -2.7967 -0.3051  1.3344
18541SOL     OW59664   7.357   6.984   6.168  0.7808 -0.2420 -0.7326
18541SOL    HW159665   7.373   6.965   6.260 -0.2584 -0.1391 -0.5100
18541SOL    HW259666   7.399   6.912   6.121 -1.0697 -1.8929 -0.0284
18542SOL     OW59667   1.802   1.113   4.026 -0.4117 -0.7773  0.0171
18542SOL    HW159668   1.893   1.141   4.013 -0.6213  0.3535  0.8663
18542SOL    HW259669   1.773   1.162   4.103 -2.5393  0.8081 -1.7127
18543SOL     OW59670   0.286   8.125  10.117 -0.3871  0.2293 -0.3174
18543SOL    HW159671   0.259   8.153  10.029 -0.5836  2.4564  0.3954
18543SOL    HW259672   0.345   8.052  10.102 -1.5180 -0.3602 -2.2380
18544SOL     OW59673   7.455   2.684   3.829  0.3838 -0.2284 -0.3376
18544SOL    HW159674   7.546   2.674   3.855  0.6297 -1.3872 -1.5375
18544SOL    HW259675   7.430   2.770   3.862  1.9479  0.1651 -0.1062
18545SOL     OW59676   0.432   5.904   1.102 -0.1149 -0.3686 -0.3153
18545SOL    HW159677   0.393   5.989   1.081 -0.8549 -0.3003  1.1797
18545SOL    HW259678   0.357   5.849   1.125  0.4290 -1.1841 -0.4659
18546SOL     OW59679   4.522   7.688   4.549 -0.4446 -0.7512 -0.0492
18546SOL    HW159680   4.443   7.726   4.587 -0.2854 -1.0750  0.6145
18546SOL    HW259681   4.594   7.742   4.583 -0.3159 -0.9410 -0.0138
18547SOL     OW59682   5.358   0.454   0.416 -0.7528 -0.2069 -0.0396
18547SOL    HW159683   5.388   0.482   0.330 -0.7905 -0.5109 -0.1525
18547SOL    HW259684   5.271   0.418   0.401 -0.5973 -0.6387  0.0529
18548SOL     OW59685  10.123  10.198   3.378  0.0957 -0.3370 -0.0991
18548SOL    HW159686  10.094  10.237   3.295  0.4031  0.6222  0.2351
18548SOL    HW259687  10.167  10.117   3.352  2.7976  1.3586 -1.1752
18549SOL     OW59688   9.043   7.165   5.573  0.0100  0.3636 -0.3748
18549SOL    HW159689   9.119   7.204   5.530  0.5170  2.1185  1.9126
18549SOL    HW259690   9.073   7.149   5.663 -1.0793 -2.8263 -0.4537
18550SOL     OW59691   4.487   2.126   4.155 -0.0340  0.0623  0.0383
18550SOL    HW159692   4.506   2.083   4.072  0.6358  1.3369 -0.4951
18550SOL    HW259693   4.573   2.148   4.191 -0.3507  0.6382  0.4609
18551SOL     OW59694   1.118   5.396   2.153 -0.1469  0.2507  0.3433
18551SOL    HW159695   1.126   5.350   2.237  0.7090  2.7231  1.7324
18551SOL    HW259696   1.044   5.456   2.167  0.1998  0.8952 -0.5558
18552SOL     OW59697   7.676   3.392   3.524 -0.3244  0.0914 -0.3326
18552SOL    HW159698   7.739   3.334   3.480  0.0170 -0.8600  1.3184
18552SOL    HW259699   7.694   3.479   3.488 -1.0300 -0.8094 -3.0697
18553SOL     OW59700   0.686   8.446   2.639 -0.0315 -0.1209  0.0331
18553SOL    HW159701   0.665   8.445   2.732 -0.7578  0.5601 -0.1145
18553SOL    HW259702   0.705   8.537   2.619 -0.0941 -0.2243 -0.5306
18554SOL     OW59703   0.372   0.226   0.852  0.1620  0.1202 -0.2415
18554SOL    HW159704   0.455   0.182   0.832  0.9514  0.9962  0.9654
18554SOL    HW259705   0.373   0.236   0.947 -0.9254  0.9343 -0.3026
18555SOL     OW59706   1.896   9.868   9.385 -0.0072 -0.3024  0.1986
18555SOL    HW159707   1.917   9.778   9.410 -0.2652 -1.0468 -2.0345
18555SOL    HW259708   1.801   9.872   9.389  0.0590  0.3469  1.6799
18556SOL     OW59709   0.512   6.131   7.756  0.0964 -0.4071  0.6038
18556SOL    HW159710   0.530   6.110   7.847  0.9142  0.8711  0.7698
18556SOL    HW259711   0.481   6.049   7.717 -2.1128 -0.5385  2.4554
18557SOL     OW59712   6.391   1.477   8.680  0.1085  0.0052  0.4780
18557SOL    HW159713   6.478   1.514   8.698  0.6406 -0.6158 -0.6649
18557SOL    HW259714   6.345   1.546   8.633 -0.1904  0.5042  1.4868
18558SOL     OW59715   1.015   2.830   9.362 -0.5188 -0.5093  0.0780
18558SOL    HW159716   1.076   2.903   9.353  0.2239 -1.3572 -5.2056
18558SOL    HW259717   1.060   2.768   9.419  1.8391  0.5427 -0.5171
18559SOL     OW59718   9.670   3.489   3.908 -0.2049 -0.4455  0.1128
18559SOL    HW159719   9.627   3.476   3.823 -0.8993 -0.0202  0.3912
18559SOL    HW259720   9.620   3.435   3.969  0.0616 -0.4573  0.3212
18560SOL     OW59721   1.057   1.345   7.645 -0.4318 -0.0653 -0.0366
18560SOL    HW159722   0.971   1.364   7.684 -0.8138  0.3707 -1.0646
18560SOL    HW259723   1.090   1.431   7.619  0.1708 -0.2725  0.0345
18561SOL     OW59724   0.608   0.140   9.697  0.0583  0.0935  0.4596
18561SOL    HW159725   0.686   0.154   9.643  0.5965 -1.0831  0.8925
18561SOL    HW259726   0.642   0.101   9.778 -0.9268  0.0599  0.8698
18562SOL     OW59727   5.846   0.725   0.823 -0.0352 -0.4219 -0.0147
18562SOL    HW159728   5.759   0.763   0.830 -0.2707 -0.8166 -0.6847
18562SOL    HW259729   5.830   0.632   0.805  0.4849 -0.1590 -2.0918
18563SOL     OW59730   1.722   1.156   9.340 -0.2343  0.5279 -0.2662
18563SOL    HW159731   1.684   1.169   9.427  0.1903  0.6036 -0.0910
18563SOL    HW259732   1.686   1.072   9.310 -1.0698  0.9163 -0.3881
18564SOL     OW59733   6.252   5.659   9.336  0.4109  0.2846  0.5577
18564SOL    HW159734   6.319   5.717   9.371 -0.4424  1.3805  0.4361
18564SOL    HW259735   6.234   5.597   9.407 -0.1369  1.4754  1.5021
18565SOL     OW59736   0.283   2.141   2.429  0.4667 -0.1764  0.0054
18565SOL    HW159737   0.193   2.150   2.397  0.5547 -0.4058 -0.3144
18565SOL    HW259738   0.290   2.050   2.457  0.9080 -0.4626 -0.9680
18566SOL     OW59739   9.995   6.047   9.778  0.3380  0.4636  0.4312
18566SOL    HW159740  10.068   6.021   9.835 -0.5523  0.4199  1.5931
18566SOL    HW259741   9.942   6.104   9.833 -0.4064  0.6449 -0.4660
18567SOL     OW59742   8.021   2.246   8.593  0.1139 -0.2023 -0.1201
18567SOL    HW159743   7.976   2.204   8.520  1.5808 -1.0001 -0.6124
18567SOL    HW259744   8.042   2.174   8.653  0.0378  0.2677  0.4842
18568SOL     OW59745   0.312   1.033   0.100  0.1769  0.5875  0.0515
18568SOL    HW159746   0.375   0.961   0.093 -1.6490 -1.0835  0.0705
18568SOL    HW259747   0.301   1.063   0.009 -0.4681 -0.4594 -0.2339
18569SOL     OW59748   5.379   7.175   1.044 -0.2090 -0.6100 -0.6683
18569SOL    HW159749   5.416   7.172   0.955 -0.8588 -1.0003 -0.9354
18569SOL    HW259750   5.356   7.084   1.062 -1.1817 -0.3487 -0.5726
18570SOL     OW59751   3.599   2.219  10.079 -0.0101  0.2665  0.5122
18570SOL    HW159752   3.572   2.273  10.153  1.3261 -0.4435  1.5640
18570SOL    HW259753   3.581   2.130  10.106 -1.5144  0.0947 -0.9212
18571SOL     OW59754   1.643   8.688   6.850  0.5595 -0.5582 -0.7714
18571SOL    HW159755   1.649   8.782   6.835  0.3082 -0.4716 -0.3399
18571SOL    HW259756   1.734   8.660   6.865  0.4558 -0.0704  0.9134
18572SOL     OW59757   6.621   2.749   6.744 -0.3220  0.5784  0.1754
18572SOL    HW159758   6.589   2.835   6.718 -0.1080  0.6862  0.2612
18572SOL    HW259759   6.713   2.749   6.718 -0.9312 -0.5884 -2.1674
18573SOL     OW59760   7.339   7.027   3.955 -0.4431 -0.4240 -0.0894
18573SOL    HW159761   7.272   7.017   4.023  0.3647  0.2042  0.8275
18573SOL    HW259762   7.413   7.069   4.000 -0.4987  1.5936 -1.7203
18574SOL     OW59763   6.829   7.554   3.642 -0.1436 -0.5862  0.5938
18574SOL    HW159764   6.853   7.589   3.556 -0.2544  0.7274  1.0660
18574SOL    HW259765   6.868   7.615   3.705 -1.7940 -0.3051  1.4347
18575SOL     OW59766   5.881   0.033   3.270  0.3176 -0.1726  0.5701
18575SOL    HW159767   5.962   0.007   3.314  0.8398  1.4834  0.6848
18575SOL    HW259768   5.898   0.123   3.240 -1.3348  0.0741  0.2502
18576SOL     OW59769   9.207   0.069   3.410 -0.0707 -0.0030  0.0094
18576SOL    HW159770   9.295   0.064   3.447  0.2452  0.0861 -0.7141
18576SOL    HW259771   9.218   0.041   3.319 -0.9423 -0.8416  0.1538
18577SOL     OW59772   2.603   6.111   5.166  0.3096  1.1388  0.4065
18577SOL    HW159773   2.575   6.029   5.128 -2.2415  1.2603  1.8333
18577SOL    HW259774   2.522   6.157   5.188  1.6421  2.9306  1.9238
18578SOL     OW59775   1.791   7.435   9.255  0.2676  0.4668  0.2316
18578SOL    HW159776   1.755   7.349   9.279 -1.7430  1.3410  0.5909
18578SOL    HW259777   1.766   7.447   9.164  0.6056  0.6583  0.1625
18579SOL     OW59778   5.112   3.272   3.900  0.3428  0.4486  0.6508
18579SOL    HW159779   5.126   3.236   3.812  0.2778  1.7912  0.0738
18579SOL    HW259780   5.140   3.202   3.959  1.3995 -0.0831 -0.4406
18580SOL     OW59781   2.773   2.678   8.601 -0.0057  0.0800  0.1900
18580SOL    HW159782   2.845   2.619   8.623 -0.2122 -0.0127  0.6149
18580SOL    HW259783   2.697   2.621   8.592 -0.4580  0.3995  1.7580
18581SOL     OW59784   4.069   4.872   2.820  0.1651  0.4142  0.1744
18581SOL    HW159785   4.015   4.796   2.837  2.1571 -0.7802  1.5654
18581SOL    HW259786   4.008   4.939   2.788 -2.0687 -0.8593  1.5709
18582SOL     OW59787   9.939   0.564   0.776  0.1562  0.1335 -0.4594
18582SOL    HW159788   9.976   0.489   0.824 -0.8663 -1.7310 -2.3987
18582SOL    HW259789  10.007   0.586   0.712 -0.5216 -0.8391 -1.5502
18583SOL     OW59790   4.565   1.428   4.087  0.7241 -0.3504 -0.3228
18583SOL    HW159791   4.593   1.343   4.053  0.4844 -0.9922  0.9979
18583SOL    HW259792   4.635   1.454   4.148  0.4693  0.0608 -0.2018
18584SOL     OW59793   8.486   7.651   2.145  0.3925  0.1600 -0.3378
18584SOL    HW159794   8.530   7.685   2.067 -0.2637  0.0075 -0.7835
18584SOL    HW259795   8.480   7.557   2.129  0.3661  0.1140 -0.0460
18585SOL     OW59796   7.936   1.209   4.184 -0.0174  0.4965  0.2656
18585SOL    HW159797   7.958   1.300   4.204  0.2570  0.3110  0.8097
18585SOL    HW259798   7.989   1.188   4.107 -0.4705  0.9540 -0.1817
18586SOL     OW59799   4.321   3.422   1.775  0.2317 -0.1789 -0.2016
18586SOL    HW159800   4.281   3.401   1.690 -1.2456 -1.4420  0.7478
18586SOL    HW259801   4.251   3.407   1.838  1.2646  0.8633  1.2497
18587SOL     OW59802   0.370   3.164   1.293 -0.0052  0.3641 -0.5036
18587SOL    HW159803   0.359   3.212   1.211 -2.2365 -0.7148 -0.8964
18587SOL    HW259804   0.384   3.073   1.267  0.6829  0.2110  0.3159
18588SOL     OW59805   5.394   0.963   5.656 -0.3604 -0.1875 -0.0598
18588SOL    HW159806   5.488   0.973   5.667 -0.4702 -0.2402  1.0508
18588SOL    HW259807   5.381   0.871   5.635 -0.3280 -0.7294  2.1032
18589SOL     OW59808   6.108   0.838   4.319 -0.3482  0.1336  0.7764
18589SOL    HW159809   6.047   0.897   4.363 -1.6777 -0.0938 -0.6471
18589SOL    HW259810   6.067   0.752   4.328 -0.1681 -0.0469 -0.0815
18590SOL     OW59811   5.023   8.942   3.176  0.6385 -0.1405  0.6242
18590SOL    HW159812   4.942   8.992   3.178  1.3095  0.9775  0.4960
18590SOL    HW259813   5.012   8.880   3.103  0.4951  1.0545 -0.4020
18591SOL     OW59814   0.820   6.975   6.022  0.2253  0.1264  0.2023
18591SOL    HW159815   0.746   6.919   6.050 -0.1085  0.1336 -0.6390
18591SOL    HW259816   0.841   6.943   5.935  1.7388 -0.3837  0.7255
18592SOL     OW59817   2.739   0.836   6.578  0.2929 -0.0995 -0.9249
18592SOL    HW159818   2.789   0.847   6.658 -0.7277  0.2857 -0.3153
18592SOL    HW259819   2.796   0.868   6.509  1.4399 -1.0616 -0.4488
18593SOL     OW59820   7.892   7.994   4.828 -0.4478  0.2362  0.1662
18593SOL    HW159821   7.936   8.055   4.887 -1.6366  0.2578  1.0595
18593SOL    HW259822   7.815   8.042   4.797 -1.0822 -0.5990  0.4254
18594SOL     OW59823   7.435   1.641   8.478 -0.3599 -0.0461 -0.4768
18594SOL    HW159824   7.514   1.588   8.475  0.9313  1.7123  0.6398
18594SOL    HW259825   7.373   1.590   8.531  0.0785 -1.3522 -1.2046
18595SOL     OW59826  10.070   0.317   0.810 -0.5630  0.3564 -1.1162
18595SOL    HW159827  10.136   0.254   0.838  1.1639  2.3343 -0.3942
18595SOL    HW259828   9.986   0.276   0.829  0.4993 -1.0072  0.9404
18596SOL     OW59829   1.735   8.063   8.050 -0.2881 -0.5239 -0.3041
18596SOL    HW159830   1.751   7.997   7.982 -1.2395 -1.6974  0.5729
18596SOL    HW259831   1.811   8.056   8.108 -0.2183 -0.6059 -0.4035
18597SOL     OW59832   4.257   5.091   8.403 -0.3611  0.3272  0.1732
18597SOL    HW159833   4.303   5.085   8.487 -1.9672 -0.8273  1.0352
18597SOL    HW259834   4.176   5.138   8.423 -0.6497  0.2740 -0.7959
18598SOL     OW59835   9.311   8.792   9.497 -0.1854 -0.4873  0.0322
18598SOL    HW159836   9.237   8.852   9.483  1.1897  2.4718  3.7800
18598SOL    HW259837   9.386   8.837   9.458  0.2539 -1.9212 -0.8577
18599SOL     OW59838  10.141   5.504   4.001 -0.3634  0.9667  0.0212
18599SOL    HW159839  10.206   5.567   4.032 -2.3763  2.8097  0.7838
18599SOL    HW259840  10.193   5.431   3.966  2.0718  2.5421  0.0952
18600SOL     OW59841   3.529   7.452   1.196 -0.6262 -1.0603  0.0600
18600SOL    HW159842   3.540   7.359   1.217  1.7545 -0.6148  1.1697
18600SOL    HW259843   3.531   7.496   1.281  1.7608  0.2353 -0.5825
18601SOL     OW59844   7.261   6.159   9.919  1.0395 -0.3066 -0.0665
18601SOL    HW159845   7.305   6.084   9.958 -0.0184 -1.1004 -0.3341
18601SOL    HW259846   7.194   6.184   9.983  1.6175  0.6723  0.1911
18602SOL     OW59847   5.577   9.079   7.041  0.0713 -0.0202 -0.1526
18602SOL    HW159848   5.659   9.120   7.013  0.5529 -2.2399 -2.2576
18602SOL    HW259849   5.582   9.079   7.137  2.1962  0.5372 -0.2123
18603SOL     OW59850   3.523  10.246   8.563  0.0264  0.0365  0.1161
18603SOL    HW159851   3.436  10.287   8.567  0.4520  0.9617  0.1934
18603SOL    HW259852   3.542  10.223   8.654  0.1816  0.5259  0.2087
18604SOL     OW59853   6.377   3.871   6.649 -0.1037 -0.2277 -0.3527
18604SOL    HW159854   6.366   3.793   6.595  1.1974 -1.8452  1.5555
18604SOL    HW259855   6.321   3.856   6.725  0.6816  0.3465  0.3725
18605SOL     OW59856   0.552   8.349   6.103 -0.3013  0.0039 -1.1000
18605SOL    HW159857   0.462   8.347   6.136 -0.1943  1.0894 -0.6989
18605SOL    HW259858   0.546   8.309   6.016 -1.4363  1.3034 -1.6645
18606SOL     OW59859   1.284  10.017   9.974 -0.0409  0.6866  0.1732
18606SOL    HW159860   1.211  10.030   9.913 -0.1087  1.0775  0.3315
18606SOL    HW259861   1.351  10.079   9.946  0.6026 -0.2978 -0.5252
18607SOL     OW59862   8.376   7.897   5.241 -0.2585 -0.5080 -0.5021
18607SOL    HW159863   8.440   7.834   5.205  0.8242  0.7977 -0.9507
18607SOL    HW259864   8.429   7.960   5.288 -1.1749  0.8844 -1.2792
18608SOL     OW59865   9.718   9.784   8.395  0.8290 -0.3783  0.5814
18608SOL    HW159866   9.701   9.691   8.377  0.2791 -0.6171  2.1997
18608SOL    HW259867   9.805   9.784   8.435  0.3838 -0.3498  1.5856
18609SOL     OW59868   2.453   7.915   6.085  0.2594  0.4803  0.4568
18609SOL    HW159869   2.425   7.968   6.010  1.3804  0.4925  0.0318
18609SOL    HW259870   2.433   7.825   6.060  0.2112  0.5247  0.3341
18610SOL     OW59871   1.478   8.733   2.959  0.3411  0.2240 -0.2827
18610SOL    HW159872   1.406   8.795   2.967  0.9031  1.1788 -1.9508
18610SOL    HW259873   1.452   8.675   2.886 -0.1193 -1.4883  1.1602
18611SOL     OW59874   2.071   0.076   1.076 -0.3216 -0.2795  0.1801
18611SOL    HW159875   2.004   0.141   1.054  0.4804  0.0707 -1.4160
18611SOL    HW259876   2.076   0.077   1.172 -2.3935 -0.1443  0.3236
18612SOL     OW59877   5.985   1.146   8.045 -0.4230 -0.6557 -0.6896
18612SOL    HW159878   5.948   1.080   8.104  1.9352 -0.8051  0.7526
18612SOL    HW259879   6.080   1.137   8.055  0.0209  2.6346 -0.7380
18613SOL     OW59880   9.381   9.608   3.404 -0.2248 -0.2790  0.4082
18613SOL    HW159881   9.428   9.685   3.437 -0.5812 -0.0800  0.4593
18613SOL    HW259882   9.445   9.537   3.409 -0.1293 -0.1541  1.0904
18614SOL     OW59883   8.899   9.882   0.324 -0.3280 -0.2817  0.9052
18614SOL    HW159884   8.960   9.954   0.340  0.8565 -0.9920 -0.1882
18614SOL    HW259885   8.886   9.842   0.410 -0.9673  1.1904  1.5172
18615SOL     OW59886   9.245   0.637   1.080 -0.6456 -0.8385  0.5692
18615SOL    HW159887   9.324   0.585   1.070 -0.3460 -0.1917 -0.6308
18615SOL    HW259888   9.263   0.718   1.032 -2.0863 -0.7457  0.1403
18616SOL     OW59889   8.393   7.484   0.961  0.4470 -0.0551  0.4699
18616SOL    HW159890   8.429   7.400   0.933 -0.3193 -0.7523  1.4520
18616SOL    HW259891   8.460   7.521   1.019  1.3344  0.6340 -0.9545
18617SOL     OW59892   7.383   3.120   8.147  0.2450 -0.3447  0.3214
18617SOL    HW159893   7.476   3.142   8.140 -0.1645  1.8969  1.0035
18617SOL    HW259894   7.338   3.204   8.138 -1.6598 -1.2254  1.0896
18618SOL     OW59895   1.765   1.069   8.323 -0.0034  0.1107  0.5333
18618SOL    HW159896   1.742   1.000   8.261  0.9368  0.4979 -0.2608
18618SOL    HW259897   1.813   1.024   8.393  1.9012  0.1250 -0.7044
18619SOL     OW59898   6.840   8.118   1.501  0.5559 -0.0003 -0.4044
18619SOL    HW159899   6.898   8.083   1.433  0.5499 -1.3369  0.2533
18619SOL    HW259900   6.889   8.192   1.537  1.8735 -1.1002  0.1347
18620SOL     OW59901   6.736   9.295   1.269  0.5378 -0.2220 -0.8466
18620SOL    HW159902   6.819   9.252   1.289  0.5741 -0.0983 -0.7307
18620SOL    HW259903   6.757   9.363   1.206  0.8118  0.9342  0.4413
18621SOL     OW59904   9.035   1.342   2.339  0.1966  0.2602  0.0404
18621SOL    HW159905   9.063   1.252   2.354  0.3670  0.3527  0.2925
18621SOL    HW259906   9.082   1.393   2.405  0.4865  0.6007 -0.4268
18622SOL     OW59907   2.064   2.089   6.615  0.5897 -0.1154  0.1848
18622SOL    HW159908   2.004   2.046   6.676  0.2185  0.7393  0.4439
18622SOL    HW259909   2.151   2.075   6.652  0.6029 -1.5532 -0.3078
18623SOL     OW59910   7.390   6.011   3.626  0.0802 -0.1501  0.3075
18623SOL    HW159911   7.316   6.064   3.656  0.0378  1.1944 -1.9207
18623SOL    HW259912   7.441   6.071   3.571  0.9849 -1.9492 -0.9129
18624SOL     OW59913   5.303   2.460   8.909  0.3538 -0.2545  0.0843
18624SOL    HW159914   5.340   2.459   8.997  0.9494  0.0748 -0.1556
18624SOL    HW259915   5.245   2.384   8.906  1.2056 -0.9349  0.3885
18625SOL     OW59916   8.758   6.656   1.940 -0.0658  0.3311  0.2478
18625SOL    HW159917   8.691   6.696   1.885  0.1168  1.8940  1.0975
18625SOL    HW259918   8.709   6.600   2.001 -0.6972  1.8747  1.2144
18626SOL     OW59919   1.815   6.511   1.711  0.2234  0.2439 -0.3728
18626SOL    HW159920   1.762   6.512   1.791  1.5888 -0.8100  0.5993
18626SOL    HW259921   1.751   6.510   1.640 -1.0237  1.2251  0.6876
18627SOL     OW59922   3.091   7.789   7.342 -0.5856  0.3948  0.4299
18627SOL    HW159923   3.056   7.820   7.426 -0.3681  0.5830  0.4546
18627SOL    HW259924   3.081   7.694   7.345 -1.5489  0.4857  0.2215
18628SOL     OW59925   3.623   6.569   9.825  0.2654 -0.1309  0.1689
18628SOL    HW159926   3.603   6.605   9.739  0.4820  0.3057  0.2967
18628SOL    HW259927   3.604   6.641   9.886 -0.6702 -0.6874  0.5692
18629SOL     OW59928   9.125   1.536   1.924  0.1197 -0.5110 -0.4145
18629SOL    HW159929   9.065   1.506   1.993  2.9063 -1.8386  1.6339
18629SOL    HW259930   9.078   1.518   1.842 -2.6418 -0.4940  1.0404
18630SOL     OW59931   2.983   8.845   3.961 -0.2668 -0.1894  0.4459
18630SOL    HW159932   3.029   8.909   4.015  0.6068 -0.5994  0.2052
18630SOL    HW259933   3.050   8.807   3.905 -0.5495 -2.0130  1.2437
18631SOL     OW59934   8.482   5.653   6.436  0.4714  0.4184 -0.3599
18631SOL    HW159935   8.423   5.726   6.452 -1.1050 -0.3171 -2.3672
18631SOL    HW259936   8.563   5.694   6.407  0.2061  1.3948  0.2106
18632SOL     OW59937   7.679   7.945   0.380 -0.2456 -0.0221 -0.9940
18632SOL    HW159938   7.591   7.973   0.406 -0.4162 -0.0437 -1.5439
18632SOL    HW259939   7.734   7.965   0.457 -1.0934 -1.9499  0.1851
18633SOL     OW59940   2.361   3.108   1.145 -0.1584  0.1642  0.1453
18633SOL    HW159941   2.330   3.145   1.227 -0.4578 -0.4148  0.2987
18633SOL    HW259942   2.456   3.118   1.148 -0.2418  0.9784  0.1489
18634SOL     OW59943   9.149   4.486   7.519 -0.5354 -0.9051  0.1446
18634SOL    HW159944   9.091   4.529   7.455  1.9231  3.4505  0.4263
18634SOL    HW259945   9.224   4.458   7.468  0.8083  1.3363  0.7416
18635SOL     OW59946   3.533   6.759   0.663 -0.7578 -0.4911 -0.1173
18635SOL    HW159947   3.458   6.793   0.614 -1.0225  0.2241  0.7528
18635SOL    HW259948   3.497   6.690   0.718 -0.9654  0.4606  0.9651
18636SOL     OW59949   7.417   5.591   2.875  0.3320  0.3107 -0.4267
18636SOL    HW159950   7.394   5.673   2.832  0.3191 -0.1129 -1.2434
18636SOL    HW259951   7.343   5.532   2.856 -0.7091  0.7211  1.9361
18637SOL     OW59952  10.045  10.000   0.178 -0.0917 -0.1006  0.1945
18637SOL    HW159953  10.014  10.006   0.268 -0.3668 -0.7198  0.1499
18637SOL    HW259954   9.974   9.956   0.131 -0.6240  1.5939 -0.6744
18638SOL     OW59955   9.906   4.185   2.035  0.2997 -0.1661 -0.3148
18638SOL    HW159956   9.946   4.173   2.121  0.3723  2.2817  0.0704
18638SOL    HW259957   9.946   4.118   1.980  2.1583 -0.1723  0.9495
18639SOL     OW59958  10.014   0.075   3.158 -0.0405 -0.7216  0.4605
18639SOL    HW159959   9.951   0.052   3.227  0.3538 -2.8554  0.1922
18639SOL    HW259960  10.012   0.170   3.154  1.2351 -0.2922  4.6997
18640SOL     OW59961   1.163   0.293   4.291 -0.8070  0.1679  0.2404
18640SOL    HW159962   1.233   0.347   4.253 -0.8345  0.2520  0.3085
18640SOL    HW259963   1.161   0.319   4.383 -1.3600  0.6384  0.1046
18641SOL     OW59964   7.481   4.352   3.055  0.5955 -0.3019 -0.5537
18641SOL    HW159965   7.482   4.278   2.994  1.0484 -1.7550  1.1443
18641SOL    HW259966   7.388   4.368   3.071  0.4865 -0.2296 -1.2087
18642SOL     OW59967   6.405   6.324   5.801 -0.1770 -0.1861 -0.0358
18642SOL    HW159968   6.462   6.400   5.811 -0.4697  0.0941 -0.5033
18642SOL    HW259969   6.439   6.279   5.723 -2.1649  1.3854 -1.9118
18643SOL     OW59970   5.789   0.781   9.462 -0.6148  0.8546 -0.1267
18643SOL    HW159971   5.709   0.787   9.515 -0.2020  0.9789  0.4963
18643SOL    HW259972   5.825   0.870   9.464 -0.3962  0.7693 -0.3040
18644SOL     OW59973   1.742   4.297   6.446  0.0094 -0.0213  0.6368
18644SOL    HW159974   1.773   4.217   6.403 -1.1305 -0.1176 -0.0664
18644SOL    HW259975   1.651   4.276   6.471  0.2430  0.4837  1.9550
18645SOL     OW59976   2.518   8.997   9.677  0.1775  0.0224  0.0935
18645SOL    HW159977   2.548   8.908   9.693 -0.3177 -0.1760 -0.0697
18645SOL    HW259978   2.598   9.051   9.682  0.3835 -0.3369  0.8634
18646SOL     OW59979   1.591   9.719   5.535 -0.2040 -0.0593 -0.3095
18646SOL    HW159980   1.684   9.741   5.544  0.1583 -0.8102 -1.9856
18646SOL    HW259981   1.550   9.800   5.504  0.0325  0.0200 -0.4114
18647SOL     OW59982   7.106   0.379   1.518 -0.1448 -0.0367  0.3121
18647SOL    HW159983   7.119   0.424   1.435 -2.0572  0.3866  0.1997
18647SOL    HW259984   7.147   0.293   1.505 -1.0150 -0.2457 -1.3302
18648SOL     OW59985   3.264   1.132   1.520 -0.1358  0.1115 -0.3616
18648SOL    HW159986   3.202   1.122   1.593  0.3113  2.8849  0.5190
18648SOL    HW259987   3.211   1.119   1.442 -1.8430  1.9783  0.3697
18649SOL     OW59988   4.320   9.750   3.861  1.1185 -0.2254  0.3478
18649SOL    HW159989   4.370   9.668   3.860  1.5477  0.0269 -1.2240
18649SOL    HW259990   4.386   9.819   3.853  0.7113  0.2674  1.0865
18650SOL     OW59991   8.141   3.607   3.059  0.4935 -0.3495 -0.1452
18650SOL    HW159992   8.155   3.535   2.997  2.0062 -0.4183  0.2605
18650SOL    HW259993   8.207   3.595   3.127  0.5825  1.2511  0.0948
18651SOL     OW59994   8.081   0.990   5.220 -0.2997  0.1116 -0.2893
18651SOL    HW159995   8.091   1.078   5.182 -0.6616 -0.1349 -0.9740
18651SOL    HW259996   8.168   0.967   5.250 -0.1437  0.5948 -0.3602
18652SOL     OW59997   3.577   6.310   7.985 -0.6371  0.8010 -0.0747
18652SOL    HW159998   3.669   6.328   7.966 -0.2967  1.4709  1.9141
18652SOL    HW259999   3.528   6.380   7.941 -0.1084  0.9944 -0.3517
18653SOL     OW60000   5.931   9.650  10.086 -0.0181  0.2433  0.1686
18653SOL    HW160001   5.971   9.733  10.060  1.7883 -0.7722 -0.4399
18653SOL    HW260002   5.851   9.676  10.132 -0.2363  2.2674 -1.2233
18654SOL     OW60003   4.492   7.240   6.556 -0.4477  0.3275  0.1407
18654SOL    HW160004   4.530   7.313   6.508  1.2778 -0.2414  0.5592
18654SOL    HW260005   4.434   7.197   6.493  0.3137  0.6975 -0.8294
18655SOL     OW60006   0.703   8.312   1.031  0.5746 -0.6305  0.2512
18655SOL    HW160007   0.778   8.370   1.016 -0.5282  0.8649  0.2290
18655SOL    HW260008   0.716   8.240   0.969  1.3747  0.2207 -0.6073
18656SOL     OW60009   1.230   1.965   3.270 -0.4290  0.5951 -0.1840
18656SOL    HW160010   1.187   2.050   3.272 -1.4452  0.1706  3.2887
18656SOL    HW260011   1.158   1.901   3.271  0.1224 -0.1465  3.0095
18657SOL     OW60012   1.911   1.890  10.163 -0.5935  0.4059  0.1198
18657SOL    HW160013   2.002   1.904  10.137 -1.0961  1.2295 -1.2822
18657SOL    HW260014   1.912   1.805  10.207  1.2381  1.4059  2.1810
18658SOL     OW60015   7.222   4.113   4.210 -0.2066 -0.0462 -0.3098
18658SOL    HW160016   7.266   4.069   4.283 -1.0134 -0.3264  0.0207
18658SOL    HW260017   7.168   4.045   4.170  0.2110  0.1082 -1.1662
18659SOL     OW60018   1.576   7.746   8.508  0.3418 -0.5636 -0.4421
18659SOL    HW160019   1.530   7.686   8.567  1.0775 -0.6955  0.0054
18659SOL    HW260020   1.510   7.770   8.443 -0.4016 -0.6546  0.2538
18660SOL     OW60021   3.920   2.175   1.030 -0.1652 -0.3994 -0.1537
18660SOL    HW160022   3.928   2.196   1.123  3.2050 -0.9990 -0.1978
18660SOL    HW260023   4.002   2.206   0.992 -1.2883 -0.5475 -2.8794
18661SOL     OW60024   7.217   8.541   4.984  0.2468  0.5022 -0.1382
18661SOL    HW160025   7.183   8.591   4.911  2.4151  1.1571 -0.7709
18661SOL    HW260026   7.234   8.606   5.052  1.5101  0.4405 -0.3635
18662SOL     OW60027   5.590   7.139   5.686  0.3938  0.0910 -0.6502
18662SOL    HW160028   5.578   7.210   5.748  3.7082  0.7381 -0.5671
18662SOL    HW260029   5.568   7.177   5.601 -1.4241  0.0423 -0.2338
18663SOL     OW60030   0.196   8.261   2.535  0.4255 -0.3111 -0.2045
18663SOL    HW160031   0.222   8.285   2.446 -1.2015  0.3803 -0.5372
18663SOL    HW260032   0.243   8.324   2.591 -1.9357  2.3013 -0.9211
18664SOL     OW60033   5.547   4.293   8.539  0.3217 -0.0699 -0.2089
18664SOL    HW160034   5.539   4.198   8.531  0.0293  0.0331 -1.1882
18664SOL    HW260035   5.458   4.326   8.529  0.4138  0.3130  0.1822
18665SOL     OW60036   2.392   1.248   0.028 -0.3587  0.5711 -0.5864
18665SOL    HW160037   2.470   1.273  -0.021  0.2585 -0.2698 -0.0684
18665SOL    HW260038   2.331   1.216  -0.039 -0.0787  0.7828 -0.9486
18666SOL     OW60039  10.107   5.736   6.396 -0.3107  0.6651  0.3119
18666SOL    HW160040  10.012   5.737   6.403 -0.2501  0.9903  1.1654
18666SOL    HW260041  10.138   5.729   6.486  0.4620 -2.1212 -0.0784
18667SOL     OW60042   0.685   6.408   3.913  0.5014  0.2724 -0.0922
18667SOL    HW160043   0.761   6.396   3.856  1.5890 -1.9556  1.6553
18667SOL    HW260044   0.710   6.364   3.995 -2.2730  0.3865  0.9027
18668SOL     OW60045   6.057   5.788   1.082  0.5123  0.1577  0.7641
18668SOL    HW160046   6.116   5.726   1.040  2.2349  1.9312  0.4477
18668SOL    HW260047   6.104   5.817   1.161 -0.4145  0.7819  1.1090
18669SOL     OW60048   3.410   7.308   3.423  0.5653  0.0747  0.2980
18669SOL    HW160049   3.363   7.227   3.441 -1.4214  0.9193 -0.8380
18669SOL    HW260050   3.494   7.298   3.469 -0.4502 -1.7540  1.8738
18670SOL     OW60051   8.122   5.498   0.911  0.3266  0.0968 -0.1494
18670SOL    HW160052   8.164   5.417   0.941  0.6340  0.3295  0.0598
18670SOL    HW260053   8.169   5.521   0.831 -1.2882 -1.1746 -1.5224
18671SOL     OW60054   6.302   9.006   2.647  0.0390 -0.3771 -0.7973
18671SOL    HW160055   6.287   9.072   2.580 -1.2460 -0.5705 -0.7249
18671SOL    HW260056   6.389   9.025   2.681  0.0472  0.7136 -1.4015
18672SOL     OW60057   3.287   2.689   4.499 -0.2808 -0.0183 -0.4086
18672SOL    HW160058   3.359   2.752   4.503 -2.1350  2.1432  1.9667
18672SOL    HW260059   3.325   2.607   4.531  1.0728  1.1699  1.1884
18673SOL     OW60060   0.746   5.080   7.794  0.7461  0.1832  0.6009
18673SOL    HW160061   0.766   5.162   7.839 -1.4235  0.6513  0.8220
18673SOL    HW260062   0.706   5.107   7.712  1.7011 -0.6824 -0.1796
18674SOL     OW60063   5.016   1.524   1.748 -0.0456  0.5811 -0.3394
18674SOL    HW160064   5.049   1.580   1.818 -0.3298  0.9449 -0.4965
18674SOL    HW260065   5.058   1.439   1.764  1.3988  1.1754 -0.8437
18675SOL     OW60066   6.355   9.363   9.203 -0.2784  0.2447  0.1041
18675SOL    HW160067   6.331   9.453   9.181  0.4735  0.4238 -0.0238
18675SOL    HW260068   6.448   9.368   9.224 -0.6931 -0.1145  2.2589
18676SOL     OW60069   3.070   9.818   2.154 -0.1353 -0.4704  0.4558
18676SOL    HW160070   3.034   9.744   2.105  0.8428 -1.5452  1.3138
18676SOL    HW260071   3.089   9.884   2.087  0.8739 -1.7810 -0.5961
18677SOL     OW60072   6.326   2.846   5.389 -0.0205 -0.9873  0.5226
18677SOL    HW160073   6.383   2.788   5.440 -0.7341 -2.2073 -0.0315
18677SOL    HW260074   6.362   2.842   5.300  1.5764  1.5828  0.9504
18678SOL     OW60075   9.624  10.245   5.692  0.1290  0.2587 -0.3547
18678SOL    HW160076   9.699  10.303   5.705  0.1691  0.0522  0.3921
18678SOL    HW260077   9.581  10.278   5.613  1.1545  0.2179 -0.9550
18679SOL     OW60078   8.303  10.038   1.935 -0.2031  0.3560 -0.2301
18679SOL    HW160079   8.321  10.131   1.924 -2.3494  1.1112  1.8052
18679SOL    HW260080   8.365  10.009   2.001 -1.3393  1.1128  1.2388
18680SOL     OW60081   1.414  10.205   4.260  0.2148  0.4727 -0.3311
18680SOL    HW160082   1.420  10.110   4.246  0.4262  0.4103  0.1606
18680SOL    HW260083   1.323  10.226   4.240  0.1367  0.1465 -0.3226
18681SOL     OW60084   0.866   1.376   8.206  0.5503 -0.2387  0.7472
18681SOL    HW160085   0.874   1.362   8.111 -0.6666 -1.6779  0.8242
18681SOL    HW260086   0.926   1.448   8.224 -1.1534  1.9519 -1.5339
18682SOL     OW60087   3.134   8.018   3.089  0.2370  0.6153  0.6453
18682SOL    HW160088   3.145   8.000   2.996 -0.2485  0.0053  0.6961
18682SOL    HW260089   3.170   8.105   3.102 -1.6039  1.6057 -0.5035
18683SOL     OW60090   2.730   2.652   0.204  0.1372  0.1568 -0.2851
18683SOL    HW160091   2.758   2.681   0.291 -2.1619 -1.2085  1.0069
18683SOL    HW260092   2.734   2.556   0.209 -2.5454 -0.0365 -0.7057
18684SOL     OW60093   7.410   4.960   5.807  0.0126  0.4954  0.8046
18684SOL    HW160094   7.332   5.016   5.818  0.2207  0.7991  0.7542
18684SOL    HW260095   7.481   5.022   5.789 -0.1667  0.0793 -1.5822
18685SOL     OW60096   3.427   8.804   9.113  0.2328  0.4752 -0.3335
18685SOL    HW160097   3.381   8.884   9.088 -0.4330  0.1079 -0.2993
18685SOL    HW260098   3.397   8.785   9.201  1.4015  0.9075  0.1870
18686SOL     OW60099   0.730   7.749   4.588  0.2063 -0.5374  0.5468
18686SOL    HW160100   0.816   7.738   4.628  0.0145 -0.8623  0.8774
18686SOL    HW260101   0.678   7.792   4.656  0.5071  1.0275 -0.1629
18687SOL     OW60102   6.380   5.146   0.812 -0.0384 -0.3305 -0.6594
18687SOL    HW160103   6.412   5.073   0.760  2.0923 -0.7383  1.0715
18687SOL    HW260104   6.298   5.114   0.850 -0.1781 -1.0453 -1.5445
18688SOL     OW60105   8.382   7.809   2.826  0.0078  0.2068 -0.1341
18688SOL    HW160106   8.296   7.851   2.819  0.2793  1.1102  1.4656
18688SOL    HW260107   8.363   7.721   2.859 -0.3762 -0.0600 -1.0294
18689SOL     OW60108   7.400   6.520   4.538 -0.1315  0.0182 -0.2705
18689SOL    HW160109   7.360   6.566   4.464 -0.5877 -1.0647 -0.7241
18689SOL    HW260110   7.493   6.544   4.533 -0.0068 -0.5952 -1.6664
18690SOL     OW60111   0.958   5.529   4.078  0.3342 -0.3319 -0.5846
18690SOL    HW160112   0.990   5.483   4.000  0.4650 -2.4404  0.6485
18690SOL    HW260113   0.865   5.506   4.083  0.6166 -1.3554  0.5795
18691SOL     OW60114   6.661   8.150   6.323  0.1519 -0.4032  0.1576
18691SOL    HW160115   6.569   8.135   6.301 -0.1683  1.5063  0.0210
18691SOL    HW260116   6.667   8.129   6.416 -0.6306  0.2511  0.3665
18692SOL     OW60117  10.010   4.758   0.437 -0.5257 -0.0644  0.2229
18692SOL    HW160118  10.092   4.754   0.387  0.6166  1.5870  1.8505
18692SOL    HW260119  10.011   4.678   0.490 -0.1222 -0.1936  0.0299
18693SOL     OW60120   6.865   1.590   4.321  0.2600 -0.0936 -0.4713
18693SOL    HW160121   6.857   1.498   4.296 -0.0221  0.2600 -1.7351
18693SOL    HW260122   6.776   1.617   4.343  0.3573 -0.1482 -0.0119
18694SOL     OW60123   2.254   1.160   1.954 -0.6770 -0.7428 -0.2774
18694SOL    HW160124   2.195   1.148   1.880  0.8903 -1.5145 -1.4796
18694SOL    HW260125   2.212   1.113   2.026 -1.2506 -1.7769 -1.2522
18695SOL     OW60126   2.991   4.322   2.846  0.0058 -0.2374 -0.1638
18695SOL    HW160127   3.052   4.334   2.918 -0.6307  0.9297  0.2128
18695SOL    HW260128   2.940   4.404   2.843 -0.6060 -0.6231 -1.3370
18696SOL     OW60129   0.752   0.391   8.939  0.3471  0.1081  0.2893
18696SOL    HW160130   0.697   0.373   8.862  0.9982  0.4232 -0.2665
18696SOL    HW260131   0.697   0.444   8.996 -0.7463 -1.5703  0.8461
18697SOL     OW60132   5.804   9.890   3.972 -0.1441  0.6437 -0.4321
18697SOL    HW160133   5.804   9.824   3.903  0.5228  0.5023 -0.3016
18697SOL    HW260134   5.894   9.921   3.975 -0.2015  0.7483  0.2789
18698SOL     OW60135   8.364   4.311   2.340  0.1064 -0.4619 -0.0526
18698SOL    HW160136   8.339   4.219   2.341 -0.9202 -0.2518 -2.1986
18698SOL    HW260137   8.351   4.340   2.430 -3.1357 -1.4996 -0.0798
18699SOL     OW60138   1.314   2.311   1.439 -0.3023 -0.2684  0.1776
18699SOL    HW160139   1.399   2.269   1.428 -0.6761 -1.0056  0.0018
18699SOL    HW260140   1.288   2.290   1.529 -1.1528 -1.7248 -0.3636
18700SOL     OW60141   4.276   0.982   8.332  0.4246 -0.1212 -0.2760
18700SOL    HW160142   4.205   0.998   8.395  1.0270  1.3207  0.0702
18700SOL    HW260143   4.354   1.019   8.375  1.0962 -0.3149 -1.3098
18701SOL     OW60144   8.519   5.303   3.950 -0.0106  0.6038  0.3913
18701SOL    HW160145   8.575   5.238   3.907  0.9783  0.4594  1.8152
18701SOL    HW260146   8.507   5.372   3.884 -3.1444 -1.9850 -2.1221
18702SOL     OW60147   9.064   3.124   7.002  0.4636 -0.6650 -0.2545
18702SOL    HW160148   9.109   3.044   6.978  0.1596 -1.5813  1.9702
18702SOL    HW260149   9.075   3.131   7.097 -3.2786 -0.5048  0.3410
18703SOL     OW60150   0.052   2.724   9.181 -0.0605 -0.1633 -0.2600
18703SOL    HW160151   0.089   2.763   9.261  2.3121  0.9241 -1.7799
18703SOL    HW260152   0.009   2.644   9.212 -2.8154  2.1428  2.6292
18704SOL     OW60153   7.458   2.141   9.027  0.1105 -0.3530 -0.5526
18704SOL    HW160154   7.432   2.049   9.020  2.0346 -1.2284  2.1413
18704SOL    HW260155   7.513   2.156   8.950  1.0176 -1.9746 -0.2722
18705SOL     OW60156   3.120   3.067   5.346  0.1003 -0.5116 -0.6433
18705SOL    HW160157   3.114   3.161   5.362  1.5174 -0.4018 -0.6557
18705SOL    HW260158   3.062   3.051   5.271  0.1245  0.4121 -0.8624
18706SOL     OW60159   4.822   1.332   7.754  0.6706 -0.1080 -0.4820
18706SOL    HW160160   4.909   1.368   7.742  0.8467 -0.7960 -1.4102
18706SOL    HW260161   4.835   1.237   7.755  0.0745 -0.2018  0.6308
18707SOL     OW60162   8.711   2.914   5.275  0.3704 -0.4697  0.3343
18707SOL    HW160163   8.784   2.913   5.337 -0.6894  0.7171  1.6773
18707SOL    HW260164   8.749   2.887   5.192  1.8662 -2.0364  1.4682
18708SOL     OW60165   9.254   4.789   9.294  0.3199 -0.6381 -0.3045
18708SOL    HW160166   9.172   4.776   9.246  0.4793  0.9601 -1.0385
18708SOL    HW260167   9.278   4.700   9.322 -1.4379 -1.2032 -0.4091
18709SOL     OW60168   3.960   1.799   9.799  0.1418  0.1454  0.0625
18709SOL    HW160169   3.994   1.843   9.721  1.2395 -1.0924 -0.1935
18709SOL    HW260170   3.867   1.785   9.780 -0.4325  2.9369  0.4579
18710SOL     OW60171   8.977   3.284   4.008  0.4916  0.1592 -0.4631
18710SOL    HW160172   8.927   3.356   3.969  1.3255  0.3034 -1.3046
18710SOL    HW260173   8.919   3.247   4.074  0.7761  3.0008  1.5854
18711SOL     OW60174   5.583   7.272   6.474  0.7979 -0.0866  0.3523
18711SOL    HW160175   5.661   7.217   6.469  0.9797  0.2101 -0.0982
18711SOL    HW260176   5.578   7.315   6.389  1.7841  2.0998  1.3147
18712SOL     OW60177   8.258   9.887   3.183  0.4108 -0.5565  0.0066
18712SOL    HW160178   8.318   9.858   3.115  1.6044  2.3470 -0.3464
18712SOL    HW260179   8.185   9.926   3.135  0.9261  0.8659  0.3077
18713SOL     OW60180   9.613   2.258   8.052 -0.3332 -0.1258 -0.1215
18713SOL    HW160181   9.686   2.255   8.113  0.0061 -0.8974 -0.5582
18713SOL    HW260182   9.537   2.277   8.107  0.0788 -0.0657  0.4337
18714SOL     OW60183   6.361   7.885   0.516  0.5965 -0.4477 -0.9146
18714SOL    HW160184   6.406   7.864   0.598 -0.4632 -1.3944 -0.5422
18714SOL    HW260185   6.350   7.800   0.473 -2.2080 -0.5326 -0.2358
18715SOL     OW60186   9.618   1.360   6.902 -0.5210 -0.4259 -0.5892
18715SOL    HW160187   9.627   1.268   6.877 -1.5949 -0.6101 -0.3677
18715SOL    HW260188   9.647   1.364   6.993 -0.8619 -0.6389 -0.4670
18716SOL     OW60189   1.368   7.786   9.045  0.2534  0.6370  0.2190
18716SOL    HW160190   1.298   7.851   9.050 -1.0695 -0.6360 -0.8086
18716SOL    HW260191   1.390   7.767   9.136  0.5755  2.3735  0.5420
18717SOL     OW60192   7.742   0.313   7.842  0.1026 -0.3869 -0.1749
18717SOL    HW160193   7.720   0.282   7.754  1.8728  1.0155 -1.1703
18717SOL    HW260194   7.778   0.236   7.886 -2.5727 -1.6183  0.0755
18718SOL     OW60195   9.873   3.496   9.654 -0.0570  0.0850  0.6022
18718SOL    HW160196   9.791   3.447   9.655  0.3556 -0.6255  0.9959
18718SOL    HW260197   9.875   3.543   9.738 -0.4119  0.7178  0.2620
18719SOL     OW60198   7.530   8.195   0.828  0.1844  0.1763  0.4072
18719SOL    HW160199   7.492   8.128   0.884  1.7060  0.7471  2.2032
18719SOL    HW260200   7.600   8.151   0.781  0.3460  0.2125  0.6150
18720SOL     OW60201   3.240   8.699   4.752  0.7700 -0.0881  0.0309
18720SOL    HW160202   3.200   8.752   4.821  0.3718 -2.0386  1.4259
18720SOL    HW260203   3.334   8.715   4.761  0.5739  1.7515 -0.8370
18721SOL     OW60204   8.264   1.199   0.930  0.9629 -0.9924  0.2049
18721SOL    HW160205   8.191   1.163   0.880 -0.7169  1.1700  0.9092
18721SOL    HW260206   8.287   1.131   0.993 -0.0884 -1.9348 -0.4032
18722SOL     OW60207   9.586   7.653   1.960 -0.2993  0.6167  0.1467
18722SOL    HW160208   9.579   7.565   1.923 -1.5212  1.5488 -2.0250
18722SOL    HW260209   9.659   7.693   1.912 -0.3990  1.1094  0.3976
18723SOL     OW60210   7.306   6.492   3.782  0.4702  0.2499 -0.1265
18723SOL    HW160211   7.266   6.453   3.705  0.5881  0.5422 -0.3362
18723SOL    HW260212   7.341   6.418   3.831 -1.4027 -0.1369  0.6952
18724SOL     OW60213   4.289   1.730   8.517  0.2934 -0.4590 -0.4769
18724SOL    HW160214   4.274   1.803   8.576 -0.4988 -1.3973  0.5202
18724SOL    HW260215   4.276   1.767   8.429  1.4264  0.9339 -0.1016
18725SOL     OW60216   2.407   7.686   5.772  0.0710  0.0901  0.0711
18725SOL    HW160217   2.429   7.598   5.740 -1.8088 -0.6391  0.6342
18725SOL    HW260218   2.425   7.744   5.697  0.1688 -0.9449 -0.7328
18726SOL     OW60219   5.603   0.680   0.591  0.2050 -0.1403 -0.8320
18726SOL    HW160220   5.580   0.644   0.505  1.7313 -0.9111 -0.9612
18726SOL    HW260221   5.527   0.659   0.647 -0.8182  0.4079 -1.9732
18727SOL     OW60222   0.815   8.239   6.172  0.5077 -0.1509  0.3887
18727SOL    HW160223   0.882   8.305   6.153 -0.1905  0.3990 -0.2054
18727SOL    HW260224   0.733   8.281   6.150  0.1763 -2.0181 -2.3707
18728SOL     OW60225   6.932   9.130   2.379 -0.2518  0.2853 -0.3598
18728SOL    HW160226   6.910   9.214   2.419  1.7552 -0.0047  1.5580
18728SOL    HW260227   7.013   9.147   2.332  0.2921 -0.6107  0.2343
18729SOL     OW60228   3.839   2.021   6.483  0.2434  0.0372 -0.1534
18729SOL    HW160229   3.817   1.969   6.560  0.6999  1.5626  1.0688
18729SOL    HW260230   3.755   2.059   6.456  0.0230 -0.7783 -0.6431
18730SOL     OW60231   5.138   5.388   4.682 -0.1607  0.0297  0.0743
18730SOL    HW160232   5.087   5.402   4.602 -1.2928  0.6298  0.8783
18730SOL    HW260233   5.202   5.460   4.682 -1.0742  0.8764  0.3864
18731SOL     OW60234  10.230   2.938   9.679 -0.0617 -0.0569  0.4339
18731SOL    HW160235  10.293   2.881   9.636  1.5397  1.3059  0.8740
18731SOL    HW260236  10.227   2.906   9.770  0.5845  0.3539  0.6013
18732SOL     OW60237   1.355   7.003   1.226  0.4386  0.3041  0.1322
18732SOL    HW160238   1.402   6.982   1.308  2.0466 -1.4184 -1.1427
18732SOL    HW260239   1.424   7.014   1.161 -0.8145  1.5427 -1.0563
18733SOL     OW60240   0.409   0.330   2.130 -0.1981 -0.7086 -0.7629
18733SOL    HW160241   0.413   0.284   2.047  1.0817 -2.8247  0.3894
18733SOL    HW260242   0.493   0.375   2.138 -0.1496 -0.8474 -0.4468
18734SOL     OW60243   1.618   4.132   3.378  0.2652  0.1108 -0.0493
18734SOL    HW160244   1.643   4.066   3.313  0.8783 -0.5961  0.8790
18734SOL    HW260245   1.524   4.118   3.390  0.0439  0.5626 -1.1122
18735SOL     OW60246   4.995   5.025   3.298 -0.5495  0.0819  0.2267
18735SOL    HW160247   4.960   5.060   3.216  1.6355  0.1513 -0.7413
18735SOL    HW260248   4.978   4.931   3.292 -0.5651  0.1096 -0.2395
18736SOL     OW60249   3.947   3.779   1.364  0.1552  0.3548 -0.2312
18736SOL    HW160250   4.023   3.772   1.306 -0.1055  0.8750 -0.6513
18736SOL    HW260251   3.976   3.742   1.447  0.5191 -0.4593 -0.7116
18737SOL     OW60252   3.038   6.627   9.752 -0.6334  0.2444  0.0595
18737SOL    HW160253   3.115   6.666   9.793 -0.2019 -1.3303  0.8229
18737SOL    HW260254   2.969   6.634   9.819 -0.5051 -0.4354  0.2682
18738SOL     OW60255   9.334   0.305   3.215 -0.1495 -0.2904 -0.0357
18738SOL    HW160256   9.312   0.347   3.298  0.2488 -0.1214 -0.0086
18738SOL    HW260257   9.410   0.250   3.235 -0.0293 -0.2211 -0.2920
18739SOL     OW60258  10.139   1.911   9.610  0.4449  0.0046  0.4613
18739SOL    HW160259  10.174   1.960   9.685  0.2380 -0.9547  1.1999
18739SOL    HW260260  10.104   1.830   9.648  2.0415 -1.3850 -0.8738
18740SOL     OW60261   5.600   8.217   1.458  0.3283 -0.3534  0.7407
18740SOL    HW160262   5.654   8.277   1.408 -1.8290  0.5028 -0.6919
18740SOL    HW260263   5.544   8.274   1.511  1.3209 -1.2264  2.8605
18741SOL     OW60264   4.750   0.908  10.031 -0.2008 -0.0641 -0.1565
18741SOL    HW160265   4.733   0.822  10.069 -0.8202 -0.1854 -0.6936
18741SOL    HW260266   4.692   0.968  10.079  3.9388  1.1477  4.1225
18742SOL     OW60267   2.067   8.782   8.907 -0.1236  0.3384  0.1171
18742SOL    HW160268   2.093   8.733   8.828  0.1617  0.6243  0.0313
18742SOL    HW260269   2.002   8.845   8.877 -0.3527  0.1402  0.1936
18743SOL     OW60270   6.681   5.317   7.165  0.0478 -0.0398  0.3749
18743SOL    HW160271   6.758   5.320   7.108 -0.3035  1.1725 -0.0585
18743SOL    HW260272   6.691   5.235   7.214  1.6576  0.1307  0.3873
18744SOL     OW60273   4.087   6.452   7.783 -0.2806  0.0869 -0.3303
18744SOL    HW160274   4.047   6.378   7.738 -1.9536  0.2682  0.7629
18744SOL    HW260275   4.140   6.412   7.852 -0.9746 -0.1186  0.0944
18745SOL     OW60276   2.408   2.849   8.508  0.0758  0.1627  0.5141
18745SOL    HW160277   2.347   2.914   8.543 -0.6933 -0.4810  0.3871
18745SOL    HW260278   2.400   2.858   8.413  0.3495  0.2193  0.4931
18746SOL     OW60279   3.037   0.564   5.265  0.0160  0.1389  0.6343
18746SOL    HW160280   3.107   0.611   5.220  1.6913 -2.3639  0.4796
18746SOL    HW260281   2.965   0.564   5.202  0.8903  0.2518 -0.4065
18747SOL     OW60282   9.596   3.305   9.738  0.2691  0.2964 -0.3963
18747SOL    HW160283   9.506   3.302   9.704 -0.5861 -0.0999  1.7722
18747SOL    HW260284   9.649   3.275   9.664 -1.3966  0.2731 -1.6586
18748SOL     OW60285   9.941   8.190   7.503 -0.3417  0.2181 -0.0090
18748SOL    HW160286   9.855   8.199   7.545 -0.1219  1.2404  0.2486
18748SOL    HW260287   9.969   8.280   7.487 -0.3050 -0.1373 -2.1444
18749SOL     OW60288   6.637   7.507   0.389 -0.2861 -0.1329 -0.5575
18749SOL    HW160289   6.572   7.489   0.456  0.4257  1.2002  0.5345
18749SOL    HW260290   6.718   7.524   0.438  0.4871 -0.0991 -1.8008
18750SOL     OW60291   4.948   9.311   3.204 -0.6443  0.3817  0.0036
18750SOL    HW160292   5.014   9.276   3.265  0.1544  0.4136 -0.8300
18750SOL    HW260293   4.873   9.332   3.260  0.3594  1.1506  1.0987
18751SOL     OW60294   0.603   2.351   7.228  0.1733 -0.6852  0.0194
18751SOL    HW160295   0.678   2.292   7.233  0.8401  0.1222 -0.2289
18751SOL    HW260296   0.575   2.362   7.318  0.7142 -0.5495  0.1758
18752SOL     OW60297   9.211   9.808   3.078 -0.5033  0.2627 -0.2287
18752SOL    HW160298   9.179   9.758   3.003  0.5019 -1.8075  0.6287
18752SOL    HW260299   9.305   9.788   3.081  0.0487  2.6018 -0.0755
18753SOL     OW60300   3.235   9.963   4.454 -0.2543 -0.6621 -0.0276
18753SOL    HW160301   3.275   9.973   4.540 -0.4382 -1.4365  0.1589
18753SOL    HW260302   3.295  10.007   4.394 -0.3442  0.2571  0.5449
18754SOL     OW60303   0.143   4.720   5.925 -0.2601 -0.4131 -0.1608
18754SOL    HW160304   0.119   4.628   5.938  0.7516 -0.3773  2.7869
18754SOL    HW260305   0.102   4.766   5.998  2.4973  0.7874  0.7793
18755SOL     OW60306  10.032   3.703   2.787 -0.1480  0.1970 -0.7633
18755SOL    HW160307  10.049   3.778   2.729  1.1612 -0.2354 -0.9707
18755SOL    HW260308  10.027   3.741   2.874  0.7874  0.5213 -0.8318
18756SOL     OW60309   9.516   9.123   7.170  0.1262 -0.6353  0.2072
18756SOL    HW160310   9.500   9.204   7.218  0.0051 -0.1543 -0.6337
18756SOL    HW260311   9.430   9.083   7.161 -0.0109 -0.1699 -0.5809
18757SOL     OW60312   2.107   5.004   5.838 -0.0781  0.1161 -0.0318
18757SOL    HW160313   2.162   5.079   5.817 -1.2888  0.6252 -1.5629
18757SOL    HW260314   2.078   5.019   5.928  2.1309 -0.1125  0.7768
18758SOL     OW60315   0.572   1.039   2.966  0.0647  0.1163  0.7320
18758SOL    HW160316   0.625   1.112   3.000 -0.1518  0.8092 -0.3910
18758SOL    HW260317   0.574   1.049   2.871  1.1844 -2.1626  0.4297
18759SOL     OW60318   8.242   8.467   6.216  0.0679 -0.5033  0.1835
18759SOL    HW160319   8.146   8.461   6.214 -0.0512  0.6104  1.1165
18759SOL    HW260320   8.269   8.389   6.264 -0.4267 -0.4599  0.5452
18760SOL     OW60321   2.892   2.309   7.680 -0.2268 -0.2175  0.3930
18760SOL    HW160322   2.984   2.324   7.661 -0.2052  0.1693  0.7974
18760SOL    HW260323   2.853   2.286   7.596  0.2200 -0.3067  0.2084
18761SOL     OW60324   4.869   3.016   2.424 -0.4733  0.1673 -0.2243
18761SOL    HW160325   4.794   2.969   2.388 -0.8233  0.5933 -0.0677
18761SOL    HW260326   4.945   2.961   2.405 -0.4067  1.0646 -3.0691
18762SOL     OW60327   5.964   5.807  10.072 -0.4620 -0.2213 -0.4730
18762SOL    HW160328   5.921   5.870  10.130 -2.1890 -1.0076 -0.8199
18762SOL    HW260329   6.027   5.762  10.127 -0.9424  0.1369  0.3822
18763SOL     OW60330   2.919   3.478   7.188  0.6152  0.2794  0.2424
18763SOL    HW160331   2.852   3.488   7.255  0.8838 -1.3162  0.7733
18763SOL    HW260332   2.973   3.405   7.218  0.9553 -0.2377 -1.5283
18764SOL     OW60333   8.173   2.738   9.116 -0.0403  0.0598 -0.1281
18764SOL    HW160334   8.080   2.735   9.142 -0.4074 -0.6936 -1.4158
18764SOL    HW260335   8.195   2.831   9.119 -0.6244  0.1940  0.8532
18765SOL     OW60336   2.711   5.600   6.515  0.2117  0.4762 -0.0712
18765SOL    HW160337   2.744   5.510   6.509  1.2031  0.9368 -2.6303
18765SOL    HW260338   2.772   5.643   6.575 -0.7785 -0.6903  1.8837
18766SOL     OW60339   4.297   3.723   7.310 -0.0712  0.1568 -0.0174
18766SOL    HW160340   4.332   3.782   7.377  1.0476 -0.2957 -0.1759
18766SOL    HW260341   4.281   3.641   7.356  0.1823  0.0139 -0.1783
18767SOL     OW60342   2.020   3.112   4.748  0.8940 -0.7624 -0.3710
18767SOL    HW160343   2.007   3.201   4.781 -1.0518 -1.3353  0.5868
18767SOL    HW260344   1.964   3.106   4.670 -1.7834 -2.0770  1.4908
18768SOL     OW60345   7.342   0.725   3.578 -0.5168  0.3420  0.2854
18768SOL    HW160346   7.417   0.776   3.550 -0.5181  0.8363  1.1288
18768SOL    HW260347   7.346   0.727   3.674 -0.6903 -0.9897  0.3397
18769SOL     OW60348   7.201  10.077   9.213  0.0929  0.3108  0.8468
18769SOL    HW160349   7.262  10.038   9.275  0.3749  0.0663  0.4250
18769SOL    HW260350   7.166  10.153   9.258  0.2041  0.0711  1.3473
18770SOL     OW60351   6.653   3.425   0.302  0.1828 -0.6488 -0.6188
18770SOL    HW160352   6.682   3.392   0.217 -2.3382 -2.5133 -0.8868
18770SOL    HW260353   6.715   3.389   0.365 -0.5470 -3.2808 -1.2730
18771SOL     OW60354   2.829   5.366   1.980 -0.1998 -0.1462  0.2130
18771SOL    HW160355   2.750   5.339   1.934  0.5565 -1.7210 -0.2672
18771SOL    HW260356   2.874   5.283   2.000  3.4238  0.6875 -3.3244
18772SOL     OW60357   2.531   3.795   2.451  0.1334  0.2459 -0.1001
18772SOL    HW160358   2.605   3.766   2.504  0.8936  0.8258 -0.8161
18772SOL    HW260359   2.565   3.869   2.401 -0.5781 -0.2447 -1.3483
18773SOL     OW60360   2.786   4.044   6.035  0.4280  0.0736 -0.5501
18773SOL    HW160361   2.833   4.127   6.047 -0.0563  0.2551  0.0923
18773SOL    HW260362   2.855   3.978   6.035  0.9164  0.5288 -1.9089
18774SOL     OW60363  10.131   3.265   4.185 -0.4070 -0.4485 -0.2285
18774SOL    HW160364  10.113   3.302   4.271 -0.4637 -2.1602  0.5391
18774SOL    HW260365  10.046   3.233   4.155 -0.6538  1.3389 -1.5558
18775SOL     OW60366   6.824   6.468   7.268  0.1661 -0.2938 -0.2135
18775SOL    HW160367   6.854   6.491   7.180  2.8950  0.0758  0.7063
18775SOL    HW260368   6.813   6.552   7.312  0.0162 -0.5130  0.1708
18776SOL     OW60369   5.701   4.622   9.637 -0.6809  0.1237  0.8196
18776SOL    HW160370   5.698   4.709   9.678  1.5110  0.3589  0.5791
18776SOL    HW260371   5.612   4.588   9.648 -1.1759  1.7374  2.3307
18777SOL     OW60372   1.062   6.663   8.346  0.8578  0.7930  0.0700
18777SOL    HW160373   1.002   6.668   8.272  0.2608  1.8399  0.5999
18777SOL    HW260374   1.014   6.612   8.412  0.3664  1.9326  0.6278
18778SOL     OW60375   5.042   6.083   3.473 -0.1789  0.3846  0.6007
18778SOL    HW160376   5.116   6.058   3.528 -0.0123 -0.8373 -0.1275
18778SOL    HW260377   4.975   6.113   3.535  0.4847  0.3371  1.3611
18779SOL     OW60378   9.628   6.756   3.536 -0.2060 -0.3070  0.0672
18779SOL    HW160379   9.635   6.818   3.463  1.6574 -0.2251  0.2649
18779SOL    HW260380   9.717   6.749   3.570 -1.0706 -0.0496  2.5882
18780SOL     OW60381   7.501   9.538   0.507  0.0199 -0.3097  0.3000
18780SOL    HW160382   7.467   9.625   0.486 -0.4413 -0.9742 -1.9149
18780SOL    HW260383   7.424   9.486   0.529  0.0299 -0.7553 -0.6905
18781SOL     OW60384   5.498   0.654   4.065  0.3280 -0.9255 -0.4618
18781SOL    HW160385   5.464   0.678   4.151  0.6832 -1.2668 -0.2264
18781SOL    HW260386   5.548   0.574   4.080 -0.0883 -1.3065 -1.0839
18782SOL     OW60387   8.915   2.475   9.398 -0.4745  0.4398 -0.1828
18782SOL    HW160388   8.854   2.410   9.365 -0.4905  0.2829  0.1586
18782SOL    HW260389   8.939   2.444   9.485 -1.1570  1.3404  0.3436
18783SOL     OW60390   4.845   6.167   6.277 -0.1879 -0.0200 -0.1094
18783SOL    HW160391   4.836   6.089   6.331 -0.0984  0.4921  0.6558
18783SOL    HW260392   4.794   6.234   6.322 -0.8534  0.1911 -1.1316
18784SOL     OW60393   9.468   5.408  10.073  0.3768 -0.0826 -0.8291
18784SOL    HW160394   9.561   5.424  10.089  0.1325  1.8759 -1.1177
18784SOL    HW260395   9.422   5.462  10.137 -0.6371 -2.2227  0.3898
18785SOL     OW60396   5.053   3.548   7.193 -0.5270 -0.0558  0.2261
18785SOL    HW160397   5.023   3.603   7.120  1.0437  2.3521  1.2536
18785SOL    HW260398   5.140   3.518   7.167 -0.9114 -1.1416  0.1566
18786SOL     OW60399   6.334   2.156   5.326  0.1561  0.3018  0.7242
18786SOL    HW160400   6.402   2.106   5.370  1.5178 -0.7974 -2.3128
18786SOL    HW260401   6.275   2.090   5.290 -1.0849  1.1493  1.1610
18787SOL     OW60402   5.557   2.887   4.598  0.2349  0.4317  0.1556
18787SOL    HW160403   5.594   2.966   4.560  0.0343  0.8640  0.8364
18787SOL    HW260404   5.630   2.846   4.645  0.0290  0.9286  0.9301
18788SOL     OW60405   1.538   2.817   8.780  0.1478 -0.1696  0.1268
18788SOL    HW160406   1.574   2.903   8.754  1.4985 -0.9158 -0.6039
18788SOL    HW260407   1.465   2.803   8.720 -0.7243  0.8937  0.9026
18789SOL     OW60408   5.737   3.890   1.352 -0.6427 -0.2180  0.2003
18789SOL    HW160409   5.643   3.872   1.351 -1.2375  2.5097 -0.4506
18789SOL    HW260410   5.760   3.907   1.261  0.8761 -2.2662  0.1148
18790SOL     OW60411   4.050   0.651   1.805 -0.3326  0.4681 -0.0817
18790SOL    HW160412   4.111   0.710   1.847 -0.8825  0.9147  0.1023
18790SOL    HW260413   4.105   0.580   1.770  0.3369  1.1124 -0.3606
18791SOL     OW60414   4.334   4.967   2.849 -0.1386 -0.2696  0.1185
18791SOL    HW160415   4.354   5.035   2.914  1.6867  0.6188 -1.3015
18791SOL    HW260416   4.239   4.953   2.859 -0.6828  2.7750  0.2111
18792SOL     OW60417   6.943   2.233   5.284 -0.0751 -0.1345  0.4691
18792SOL    HW160418   6.963   2.297   5.215 -0.4708 -0.3283  0.1694
18792SOL    HW260419   7.024   2.184   5.295 -0.6085 -1.5336 -1.3863
18793SOL     OW60420   7.116   2.072   1.164  0.7733 -0.0932 -0.0962
18793SOL    HW160421   7.028   2.095   1.135  1.0044 -0.5851 -1.2736
18793SOL    HW260422   7.107   1.986   1.205  0.5794  0.2247  0.5363
18794SOL     OW60423   4.848   1.575   6.049 -0.3022  0.3045  0.3325
18794SOL    HW160424   4.777   1.589   6.112  0.2664  1.0528  0.8263
18794SOL    HW260425   4.911   1.645   6.068  0.2785  0.0241 -0.5080
18795SOL     OW60426   9.410   2.136   0.493 -0.1945 -0.4844  0.5062
18795SOL    HW160427   9.400   2.069   0.425  0.8921 -0.8747  0.7042
18795SOL    HW260428   9.357   2.209   0.463 -0.6554 -1.0880 -0.1843
18796SOL     OW60429   9.844   7.303   4.420  0.1960 -0.0333  0.3117
18796SOL    HW160430   9.772   7.241   4.433  1.6553 -1.9525 -0.2816
18796SOL    HW260431   9.824   7.375   4.480 -1.6312 -0.9986  0.9648
18797SOL     OW60432   2.615   9.596   1.390 -0.2417  0.3514  0.1370
18797SOL    HW160433   2.584   9.641   1.469  0.4978  2.5132 -0.7217
18797SOL    HW260434   2.552   9.623   1.322 -0.0107 -0.2607 -0.3188
18798SOL     OW60435   6.834   1.153   1.631 -0.4204 -0.3805 -0.0488
18798SOL    HW160436   6.779   1.211   1.684 -0.0631  0.6303 -0.7470
18798SOL    HW260437   6.919   1.156   1.674 -0.5026 -0.7030  0.1377
18799SOL     OW60438   7.534  10.177   4.872  0.3481  0.3309  0.1097
18799SOL    HW160439   7.537  10.158   4.966 -0.6305 -1.5434 -0.2085
18799SOL    HW260440   7.576  10.263   4.864  0.9666  0.2696  2.1829
18800SOL     OW60441   1.427   1.946   3.497 -0.3234 -0.3864  0.2175
18800SOL    HW160442   1.429   1.860   3.538  0.3915 -2.1151 -3.1525
18800SOL    HW260443   1.353   1.942   3.436  1.4965  0.2436 -2.1433
18801SOL     OW60444   5.050   3.251   0.336 -0.6065  0.3764  0.1823
18801SOL    HW160445   5.092   3.165   0.336  0.2289  0.7788 -0.3419
18801SOL    HW260446   4.959   3.233   0.362 -0.5043 -0.6906 -0.1619
18802SOL     OW60447  10.127   3.791   3.336 -0.0968 -0.2671 -0.2296
18802SOL    HW160448  10.048   3.755   3.376  0.0925 -1.0741 -0.5543
18802SOL    HW260449  10.153   3.864   3.393 -1.7171  0.7649 -0.7415
18803SOL     OW60450   7.182   5.804   1.083  0.3828  0.0345  0.4024
18803SOL    HW160451   7.182   5.716   1.045  0.6249  0.8719 -1.6408
18803SOL    HW260452   7.269   5.839   1.064 -0.2610  1.3164 -0.2965
18804SOL     OW60453   7.961   7.751   3.969 -0.1264  0.0677  0.5508
18804SOL    HW160454   7.937   7.669   3.926 -0.3409  0.8785 -0.9230
18804SOL    HW260455   7.974   7.813   3.898 -2.0297  1.8944  1.6547
18805SOL     OW60456   7.895   6.534   9.454  0.4911  0.5440  0.0414
18805SOL    HW160457   7.937   6.618   9.436  0.2268  1.5459  3.4318
18805SOL    HW260458   7.965   6.469   9.440  1.6351  1.6465  0.4381
18806SOL     OW60459   3.269   9.603   6.830 -0.1225  0.4257  0.0018
18806SOL    HW160460   3.229   9.525   6.792  0.1289  0.7342 -0.9201
18806SOL    HW260461   3.200   9.669   6.830  0.3115  0.9184 -1.4669
18807SOL     OW60462   9.554   5.423   0.577  0.0217  0.0919 -0.1027
18807SOL    HW160463   9.536   5.348   0.633 -0.0374  1.0393  1.1834
18807SOL    HW260464   9.583   5.384   0.494  1.1145 -1.3564  0.8957
18808SOL     OW60465   3.833   8.539   1.691  0.0351  0.2833 -0.1840
18808SOL    HW160466   3.741   8.522   1.707 -0.3203  1.8638 -0.3408
18808SOL    HW260467   3.868   8.456   1.659 -1.3307 -0.3403 -0.1237
18809SOL     OW60468   5.530   3.564   1.870  0.6737 -0.3235 -0.0344
18809SOL    HW160469   5.567   3.651   1.851 -0.0801 -0.3083 -1.6725
18809SOL    HW260470   5.606   3.508   1.885  1.2116  0.4049 -0.0107
18810SOL     OW60471  10.060   7.195   9.558  0.1518  0.0155  0.0969
18810SOL    HW160472  10.116   7.273   9.568  0.3777 -0.1201 -0.1052
18810SOL    HW260473   9.997   7.202   9.630  2.1183 -1.2736  2.0777
18811SOL     OW60474   0.977   5.026   3.042  0.2217 -0.0273  0.3398
18811SOL    HW160475   1.041   4.976   3.092  1.0115  1.4398  0.8682
18811SOL    HW260476   1.025   5.054   2.963 -0.3953 -0.6226 -0.2548
18812SOL     OW60477   5.858   3.191  10.117 -0.4724  0.1775  0.4689
18812SOL    HW160478   5.923   3.242  10.164 -0.7459  1.6399 -0.6685
18812SOL    HW260479   5.892   3.185  10.027 -0.6512 -1.3090  0.4740
18813SOL     OW60480   8.658   2.155   9.020 -0.0986 -0.0025  0.0186
18813SOL    HW160481   8.672   2.242   9.059 -0.7270  0.0169  0.2187
18813SOL    HW260482   8.564   2.139   9.032  0.5147 -2.0758  2.8279
18814SOL     OW60483   5.224   3.366   5.427 -0.0442  0.1861 -0.1903
18814SOL    HW160484   5.143   3.411   5.407 -0.3815 -0.1738  0.3339
18814SOL    HW260485   5.224   3.289   5.370  0.3599  0.6529 -0.8278
18815SOL     OW60486   2.159   5.606   9.607  0.0434 -0.1450  0.0795
18815SOL    HW160487   2.177   5.697   9.631  0.1409 -0.2593  0.4359
18815SOL    HW260488   2.206   5.594   9.524 -1.9529  0.8595 -1.2781
18816SOL     OW60489   4.535   3.248   1.131 -0.1625  0.0750 -0.7123
18816SOL    HW160490   4.469   3.179   1.130 -1.4519  1.2491 -0.5375
18816SOL    HW260491   4.490   3.324   1.095  1.3314  0.7467 -1.2710
18817SOL     OW60492  10.118   0.537   5.047  0.1489 -0.1756  0.6470
18817SOL    HW160493  10.174   0.460   5.059  0.2451 -0.4784 -1.4136
18817SOL    HW260494  10.180   0.610   5.041  0.3050 -0.3783 -0.5690
18818SOL     OW60495   6.405   8.629   2.980 -0.2770 -0.6467 -0.1931
18818SOL    HW160496   6.412   8.601   2.889 -1.9981 -0.7604 -0.3230
18818SOL    HW260497   6.377   8.551   3.027  0.7074 -0.6169  0.4706
18819SOL     OW60498   0.885   0.253   6.169 -0.0807 -0.0509 -0.5630
18819SOL    HW160499   0.946   0.257   6.243  1.4148 -0.3800 -1.7323
18819SOL    HW260500   0.803   0.289   6.204  1.0264  1.2942  0.7995
18820SOL     OW60501   6.946   0.046   4.808  0.3435  0.2717  0.2104
18820SOL    HW160502   7.041   0.056   4.813  0.3508 -0.2665  1.3424
18820SOL    HW260503   6.922   0.004   4.891 -0.6942 -1.0973 -0.7480
18821SOL     OW60504   5.233   0.214   1.667  0.2673  0.6008 -0.0551
18821SOL    HW160505   5.248   0.229   1.760 -0.0884  2.6721 -0.2894
18821SOL    HW260506   5.147   0.174   1.663  0.0350  1.0323  0.4839
18822SOL     OW60507   3.954   2.575   1.254  0.1631  0.3795 -0.5420
18822SOL    HW160508   4.027   2.594   1.195  0.2728 -0.2898 -0.6318
18822SOL    HW260509   3.981   2.614   1.338  0.3563  0.6529 -0.7294
18823SOL     OW60510   9.415   8.928   4.481 -0.0482  0.0337  0.0888
18823SOL    HW160511   9.381   9.002   4.531  3.4256  2.7402 -1.1487
18823SOL    HW260512   9.490   8.898   4.532  0.3237 -0.7145 -0.8821
18824SOL     OW60513   6.168   3.808   6.794  0.3061 -0.2365  0.7085
18824SOL    HW160514   6.098   3.868   6.769  1.1268  0.2702 -0.4316
18824SOL    HW260515   6.125   3.722   6.799 -0.6807  0.2758  1.4419
18825SOL     OW60516   8.304   4.369   7.246  0.4938  0.4474  0.0160
18825SOL    HW160517   8.270   4.440   7.301  0.8380  1.3687 -0.9275
18825SOL    HW260518   8.238   4.300   7.253  0.2834  0.7425  1.1604
18826SOL     OW60519   3.501   2.017   2.100  0.5033 -0.1513  0.0660
18826SOL    HW160520   3.528   2.109   2.109 -0.0366 -0.0384  0.6482
18826SOL    HW260521   3.500   2.002   2.005  2.1054 -0.0319  0.0126
18827SOL     OW60522   4.400   5.240   9.172 -0.2072 -0.1653  0.5606
18827SOL    HW160523   4.460   5.234   9.246  0.0008  0.8479  0.4956
18827SOL    HW260524   4.456   5.260   9.097 -0.2948 -2.1624 -0.0911
18828SOL     OW60525   4.748   6.358   1.825 -0.0716 -0.0440  0.1986
18828SOL    HW160526   4.778   6.398   1.907  3.0494 -0.1770 -0.7402
18828SOL    HW260527   4.672   6.410   1.800  1.9614  3.4599  0.6142
18829SOL     OW60528   6.509   4.835   3.128  1.1228  1.1984 -0.1687
18829SOL    HW160529   6.518   4.812   3.220 -1.1562  0.1867 -0.1440
18829SOL    HW260530   6.480   4.926   3.128  0.0972  0.8780  0.1731
18830SOL     OW60531  10.084   5.695   4.925 -0.1008 -0.1630 -0.6150
18830SOL    HW160532  10.028   5.681   5.002  0.0695 -0.0023 -0.4621
18830SOL    HW260533  10.163   5.735   4.960  0.0086 -0.1605 -0.8660
18831SOL     OW60534   4.654   3.079   8.170 -0.0413  0.3552  0.6933
18831SOL    HW160535   4.585   3.041   8.224 -0.6318 -0.5529 -0.6690
18831SOL    HW260536   4.618   3.163   8.141 -0.9537 -0.4661 -0.6720
18832SOL     OW60537   8.002   5.374   1.894 -0.3699  0.1918 -0.0200
18832SOL    HW160538   8.087   5.332   1.878 -0.9140 -0.5461 -1.0677
18832SOL    HW260539   7.977   5.344   1.981  0.8337  1.1227  0.6806
18833SOL     OW60540   6.781   2.631   1.757  0.0730  0.7878 -0.0275
18833SOL    HW160541   6.698   2.596   1.792  0.8861 -0.2611  0.9246
18833SOL    HW260542   6.813   2.689   1.826 -0.5912  2.4377 -1.0400
18834SOL     OW60543   1.766   3.400   7.806  0.0798 -0.4449 -0.2478
18834SOL    HW160544   1.801   3.486   7.781  0.3634 -0.1857  0.9311
18834SOL    HW260545   1.686   3.421   7.855 -1.1069 -0.9786 -1.9057
18835SOL     OW60546   5.596   8.103   3.130  0.4242  0.3965 -0.7424
18835SOL    HW160547   5.588   8.133   3.221  2.0172 -0.2646 -0.3543
18835SOL    HW260548   5.537   8.160   3.081  0.2148  1.3696  0.5780
18836SOL     OW60549   7.817   5.341   2.176 -0.3167 -0.2647  0.8793
18836SOL    HW160550   7.741   5.304   2.132  0.2537  0.2315 -0.6197
18836SOL    HW260551   7.854   5.269   2.227 -1.8107 -0.4818  1.6946
18837SOL     OW60552   2.161   1.086   7.391 -0.7697  0.0145  0.9738
18837SOL    HW160553   2.143   1.178   7.406  0.4797  0.5965 -0.7996
18837SOL    HW260554   2.236   1.067   7.448 -1.6941 -0.2359  2.1531
18838SOL     OW60555   7.140   3.600   6.507  0.0727 -0.0907 -0.0337
18838SOL    HW160556   7.212   3.608   6.570 -0.4276  0.7962  0.4414
18838SOL    HW260557   7.095   3.520   6.533 -0.2923  0.4066  0.9357
18839SOL     OW60558   5.074   3.804   1.437  0.3043 -0.4962  0.4413
18839SOL    HW160559   5.096   3.729   1.381 -2.5023 -1.7042  0.7921
18839SOL    HW260560   5.121   3.787   1.519 -0.6250 -2.1689  0.6789
18840SOL     OW60561   9.821   4.755   9.579  0.0266 -0.2667 -0.1150
18840SOL    HW160562   9.790   4.807   9.505 -0.6337 -1.7222 -0.9026
18840SOL    HW260563   9.870   4.683   9.539 -0.3242 -1.0716  0.8515
18841SOL     OW60564   9.822   6.290   7.324  0.2059 -0.1000  0.6643
18841SOL    HW160565   9.912   6.258   7.336  0.4055  0.8547  1.9451
18841SOL    HW260566   9.807   6.285   7.230  2.1340  1.1149  0.2500
18842SOL     OW60567   8.453   6.651   2.021 -0.2998 -0.2252  0.7381
18842SOL    HW160568   8.444   6.597   2.099  0.6823  0.6252  1.4732
18842SOL    HW260569   8.455   6.741   2.054 -0.6620  0.1984 -0.3409
18843SOL     OW60570   0.963  10.285   8.385  0.0926  0.2788 -0.1942
18843SOL    HW160571   1.054  10.310   8.371  0.2138  1.0377  1.6849
18843SOL    HW260572   0.925  10.358   8.434 -1.7732  0.3622 -1.6355
18844SOL     OW60573   0.032   2.030   4.183  0.7170  0.3637 -0.4871
18844SOL    HW160574   0.122   2.018   4.152  0.1941 -2.0867 -1.2693
18844SOL    HW260575   0.002   1.943   4.206 -2.1889  0.7065 -2.3560
18845SOL     OW60576   9.056   8.799   7.218 -0.2194  0.1720  0.7487
18845SOL    HW160577   9.102   8.718   7.196  0.5601  0.5177  1.0705
18845SOL    HW260578   9.056   8.802   7.314  0.9343  1.1949  0.7409
18846SOL     OW60579   7.710   5.677   2.039 -0.1830 -0.4017  0.4296
18846SOL    HW160580   7.721   5.611   1.970 -0.4925 -0.0933  0.0811
18846SOL    HW260581   7.622   5.711   2.026  0.1109  0.3527  0.3698
18847SOL     OW60582   4.804   5.298   9.169 -0.1407  0.4233 -0.0733
18847SOL    HW160583   4.714   5.268   9.165 -0.8460  2.0698  1.6260
18847SOL    HW260584   4.810   5.367   9.103  0.1018 -0.1771 -0.6871
18848SOL     OW60585   3.617   4.106   9.449  0.2369  0.3335  0.5107
18848SOL    HW160586   3.627   4.084   9.541  2.8937  0.6341  0.3913
18848SOL    HW260587   3.657   4.032   9.403  0.1114  0.7745 -0.3284
18849SOL     OW60588   5.439   8.460   2.700 -0.4808 -0.2356  0.0482
18849SOL    HW160589   5.503   8.408   2.651  1.0887  1.4462  0.2217
18849SOL    HW260590   5.468   8.453   2.791 -0.2314  0.9131  0.0733
18850SOL     OW60591   8.794   1.048   0.310  0.0489  0.4749 -0.5980
18850SOL    HW160592   8.877   1.036   0.265  1.1423 -1.4665  1.7380
18850SOL    HW260593   8.818   1.058   0.402 -2.2808  0.3340  0.0857
18851SOL     OW60594   4.906   8.327   4.295 -0.1465  0.3454 -0.0813
18851SOL    HW160595   4.868   8.337   4.383  0.3866  0.7331  0.1134
18851SOL    HW260596   4.841   8.367   4.237 -0.6387 -0.1739  0.1005
18852SOL     OW60597   5.201   7.607   2.156 -0.1131 -0.0702  1.0588
18852SOL    HW160598   5.138   7.675   2.179  0.4505  0.3881  1.2623
18852SOL    HW260599   5.148   7.536   2.121 -0.7361  0.3428  1.1580
18853SOL     OW60600   9.702   0.082   8.512 -0.3586  0.1507 -0.0753
18853SOL    HW160601   9.696  -0.010   8.536 -2.3942  0.8572  2.7085
18853SOL    HW260602   9.777   0.115   8.560  0.3115  0.0011 -0.9958
18854SOL     OW60603   0.880   4.129   8.064 -0.3576  0.1330 -0.3646
18854SOL    HW160604   0.842   4.214   8.087 -1.2916 -1.1351  3.4403
18854SOL    HW260605   0.807   4.080   8.026 -0.2042  0.4901 -1.1462
18855SOL     OW60606   4.222   7.935   6.236 -0.0846  0.1772 -0.2679
18855SOL    HW160607   4.182   7.851   6.257 -0.8494  0.4569 -0.5627
18855SOL    HW260608   4.168   8.000   6.280  0.4878  0.5213 -0.0574
18856SOL     OW60609   0.805   3.490   9.538  0.3732  0.2913  0.2721
18856SOL    HW160610   0.789   3.559   9.474  1.0351 -0.4782 -0.7555
18856SOL    HW260611   0.883   3.519   9.585 -0.9467  1.5735  1.7950
18857SOL     OW60612   3.877   4.366   4.432 -0.6612  0.1899 -0.5996
18857SOL    HW160613   3.945   4.366   4.365  0.3571 -0.1267  0.4021
18857SOL    HW260614   3.910   4.427   4.499 -1.1532 -0.2987  0.0996
18858SOL     OW60615   2.176   5.920   8.603  0.0972  0.5729 -0.0758
18858SOL    HW160616   2.213   6.005   8.624 -1.4875  1.9229 -2.3611
18858SOL    HW260617   2.246   5.873   8.559  0.6655  1.0877  0.2678
18859SOL     OW60618   3.135   0.866   9.805  0.3610  0.1887  0.5617
18859SOL    HW160619   3.075   0.849   9.733 -2.3011 -1.1223  2.9367
18859SOL    HW260620   3.131   0.961   9.817 -2.1606  0.0688  1.2867
18860SOL     OW60621   1.648   4.290   0.380 -0.7907  0.4961  0.1325
18860SOL    HW160622   1.583   4.352   0.413  0.0292  1.4548 -0.0040
18860SOL    HW260623   1.728   4.312   0.428 -0.4636 -0.3968  0.0071
18861SOL     OW60624   8.830   9.988   7.587 -0.1111 -0.2994  0.0273
18861SOL    HW160625   8.910  10.040   7.578 -0.4062  0.3552  1.0752
18861SOL    HW260626   8.765  10.049   7.622 -0.5150 -1.3205  1.1297
18862SOL     OW60627   3.072   0.655   2.153  0.1979  0.0337 -0.1847
18862SOL    HW160628   3.132   0.649   2.228  0.1790 -0.8352 -0.2251
18862SOL    HW260629   2.998   0.599   2.177  0.7738 -1.3023 -1.3600
18863SOL     OW60630   9.749   4.229   5.583 -0.1544 -0.1125  0.0899
18863SOL    HW160631   9.710   4.212   5.497 -0.0587  0.1701 -0.0095
18863SOL    HW260632   9.797   4.149   5.603  2.9468  1.0813 -1.7949
18864SOL     OW60633   6.934   7.581   7.511  0.2978  0.2625  0.8512
18864SOL    HW160634   6.890   7.642   7.452 -0.4008 -0.5850  0.4740
18864SOL    HW260635   6.871   7.565   7.581 -1.4382 -3.4179 -1.2958
18865SOL     OW60636   7.627  10.080   6.975 -0.0898 -0.1186  0.2022
18865SOL    HW160637   7.612   9.986   6.990 -0.4498  0.0737  1.1430
18865SOL    HW260638   7.722  10.091   6.983  0.0140 -0.4823 -0.4497
18866SOL     OW60639   8.817   1.439   8.280  0.0996  0.5521  0.3917
18866SOL    HW160640   8.903   1.399   8.271  0.0688  0.0080  2.1490
18866SOL    HW260641   8.767   1.376   8.332 -1.9343  0.0642 -1.9639
18867SOL     OW60642   0.434   9.437   8.952 -0.3050  0.5581 -0.3037
18867SOL    HW160643   0.468   9.379   9.019  0.4962  0.1214 -1.0745
18867SOL    HW260644   0.339   9.439   8.969 -0.1558  0.2405  0.6560
18868SOL     OW60645   2.829   7.500   2.170  0.1416 -0.3634 -0.2896
18868SOL    HW160646   2.787   7.565   2.227 -1.1362  0.7255 -2.3407
18868SOL    HW260647   2.781   7.419   2.188  0.1518 -0.1932  0.5800
18869SOL     OW60648   0.648   7.586   6.844  0.0014  0.0582 -0.0034
18869SOL    HW160649   0.671   7.648   6.775  0.9282 -1.2526 -0.9222
18869SOL    HW260650   0.598   7.518   6.799  1.1723 -1.1570  0.4701
18870SOL     OW60651  10.084   5.232   5.434 -0.4519  0.0821 -0.6292
18870SOL    HW160652  10.157   5.197   5.382 -0.2821  0.0549 -0.3740
18870SOL    HW260653  10.050   5.156   5.481 -0.3792  0.1696 -0.4312
18871SOL     OW60654   1.597   2.537   2.467  0.0870  0.2198  0.6503
18871SOL    HW160655   1.518   2.542   2.520  0.3464  0.0460  1.0579
18871SOL    HW260656   1.566   2.515   2.379 -0.1957 -1.3790  1.1219
18872SOL     OW60657   9.732   9.298   1.798 -0.5357  0.3019 -0.3147
18872SOL    HW160658   9.826   9.292   1.814 -0.6525  0.3775  0.4725
18872SOL    HW260659   9.715   9.391   1.782 -0.6419  0.4817  0.7582
18873SOL     OW60660   8.288   8.149   7.126 -0.5244  0.0968  0.2875
18873SOL    HW160661   8.341   8.190   7.195  0.8987  0.8222 -1.1575
18873SOL    HW260662   8.274   8.059   7.156  0.6903  0.1856  1.1873
18874SOL     OW60663   4.087   9.051   0.719  0.0694 -0.6130 -0.2047
18874SOL    HW160664   3.993   9.068   0.725  0.3576  0.7137  0.9841
18874SOL    HW260665   4.115   9.037   0.809  1.2225  0.2402 -0.4121
18875SOL     OW60666   4.852   0.732   3.343 -0.3792  0.1991 -0.7131
18875SOL    HW160667   4.942   0.726   3.374 -0.5182  0.1032 -0.3138
18875SOL    HW260668   4.837   0.826   3.330 -0.7263  0.3820  0.8003
18876SOL     OW60669   2.013   7.378   9.053 -0.1591 -0.0106 -0.2397
18876SOL    HW160670   1.994   7.288   9.029  0.7519 -0.3155  0.1243
18876SOL    HW260671   1.951   7.398   9.124 -0.8061 -0.1155 -0.7669
18877SOL     OW60672   2.536   3.858   2.086 -0.2404  0.1245  0.2492
18877SOL    HW160673   2.625   3.821   2.093 -0.8203 -1.2444  0.8605
18877SOL    HW260674   2.481   3.796   2.134 -2.0674 -0.9115 -2.8575
18878SOL     OW60675   6.894   1.449   3.025 -0.0476  0.4715  0.4236
18878SOL    HW160676   6.856   1.369   3.061 -0.0991 -0.6413 -1.9165
18878SOL    HW260677   6.843   1.466   2.946 -0.8788  3.6112  1.5032
18879SOL     OW60678   1.802   4.566   0.690 -0.1909 -0.2798 -0.0724
18879SOL    HW160679   1.740   4.638   0.695  0.6273  0.4085  0.4077
18879SOL    HW260680   1.818   4.541   0.781  0.8511  0.1031 -0.1421
18880SOL     OW60681   1.949   4.248   4.722 -0.3234  0.3647 -0.2991
18880SOL    HW160682   1.965   4.207   4.637  0.0664 -1.6986  0.7082
18880SOL    HW260683   2.009   4.204   4.782 -0.3536  2.0014  1.0186
18881SOL     OW60684   8.894   3.731   1.710 -0.3704  0.0022 -0.1397
18881SOL    HW160685   8.872   3.640   1.729  0.1030 -0.1271 -0.1879
18881SOL    HW260686   8.883   3.777   1.793  1.5018 -0.5182  0.4519
18882SOL     OW60687   7.107   2.338   4.053  0.5865 -0.1720 -0.3198
18882SOL    HW160688   7.126   2.388   4.132 -1.0351  1.0636 -0.6720
18882SOL    HW260689   7.190   2.336   4.005  1.3627 -0.2023  0.9873
18883SOL     OW60690   8.086   2.450   2.979 -0.2581  0.2675  0.0270
18883SOL    HW160691   8.082   2.354   2.977 -1.3788  0.2782  0.8858
18883SOL    HW260692   8.159   2.469   3.038 -0.8363 -0.0742  0.8763
18884SOL     OW60693   6.128   5.543   6.135 -0.9072  0.3695  0.3225
18884SOL    HW160694   6.108   5.593   6.055  1.0974 -0.9137 -1.0734
18884SOL    HW260695   6.118   5.607   6.206 -0.0539  2.3420 -1.2071
18885SOL     OW60696   8.655   9.703   4.371 -0.3123 -0.4090  0.1081
18885SOL    HW160697   8.638   9.797   4.385  0.0161  0.0645 -2.2462
18885SOL    HW260698   8.577   9.660   4.406 -1.7630  0.9870 -1.2295
18886SOL     OW60699   8.082   9.074   2.427  0.4304  0.0101 -0.3543
18886SOL    HW160700   8.066   8.990   2.383  1.1971 -1.6085  2.2040
18886SOL    HW260701   8.174   9.070   2.453 -0.5777 -0.5655  3.8549
18887SOL     OW60702   9.441   9.692   9.903  0.4446  0.2283 -0.0336
18887SOL    HW160703   9.351   9.713   9.881  0.8613  1.7878 -0.4070
18887SOL    HW260704   9.483   9.777   9.918  1.2251 -0.5523  2.7975
18888SOL     OW60705   4.085   6.979   4.484  0.4606  0.3468  0.4095
18888SOL    HW160706   4.072   7.060   4.533 -0.4099  0.1663  0.5035
18888SOL    HW260707   4.116   7.008   4.398  1.0965  0.7164  0.7563
18889SOL     OW60708   7.592   3.474   4.980  0.2717  0.5302  0.0701
18889SOL    HW160709   7.655   3.529   4.934  0.7307  0.1827  0.2715
18889SOL    HW260710   7.542   3.432   4.911  1.5414 -0.6780 -0.1702
18890SOL     OW60711   5.384   4.526   9.155  0.3647 -0.3937 -0.1209
18890SOL    HW160712   5.317   4.584   9.193  2.2870  0.2709  2.6258
18890SOL    HW260713   5.371   4.532   9.061 -1.2524  2.4107  0.1671
18891SOL     OW60714   9.787   4.844   4.376  0.2981 -0.2506 -0.1355
18891SOL    HW160715   9.815   4.810   4.461  0.9710 -3.3236 -1.4467
18891SOL    HW260716   9.846   4.803   4.313 -0.2621  1.8193 -2.1510
18892SOL     OW60717   8.791   7.831   2.321  0.0051  0.0080  0.1490
18892SOL    HW160718   8.766   7.852   2.231  0.4048 -2.3389 -0.5853
18892SOL    HW260719   8.711   7.842   2.372 -0.3998  0.6590 -0.6060
18893SOL     OW60720   8.714   5.983   6.100  0.1381  0.1601 -0.2130
18893SOL    HW160721   8.668   5.953   6.178  1.9597 -2.2107  0.0422
18893SOL    HW260722   8.745   5.903   6.057  1.1888  1.4919 -2.1340
18894SOL     OW60723   9.491   1.731   6.608 -0.1828  0.8244  0.3069
18894SOL    HW160724   9.502   1.690   6.693  2.2296  1.3877  0.3452
18894SOL    HW260725   9.464   1.821   6.627  2.1054  1.4999  0.6386
18895SOL     OW60726   5.158   9.984   6.559  0.1408 -0.1049  0.7991
18895SOL    HW160727   5.238   9.936   6.578  1.3478  1.4120 -0.2146
18895SOL    HW260728   5.172  10.071   6.598 -0.1341  0.8333 -1.0501
18896SOL     OW60729   5.638   0.283   2.955  0.2019  0.2239 -0.4099
18896SOL    HW160730   5.588   0.335   3.018  0.1104  1.0076 -1.1098
18896SOL    HW260731   5.684   0.348   2.902  0.2982 -0.4245 -1.1340
18897SOL     OW60732   8.128   2.497   1.378 -0.4844  0.3007 -0.1027
18897SOL    HW160733   8.107   2.409   1.348  1.5282 -0.6781  1.1029
18897SOL    HW260734   8.061   2.517   1.443 -1.2565 -0.1094 -0.7595
18898SOL     OW60735   8.628   3.728  10.022 -0.4663  0.2010  0.3410
18898SOL    HW160736   8.625   3.633  10.011  0.1801  0.3084 -1.0207
18898SOL    HW260737   8.716   3.745  10.056 -0.5010  0.3276  0.3658
18899SOL     OW60738   7.317   5.048   8.992  0.0143  0.0635 -0.3698
18899SOL    HW160739   7.232   5.016   8.962  0.1532 -0.9338  0.2384
18899SOL    HW260740   7.379   5.012   8.929  0.1821 -0.9970  0.3772
18900SOL     OW60741   0.139   1.131   7.133  0.4079 -0.3697  0.0368
18900SOL    HW160742   0.148   1.226   7.135 -0.9149 -0.2371  0.7466
18900SOL    HW260743   0.133   1.105   7.225  0.3184 -1.0934 -0.1639
18901SOL     OW60744   9.837   9.322   9.086 -0.5419  0.3173  0.6020
18901SOL    HW160745   9.899   9.346   9.154  1.0422  0.0088 -0.6823
18901SOL    HW260746   9.752   9.352   9.119  0.3511  1.2510  2.1461
18902SOL     OW60747   1.501   6.630   6.282 -0.3173  0.2391 -0.3144
18902SOL    HW160748   1.479   6.627   6.376 -0.5881  0.2331 -0.3756
18902SOL    HW260749   1.595   6.645   6.280 -0.2561 -0.0776 -0.0373
18903SOL     OW60750   8.337  10.249   0.112 -0.0887  0.0140  0.3476
18903SOL    HW160751   8.248  10.213   0.114 -0.5190  1.0246  0.1280
18903SOL    HW260752   8.389  10.183   0.066 -0.5905 -0.8723  1.0281
18904SOL     OW60753   2.137   2.957   9.775  0.5061  1.1043 -0.0321
18904SOL    HW160754   2.221   3.001   9.787  0.7796  0.2546  1.5007
18904SOL    HW260755   2.086   2.982   9.852 -0.3318  0.9028 -0.5085
18905SOL     OW60756   1.459   0.015   0.698 -0.2118  0.8332  0.2034
18905SOL    HW160757   1.396  -0.050   0.731 -1.0686  1.8015  0.5196
18905SOL    HW260758   1.474  -0.012   0.607 -0.3388  0.0293  0.4091
18906SOL     OW60759   7.285   7.732   6.516 -0.5710  0.3836 -0.4760
18906SOL    HW160760   7.370   7.774   6.529 -0.8601  0.8453 -0.0284
18906SOL    HW260761   7.294   7.646   6.558 -0.7750  0.9925  0.8736
18907SOL     OW60762   8.570   1.040   5.338  0.6417 -0.2139  0.7406
18907SOL    HW160763   8.589   1.121   5.385  2.2601 -0.5762  0.7808
18907SOL    HW260764   8.610   0.971   5.391  0.5248 -0.8777 -0.0155
18908SOL     OW60765   8.137   7.775   1.722 -0.1029  0.4168  0.0712
18908SOL    HW160766   8.072   7.831   1.765  0.1350  1.1902 -0.5578
18908SOL    HW260767   8.102   7.761   1.634 -0.5950 -1.1777  0.4853
18909SOL     OW60768   5.793   2.651   3.284 -0.0280 -0.1411 -0.1633
18909SOL    HW160769   5.746   2.649   3.367 -1.3870  1.7918 -0.8052
18909SOL    HW260770   5.868   2.708   3.300  0.5493 -0.9494  0.0952
18910SOL     OW60771   1.376   2.856   4.600 -0.2770  0.3342  0.5315
18910SOL    HW160772   1.420   2.939   4.620  0.4169  0.0811  0.1213
18910SOL    HW260773   1.383   2.848   4.504  0.0596 -0.3947  0.6047
18911SOL     OW60774   8.269   4.399   6.063 -0.3381 -0.0198 -0.0447
18911SOL    HW160775   8.310   4.466   6.119  0.8321 -0.6106 -0.1780
18911SOL    HW260776   8.270   4.320   6.116  1.6904 -0.8421 -1.2133
18912SOL     OW60777   3.413   8.422   2.138 -0.0722 -0.1300 -0.5415
18912SOL    HW160778   3.366   8.373   2.071 -0.7594  0.0611 -0.2084
18912SOL    HW260779   3.447   8.355   2.197 -1.3902 -0.2068  0.1630
18913SOL     OW60780  10.206   6.815   8.582  0.2204 -0.1385 -0.3937
18913SOL    HW160781  10.300   6.795   8.580 -0.1248 -1.9242 -1.0550
18913SOL    HW260782  10.195   6.884   8.516  1.0600  0.0359 -0.3618
18914SOL     OW60783   8.440   3.401   5.122 -0.9934 -0.4003  0.1439
18914SOL    HW160784   8.527   3.390   5.161  0.3856  1.1580 -2.2329
18914SOL    HW260785   8.429   3.323   5.067  0.8478  1.1526 -2.7177
18915SOL     OW60786   6.247   1.829   2.700 -0.0195 -0.2226 -0.6107
18915SOL    HW160787   6.203   1.748   2.673 -0.3877 -0.8259  1.6005
18915SOL    HW260788   6.239   1.829   2.795  1.9904  1.2831 -0.3950
18916SOL     OW60789   8.330   7.126   9.584 -0.0208 -0.2841  0.0181
18916SOL    HW160790   8.380   7.089   9.512 -1.8997 -1.4796 -0.7395
18916SOL    HW260791   8.302   7.211   9.553 -2.1820 -1.4304 -1.4041
18917SOL     OW60792   0.597   2.867   1.429 -0.8277 -0.3258 -0.4185
18917SOL    HW160793   0.617   2.937   1.492 -0.9259 -0.7962  0.1365
18917SOL    HW260794   0.682   2.828   1.409 -0.7548  0.0290 -0.8329
18918SOL     OW60795   7.040   8.309   4.899  0.0367 -0.5214  0.0599
18918SOL    HW160796   7.104   8.377   4.923 -0.0287 -0.9973  1.7186
18918SOL    HW260797   6.986   8.298   4.977 -0.3331 -2.0552 -0.3671
18919SOL     OW60798   3.508   4.536   9.180  0.2647 -0.1652 -0.2267
18919SOL    HW160799   3.554   4.515   9.261 -1.3974  2.1452  1.4617
18919SOL    HW260800   3.419   4.504   9.194 -0.4940  1.7676 -0.3832
18920SOL     OW60801   8.131   1.780   0.350  0.3963  0.2232 -0.1494
18920SOL    HW160802   8.135   1.873   0.327  1.5270  0.8520  2.2228
18920SOL    HW260803   8.088   1.738   0.276  0.5727  2.5144 -1.6392
18921SOL     OW60804   3.353   3.533   9.753 -0.3653 -0.3318  0.5004
18921SOL    HW160805   3.270   3.513   9.796  0.1296 -1.9752  0.7316
18921SOL    HW260806   3.346   3.491   9.667 -0.4426  1.0131 -0.1892
18922SOL     OW60807   4.022   9.286   0.314  0.3405  0.1555  0.1069
18922SOL    HW160808   4.054   9.370   0.346  1.2134 -0.5169  1.0856
18922SOL    HW260809   4.102   9.239   0.286 -0.1275 -0.3502 -0.4108
18923SOL     OW60810   3.301   5.769   0.310 -0.3982  0.4829 -0.3514
18923SOL    HW160811   3.361   5.838   0.335  0.4331  0.1993 -1.5063
18923SOL    HW260812   3.335   5.735   0.227 -0.6601 -1.4312  0.2704
18924SOL     OW60813   4.626   6.585   3.754 -0.0393  0.1666  0.2036
18924SOL    HW160814   4.537   6.590   3.789 -0.0035  2.4341  0.1201
18924SOL    HW260815   4.621   6.518   3.685 -2.2753  1.7902 -1.3558
18925SOL     OW60816   7.923   8.529   0.945  0.0092  0.7463  0.1851
18925SOL    HW160817   7.845   8.500   0.898 -0.2434  0.3386  0.8409
18925SOL    HW260818   7.967   8.448   0.972  0.7614  0.9693 -0.3353
18926SOL     OW60819   5.236   5.453   7.857 -0.1700  0.0033  0.1390
18926SOL    HW160820   5.300   5.523   7.865  0.7130 -0.8990  1.4291
18926SOL    HW260821   5.221   5.444   7.763  1.9272 -0.0426 -0.2339
18927SOL     OW60822   0.478   1.771   1.578 -0.3625 -0.4668 -0.3572
18927SOL    HW160823   0.499   1.816   1.497  1.2327  1.1284  0.8583
18927SOL    HW260824   0.387   1.793   1.595  0.0383  1.3800 -0.4192
18928SOL     OW60825   2.681   0.690   8.658 -0.1038 -0.6062 -0.8119
18928SOL    HW160826   2.760   0.669   8.708  0.8853  2.0980 -1.0629
18928SOL    HW260827   2.609   0.656   8.711  1.0929 -0.7942  0.7571
18929SOL     OW60828   8.092   2.864   2.210 -0.3667  0.1326  0.4574
18929SOL    HW160829   8.171   2.859   2.157 -1.1519 -0.3637 -0.7251
18929SOL    HW260830   8.093   2.952   2.248  1.0442 -0.0865  0.9666
18930SOL     OW60831   8.532   5.458   6.259  0.1371 -0.1308 -0.1819
18930SOL    HW160832   8.472   5.505   6.317  0.8397  0.6693 -0.1004
18930SOL    HW260833   8.538   5.370   6.298 -1.6710 -0.5293 -0.6895
18931SOL     OW60834   5.358   1.908  10.048 -0.3319  0.3293 -0.5929
18931SOL    HW160835   5.436   1.926   9.995 -1.2868  1.0234 -1.8278
18931SOL    HW260836   5.388   1.847  10.115  1.1355  0.1249 -1.3944
18932SOL     OW60837   6.209   4.374   7.479  0.0242  0.4188 -0.0122
18932SOL    HW160838   6.266   4.435   7.526  0.0911  1.5597 -1.4973
18932SOL    HW260839   6.149   4.430   7.429 -0.3885 -0.7311 -0.8649
18933SOL     OW60840   7.017   6.493   4.628  0.2454 -0.2806 -0.1974
18933SOL    HW160841   7.041   6.498   4.721 -1.1732  0.9691  0.1483
18933SOL    HW260842   7.057   6.570   4.589  0.2723 -0.4390 -0.4845
18934SOL     OW60843   6.546   5.873   3.615  0.0036  0.0527  0.1168
18934SOL    HW160844   6.478   5.940   3.608 -0.1505  0.0009  0.9598
18934SOL    HW260845   6.551   5.854   3.709 -0.0969 -1.2551 -0.1227
18935SOL     OW60846   1.623   7.544   2.024  0.2635 -0.8700  0.9175
18935SOL    HW160847   1.559   7.600   1.978 -1.2205 -2.1851  1.2839
18935SOL    HW260848   1.665   7.603   2.086 -2.2647 -0.3358  2.2962
18936SOL     OW60849   0.058   2.874   9.432  0.4227  0.3034 -0.7677
18936SOL    HW160850  -0.033   2.902   9.433  0.3941  0.4560  2.2972
18936SOL    HW260851   0.108   2.955   9.439  0.8550  0.2366 -2.6399
18937SOL     OW60852   3.751   7.656   2.285  0.2059 -0.2086 -0.6004
18937SOL    HW160853   3.806   7.718   2.332 -0.4120 -0.1785  0.0997
18937SOL    HW260854   3.661   7.681   2.308 -0.0479 -2.5227  1.2286
18938SOL     OW60855   7.047   6.026   1.198  0.5059  0.3635  0.0367
18938SOL    HW160856   7.069   5.939   1.165 -1.2954  0.6297 -2.1572
18938SOL    HW260857   6.959   6.017   1.234 -0.2675  1.5007 -1.4689
18939SOL     OW60858   1.438   0.211   6.410 -0.1633 -0.2009  0.1646
18939SOL    HW160859   1.435   0.292   6.461 -2.3088  0.4265 -0.8447
18939SOL    HW260860   1.400   0.234   6.326  0.1344 -2.0331 -0.5176
18940SOL     OW60861   5.191   1.497   7.518 -0.1677  0.4250  0.0587
18940SOL    HW160862   5.246   1.574   7.503  0.5975 -0.4520 -2.1103
18940SOL    HW260863   5.114   1.512   7.463 -0.0929 -0.2731 -0.2436
18941SOL     OW60864   6.600   9.215   4.594  0.2876  0.5338  0.1388
18941SOL    HW160865   6.510   9.204   4.564  0.3775  0.6806 -0.1877
18941SOL    HW260866   6.611   9.147   4.661  0.4709 -0.6493 -1.0398
18942SOL     OW60867   1.989   0.708   9.739  0.0440  0.2010  0.0152
18942SOL    HW160868   1.896   0.726   9.724  0.4466  2.7864  0.1129
18942SOL    HW260869   2.008   0.632   9.684 -2.0209 -0.1173 -0.3380
18943SOL     OW60870   8.431   0.933   2.714 -0.3223  0.5337 -0.2584
18943SOL    HW160871   8.418   0.897   2.801  1.4849  1.0988  0.3028
18943SOL    HW260872   8.517   0.975   2.718 -0.7814  1.7724 -1.9125
18944SOL     OW60873   2.020   3.647   0.374 -0.5489 -0.2478  0.0912
18944SOL    HW160874   2.055   3.675   0.459 -1.0874 -0.9630  0.5627
18944SOL    HW260875   2.007   3.728   0.325  0.4439  0.1236  0.4221
18945SOL     OW60876   6.248   2.514   5.592  0.7744  0.1614  0.2409
18945SOL    HW160877   6.323   2.469   5.551  0.4124  0.2488 -0.5316
18945SOL    HW260878   6.203   2.556   5.519  0.4913  0.8812  0.8250
18946SOL     OW60879   3.933   5.027   6.368 -0.4104  0.3020 -0.5821
18946SOL    HW160880   3.902   5.031   6.278 -1.5741 -0.3669 -0.2241
18946SOL    HW260881   3.968   4.938   6.378  1.6127  0.9864 -0.9399
18947SOL     OW60882   2.092   7.391   8.441  0.1037 -0.7016 -0.4099
18947SOL    HW160883   2.141   7.456   8.390 -0.3560 -0.3256 -0.3779
18947SOL    HW260884   2.158   7.351   8.498  0.5455 -0.8293 -0.9942
18948SOL     OW60885   4.168   2.431   3.477  0.0421  0.6366 -0.7770
18948SOL    HW160886   4.142   2.347   3.437  1.2086  0.2761 -0.8149
18948SOL    HW260887   4.263   2.427   3.480  0.0205  0.9067  1.5289
18949SOL     OW60888   7.406   9.517   8.148  0.0613 -0.3674  0.2760
18949SOL    HW160889   7.501   9.516   8.160  0.0453  0.1206  0.4684
18949SOL    HW260890   7.379   9.603   8.180 -0.3081 -0.0622 -0.8224
18950SOL     OW60891   5.935   8.427   7.425  0.2145  0.0455  0.2411
18950SOL    HW160892   5.990   8.349   7.429 -0.4212 -0.3681  1.8387
18950SOL    HW260893   5.849   8.394   7.398  0.3998  0.4893 -0.9292
18951SOL     OW60894   5.943   3.367   5.496 -0.3006  0.1051 -0.1644
18951SOL    HW160895   6.024   3.406   5.527 -0.1716 -0.1637 -0.1650
18951SOL    HW260896   5.905   3.434   5.438 -0.4595  0.5359  0.4339
18952SOL     OW60897  10.119   7.648   0.837  0.0748 -0.4761  0.0422
18952SOL    HW160898  10.159   7.613   0.757 -0.7187 -0.6185 -0.3087
18952SOL    HW260899  10.103   7.571   0.891 -2.2881 -0.8197 -1.0102
18953SOL     OW60900   7.382   4.724   3.645 -0.0873  0.3064  0.5751
18953SOL    HW160901   7.301   4.776   3.641  0.1894  0.9117  2.2026
18953SOL    HW260902   7.395   4.694   3.555 -2.3145 -0.1167  0.3213
18954SOL     OW60903   8.355   2.537   9.139 -0.4656 -0.0699  0.0790
18954SOL    HW160904   8.431   2.556   9.194 -1.5559 -1.0672  2.0068
18954SOL    HW260905   8.305   2.618   9.139 -0.0209  0.2092 -0.1924
18955SOL     OW60906   8.194   6.089   0.478 -0.4653 -0.2529 -0.1582
18955SOL    HW160907   8.176   6.155   0.544 -0.0072  0.9121 -1.1517
18955SOL    HW260908   8.146   6.119   0.401  0.7899 -0.3720 -1.0147
18956SOL     OW60909   6.346   4.558   4.471 -0.5719 -0.2996  0.0063
18956SOL    HW160910   6.282   4.542   4.541  1.0697 -2.1743  1.2148
18956SOL    HW260911   6.408   4.485   4.480  2.4171  2.0465 -0.2750
18957SOL     OW60912   8.799   1.954   6.345 -0.9533 -0.1775 -0.2106
18957SOL    HW160913   8.819   2.041   6.310 -0.6520  0.0817  0.5913
18957SOL    HW260914   8.869   1.898   6.312  0.2227  0.3862  1.2277
18958SOL     OW60915   1.138   8.370   8.579 -0.5226  0.9886  0.2270
18958SOL    HW160916   1.150   8.295   8.520  0.4477  1.4178 -0.1587
18958SOL    HW260917   1.048   8.364   8.609 -0.9524  0.5833 -1.0843
18959SOL     OW60918   9.673   2.300   8.780  0.2327 -0.0407 -0.0263
18959SOL    HW160919   9.675   2.347   8.863 -0.6588 -0.5162  0.2695
18959SOL    HW260920   9.669   2.369   8.713 -0.7374  0.3196  0.3910
18960SOL     OW60921  10.013   7.995   3.232 -0.1602  0.6596 -0.2757
18960SOL    HW160922  10.079   8.030   3.172  2.2605 -0.9806  1.2398
18960SOL    HW260923   9.964   7.932   3.180  2.6647 -1.6095 -0.4442
18961SOL     OW60924   6.368   5.872   4.434 -0.1122  0.3072 -0.5851
18961SOL    HW160925   6.353   5.960   4.470 -1.8921  0.9733 -2.7052
18961SOL    HW260926   6.303   5.817   4.478  0.9738  0.0110  0.7125
18962SOL     OW60927   8.001   9.383   7.802 -0.1577 -0.1654 -0.2508
18962SOL    HW160928   8.060   9.457   7.790  0.4727 -0.6199  0.0005
18962SOL    HW260929   8.010   9.359   7.894  0.4880 -1.2319 -0.5616
18963SOL     OW60930   2.455   3.208   0.226  0.0493 -0.2598  0.4358
18963SOL    HW160931   2.392   3.270   0.188  0.4429  1.6944  2.7367
18963SOL    HW260932   2.517   3.263   0.273  1.9860 -2.3081  0.4221
18964SOL     OW60933   1.306   8.187   3.969 -0.0165 -0.1282 -0.4012
18964SOL    HW160934   1.400   8.172   3.970  0.3082  1.6894 -0.3769
18964SOL    HW260935   1.297   8.282   3.958 -1.8435 -0.2511 -0.2555
18965SOL     OW60936   9.008   0.858   2.720  0.5141  0.4484  0.0709
18965SOL    HW160937   8.934   0.908   2.685  0.8974  2.2230  1.6411
18965SOL    HW260938   8.992   0.768   2.690 -2.7206  0.5842  1.0231
18966SOL     OW60939   2.026   7.675   2.330  0.2401  0.2752 -0.5486
18966SOL    HW160940   2.086   7.689   2.404 -0.3769  0.1903 -0.0273
18966SOL    HW260941   1.993   7.586   2.342 -1.6723  1.0544  0.4374
18967SOL     OW60942   5.797   3.533  10.015 -0.5522 -0.4138 -0.5616
18967SOL    HW160943   5.823   3.585  10.091  0.4784  2.3198 -2.6286
18967SOL    HW260944   5.862   3.463  10.011 -1.5795 -1.6648  1.9046
18968SOL     OW60945   3.022   2.271   1.297  0.0404 -0.0024  0.6590
18968SOL    HW160946   3.089   2.230   1.244 -0.4537 -0.3974  0.3332
18968SOL    HW260947   2.953   2.205   1.305 -0.9686  0.8973 -0.2534
18969SOL     OW60948   5.901   5.096   2.146 -0.2697 -0.6878  0.6515
18969SOL    HW160949   5.982   5.145   2.132  0.0906 -1.3284  0.4985
18969SOL    HW260950   5.859   5.141   2.220  0.4067 -0.5835  0.9807
18970SOL     OW60951   6.995   3.063   2.101 -0.0245 -0.0775 -0.1862
18970SOL    HW160952   6.908   3.077   2.064 -0.4415  0.9182  1.1033
18970SOL    HW260953   6.987   3.089   2.193  1.7432  0.4715 -0.1412
18971SOL     OW60954   6.695   4.452   6.431  0.2931  0.1217  0.2780
18971SOL    HW160955   6.766   4.432   6.493 -1.2280 -1.0025  1.7575
18971SOL    HW260956   6.655   4.367   6.413 -1.3318  0.8450  0.3017
18972SOL     OW60957   2.411   1.899   2.743  0.3178 -0.0985  0.2699
18972SOL    HW160958   2.455   1.851   2.673 -1.6725 -0.7875 -0.5881
18972SOL    HW260959   2.323   1.861   2.746  0.2322  0.1645  2.9283
18973SOL     OW60960   3.221   7.505  10.007 -0.0216 -0.0157  0.0118
18973SOL    HW160961   3.207   7.443  10.078 -1.9242 -2.4320 -2.2837
18973SOL    HW260962   3.157   7.574  10.023 -0.5376 -0.6063  0.5756
18974SOL     OW60963   7.275   4.751   2.323  0.1314 -0.2612 -0.3003
18974SOL    HW160964   7.277   4.846   2.310 -0.8139 -0.1605  0.2044
18974SOL    HW260965   7.352   4.733   2.378  1.5612 -0.1033 -2.1297
18975SOL     OW60966   5.456   1.551   1.720 -0.2014 -0.3777 -0.1082
18975SOL    HW160967   5.471   1.458   1.703 -0.5648 -0.5203  0.3486
18975SOL    HW260968   5.361   1.559   1.727 -0.1851  0.0659 -0.3453
18976SOL     OW60969   5.783  10.216   4.078  0.2031  0.6849 -0.1778
18976SOL    HW160970   5.800  10.147   4.015 -0.1807  1.7444 -1.4857
18976SOL    HW260971   5.778  10.296   4.026 -0.7193  1.5227  1.1147
18977SOL     OW60972   3.994   9.632   9.471 -0.5041 -0.6402 -0.0064
18977SOL    HW160973   4.060   9.661   9.535 -1.0681 -1.4215  0.9529
18977SOL    HW260974   3.973   9.711   9.421  1.0942 -0.3530 -0.2996
18978SOL     OW60975   8.700   4.315   3.587 -0.1601  0.4972 -0.0799
18978SOL    HW160976   8.655   4.368   3.653 -0.7024  0.2056 -0.2101
18978SOL    HW260977   8.685   4.224   3.615 -0.4183  0.3713 -0.6220
18979SOL     OW60978   8.406   4.638   8.808  0.4553  0.7049  0.0817
18979SOL    HW160979   8.362   4.575   8.751  0.8788  1.7806 -1.4729
18979SOL    HW260980   8.342   4.656   8.877 -0.8175  0.8249 -1.0968
18980SOL     OW60981   1.086   4.561   8.479  0.3782  0.3235 -0.2453
18980SOL    HW160982   1.125   4.564   8.566 -0.6264 -0.4807  0.2487
18980SOL    HW260983   1.117   4.641   8.436 -0.3048  1.5007  1.3684
18981SOL     OW60984   6.727   7.739   2.375  1.2469  0.0397  0.2572
18981SOL    HW160985   6.644   7.742   2.329  1.9471  0.3187 -1.0432
18981SOL    HW260986   6.729   7.819   2.427  1.1409  0.5839 -0.5477
18982SOL     OW60987   2.855   6.356   6.889  0.3040 -0.4079 -0.1846
18982SOL    HW160988   2.881   6.388   6.976  0.8160  0.9048 -0.7869
18982SOL    HW260989   2.938   6.330   6.848  0.0183 -1.4277 -0.1478
18983SOL     OW60990   8.060   8.177   4.427  0.0508 -0.0438  0.0514
18983SOL    HW160991   8.084   8.143   4.513  0.9211 -2.3292 -0.9940
18983SOL    HW260992   8.138   8.164   4.373 -0.7808  0.4242 -1.3264
18984SOL     OW60993   5.645   2.345   9.065  0.3360  0.0510 -0.5173
18984SOL    HW160994   5.566   2.382   9.104  0.6740  0.0104  0.2174
18984SOL    HW260995   5.640   2.252   9.085  0.7428  0.1047 -0.1579
18985SOL     OW60996   5.783  10.104   2.708 -0.7491  0.4041 -0.7157
18985SOL    HW160997   5.750  10.139   2.791 -1.9977 -1.7614 -0.1941
18985SOL    HW260998   5.743  10.159   2.641 -2.3180  0.2772  0.0593
18986SOL     OW60999   5.375   0.573   4.892 -0.4113 -1.0388  0.0131
18986SOL    HW161000   5.461   0.539   4.916 -0.6878 -1.1834  0.8146
18986SOL    HW261001   5.327   0.579   4.974 -0.5907  0.7056 -0.1938
18987SOL     OW61002   0.915   0.685   1.527 -0.2585  0.4927 -0.1433
18987SOL    HW161003   0.924   0.663   1.620 -0.5165 -0.4049 -0.3218
18987SOL    HW261004   0.903   0.601   1.483 -0.1874  0.9114 -0.9901
18988SOL     OW61005   4.545   8.406   3.358  0.2377  0.6129 -0.6757
18988SOL    HW161006   4.515   8.371   3.441 -1.8103 -0.5667 -1.8497
18988SOL    HW261007   4.631   8.366   3.344 -0.5549 -1.2889 -0.3473
18989SOL     OW61008   9.694   7.182   3.666  0.9821  0.5402 -0.3461
18989SOL    HW161009   9.700   7.193   3.760  0.2512  1.8474 -0.4213
18989SOL    HW261010   9.785   7.186   3.635  1.1221  1.6810  0.1686
18990SOL     OW61011   6.828   8.539   5.197 -0.2013  0.0690  0.1042
18990SOL    HW161012   6.778   8.510   5.272 -1.2174 -0.9156 -0.9078
18990SOL    HW261013   6.893   8.470   5.183  0.4075  0.5601  0.4454
18991SOL     OW61014   4.397   0.517   1.492  0.4835 -0.6415 -0.2895
18991SOL    HW161015   4.326   0.480   1.546  0.1983 -0.4446 -0.5269
18991SOL    HW261016   4.417   0.448   1.429  0.4493 -0.6679 -0.2717
18992SOL     OW61017   9.209   1.239   3.825  0.1772 -0.0965  0.4614
18992SOL    HW161018   9.252   1.260   3.742 -1.0763  1.6141  0.1656
18992SOL    HW261019   9.213   1.144   3.831  2.9269 -0.0893 -0.0596
18993SOL     OW61020   6.769   1.395   1.986 -0.1559 -0.1930 -0.5681
18993SOL    HW161021   6.733   1.452   1.918  1.9795 -0.1291 -1.6945
18993SOL    HW261022   6.713   1.317   1.984  0.3249 -0.5670 -3.0211
18994SOL     OW61023  10.221   4.746   8.057 -0.2547  0.6606  0.1597
18994SOL    HW161024  10.302   4.746   8.006 -0.3289  0.8398  0.0388
18994SOL    HW261025  10.226   4.825   8.110  1.5940 -1.3748  3.3157
18995SOL     OW61026   4.778   4.491   2.888 -0.6587  0.2356  1.0400
18995SOL    HW161027   4.751   4.411   2.843 -0.9977  1.1160 -0.3878
18995SOL    HW261028   4.767   4.561   2.822  0.0299  1.3944  2.1070
18996SOL     OW61029   8.186   3.916   7.384 -0.1588 -0.0698  0.0763
18996SOL    HW161030   8.210   3.830   7.419 -1.3698 -0.4783 -0.0503
18996SOL    HW261031   8.103   3.901   7.340 -0.1458  1.0799 -0.3612
18997SOL     OW61032   2.497   1.501   2.151  0.0680  0.4093 -0.0596
18997SOL    HW161033   2.582   1.539   2.173  0.2822 -0.3174  0.3933
18997SOL    HW261034   2.518   1.418   2.109 -0.4083  0.4837 -0.4509
18998SOL     OW61035  10.084   4.012   5.092  0.1832  0.2598  0.1274
18998SOL    HW161036  10.098   3.983   5.182  1.1225 -1.2825 -0.4657
18998SOL    HW261037  10.170   4.045   5.064  0.2366 -0.4284 -0.5640
18999SOL     OW61038   9.948   4.534   9.465 -0.6725  0.0353 -0.2916
18999SOL    HW161039  10.019   4.567   9.410 -1.0628  0.5433 -0.5032
18999SOL    HW261040   9.988   4.466   9.518 -0.4619 -1.0401 -1.7783
19000SOL     OW61041   0.138   0.718   3.740 -0.3052 -0.1346 -0.0248
19000SOL    HW161042   0.224   0.743   3.774 -0.9903 -0.0602  1.7655
19000SOL    HW261043   0.144   0.623   3.727 -0.2600 -0.2940  1.0853
19001SOL     OW61044   2.884   6.721   1.775 -0.0308  0.2343 -0.2307
19001SOL    HW161045   2.845   6.803   1.806 -0.5123  0.1145 -0.5096
19001SOL    HW261046   2.951   6.749   1.712  0.9680  0.4813  0.8835
19002SOL     OW61047   1.371   7.192   4.792  0.3890 -0.2062 -0.2774
19002SOL    HW161048   1.295   7.183   4.736 -0.6806 -0.2519  1.1221
19002SOL    HW261049   1.349   7.142   4.871  1.3905  0.7282  0.6262
19003SOL     OW61050   0.393   7.164   1.565 -0.0070 -0.1089 -0.0533
19003SOL    HW161051   0.305   7.128   1.569  0.2327 -0.6565  0.4832
19003SOL    HW261052   0.449   7.093   1.597  0.3395  1.2266  2.5947
19004SOL     OW61053  10.071   0.373   2.654 -0.3678  0.0653 -0.0615
19004SOL    HW161054  10.129   0.426   2.598 -0.0925  0.9960  1.0699
19004SOL    HW261055   9.998   0.431   2.675  0.6099  0.5465  2.3374
19005SOL     OW61056   2.911   3.480   5.626 -0.4487 -0.4344  0.1968
19005SOL    HW161057   2.875   3.568   5.622 -0.5750 -0.4752  0.4275
19005SOL    HW261058   2.834   3.422   5.630 -0.4162 -0.6569 -1.6255
19006SOL     OW61059   1.921   7.385   5.526  0.2381 -0.1205 -0.5716
19006SOL    HW161060   1.843   7.439   5.541  1.2630  0.9254  1.3172
19006SOL    HW261061   1.916   7.317   5.594  1.0206  0.0069 -0.3829
19007SOL     OW61062   2.733   0.963   4.469 -0.1254  0.0365 -0.2945
19007SOL    HW161063   2.721   0.966   4.374 -0.8717  2.8123 -0.2048
19007SOL    HW261064   2.809   0.906   4.482  0.6675  0.4384 -2.6514
19008SOL     OW61065   2.718   8.140   5.763  0.3790 -0.2917  0.5124
19008SOL    HW161066   2.725   8.052   5.726 -0.6129 -0.4723  0.7267
19008SOL    HW261067   2.797   8.185   5.734 -0.5973 -0.2280 -2.3343
19009SOL     OW61068   3.271   6.689   6.066  0.6343  0.3222  0.2768
19009SOL    HW161069   3.283   6.598   6.094  1.5348  0.0451 -0.9144
19009SOL    HW261070   3.297   6.741   6.142  1.6338 -0.4112  0.4669
19010SOL     OW61071   0.676   0.910   7.349 -0.0606 -0.2991 -0.1485
19010SOL    HW161072   0.713   0.927   7.436  1.5778  0.4507 -0.9335
19010SOL    HW261073   0.689   0.992   7.301 -1.9892 -0.3223 -0.7772
19011SOL     OW61074   1.227   5.272   6.525 -0.2949  0.2954  0.1333
19011SOL    HW161075   1.208   5.265   6.432  0.0333 -0.9920  0.1366
19011SOL    HW261076   1.141   5.272   6.567 -0.4211 -0.8086 -0.0953
19012SOL     OW61077   4.388   4.546   6.123  0.0883  0.2646 -0.3369
19012SOL    HW161078   4.451   4.522   6.054 -1.9277  0.0819 -2.2191
19012SOL    HW261079   4.369   4.463   6.168  0.6557  0.1950 -0.2206
19013SOL     OW61080   5.375   3.867   1.473  0.5925  0.7052  0.7858
19013SOL    HW161081   5.307   3.933   1.459  0.7934  1.3571  2.6793
19013SOL    HW261082   5.382   3.859   1.568  1.8161 -0.7726  0.6052
19014SOL     OW61083   9.725   0.444   5.473  0.4738  0.2487 -0.6957
19014SOL    HW161084   9.687   0.505   5.410  2.8402  1.4537 -1.0507
19014SOL    HW261085   9.724   0.492   5.556  0.4218 -0.0378 -0.5300
19015SOL     OW61086   0.286  10.238   0.309  0.0620  0.2827 -0.1171
19015SOL    HW161087   0.275  10.185   0.229 -0.0623  0.6158 -0.3215
19015SOL    HW261088   0.344  10.309   0.283  2.1176 -1.0098  0.7495
19016SOL     OW61089   6.663   1.425   4.852  1.1208  0.0452 -0.3532
19016SOL    HW161090   6.632   1.457   4.767  0.3577 -0.0446 -0.1133
19016SOL    HW261091   6.757   1.444   4.852  1.2119 -0.3420 -1.3960
19017SOL     OW61092   9.118   0.796  10.191  0.1023 -0.0429 -0.4487
19017SOL    HW161093   9.093   0.877  10.236 -0.1087 -1.0722  1.3949
19017SOL    HW261094   9.208   0.812  10.161 -0.2925  1.2197 -0.9876
19018SOL     OW61095   9.077   4.686   0.018 -0.0846 -0.6318 -0.8418
19018SOL    HW161096   8.983   4.699   0.025 -0.1885 -0.9871 -1.5235
19018SOL    HW261097   9.096   4.692  -0.075  0.4042 -1.6533 -0.8221
19019SOL     OW61098   0.930   7.559   4.630 -0.1720 -0.2515 -0.2523
19019SOL    HW161099   0.865   7.509   4.680  0.9339 -1.0272  0.4346
19019SOL    HW261100   1.014   7.539   4.671  0.5029  0.8974 -0.9964
19020SOL     OW61101   6.392   7.393  10.202  0.1617 -0.1282 -0.2503
19020SOL    HW161102   6.429   7.364  10.118  1.2550  0.8366 -0.1289
19020SOL    HW261103   6.420   7.325  10.263  1.9777  0.6521 -0.1311
19021SOL     OW61104   1.144   0.367   2.650  0.4036  0.1502  0.0515
19021SOL    HW161105   1.141   0.289   2.595 -2.1363 -0.3161  0.7558
19021SOL    HW261106   1.233   0.366   2.688  0.6965 -1.9215 -0.5940
19022SOL     OW61107   4.877   0.585   6.987  0.2527 -0.4852  0.2666
19022SOL    HW161108   4.793   0.576   7.033  0.3118 -0.0392  0.4597
19022SOL    HW261109   4.893   0.498   6.950 -0.2254 -0.6110  0.3493
19023SOL     OW61110   1.696   8.271  10.174 -0.1995  0.9779  0.3968
19023SOL    HW161111   1.651   8.187  10.162 -2.1089  1.9765  0.2347
19023SOL    HW261112   1.783   8.246  10.206 -0.7071 -1.0621  0.3679
19024SOL     OW61113   4.769   6.751   0.063 -0.2775 -0.0479  0.5029
19024SOL    HW161114   4.714   6.758  -0.015  0.7173  0.8768 -0.1469
19024SOL    HW261115   4.773   6.657   0.081 -1.2339 -0.2020 -0.0408
19025SOL     OW61116   2.713   1.508   5.352  0.9306  0.3809 -0.1106
19025SOL    HW161117   2.702   1.414   5.363 -0.3400  0.6179  0.8587
19025SOL    HW261118   2.708   1.523   5.258 -0.0663 -0.3878 -0.1849
19026SOL     OW61119   0.250   8.525   8.708 -0.0900  0.0489 -0.0245
19026SOL    HW161120   0.190   8.545   8.779 -1.9783 -2.4796 -0.7532
19026SOL    HW261121   0.334   8.510   8.751  0.2022  3.7456  1.0002
19027SOL     OW61122   5.290   9.860   8.027  0.4296  0.2582  0.2362
19027SOL    HW161123   5.258   9.820   8.108  1.6042  1.5299  1.3828
19027SOL    HW261124   5.371   9.813   8.007 -0.0912 -0.3510 -0.4575
19028SOL     OW61125  10.033   3.814   3.043 -0.3923  0.2211 -0.4114
19028SOL    HW161126   9.994   3.901   3.045 -0.3247  0.2755 -1.1314
19028SOL    HW261127  10.093   3.812   3.117  1.3520  1.6142 -1.7189
19029SOL     OW61128   8.385   7.994   2.165  0.0760 -0.2251  0.3454
19029SOL    HW161129   8.357   8.018   2.254 -2.0669 -1.6385  0.1376
19029SOL    HW261130   8.438   7.915   2.177 -0.1219 -0.3537  0.3744
19030SOL     OW61131   5.682   8.910   7.848  0.2963 -0.2810 -0.1692
19030SOL    HW161132   5.633   8.839   7.806  0.7843 -1.0530  0.5407
19030SOL    HW261133   5.760   8.921   7.793 -0.7888  1.2189 -1.5310
19031SOL     OW61134   0.577   7.882   1.568  0.6117 -0.3913 -0.1846
19031SOL    HW161135   0.504   7.938   1.594  0.2191 -0.4054 -1.1916
19031SOL    HW261136   0.542   7.793   1.575  0.5454 -0.4005 -0.6102
19032SOL     OW61137   2.974   8.730   4.974  0.2375 -0.2224  0.0530
19032SOL    HW161138   2.915   8.670   4.927  0.0834 -0.7817  0.9271
19032SOL    HW261139   2.982   8.806   4.916 -1.1832 -0.2165 -0.1917
19033SOL     OW61140   1.176  10.088   8.764 -0.0905 -0.2890  0.0684
19033SOL    HW161141   1.143  10.006   8.726  0.7064 -0.9872  0.8447
19033SOL    HW261142   1.222  10.131   8.692 -0.0625 -0.7693 -0.2071
19034SOL     OW61143   8.029   4.742   9.546  0.2986 -0.6920  0.4591
19034SOL    HW161144   8.111   4.785   9.521 -0.4213 -0.1631 -1.1393
19034SOL    HW261145   7.975   4.812   9.582 -0.0198 -0.7189  0.0363
19035SOL     OW61146   4.650   1.775   4.673  0.2696  0.3844 -0.5436
19035SOL    HW161147   4.574   1.758   4.618  0.3992  1.4178 -1.0486
19035SOL    HW261148   4.698   1.692   4.672 -0.5096 -0.0769 -0.7429
19036SOL     OW61149   3.320   3.373   4.941  0.1945 -0.4887 -0.3291
19036SOL    HW161150   3.377   3.440   4.903 -0.2503 -0.6653 -1.3222
19036SOL    HW261151   3.330   3.385   5.036  0.3454  0.7863 -0.4869
19037SOL     OW61152   9.399   0.746   5.949 -0.0029  0.1194  0.2841
19037SOL    HW161153   9.493   0.739   5.936  0.0104 -1.5581  1.0514
19037SOL    HW261154   9.387   0.745   6.044 -0.8389 -0.8276  0.1862
19038SOL     OW61155   7.310   1.992   6.997  0.3656 -0.6398 -0.3487
19038SOL    HW161156   7.378   1.930   7.025  1.6143  0.6932 -0.2620
19038SOL    HW261157   7.244   1.989   7.065 -0.1185 -2.6072 -0.8579
19039SOL     OW61158   8.893   8.840   0.371  0.5730 -0.1425 -0.2750
19039SOL    HW161159   8.877   8.925   0.411 -2.0886 -1.3328  1.4172
19039SOL    HW261160   8.985   8.822   0.389  0.6080  1.3801  1.3115
19040SOL     OW61161   1.708   7.601   4.151  0.2789 -0.1927  0.2581
19040SOL    HW161162   1.657   7.678   4.128  0.5437  0.2646  1.1318
19040SOL    HW261163   1.668   7.570   4.232  1.0387 -0.1413  0.6643
19041SOL     OW61164   5.567   9.559   6.283  0.0944  0.0029 -0.1349
19041SOL    HW161165   5.546   9.620   6.212 -0.4927 -1.0865 -0.9287
19041SOL    HW261166   5.544   9.607   6.363  0.7631  1.2494 -0.6520
19042SOL     OW61167   3.521   7.621   9.950 -0.1211 -0.1839 -0.2518
19042SOL    HW161168   3.426   7.614   9.941  0.0266 -3.2218 -0.3438
19042SOL    HW261169   3.539   7.589  10.038  0.8694 -0.3434 -0.5023
19043SOL     OW61170   0.188   8.492   3.810  0.3058  0.1406  0.1468
19043SOL    HW161171   0.107   8.441   3.813  0.6149 -0.3981 -0.3862
19043SOL    HW261172   0.163   8.574   3.766  0.3020 -0.5219 -1.1316
19044SOL     OW61173   9.703   7.601  10.274 -0.2398 -0.5772 -0.2825
19044SOL    HW161174   9.624   7.613  10.221 -0.5549  2.3848  0.6868
19044SOL    HW261175   9.774   7.630  10.217 -0.4433  1.3310  0.3401
19045SOL     OW61176   2.980   7.088   3.113 -0.5620 -0.1987 -0.3086
19045SOL    HW161177   3.052   7.123   3.165 -2.0198 -0.1064  1.7796
19045SOL    HW261178   3.011   7.093   3.022  1.2610  1.7089  0.3333
19046SOL     OW61179   8.979   4.045   8.929  0.2424  0.2889  0.1488
19046SOL    HW161180   9.070   4.065   8.951  0.0609 -0.4163  1.6777
19046SOL    HW261181   8.957   4.108   8.860  1.5988  1.0642  0.3719
19047SOL     OW61182   7.935   5.549   0.508 -0.0422  0.2084 -0.1255
19047SOL    HW161183   7.917   5.569   0.417  0.9910  1.1144 -0.1457
19047SOL    HW261184   7.872   5.481   0.531  0.6077 -1.0778 -1.9275
19048SOL     OW61185   8.038   8.240   2.161  0.0464  0.0754 -0.3422
19048SOL    HW161186   7.999   8.318   2.201  0.2926  0.6050 -1.1030
19048SOL    HW261187   8.035   8.258   2.067  1.2805 -0.2702 -0.4586
19049SOL     OW61188   7.178   3.043   9.045  0.4099 -0.3129 -0.1839
19049SOL    HW161189   7.172   3.055   9.140  0.6714  0.1544 -0.2292
19049SOL    HW261190   7.271   3.036   9.027  0.4467  0.9459 -0.5717
19050SOL     OW61191   5.593   0.976   5.327 -0.0310 -0.0784 -0.6232
19050SOL    HW161192   5.600   1.054   5.382  0.8486 -0.5955  0.0051
19050SOL    HW261193   5.682   0.940   5.324  0.1614  0.4256 -3.1055
19051SOL     OW61194   6.729   0.580   2.959  0.4045 -0.2449 -0.0248
19051SOL    HW161195   6.680   0.580   3.041  0.8641  2.1334  0.3248
19051SOL    HW261196   6.662   0.582   2.891  0.0237 -0.4779  0.3419
19052SOL     OW61197   1.333   1.030   1.825  0.4449 -0.3190  0.0497
19052SOL    HW161198   1.292   1.104   1.781  0.9809  0.1064  0.2626
19052SOL    HW261199   1.323   1.049   1.918 -0.5561 -1.1431  0.1389
19053SOL     OW61200   3.111   5.054   7.192  0.0817 -0.0262 -0.7622
19053SOL    HW161201   3.182   5.003   7.152  0.3416 -0.2763  0.0008
19053SOL    HW261202   3.085   5.003   7.269  0.7954  1.3055  0.4069
19054SOL     OW61203   7.656   7.360   4.161  0.2808 -0.1982  0.3922
19054SOL    HW161204   7.636   7.301   4.089  0.9431 -0.0850  0.1056
19054SOL    HW261205   7.670   7.445   4.120 -0.6017  0.1529  0.7942
19055SOL     OW61206   2.699   0.845   9.228  0.0811  0.1436  0.0008
19055SOL    HW161207   2.775   0.850   9.170  0.3832 -0.3288  0.3550
19055SOL    HW261208   2.712   0.765   9.278  0.7097  1.4106  1.9530
19056SOL     OW61209   4.355   7.182   3.614  0.2507 -0.1751 -0.2757
19056SOL    HW161210   4.297   7.201   3.687 -0.7905  0.7443 -1.2881
19056SOL    HW261211   4.443   7.183   3.651 -0.2431  0.4855  0.9181
19057SOL     OW61212   4.775   1.485   4.239 -0.0628 -0.1042  0.1557
19057SOL    HW161213   4.818   1.568   4.222  1.0041 -0.8489 -1.0210
19057SOL    HW261214   4.819   1.449   4.315  1.3971 -0.7980 -0.9590
19058SOL     OW61215   6.408   2.775   2.705  0.3380  0.5172  0.3499
19058SOL    HW161216   6.496   2.797   2.674  0.5762 -0.9400 -0.0745
19058SOL    HW261217   6.421   2.701   2.765 -0.4121  1.5742  1.8715
19059SOL     OW61218   2.370   8.200   8.546  0.1989  0.3574 -0.0025
19059SOL    HW161219   2.371   8.295   8.531  1.4813  0.1201 -1.6751
19059SOL    HW261220   2.381   8.191   8.641 -0.0440  1.8667  0.2031
19060SOL     OW61221   9.749   1.671   3.103  0.0259 -0.6252 -0.0692
19060SOL    HW161222   9.785   1.610   3.038 -2.1075 -0.0670 -1.8991
19060SOL    HW261223   9.655   1.651   3.105 -0.4894  1.5966  0.3668
19061SOL     OW61224  10.261   9.805   8.225  0.0669 -0.4414  0.3126
19061SOL    HW161225  10.324   9.843   8.164 -0.6037 -1.5598 -1.1278
19061SOL    HW261226  10.209   9.880   8.255  1.5247  0.3722  0.9213
19062SOL     OW61227   6.283   1.585   4.673 -0.1638  0.4700  0.0801
19062SOL    HW161228   6.348   1.620   4.734  0.7797 -0.2066 -0.5189
19062SOL    HW261229   6.296   1.636   4.593  1.0095 -0.9643 -0.6962
19063SOL     OW61230   6.765   6.198   8.704  0.0570  0.3503  0.4350
19063SOL    HW161231   6.689   6.252   8.682  0.0675  1.3674  2.6188
19063SOL    HW261232   6.840   6.257   8.699  0.6582 -0.4762 -1.0032
19064SOL     OW61233   9.023   6.866   5.586 -0.4524 -0.5136 -0.0616
19064SOL    HW161234   8.959   6.930   5.555 -0.2113  0.7814  2.0036
19064SOL    HW261235   9.100   6.882   5.531  0.5381  2.8522  2.0436
19065SOL     OW61236  10.217   7.049   7.108  0.2560 -0.2135  0.0855
19065SOL    HW161237  10.132   7.086   7.129  0.3727 -0.0756  0.3111
19065SOL    HW261238  10.257   7.115   7.050  0.3360 -0.1339  0.2324
19066SOL     OW61239   5.982   5.285   5.328  0.2273  0.3591 -0.2996
19066SOL    HW161240   5.954   5.303   5.238  0.2149 -0.8719 -0.5663
19066SOL    HW261241   5.904   5.303   5.381 -0.0069  0.3405 -0.6318
19067SOL     OW61242   3.420   1.017   9.564  0.7506 -0.7343  0.3321
19067SOL    HW161243   3.453   0.958   9.632  0.2426 -1.4998 -0.0729
19067SOL    HW261244   3.345   1.060   9.606 -0.4937 -2.2890 -0.1743
19068SOL     OW61245   8.263   6.640   3.687 -0.3703 -0.2173 -0.2307
19068SOL    HW161246   8.354   6.657   3.664 -0.4807 -0.1695 -0.6383
19068SOL    HW261247   8.254   6.545   3.680 -0.7233 -0.1001 -1.6121
19069SOL     OW61248   9.301   3.864  10.213 -0.1489  0.2712 -0.0014
19069SOL    HW161249   9.291   3.932  10.146 -1.6309  0.9995  0.8884
19069SOL    HW261250   9.253   3.899  10.288 -2.0168 -2.2554  0.1110
19070SOL     OW61251   2.749   3.881   3.836  0.1902 -0.7218  0.2285
19070SOL    HW161252   2.742   3.947   3.905  0.0209  0.6302 -1.0453
19070SOL    HW261253   2.722   3.799   3.878  2.6911 -0.5141  2.5094
19071SOL     OW61254   9.162   6.897   5.368  0.1197 -0.7216 -0.2372
19071SOL    HW161255   9.196   6.856   5.288  1.8005  0.2791 -0.0934
19071SOL    HW261256   9.172   6.991   5.352 -1.4108 -0.4232  0.3821
19072SOL     OW61257   0.141   8.691   7.686  0.3961 -0.3768 -0.3827
19072SOL    HW161258   0.089   8.710   7.764  1.3011 -1.0042  0.3892
19072SOL    HW261259   0.095   8.736   7.616  1.3315  3.0266  0.9956
19073SOL     OW61260   0.933   1.877   5.699 -0.0942 -0.1440  0.0028
19073SOL    HW161261   0.854   1.834   5.732 -0.4783 -0.4744 -1.3142
19073SOL    HW261262   1.004   1.815   5.718 -0.2503 -0.1698  0.5149
19074SOL     OW61263   3.644   8.894   7.346  0.1850 -0.0355  0.5764
19074SOL    HW161264   3.592   8.960   7.299  2.5807  0.5546 -1.4776
19074SOL    HW261265   3.704   8.944   7.400  1.0976 -0.5241  0.0490
19075SOL     OW61266   6.336   9.677   0.303  0.2881 -0.9079  0.2864
19075SOL    HW161267   6.286   9.602   0.272 -0.9930  0.5015 -1.2432
19075SOL    HW261268   6.360   9.724   0.223  1.1378  0.2569  1.1980
19076SOL     OW61269   9.546   0.222   8.091 -0.2726  0.2172 -0.2718
19076SOL    HW161270   9.511   0.136   8.115  0.0242  0.5190  1.3560
19076SOL    HW261271   9.616   0.238   8.155 -0.1644  1.5640 -0.6947
19077SOL     OW61272   8.270   2.969   5.988  0.2328  0.7185 -0.0527
19077SOL    HW161273   8.334   3.033   5.957 -0.3792  0.6375 -1.5684
19077SOL    HW261274   8.185   3.006   5.962 -0.2784  0.2893  0.9322
19078SOL     OW61275   3.289   5.695   8.576  0.2277  0.3442  0.0329
19078SOL    HW161276   3.351   5.768   8.571  2.5089 -1.4462  0.3675
19078SOL    HW261277   3.343   5.619   8.599 -1.8318 -1.7016 -1.4209
19079SOL     OW61278   7.800   4.500   2.282 -0.0436 -0.0790  0.3435
19079SOL    HW161279   7.893   4.523   2.292 -0.4086  0.7832  1.9942
19079SOL    HW261280   7.782   4.441   2.355 -0.8333 -0.1595  0.0920
19080SOL     OW61281   5.769   5.832   8.206  0.3080  0.0808 -0.2962
19080SOL    HW161282   5.862   5.816   8.195  0.6788  2.0564 -0.4803
19080SOL    HW261283   5.763   5.887   8.284 -0.5603  1.0310 -0.9983
19081SOL     OW61284   0.031   9.647   2.456 -0.7209 -0.5130  0.2171
19081SOL    HW161285   0.103   9.707   2.476 -0.6605  0.0245 -1.5005
19081SOL    HW261286   0.066   9.561   2.478 -0.3690 -0.0711  1.5203
19082SOL     OW61287   3.213   4.104   9.102 -0.1943 -0.1449 -0.0462
19082SOL    HW161288   3.220   4.011   9.084 -2.6313 -0.7982  1.8814
19082SOL    HW261289   3.282   4.121   9.167  0.1828 -0.6229 -0.3161
19083SOL     OW61290   0.726   9.931   3.590 -0.1913  0.0774 -0.5146
19083SOL    HW161291   0.683  10.014   3.567  1.9499  1.0106 -1.4160
19083SOL    HW261292   0.712   9.874   3.515  0.9458  0.7449 -1.2698
19084SOL     OW61293   5.528   5.243   0.768  0.8025 -0.2773  0.3210
19084SOL    HW161294   5.545   5.156   0.733  0.5103 -0.3783  0.4271
19084SOL    HW261295   5.521   5.230   0.863 -0.5097 -0.3613  0.2419
19085SOL     OW61296   9.161   7.221   3.345 -0.0515  0.2496 -0.1768
19085SOL    HW161297   9.160   7.263   3.260  0.4028  2.3409  0.7973
19085SOL    HW261298   9.146   7.128   3.326  0.7170  0.5562 -2.5516
19086SOL     OW61299   1.019   8.783   7.635  0.4780  0.1123 -0.2297
19086SOL    HW161300   0.965   8.704   7.630  0.1094  0.2457  1.2611
19086SOL    HW261301   1.042   8.801   7.544 -0.2103 -1.1717 -0.6908
19087SOL     OW61302   6.109   8.191   4.385 -0.0272 -0.2176  0.0800
19087SOL    HW161303   6.132   8.250   4.313  2.0432 -0.8111  0.1749
19087SOL    HW261304   6.126   8.241   4.464  2.5275 -1.0800  0.1794
19088SOL     OW61305   6.235   8.716   0.447  0.5818  0.1985 -0.1552
19088SOL    HW161306   6.274   8.675   0.370  1.7454 -2.9692  1.9016
19088SOL    HW261307   6.143   8.691   0.444  0.6872 -0.1691 -0.4013
19089SOL     OW61308   8.240   6.878   1.723  0.2671 -0.3076  0.1529
19089SOL    HW161309   8.157   6.911   1.759 -2.3061 -2.4605 -3.2077
19089SOL    HW261310   8.250   6.791   1.762 -0.1299 -0.8241 -0.8691
19090SOL     OW61311   1.479   3.453   4.821 -0.7517  0.1584  0.2848
19090SOL    HW161312   1.560   3.404   4.834 -0.6093 -0.5760 -2.7429
19090SOL    HW261313   1.497   3.512   4.748 -2.7266  0.4893  0.0025
19091SOL     OW61314   4.545   1.426   5.390 -0.3751  0.1744 -0.2242
19091SOL    HW161315   4.616   1.487   5.411 -0.1232 -0.5025  1.0198
19091SOL    HW261316   4.521   1.388   5.475 -3.1464  1.3476 -0.3661
19092SOL     OW61317   6.189   1.068   4.956  0.1702  0.0816 -0.1593
19092SOL    HW161318   6.285   1.060   4.957  0.0995 -1.3146 -1.4335
19092SOL    HW261319   6.162   1.020   4.878 -1.5190  1.2781 -0.3444
19093SOL     OW61320   1.484   9.346   7.116  0.3194  0.4420 -0.0631
19093SOL    HW161321   1.389   9.358   7.114  0.0787 -0.8643  1.3422
19093SOL    HW261322   1.515   9.417   7.172  0.0828  0.4986  0.0008
19094SOL     OW61323   9.866   6.208   5.857  0.3149  0.2631  0.1899
19094SOL    HW161324   9.861   6.222   5.762  0.0481  1.3956  0.3549
19094SOL    HW261325   9.838   6.117   5.869 -2.0403  0.8064 -0.6099
19095SOL     OW61326   9.919   8.514   9.189  0.4640  0.3118  0.2966
19095SOL    HW161327  10.007   8.519   9.152  0.7221  1.4857  1.0144
19095SOL    HW261328   9.884   8.602   9.180 -1.2380 -0.4567 -1.3167
19096SOL     OW61329   4.151   6.939   3.530 -0.1458  0.0289 -0.2697
19096SOL    HW161330   4.225   6.915   3.585  0.8494  1.1907 -1.0402
19096SOL    HW261331   4.074   6.910   3.578  0.7166  0.4384  1.4317
19097SOL     OW61332   9.262   6.471   7.657 -0.1457  0.0295 -0.1464
19097SOL    HW161333   9.353   6.463   7.685 -0.8590  1.0737  2.8597
19097SOL    HW261334   9.216   6.400   7.702 -0.7520 -1.1643 -2.4685
19098SOL     OW61335   5.917   5.055   9.757  0.2720 -0.2756 -0.0184
19098SOL    HW161336   5.908   5.070   9.851 -1.5704 -0.9298 -0.0663
19098SOL    HW261337   5.878   5.133   9.717  2.1746  0.6092 -0.3049
19099SOL     OW61338   6.381   7.154   3.325  1.2188  0.3031 -0.0507
19099SOL    HW161339   6.369   7.248   3.322 -1.0504  0.0731  0.3243
19099SOL    HW261340   6.462   7.139   3.275 -0.0871  2.1683 -3.0391
19100SOL     OW61341   5.691   7.387   9.916  0.9564 -0.1852 -0.5530
19100SOL    HW161342   5.638   7.367   9.994 -1.3320 -2.6382 -2.5508
19100SOL    HW261343   5.778   7.353   9.937  0.3425 -0.9704  0.8573
19101SOL     OW61344   0.182   8.292   0.838  0.5082  0.4163 -0.1103
19101SOL    HW161345   0.250   8.294   0.771  0.6211  0.4967  0.0070
19101SOL    HW261346   0.122   8.363   0.814 -0.7199 -0.9836 -1.4504
19102SOL     OW61347   7.987   0.662   1.143 -0.4409  0.0590  0.3280
19102SOL    HW161348   8.077   0.641   1.166 -0.3824  1.9063  2.0145
19102SOL    HW261349   7.934   0.606   1.200 -0.3195  0.4720  0.8599
19103SOL     OW61350   8.094   9.897   9.046 -0.4150  0.2801 -0.4702
19103SOL    HW161351   8.053   9.824   9.001  0.4241 -1.2387  1.0977
19103SOL    HW261352   8.092   9.873   9.139  0.1623  2.1105  0.0702
19104SOL     OW61353   5.401   8.400   3.595 -0.1739 -0.6107  0.0448
19104SOL    HW161354   5.326   8.424   3.649  0.2306 -0.8782  0.7370
19104SOL    HW261355   5.363   8.358   3.518 -0.8479  1.2137 -0.6800
19105SOL     OW61356   1.431   5.613   9.346 -0.1262 -0.0197 -0.8982
19105SOL    HW161357   1.412   5.694   9.395 -0.2818  0.7840 -2.2491
19105SOL    HW261358   1.489   5.564   9.405 -2.3971 -0.3360  1.2430
19106SOL     OW61359   6.333   7.216   3.039 -0.2144  0.7438  0.8584
19106SOL    HW161360   6.418   7.180   3.063  0.3399  0.8591 -0.7521
19106SOL    HW261361   6.304   7.264   3.116  0.0239 -1.3133  2.3083
19107SOL     OW61362   7.432   7.829   0.652  0.0615 -0.0389  0.2291
19107SOL    HW161363   7.379   7.750   0.664  2.9535 -2.1686  0.0169
19107SOL    HW261364   7.415   7.854   0.561 -0.5586 -0.6850  0.1505
19108SOL     OW61365   3.303   6.515   8.267  0.1927 -0.2932 -0.0110
19108SOL    HW161366   3.298   6.419   8.273 -0.6547 -0.2961 -0.5795
19108SOL    HW261367   3.397   6.534   8.265  0.3663 -1.1897 -1.0345
19109SOL     OW61368   9.139   0.467   0.871  0.3011  0.1355 -0.4001
19109SOL    HW161369   9.102   0.530   0.932  2.2664  1.7885 -0.8097
19109SOL    HW261370   9.172   0.396   0.926 -0.6054  0.1677  0.1990
19110SOL     OW61371   8.971   1.008   3.335 -0.0816  0.2917  0.1671
19110SOL    HW161372   8.939   1.090   3.373 -0.5241 -0.1526  0.7714
19110SOL    HW261373   9.051   0.989   3.384  0.4049  0.7157 -0.4470
19111SOL     OW61374   7.811   4.010   8.480 -0.2528 -0.3601 -0.3438
19111SOL    HW161375   7.842   3.991   8.392  1.8079 -0.5539  0.3747
19111SOL    HW261376   7.841   3.936   8.533 -0.6516  0.1879  0.6812
19112SOL     OW61377   2.410   0.406   7.623 -0.0303 -0.2286 -0.4081
19112SOL    HW161378   2.369   0.322   7.641 -1.0667  0.6224  1.4124
19112SOL    HW261379   2.501   0.394   7.650  0.0898 -1.0553 -1.1355
19113SOL     OW61380   4.711   2.933   7.659  0.3960  0.1007  0.0317
19113SOL    HW161381   4.651   2.884   7.602  1.1667 -0.9678  0.1005
19113SOL    HW261382   4.729   2.873   7.732 -2.2004  2.1890  2.5791
19114SOL     OW61383   1.263   6.351   2.394 -0.0360 -0.5184 -0.5620
19114SOL    HW161384   1.194   6.416   2.406  0.1167 -0.2479 -1.1026
19114SOL    HW261385   1.272   6.309   2.479  0.1577  0.4628 -0.0871
19115SOL     OW61386   8.094   8.964   0.732  0.2439  0.3404 -0.1984
19115SOL    HW161387   8.080   8.915   0.813 -1.6011 -2.7772 -2.2214
19115SOL    HW261388   8.189   8.964   0.721  0.4270 -0.7951  1.0433
19116SOL     OW61389   0.367   0.059   2.436 -0.3281  0.1058  0.2509
19116SOL    HW161390   0.399   0.068   2.526  0.1869  3.0716 -0.1094
19116SOL    HW261391   0.442   0.030   2.386 -0.7003 -1.8873  0.7677
19117SOL     OW61392   1.878   8.322   0.868 -0.0002 -0.0472 -0.0127
19117SOL    HW161393   1.949   8.376   0.833  0.6061 -0.9655 -0.2256
19117SOL    HW261394   1.910   8.232   0.862 -0.2559 -0.3268  2.0567
19118SOL     OW61395   4.121   3.229   4.421 -0.0218 -0.2441 -0.0817
19118SOL    HW161396   4.065   3.175   4.476 -0.4662  2.2905  2.1672
19118SOL    HW261397   4.207   3.188   4.427 -1.0811 -3.0011 -1.8986
19119SOL     OW61398   3.924  10.148   0.857  0.0793 -0.2495  0.3353
19119SOL    HW161399   4.012  10.158   0.894 -0.4138  2.3402  0.9938
19119SOL    HW261400   3.885  10.077   0.907  0.8977  0.3474  1.8893
19120SOL     OW61401   3.085   9.489   1.492 -0.1289  0.0500 -0.2373
19120SOL    HW161402   3.021   9.499   1.422 -0.3622 -0.1623 -0.0559
19120SOL    HW261403   3.148   9.560   1.478  0.5443 -0.7443 -1.4246
19121SOL     OW61404   2.106   8.878   1.410 -0.0933 -1.0384 -0.4432
19121SOL    HW161405   2.190   8.923   1.421 -0.1682 -1.2637  1.3060
19121SOL    HW261406   2.045   8.947   1.384  0.1278 -0.4013  0.6752
19122SOL     OW61407   7.840   5.530   7.208 -0.5213 -0.8060  0.5047
19122SOL    HW161408   7.758   5.541   7.256 -0.9651  0.7092 -0.5374
19122SOL    HW261409   7.892   5.606   7.232  0.5643 -1.6840  1.0417
19123SOL     OW61410   9.447   3.222   4.675 -0.1353  0.2753 -0.0791
19123SOL    HW161411   9.413   3.297   4.625  0.7967  1.2091  0.6460
19123SOL    HW261412   9.531   3.252   4.709 -1.1047  0.0138  2.7881
19124SOL     OW61413   0.674   2.524   4.970 -0.2540 -0.1403 -0.6227
19124SOL    HW161414   0.643   2.548   4.882  0.3191 -1.4827 -1.2216
19124SOL    HW261415   0.751   2.470   4.953 -0.8553 -1.4598  0.6669
19125SOL     OW61416   0.125   5.546   3.766  0.0659 -0.1725 -0.0064
19125SOL    HW161417   0.079   5.475   3.811  0.3229  0.0590  0.6346
19125SOL    HW261418   0.163   5.599   3.837 -0.1276  0.6094 -0.4694
19126SOL     OW61419   4.795   2.900   1.043 -0.2152 -0.0125 -0.2696
19126SOL    HW161420   4.816   2.821   0.992  1.1859  1.1634 -1.6094
19126SOL    HW261421   4.704   2.886   1.072 -0.9131 -0.9764 -2.6652
19127SOL     OW61422   4.872   2.468   4.107 -0.6558 -0.1556 -0.8155
19127SOL    HW161423   4.933   2.523   4.158 -1.1684  0.6525 -1.0618
19127SOL    HW261424   4.914   2.460   4.021 -0.6053 -0.1108 -0.7953
19128SOL     OW61425   3.315   6.203   2.438  0.2871  0.2102 -0.1232
19128SOL    HW161426   3.341   6.213   2.346  0.8335  0.4804  0.0550
19128SOL    HW261427   3.221   6.189   2.435  0.5065 -1.3073 -0.8213
19129SOL     OW61428   5.773   7.384   7.571 -0.1922  0.2177 -0.3115
19129SOL    HW161429   5.761   7.439   7.493 -0.0491 -0.5358 -0.8772
19129SOL    HW261430   5.736   7.435   7.642 -0.4350  0.8713 -0.8948
19130SOL     OW61431   9.781   5.851   9.178  0.5028  0.4993 -0.0835
19130SOL    HW161432   9.686   5.850   9.187  0.4486  3.1860  0.4224
19130SOL    HW261433   9.809   5.765   9.210 -1.6951 -0.1888  0.1456
19131SOL     OW61434   5.678   1.550   7.938 -0.2744 -0.3280 -0.3040
19131SOL    HW161435   5.676   1.615   8.008 -2.6324 -1.4864  0.8189
19131SOL    HW261436   5.716   1.472   7.979 -0.5681 -0.6557 -0.6497
19132SOL     OW61437   3.783   1.123   7.839 -0.1871  0.6221  0.3376
19132SOL    HW161438   3.844   1.157   7.774 -0.1579  0.1215  0.1002
19132SOL    HW261439   3.783   1.029   7.826  0.0922  0.4762  1.3103
19133SOL     OW61440   5.675   3.827   9.375  0.0413  0.3076 -0.3036
19133SOL    HW161441   5.684   3.875   9.458  3.2852 -0.3241 -0.1654
19133SOL    HW261442   5.612   3.879   9.325 -1.6282  1.0095  2.3030
19134SOL     OW61443   0.195   0.516   3.354 -0.4537  0.1394 -0.5656
19134SOL    HW161444   0.179   0.513   3.448 -1.0135  0.7216 -0.6353
19134SOL    HW261445   0.257   0.445   3.338 -2.0449 -1.4280 -0.0863
19135SOL     OW61446   4.990   0.774   0.563 -0.0318 -0.2698  0.0685
19135SOL    HW161447   5.036   0.801   0.483 -1.0169 -3.5358 -1.7676
19135SOL    HW261448   4.898   0.789   0.543 -0.3730 -2.2040  0.0943
19136SOL     OW61449   1.394   1.556   1.289 -0.8093  0.6054  0.2578
19136SOL    HW161450   1.340   1.484   1.255  0.7666 -0.3088 -0.4481
19136SOL    HW261451   1.388   1.624   1.222 -0.5602  0.2384 -0.1408
19137SOL     OW61452   6.394   6.706   1.100 -0.3553 -0.2950 -0.1470
19137SOL    HW161453   6.371   6.798   1.085  1.1241  0.2241  0.5285
19137SOL    HW261454   6.425   6.675   1.014  0.0885  0.1550 -0.1577
19138SOL     OW61455   3.059   1.378   7.205 -0.2172 -0.5894  0.2204
19138SOL    HW161456   3.109   1.427   7.140 -2.9754 -1.1334 -2.5467
19138SOL    HW261457   3.099   1.291   7.204  1.7489  0.2221  1.7204
19139SOL     OW61458   8.663   3.200   5.161  1.0172  0.0948  0.3530
19139SOL    HW161459   8.727   3.138   5.197 -0.1096 -1.7759 -0.6800
19139SOL    HW261460   8.633   3.158   5.080 -1.7699  0.7110  0.9880
19140SOL     OW61461   5.209   1.311   2.760 -0.1147  0.1597 -0.7727
19140SOL    HW161462   5.167   1.240   2.713 -1.4130  0.5689 -0.2607
19140SOL    HW261463   5.144   1.340   2.824  1.2394  0.2829  0.5905
19141SOL     OW61464   6.694   7.141   5.639 -0.1468 -0.3192 -0.1509
19141SOL    HW161465   6.734   7.064   5.680  0.1677 -0.1790 -0.1894
19141SOL    HW261466   6.734   7.145   5.552 -0.9803 -0.7503 -0.5703
19142SOL     OW61467   1.365   8.847   3.655  0.7379  0.0666  0.0941
19142SOL    HW161468   1.329   8.918   3.601 -0.4224  0.0056  0.7432
19142SOL    HW261469   1.324   8.860   3.741 -1.3011 -2.6562 -0.3237
19143SOL     OW61470   6.267   6.520   5.526 -0.6083 -0.1512 -0.4519
19143SOL    HW161471   6.324   6.449   5.554 -1.1050 -0.1722  0.5484
19143SOL    HW261472   6.274   6.586   5.596 -0.9023  0.3505 -0.8866
19144SOL     OW61473   5.494  10.100   0.943  0.5045  0.3220  0.0428
19144SOL    HW161474   5.400  10.084   0.951  0.3725  1.0773  0.0250
19144SOL    HW261475   5.520  10.045   0.869  0.3628 -1.0087  0.9342
19145SOL     OW61476   6.566   0.554   4.133  0.6157 -0.0698  0.0961
19145SOL    HW161477   6.559   0.482   4.070  0.4804  0.9545 -1.0980
19145SOL    HW261478   6.476   0.567   4.163  0.4619  0.2619 -0.4788
19146SOL     OW61479   6.044   4.110   9.728  0.9545  0.5388 -0.4804
19146SOL    HW161480   6.092   4.112   9.811 -1.8230  1.8650  1.2339
19146SOL    HW261481   5.993   4.029   9.733  1.6210  0.0401 -1.4688
19147SOL     OW61482   9.918   3.605   4.438 -0.1230 -0.0639 -0.2210
19147SOL    HW161483  10.001   3.644   4.411  0.6531  0.4320  2.5941
19147SOL    HW261484   9.869   3.676   4.478 -1.0891 -0.7780 -0.0867
19148SOL     OW61485   3.574   1.949   9.732 -0.5675  0.1425  0.2977
19148SOL    HW161486   3.512   2.018   9.706  0.4845  1.0395  0.1199
19148SOL    HW261487   3.655   1.970   9.686 -0.5201 -1.8351 -0.6030
19149SOL     OW61488   2.298   7.347   8.900 -0.5249  0.6640  0.0515
19149SOL    HW161489   2.322   7.330   8.991  0.1912 -0.5427 -0.3395
19149SOL    HW261490   2.236   7.420   8.904  0.4701  1.4638  1.3908
19150SOL     OW61491   2.600   8.290   4.137 -0.1655  0.3894  0.1206
19150SOL    HW161492   2.539   8.338   4.080  0.9564  3.2302  1.1554
19150SOL    HW261493   2.546   8.264   4.212 -0.9772 -0.8251 -0.8305
19151SOL     OW61494   7.222   4.953   7.660  0.2446  0.3208  0.6474
19151SOL    HW161495   7.258   4.902   7.733 -0.7947 -1.8677 -0.2864
19151SOL    HW261496   7.133   4.920   7.649  1.5069 -2.4488 -4.1044
19152SOL     OW61497   4.801   1.027   3.853  0.3258 -0.1642  0.1147
19152SOL    HW161498   4.875   1.087   3.847  1.3021 -1.3857 -0.7136
19152SOL    HW261499   4.840   0.944   3.881 -0.8818 -0.5978  0.5877
19153SOL     OW61500   4.844   4.268   4.373 -0.3140 -0.5203 -0.7456
19153SOL    HW161501   4.772   4.209   4.352  0.5394 -2.2806  0.9426
19153SOL    HW261502   4.897   4.219   4.436  1.5719  1.2788 -0.8356
19154SOL     OW61503   3.700   8.733   2.503 -0.8018  0.2100 -0.2308
19154SOL    HW161504   3.689   8.768   2.414 -1.3373 -1.2718 -0.7923
19154SOL    HW261505   3.793   8.712   2.509 -0.6125  1.0579 -0.1452
19155SOL     OW61506   3.117   8.706   8.144  0.9535 -0.4460 -0.3308
19155SOL    HW161507   3.133   8.787   8.194  1.0023 -1.0931  0.7264
19155SOL    HW261508   3.081   8.737   8.061 -0.5120  0.6107  0.6417
19156SOL     OW61509   7.964   4.905   1.595 -0.4402 -0.0498  0.0947
19156SOL    HW161510   7.882   4.953   1.582 -1.4023 -1.1955  1.6215
19156SOL    HW261511   7.950   4.821   1.553  0.6647  0.3882 -1.2160
19157SOL     OW61512   0.171   7.629   4.434 -0.0230 -0.1573  0.7987
19157SOL    HW161513   0.169   7.583   4.350 -0.4053  0.3367  0.5329
19157SOL    HW261514   0.079   7.648   4.454  0.0137 -0.7970  1.6294
19158SOL     OW61515   3.435   3.967   8.334  0.1475  0.1909  0.2522
19158SOL    HW161516   3.457   3.930   8.248  0.4658  2.6202 -0.7950
19158SOL    HW261517   3.508   3.942   8.390  1.6953  1.3789 -1.1090
19159SOL     OW61518   5.685   2.773   3.511 -0.2964 -0.4288 -0.0545
19159SOL    HW161519   5.592   2.792   3.525 -0.6125  0.2779 -2.6900
19159SOL    HW261520   5.729   2.857   3.524 -0.0975 -0.5966  0.4047
19160SOL     OW61521   7.358   6.686   3.213 -0.2941  0.3287  0.4836
19160SOL    HW161522   7.330   6.775   3.194  2.0105  1.1415  0.5704
19160SOL    HW261523   7.338   6.636   3.134 -2.0411  0.7641  0.6113
19161SOL     OW61524   3.839   7.465   6.490  0.0692 -0.3126 -0.2395
19161SOL    HW161525   3.788   7.384   6.496  1.0309 -0.8775  0.6031
19161SOL    HW261526   3.926   7.436   6.462  0.9536  0.1672  1.8041
19162SOL     OW61527   7.261   9.514   1.370 -0.0568 -0.1735  0.5699
19162SOL    HW161528   7.281   9.476   1.285  0.0612  0.2158  0.4200
19162SOL    HW261529   7.344   9.511   1.418 -0.2703 -0.9745  0.9064
19163SOL     OW61530   0.679   5.958   8.352  0.3154 -0.3047 -0.5231
19163SOL    HW161531   0.678   5.866   8.327 -1.5570  0.2337 -2.8200
19163SOL    HW261532   0.596   5.971   8.399  0.6061  0.2023 -0.1395
19164SOL     OW61533   7.740   7.571   0.283  0.3895  0.1786 -0.0362
19164SOL    HW161534   7.763   7.540   0.371  1.0837 -1.7636 -0.8365
19164SOL    HW261535   7.805   7.531   0.226  0.5837  2.2477 -1.3522
19165SOL     OW61536   1.189   1.867   4.920 -0.0207  0.4412  0.1900
19165SOL    HW161537   1.284   1.863   4.904 -0.3139 -0.2866 -1.5624
19165SOL    HW261538   1.181   1.864   5.015  1.8021  2.9989  0.5145
19166SOL     OW61539   8.247   0.196   3.276  0.4552 -0.0958 -0.4187
19166SOL    HW161540   8.289   0.125   3.228  0.6889 -0.4233  0.2611
19166SOL    HW261541   8.181   0.230   3.215  0.7634 -0.4810 -0.9779
19167SOL     OW61542   3.009   3.260   0.584 -0.1152  0.6137  0.2455
19167SOL    HW161543   2.982   3.217   0.665  0.1263 -1.6368 -0.7853
19167SOL    HW261544   2.952   3.337   0.578 -1.2850 -0.0845  1.7112
19168SOL     OW61545   7.842   7.642   8.691  0.0974 -0.8300  0.2121
19168SOL    HW161546   7.891   7.724   8.696  0.6848 -1.2298  1.1767
19168SOL    HW261547   7.837   7.611   8.781 -1.1042 -1.2966  0.0073
19169SOL     OW61548   9.067   6.660   4.518 -0.2560  0.3192 -0.1798
19169SOL    HW161549   9.040   6.570   4.505 -1.0422  0.5852 -0.4398
19169SOL    HW261550   9.033   6.707   4.441 -0.2372  0.9117  0.1681
19170SOL     OW61551   2.700   4.144   5.470  0.3989  0.0270  0.1524
19170SOL    HW161552   2.738   4.068   5.514  0.5624 -0.1760 -0.3302
19170SOL    HW261553   2.770   4.209   5.469  0.3158  0.1216  0.4075
19171SOL     OW61554   1.419   2.171   8.084 -0.0097 -0.3760 -0.1077
19171SOL    HW161555   1.379   2.110   8.023 -0.1133 -1.3564  0.8958
19171SOL    HW261556   1.372   2.253   8.071 -0.5524 -0.7843 -0.7827
19172SOL     OW61557   7.876   6.968   2.161 -0.4809  0.1429  0.2432
19172SOL    HW161558   7.901   6.877   2.148 -0.6439  0.1591 -0.2090
19172SOL    HW261559   7.923   6.995   2.239  0.5342  0.0288 -0.3137
19173SOL     OW61560   6.856   1.492   3.924  0.4812  0.1918 -0.1271
19173SOL    HW161561   6.831   1.407   3.887 -0.0307 -0.0492  0.7407
19173SOL    HW261562   6.899   1.537   3.852  1.0465 -0.9227 -0.5139
19174SOL     OW61563   1.008   8.613   8.204  0.5630 -0.5871 -0.1468
19174SOL    HW161564   0.984   8.575   8.288  0.6626 -1.2970 -0.4291
19174SOL    HW261565   1.053   8.542   8.158  1.1340  0.0085 -0.5246
19175SOL     OW61566   1.826   5.226   3.397 -0.6117 -0.2689  0.5483
19175SOL    HW161567   1.898   5.286   3.377  0.4970 -0.9664  2.2197
19175SOL    HW261568   1.754   5.283   3.425  0.4891  0.3264  2.3147
19176SOL     OW61569   4.070   8.093   2.223 -0.3666 -0.2699  0.0611
19176SOL    HW161570   4.164   8.081   2.215 -0.2793  0.5503 -0.3128
19176SOL    HW261571   4.034   8.005   2.232  0.5791 -0.4981  1.9497
19177SOL     OW61572   3.525   2.430   5.176  0.7727  0.6078 -0.6609
19177SOL    HW161573   3.480   2.488   5.115  1.6250 -0.4744 -2.4093
19177SOL    HW261574   3.600   2.397   5.126 -0.9689 -3.9715 -0.7978
19178SOL     OW61575   7.412   3.753   3.210 -0.1699  0.7784  0.0166
19178SOL    HW161576   7.422   3.720   3.121  0.8509 -1.9484  1.0087
19178SOL    HW261577   7.398   3.847   3.200 -0.4331  0.5219 -2.9954
19179SOL     OW61578   9.998   8.497   4.041  0.0847 -0.1135 -0.8861
19179SOL    HW161579  10.061   8.442   4.088 -1.2079  0.1402  1.2520
19179SOL    HW261580   9.913   8.456   4.058 -0.8135  2.0195  0.0839
19180SOL     OW61581   6.045   9.143   8.968  0.0189 -0.2450 -0.0297
19180SOL    HW161582   6.011   9.063   9.007 -1.0783  0.0113 -0.4395
19180SOL    HW261583   6.049   9.205   9.041 -0.0932 -0.3703  0.0827
19181SOL     OW61584   7.683   5.288   4.688 -0.2049  0.0329 -0.1886
19181SOL    HW161585   7.765   5.317   4.647  0.3174  0.5745  1.1649
19181SOL    HW261586   7.702   5.290   4.782 -1.3571 -1.1469  0.0947
19182SOL     OW61587   8.636   2.592   8.794 -0.6275  0.1080  0.0628
19182SOL    HW161588   8.596   2.641   8.866 -1.5993 -0.3436 -0.1551
19182SOL    HW261589   8.699   2.653   8.756 -0.2036  0.4080  1.1902
19183SOL     OW61590   9.528   6.109   7.378  0.1745  0.7133 -0.0678
19183SOL    HW161591   9.486   6.192   7.356 -1.8343  0.0532  1.0382
19183SOL    HW261592   9.487   6.045   7.320  0.2958  0.2018  0.4007
19184SOL     OW61593   8.118   1.903   7.785  0.6344  0.0740 -0.5686
19184SOL    HW161594   8.116   1.942   7.872  1.0108 -0.9482 -0.0808
19184SOL    HW261595   8.088   1.972   7.726  0.3281  0.7601  0.3771
19185SOL     OW61596   8.846   5.500   8.847  0.4383  0.1621 -0.0179
19185SOL    HW161597   8.900   5.432   8.887  0.0507 -0.7876 -1.0619
19185SOL    HW261598   8.761   5.458   8.834  0.2298  0.8141 -0.7967
19186SOL     OW61599   6.081   6.234   7.585  0.4575  0.1688 -0.1457
19186SOL    HW161600   6.023   6.262   7.514  1.8832 -2.1240 -2.3943
19186SOL    HW261601   6.169   6.251   7.551  1.1886 -0.1151  1.5199
19187SOL     OW61602   4.216   6.302   2.309  0.3600  0.3866  0.2347
19187SOL    HW161603   4.242   6.296   2.401  1.5191 -0.1871 -0.1197
19187SOL    HW261604   4.298   6.314   2.261 -0.2193  0.5558 -0.7400
19188SOL     OW61605   5.884   1.060   7.748  0.3383  0.2580 -0.1392
19188SOL    HW161606   5.898   1.079   7.841  0.8736  1.9187 -0.5358
19188SOL    HW261607   5.970   1.031   7.717  0.2841  0.2109 -0.2449
19189SOL     OW61608   5.394   2.476  10.193 -0.4670  0.1676 -0.4291
19189SOL    HW161609   5.486   2.489  10.215 -0.6068  1.7047 -0.6473
19189SOL    HW261610   5.377   2.385  10.215  0.8074  0.1641  0.6603
19190SOL     OW61611   6.053   3.265   2.748  0.0067 -0.2048  0.8231
19190SOL    HW161612   6.077   3.357   2.741  0.4663 -0.4424 -1.4879
19190SOL    HW261613   6.122   3.219   2.701 -1.0239 -1.5951  0.6153
19191SOL     OW61614   7.827   5.224   4.109  0.4893 -0.0924  0.2945
19191SOL    HW161615   7.894   5.243   4.175  1.8749 -1.8328 -0.5216
19191SOL    HW261616   7.809   5.131   4.119 -0.6628  0.0199 -0.5685
19192SOL     OW61617   8.502   8.086   5.771 -0.1422 -0.3296 -0.7378
19192SOL    HW161618   8.593   8.087   5.799  0.3285 -2.1027 -2.0396
19192SOL    HW261619   8.491   8.001   5.728 -1.5358  1.1192 -3.4835
19193SOL     OW61620   7.188   0.765   2.205  0.5235  0.0943  0.5594
19193SOL    HW161621   7.211   0.676   2.178 -0.3401  0.5600 -2.0230
19193SOL    HW261622   7.093   0.769   2.193  0.5063  1.2559  0.9598
19194SOL     OW61623   4.224   3.828  10.227 -0.3995 -0.0964 -0.5084
19194SOL    HW161624   4.136   3.792  10.212  0.2864 -1.4404 -1.5364
19194SOL    HW261625   4.225   3.850  10.320 -1.4334 -1.1575 -0.2229
19195SOL     OW61626  10.283   1.951   5.970  0.4065  0.4778  0.6592
19195SOL    HW161627  10.358   2.009   5.954  1.3542 -0.8289  0.1532
19195SOL    HW261628  10.219   1.975   5.904  1.9020 -0.8605 -1.3833
19196SOL     OW61629   0.016   7.892   5.958  0.4548  0.3992 -0.2174
19196SOL    HW161630   0.046   7.952   5.889 -0.8582  0.4885 -0.7321
19196SOL    HW261631  -0.030   7.823   5.911  2.4227 -1.3665  0.3208
19197SOL     OW61632   7.079   1.859   1.323 -0.0760  0.0954 -0.3609
19197SOL    HW161633   7.077   1.765   1.304  0.3722 -0.1174  0.5842
19197SOL    HW261634   7.029   1.868   1.404  1.6589  0.3447  0.7345
19198SOL     OW61635   3.321   4.138   8.616  0.2412 -0.5303 -0.4611
19198SOL    HW161636   3.284   4.056   8.583  0.9139 -0.6042 -1.0241
19198SOL    HW261637   3.414   4.121   8.625  0.5124  0.4187 -1.3270
19199SOL     OW61638   0.631   5.336   7.360  0.2172  0.2450  0.3870
19199SOL    HW161639   0.553   5.390   7.368  0.1129  0.4178 -1.3912
19199SOL    HW261640   0.703   5.398   7.351  0.4705  0.0872  1.3075
19200SOL     OW61641   3.700   0.309   3.195  0.0397  0.5158 -0.2504
19200SOL    HW161642   3.730   0.319   3.104 -0.2073  2.2940 -0.1736
19200SOL    HW261643   3.760   0.244   3.233  0.2208 -0.1699 -1.6434
19201SOL     OW61644  10.184   5.205   1.278  0.0175 -0.0585 -0.2557
19201SOL    HW161645  10.221   5.290   1.298  1.8434 -1.2265  1.6985
19201SOL    HW261646  10.258   5.144   1.281 -1.5853 -2.1125  1.0990
19202SOL     OW61647   2.208   0.602   8.227  0.0983 -0.1603  0.0792
19202SOL    HW161648   2.125   0.630   8.265 -0.7104 -0.8025 -1.1440
19202SOL    HW261649   2.237   0.528   8.281  0.4767  0.7736  1.1948
19203SOL     OW61650   7.583   5.175   5.397  0.0771 -0.3006 -0.1647
19203SOL    HW161651   7.604   5.212   5.482  0.1828  0.7429 -0.6305
19203SOL    HW261652   7.652   5.207   5.339  0.1879 -1.2624 -0.5848
19204SOL     OW61653   3.083   6.504   5.748 -0.0541  0.3564  0.0521
19204SOL    HW161654   3.046   6.589   5.727  0.4356  0.4013 -0.6425
19204SOL    HW261655   3.172   6.523   5.779  0.9099 -0.0363 -2.2678
19205SOL     OW61656   3.771   9.371   6.354 -0.5066  0.3755 -0.1048
19205SOL    HW161657   3.675   9.373   6.350 -0.5140  1.0461  0.2539
19205SOL    HW261658   3.798   9.461   6.335  0.0681  0.1434 -0.4199
19206SOL     OW61659   0.080   5.978   8.312 -0.0634 -0.3337 -0.5962
19206SOL    HW161660   0.152   6.040   8.305 -0.5704  0.2369 -0.8708
19206SOL    HW261661   0.108   5.903   8.259  0.2394 -0.0359 -0.8597
19207SOL     OW61662  10.089   2.905  10.270  0.3234 -0.2530  0.2129
19207SOL    HW161663  10.159   2.965  10.298  0.6908 -1.2131  1.4748
19207SOL    HW261664  10.135   2.824  10.247 -0.2620 -0.4331 -0.3572
19208SOL     OW61665   1.671   4.285   6.131 -0.0981  0.1450 -0.4566
19208SOL    HW161666   1.583   4.249   6.125  0.2066 -0.5699 -0.7611
19208SOL    HW261667   1.721   4.219   6.178  0.0932  0.9110  0.4399
19209SOL     OW61668   4.272   5.687   7.661 -0.2690 -0.0709 -0.2724
19209SOL    HW161669   4.360   5.715   7.688 -0.4505  0.0769  0.1633
19209SOL    HW261670   4.266   5.713   7.569 -0.1651  0.6702 -0.0736
19210SOL     OW61671   9.477   7.968   2.135  0.4493  0.4816 -0.0744
19210SOL    HW161672   9.395   8.010   2.160 -0.5265 -1.2432 -0.2446
19210SOL    HW261673   9.469   7.877   2.164  2.1384  0.1615 -0.4537
19211SOL     OW61674   3.184   0.920   2.139 -0.0762  0.2405  0.8236
19211SOL    HW161675   3.131   0.954   2.067  0.9548  0.1103 -0.0213
19211SOL    HW261676   3.161   0.827   2.144 -0.8789  0.4597  1.3266
19212SOL     OW61677   8.807   1.222   0.714  0.0831  0.0877 -0.1709
19212SOL    HW161678   8.887   1.183   0.750  0.9397  1.2702 -0.7704
19212SOL    HW261679   8.836   1.275   0.640 -1.4076 -0.5051 -1.2386
19213SOL     OW61680   2.271   1.596   2.278 -0.2128 -0.1997 -0.4169
19213SOL    HW161681   2.361   1.576   2.251  0.1005 -1.2292  1.2457
19213SOL    HW261682   2.216   1.557   2.210  0.5565 -1.9683 -0.0760
19214SOL     OW61683   7.884   5.909   2.005 -0.1161  0.1293 -0.8270
19214SOL    HW161684   7.860   5.848   2.074  0.3307  1.5701  0.6621
19214SOL    HW261685   7.801   5.933   1.964 -0.6124  0.6112  0.4120
19215SOL     OW61686   9.510   6.754   2.989  0.3332  0.3402  0.0734
19215SOL    HW161687   9.518   6.730   2.897 -0.7809 -0.8687  0.2688
19215SOL    HW261688   9.444   6.824   2.990 -0.3032 -0.2471  0.0239
19216SOL     OW61689   9.599   7.848   7.274  0.1367  0.7842  0.0781
19216SOL    HW161690   9.535   7.897   7.223  1.0976  0.8286 -1.1316
19216SOL    HW261691   9.682   7.893   7.258  0.6386  0.1736  0.8678
19217SOL     OW61692   4.868   2.168   3.461 -0.3024 -0.6928  0.0731
19217SOL    HW161693   4.900   2.232   3.397 -0.5280 -1.0652 -0.4190
19217SOL    HW261694   4.864   2.216   3.543 -1.7744  0.3103 -0.5562
19218SOL     OW61695   7.116   1.501   0.949  0.0982 -0.5330 -0.3015
19218SOL    HW161696   7.115   1.499   1.045 -0.4693  0.2188 -0.2846
19218SOL    HW261697   7.075   1.584   0.926  1.4631 -0.0526 -1.1755
19219SOL     OW61698   4.326   2.971  10.223  0.7536 -0.4868  0.5544
19219SOL    HW161699   4.256   2.915  10.253 -1.2022  0.6990 -1.4673
19219SOL    HW261700   4.322   3.048  10.280  0.3324 -0.3977  0.4100
19220SOL     OW61701   8.091   2.459   3.685 -0.7868  0.0459 -0.2060
19220SOL    HW161702   8.176   2.502   3.685 -1.9256  2.4380  0.1277
19220SOL    HW261703   8.099   2.391   3.618  2.1037 -1.4513  1.4799
19221SOL     OW61704   0.509   1.202  10.004  0.2566 -0.2350 -0.3360
19221SOL    HW161705   0.445   1.207  10.076  2.1191 -0.6381  1.4353
19221SOL    HW261706   0.515   1.108   9.984  0.1590 -0.1800 -0.6213
19222SOL     OW61707   8.643   9.705   2.230  0.2141 -0.2280  0.7684
19222SOL    HW161708   8.585   9.734   2.161  1.4281  0.7210  0.1097
19222SOL    HW261709   8.598   9.631   2.270 -0.6296 -0.6299 -0.8577
19223SOL     OW61710   8.954   9.954   3.042 -0.3067 -0.0581 -0.8384
19223SOL    HW161711   8.959  10.046   3.066 -0.5993 -0.2880  0.1440
19223SOL    HW261712   9.029   9.913   3.086 -0.4093 -0.3588 -0.9379
19224SOL     OW61713   5.023   4.808   3.553 -0.2830 -0.1454  0.1165
19224SOL    HW161714   5.039   4.821   3.460 -1.9836  2.7737  0.1171
19224SOL    HW261715   5.095   4.854   3.597 -1.1008  1.1271  0.1754
19225SOL     OW61716   8.024   6.036   7.149 -0.1462 -0.2464 -0.1133
19225SOL    HW161717   8.101   6.091   7.165  0.7901 -0.8844 -2.2131
19225SOL    HW261718   7.980   6.077   7.074 -2.0551  0.2549  1.1932
19226SOL     OW61719   9.601   1.708   5.439  0.5257 -0.1368  0.3759
19226SOL    HW161720   9.689   1.743   5.453  0.4812 -0.7009  2.3909
19226SOL    HW261721   9.595   1.696   5.344  2.6087 -0.0859  0.1846
19227SOL     OW61722   9.219   7.782   1.210  0.3222  0.1173 -0.2491
19227SOL    HW161723   9.303   7.795   1.166  0.6583 -0.1696  0.2951
19227SOL    HW261724   9.184   7.702   1.171 -0.1601  0.7692 -1.1733
19228SOL     OW61725   7.922   5.934   9.704  0.2595 -0.3692  0.1058
19228SOL    HW161726   8.016   5.932   9.690  0.7034 -0.1047  2.5179
19228SOL    HW261727   7.895   6.023   9.680  0.7357 -0.2506  0.0082
19229SOL     OW61728   3.109   9.516   1.805  0.1358  0.2951 -0.0491
19229SOL    HW161729   3.086   9.597   1.760  0.0300 -0.2233 -0.9587
19229SOL    HW261730   3.092   9.534   1.897 -0.4995  1.0902 -0.3072
19230SOL     OW61731   9.602   2.453   8.563 -0.1342 -0.5122  0.6167
19230SOL    HW161732   9.637   2.500   8.487 -0.5402 -0.3731  0.5146
19230SOL    HW261733   9.544   2.516   8.605 -1.6297 -1.2980 -0.1913
19231SOL     OW61734   1.656   4.047   5.173  0.2275  0.1895 -0.4783
19231SOL    HW161735   1.601   4.050   5.251 -0.3777 -0.0639 -0.8894
19231SOL    HW261736   1.699   4.132   5.171  0.7289 -0.0248  0.4689
19232SOL     OW61737   5.395   7.627   3.013 -0.3325 -0.1941 -0.3132
19232SOL    HW161738   5.391   7.712   3.056 -1.8724 -0.7694  0.7716
19232SOL    HW261739   5.474   7.586   3.048 -0.2662  0.2961  0.1119
19233SOL     OW61740   4.635   1.399   0.168 -0.4529  0.3170 -0.0493
19233SOL    HW161741   4.696   1.422   0.098  0.7553  1.0832  1.1911
19233SOL    HW261742   4.612   1.483   0.209 -0.5241 -0.1570  0.9292
19234SOL     OW61743   9.701   7.270   3.106  0.4260  0.1033 -0.0549
19234SOL    HW161744   9.671   7.228   3.025  0.9901  1.0031 -0.7511
19234SOL    HW261745   9.675   7.361   3.097  2.4684  0.7219 -0.2760
19235SOL     OW61746   0.890   8.910   0.996  0.9124 -0.2236  0.3347
19235SOL    HW161747   0.947   8.954   0.933  0.5784  0.3537  0.4321
19235SOL    HW261748   0.946   8.892   1.071  1.1632 -0.3683  0.1126
19236SOL     OW61749  10.191   3.344   0.389  0.3763  0.1482 -0.5402
19236SOL    HW161750  10.201   3.249   0.385 -0.7107  0.0569 -2.1682
19236SOL    HW261751  10.187   3.372   0.297 -1.2829  1.5143 -0.1194
19237SOL     OW61752   0.130   4.580   7.918  0.1699 -0.2644 -0.1754
19237SOL    HW161753   0.170   4.530   7.990 -0.1279  0.2531  0.3623
19237SOL    HW261754   0.171   4.667   7.925  1.7451 -0.7993 -1.9755
19238SOL     OW61755   6.977   4.075   3.054 -0.4831 -0.0470  0.2166
19238SOL    HW161756   6.913   4.004   3.050 -0.1994 -0.2486 -0.8405
19238SOL    HW261757   7.051   4.044   3.002  0.0331  0.6400  0.5236
19239SOL     OW61758   2.178   5.223   6.036 -0.0964  0.1453  0.6620
19239SOL    HW161759   2.182   5.309   5.993 -0.9317 -0.0980  0.0684
19239SOL    HW261760   2.266   5.187   6.023  0.8916  1.6634  2.5940
19240SOL     OW61761   8.627   4.165   3.850 -0.6016 -0.0390 -0.2806
19240SOL    HW161762   8.602   4.225   3.920 -0.0650  1.3840 -1.2705
19240SOL    HW261763   8.686   4.102   3.892 -3.7064 -2.0307  1.5591
19241SOL     OW61764   3.409   6.432   0.527 -0.3156 -0.1757  0.2749
19241SOL    HW161765   3.367   6.493   0.466 -1.1010 -0.0756  0.8865
19241SOL    HW261766   3.501   6.431   0.502 -0.7319 -0.6754 -1.3575
19242SOL     OW61767   3.154   2.281   1.569  0.4723  0.1815 -0.1441
19242SOL    HW161768   3.216   2.208   1.571 -0.4800 -0.7830 -2.1325
19242SOL    HW261769   3.128   2.287   1.477 -1.8149  0.9894  0.4794
19243SOL     OW61770   4.244   5.427   7.558  0.0967 -0.1667 -0.8654
19243SOL    HW161771   4.214   5.515   7.579  0.3267 -0.2182 -0.3121
19243SOL    HW261772   4.171   5.369   7.579  0.8426 -0.3961  1.3651
19244SOL     OW61773   5.395   6.062   7.803  0.6736 -0.0451  0.2322
19244SOL    HW161774   5.334   6.136   7.797 -0.9205 -1.3784 -0.6882
19244SOL    HW261775   5.473   6.099   7.845  0.0300  2.2080 -0.4282
19245SOL     OW61776   7.222   4.319   5.194  0.7777 -0.2162  0.0284
19245SOL    HW161777   7.291   4.267   5.233 -0.3378 -1.0683  0.9388
19245SOL    HW261778   7.170   4.257   5.142  1.5296  0.6802 -1.8946
19246SOL     OW61779   4.573   2.178  10.051  0.1859  0.2217  0.3809
19246SOL    HW161780   4.541   2.089  10.067  1.5962 -0.3511  0.1215
19246SOL    HW261781   4.546   2.198   9.961  2.7052 -1.2806 -0.8120
19247SOL     OW61782   2.710   1.954   3.336 -0.6547  0.2116 -0.4664
19247SOL    HW161783   2.702   1.867   3.374 -0.8685 -1.2295 -3.4820
19247SOL    HW261784   2.783   1.994   3.382  0.9063 -2.4379 -0.4302
19248SOL     OW61785   5.221   6.729   1.864  0.4993 -0.0370 -1.0979
19248SOL    HW161786   5.243   6.742   1.771  0.0935  1.7033 -0.9995
19248SOL    HW261787   5.147   6.788   1.879  1.1085  0.3608  0.5329
19249SOL     OW61788   5.144   2.685   0.255  0.4501  0.0707  1.0427
19249SOL    HW161789   5.119   2.602   0.296  2.3131 -0.2543  1.6168
19249SOL    HW261790   5.236   2.673   0.231  0.4066  1.5494  0.0043
19250SOL     OW61791   8.293   3.627   8.011 -0.0074  0.1139  0.1414
19250SOL    HW161792   8.234   3.675   8.069 -0.2449  0.1996 -0.1672
19250SOL    HW261793   8.333   3.695   7.957 -0.8946 -0.0812 -0.7992
19251SOL     OW61794   8.662   6.183   4.261  0.2354  0.0183  0.0485
19251SOL    HW161795   8.589   6.131   4.226 -0.0236  1.3281 -1.4712
19251SOL    HW261796   8.740   6.143   4.223 -0.0082  1.0816 -1.6820
19252SOL     OW61797   8.852   5.731   8.711 -0.3145  0.0174 -0.2517
19252SOL    HW161798   8.861   5.650   8.761  3.1145  0.4660  0.0755
19252SOL    HW261799   8.793   5.785   8.764  0.1969 -0.9356  1.3702
19253SOL     OW61800   0.208   5.826   1.613 -0.0846 -0.3202 -0.4734
19253SOL    HW161801   0.139   5.867   1.562  0.5414 -0.1659 -1.2133
19253SOL    HW261802   0.273   5.798   1.548  1.2980  0.9535  0.3077
19254SOL     OW61803   6.452   8.607   7.806  0.3813 -0.2768  0.1004
19254SOL    HW161804   6.481   8.698   7.814  1.5976 -0.5330 -0.9560
19254SOL    HW261805   6.390   8.595   7.877 -0.1402  1.5043 -0.0114
19255SOL     OW61806   8.474   2.033   7.846  0.0636 -0.2583 -0.1933
19255SOL    HW161807   8.446   1.955   7.798  1.4884 -0.5338 -0.5970
19255SOL    HW261808   8.482   2.004   7.937  2.6370 -1.1827 -0.6488
19256SOL     OW61809   3.003   6.770   4.393  0.5191  0.1957  0.0411
19256SOL    HW161810   2.996   6.862   4.420  1.2256  0.2540  0.0386
19256SOL    HW261811   2.974   6.720   4.468  0.9855  0.4028  0.3645
19257SOL     OW61812   8.836   6.189   1.191 -0.2290  0.4295 -0.2847
19257SOL    HW161813   8.752   6.174   1.233 -0.2310 -0.1342 -0.4874
19257SOL    HW261814   8.891   6.116   1.219 -0.4463 -0.3541 -1.8132
19258SOL     OW61815  10.259   3.095   0.352  0.0406  0.4477  0.2773
19258SOL    HW161816  10.261   3.012   0.399  0.1443  1.7849  2.8138
19258SOL    HW261817  10.351   3.113   0.332  0.3555  1.1653  2.1452
19259SOL     OW61818   0.285   2.024   4.110 -0.2840 -0.0383  1.0591
19259SOL    HW161819   0.373   2.051   4.138 -0.2030  1.2115 -0.3115
19259SOL    HW261820   0.295   2.002   4.018 -1.0887 -1.5251  1.3087
19260SOL     OW61821   0.979   7.633   3.919  0.7905  0.1746  0.4324
19260SOL    HW161822   0.946   7.687   3.990 -0.3415  0.4284 -0.2730
19260SOL    HW261823   0.963   7.543   3.948  0.0814  0.2832  0.3957
19261SOL     OW61824   8.983   7.393   0.124 -0.1309 -0.1060 -0.5879
19261SOL    HW161825   8.974   7.302   0.151  0.6286  0.1708  0.6705
19261SOL    HW261826   8.894   7.423   0.109 -0.4631 -0.7271  0.0906
19262SOL     OW61827   6.997   6.778   4.129  0.1380 -0.1784 -0.2025
19262SOL    HW161828   6.908   6.784   4.096 -0.2021 -0.4401  0.6567
19262SOL    HW261829   7.004   6.688   4.163  0.4680  0.0933  0.4605
19263SOL     OW61830   7.552   0.624   3.285  0.3409 -0.3299  0.3304
19263SOL    HW161831   7.541   0.692   3.352  0.7848 -0.0231  0.0950
19263SOL    HW261832   7.557   0.542   3.334 -0.1032 -0.1847  0.6225
19264SOL     OW61833   5.537   2.110   5.794  0.4687 -0.7249 -0.3768
19264SOL    HW161834   5.452   2.089   5.756  1.1349 -1.7048 -1.4015
19264SOL    HW261835   5.569   2.026   5.829 -0.3929  0.2108  3.0811
19265SOL     OW61836   9.869   2.989   1.162 -0.3595 -0.1583 -0.1548
19265SOL    HW161837   9.936   2.929   1.129 -0.1840 -0.8941  1.4558
19265SOL    HW261838   9.916   3.070   1.183 -0.2297 -0.1910 -0.3174
19266SOL     OW61839   6.242   8.868   9.929 -0.0291 -0.8470 -0.5708
19266SOL    HW161840   6.213   8.939   9.872 -1.0106 -1.3870 -0.7681
19266SOL    HW261841   6.323   8.836   9.888  2.7589  2.6437  1.6171
19267SOL     OW61842   7.458   7.568   4.976 -0.4648  0.0605  0.7182
19267SOL    HW161843   7.535   7.540   5.026  1.9429  1.8627 -1.6778
19267SOL    HW261844   7.434   7.652   5.015  0.9405  1.1005 -0.5541
19268SOL     OW61845   2.867   9.713   5.734  0.1600  0.3167  0.1515
19268SOL    HW161846   2.942   9.721   5.675 -0.5308  1.1914 -0.6563
19268SOL    HW261847   2.802   9.774   5.698 -1.4757 -1.4082 -0.0005
19269SOL     OW61848   9.710   3.725   5.681 -0.0586 -0.0641 -0.9624
19269SOL    HW161849   9.716   3.803   5.735  0.5765 -0.6152 -0.2090
19269SOL    HW261850   9.726   3.652   5.741  1.0488 -0.6750 -1.9422
19270SOL     OW61851   1.991   7.941   0.377 -0.1160 -0.4667  0.2180
19270SOL    HW161852   1.960   7.851   0.383 -0.7993 -0.2621 -0.1588
19270SOL    HW261853   2.066   7.944   0.437 -0.1410 -1.2563  0.3050
19271SOL     OW61854   9.119  10.166   5.998 -0.3966 -0.4466  0.2642
19271SOL    HW161855   9.161  10.250   5.981 -1.0486 -0.4130 -1.4890
19271SOL    HW261856   9.180  10.118   6.053  1.2607  0.1390 -0.9938
19272SOL     OW61857   0.118   2.282   0.208  0.3209 -0.0791 -0.3156
19272SOL    HW161858   0.168   2.282   0.127 -0.2042 -1.9454 -0.6764
19272SOL    HW261859   0.183   2.265   0.276  0.4854 -0.3227 -0.5356
19273SOL     OW61860   4.500   4.203   2.975  0.0285 -0.1095  0.7764
19273SOL    HW161861   4.464   4.115   2.993 -1.4350  0.5571  1.2855
19273SOL    HW261862   4.423   4.259   2.972  0.8374  0.9764 -0.7760
19274SOL     OW61863   0.261   0.715   6.643  0.0878 -1.0245  0.5678
19274SOL    HW161864   0.334   0.755   6.595 -0.5080  0.0653  0.5391
19274SOL    HW261865   0.232   0.643   6.587  1.2896 -1.6371  0.6986
19275SOL     OW61866   2.797   5.967   7.340  0.1560  0.2013  0.3907
19275SOL    HW161867   2.828   6.057   7.337 -0.6132  0.4697  0.3207
19275SOL    HW261868   2.741   5.963   7.418  0.4574 -0.3080  0.5890
19276SOL     OW61869   5.124   9.611   7.658 -0.6837 -0.0526 -0.2842
19276SOL    HW161870   5.140   9.674   7.587  1.3121  0.7073  0.7591
19276SOL    HW261871   5.097   9.531   7.613 -2.0654  1.1569 -1.7231
19277SOL     OW61872   1.454   0.259   5.824 -0.0626  0.0074  0.6204
19277SOL    HW161873   1.483   0.293   5.739 -2.5669 -0.2538 -0.4265
19277SOL    HW261874   1.525   0.282   5.884  1.8899  0.0400 -1.5428
19278SOL     OW61875   7.037   2.051   6.189  0.0937 -0.1700  0.4324
19278SOL    HW161876   6.971   2.116   6.213 -1.8148 -1.5142 -0.9365
19278SOL    HW261877   7.054   2.068   6.096  0.4588 -0.8724  0.3666
19279SOL     OW61878   1.479  10.110   4.696  0.4236 -0.4100  0.1932
19279SOL    HW161879   1.529  10.039   4.655  0.4445  0.5595 -1.5593
19279SOL    HW261880   1.496  10.186   4.641 -0.5103  0.6967  1.3751
19280SOL     OW61881   0.586   0.442   4.619 -0.2219  0.3733  0.2964
19280SOL    HW161882   0.607   0.457   4.711 -1.9455 -1.1925  1.0278
19280SOL    HW261883   0.556   0.527   4.587 -0.8307  0.6612  1.5577
19281SOL     OW61884   6.009  10.205   6.423  0.8194  0.0389 -0.0296
19281SOL    HW161885   6.061  10.261   6.364  0.4123  0.0278 -0.4050
19281SOL    HW261886   5.999  10.123   6.375 -0.6244  0.4690 -0.5256
19282SOL     OW61887   6.262   8.913   2.261 -0.4338  0.0247 -0.2090
19282SOL    HW161888   6.237   8.966   2.185 -1.4084 -1.4853 -0.9920
19282SOL    HW261889   6.261   8.823   2.229 -0.0023 -0.5785  1.3816
19283SOL     OW61890   7.552   5.948   8.591 -0.0967 -0.2269  0.2263
19283SOL    HW161891   7.607   5.967   8.667 -1.3442 -0.2114  1.1425
19283SOL    HW261892   7.546   6.031   8.544  1.6806 -0.5136 -0.6019
19284SOL     OW61893   1.612   7.048   8.383  0.1355 -0.8497 -0.3110
19284SOL    HW161894   1.544   7.037   8.317  0.9424  2.3979 -1.8854
19284SOL    HW261895   1.694   7.045   8.334  0.9036 -0.5674  0.8992
19285SOL     OW61896   4.984   3.195   1.897  0.1366 -0.5350  0.4178
19285SOL    HW161897   4.993   3.285   1.928  0.9187 -0.2968 -0.4729
19285SOL    HW261898   4.968   3.144   1.977  1.0513  0.2006  1.0960
19286SOL     OW61899   2.718   4.228   0.105  0.1542 -0.4400 -0.7094
19286SOL    HW161900   2.800   4.278   0.103 -1.0215  1.6510  0.3639
19286SOL    HW261901   2.669   4.260   0.029  0.1341 -1.3399 -1.0784
19287SOL     OW61902   0.329   5.055   5.402 -0.3606  0.2352  0.4376
19287SOL    HW161903   0.287   5.123   5.454 -0.8444  0.2312  0.0663
19287SOL    HW261904   0.308   5.078   5.311 -2.6407 -1.7123  0.3682
19288SOL     OW61905   4.423   1.498   7.342  0.1341  0.3424 -0.3611
19288SOL    HW161906   4.373   1.433   7.292 -0.3611 -1.3448  2.1464
19288SOL    HW261907   4.357   1.545   7.392  0.7068  1.0873 -0.2964
19289SOL     OW61908   2.185   6.396   5.740 -0.2512  0.4808 -0.2462
19289SOL    HW161909   2.252   6.328   5.742 -1.0022 -0.3001 -0.6988
19289SOL    HW261910   2.191   6.432   5.651 -2.3153 -1.6135 -1.3696
19290SOL     OW61911   3.245   1.304   4.959 -0.2054  0.7729 -0.0717
19290SOL    HW161912   3.327   1.259   4.980  0.7184  1.9049 -1.1248
19290SOL    HW261913   3.251   1.388   5.005 -1.8836 -0.0740  1.8237
19291SOL     OW61914   0.007   5.620   3.161  0.4969  0.3577  0.0236
19291SOL    HW161915   0.074   5.656   3.102  3.0136 -2.7868  0.6637
19291SOL    HW261916   0.047   5.624   3.248  0.6068 -2.9066  0.2389
19292SOL     OW61917   2.083   4.897   9.538  0.3039 -0.2398 -0.5227
19292SOL    HW161918   2.035   4.926   9.615 -0.5694  0.0609 -1.1599
19292SOL    HW261919   2.135   4.822   9.568  1.9245  1.3691  0.9578
19293SOL     OW61920   7.234   6.498   0.294  0.1181 -0.2689  0.7784
19293SOL    HW161921   7.327   6.489   0.273 -0.0582 -1.1676  0.3335
19293SOL    HW261922   7.233   6.531   0.384  0.8676  0.0477  0.6788
19294SOL     OW61923   6.835   3.160   9.681  0.1580 -0.1106  0.2350
19294SOL    HW161924   6.741   3.176   9.671  0.0712 -0.1218  0.9934
19294SOL    HW261925   6.862   3.215   9.754  0.5203 -0.9186  0.7268
19295SOL     OW61926   0.077   7.215   6.947 -0.1961 -0.0133  0.0937
19295SOL    HW161927   0.156   7.268   6.935 -0.1304 -0.2362 -0.4677
19295SOL    HW261928   0.042   7.204   6.859 -0.4702 -0.5041  0.2623
19296SOL     OW61929   8.045  10.106   9.534  0.1764  0.7174  0.2113
19296SOL    HW161930   7.960  10.063   9.533  2.2553 -3.9899 -0.7664
19296SOL    HW261931   8.039  10.172   9.465 -1.9991 -1.1323 -1.5272
19297SOL     OW61932   8.771   5.811   0.953 -0.0483  0.7265 -0.4741
19297SOL    HW161933   8.755   5.745   1.021 -1.2982  1.8878  0.4211
19297SOL    HW261934   8.866   5.817   0.948  0.0906  0.8725  1.4679
19298SOL     OW61935   3.855   3.121   4.104  0.0354 -0.1221  0.2020
19298SOL    HW161936   3.806   3.080   4.175  0.8542  0.6249  1.2240
19298SOL    HW261937   3.788   3.169   4.054 -0.4808 -0.3152  0.6990
19299SOL     OW61938   0.400   0.094   4.271 -0.1301 -0.2714  0.5579
19299SOL    HW161939   0.446   0.130   4.346  0.9304 -1.8142  0.7068
19299SOL    HW261940   0.366   0.010   4.303 -1.0059 -0.2298 -0.2422
19300SOL     OW61941   2.669   9.669   9.382  0.2172 -0.0742  0.5879
19300SOL    HW161942   2.602   9.604   9.360  1.7030 -1.9475  1.3254
19300SOL    HW261943   2.634   9.714   9.459 -1.4904  1.1212 -0.7871
19301SOL     OW61944   1.232   3.883   8.874 -0.1525  0.3698  0.4197
19301SOL    HW161945   1.244   3.817   8.943 -0.1184 -0.7010 -0.5672
19301SOL    HW261946   1.321   3.905   8.846 -0.1943 -0.3994 -0.3578
19302SOL     OW61947   7.173   4.662   0.099 -0.0299  0.6708 -0.0201
19302SOL    HW161948   7.254   4.709   0.082 -0.1040  0.5681 -0.6783
19302SOL    HW261949   7.104   4.721   0.068 -0.1908  0.6385  0.2714
19303SOL     OW61950   3.301   3.539   2.371  0.2557 -0.5719 -0.3966
19303SOL    HW161951   3.377   3.596   2.378  0.8419 -1.4184  0.5308
19303SOL    HW261952   3.271   3.527   2.462 -0.2727 -1.1629 -0.6370
19304SOL     OW61953   6.905   2.861   0.272  0.0950  0.1760 -0.0051
19304SOL    HW161954   6.930   2.870   0.180  0.7593  1.4279  0.2633
19304SOL    HW261955   6.864   2.775   0.278  0.0004  0.0908 -1.4760
19305SOL     OW61956   4.734   3.569   1.971 -0.7407 -0.1258  0.4957
19305SOL    HW161957   4.702   3.625   1.899  2.0655  1.8845  0.6256
19305SOL    HW261958   4.741   3.629   2.046 -1.6305 -1.7015  1.8906
19306SOL     OW61959   2.293   2.577   0.582 -0.1345  0.3007 -0.0580
19306SOL    HW161960   2.379   2.560   0.542 -0.3186 -0.6850 -0.0522
19306SOL    HW261961   2.244   2.623   0.513  0.7193  1.8012  0.2937
19307SOL     OW61962   5.446   3.816   4.131 -0.1529 -1.2328 -0.1966
19307SOL    HW161963   5.482   3.770   4.207  1.3474  0.8881  0.4679
19307SOL    HW261964   5.487   3.774   4.055  2.7022  0.1229  0.4760
19308SOL     OW61965   8.786   7.985   0.407  0.1533 -0.3570  0.1619
19308SOL    HW161966   8.725   7.916   0.384 -0.4071 -0.1593  1.0380
19308SOL    HW261967   8.864   7.966   0.354 -0.4082 -0.9900 -0.4611
19309SOL     OW61968   2.327   3.514   7.892  0.0047  0.0457  0.2947
19309SOL    HW161969   2.268   3.461   7.839 -1.1949  1.2269  0.4076
19309SOL    HW261970   2.358   3.582   7.832 -0.1148  0.4524  0.6947
19310SOL     OW61971   2.030  10.077   7.597 -0.2686  0.4195  0.2771
19310SOL    HW161972   2.009  10.003   7.541 -0.4421  0.2362  0.5863
19310SOL    HW261973   1.965  10.075   7.667  0.5433  0.0559  1.0390
19311SOL     OW61974   9.820   7.800   1.884  0.2727 -0.2900  0.3864
19311SOL    HW161975   9.876   7.822   1.809  0.4326  1.4804  0.9767
19311SOL    HW261976   9.881   7.785   1.956  0.0471  1.7774  1.0672
19312SOL     OW61977   6.221   4.039   6.958 -0.2167 -0.1766  0.1863
19312SOL    HW161978   6.309   4.006   6.978 -0.3166 -0.4368  0.2042
19312SOL    HW261979   6.199   3.999   6.874 -1.5069 -2.5559  1.5415
19313SOL     OW61980   1.384   8.299   8.813 -0.1776  0.5044 -0.2531
19313SOL    HW161981   1.374   8.374   8.755 -1.0013  0.6008  0.0005
19313SOL    HW261982   1.310   8.306   8.874  1.3323  1.1007  1.5951
19314SOL     OW61983   8.884   6.518   8.760 -0.0649  0.4716  0.3014
19314SOL    HW161984   8.823   6.523   8.687 -0.2297 -0.3373  0.3682
19314SOL    HW261985   8.948   6.588   8.744 -0.4111  0.6503 -0.3203
19315SOL     OW61986   4.001  10.124   2.749 -0.3833 -0.0609  0.0922
19315SOL    HW161987   4.071  10.058   2.746  0.1490  0.4552  0.8536
19315SOL    HW261988   3.923  10.075   2.773 -0.1752 -0.5538 -0.2101
19316SOL     OW61989   9.558   0.559   8.932  0.2764 -0.3783 -0.3297
19316SOL    HW161990   9.507   0.635   8.906 -1.6212 -1.4592  0.0750
19316SOL    HW261991   9.591   0.523   8.850  1.0131  0.7205 -0.5425
19317SOL     OW61992   8.175   0.649   3.208 -0.0123 -0.3324  0.1780
19317SOL    HW161993   8.144   0.733   3.175  1.4414  0.4298  0.6902
19317SOL    HW261994   8.099   0.612   3.253 -0.3210  1.3314  1.1242
19318SOL     OW61995   4.831   8.419   3.933  0.1184  0.3753 -0.1809
19318SOL    HW161996   4.926   8.412   3.936 -0.0255 -2.5412  2.5833
19318SOL    HW261997   4.802   8.344   3.882 -0.7417 -0.0116  0.8336
19319SOL     OW61998   7.917   6.498   8.884 -0.2163  0.4976 -0.4666
19319SOL    HW161999   7.864   6.511   8.806 -0.5377 -1.7041 -0.6918
19319SOL    HW262000   7.872   6.429   8.933  1.7789 -0.6555 -0.1109
19320SOL     OW62001   0.394   0.189   1.902 -0.2685  0.3819  0.5035
19320SOL    HW162002   0.413   0.246   1.827  0.1263 -0.1455  0.1884
19320SOL    HW262003   0.310   0.149   1.881 -1.0452  1.6037  1.2038
19321SOL     OW62004   8.342   8.020   3.059  0.6445  0.1251 -0.1251
19321SOL    HW162005   8.383   8.101   3.090 -0.8728  0.5934  0.8051
19321SOL    HW262006   8.415   7.959   3.047  1.6146  0.8787  1.5250
19322SOL     OW62007   8.038   2.730   8.581 -0.3505 -0.9412 -0.0732
19322SOL    HW162008   8.095   2.726   8.658  2.8656 -2.0264 -2.3094
19322SOL    HW262009   8.074   2.801   8.528 -3.1591  0.5094 -0.2103
19323SOL     OW62010   5.426   3.990   9.330  0.4281  0.0995  0.4226
19323SOL    HW162011   5.352   3.943   9.368 -0.6144  1.0383 -0.4210
19323SOL    HW262012   5.418   4.079   9.363 -0.7657  1.0706 -2.2806
19324SOL     OW62013   8.626   0.079   2.443 -0.0418 -0.4739 -0.4716
19324SOL    HW162014   8.697   0.125   2.488 -1.4249  0.6514  0.6482
19324SOL    HW262015   8.667   0.043   2.364  1.2183  2.3672 -1.2391
19325SOL     OW62016   0.971   9.223   1.872  0.1688 -0.1061  0.7260
19325SOL    HW162017   0.987   9.131   1.891 -3.8111 -0.7535  1.7215
19325SOL    HW262018   1.003   9.269   1.950  1.3325 -0.6845  0.6194
19326SOL     OW62019   3.443   0.185   0.508 -0.0981 -0.0022  0.4947
19326SOL    HW162020   3.526   0.227   0.533 -0.4160  0.5462  0.6481
19326SOL    HW262021   3.391   0.255   0.471  0.2372 -0.7480 -1.4753
19327SOL     OW62022   6.266   4.155   4.329  0.4852 -0.1001  0.2189
19327SOL    HW162023   6.177   4.135   4.358  1.1500 -0.9127  1.8333
19327SOL    HW262024   6.320   4.146   4.408  2.1040 -0.2911 -0.8545
19328SOL     OW62025   4.493   5.309   8.003 -0.0856 -0.1923  0.7109
19328SOL    HW162026   4.466   5.258   8.079 -2.0844 -1.9475 -1.0298
19328SOL    HW262027   4.414   5.358   7.979  0.2255 -0.3511 -0.7182
19329SOL     OW62028   5.703   0.916   4.046  0.8983 -0.6735 -0.4727
19329SOL    HW162029   5.619   0.907   4.002 -0.0263  1.3974  0.7487
19329SOL    HW262030   5.698   0.857   4.121 -0.8530  1.7279  1.4480
19330SOL     OW62031   6.916   2.182   4.902  0.3311 -0.3384  0.5975
19330SOL    HW162032   6.906   2.197   4.808  1.6254 -0.6705  0.3969
19330SOL    HW262033   6.888   2.091   4.915 -0.9851  0.0653  0.7421
19331SOL     OW62034   0.263   2.220   0.411 -0.2296  0.0403 -0.2594
19331SOL    HW162035   0.219   2.186   0.489 -0.1079  0.5147  0.0188
19331SOL    HW262036   0.345   2.256   0.443  0.3337 -0.7595 -0.7693
19332SOL     OW62037   4.267   9.250   1.556 -0.1231  0.0166 -0.0583
19332SOL    HW162038   4.361   9.266   1.560 -0.2341  0.6340  0.2963
19332SOL    HW262039   4.231   9.329   1.516 -0.5627  0.1070  0.5022
19333SOL     OW62040   8.782   5.341  10.105  0.0522 -0.4207  0.3926
19333SOL    HW162041   8.863   5.293  10.123  0.5917 -0.2052 -1.3084
19333SOL    HW262042   8.729   5.281  10.053 -1.3885 -0.9532  2.3411
19334SOL     OW62043   7.743   2.906   6.999 -0.2893  0.7196  0.0956
19334SOL    HW162044   7.663   2.959   7.003  0.1726  1.3319  2.4853
19334SOL    HW262045   7.722   2.826   7.047  0.0905  0.2101 -0.5639
19335SOL     OW62046   7.629   2.616   6.174  0.0002  0.0899 -0.7286
19335SOL    HW162047   7.663   2.619   6.263  2.5033 -1.8996 -1.4900
19335SOL    HW262048   7.617   2.708   6.150  1.5337  0.7656  0.8719
19336SOL     OW62049   5.096   2.600   4.175  0.4869 -0.0039 -0.3217
19336SOL    HW162050   5.107   2.661   4.247  0.8946  0.5761 -0.8588
19336SOL    HW262051   5.093   2.655   4.097 -1.2603 -0.5238 -0.6560
19337SOL     OW62052   8.461   7.239   8.999 -0.1182  0.3848 -0.0287
19337SOL    HW162053   8.501   7.315   8.956 -0.5086  0.4888 -0.2154
19337SOL    HW262054   8.508   7.164   8.962  0.6371  0.5571  0.5594
19338SOL     OW62055   9.111   2.043   6.540  0.5130 -0.5457  0.1383
19338SOL    HW162056   9.074   2.087   6.616 -1.5842 -1.5847 -0.2104
19338SOL    HW262057   9.154   2.112   6.491 -1.4275  0.8873  0.3382
19339SOL     OW62058   5.687   6.271   0.580  0.0950 -0.0881 -0.5229
19339SOL    HW162059   5.765   6.216   0.569  1.7356  1.9169  0.4054
19339SOL    HW262060   5.653   6.249   0.666 -0.7736 -1.3768 -1.1564
19340SOL     OW62061   4.618   7.905   2.595  0.7167 -0.1983  0.1389
19340SOL    HW162062   4.592   7.996   2.606 -1.5588 -0.9237  1.4562
19340SOL    HW262063   4.696   7.895   2.650  2.4498  1.4373 -1.8496
19341SOL     OW62064   6.998  10.129   1.569  0.0423 -0.7626 -0.3949
19341SOL    HW162065   6.921  10.092   1.526  0.5116  1.7246 -3.8206
19341SOL    HW262066   6.978  10.222   1.578  1.8879 -0.4050  0.5143
19342SOL     OW62067   9.521   6.863   5.344 -0.0948  0.1993  0.2818
19342SOL    HW162068   9.567   6.780   5.360  0.2148  0.2663 -0.2292
19342SOL    HW262069   9.581   6.930   5.376 -0.3817  0.2232  0.7725
19343SOL     OW62070   4.804   1.204   9.413  0.5873 -0.3287 -0.1134
19343SOL    HW162071   4.781   1.279   9.357  1.2274  1.6473  2.0715
19343SOL    HW262072   4.722   1.182   9.457  0.3177 -1.1804 -1.0261
19344SOL     OW62073   7.743   0.745   2.099 -0.5077  0.2160 -0.1050
19344SOL    HW162074   7.739   0.817   2.037  0.4160 -0.0260 -0.4643
19344SOL    HW262075   7.836   0.723   2.104 -0.1706  1.6685  3.0003
19345SOL     OW62076   3.588   5.612   4.166  0.5088  0.8196  0.0217
19345SOL    HW162077   3.614   5.550   4.097  2.7914  2.7052 -0.9251
19345SOL    HW262078   3.607   5.698   4.130  0.6642  1.9528  2.5941
19346SOL     OW62079   2.484   3.215   9.111  0.5278  0.0731 -0.3716
19346SOL    HW162080   2.409   3.273   9.121 -0.5386 -1.5073  2.0015
19346SOL    HW262081   2.445   3.127   9.109  2.2491 -0.7565  0.4065
19347SOL     OW62082   8.846   4.843   9.465 -0.0694  0.0310  0.3599
19347SOL    HW162083   8.940   4.833   9.478  0.1030  1.9813  0.9313
19347SOL    HW262084   8.806   4.789   9.533  0.6595  0.3324  1.0355
19348SOL     OW62085   2.067   7.653   9.101 -0.1666  0.0964 -0.3805
19348SOL    HW162086   2.062   7.570   9.054  0.2861  0.5316 -1.2270
19348SOL    HW262087   2.092   7.717   9.034 -0.8079  0.9713  0.1951
19349SOL     OW62088   9.313   3.322   9.677  0.3760  0.0121  0.0817
19349SOL    HW162089   9.228   3.319   9.635  0.4045 -1.0419  0.0818
19349SOL    HW262090   9.311   3.402   9.730 -0.1011  0.7147 -0.9651
19350SOL     OW62091   7.400   7.779   5.321 -0.1871 -0.5516 -0.2614
19350SOL    HW162092   7.346   7.809   5.247  1.7695  2.0986 -0.7920
19350SOL    HW262093   7.489   7.780   5.287  0.4997 -2.3012  1.3127
19351SOL     OW62094   0.182   8.314   3.597 -0.5524  0.6369  0.1476
19351SOL    HW162095   0.182   8.380   3.667 -3.4566  0.7312  0.1581
19351SOL    HW262096   0.140   8.358   3.523  0.6135 -0.1354 -1.0113
19352SOL     OW62097   1.716   8.817   2.872  0.4838  0.0420 -0.0146
19352SOL    HW162098   1.697   8.840   2.781 -1.2635  2.5342  0.8824
19352SOL    HW262099   1.633   8.786   2.907  1.3077 -1.5913  0.6016
19353SOL     OW62100   2.716   2.252   3.878 -0.5454 -0.5352  0.0268
19353SOL    HW162101   2.803   2.275   3.845 -1.6032 -0.2220 -2.8129
19353SOL    HW262102   2.722   2.159   3.897  0.6145 -0.3572  0.6321
19354SOL     OW62103   1.928   6.552   7.869  0.5537  0.2415  0.0258
19354SOL    HW162104   1.987   6.609   7.820 -1.0229  2.1031  0.1896
19354SOL    HW262105   1.929   6.588   7.958  0.7600 -1.0084  0.5510
19355SOL     OW62106  10.051   0.637   9.274 -0.3363 -0.1778 -0.2602
19355SOL    HW162107  10.080   0.580   9.202  0.4872 -0.3552  0.1942
19355SOL    HW262108  10.080   0.591   9.353  0.4642  0.9311  0.1135
19356SOL     OW62109   2.564   6.270   6.014 -0.0847  0.1972 -0.3793
19356SOL    HW162110   2.515   6.240   5.938  1.0749  1.2305 -1.5823
19356SOL    HW262111   2.634   6.205   6.024 -1.7897 -1.5194  1.5959
19357SOL     OW62112   1.198   4.406   5.226  0.7236  0.1504 -0.5081
19357SOL    HW162113   1.154   4.471   5.281  1.5096  0.3270 -0.0798
19357SOL    HW262114   1.162   4.420   5.139 -0.4184 -0.0170 -0.0896
19358SOL     OW62115   3.989   5.516   3.296 -0.4306 -0.4667 -0.6880
19358SOL    HW162116   3.975   5.499   3.390 -0.7075  1.7796 -0.2683
19358SOL    HW262117   4.083   5.536   3.289 -0.8945  2.2496 -0.2988
19359SOL     OW62118   5.815   1.343   9.633  0.5361  0.1556 -0.2427
19359SOL    HW162119   5.819   1.391   9.551  1.6339  0.5797  0.0322
19359SOL    HW262120   5.906   1.320   9.652  0.3063  0.0696  0.8516
19360SOL     OW62121   4.351   8.084   9.172  0.1824  0.0189  0.4434
19360SOL    HW162122   4.363   8.117   9.083  1.4892 -2.6727 -0.5038
19360SOL    HW262123   4.405   8.142   9.226  0.2514  1.0446 -0.6680
19361SOL     OW62124   8.914   7.422   4.859  0.6097  0.0919 -0.2285
19361SOL    HW162125   8.909   7.331   4.889 -1.1279  0.5658  1.0548
19361SOL    HW262126   8.823   7.447   4.843  0.7574  2.3476  1.8144
19362SOL     OW62127   6.791   4.395   0.991  0.6277 -0.4914 -0.0364
19362SOL    HW162128   6.800   4.301   0.981  1.2214 -0.3034 -1.5258
19362SOL    HW262129   6.838   4.432   0.916 -0.5602  0.9522 -0.1233
19363SOL     OW62130   4.814   4.834   7.510 -0.3674 -0.2362  0.1398
19363SOL    HW162131   4.796   4.767   7.576  1.9851 -1.4911 -0.3601
19363SOL    HW262132   4.807   4.788   7.426 -2.4333  1.1237 -0.5112
19364SOL     OW62133   9.375   0.625   8.464  0.0789  0.1323 -0.3766
19364SOL    HW162134   9.452   0.640   8.410  1.5521  0.7823  1.7924
19364SOL    HW262135   9.385   0.535   8.496 -0.1216  0.1832 -0.1692
19365SOL     OW62136   8.602   1.539   3.712 -0.2374  0.2787 -0.7329
19365SOL    HW162137   8.689   1.522   3.748 -0.1173  0.4485 -0.9359
19365SOL    HW262138   8.578   1.624   3.749  0.1991  0.8083 -1.6079
19366SOL     OW62139   7.768   6.628   5.429 -0.2675  0.3425  0.2042
19366SOL    HW162140   7.744   6.556   5.371  0.3872  0.2186  0.0795
19366SOL    HW262141   7.756   6.594   5.518  1.6525 -0.5108  0.1784
19367SOL     OW62142   3.183   5.753   1.387 -0.1957 -0.4869  0.3424
19367SOL    HW162143   3.166   5.815   1.458  0.6992  0.0126  0.1497
19367SOL    HW262144   3.143   5.793   1.310  2.6270  1.3067 -0.3777
19368SOL     OW62145   4.862  10.078  10.225 -0.2778  0.1566  0.6745
19368SOL    HW162146   4.941  10.078  10.279 -0.6159 -1.5309  1.2415
19368SOL    HW262147   4.839   9.985  10.218 -1.6085  0.5414 -0.3791
19369SOL     OW62148   6.857   8.062   9.663  0.2311  0.1789  0.0991
19369SOL    HW162149   6.864   8.055   9.568  3.0086 -0.7453  0.2795
19369SOL    HW262150   6.895   8.147   9.684 -1.0222  0.6955  0.3855
19370SOL     OW62151   8.844   1.481   9.196  0.3174  0.5285 -0.1464
19370SOL    HW162152   8.770   1.420   9.198  0.4206  0.4283  1.1745
19370SOL    HW262153   8.810   1.557   9.149 -0.7319  0.5912  0.6715
19371SOL     OW62154   9.281   4.550   6.576 -0.4175  0.4660  0.1557
19371SOL    HW162155   9.267   4.622   6.515  1.2072  0.6075 -0.0991
19371SOL    HW262156   9.297   4.593   6.661 -1.8626  0.2990  0.5332
19372SOL     OW62157   0.212   3.075   7.010 -0.1659 -1.0486 -0.7520
19372SOL    HW162158   0.219   3.003   6.947 -1.2573 -1.0748 -0.8629
19372SOL    HW262159   0.225   3.154   6.957 -0.6657 -1.0929 -0.9507
19373SOL     OW62160   6.700   9.169   9.466 -0.0256  0.0157  0.3603
19373SOL    HW162161   6.705   9.121   9.549 -1.8532 -0.3277  0.3055
19373SOL    HW262162   6.708   9.101   9.399  1.1449  0.2601  0.2234
19374SOL     OW62163   3.375   8.700   1.858 -0.4870  0.4576 -0.2206
19374SOL    HW162164   3.316   8.773   1.840  0.1502  1.2554  0.8441
19374SOL    HW262165   3.457   8.741   1.885 -0.1397 -0.6522  0.4745
19375SOL     OW62166   4.561   5.810   6.144 -0.7211  0.6740  0.4430
19375SOL    HW162167   4.541   5.805   6.237 -0.8015  4.1292  0.7135
19375SOL    HW262168   4.650   5.776   6.137 -1.0353 -0.4725  1.5954
19376SOL     OW62169   3.526   6.429   9.406  0.2787 -0.3858 -0.1276
19376SOL    HW162170   3.542   6.338   9.429 -0.8477 -0.6333 -0.2837
19376SOL    HW262171   3.434   6.443   9.426  0.0629  0.2961 -1.5002
19377SOL     OW62172   7.524   4.145   7.163  0.3377  0.3508 -0.1787
19377SOL    HW162173   7.444   4.169   7.210  0.1311  1.0272 -0.8559
19377SOL    HW262174   7.510   4.054   7.135 -0.1852  0.4666 -0.2890
19378SOL     OW62175   1.325   8.637   7.312 -0.1279  0.2499  0.2611
19378SOL    HW162176   1.230   8.633   7.318 -0.5269  2.3628 -2.4116
19378SOL    HW262177   1.348   8.722   7.350  0.8738 -0.7126  1.9084
19379SOL     OW62178   9.284   8.285   3.091 -0.2303 -0.4246  0.2282
19379SOL    HW162179   9.352   8.220   3.074 -0.0324 -0.1554 -0.0187
19379SOL    HW262180   9.244   8.300   3.005 -1.1362 -1.1754  0.5055
19380SOL     OW62181   1.906   8.125   5.394 -0.1081  0.1579 -0.1282
19380SOL    HW162182   1.822   8.130   5.439 -1.1919  0.6637 -2.0726
19380SOL    HW262183   1.948   8.209   5.412 -0.5460  0.3737 -0.1070
19381SOL     OW62184   6.059   6.946   9.983  0.6253 -0.0452  0.5157
19381SOL    HW162185   6.026   7.026  10.024  0.8528  0.6000 -0.5214
19381SOL    HW262186   6.059   6.881  10.053 -0.5423  0.5858  1.1290
19382SOL     OW62187   7.247   1.508   8.637  0.1310 -0.3719 -0.0800
19382SOL    HW162188   7.229   1.467   8.552  0.0569  0.9863 -0.7420
19382SOL    HW262189   7.211   1.446   8.701 -0.1204 -1.2559 -1.0455
19383SOL     OW62190   0.310   0.282   3.224  0.6471 -0.3094  0.4353
19383SOL    HW162191   0.319   0.261   3.131 -0.5732 -1.8589  0.6042
19383SOL    HW262192   0.325   0.198   3.269  2.8851  0.7359  1.7938
19384SOL     OW62193   6.417   6.119   0.279 -0.2163 -0.1517 -0.1430
19384SOL    HW162194   6.508   6.104   0.304  0.2078  3.1917  0.8193
19384SOL    HW262195   6.423   6.174   0.200 -1.2508  1.7869  1.0300
19385SOL     OW62196   0.438   1.274   4.674  0.5471  0.7273  0.1936
19385SOL    HW162197   0.485   1.342   4.625 -0.4884 -0.3232 -2.3900
19385SOL    HW262198   0.393   1.323   4.744  0.8621  2.5135 -0.7843
19386SOL     OW62199   3.896   8.768   8.937  0.3359 -0.3236 -0.1154
19386SOL    HW162200   3.899   8.862   8.954 -1.0639 -0.2347 -0.2200
19386SOL    HW262201   3.933   8.728   9.016 -0.6165  0.2774  0.6687
19387SOL     OW62202   1.664   8.353   9.915 -0.3679  0.2097 -0.2888
19387SOL    HW162203   1.650   8.341  10.009  0.9744  0.8975  0.0272
19387SOL    HW262204   1.669   8.264   9.880  1.4302 -0.1323  0.6930
19388SOL     OW62205   1.213   2.163   4.780  0.0290  0.4186  0.5577
19388SOL    HW162206   1.231   2.076   4.745  0.1929 -0.3057  2.3412
19388SOL    HW262207   1.120   2.178   4.763  0.3824  0.6834 -1.3378
19389SOL     OW62208   7.372   9.622   0.776  0.2242 -0.1813  0.5303
19389SOL    HW162209   7.468   9.621   0.775  0.3509  2.0534 -2.8128
19389SOL    HW262210   7.350   9.620   0.870  3.4650 -1.2958  1.4124
19390SOL     OW62211   5.131   1.711   4.505 -0.0086  0.5843  0.6942
19390SOL    HW162212   5.086   1.680   4.426  0.9281 -0.9548  0.7200
19390SOL    HW262213   5.222   1.685   4.493  0.0423 -0.3073  2.5483
19391SOL     OW62214   1.500   4.605   3.348  0.4444  0.3208  0.0037
19391SOL    HW162215   1.498   4.601   3.444 -0.6693  1.4539  0.0517
19391SOL    HW262216   1.408   4.600   3.322  0.7113  0.4513 -0.9804
19392SOL     OW62217   8.207   9.239   5.348 -0.1368  0.0069 -0.1308
19392SOL    HW162218   8.175   9.154   5.318  1.0276 -0.2576 -0.7054
19392SOL    HW262219   8.162   9.254   5.431  0.6487 -1.8326  0.6804
19393SOL     OW62220   7.224  10.175   1.913  0.3869  0.1666 -0.4585
19393SOL    HW162221   7.140  10.203   1.875  0.2139 -0.9936 -1.0017
19393SOL    HW262222   7.241  10.090   1.871  0.3669 -1.0295  1.8020
19394SOL     OW62223   3.680   8.391   2.699 -0.1304  0.3384  0.5198
19394SOL    HW162224   3.659   8.319   2.759  1.1052  0.3456  1.0050
19394SOL    HW262225   3.718   8.348   2.623  0.9244  0.4680  0.9512
19395SOL     OW62226   4.191   2.757   1.166 -0.0322 -0.3049 -0.2046
19395SOL    HW162227   4.191   2.849   1.195 -0.8034 -0.5299  0.5656
19395SOL    HW262228   4.278   2.725   1.188 -0.1209 -0.0551  0.5671
19396SOL     OW62229   7.128   8.308   7.973  0.4514  0.3867  0.4531
19396SOL    HW162230   7.064   8.272   7.911 -0.4601  2.1548  0.3261
19396SOL    HW262231   7.097   8.396   7.992  1.6185  0.4734  2.1869
19397SOL     OW62232   2.169   9.943   1.103  0.2117 -0.2383 -0.5561
19397SOL    HW162233   2.163   9.898   1.019 -0.4695 -0.6665 -0.2806
19397SOL    HW262234   2.089   9.995   1.109  0.3540 -0.0493 -0.2672
19398SOL     OW62235   6.474   3.853   1.305 -0.4291  0.3212 -0.1610
19398SOL    HW162236   6.382   3.878   1.314 -0.7579 -0.4886 -1.0377
19398SOL    HW262237   6.498   3.818   1.390 -1.1064  0.0129 -0.0916
19399SOL     OW62238   9.610   4.629   3.762 -0.3179  0.2018  0.4937
19399SOL    HW162239   9.555   4.660   3.690  0.2205 -0.3901 -0.2039
19399SOL    HW262240   9.552   4.578   3.817 -0.2316 -1.6076 -0.9930
19400SOL     OW62241   7.271   4.624   9.281  0.9985 -0.2821  0.0887
19400SOL    HW162242   7.227   4.684   9.222  0.9616  0.8545  1.2328
19400SOL    HW262243   7.235   4.538   9.259 -0.7319  0.4207  0.0248
19401SOL     OW62244   9.357   3.754   6.385 -0.1134 -0.6772  0.3212
19401SOL    HW162245   9.372   3.837   6.339  1.7782 -0.0663  1.8936
19401SOL    HW262246   9.319   3.779   6.469 -0.8706 -1.5237  0.2404
19402SOL     OW62247   9.375   6.443   9.456  0.0361 -0.2576 -0.4887
19402SOL    HW162248   9.462   6.478   9.438  0.4535 -1.2065 -0.3495
19402SOL    HW262249   9.383   6.349   9.442 -0.7482 -0.4641  0.3363
19403SOL     OW62250   2.323   0.243   4.047  0.2203  0.9464 -0.0691
19403SOL    HW162251   2.388   0.298   4.003  0.5978  0.4371 -0.1677
19403SOL    HW262252   2.369   0.160   4.062 -0.5966  0.3684 -0.6848
19404SOL     OW62253   1.021   5.747   2.054  0.6382  0.1015 -0.2578
19404SOL    HW162254   1.068   5.692   1.991  0.6827 -0.8975  0.6268
19404SOL    HW262255   1.086   5.770   2.120  0.7757  1.7492 -0.9060
19405SOL     OW62256   5.934   5.115   4.941  0.3732 -0.8208 -0.0030
19405SOL    HW162257   5.915   5.152   4.854  0.6336 -1.1687 -0.2121
19405SOL    HW262258   6.028   5.097   4.939  0.2519 -1.4851  0.0974
19406SOL     OW62259  10.087   0.241   9.232 -0.2688  0.1663 -0.6274
19406SOL    HW162260  10.075   0.200   9.317  0.7944 -1.7304 -1.3235
19406SOL    HW262261   9.999   0.267   9.205 -0.4638  2.0848  1.5923
19407SOL     OW62262   6.421   5.060   3.885 -0.0599 -0.5214  0.2259
19407SOL    HW162263   6.384   5.014   3.810  0.0441 -1.2461  0.6152
19407SOL    HW262264   6.507   5.088   3.856 -1.0115  1.5474 -0.8363
19408SOL     OW62265   2.142   5.309   7.335 -0.3581  0.6188  0.7933
19408SOL    HW162266   2.234   5.318   7.308 -0.5033 -0.8146 -0.3029
19408SOL    HW262267   2.096   5.375   7.284  0.0739  1.5431  1.5589
19409SOL     OW62268   9.334   9.169   1.478  0.2384 -0.1033 -0.4547
19409SOL    HW162269   9.335   9.259   1.509 -1.3882 -0.8266  1.9910
19409SOL    HW262270   9.416   9.132   1.512 -0.5600 -0.3204  1.3858
19410SOL     OW62271   1.961   6.608   0.576 -0.3764 -0.8070  0.1718
19410SOL    HW162272   1.940   6.643   0.663  0.6337 -2.3844  1.0888
19410SOL    HW262273   2.054   6.587   0.580 -0.0132  0.1665 -1.7078
19411SOL     OW62274   3.335   9.865   3.978 -0.4178  0.3832  0.2877
19411SOL    HW162275   3.256   9.812   3.967 -0.4439  0.3434  0.6519
19411SOL    HW262276   3.305   9.943   4.024 -0.0333 -0.2015  1.5652
19412SOL     OW62277   0.522   0.015   2.201 -0.1961 -0.1769 -0.2791
19412SOL    HW162278   0.439   0.026   2.155  0.0101 -0.8030 -0.8041
19412SOL    HW262279   0.587   0.059   2.145  0.2838 -2.1054 -1.3248
19413SOL     OW62280   5.556   3.831   4.678 -0.1340  0.1368 -0.7067
19413SOL    HW162281   5.600   3.847   4.594 -0.1398  0.1440 -0.7082
19413SOL    HW262282   5.463   3.834   4.657 -0.1386 -0.9553 -0.9194
19414SOL     OW62283   5.307   0.430   2.195 -0.3206 -0.2135  0.2052
19414SOL    HW162284   5.283   0.351   2.245 -1.1447  0.2497  0.5594
19414SOL    HW262285   5.357   0.483   2.258 -2.1283  0.7787  0.8640
19415SOL     OW62286   0.113   3.875   5.934  0.6043 -0.3776  0.6283
19415SOL    HW162287   0.205   3.900   5.941  0.5540  0.0557 -0.1476
19415SOL    HW262288   0.070   3.923   6.006  0.4084  2.3834 -1.1681
19416SOL     OW62289   4.524   0.064   1.068 -0.5570 -0.1858  0.0856
19416SOL    HW162290   4.594   0.075   1.132 -0.2613  1.5168 -0.4663
19416SOL    HW262291   4.523  -0.030   1.049  2.7346 -0.1108 -1.1204
19417SOL     OW62292   4.817   1.068   1.602 -0.0794  0.2278 -0.3238
19417SOL    HW162293   4.887   1.007   1.579 -0.5208 -0.1536 -0.7043
19417SOL    HW262294   4.759   1.016   1.659  1.3219  1.3402  2.2534
19418SOL     OW62295   1.292   1.897   2.732  0.2009  0.8754 -0.3755
19418SOL    HW162296   1.316   1.916   2.642  0.4341  1.0424 -0.2786
19418SOL    HW262297   1.232   1.822   2.726 -0.3137  1.3060 -0.7176
19419SOL     OW62298   1.139   0.929   4.705  0.5447 -0.2716 -0.2267
19419SOL    HW162299   1.088   0.921   4.786 -1.7653  0.3574 -1.5095
19419SOL    HW262300   1.191   0.849   4.700 -0.6056 -1.1327  1.0021
19420SOL     OW62301   6.896   0.078   1.606  0.0798  0.0061 -0.1983
19420SOL    HW162302   6.957   0.133   1.656  0.1369  0.9859 -1.2975
19420SOL    HW262303   6.840   0.140   1.560 -0.0230 -0.8492 -1.2858
19421SOL     OW62304   5.418   5.393   5.459  0.6558  0.3318 -0.3757
19421SOL    HW162305   5.327   5.414   5.441  0.0753  0.1586  1.9766
19421SOL    HW262306   5.422   5.298   5.460  0.7926  0.3383 -0.1748
19422SOL     OW62307   7.288   8.937   9.685  0.0936 -0.1572  0.4830
19422SOL    HW162308   7.320   9.015   9.731 -0.9659 -0.0648  1.0918
19422SOL    HW262309   7.255   8.970   9.602  2.5737 -0.4010 -0.6911
19423SOL     OW62310   3.259   5.267   7.056 -0.0379  0.0055 -0.0982
19423SOL    HW162311   3.340   5.221   7.034  0.2669  0.0386  0.8890
19423SOL    HW262312   3.211   5.206   7.111 -1.3645 -0.5702 -1.8132
19424SOL     OW62313   8.537   9.333   8.783  0.2561 -0.1327 -0.4005
19424SOL    HW162314   8.509   9.397   8.718  1.8930  0.6196 -0.4039
19424SOL    HW262315   8.590   9.383   8.845  0.7419 -1.2884  0.1459
19425SOL     OW62316   7.256   8.559   0.671 -0.4910 -0.3876  0.4486
19425SOL    HW162317   7.284   8.649   0.686 -0.0824 -0.6516  1.3720
19425SOL    HW262318   7.168   8.554   0.709 -0.6029 -0.3238  0.2002
19426SOL     OW62319   7.119   3.768   1.852 -0.7620  0.2643 -0.7017
19426SOL    HW162320   7.114   3.709   1.776  0.3078 -1.6966  0.6462
19426SOL    HW262321   7.030   3.770   1.886 -1.5858  2.3290 -2.7571
19427SOL     OW62322   0.037   3.475   2.073  0.3618  0.7178  0.6255
19427SOL    HW162323   0.115   3.421   2.064  0.0025  0.2018  0.5845
19427SOL    HW262324  -0.027   3.418   2.116 -1.2529 -0.1320 -2.6138
19428SOL     OW62325   8.122   6.323   9.491 -0.4092  0.0312 -0.4836
19428SOL    HW162326   8.180   6.298   9.419 -0.4834  1.0061 -0.9005
19428SOL    HW262327   8.175   6.382   9.544 -0.6235 -0.0471 -0.1840
19429SOL     OW62328   4.781   5.181   2.208 -0.1330  0.4906  0.4649
19429SOL    HW162329   4.828   5.245   2.262 -0.0107  0.0806  0.8528
19429SOL    HW262330   4.804   5.204   2.118 -0.2975  1.1518  0.5804
19430SOL     OW62331   4.929   4.600   6.235 -0.0926 -0.4103 -0.6146
19430SOL    HW162332   4.848   4.602   6.185 -0.8814 -1.9123  0.5245
19430SOL    HW262333   4.964   4.689   6.228 -2.3033  0.5482 -0.3766
19431SOL     OW62334   0.260   2.121   8.052  0.0037  0.5609  0.4067
19431SOL    HW162335   0.345   2.157   8.079  0.3605  0.0472 -0.0241
19431SOL    HW262336   0.256   2.036   8.095 -1.4575  1.6390  2.5921
19432SOL     OW62337   7.342   5.493  10.103  0.2080 -0.2217 -0.8503
19432SOL    HW162338   7.409   5.495  10.171  0.2585 -0.6001 -0.8870
19432SOL    HW262339   7.264   5.459  10.147 -0.0282  0.4299 -0.7518
19433SOL     OW62340   8.027   3.128   9.578 -0.1686 -0.2226 -0.1237
19433SOL    HW162341   8.103   3.155   9.630  0.1129 -0.7715 -0.2445
19433SOL    HW262342   7.988   3.056   9.628 -1.8139  1.3468  0.9790
19434SOL     OW62343   8.447   4.488   6.468 -0.9042 -0.0892  0.1038
19434SOL    HW162344   8.434   4.521   6.379 -1.5893 -0.6782 -0.0241
19434SOL    HW262345   8.391   4.410   6.473 -0.1253 -0.6198  0.7330
19435SOL     OW62346   4.273   4.039   2.809  0.5768  0.3558  0.0345
19435SOL    HW162347   4.312   4.043   2.721  1.1216  1.7214  0.3211
19435SOL    HW262348   4.340   3.996   2.862  1.0072  1.1594  0.1565
19436SOL     OW62349   7.570   3.741   6.146 -0.2340 -0.2551 -0.1785
19436SOL    HW162350   7.643   3.709   6.200 -0.5895 -1.7682 -0.5492
19436SOL    HW262351   7.509   3.668   6.142 -1.2060  0.5638 -0.8987
19437SOL     OW62352   9.759   7.766   5.322 -0.0108 -0.1144  0.4354
19437SOL    HW162353   9.711   7.795   5.245 -1.6387  0.1339  1.4990
19437SOL    HW262354   9.808   7.843   5.351  2.0243 -0.6612 -1.2967
19438SOL     OW62355   4.650   4.746   1.249 -0.1483  0.1139  0.2378
19438SOL    HW162356   4.743   4.747   1.271 -0.0337 -0.5288 -0.1955
19438SOL    HW262357   4.632   4.835   1.218  0.4182  0.1294 -0.0532
19439SOL     OW62358   1.214   3.539   8.493  0.2861 -0.4049 -0.6576
19439SOL    HW162359   1.202   3.489   8.574 -0.8046 -0.3605 -0.7717
19439SOL    HW262360   1.156   3.496   8.430 -0.0927  0.5333 -0.9655
19440SOL     OW62361   2.626   0.839   1.915 -0.5685  0.2938 -0.3309
19440SOL    HW162362   2.572   0.874   1.986  2.4247  0.7465  1.9471
19440SOL    HW262363   2.657   0.917   1.868 -1.8679  0.0323 -1.7125
19441SOL     OW62364   3.959   5.521   8.607 -0.1523 -0.0884  0.3303
19441SOL    HW162365   4.048   5.520   8.571 -0.4297  0.0964 -0.3742
19441SOL    HW262366   3.902   5.523   8.530 -0.7467  0.8506  0.7778
19442SOL     OW62367   4.789   4.010   5.840 -0.6236  0.0637 -0.4402
19442SOL    HW162368   4.783   3.923   5.801 -2.0500 -0.2673  0.4600
19442SOL    HW262369   4.877   4.040   5.817 -0.1455 -1.5585 -0.8669
19443SOL     OW62370   0.249   7.780   7.432 -0.5943 -0.1111 -0.0256
19443SOL    HW162371   0.207   7.717   7.491 -0.5705 -1.3598 -1.2770
19443SOL    HW262372   0.336   7.744   7.416 -0.1484  0.8554  0.1348
19444SOL     OW62373   4.333   6.019   8.003  0.2406  0.7312  0.0464
19444SOL    HW162374   4.259   5.959   7.993  0.1916  0.7765  0.1391
19444SOL    HW262375   4.352   6.019   8.097 -0.1534  1.3311  0.1322
19445SOL     OW62376   8.016   1.389   2.211  0.5329 -0.3082  0.3028
19445SOL    HW162377   8.075   1.439   2.268  2.1036 -0.7116 -0.8984
19445SOL    HW262378   8.018   1.301   2.247 -1.1260  0.1250  1.5738
19446SOL     OW62379   3.986   8.775   1.716 -0.3150  0.2571 -0.1388
19446SOL    HW162380   3.918   8.716   1.682  0.5329  0.3998 -2.2324
19446SOL    HW262381   4.068   8.728   1.701  0.1801  0.8092  0.7757
19447SOL     OW62382   9.864   2.356   5.644  0.0892 -0.6665 -0.7070
19447SOL    HW162383   9.939   2.354   5.586  0.0892 -0.4585 -0.7121
19447SOL    HW262384   9.791   2.385   5.589  0.1100 -0.3712 -0.5819
19448SOL     OW62385   3.313   2.319   8.906 -0.2103 -0.3379  0.5681
19448SOL    HW162386   3.313   2.362   8.820  0.6692 -2.1080 -0.3734
19448SOL    HW262387   3.225   2.335   8.940 -0.7936 -0.1068 -0.9506
19449SOL     OW62388   3.871   0.054   3.668 -0.0884  0.7658 -0.1254
19449SOL    HW162389   3.953   0.043   3.620 -0.5034  0.0741 -0.6946
19449SOL    HW262390   3.834  -0.034   3.674 -0.8869  1.0927 -0.0509
19450SOL     OW62391   9.676   6.245   9.672  0.3928 -0.3022  0.6325
19450SOL    HW162392   9.762   6.268   9.638  0.2824  0.3811  0.8083
19450SOL    HW262393   9.615   6.303   9.626  0.2586  0.7801  2.0902
19451SOL     OW62394   4.796   2.608   6.991 -0.2580 -0.0638 -0.6093
19451SOL    HW162395   4.722   2.657   7.026 -1.0708 -1.4315 -0.3350
19451SOL    HW262396   4.873   2.654   7.023 -0.9760 -0.3877  1.7688
19452SOL     OW62397   3.960   2.931   5.646 -0.1193 -0.2049 -0.1292
19452SOL    HW162398   4.036   2.978   5.612 -0.3553  1.7495  1.8172
19452SOL    HW262399   3.982   2.839   5.637  0.8747  0.2142 -3.0524
19453SOL     OW62400   0.279   4.383   4.847 -0.9400  0.1047 -0.1269
19453SOL    HW162401   0.339   4.376   4.773 -0.4840 -0.1911  0.2670
19453SOL    HW262402   0.270   4.478   4.862 -2.0683  0.2269 -1.3790
19454SOL     OW62403   6.685   7.438   4.495  0.0058 -0.1126  0.4978
19454SOL    HW162404   6.758   7.497   4.513 -1.1949  1.7034 -0.2872
19454SOL    HW262405   6.611   7.496   4.479 -1.1300 -1.8418 -0.8533
19455SOL     OW62406   7.595   7.528   5.950 -0.3440 -0.0675 -0.0014
19455SOL    HW162407   7.567   7.486   5.869  1.8402 -2.1093  0.2051
19455SOL    HW262408   7.634   7.611   5.923 -1.8228  0.4163 -0.7435
19456SOL     OW62409   8.677   5.335   6.707  0.1891  0.2354 -0.1146
19456SOL    HW162410   8.637   5.253   6.676  1.0504 -0.0923 -0.3841
19456SOL    HW262411   8.607   5.400   6.698 -0.2726 -0.3117 -0.6263
19457SOL     OW62412   6.565   6.316   3.606 -0.1726  0.1025  0.7317
19457SOL    HW162413   6.577   6.403   3.644 -1.2063  0.1898  0.8952
19457SOL    HW262414   6.587   6.326   3.513 -1.8720  0.9622  0.3823
19458SOL     OW62415   4.939   2.392   6.894 -0.5450 -0.4285 -0.6375
19458SOL    HW162416   4.877   2.464   6.909 -0.2879 -0.2652 -0.3457
19458SOL    HW262417   4.976   2.375   6.980 -0.1418 -0.4894 -0.8222
19459SOL     OW62418   6.682   1.555   2.840  0.3871  0.3534  0.5287
19459SOL    HW162419   6.608   1.537   2.783  2.4597 -2.1058 -1.6139
19459SOL    HW262420   6.708   1.645   2.818 -0.1656  0.1963 -0.8632
19460SOL     OW62421   8.913   9.825   7.358  0.6995 -0.6683 -0.9151
19460SOL    HW162422   8.891   9.846   7.449 -0.2831 -0.5234 -1.1769
19460SOL    HW262423   8.868   9.742   7.342  0.5734 -0.5064 -1.3880
19461SOL     OW62424   5.591   1.500   9.440  0.0216 -0.4547 -0.2324
19461SOL    HW162425   5.526   1.545   9.386 -0.1362 -0.6119 -0.1716
19461SOL    HW262426   5.669   1.556   9.434 -0.5932  0.6105  1.0128
19462SOL     OW62427   6.185   3.140   2.514  0.1788  0.5464 -0.0257
19462SOL    HW162428   6.278   3.139   2.491  0.1088  0.8273 -0.3306
19462SOL    HW262429   6.139   3.122   2.432 -0.0348  0.3879  0.1280
19463SOL     OW62430   1.620   7.773   3.540  0.2850  0.1089 -0.2274
19463SOL    HW162431   1.618   7.751   3.633  0.6698  0.1964 -0.1949
19463SOL    HW262432   1.544   7.829   3.526 -0.1329 -0.4281 -0.0986
19464SOL     OW62433   5.669   9.085   8.436  0.5065  0.2296  0.1948
19464SOL    HW162434   5.618   9.039   8.369  0.6340  2.0148 -1.1885
19464SOL    HW262435   5.619   9.073   8.516 -1.8497  1.4037 -0.9920
19465SOL     OW62436   9.171   8.283   9.485 -0.0383  0.3111 -0.4620
19465SOL    HW162437   9.172   8.340   9.562 -0.3459 -2.7456  2.0120
19465SOL    HW262438   9.259   8.244   9.483 -1.2029 -2.6969  0.9884
19466SOL     OW62439   7.649   8.610   6.088 -0.0565  0.2110 -0.0025
19466SOL    HW162440   7.655   8.527   6.136  0.2462 -0.0197 -0.4246
19466SOL    HW262441   7.725   8.609   6.030  0.4122  1.1642  0.5704
19467SOL     OW62442  10.282   8.743   3.751  0.5883  0.1640  0.0188
19467SOL    HW162443  10.323   8.818   3.795  0.1909  0.3764  0.0405
19467SOL    HW262444  10.228   8.703   3.819  0.5115  0.0793 -0.0922
19468SOL     OW62445   3.553   9.438  10.144  0.4313 -0.2431 -0.2263
19468SOL    HW162446   3.567   9.346  10.124 -0.3349  0.0392 -2.3316
19468SOL    HW262447   3.469   9.459  10.103  0.8815  1.5331 -0.3137
19469SOL     OW62448   4.499   3.983   3.461  0.3585 -0.0189 -0.2344
19469SOL    HW162449   4.442   4.056   3.438 -0.6824 -1.0615 -1.0565
19469SOL    HW262450   4.578   3.997   3.409  0.8356  1.3660  0.8155
19470SOL     OW62451   5.250   5.521   5.689 -0.1093  0.3286  0.6403
19470SOL    HW162452   5.329   5.502   5.638 -0.6859 -1.8895  0.4564
19470SOL    HW262453   5.180   5.477   5.641 -1.5008  2.2723  0.7850
19471SOL     OW62454   6.060   9.931   7.096  0.4890  0.0829  0.5278
19471SOL    HW162455   6.136   9.955   7.043 -0.6101  1.1624 -0.5949
19471SOL    HW262456   6.032  10.013   7.136  0.6394 -0.5269  1.9650
19472SOL     OW62457  10.232   6.865   3.640  0.1698  0.0898 -0.5232
19472SOL    HW162458  10.211   6.941   3.694  0.5503 -0.1305 -0.0527
19472SOL    HW262459  10.271   6.903   3.560 -1.8252  0.4861 -1.3592
19473SOL     OW62460   1.378   8.689   9.516 -0.7578 -0.5137  0.0117
19473SOL    HW162461   1.401   8.758   9.454  0.2681  1.1673  2.1231
19473SOL    HW262462   1.434   8.615   9.493  0.6820  0.5910 -0.1745
19474SOL     OW62463   5.871  10.242   1.509  0.2790  0.5453 -0.0319
19474SOL    HW162464   5.879  10.307   1.579 -0.3048  0.1950  0.3695
19474SOL    HW262465   5.957  10.243   1.466  0.1889  1.7677 -0.2179
19475SOL     OW62466   4.485   3.791   6.030 -0.6855 -0.1594  0.2460
19475SOL    HW162467   4.456   3.705   5.998 -0.5252  0.0728 -0.5564
19475SOL    HW262468   4.404   3.839   6.047 -0.7863 -0.7331  1.4719
19476SOL     OW62469   4.778   9.192   8.512 -0.2331  0.0983  0.0483
19476SOL    HW162470   4.872   9.174   8.506  0.0919  1.4099  0.7859
19476SOL    HW262471   4.741   9.113   8.552  0.8651  0.3007  1.5783
19477SOL     OW62472   4.401   4.463   9.756  0.2439 -0.6956  0.2298
19477SOL    HW162473   4.389   4.394   9.821  0.9804 -0.6131  0.4672
19477SOL    HW262474   4.332   4.527   9.775 -0.6796 -1.5377 -0.2300
19478SOL     OW62475   1.274   8.311   5.047 -0.4960  0.2606  0.1816
19478SOL    HW162476   1.244   8.401   5.063 -2.2368  0.4343 -3.2114
19478SOL    HW262477   1.338   8.319   4.976 -1.9185 -1.2261 -1.3655
19479SOL     OW62478   4.049  10.217   2.268 -0.3427 -0.4933  0.0150
19479SOL    HW162479   3.985  10.198   2.337  0.3473 -0.5925  0.6447
19479SOL    HW262480   4.009  10.182   2.188 -0.5432 -1.6634  0.5986
19480SOL     OW62481   1.756   1.885   8.552  0.3175 -0.0779 -0.4582
19480SOL    HW162482   1.821   1.881   8.482 -0.3393 -1.7278 -1.0204
19480SOL    HW262483   1.681   1.837   8.517 -1.1724  1.6482  0.2169
19481SOL     OW62484   0.329   1.860  10.139  0.0499  0.1747 -0.0203
19481SOL    HW162485   0.282   1.805  10.202 -1.2200  3.5091  2.2393
19481SOL    HW262486   0.421   1.852  10.164 -0.3710  0.9425  1.9578
19482SOL     OW62487   0.408   2.082   3.598  0.2153  0.1108 -0.3713
19482SOL    HW162488   0.419   2.145   3.670 -1.2743  0.7105 -0.6252
19482SOL    HW262489   0.495   2.074   3.559  0.4759  1.9009 -0.2279
19483SOL     OW62490   8.291   0.850   9.473 -0.0693 -0.6079  0.1271
19483SOL    HW162491   8.314   0.889   9.389  2.2146 -0.6782  0.6520
19483SOL    HW262492   8.228   0.910   9.511 -1.4864 -0.7924 -1.7771
19484SOL     OW62493   9.847   9.645   0.343 -0.4360  0.2741 -0.0204
19484SOL    HW162494   9.840   9.550   0.357  0.5983  0.0589 -0.8295
19484SOL    HW262495   9.939   9.665   0.360 -0.2002  0.7789 -1.6801
19485SOL     OW62496   0.672   7.444   1.577  0.4918  0.4384  0.4295
19485SOL    HW162497   0.603   7.465   1.515  0.9095  0.2222 -0.1134
19485SOL    HW262498   0.742   7.507   1.559  0.1472  1.1309  1.4689
19486SOL     OW62499   9.849   2.482   4.978  0.0297 -0.0219  1.0124
19486SOL    HW162500   9.854   2.537   4.900 -1.0922 -0.1651  0.8214
19486SOL    HW262501   9.925   2.424   4.972  2.0894  2.3869  1.9546
19487SOL     OW62502   9.724   5.919   7.298  0.1855  0.2022 -0.0888
19487SOL    HW162503   9.655   5.921   7.232 -0.4619  1.1991  0.5910
19487SOL    HW262504   9.708   5.996   7.352  0.5113 -0.7419  1.4261
19488SOL     OW62505   1.698   7.121   4.366 -0.0922  0.1626 -0.1001
19488SOL    HW162506   1.645   7.139   4.444  2.7005  0.7940  1.8350
19488SOL    HW262507   1.660   7.177   4.298 -0.6959  2.1447  1.7304
19489SOL     OW62508   3.714   3.339   7.994  0.1469  0.2421  0.2462
19489SOL    HW162509   3.757   3.254   7.981  0.5194  0.2638  1.2493
19489SOL    HW262510   3.701   3.345   8.088  0.0317  1.2668  0.1741
19490SOL     OW62511   3.666   9.527   9.814  0.2591  0.2530 -0.7633
19490SOL    HW162512   3.750   9.487   9.837  0.3406  2.1513  2.9586
19490SOL    HW262513   3.685   9.620   9.806 -1.4042  0.6680 -0.2141
19491SOL     OW62514  10.025   5.549   1.379 -0.1418 -0.0311 -0.8467
19491SOL    HW162515  10.096   5.488   1.394  0.5395  1.1897  1.2693
19491SOL    HW262516   9.964   5.534   1.452  0.1685  1.9093 -0.1269
19492SOL     OW62517   3.202   8.114   0.302  0.3515  0.2515 -0.4703
19492SOL    HW162518   3.245   8.037   0.339  1.8818  0.9915 -0.6007
19492SOL    HW262519   3.270   8.156   0.248 -0.3309  1.8444 -0.1705
19493SOL     OW62520   4.038   1.279   1.260  0.2552  0.1832 -0.3758
19493SOL    HW162521   3.956   1.232   1.275  0.2877 -0.3318 -1.6826
19493SOL    HW262522   4.086   1.270   1.343  0.1363 -1.8772 -0.4710
19494SOL     OW62523   1.710   4.406   2.492  0.2622 -0.0355  0.0661
19494SOL    HW162524   1.651   4.481   2.477  0.2463  0.1813  1.1544
19494SOL    HW262525   1.652   4.330   2.492  0.3892 -0.1865 -1.9800
19495SOL     OW62526   2.971   0.853   0.846 -0.8085 -0.2551  0.6826
19495SOL    HW162527   3.019   0.822   0.769 -1.0859 -0.2177  0.4912
19495SOL    HW262528   3.029   0.834   0.920 -0.0859  0.6441  0.3677
19496SOL     OW62529   3.013   8.542   8.990  0.3518 -0.4303  0.0368
19496SOL    HW162530   2.928   8.560   9.030  0.6654  0.4025  0.3565
19496SOL    HW262531   3.074   8.542   9.064  0.8057  0.2315 -0.3300
19497SOL     OW62532   7.847   6.744   0.769 -0.3682  0.0821 -0.2877
19497SOL    HW162533   7.785   6.674   0.750 -0.9382  1.1975 -2.9838
19497SOL    HW262534   7.925   6.723   0.717  0.6529 -0.0765  1.2383
19498SOL     OW62535   4.673   2.595   1.095  0.2922  0.0093 -0.6285
19498SOL    HW162536   4.731   2.630   1.028 -0.7966  2.0622 -0.5640
19498SOL    HW262537   4.732   2.562   1.163  1.4590  2.4533 -0.3472
19499SOL     OW62538   6.215   6.758   7.094  0.2380 -0.0391  0.0409
19499SOL    HW162539   6.168   6.675   7.102  0.5128 -0.2460 -0.4434
19499SOL    HW262540   6.305   6.738   7.121  0.5066 -0.1008 -0.8688
19500SOL     OW62541   1.118   2.048   5.173  0.5306 -0.5244 -0.2272
19500SOL    HW162542   1.030   2.026   5.141  1.2695 -1.9753 -1.3844
19500SOL    HW262543   1.151   1.966   5.210  1.6277 -0.1688 -0.3811
19501SOL     OW62544   9.068   5.825   3.588  0.2366 -0.2029  0.7585
19501SOL    HW162545   9.039   5.765   3.520 -0.8840  1.1808 -0.0495
19501SOL    HW262546   9.161   5.839   3.571  0.1497 -0.5218  0.0258
19502SOL     OW62547   1.134   9.674   8.720  0.2070 -0.4156  0.3167
19502SOL    HW162548   1.096   9.710   8.800 -0.3731 -1.6202  0.6090
19502SOL    HW262549   1.214   9.725   8.706  0.3018 -0.1769  1.6417
19503SOL     OW62550   4.918   3.147   6.107  0.5749  0.4120  0.3887
19503SOL    HW162551   5.012   3.161   6.115  0.6989  0.1374 -0.4899
19503SOL    HW262552   4.908   3.093   6.029 -0.3903  1.3491 -0.1583
19504SOL     OW62553   7.352  10.040   4.716 -0.0428  0.3670  0.5850
19504SOL    HW162554   7.332   9.954   4.755  0.7063 -0.2179 -0.2820
19504SOL    HW262555   7.408  10.083   4.781  2.1524 -1.0577 -0.2545
19505SOL     OW62556   6.557   6.125   7.969  0.0299  0.2902  0.3259
19505SOL    HW162557   6.503   6.072   8.028 -1.6918 -0.3808 -1.7553
19505SOL    HW262558   6.549   6.214   8.004  0.7606 -0.3489  2.2676
19506SOL     OW62559   4.360   9.205   4.183 -0.2583  0.9633  0.4991
19506SOL    HW162560   4.299   9.254   4.127  0.9209  1.6022 -0.2584
19506SOL    HW262561   4.447   9.233   4.155  0.3885  0.6667  2.0992
19507SOL     OW62562   9.182   8.165   0.210  0.1139 -0.5116  0.3609
19507SOL    HW162563   9.238   8.240   0.190 -1.6776  1.0654  0.8917
19507SOL    HW262564   9.201   8.101   0.141  0.0430  1.3784 -1.5203
19508SOL     OW62565   7.656   1.508   9.041 -0.5671  0.0475  0.0558
19508SOL    HW162566   7.653   1.418   9.074 -0.8532 -0.1867 -0.6064
19508SOL    HW262567   7.591   1.554   9.093 -1.5854 -0.5048 -0.7023
19509SOL     OW62568   6.774   9.647   2.054 -0.0472 -0.4216 -0.5900
19509SOL    HW162569   6.783   9.694   2.137  1.1855  2.4336 -2.2050
19509SOL    HW262570   6.827   9.568   2.065 -0.7804 -0.6797  1.6575
19510SOL     OW62571   8.163   7.511   1.197 -0.1121 -0.2182 -0.1178
19510SOL    HW162572   8.242   7.530   1.146 -0.7480  0.5030 -0.8596
19510SOL    HW262573   8.149   7.417   1.185  0.2347 -0.2140 -0.5709
19511SOL     OW62574   3.902   2.919   1.511 -0.3592  0.4924  0.1704
19511SOL    HW162575   3.958   2.909   1.589 -1.8475  0.4356  1.2639
19511SOL    HW262576   3.950   2.982   1.456  0.2429  1.3591  1.6048
19512SOL     OW62577   1.927   7.003   1.750  0.3556  0.4956  0.5394
19512SOL    HW162578   1.888   6.931   1.800  0.3947  0.8696  1.1148
19512SOL    HW262579   1.852   7.051   1.714  0.3174 -0.9603 -1.5374
19513SOL     OW62580   2.502   6.442   2.015  0.3162 -0.2563 -0.6016
19513SOL    HW162581   2.546   6.526   2.025  0.3149 -0.0844 -1.8461
19513SOL    HW262582   2.442   6.437   2.089  0.5813  0.6714 -0.3149
19514SOL     OW62583   2.213   3.325   0.198 -0.0970  0.1356 -0.5202
19514SOL    HW162584   2.147   3.358   0.259  1.2673  2.1327  0.0034
19514SOL    HW262585   2.213   3.390   0.127 -0.6596 -1.3915 -1.9795
19515SOL     OW62586   1.411   6.153   2.637 -0.3623  0.0065 -0.4193
19515SOL    HW162587   1.502   6.165   2.662 -0.5431 -0.1795  0.3784
19515SOL    HW262588   1.414   6.090   2.565  0.2430  1.2275 -1.4891
19516SOL     OW62589   6.899   6.339   1.255  0.0846 -0.2750 -0.0072
19516SOL    HW162590   6.858   6.413   1.212 -0.7187  0.0261  1.1966
19516SOL    HW262591   6.867   6.262   1.206 -0.9471  0.0412  0.1333
19517SOL     OW62592   9.356   5.418   5.113 -0.8961 -0.1199  0.6735
19517SOL    HW162593   9.298   5.494   5.119 -2.3038 -1.1663  0.7665
19517SOL    HW262594   9.441   5.451   5.144 -1.3153  1.5475  0.1657
19518SOL     OW62595   0.897   4.089   4.069  0.3524  0.1571 -0.5812
19518SOL    HW162596   0.966   4.029   4.098  0.1747 -0.5920 -1.6785
19518SOL    HW262597   0.938   4.139   3.999  0.3656  1.0540  0.0489
19519SOL     OW62598   2.782   1.951   0.418  0.5103  0.0365  0.7050
19519SOL    HW162599   2.720   1.954   0.490 -0.8323 -2.1450 -0.2414
19519SOL    HW262600   2.835   1.873   0.437  0.0577 -0.6329 -0.6812
19520SOL     OW62601   0.626   3.143   2.752  0.7271 -0.2707 -0.0007
19520SOL    HW162602   0.581   3.105   2.677 -0.8340  1.5702 -0.0705
19520SOL    HW262603   0.576   3.113   2.828  1.7729 -1.3985  0.2816
19521SOL     OW62604   0.879   1.865  10.043 -0.4606  0.3914  0.0862
19521SOL    HW162605   0.855   1.861  10.135 -1.2757 -0.9459 -0.1633
19521SOL    HW262606   0.973   1.846  10.042 -0.6385 -0.5752  0.5700
19522SOL     OW62607   3.269   4.734   2.906 -0.3741 -0.1426 -0.4780
19522SOL    HW162608   3.253   4.765   2.995 -0.2797 -0.2978 -0.4058
19522SOL    HW262609   3.363   4.745   2.894  0.0314 -2.2702  0.2809
19523SOL     OW62610   9.990   9.356   6.920 -0.1273 -0.0611  0.2305
19523SOL    HW162611   9.913   9.410   6.903 -0.8984 -1.6078 -1.6956
19523SOL    HW262612  10.053   9.416   6.960 -0.8793  2.3034 -1.8313
19524SOL     OW62613   8.743   6.973   0.498  0.5502 -0.6070 -0.8891
19524SOL    HW162614   8.749   6.887   0.540  0.7678 -0.9461 -1.6026
19524SOL    HW262615   8.745   6.954   0.404  3.4654  0.2918 -1.1309
19525SOL     OW62616   5.643   6.941   4.532 -0.1783  0.0835  0.0826
19525SOL    HW162617   5.709   6.979   4.473  0.8708  1.7625  2.2003
19525SOL    HW262618   5.693   6.890   4.595 -1.0309  0.2896  0.9529
19526SOL     OW62619   9.879   2.909  10.070  0.0799  0.1901  0.0629
19526SOL    HW162620   9.953   2.903  10.130  1.2252 -0.7066 -1.3688
19526SOL    HW262621   9.888   2.995  10.029 -0.5273  0.6768  0.9286
19527SOL     OW62622   5.672   1.645   7.189 -0.0970 -0.0885 -0.4354
19527SOL    HW162623   5.662   1.698   7.110  1.0541  0.2102 -0.4050
19527SOL    HW262624   5.584   1.613   7.208 -0.3554 -0.3361 -1.9485
19528SOL     OW62625   4.708   0.375   9.072  0.3510 -0.4717  0.0316
19528SOL    HW162626   4.721   0.447   9.010 -1.9763 -1.3591 -1.6362
19528SOL    HW262627   4.703   0.297   9.017 -1.9598 -1.2912  1.2744
19529SOL     OW62628   2.990   7.581   8.782 -0.3238 -0.2366 -0.5175
19529SOL    HW162629   2.991   7.585   8.878  2.3086 -3.6668 -0.2151
19529SOL    HW262630   3.075   7.616   8.756 -1.1250  0.9256 -1.7012
19530SOL     OW62631   8.014   6.966   1.186  0.0875 -0.4947  0.1669
19530SOL    HW162632   7.995   7.046   1.234 -0.2942 -0.9130  0.7321
19530SOL    HW262633   8.108   6.969   1.168 -0.0046  0.2826 -0.2059
19531SOL     OW62634   3.817   8.073   9.470 -0.0810  0.2197 -0.0932
19531SOL    HW162635   3.761   8.146   9.447  0.9566  0.2672 -2.8645
19531SOL    HW262636   3.790   8.048   9.558 -0.8428  3.5424  0.7333
19532SOL     OW62637   0.777   7.533   3.333 -0.8338 -0.7197  0.5033
19532SOL    HW162638   0.790   7.620   3.296  1.9440 -0.5143  1.7020
19532SOL    HW262639   0.683   7.520   3.331 -1.2933  2.0620 -0.2912
19533SOL     OW62640   4.582   7.974   6.806  0.6175  0.8438  0.4884
19533SOL    HW162641   4.557   8.039   6.740  1.8469 -1.0535 -2.0052
19533SOL    HW262642   4.527   7.898   6.787 -0.3898  0.8269  2.9857
19534SOL     OW62643   5.358   1.015  10.235 -0.5107 -0.1248  0.3026
19534SOL    HW162644   5.288   0.969  10.281 -0.2830 -0.2388  0.5353
19534SOL    HW262645   5.398   1.071  10.302 -0.2478 -0.2125  0.2214
19535SOL     OW62646   6.886   5.084   9.135 -0.3408  0.1665  0.6535
19535SOL    HW162647   6.815   5.115   9.078 -1.2948 -2.2253  0.4002
19535SOL    HW262648   6.963   5.132   9.105 -1.1176  0.1071 -1.6672
19536SOL     OW62649   4.038   2.039   6.010  0.7801  0.2124 -0.1957
19536SOL    HW162650   4.071   2.079   5.929  1.9589 -1.1574 -0.4465
19536SOL    HW262651   4.084   2.085   6.080 -0.5053  1.6439 -0.2535
19537SOL     OW62652  10.209   9.204  10.201  0.0762 -0.5039 -0.4435
19537SOL    HW162653  10.131   9.257  10.221  1.3497  1.0902  0.6066
19537SOL    HW262654  10.235   9.167  10.286  0.8245 -0.4655 -0.6480
19538SOL     OW62655   9.411   0.346   2.627 -0.4345  0.6236 -0.2813
19538SOL    HW162656   9.360   0.327   2.548 -0.2997  1.1348 -0.4948
19538SOL    HW262657   9.346   0.359   2.696 -0.5439 -0.1996 -0.2137
19539SOL     OW62658   1.161   0.788   1.900 -0.5575  0.0945  0.6630
19539SOL    HW162659   1.214   0.858   1.862 -1.1026  0.0874 -0.1302
19539SOL    HW262660   1.185   0.710   1.850 -0.4533 -0.1455  1.0865
19540SOL     OW62661   8.153   7.359   2.546 -0.1137  0.2020  0.5183
19540SOL    HW162662   8.223   7.360   2.481  1.3932  2.6439  2.0104
19540SOL    HW262663   8.126   7.451   2.553 -1.2160 -0.2046  2.3208
19541SOL     OW62664   7.091   9.029   6.749 -0.0069 -0.1239  0.2457
19541SOL    HW162665   7.166   9.080   6.719 -1.5523  1.3770 -1.3745
19541SOL    HW262666   7.120   8.987   6.830  2.7646 -0.1923 -0.6980
19542SOL     OW62667   9.474   7.042   4.392  0.1158 -0.6468 -0.5600
19542SOL    HW162668   9.527   7.089   4.457  0.0387 -0.7467 -0.4226
19542SOL    HW262669   9.484   7.093   4.311  0.0635 -0.4143 -0.4228
19543SOL     OW62670   4.148   7.084   9.602  0.1000 -0.0151 -0.4435
19543SOL    HW162671   4.123   7.012   9.544  0.2697 -1.1140  0.8206
19543SOL    HW262672   4.071   7.100   9.656  0.2208  0.4491 -0.3998
19544SOL     OW62673   3.075   7.694   4.446 -0.0379 -0.7084  0.2968
19544SOL    HW162674   3.131   7.722   4.519  0.7960  1.2305 -1.0132
19544SOL    HW262675   3.119   7.727   4.368 -1.8736 -1.0867 -0.9549
19545SOL     OW62676   7.730   7.001   3.656 -0.8539 -0.2250 -0.5936
19545SOL    HW162677   7.717   6.945   3.733  1.1164 -0.9836 -0.7494
19545SOL    HW262678   7.766   6.942   3.589 -0.4550  0.8508 -1.3665
19546SOL     OW62679   1.274   9.773   6.428  0.4773 -0.0097  0.0285
19546SOL    HW162680   1.275   9.730   6.343 -0.5513 -1.2990  0.6292
19546SOL    HW262681   1.218   9.850   6.415 -0.2590 -0.5880 -0.3060
19547SOL     OW62682   5.749   0.661   7.065  0.0142 -0.1642  0.1817
19547SOL    HW162683   5.778   0.588   7.120  0.3411  0.2746  0.6037
19547SOL    HW262684   5.666   0.688   7.103 -0.7666 -1.1401 -0.7634
19548SOL     OW62685   0.488   2.605   3.211  0.5342 -0.0820 -0.1760
19548SOL    HW162686   0.549   2.541   3.248  0.1787 -0.6820 -0.5957
19548SOL    HW262687   0.429   2.626   3.284  0.4230 -0.5286 -0.1326
19549SOL     OW62688  10.074   8.534  10.045 -0.1639  0.3511  0.1118
19549SOL    HW162689  10.113   8.600  10.103  1.3416 -0.7737  0.4324
19549SOL    HW262690  10.021   8.480  10.102 -1.5455  1.3483 -0.1817
19550SOL     OW62691   4.112   5.787   6.715  0.0791 -0.1961  0.0791
19550SOL    HW162692   4.169   5.712   6.732 -0.4312 -0.3164  1.3781
19550SOL    HW262693   4.052   5.789   6.790 -2.4832 -0.8652 -1.8258
19551SOL     OW62694   8.277   6.399   5.783 -0.1550  0.0807 -0.4662
19551SOL    HW162695   8.326   6.469   5.826 -1.5699  0.5857  0.3855
19551SOL    HW262696   8.273   6.426   5.691 -1.6073  1.7253  0.0289
19552SOL     OW62697   0.825   4.631   2.786  0.3013 -0.0453  0.2430
19552SOL    HW162698   0.918   4.635   2.766  0.2471 -0.9017 -0.2471
19552SOL    HW262699   0.799   4.722   2.799  1.6893  0.0645  2.7799
19553SOL     OW62700   6.390   5.023   9.965 -0.6194 -0.2088 -0.4964
19553SOL    HW162701   6.409   4.937   9.926 -1.5562 -0.8167  0.3350
19553SOL    HW262702   6.338   5.003  10.042 -0.5371  1.1049 -0.0814
19554SOL     OW62703   8.944   6.487   1.595  0.5687  0.5159  0.0371
19554SOL    HW162704   9.032   6.464   1.567  1.2985  2.1132  0.8970
19554SOL    HW262705   8.956   6.537   1.675 -1.1203  0.8744  0.1136
19555SOL     OW62706   7.889   3.893   0.540  0.7192  0.3491  0.0721
19555SOL    HW162707   7.927   3.809   0.513  0.1731 -0.3913  1.4943
19555SOL    HW262708   7.964   3.943   0.573  1.0813  0.5197 -0.9704
19556SOL     OW62709   2.745   7.895   4.444 -0.2522  0.0107  0.1186
19556SOL    HW162710   2.713   7.845   4.519  0.3253  0.1144  0.4425
19556SOL    HW262711   2.678   7.883   4.376 -1.1485  0.5343  0.8962
19557SOL     OW62712   0.943   5.057   7.264 -0.1037  0.3726 -0.4501
19557SOL    HW162713   1.021   5.050   7.209 -0.8988 -1.0581 -1.4581
19557SOL    HW262714   0.964   5.126   7.326  2.7280 -1.2180  0.5394
19558SOL     OW62715   4.470   2.352   6.038  0.2199 -0.1591 -0.5119
19558SOL    HW162716   4.416   2.298   6.096 -0.1995  0.1371 -0.6168
19558SOL    HW262717   4.506   2.291   5.974 -0.2745 -0.3154 -0.6486
19559SOL     OW62718   7.513   6.128  10.238  0.1890 -0.0165  0.3700
19559SOL    HW162719   7.554   6.207  10.202  0.4143  0.0852  0.8411
19559SOL    HW262720   7.490   6.076  10.161  1.3964 -0.1774  0.0984
19560SOL     OW62721   1.015   9.007   2.383 -0.2299 -0.0275  0.2136
19560SOL    HW162722   1.100   9.033   2.419 -0.7611  1.4685  0.4585
19560SOL    HW262723   0.997   8.921   2.423  0.6491  0.1627  1.0392
19561SOL     OW62724   2.490   9.633   3.865  0.0640 -0.1727  0.3785
19561SOL    HW162725   2.410   9.582   3.853  0.3046 -0.3470 -0.5914
19561SOL    HW262726   2.558   9.567   3.879  0.1432 -0.0572  0.5358
19562SOL     OW62727   8.353   5.347   0.801 -0.0569 -0.4715 -0.0420
19562SOL    HW162728   8.293   5.406   0.755 -0.5360  1.4584  2.8047
19562SOL    HW262729   8.318   5.260   0.784 -1.1289  0.2605 -1.9265
19563SOL     OW62730   3.617  10.233   5.541 -0.2910 -0.2668  0.5291
19563SOL    HW162731   3.537  10.204   5.497  0.6594  0.5852 -1.9100
19563SOL    HW262732   3.585  10.279   5.619 -2.1763 -0.3506 -0.1247
19564SOL     OW62733   7.763   8.816   0.768  0.1970  0.3307  0.5923
19564SOL    HW162734   7.813   8.814   0.850  2.3985 -0.0137 -0.6750
19564SOL    HW262735   7.774   8.905   0.735 -1.0387  0.5937  0.8401
19565SOL     OW62736   4.506   2.984   5.776 -0.0694  0.4390  0.3348
19565SOL    HW162737   4.581   2.925   5.782  0.2344  0.8675  0.7458
19565SOL    HW262738   4.481   2.982   5.683  1.2684  1.3224 -0.0665
19566SOL     OW62739   1.190   1.802   4.116 -0.0078  0.2881  0.3633
19566SOL    HW162740   1.123   1.784   4.181 -0.1747 -1.5339 -0.2564
19566SOL    HW262741   1.142   1.812   4.033  0.3126  1.1645  0.2742
19567SOL     OW62742   7.406   3.097   1.741 -0.7270  0.4613 -0.1070
19567SOL    HW162743   7.384   3.022   1.796  0.3397  1.5608  1.9634
19567SOL    HW262744   7.422   3.168   1.804 -0.5500  2.1101 -1.9292
19568SOL     OW62745   8.633   1.302   9.660 -0.6162  0.2419 -0.5496
19568SOL    HW162746   8.586   1.219   9.649  0.4044 -0.2715 -1.2838
19568SOL    HW262747   8.682   1.292   9.741  0.6687 -0.5021 -1.3773
19569SOL     OW62748   0.698   4.032   5.020  0.0517 -0.1456 -0.5636
19569SOL    HW162749   0.715   4.093   4.948  0.9210  0.7147  0.3272
19569SOL    HW262750   0.630   3.973   4.988 -0.6116  1.1335 -1.5555
19570SOL     OW62751   4.764   2.045   0.824 -0.2523  0.4811 -0.0833
19570SOL    HW162752   4.775   2.139   0.812  0.7439  0.3670 -0.2296
19570SOL    HW262753   4.794   2.028   0.913  1.0849  0.1111 -0.5719
19571SOL     OW62754   1.529   9.623   1.980  0.0881 -0.4474 -0.5694
19571SOL    HW162755   1.608   9.671   2.007  0.2593 -0.4968 -0.9743
19571SOL    HW262756   1.562   9.555   1.921  0.0898 -2.3116  1.4627
19572SOL     OW62757   1.435   4.387   8.392 -0.2658  0.5368 -0.0374
19572SOL    HW162758   1.413   4.337   8.313 -1.8527  0.2087  0.5728
19572SOL    HW262759   1.396   4.473   8.377  0.1046  0.7272  0.0711
19573SOL     OW62760   8.702   0.890   1.600 -0.3248  0.4522  1.0205
19573SOL    HW162761   8.793   0.913   1.580 -0.0182  0.2087  2.0654
19573SOL    HW262762   8.695   0.797   1.578 -0.4345  0.5613  0.5826
19574SOL     OW62763   6.814   6.397   7.638 -0.0040 -0.0152 -0.7438
19574SOL    HW162764   6.772   6.335   7.698 -0.4969 -0.1763 -1.2514
19574SOL    HW262765   6.872   6.343   7.585 -0.2781 -0.0145 -1.0472
19575SOL     OW62766   2.841   8.059   4.086  0.4081 -0.1970  0.5073
19575SOL    HW162767   2.848   8.056   3.990  0.8151 -0.0915  0.5304
19575SOL    HW262768   2.773   8.124   4.103  0.8642  0.3468  0.3010
19576SOL     OW62769   2.973   8.963   6.516 -0.7880 -0.1272 -0.2101
19576SOL    HW162770   2.928   8.888   6.478 -0.6485  0.1823 -1.0211
19576SOL    HW262771   2.946   9.038   6.462  1.4771 -0.0898 -1.4506
19577SOL     OW62772   1.429   0.342   9.899 -0.1534 -0.7449  0.0044
19577SOL    HW162773   1.341   0.332   9.935 -0.0409 -0.4925  0.3526
19577SOL    HW262774   1.488   0.324   9.972  0.0671  1.2102  0.3539
19578SOL     OW62775   2.193   5.964   7.626  0.6968  0.3198 -0.1294
19578SOL    HW162776   2.132   5.978   7.699 -0.5966 -0.8100 -0.9525
19578SOL    HW262777   2.245   5.888   7.653  0.0447 -0.2603 -0.4571
19579SOL     OW62778   8.979   3.175   5.262 -0.4855 -0.1744 -0.3450
19579SOL    HW162779   9.075   3.175   5.264 -0.4688  1.2397  0.6139
19579SOL    HW262780   8.953   3.094   5.305  0.2809 -0.1580  0.1537
19580SOL     OW62781   3.614   4.908   2.654 -0.6769  0.4249 -0.1175
19580SOL    HW162782   3.575   4.945   2.574 -0.2645  0.3271 -0.3655
19580SOL    HW262783   3.640   4.819   2.630 -1.3940  0.0678  0.3958
19581SOL     OW62784   2.817   0.880   2.454 -0.7128  0.4568  0.1638
19581SOL    HW162785   2.826   0.972   2.478 -1.9398  0.4111  0.8595
19581SOL    HW262786   2.802   0.882   2.359  1.5854  0.7996 -0.2373
19582SOL     OW62787   1.212   7.072   7.763 -0.3118 -0.2502  0.5793
19582SOL    HW162788   1.240   6.996   7.813 -0.3879 -0.8168 -0.2281
19582SOL    HW262789   1.124   7.050   7.733 -0.5951  0.4292  0.8778
19583SOL     OW62790   5.854   4.433   1.472  0.1830  0.6822  0.6580
19583SOL    HW162791   5.815   4.398   1.391  1.2933 -1.0974  0.8250
19583SOL    HW262792   5.946   4.444   1.451  0.5409 -0.0607  1.7317
19584SOL     OW62793   7.810   6.776   1.755  0.5263  0.1197 -0.0765
19584SOL    HW162794   7.834   6.684   1.748 -0.9272 -0.2067 -1.2457
19584SOL    HW262795   7.721   6.775   1.790  0.7895  1.1310  0.6725
19585SOL     OW62796   8.725   1.279   4.614  0.3197  0.2225  0.3746
19585SOL    HW162797   8.662   1.218   4.651 -1.0308  1.7186  0.6510
19585SOL    HW262798   8.803   1.226   4.596 -0.9172 -1.6263  0.2475
19586SOL     OW62799   6.796   8.665   3.116 -0.0201 -0.6750  1.2418
19586SOL    HW162800   6.732   8.595   3.102 -0.0778 -0.5817  1.0211
19586SOL    HW262801   6.881   8.620   3.120  0.0772 -0.6620 -0.1085
19587SOL     OW62802   1.229   7.662   4.305  0.1128  0.6716  0.1655
19587SOL    HW162803   1.205   7.580   4.263  0.9095  1.0683 -1.1114
19587SOL    HW262804   1.254   7.720   4.233  2.8552  0.9452  1.2304
19588SOL     OW62805   4.989   0.543   6.430 -0.0788 -0.9306 -0.1429
19588SOL    HW162806   5.070   0.586   6.457 -0.3996 -0.5988  0.3177
19588SOL    HW262807   4.970   0.578   6.343  0.0143 -0.6435 -0.0479
19589SOL     OW62808   5.234   5.136   1.793 -0.5263  0.2401  0.4859
19589SOL    HW162809   5.289   5.062   1.766 -1.9205 -1.4794  2.1046
19589SOL    HW262810   5.272   5.164   1.876 -0.2929  1.0739  0.1098
19590SOL     OW62811   0.497   9.269   6.523 -0.4575  0.3572 -0.1778
19590SOL    HW162812   0.566   9.298   6.464 -1.4691  0.5598 -1.2759
19590SOL    HW262813   0.522   9.179   6.545  0.4092  0.5890 -0.1649
19591SOL     OW62814   0.400   5.023   1.729  0.3517 -0.6171 -0.0296
19591SOL    HW162815   0.490   5.026   1.698 -0.0625 -1.2125 -1.3147
19591SOL    HW262816   0.349   5.065   1.660 -0.5306 -1.5452  0.0328
19592SOL     OW62817   2.944   2.212   4.957  0.2631 -0.0017 -0.3204
19592SOL    HW162818   2.920   2.278   4.891  0.3773  1.9102  1.4341
19592SOL    HW262819   2.879   2.143   4.947 -0.7489  1.0352 -1.3144
19593SOL     OW62820   1.591   2.324   8.455 -0.5080 -0.5185 -0.1769
19593SOL    HW162821   1.666   2.296   8.508  0.5678  1.0220 -0.8077
19593SOL    HW262822   1.560   2.243   8.414  1.0596 -1.1678 -0.1816
19594SOL     OW62823   7.906   3.438   0.138 -0.2872  0.1325  0.5377
19594SOL    HW162824   7.933   3.367   0.197 -1.3506 -1.1804 -0.4864
19594SOL    HW262825   7.837   3.484   0.186 -0.0555  0.0643  0.9427
19595SOL     OW62826   7.953   4.728   3.703  0.0284 -0.1873 -0.1377
19595SOL    HW162827   7.931   4.678   3.782  1.8173 -0.4396  0.2488
19595SOL    HW262828   7.872   4.731   3.653 -0.5843 -1.9813  0.6554
19596SOL     OW62829   2.569   7.157   6.788  0.0113  0.4590 -0.3395
19596SOL    HW162830   2.558   7.243   6.828 -1.4976 -0.0239  0.3426
19596SOL    HW262831   2.612   7.104   6.856  0.9925  0.6626 -0.7787
19597SOL     OW62832  10.214   3.635   8.981 -0.4960 -0.0441 -0.2449
19597SOL    HW162833  10.285   3.639   9.044  0.7855  0.4979 -1.6447
19597SOL    HW262834  10.164   3.716   8.995  0.5223  0.6920 -0.7255
19598SOL     OW62835   8.100   9.800   9.353 -0.0417 -0.2280  0.1495
19598SOL    HW162836   8.170   9.834   9.408 -0.2708 -0.6805  0.7389
19598SOL    HW262837   8.020   9.836   9.392 -0.2463 -0.9976  0.4613
19599SOL     OW62838   6.289   0.701   0.559 -0.1455  0.4775  0.5602
19599SOL    HW162839   6.236   0.629   0.591  1.6903 -1.3821 -0.2987
19599SOL    HW262840   6.246   0.729   0.478  0.1264 -1.0223 -0.1425
19600SOL     OW62841   4.190   8.355   8.126  0.2556  0.4177  0.0780
19600SOL    HW162842   4.244   8.301   8.183  1.7251 -0.2393 -1.8058
19600SOL    HW262843   4.101   8.327   8.143  0.9303 -2.3063 -0.4312
19601SOL     OW62844   0.169   1.235   7.880  0.5204 -0.0970 -0.0580
19601SOL    HW162845   0.171   1.162   7.819  0.1538  0.3754 -0.6472
19601SOL    HW262846   0.102   1.211   7.944 -1.5233  0.8408 -1.7189
19602SOL     OW62847   9.777   5.355   2.592 -0.3736  0.2522 -0.2228
19602SOL    HW162848   9.689   5.337   2.558 -0.4219 -0.1735  0.1183
19602SOL    HW262849   9.771   5.335   2.685 -0.8360  3.5445  0.5780
19603SOL     OW62850   9.233   6.917   1.338 -0.3313 -0.2863  0.0541
19603SOL    HW162851   9.313   6.926   1.286 -0.5134  0.5137 -0.0871
19603SOL    HW262852   9.241   6.983   1.407 -1.0746  0.1119 -0.2284
19604SOL     OW62853   2.061   5.434   3.963  0.1898  0.0278  0.1312
19604SOL    HW162854   2.023   5.347   3.959  1.2827 -0.5310  1.2208
19604SOL    HW262855   2.156   5.419   3.966  0.4250  1.2773 -0.2803
19605SOL     OW62856   8.726   5.864   8.936  0.1004 -0.5071  0.4495
19605SOL    HW162857   8.644   5.816   8.940 -0.8859  1.1096  0.5899
19605SOL    HW262858   8.707   5.948   8.978  1.9478 -0.2494  0.8531
19606SOL     OW62859   9.150   3.940   5.443 -0.0923 -0.3783  0.6211
19606SOL    HW162860   9.240   3.950   5.414 -0.8025  1.1573 -1.3099
19606SOL    HW262861   9.099   3.994   5.382 -2.2258 -0.5330  2.1466
19607SOL     OW62862   7.212   1.475   5.514 -0.2461 -0.4769  0.6477
19607SOL    HW162863   7.192   1.427   5.434 -1.0612  0.2660  0.3926
19607SOL    HW262864   7.285   1.427   5.553  0.4190 -0.6334 -0.7327
19608SOL     OW62865   1.688   0.668   2.386 -0.2685 -0.2818  0.3003
19608SOL    HW162866   1.668   0.643   2.295 -2.3943  2.1269 -0.0027
19608SOL    HW262867   1.658   0.593   2.438  0.3130 -1.3946 -0.8986
19609SOL     OW62868   8.211   6.261   8.682 -0.4030 -0.4283  0.3310
19609SOL    HW162869   8.164   6.298   8.757 -1.2180 -2.3832  0.8528
19609SOL    HW262870   8.197   6.166   8.690 -0.0493 -0.7196 -1.9891
19610SOL     OW62871   5.404   3.161   8.312  0.4464 -0.2372  0.1339
19610SOL    HW162872   5.312   3.157   8.285  0.7556 -0.6179 -0.9152
19610SOL    HW262873   5.428   3.253   8.301  0.5434 -0.3739 -0.8203
19611SOL     OW62874   9.763   8.278   1.444  0.0258 -0.0421 -0.0727
19611SOL    HW162875   9.768   8.332   1.365  1.2490 -1.1476 -0.7849
19611SOL    HW262876   9.669   8.267   1.460 -0.3945 -2.3935 -3.2311
19612SOL     OW62877   0.261   6.600   3.348 -0.0688  0.1683 -0.1867
19612SOL    HW162878   0.188   6.658   3.331  0.4174  0.7781 -0.2233
19612SOL    HW262879   0.280   6.611   3.441  1.2864  1.5964 -0.5820
19613SOL     OW62880   7.790   9.089   0.968 -0.3772  0.2458  0.1904
19613SOL    HW162881   7.841   9.160   0.930 -1.0350  0.9483  0.5767
19613SOL    HW262882   7.713   9.082   0.911 -0.0824 -0.4835 -0.1195
19614SOL     OW62883   5.032   3.999   6.304  0.4236  0.1009 -0.0205
19614SOL    HW162884   4.962   3.949   6.346 -1.2253  0.5572 -2.0209
19614SOL    HW262885   5.112   3.953   6.328 -0.5238 -0.4947  2.3041
19615SOL     OW62886   0.340   1.113   6.889 -0.1127 -0.2823 -0.1957
19615SOL    HW162887   0.416   1.057   6.905 -0.8562 -1.5410 -0.8895
19615SOL    HW262888   0.350   1.143   6.799  0.1590  0.5374  0.0966
19616SOL     OW62889   2.937   6.461   0.793  0.0123 -0.2739 -0.0842
19616SOL    HW162890   3.003   6.491   0.731  0.9876  0.8341  1.4428
19616SOL    HW262891   2.864   6.432   0.737  1.5616 -1.0927 -1.7930
19617SOL     OW62892   9.024   8.484   1.787  0.0068  0.0020 -0.0918
19617SOL    HW162893   9.098   8.517   1.736  0.6835 -2.9603 -1.2311
19617SOL    HW262894   8.950   8.488   1.727 -0.8428  2.6945  0.9583
19618SOL     OW62895  10.115   4.117   8.286 -0.5943  0.5200  0.2968
19618SOL    HW162896  10.079   4.029   8.292 -0.3604  0.2871 -1.1753
19618SOL    HW262897  10.210   4.104   8.288 -0.5604  0.7595  0.3146
19619SOL     OW62898   6.505   0.415   9.867 -0.2960 -0.2674  0.0068
19619SOL    HW162899   6.555   0.478   9.816  1.2412 -2.6263 -1.6002
19619SOL    HW262900   6.571   0.371   9.922 -1.4175 -0.0939  1.5572
19620SOL     OW62901   8.167   3.678   6.555 -0.0156  0.2618 -0.7797
19620SOL    HW162902   8.259   3.699   6.542  0.4107 -0.3690  0.9713
19620SOL    HW262903   8.122   3.762   6.547  1.3098  1.5875  3.1862
19621SOL     OW62904   5.824   0.709   1.795  0.8823  0.3429  0.1682
19621SOL    HW162905   5.742   0.730   1.750  1.1706  1.7149  0.2186
19621SOL    HW262906   5.801   0.709   1.888  0.7797 -0.0373  0.1413
19622SOL     OW62907   8.552   0.224   9.825 -0.0323 -0.5882 -0.2884
19622SOL    HW162908   8.619   0.257   9.885  0.7611  0.6894 -1.7956
19622SOL    HW262909   8.533   0.136   9.856  0.5072 -0.0530  1.6770
19623SOL     OW62910   7.779   8.555   1.311 -0.2426 -0.1126 -0.0275
19623SOL    HW162911   7.725   8.632   1.298 -2.2422 -1.1721  1.4894
19623SOL    HW262912   7.743   8.490   1.250  0.5548 -0.2956 -0.3240
19624SOL     OW62913   2.578   9.917   4.878  0.0850  0.2177  0.5729
19624SOL    HW162914   2.549   9.995   4.925  1.0948  0.5848  0.6170
19624SOL    HW262915   2.578   9.944   4.786  1.5005  0.6520  0.6765
19625SOL     OW62916   5.315   9.080   6.610 -0.6377  0.4588 -0.2166
19625SOL    HW162917   5.257   9.134   6.557 -1.3661 -0.5876 -0.5056
19625SOL    HW262918   5.260   9.006   6.639  0.5779 -0.6481 -0.6421
19626SOL     OW62919   3.003   7.217   6.882  0.3347 -0.5027  0.1755
19626SOL    HW162920   3.002   7.303   6.924  2.5088  0.9481 -2.4784
19626SOL    HW262921   2.934   7.168   6.927 -1.3507  2.7605  1.4561
19627SOL     OW62922   6.113   7.639   6.527  0.7308 -0.9047 -0.4154
19627SOL    HW162923   6.116   7.710   6.590 -0.1408 -0.3664 -0.9574
19627SOL    HW262924   6.158   7.566   6.570  1.1021 -0.2183  0.3810
19628SOL     OW62925   8.485   3.528   6.536 -0.4497  0.1922  0.4305
19628SOL    HW162926   8.510   3.480   6.457  0.2555 -0.2174  0.8923
19628SOL    HW262927   8.493   3.620   6.512  0.4261  0.0719  0.2230
19629SOL     OW62928   9.151   1.217   0.296 -0.2104 -0.5714 -0.0708
19629SOL    HW162929   9.113   1.165   0.224 -2.5517  1.5899 -0.5509
19629SOL    HW262930   9.188   1.294   0.253  2.9551 -1.5527  0.6497
19630SOL     OW62931   2.962  10.167   3.514  0.3896  0.8241 -0.2566
19630SOL    HW162932   2.870  10.155   3.490 -0.0516  0.5964  1.4195
19630SOL    HW262933   2.963  10.240   3.576  1.6992  2.4977 -2.1385
19631SOL     OW62934   2.386   6.847   1.766  0.2781  0.0864 -0.0115
19631SOL    HW162935   2.362   6.765   1.810  2.4470 -1.0024 -0.7180
19631SOL    HW262936   2.326   6.852   1.692 -2.4890  1.2394  2.1294
19632SOL     OW62937   4.818   6.231   0.412 -0.1586 -0.1369  0.4901
19632SOL    HW162938   4.755   6.215   0.482 -1.9416  3.5365 -0.0258
19632SOL    HW262939   4.902   6.238   0.456 -0.9755  0.2989  2.0667
19633SOL     OW62940   3.022   1.677   3.214 -0.4330 -0.3769 -0.2108
19633SOL    HW162941   3.042   1.631   3.133 -1.4776  1.9991 -1.9415
19633SOL    HW262942   2.930   1.702   3.205 -0.1518  1.2885  0.9832
19634SOL     OW62943   8.219   1.696   4.444 -0.8566  0.1738  0.1192
19634SOL    HW162944   8.134   1.718   4.482 -0.3077  0.8661  0.9786
19634SOL    HW262945   8.280   1.758   4.484 -0.0107 -0.0446 -0.7967
19635SOL     OW62946   0.650   2.639   5.844  0.1128  0.1062  0.1915
19635SOL    HW162947   0.660   2.545   5.828  0.2080 -0.2575  2.1628
19635SOL    HW262948   0.637   2.677   5.757  0.1176 -1.7162 -0.6442
19636SOL     OW62949   5.765   8.803   0.102 -0.0812  0.0211 -0.1244
19636SOL    HW162950   5.792   8.841   0.019  0.0273  0.2529  0.0157
19636SOL    HW262951   5.794   8.866   0.168  1.1608 -0.8573  0.2016
19637SOL     OW62952   7.199   9.808   5.175 -0.1108 -0.4814 -0.2408
19637SOL    HW162953   7.246   9.758   5.241  1.6321  0.9995 -0.2769
19637SOL    HW262954   7.221   9.766   5.092 -0.2342 -0.7943 -0.1181
19638SOL     OW62955   9.813   8.428   2.281  0.4142  0.1164 -0.4190
19638SOL    HW162956   9.747   8.387   2.336 -1.1316  0.4450 -1.9661
19638SOL    HW262957   9.846   8.358   2.225  1.5868 -0.0967  0.4893
19639SOL     OW62958   4.909   5.600   9.935  0.6210  0.6214  0.1345
19639SOL    HW162959   4.926   5.506   9.940 -0.5669  0.4117  0.3546
19639SOL    HW262960   4.861   5.620  10.016  1.7187  1.6142  0.5801
19640SOL     OW62961   2.604   6.366   1.781  0.0937 -0.9107 -0.5267
19640SOL    HW162962   2.586   6.391   1.872 -0.2735 -0.1080 -0.8137
19640SOL    HW262963   2.558   6.282   1.770 -0.3694 -0.7096 -0.1516
19641SOL     OW62964   5.252   2.686   9.164 -0.5576 -0.5739  0.3989
19641SOL    HW162965   5.335   2.643   9.185 -0.0856 -0.3662 -0.9424
19641SOL    HW262966   5.254   2.768   9.213 -1.2450 -1.8038  2.5846
19642SOL     OW62967   6.325   1.045   3.679 -0.1410  0.5276  0.1254
19642SOL    HW162968   6.272   1.107   3.730 -0.3789  2.1430 -1.9480
19642SOL    HW262969   6.276   0.963   3.683 -1.2996  1.2136  0.6514
19643SOL     OW62970   1.290   8.265   0.602 -0.2407 -0.6368  0.1132
19643SOL    HW162971   1.194   8.259   0.600 -0.2316 -1.0243  0.6137
19643SOL    HW262972   1.310   8.347   0.556 -0.8633 -0.0628  0.8470
19644SOL     OW62973   3.409   4.528   6.731 -0.1808 -0.7276  0.5755
19644SOL    HW162974   3.498   4.550   6.704  0.3571 -1.7322  1.4515
19644SOL    HW262975   3.411   4.534   6.826 -1.0533 -0.7866  0.6034
19645SOL     OW62976   5.476   5.105   7.718  0.7764 -0.3409 -0.1845
19645SOL    HW162977   5.458   5.103   7.812 -0.5935 -2.3468 -0.4149
19645SOL    HW262978   5.530   5.028   7.702  2.0756  0.6743 -0.8979
19646SOL     OW62979   9.490   7.805  10.165  0.0646 -0.0407  0.3479
19646SOL    HW162980   9.506   7.821  10.072  0.2494 -2.8495 -0.1863
19646SOL    HW262981   9.448   7.719  10.168  0.1291 -0.0675  2.8753
19647SOL     OW62982   2.910   4.528   2.428 -0.0163 -0.1629  0.0840
19647SOL    HW162983   2.929   4.543   2.521  1.3900  1.8048 -0.4682
19647SOL    HW262984   2.967   4.455   2.404  0.5857  0.1812  0.4540
19648SOL     OW62985   2.658   5.915   1.260  0.3126  0.3420  0.1382
19648SOL    HW162986   2.728   5.880   1.205  0.8725  0.5560  0.6996
19648SOL    HW262987   2.618   5.983   1.207  1.6544  1.4073  0.4315
19649SOL     OW62988   5.756   5.971  10.210 -0.7476 -0.6828  0.2882
19649SOL    HW162989   5.669   5.967  10.248 -0.9417 -0.9056 -0.1716
19649SOL    HW262990   5.811   6.008  10.279 -1.6369  1.6764 -0.1862
19650SOL     OW62991   1.148   8.438   4.325 -0.2609  0.4033  0.6807
19650SOL    HW162992   1.087   8.444   4.399  0.4560  0.3814  1.2774
19650SOL    HW262993   1.190   8.353   4.335  0.1153  0.5628  0.4592
19651SOL     OW62994   2.609   7.642   6.004 -0.1686 -0.0426  0.4062
19651SOL    HW162995   2.601   7.695   5.925  0.1211 -0.2447  0.2393
19651SOL    HW262996   2.699   7.608   6.001 -0.0398  0.2269  0.9946
19652SOL     OW62997   9.409   2.754   4.107  0.0570  0.2189  0.1078
19652SOL    HW162998   9.390   2.730   4.017 -2.4404 -1.6766  1.0090
19652SOL    HW262999   9.369   2.841   4.117 -0.4364  0.0533 -0.3829
19653SOL     OW63000   2.313   2.829   2.527 -0.2264 -0.0549  0.6367
19653SOL    HW163001   2.278   2.822   2.616  0.5238 -0.6968  0.8975
19653SOL    HW263002   2.327   2.923   2.514 -0.6794  0.0742  1.0616
19654SOL     OW63003   9.456   2.750   4.498 -0.3108 -0.6480  0.8478
19654SOL    HW163004   9.492   2.805   4.567  0.5968  0.0033 -0.1212
19654SOL    HW263005   9.378   2.797   4.468  1.7485  1.5054 -1.6396
19655SOL     OW63006   8.916   7.654   0.018  0.2813  0.1663 -0.2803
19655SOL    HW163007   8.957   7.739   0.003 -0.7079  0.3269 -2.5186
19655SOL    HW263008   8.899   7.651   0.112  0.6514  2.2794 -0.1012
19656SOL     OW63009   4.392   9.012   8.156 -0.1785 -0.0985  0.1622
19656SOL    HW163010   4.469   8.988   8.207 -0.0244 -1.9714 -0.8463
19656SOL    HW263011   4.421   9.010   8.065 -1.4345 -1.0224 -0.2556
19657SOL     OW63012   1.413   7.154   7.577 -0.3447 -0.4730 -0.2226
19657SOL    HW163013   1.370   7.141   7.661 -0.4385 -0.3767 -0.2570
19657SOL    HW263014   1.415   7.248   7.565  0.1396 -0.4596 -0.0817
19658SOL     OW63015   9.365   4.708  10.214 -0.0660 -0.4731  0.1869
19658SOL    HW163016   9.450   4.667  10.203  0.2526 -0.5823  2.5612
19658SOL    HW263017   9.362   4.778  10.149  1.8203 -0.5024  0.0429
19659SOL     OW63018   6.506   8.719   1.301 -0.3331  0.3978 -0.5688
19659SOL    HW163019   6.494   8.796   1.356  1.1369  0.2934 -0.0433
19659SOL    HW263020   6.465   8.648   1.350  1.7398  0.1290  0.9162
19660SOL     OW63021   5.728   1.423   3.796  0.8752 -0.5447  0.1490
19660SOL    HW163022   5.707   1.371   3.718  0.4154  1.2857 -1.0330
19660SOL    HW263023   5.783   1.366   3.849  0.5378 -2.1527 -1.1350
19661SOL     OW63024   9.806   0.267   0.869 -0.2085  0.0384 -0.4194
19661SOL    HW163025   9.788   0.308   0.954  1.1503  0.1255 -0.1542
19661SOL    HW263026   9.772   0.179   0.878  2.1814 -0.8250  1.1957
19662SOL     OW63027   6.181   4.796   9.776  0.4026 -0.4123 -0.1843
19662SOL    HW163028   6.098   4.827   9.812  2.1037  2.1075  1.8948
19662SOL    HW263029   6.214   4.869   9.723  1.2821 -1.3954 -1.0483
19663SOL     OW63030   7.712   9.831   1.504  0.4044  0.0825  0.0597
19663SOL    HW163031   7.792   9.859   1.460  0.4942 -0.2924 -0.0227
19663SOL    HW263032   7.719   9.735   1.506 -0.4646 -0.0140 -0.7625
19664SOL     OW63033   3.884   6.306   8.650 -0.0394  0.1705 -0.7262
19664SOL    HW163034   3.853   6.393   8.674 -3.1235 -1.4228  1.9406
19664SOL    HW263035   3.950   6.284   8.717 -0.7203 -0.2189 -0.1626
19665SOL     OW63036   0.865   2.522   3.132 -0.3888 -0.9086  0.2335
19665SOL    HW163037   0.794   2.482   3.082 -0.5759 -0.6464  0.2837
19665SOL    HW263038   0.941   2.517   3.075 -0.4881 -1.0393  0.1125
19666SOL     OW63039   8.672   4.226   9.380  0.0563  0.2043 -0.0048
19666SOL    HW163040   8.646   4.252   9.292  0.2069  1.2423  0.2365
19666SOL    HW263041   8.751   4.173   9.368 -0.4827 -0.4805 -0.5495
19667SOL     OW63042   3.061   1.304   1.010 -0.0240  0.1947  0.0939
19667SOL    HW163043   2.991   1.249   1.047 -0.6444  0.9666  0.0866
19667SOL    HW263044   3.094   1.353   1.085  1.0013 -0.6638  0.2322
19668SOL     OW63045   7.955   2.717   0.950 -0.1474 -0.2266 -0.1925
19668SOL    HW163046   8.037   2.694   0.994 -0.7545 -2.9428 -0.3179
19668SOL    HW263047   7.907   2.769   1.015  0.5830 -0.8589  0.8898
19669SOL     OW63048   8.480   9.361   4.960  0.2768 -0.1742  0.0743
19669SOL    HW163049   8.400   9.311   4.972  0.0867 -0.0452 -0.5734
19669SOL    HW263050   8.457   9.450   4.987  0.2119 -0.1512 -0.0500
19670SOL     OW63051   4.351   1.139   8.582  0.1644 -0.6712  0.0021
19670SOL    HW163052   4.351   1.184   8.666 -0.5143 -0.8295  0.0957
19670SOL    HW263053   4.355   1.209   8.517 -2.4505 -0.3262  0.1034
19671SOL     OW63054   5.961   9.004   2.774 -0.0133 -0.5605  0.1030
19671SOL    HW163055   5.996   9.003   2.685  1.1316  0.1972  0.5093
19671SOL    HW263056   5.926   9.092   2.785  2.3298  0.3313  1.2441
19672SOL     OW63057   9.755   1.092   9.665  0.2136 -0.1087  0.0648
19672SOL    HW163058   9.846   1.061   9.662  0.6774  1.2590 -1.2399
19672SOL    HW263059   9.738   1.105   9.758  0.8512 -1.7379  0.4528
19673SOL     OW63060   1.939   1.288   6.047  0.4514  0.6511 -0.3780
19673SOL    HW163061   1.963   1.367   6.095  0.9913  0.2354  0.0582
19673SOL    HW263062   1.846   1.277   6.062  0.3463  1.2857 -0.5641
19674SOL     OW63063   3.897   5.533   2.182  1.2861 -0.4776 -0.2542
19674SOL    HW163064   3.948   5.559   2.105  2.1343 -0.6654  0.2286
19674SOL    HW263065   3.913   5.603   2.246 -0.2043  0.1855 -0.5739
19675SOL     OW63066   9.706   6.089   0.719 -0.1446  0.9507  0.2750
19675SOL    HW163067   9.722   6.099   0.625 -0.9234 -0.4142 -0.0288
19675SOL    HW263068   9.686   6.178   0.749  2.0072  1.7366 -0.4324
19676SOL     OW63069  10.212   9.851   4.201 -0.5450 -0.4595  0.6720
19676SOL    HW163070  10.266   9.894   4.134 -0.2818  0.1299  1.2503
19676SOL    HW263071  10.122   9.874   4.176 -0.3664  1.5813  1.6933
19677SOL     OW63072   1.764   9.351   6.970  0.2905  0.3881 -0.1842
19677SOL    HW163073   1.792   9.310   7.052 -1.3176 -1.2239 -0.3616
19677SOL    HW263074   1.670   9.368   6.982  0.7159  3.4829 -0.4133
19678SOL     OW63075   2.671   0.263   0.321  0.2064  0.0868  0.3893
19678SOL    HW163076   2.676   0.212   0.402  0.4851  0.5333  0.6592
19678SOL    HW263077   2.617   0.338   0.343 -2.2151 -1.2376 -0.6496
19679SOL     OW63078   7.616   3.879   9.872 -0.1070  0.4012  0.6694
19679SOL    HW163079   7.566   3.946   9.825 -2.5180 -1.8568 -0.2401
19679SOL    HW263080   7.663   3.927   9.940  0.7844  3.3756 -1.8173
19680SOL     OW63081   1.408   9.510   6.077  0.1356  0.0569  0.1033
19680SOL    HW163082   1.440   9.519   5.988  1.3932 -0.3534  0.4894
19680SOL    HW263083   1.458   9.575   6.127 -0.3636  0.0964  0.5705
19681SOL     OW63084   5.916   2.365   9.055  0.0794 -0.1789 -0.3661
19681SOL    HW163085   5.821   2.377   9.060  0.0323 -0.3074 -0.8425
19681SOL    HW263086   5.946   2.367   9.146 -0.4468 -0.6530 -0.1780
19682SOL     OW63087   0.699   9.505   5.167 -0.2078  0.5024 -0.4312
19682SOL    HW163088   0.769   9.504   5.232 -1.3056 -0.6667  0.7987
19682SOL    HW263089   0.678   9.598   5.156  0.8743  0.8029 -0.1049
19683SOL     OW63090   1.188   7.199   4.599  0.1393 -0.4025  0.0358
19683SOL    HW163091   1.231   7.218   4.516 -0.2181 -1.6925 -0.4605
19683SOL    HW263092   1.110   7.150   4.576 -1.7951  2.0583  0.9131
19684SOL     OW63093   9.587   2.320   1.490 -0.2971  0.5387  0.8442
19684SOL    HW163094   9.671   2.351   1.524 -0.1193  0.6744  0.3055
19684SOL    HW263095   9.590   2.225   1.501  0.0197  0.5232  0.6395
19685SOL     OW63096   6.095   1.483   1.256 -0.1419 -0.1491  0.4006
19685SOL    HW163097   6.098   1.435   1.173 -0.1456 -1.2102  0.9933
19685SOL    HW263098   6.169   1.543   1.252 -0.0522 -0.2953 -0.3058
19686SOL     OW63099   7.586   8.595   5.083 -0.3909 -0.4774  0.0790
19686SOL    HW163100   7.549   8.523   5.133  1.3918 -0.9697  0.7552
19686SOL    HW263101   7.571   8.673   5.137 -1.6293 -0.4122 -0.3061
19687SOL     OW63102   7.536   0.131   8.460  0.1503  0.1633 -0.6836
19687SOL    HW163103   7.545   0.044   8.422 -0.0672 -0.7684  1.3121
19687SOL    HW263104   7.442   0.142   8.476  0.0801  1.0876 -1.5524
19688SOL     OW63105   5.693   9.675  10.193 -0.2126 -0.5950 -1.0985
19688SOL    HW163106   5.651   9.707  10.273  0.0341 -0.5690 -0.9778
19688SOL    HW263107   5.690   9.580  10.201  0.5197 -0.5854 -0.6857
19689SOL     OW63108   1.725   7.526   1.641  0.4131  0.0578  0.2667
19689SOL    HW163109   1.735   7.434   1.664  0.7300  0.1816  0.6340
19689SOL    HW263110   1.790   7.572   1.694  0.1120  0.5170  0.2492
19690SOL     OW63111   1.802   9.679   8.779 -0.8184 -0.2886  0.0376
19690SOL    HW163112   1.846   9.755   8.817  0.3805 -0.4033 -1.0151
19690SOL    HW263113   1.863   9.607   8.794 -2.1481 -1.1782  1.4302
19691SOL     OW63114   0.960   7.059   8.275 -0.3490 -0.2914 -0.1966
19691SOL    HW163115   0.929   6.994   8.338 -0.1900 -0.0126  0.1735
19691SOL    HW263116   0.969   7.011   8.193 -1.1193 -0.5269 -0.1527
19692SOL     OW63117   0.254   8.877   1.205  0.3520 -0.1851 -0.1135
19692SOL    HW163118   0.307   8.951   1.176  2.1285 -1.2826  0.1549
19692SOL    HW263119   0.314   8.825   1.260 -0.7148 -1.9810 -0.5668
19693SOL     OW63120   4.021   8.645   9.148 -0.0712 -0.5441 -0.1140
19693SOL    HW163121   3.962   8.588   9.196  1.2916 -1.2551  0.7785
19693SOL    HW263122   4.050   8.710   9.213 -1.0775  0.7904 -0.9425
19694SOL     OW63123   3.790   4.354   2.645  0.5252 -0.4685  0.0818
19694SOL    HW163124   3.729   4.283   2.624  0.4413 -0.6073  0.7529
19694SOL    HW263125   3.868   4.308   2.678  2.5387 -0.5508 -4.1089
19695SOL     OW63126   1.277   8.594   1.848  0.5125 -0.1215 -0.2522
19695SOL    HW163127   1.318   8.553   1.772  0.4208 -2.2313  0.7480
19695SOL    HW263128   1.183   8.589   1.831  0.5123  0.1029 -0.3237
19696SOL     OW63129   9.013   3.519   3.002  0.3325  0.3163 -0.2554
19696SOL    HW163130   9.003   3.442   2.947 -0.9264  0.4800 -0.2834
19696SOL    HW263131   8.953   3.504   3.076  1.9059  0.1439  1.0571
19697SOL     OW63132   9.304   2.228   4.619 -0.4059 -0.0975  0.1165
19697SOL    HW163133   9.349   2.293   4.565  0.4305  0.8821  1.9093
19697SOL    HW263134   9.215   2.226   4.585 -0.1258  1.0961 -0.7542
19698SOL     OW63135   6.356   7.801   8.241 -0.0166 -0.2966  0.6750
19698SOL    HW163136   6.375   7.875   8.299  2.1927  1.8144 -2.4387
19698SOL    HW263137   6.285   7.831   8.184  0.3375 -0.8818 -0.0976
19699SOL     OW63138  10.263   5.298   2.498  0.1189 -0.6929  0.8575
19699SOL    HW163139  10.338   5.325   2.551  2.0479  0.8598 -2.3474
19699SOL    HW263140  10.194   5.360   2.521  0.8500 -0.1458  1.6476
19700SOL     OW63141   8.284   5.208   6.835  0.2921 -0.5227  0.1986
19700SOL    HW163142   8.201   5.243   6.803  0.3787 -1.0604 -0.6303
19700SOL    HW263143   8.270   5.114   6.841  0.5492 -0.5232  0.9566
19701SOL     OW63144   7.418   2.506  10.021  0.0500  0.5813  0.2781
19701SOL    HW163145   7.338   2.535   9.977 -0.0729  2.1723  1.4433
19701SOL    HW263146   7.417   2.553  10.104  1.8128  0.0196  0.6508
19702SOL     OW63147   2.771   7.171  10.137 -0.3452 -0.2676 -0.1621
19702SOL    HW163148   2.709   7.170  10.210  1.2125 -2.6515  1.2808
19702SOL    HW263149   2.833   7.241  10.159  0.6899 -1.5994  1.4569
19703SOL     OW63150   4.301   3.417  10.181 -0.2216  0.3709 -0.1342
19703SOL    HW163151   4.206   3.422  10.194 -0.0696  2.0943  0.5879
19703SOL    HW263152   4.316   3.467  10.101  0.1181  0.3821 -0.0614
19704SOL     OW63153   8.851   2.517   6.147 -0.0353 -0.5046  0.1224
19704SOL    HW163154   8.875   2.605   6.119  3.0997 -0.5348  2.2211
19704SOL    HW263155   8.805   2.530   6.230  1.2834 -0.8561  0.9199
19705SOL     OW63156   8.554   3.313   5.621 -0.9540  0.7497  0.0094
19705SOL    HW163157   8.465   3.294   5.590 -2.5054  0.6871  3.9256
19705SOL    HW263158   8.545   3.393   5.673  1.6643  1.5926 -0.6902
19706SOL     OW63159   6.663   5.458   3.028 -0.0667  0.3962  0.6554
19706SOL    HW163160   6.669   5.532   2.968 -0.9043  2.2824  2.7769
19706SOL    HW263161   6.571   5.434   3.027  0.5251 -2.3901 -1.8748
19707SOL     OW63162   9.053   6.082  10.060 -0.2679  0.6933  0.3385
19707SOL    HW163163   9.009   6.012  10.108 -1.1913  1.0380  0.0004
19707SOL    HW263164   9.140   6.046  10.042 -0.3252  0.0894  1.1872
19708SOL     OW63165   7.374   1.366   5.033  0.1220  0.1260 -0.2725
19708SOL    HW163166   7.430   1.434   5.071 -1.0959  0.6069  0.7313
19708SOL    HW263167   7.301   1.414   4.994 -0.3966 -0.5716 -0.1734
19709SOL     OW63168   0.522   5.499   0.476 -0.3302  0.5624  0.3128
19709SOL    HW163169   0.611   5.520   0.502 -0.6573  1.6821  0.5958
19709SOL    HW263170   0.531   5.428   0.412  0.9245  2.0386 -1.2343
19710SOL     OW63171   6.334   9.526   8.615  0.3147  0.5553  0.0111
19710SOL    HW163172   6.239   9.536   8.607  0.2863  0.6466  0.4421
19710SOL    HW263173   6.346   9.478   8.696  0.5969 -0.3062 -0.5368
19711SOL     OW63174   0.773   1.330   4.777  0.4906 -0.1495  0.8289
19711SOL    HW163175   0.862   1.366   4.780  0.8267 -1.0038  2.0139
19711SOL    HW263176   0.719   1.399   4.814  1.0786 -0.6298  2.7232
19712SOL     OW63177   3.270   5.553   1.947  0.2339 -0.3096 -0.2893
19712SOL    HW163178   3.363   5.577   1.952  0.4077 -0.9218 -0.4993
19712SOL    HW263179   3.223   5.634   1.968  0.8256 -0.2966  1.1373
19713SOL     OW63180   2.663   0.194   5.100  0.5341 -0.3696  0.1600
19713SOL    HW163181   2.625   0.111   5.131  0.0521 -0.4077 -0.5058
19713SOL    HW263182   2.657   0.252   5.175 -0.0557 -0.6437  0.3330
19714SOL     OW63183   1.743   4.457   9.838 -0.0057  0.1026 -0.1163
19714SOL    HW163184   1.832   4.450   9.872  0.0216  1.2630  0.0920
19714SOL    HW263185   1.714   4.544   9.865 -1.4000 -0.4584  0.2728
19715SOL     OW63186   5.512   5.865   4.180  0.4330 -0.0917 -0.2994
19715SOL    HW163187   5.425   5.828   4.193  0.6066 -0.8550 -1.2091
19715SOL    HW263188   5.534   5.905   4.264 -0.1553 -1.2493  0.4283
19716SOL     OW63189  10.223   2.484   1.018 -0.0019  0.1484  0.0336
19716SOL    HW163190  10.230   2.509   0.926 -0.2102  0.0091 -0.0191
19716SOL    HW263191  10.297   2.528   1.060  1.1294 -1.1774 -0.4982
19717SOL     OW63192   4.644   8.419   2.644  0.0786  0.2362  0.1163
19717SOL    HW163193   4.720   8.395   2.698 -0.7466  1.9514  2.2320
19717SOL    HW263194   4.658   8.512   2.624 -1.1738  0.4373  0.0973
19718SOL     OW63195   4.508   1.480   6.437  0.4385  0.5361  0.2846
19718SOL    HW163196   4.507   1.499   6.530 -1.1507  0.4955  0.3096
19718SOL    HW263197   4.451   1.404   6.427  0.1601  0.8616 -0.7622
19719SOL     OW63198   5.069  10.043   5.507 -0.1108 -0.6568  0.2475
19719SOL    HW163199   5.069  10.107   5.578 -0.5519  0.5622 -0.8290
19719SOL    HW263200   5.123  10.082   5.439  0.5047 -1.9213 -0.0264
19720SOL     OW63201   2.054   0.539   5.354  0.0956  0.0876  0.0716
19720SOL    HW163202   2.106   0.617   5.332  1.1853 -0.5744  0.2203
19720SOL    HW263203   2.043   0.543   5.449 -1.4802  1.0249 -0.1079
19721SOL     OW63204   5.169   1.393   3.730  0.4527  0.7545 -0.2354
19721SOL    HW163205   5.235   1.389   3.800 -0.8017  2.1114  1.1003
19721SOL    HW263206   5.172   1.484   3.700 -2.3544  1.5827  1.5368
19722SOL     OW63207   5.083   8.134   0.145  0.2025  0.3568  0.2803
19722SOL    HW163208   5.162   8.095   0.107 -0.0521 -0.0878  0.2047
19722SOL    HW263209   5.048   8.190   0.075  0.7096  0.9392  0.4772
19723SOL     OW63210   9.654   7.561   3.153  0.4607 -0.2571  0.3626
19723SOL    HW163211   9.634   7.553   3.246  1.3829  0.4899  0.6367
19723SOL    HW263212   9.585   7.617   3.118  0.5504  0.1017  0.7590
19724SOL     OW63213   9.412   2.148   4.335  0.1801  0.0138 -0.5793
19724SOL    HW163214   9.431   2.185   4.249 -0.3241 -0.2997 -0.8311
19724SOL    HW263215   9.317   2.141   4.337  0.2544 -1.3705 -0.5916
19725SOL     OW63216   5.423   8.552   5.288 -0.5479  0.6976 -0.2550
19725SOL    HW163217   5.361   8.536   5.359  0.8236 -0.1858  0.7970
19725SOL    HW263218   5.493   8.603   5.329 -0.7736  2.1358 -1.5485
19726SOL     OW63219   5.016   0.549   4.382  0.3635  0.2467  0.1110
19726SOL    HW163220   5.105   0.534   4.351  0.5444 -0.1306  0.8061
19726SOL    HW263221   4.962   0.490   4.329  0.3532  1.3839 -1.1946
19727SOL     OW63222   2.607   1.270   2.381  0.1145 -0.1757  0.3859
19727SOL    HW163223   2.665   1.226   2.443 -1.2461 -2.2501  0.2943
19727SOL    HW263224   2.591   1.204   2.313 -2.8322  0.0255  0.7489
19728SOL     OW63225   4.827   6.758   3.765  0.0785 -0.0706 -0.3119
19728SOL    HW163226   4.901   6.698   3.758  0.2941  0.3316 -1.7852
19728SOL    HW263227   4.750   6.702   3.750 -0.3987 -1.2947  4.9022
19729SOL     OW63228   2.230  10.016   8.587  0.1461  0.1253  0.1482
19729SOL    HW163229   2.313   9.968   8.581 -1.6693 -3.1324 -1.0045
19729SOL    HW263230   2.163   9.948   8.592 -2.5456  2.6251  0.5661
19730SOL     OW63231   6.782   8.953   1.278  1.2000  0.3452 -0.5074
19730SOL    HW163232   6.690   8.976   1.287  1.5314  1.8711 -0.8654
19730SOL    HW263233   6.784   8.892   1.204  0.3186 -0.8564  0.4229
19731SOL     OW63234   4.489   1.245   1.531 -0.2139 -0.3807  0.3745
19731SOL    HW163235   4.423   1.177   1.515  0.6264 -0.7914 -1.6655
19731SOL    HW263236   4.486   1.300   1.453  0.8621  0.4420  0.8850
19732SOL     OW63237   4.688   4.565   6.110  0.0164 -0.4553 -0.7998
19732SOL    HW163238   4.624   4.608   6.166  2.0218  0.9886  0.5231
19732SOL    HW263239   4.642   4.552   6.027 -1.8902  0.7191  0.0031
19733SOL     OW63240   8.684   3.044   6.433 -0.1440  0.2894 -0.1661
19733SOL    HW163241   8.746   3.089   6.376  1.3295 -0.7927  0.5249
19733SOL    HW263242   8.685   3.096   6.514 -1.3413  1.1474 -0.6727
19734SOL     OW63243   0.852   0.694   2.054 -0.9957  0.0919  0.1879
19734SOL    HW163244   0.830   0.780   2.089 -1.4544 -0.2443  0.7329
19734SOL    HW263245   0.875   0.642   2.131  1.8749  0.4432 -0.3111
19735SOL     OW63246  10.141   6.622   1.025 -0.0231 -0.0962 -0.0678
19735SOL    HW163247  10.234   6.599   1.025 -0.0444 -0.5028 -3.1558
19735SOL    HW263248  10.098   6.548   1.068  1.0787  0.6543  2.5614
19736SOL     OW63249   2.767   5.945   8.927 -0.0938  0.0301 -0.2375
19736SOL    HW163250   2.696   5.960   8.865 -0.7869 -1.2370  0.2226
19736SOL    HW263251   2.745   5.862   8.969  0.6758  0.5508  1.2601
19737SOL     OW63252   7.459   1.074   3.328 -0.2573  0.1036 -0.3318
19737SOL    HW163253   7.473   1.143   3.393 -1.5355 -0.7793  0.9422
19737SOL    HW263254   7.534   1.081   3.269 -0.4134  2.6785 -0.3626
19738SOL     OW63255   5.774   2.014   0.615 -0.0170 -0.1082 -0.2359
19738SOL    HW163256   5.738   2.033   0.702  0.8307  0.3513  0.0248
19738SOL    HW263257   5.812   1.927   0.624  0.8349  0.2841  0.1204
19739SOL     OW63258   7.913   2.801   1.495  0.0789  0.1064 -0.0520
19739SOL    HW163259   7.931   2.711   1.521 -1.6221  0.5482  3.2359
19739SOL    HW263260   7.977   2.853   1.542 -0.4638  0.7408  0.0074
19740SOL     OW63261   9.261   2.225   6.940 -0.4895  0.0654 -0.0759
19740SOL    HW163262   9.194   2.203   6.876 -0.9463 -1.5871  0.9307
19740SOL    HW263263   9.223   2.297   6.991 -0.9224  0.0556 -0.3854
19741SOL     OW63264   5.386   1.509   7.149 -0.2014 -0.1654 -0.1393
19741SOL    HW163265   5.350   1.593   7.122 -0.8446 -0.4150 -0.0585
19741SOL    HW263266   5.335   1.444   7.101 -1.2982 -0.6278  1.5578
19742SOL     OW63267   5.114   8.574   6.779 -0.2441 -0.3574 -0.2577
19742SOL    HW163268   5.130   8.628   6.856 -1.9809  0.0451 -0.1601
19742SOL    HW263269   5.168   8.496   6.793  0.7951  0.4774  0.5139
19743SOL     OW63270   1.662   2.346   0.634 -0.0348 -0.3268  0.2895
19743SOL    HW163271   1.699   2.259   0.616  0.4957 -0.3136  1.2513
19743SOL    HW263272   1.694   2.368   0.721  0.6085  1.2451 -0.2990
19744SOL     OW63273   7.666   7.136   2.102  0.1683  0.0376  0.4636
19744SOL    HW163274   7.749   7.088   2.108  0.8668  1.1431  0.0708
19744SOL    HW263275   7.645   7.158   2.193 -0.0786 -0.8666  0.6320
19745SOL     OW63276   9.680   0.863   3.338  0.2133  0.2026  0.4529
19745SOL    HW163277   9.769   0.885   3.366  0.1843 -0.8490  1.4386
19745SOL    HW263278   9.630   0.855   3.420 -0.7936  0.7901 -0.0865
19746SOL     OW63279   3.658   6.054   6.306  0.7388 -0.2985  0.2805
19746SOL    HW163280   3.684   6.104   6.228 -0.6978 -0.4059 -0.3089
19746SOL    HW263281   3.655   6.119   6.376 -2.0542  0.7467 -0.6807
19747SOL     OW63282  10.283   9.125   5.198  0.3293 -0.1807  0.0089
19747SOL    HW163283  10.194   9.127   5.163 -0.1079  0.0781  1.0929
19747SOL    HW263284  10.319   9.043   5.165  0.6132  0.8610 -2.5648
19748SOL     OW63285   5.719   0.640   8.090  0.1320  0.3747  0.0345
19748SOL    HW163286   5.644   0.582   8.104 -0.5562  1.5690  1.6405
19748SOL    HW263287   5.789   0.582   8.061 -0.5053 -1.2931  1.6018
19749SOL     OW63288   0.827   2.588   5.492  0.0682 -0.0170  0.1554
19749SOL    HW163289   0.768   2.555   5.424 -0.4526  2.0248 -0.4825
19749SOL    HW263290   0.782   2.665   5.527  2.0640  1.2695  0.0732
19750SOL     OW63291   9.035   6.598   6.697  0.0832  0.2327 -0.1076
19750SOL    HW163292   9.045   6.543   6.619 -0.3177 -0.0084  0.0093
19750SOL    HW263293   9.123   6.605   6.733  0.0525 -0.8210  0.2027
19751SOL     OW63294   6.739   0.042   7.234 -0.3005 -0.6839  0.4129
19751SOL    HW163295   6.689   0.118   7.265 -3.8277 -2.1401 -1.1523
19751SOL    HW263296   6.729  -0.023   7.304 -1.9107 -1.4268 -0.4401
19752SOL     OW63297   7.836   4.831   9.956 -0.2575  0.0037 -0.0497
19752SOL    HW163298   7.906   4.771   9.928 -0.5210 -0.6255  0.6192
19752SOL    HW263299   7.847   4.838  10.051 -1.7222 -0.9234  0.2135
19753SOL     OW63300   7.684   7.912   6.339 -0.0589  0.6410  0.4624
19753SOL    HW163301   7.772   7.939   6.314  0.5351  0.6615  2.4540
19753SOL    HW263302   7.658   7.974   6.406 -1.6376  0.6609 -0.1317
19754SOL     OW63303   6.803   4.849   2.654  0.3779  0.8094  0.3252
19754SOL    HW163304   6.892   4.828   2.624 -0.9425 -2.3309 -1.9179
19754SOL    HW263305   6.815   4.875   2.746  3.5564 -0.0825  0.3049
19755SOL     OW63306   1.176   0.421   5.872  0.7118  0.3129  0.1605
19755SOL    HW163307   1.131   0.368   5.938  0.2034 -0.9709 -1.1638
19755SOL    HW263308   1.256   0.372   5.854  0.0716 -0.2388 -1.3290
19756SOL     OW63309   8.945   8.704   4.972 -0.1212  0.3692 -0.5866
19756SOL    HW163310   8.900   8.640   4.917  1.7091  0.0738 -1.8224
19756SOL    HW263311   9.006   8.747   4.913  2.1272 -0.1221  1.2636
19757SOL     OW63312   5.876   7.608   4.910 -0.6018  0.3285 -0.4994
19757SOL    HW163313   5.854   7.701   4.905  1.5202  0.9596  0.6047
19757SOL    HW263314   5.922   7.589   4.828 -1.4210  0.1117 -0.9201
19758SOL     OW63315   2.662   0.287   7.981  0.5112  0.4935  0.1992
19758SOL    HW163316   2.633   0.363   8.031  1.2041  1.3523 -0.6725
19758SOL    HW263317   2.743   0.260   8.025 -0.2979 -0.4562  1.1844
19759SOL     OW63318   4.558   2.015   4.630 -0.0773 -0.0122  0.0799
19759SOL    HW163319   4.518   2.046   4.711 -0.1542  0.5040 -0.1495
19759SOL    HW263320   4.593   1.929   4.652 -3.7369 -1.8292 -0.3975
19760SOL     OW63321   0.711   0.313  10.142  0.3425 -0.1324  0.4300
19760SOL    HW163322   0.671   0.280  10.222  0.1324  1.1022  0.8512
19760SOL    HW263323   0.797   0.346  10.169  0.3553  0.0994  0.1221
19761SOL     OW63324   7.116   0.597   6.069  0.0968 -0.2935 -0.7407
19761SOL    HW163325   7.072   0.539   6.131  1.2810 -1.0500 -0.5688
19761SOL    HW263326   7.209   0.586   6.088  0.4212  0.3887 -1.8376
19762SOL     OW63327   4.767   4.978   2.618  0.4705 -0.4892  0.0660
19762SOL    HW163328   4.776   5.073   2.628  2.0950 -0.5947 -0.1124
19762SOL    HW263329   4.673   4.961   2.627  0.2462  1.0432  0.8538
19763SOL     OW63330   1.397   9.220   5.518  0.9639 -0.4406  0.0878
19763SOL    HW163331   1.368   9.310   5.530 -0.2502 -0.8023  0.0682
19763SOL    HW263332   1.472   9.226   5.459  1.8123  0.6639  1.2269
19764SOL     OW63333   4.658   7.592   5.334  0.2824 -0.4616  0.1867
19764SOL    HW163334   4.728   7.527   5.336  0.2830 -0.4601  0.2353
19764SOL    HW263335   4.697   7.671   5.371  0.9436  0.2293 -1.8865
19765SOL     OW63336   4.569   3.384   8.671  0.1644  0.1107 -0.0341
19765SOL    HW163337   4.597   3.466   8.630 -0.6682 -0.2119 -1.3300
19765SOL    HW263338   4.530   3.411   8.754 -2.1067  1.3307 -1.3944
19766SOL     OW63339   5.360   4.645   1.574  0.1305 -0.7994 -0.3987
19766SOL    HW163340   5.362   4.558   1.614 -0.8978 -0.3279  0.7663
19766SOL    HW263341   5.307   4.634   1.495  2.6004 -1.8533 -2.0310
19767SOL     OW63342   5.460   5.577   8.159 -0.2267  0.3974  0.5601
19767SOL    HW163343   5.476   5.537   8.074 -0.2546  1.2322  0.1488
19767SOL    HW263344   5.504   5.520   8.221 -1.2107 -0.8823  0.1283
19768SOL     OW63345   7.677   9.353   4.575 -0.1610  0.0410  0.2065
19768SOL    HW163346   7.769   9.358   4.602 -0.1710 -0.1093  0.2654
19768SOL    HW263347   7.663   9.261   4.554 -0.5339 -0.1005  1.0293
19769SOL     OW63348   5.415   8.804   0.472 -0.4393 -0.0640  0.1440
19769SOL    HW163349   5.379   8.754   0.545 -0.2054 -0.0021  0.3014
19769SOL    HW263350   5.470   8.741   0.425 -0.5082 -0.0759  0.0778
19770SOL     OW63351   9.929   2.235   2.334 -0.0839  0.0889 -0.3782
19770SOL    HW163352   9.943   2.149   2.375 -0.9589 -0.6490 -1.5485
19770SOL    HW263353   9.886   2.215   2.251 -0.2654  1.6740 -0.7014
19771SOL     OW63354   4.212   6.740   1.272  0.4049 -0.0067  0.8301
19771SOL    HW163355   4.284   6.800   1.293 -0.7561  1.9513 -0.4830
19771SOL    HW263356   4.255   6.656   1.256  2.2107  0.6932  1.6571
19772SOL     OW63357   6.632   8.050   3.538 -0.0305 -0.0786 -0.3342
19772SOL    HW163358   6.546   8.055   3.495 -0.4155 -1.4645  0.1866
19772SOL    HW263359   6.622   8.103   3.617 -0.6373 -0.7605  0.0566
19773SOL     OW63360   2.422   1.543   4.446 -1.0812 -0.2311 -0.1241
19773SOL    HW163361   2.398   1.618   4.500 -1.0189 -0.5562  0.3579
19773SOL    HW263362   2.515   1.556   4.427 -1.2680  0.2465 -0.7419
19774SOL     OW63363   0.906   7.251   1.294 -0.0560 -0.2122  0.0487
19774SOL    HW163364   0.987   7.264   1.343  1.9723  0.9804 -3.2882
19774SOL    HW263365   0.924   7.176   1.237 -0.8274  0.7315 -1.5138
19775SOL     OW63366   0.345   9.759   5.831 -0.3706 -0.4306 -0.3919
19775SOL    HW163367   0.338   9.763   5.736 -1.1578 -1.3761 -0.3854
19775SOL    HW263368   0.434   9.729   5.847 -1.0505 -2.9935 -0.9464
19776SOL     OW63369   2.583   0.262   0.797  0.0957  0.5743  0.5359
19776SOL    HW163370   2.590   0.356   0.783 -0.9493  0.7949  1.3248
19776SOL    HW263371   2.544   0.228   0.716 -1.1291  1.0880  0.8810
19777SOL     OW63372   6.192   4.234   9.552 -0.2505  0.2599 -0.3448
19777SOL    HW163373   6.129   4.186   9.606  0.9315 -1.0622 -0.0691
19777SOL    HW263374   6.233   4.296   9.612 -0.8492  0.7173 -0.3933
19778SOL     OW63375   3.830   9.335   4.045 -0.2757 -0.4217 -1.0738
19778SOL    HW163376   3.764   9.387   4.092 -2.2161 -1.7932 -2.1624
19778SOL    HW263377   3.809   9.244   4.067  1.3666 -0.9031 -1.3511
19779SOL     OW63378  10.280   7.690   6.503  0.1773  0.2684 -1.1370
19779SOL    HW163379  10.327   7.623   6.554 -1.0594  0.8981  0.9290
19779SOL    HW263380  10.192   7.655   6.493 -0.6645  1.7964  0.4973
19780SOL     OW63381   4.308   8.962   2.135  0.3204  0.1077 -0.4340
19780SOL    HW163382   4.224   8.924   2.107 -0.1140  1.6615 -1.3685
19780SOL    HW263383   4.361   8.963   2.055  1.0818 -0.4432  0.0528
19781SOL     OW63384   1.577   0.116   1.534 -0.1862 -0.1652  0.6350
19781SOL    HW163385   1.570   0.205   1.569 -0.6377  0.7626 -1.6377
19781SOL    HW263386   1.642   0.123   1.465  0.8658 -1.9766  1.3800
19782SOL     OW63387   3.358   4.426   0.005  0.2011  0.2795 -0.5430
19782SOL    HW163388   3.391   4.355   0.060 -0.2455  0.6025  0.1554
19782SOL    HW263389   3.426   4.493   0.009  0.3345  0.1535 -0.6855
19783SOL     OW63390   7.462   7.988   8.173  0.1433  0.2018 -0.0223
19783SOL    HW163391   7.458   8.018   8.264 -1.1269  1.1556 -0.3596
19783SOL    HW263392   7.380   8.019   8.134  0.1045 -1.2556 -1.1822
19784SOL     OW63393   8.687   3.442   2.355 -0.0220  0.0687  0.3731
19784SOL    HW163394   8.705   3.521   2.406 -0.5564  0.3129  0.1951
19784SOL    HW263395   8.654   3.379   2.420  0.3711  0.0001  0.5091
19785SOL     OW63396  10.031   6.805   4.092 -0.2934 -0.2857 -0.8668
19785SOL    HW163397   9.939   6.815   4.116 -0.4382  0.7686 -1.8030
19785SOL    HW263398  10.079   6.826   4.171 -0.7955  1.8609 -1.0793
19786SOL     OW63399   0.075   0.497   7.426 -0.2930  0.1558  0.0318
19786SOL    HW163400   0.169   0.513   7.414 -0.2620 -0.6062 -0.8433
19786SOL    HW263401   0.069   0.404   7.450 -0.8648  0.0172 -0.6103
19787SOL     OW63402   0.291   9.532   5.982  0.0320  0.3542  0.0888
19787SOL    HW163403   0.292   9.614   5.932 -0.2582 -0.3815 -1.1640
19787SOL    HW263404   0.286   9.463   5.915 -0.4302 -0.6663  1.1412
19788SOL     OW63405   3.174   8.630   7.852  0.2261 -0.0142  0.4026
19788SOL    HW163406   3.239   8.563   7.829  0.3838  0.2026  0.2112
19788SOL    HW263407   3.226   8.708   7.872  0.0914 -0.1752  1.4493
19789SOL     OW63408   5.157   4.556   4.743  0.2507 -0.3660  0.2533
19789SOL    HW163409   5.067   4.529   4.731  0.3016 -1.2160  1.6049
19789SOL    HW263410   5.208   4.476   4.734  0.7447 -0.1140  0.6936
19790SOL     OW63411   8.954   1.361   1.008 -0.3968 -0.3622 -0.7575
19790SOL    HW163412   8.941   1.411   0.927  0.3039 -0.2167 -0.7873
19790SOL    HW263413   8.894   1.401   1.070  0.1289  0.5080 -0.7910
19791SOL     OW63414   4.680   0.626   3.025  0.2534 -0.4552 -0.0173
19791SOL    HW163415   4.604   0.684   3.023  0.3496 -0.2740  1.0292
19791SOL    HW263416   4.694   0.601   2.933 -1.1934 -0.6671 -0.2000
19792SOL     OW63417   9.576   9.173   5.710  0.3469  0.0163  0.8248
19792SOL    HW163418   9.556   9.150   5.619  0.5151  0.0695  0.7743
19792SOL    HW263419   9.644   9.112   5.736  0.2415 -0.0517  0.9407
19793SOL     OW63420   1.683   6.174   3.821  0.1428 -0.2865 -0.3745
19793SOL    HW163421   1.632   6.118   3.879 -1.2050  2.5761  1.4737
19793SOL    HW263422   1.629   6.180   3.742 -1.0928  0.4908  0.4810
19794SOL     OW63423   9.567   0.451   4.010  0.0255  0.0114  0.0288
19794SOL    HW163424   9.494   0.392   3.987 -0.9750  1.0743  0.3721
19794SOL    HW263425   9.634   0.393   4.045 -1.0324 -0.9132  0.6119
19795SOL     OW63426   8.556   4.778   3.812  0.1458  0.3434  0.1900
19795SOL    HW163427   8.472   4.775   3.859  0.2684  1.5564  0.5197
19795SOL    HW263428   8.615   4.821   3.873  0.5697  1.0448 -0.7073
19796SOL     OW63429   3.012   0.397   7.399 -0.4479 -0.4518 -0.0191
19796SOL    HW163430   3.091   0.389   7.453 -0.8854 -1.3593  0.5215
19796SOL    HW263431   3.025   0.477   7.349  1.0308 -0.8248 -0.2894
19797SOL     OW63432   4.157   9.329   2.428 -0.0538 -0.1992  0.1716
19797SOL    HW163433   4.155   9.294   2.339  1.1434 -1.2239  0.5180
19797SOL    HW263434   4.065   9.334   2.454 -0.3607 -0.8864 -0.7525
19798SOL     OW63435   7.515   3.554   8.024  0.1077  0.5818  0.3472
19798SOL    HW163436   7.466   3.489   8.074  1.1300  0.3639  1.0927
19798SOL    HW263437   7.597   3.511   8.001 -0.2291  0.7540 -1.3659
19799SOL     OW63438   6.531   3.132   1.398  0.4374  0.1463  0.2254
19799SOL    HW163439   6.461   3.194   1.381 -0.5207 -1.0252 -0.2255
19799SOL    HW263440   6.501   3.081   1.473 -0.0705 -1.5654 -1.0784
19800SOL     OW63441   4.032   2.024   1.420 -0.1546  0.0420 -0.2450
19800SOL    HW163442   4.010   1.947   1.473 -1.6559  2.0604  2.3094
19800SOL    HW263443   3.947   2.061   1.396  0.5340  0.5569 -2.0661
19801SOL     OW63444   5.036   8.521   7.388 -0.1853 -0.1007 -0.5909
19801SOL    HW163445   5.101   8.451   7.382  1.8443  1.4248  1.5610
19801SOL    HW263446   5.010   8.537   7.298  0.1542 -2.7841 -1.2568
19802SOL     OW63447   5.008  10.165   0.225  0.2983 -0.2742 -0.0289
19802SOL    HW163448   4.993  10.210   0.308  2.1438 -0.1874  0.3026
19802SOL    HW263449   4.975  10.076   0.239 -1.9147  0.4796 -0.1613
19803SOL     OW63450   4.879   7.345   4.804 -0.2012  0.1879  0.3409
19803SOL    HW163451   4.832   7.371   4.883  0.8274 -0.0275  1.0457
19803SOL    HW263452   4.872   7.249   4.803 -0.2330  0.1927  0.1568
19804SOL     OW63453   0.437   3.010   0.976 -0.3057  0.2202  0.5575
19804SOL    HW163454   0.394   2.927   0.997 -0.9106  0.5191  0.5229
19804SOL    HW263455   0.484   2.992   0.894 -0.6473 -0.0211  0.4112
19805SOL     OW63456   8.826   1.538   4.564  0.2821  0.3263 -0.0151
19805SOL    HW163457   8.775   1.461   4.591 -0.7422  0.9049 -0.2441
19805SOL    HW263458   8.877   1.507   4.489 -1.9356  0.4423 -1.6880
19806SOL     OW63459   2.947   1.793   0.945 -0.2414  0.2728 -0.5926
19806SOL    HW163460   2.852   1.809   0.948 -0.0333  1.5498  0.0143
19806SOL    HW263461   2.957   1.716   0.890 -1.7355 -0.6945  0.4146
19807SOL     OW63462   7.875   1.116   8.580 -0.2345 -0.0121  0.4112
19807SOL    HW163463   7.830   1.072   8.508 -0.6743 -0.0787  0.7197
19807SOL    HW263464   7.822   1.194   8.597  0.4140  0.5227  0.0196
19808SOL     OW63465   4.448   0.874  10.049 -0.3245  0.5792 -0.1858
19808SOL    HW163466   4.416   0.895  10.137  0.5221  0.0941  0.2550
19808SOL    HW263467   4.465   0.780  10.052 -0.8701  0.4444 -1.0717
19809SOL     OW63468   8.148   5.358   4.914  0.3479 -0.2065 -0.5619
19809SOL    HW163469   8.084   5.364   4.844  1.6054  2.6375 -1.6289
19809SOL    HW263470   8.160   5.448   4.944  1.1576 -1.1027  2.1618
19810SOL     OW63471   7.170   3.083   4.162  0.0483  0.1014 -0.3821
19810SOL    HW163472   7.184   3.057   4.253  0.4393  1.6499  0.0393
19810SOL    HW263473   7.212   3.014   4.110  1.7197  0.2645  0.6719
19811SOL     OW63474   8.822   3.473  10.267  0.1850  1.0691 -0.4744
19811SOL    HW163475   8.806   3.450  10.358  0.9220  0.8151 -0.3998
19811SOL    HW263476   8.760   3.418  10.218 -0.9028  1.9187 -0.1004
19812SOL     OW63477   6.329   6.980   9.935 -0.2090  0.0593 -0.0332
19812SOL    HW163478   6.233   6.972   9.929 -0.3836  0.8590  1.2308
19812SOL    HW263479   6.343   7.063   9.980  1.1417  0.6013 -1.3722
19813SOL     OW63480   8.273   8.495   9.712  0.2355 -0.1412 -0.5308
19813SOL    HW163481   8.306   8.412   9.679 -0.5671 -0.3947 -0.7285
19813SOL    HW263482   8.330   8.562   9.674 -0.0311 -0.5017 -1.5777
19814SOL     OW63483   1.266   9.124   0.506  0.6295 -0.2355  0.0396
19814SOL    HW163484   1.307   9.179   0.572  1.9926 -1.4926  0.2938
19814SOL    HW263485   1.230   9.050   0.554 -1.4103  0.4844 -0.2696
19815SOL     OW63486   1.490   6.287   1.771  0.0086 -0.3252  0.4799
19815SOL    HW163487   1.507   6.283   1.677 -0.9767  0.8800  0.2270
19815SOL    HW263488   1.557   6.230   1.810  1.9260  0.9873 -0.7472
19816SOL     OW63489   2.285   6.157   8.680 -0.2578 -0.6956 -0.1432
19816SOL    HW163490   2.274   6.249   8.655  3.1007 -0.3232 -0.7790
19816SOL    HW263491   2.275   6.157   8.775  2.1917  0.9309  0.2269
19817SOL     OW63492   4.192   5.801   1.825 -0.2359 -0.3447 -0.2396
19817SOL    HW163493   4.186   5.882   1.876 -0.3132 -0.4798 -0.0334
19817SOL    HW263494   4.229   5.737   1.886  1.0433 -0.1499 -0.7703
19818SOL     OW63495   9.564   3.550   4.412  0.1629 -0.3311 -0.0858
19818SOL    HW163496   9.612   3.567   4.493  1.2857 -0.6077 -0.6596
19818SOL    HW263497   9.632   3.554   4.344 -0.5285 -1.3536 -0.8631
19819SOL     OW63498   7.877   1.720   4.257 -0.5351  0.2296  0.5350
19819SOL    HW163499   7.794   1.704   4.211 -0.2221 -1.1418  0.3983
19819SOL    HW263500   7.941   1.668   4.209  0.2466  0.6007  1.1634
19820SOL     OW63501   0.310   4.862   7.318 -0.7411 -0.3050  0.0443
19820SOL    HW163502   0.377   4.872   7.250 -0.9445  0.2175 -0.0823
19820SOL    HW263503   0.297   4.768   7.326  1.0323 -0.5138  1.0502
19821SOL     OW63504  10.286   9.479   3.616 -0.0119  0.5163 -0.0392
19821SOL    HW163505  10.300   9.437   3.701 -0.0045  0.7013  0.0511
19821SOL    HW263506  10.324   9.567   3.626 -0.1079  0.5761 -0.1975
19822SOL     OW63507   9.562  10.114   9.514 -0.1504 -0.3704 -0.1067
19822SOL    HW163508   9.554  10.019   9.529 -0.3472 -0.4964 -0.9260
19822SOL    HW263509   9.471  10.143   9.502 -0.1345  0.0267  0.6815
19823SOL     OW63510   6.138   9.266   2.445  0.3743  0.1140  0.1117
19823SOL    HW163511   6.092   9.341   2.484  0.6371  0.8278 -0.8802
19823SOL    HW263512   6.222   9.302   2.416 -0.1895 -0.1010 -1.9498
19824SOL     OW63513   1.965   0.285   9.438 -0.4778 -0.4726  0.1260
19824SOL    HW163514   2.045   0.289   9.490 -0.6259 -1.0572  0.4168
19824SOL    HW263515   1.931   0.196   9.453 -1.8510  0.1600  1.0114
19825SOL     OW63516   9.199   9.693   1.133  0.0123 -0.2356 -0.0108
19825SOL    HW163517   9.203   9.613   1.081 -0.7019 -0.1402 -0.2210
19825SOL    HW263518   9.106   9.715   1.136  0.3552  1.8747 -1.9407
19826SOL     OW63519   3.183   1.303   4.704 -0.6053 -0.0010 -0.0665
19826SOL    HW163520   3.187   1.309   4.800 -0.6075 -2.4644  0.1419
19826SOL    HW263521   3.249   1.239   4.681 -1.9078 -0.8954 -1.5193
19827SOL     OW63522   1.361   7.471   9.217  0.4609  0.0153 -0.5013
19827SOL    HW163523   1.360   7.378   9.240  0.7097 -0.2982 -1.7001
19827SOL    HW263524   1.435   7.507   9.265  0.6258 -0.4955 -0.3705
19828SOL     OW63525   8.305   3.320   1.614 -0.1324 -0.2762 -0.4206
19828SOL    HW163526   8.343   3.256   1.554  0.3828  0.5906 -1.0400
19828SOL    HW263527   8.214   3.328   1.585 -1.4515 -3.5704  2.0645
19829SOL     OW63528   3.505   3.119   0.572 -0.4201 -0.0779 -0.1356
19829SOL    HW163529   3.431   3.149   0.519 -0.8285  0.1901  0.5567
19829SOL    HW263530   3.524   3.031   0.540 -2.1316 -0.8247  0.7550
19830SOL     OW63531   2.744   3.204   4.576  0.2620  0.0746 -0.3603
19830SOL    HW163532   2.734   3.157   4.658 -0.4608  1.8416  0.6320
19830SOL    HW263533   2.823   3.167   4.536  1.6196  0.2612  1.9385
19831SOL     OW63534   9.366  10.168   0.070  0.0649 -1.0798  0.3300
19831SOL    HW163535   9.363  10.076   0.096 -0.7744 -1.4391 -0.8880
19831SOL    HW263536   9.283  10.181   0.024  0.6956 -0.0414 -0.5522
19832SOL     OW63537   6.861   8.410   3.856 -0.2713 -0.5940 -0.0287
19832SOL    HW163538   6.913   8.416   3.936  0.4719  1.3450 -0.5861
19832SOL    HW263539   6.797   8.480   3.864  0.0800 -0.1097 -1.2984
19833SOL     OW63540   8.302   0.427   8.883  0.1032  0.1443 -0.2938
19833SOL    HW163541   8.397   0.426   8.878  0.1365  0.3278  0.2362
19833SOL    HW263542   8.282   0.401   8.973 -0.3560 -0.1808 -0.4845
19834SOL     OW63543   5.598   6.881   6.380  0.4639  0.0954 -0.1237
19834SOL    HW163544   5.663   6.936   6.423  0.0989 -0.7127  1.5204
19834SOL    HW263545   5.583   6.809   6.441  0.3672 -1.4483 -1.8870
19835SOL     OW63546   3.637   6.075  10.167 -0.5775 -0.2793 -0.1943
19835SOL    HW163547   3.616   6.023  10.244 -0.5217 -0.3956 -0.2562
19835SOL    HW263548   3.668   6.010  10.103  0.5589 -0.0546  0.1007
19836SOL     OW63549   0.800   0.577   7.009 -0.2250 -0.4673 -0.5491
19836SOL    HW163550   0.744   0.564   7.085  0.5868 -1.8484 -0.1333
19836SOL    HW263551   0.756   0.528   6.939  0.8429 -2.3505  0.0102
19837SOL     OW63552   6.473   8.957   1.393  0.1048  0.5080 -0.1591
19837SOL    HW163553   6.490   9.029   1.332 -0.9594  1.7861  0.9828
19837SOL    HW263554   6.386   8.976   1.429  0.2718 -0.7550  0.9893
19838SOL     OW63555   8.904   3.765   4.997 -0.2181 -0.2111 -0.0707
19838SOL    HW163556   8.832   3.713   4.961  0.0016  0.4002 -1.4609
19838SOL    HW263557   8.931   3.718   5.075 -2.2539 -0.3563  0.6026
19839SOL     OW63558   3.565   0.217   7.594  0.1460 -0.5824 -0.3219
19839SOL    HW163559   3.635   0.269   7.633 -0.9744  0.9291 -0.2534
19839SOL    HW263560   3.512   0.189   7.668 -0.1974 -0.4060 -0.5004
19840SOL     OW63561   9.574   3.416   6.033  0.5404 -0.1630  0.3821
19840SOL    HW163562   9.498   3.362   6.011 -0.4064  0.4418  2.0493
19840SOL    HW263563   9.615   3.372   6.107  0.1631  0.9796  1.3069
19841SOL     OW63564   4.418   2.460  10.166 -0.3902 -0.4729 -0.0881
19841SOL    HW163565   4.403   2.554  10.170  2.0269 -0.0444  2.9996
19841SOL    HW263566   4.352   2.423  10.225  0.2414 -0.3833  0.6941
19842SOL     OW63567   6.853   0.290  10.210  0.3845 -0.4723  0.4883
19842SOL    HW163568   6.934   0.285  10.160  0.5856 -0.4051  0.8072
19842SOL    HW263569   6.865   0.365  10.268 -0.0875 -0.1789  0.2186
19843SOL     OW63570   9.612   2.198   0.267  0.6481 -0.2876  0.4150
19843SOL    HW163571   9.589   2.162   0.353  1.6777  2.1942  1.8318
19843SOL    HW263572   9.703   2.224   0.276  0.1188  2.1799 -0.5946
19844SOL     OW63573   6.804   9.356   4.144 -0.1474  0.5124 -0.3697
19844SOL    HW163574   6.715   9.392   4.140  0.6575  3.0191  1.4417
19844SOL    HW263575   6.840   9.393   4.225  2.7301  0.0104 -1.3376
19845SOL     OW63576   2.583   6.264   4.579  0.1225 -0.0018  0.1129
19845SOL    HW163577   2.649   6.326   4.608  0.0256 -1.0591  2.9709
19845SOL    HW263578   2.632   6.184   4.560 -0.0692  0.0293 -0.5467
19846SOL     OW63579   1.884   2.083   0.789  0.7208  0.6093  0.5142
19846SOL    HW163580   1.929   2.063   0.707  1.6253 -1.0394  1.3606
19846SOL    HW263581   1.815   2.018   0.796  0.2645  1.1135  0.7820
19847SOL     OW63582   6.610   7.842   0.152 -0.0917  0.5757 -0.0596
19847SOL    HW163583   6.661   7.889   0.219  0.7389  0.0812 -0.3322
19847SOL    HW263584   6.666   7.845   0.074 -0.9061  0.8536 -0.6379
19848SOL     OW63585   5.861   1.480   6.879  0.1861 -0.5909  0.5386
19848SOL    HW163586   5.952   1.460   6.900 -0.2898 -2.5159  0.9959
19848SOL    HW263587   5.812   1.455   6.957 -0.7927 -0.1798  0.0694
19849SOL     OW63588   9.301   2.907   0.917  0.2698  0.1261 -0.2317
19849SOL    HW163589   9.329   2.817   0.900 -0.8883 -0.0473 -1.3767
19849SOL    HW263590   9.326   2.955   0.838  0.9183  0.8283  0.3905
19850SOL     OW63591   8.459   5.897   9.648  0.1475 -0.1030 -0.0897
19850SOL    HW163592   8.363   5.900   9.648  0.1533  0.1142  0.0819
19850SOL    HW263593   8.485   5.957   9.578  0.1488 -0.6123 -0.5347
19851SOL     OW63594   4.891   2.228   7.735 -0.2957  0.3951 -0.0948
19851SOL    HW163595   4.850   2.168   7.798 -2.7335  2.2017  0.1764
19851SOL    HW263596   4.933   2.294   7.790  1.2633 -0.2912 -0.4062
19852SOL     OW63597   5.179   4.738   8.644 -0.1415  0.5598 -0.3280
19852SOL    HW163598   5.207   4.726   8.554 -0.7410  0.4657 -0.5091
19852SOL    HW263599   5.089   4.772   8.637 -0.3224  0.2184  0.2298
19853SOL     OW63600   8.428   7.733   4.340  0.0712  0.1213 -0.7259
19853SOL    HW163601   8.375   7.775   4.408  0.1163 -0.3835 -0.3758
19853SOL    HW263602   8.378   7.654   4.316  0.0616  0.2863 -1.2715
19854SOL     OW63603   3.915   0.964   3.406 -0.5189  0.3523 -0.2313
19854SOL    HW163604   3.998   1.003   3.435  0.1723  0.6050 -2.3627
19854SOL    HW263605   3.937   0.872   3.390 -0.6626  0.4059 -0.7359
19855SOL     OW63606   3.878   2.427   6.759 -0.4899 -0.0268 -0.7981
19855SOL    HW163607   3.828   2.460   6.684 -0.2095 -0.4003 -1.1498
19855SOL    HW263608   3.887   2.333   6.743  0.7757  0.1149 -1.0023
19856SOL     OW63609   5.806   6.931  10.262 -0.3199 -0.0275 -0.1373
19856SOL    HW163610   5.896   6.901  10.250 -0.3102 -0.6292  1.2530
19856SOL    HW263611   5.752   6.854  10.242 -0.3832 -0.4555  1.5587
19857SOL     OW63612   0.417   3.203   4.575 -0.0771  0.0421  0.0662
19857SOL    HW163613   0.488   3.200   4.511  0.4114  0.1322  0.5936
19857SOL    HW263614   0.375   3.117   4.568 -0.7488  0.4463 -1.1544
19858SOL     OW63615   3.582   8.895   4.555 -0.5336  0.3186  0.0169
19858SOL    HW163616   3.654   8.941   4.511 -0.8319  0.7448 -0.0344
19858SOL    HW263617   3.514   8.962   4.565  0.0691  0.6519  2.4627
19859SOL     OW63618   2.765   1.726   6.099  0.1530 -0.3563  0.2614
19859SOL    HW163619   2.678   1.754   6.072 -0.8739 -2.8056  0.7538
19859SOL    HW263620   2.803   1.685   6.021  0.2991 -0.5348  0.4238
19860SOL     OW63621   0.956   3.365   3.229 -0.2234  0.0170  0.4508
19860SOL    HW163622   1.001   3.281   3.240  1.7477  0.3287 -3.3052
19860SOL    HW263623   0.882   3.345   3.171  0.8060  0.8887 -1.2528
19861SOL     OW63624   7.775   8.991   3.038 -0.4878  0.0848 -0.8960
19861SOL    HW163625   7.805   8.944   2.961  0.5500 -0.7542 -0.0254
19861SOL    HW263626   7.699   8.941   3.069  0.3586 -0.8412 -0.2138
19862SOL     OW63627   8.400   6.430   8.577  0.1490 -0.3018 -0.0696
19862SOL    HW163628   8.431   6.474   8.657 -1.4047  2.2624 -0.7559
19862SOL    HW263629   8.325   6.378   8.606  0.5528 -0.6392  0.3822
19863SOL     OW63630   9.406  10.203   0.484 -0.0461  0.3611 -0.3876
19863SOL    HW163631   9.335  10.185   0.546  2.3860 -1.7023  2.0139
19863SOL    HW263632   9.372  10.274   0.429 -3.4215  0.3770  1.4514
19864SOL     OW63633   0.619   8.687   5.277 -0.1227  0.4173  0.1353
19864SOL    HW163634   0.699   8.732   5.303  1.0232 -0.7469 -1.1813
19864SOL    HW263635   0.585   8.650   5.358  0.7132  0.8786  0.7103
19865SOL     OW63636   3.872   1.023  10.268  0.5992 -0.1816  0.5130
19865SOL    HW163637   3.797   0.969  10.295 -0.6428  0.5827 -1.2037
19865SOL    HW263638   3.919   0.968  10.205  0.1418  0.1655 -0.1507
19866SOL     OW63639   2.975   0.246  10.231  0.2157 -0.0865 -0.2144
19866SOL    HW163640   3.067   0.269  10.241  0.1253  0.8883 -1.3832
19866SOL    HW263641   2.932   0.288  10.306  0.4006  1.5591 -0.9994
19867SOL     OW63642   2.018   5.412   4.495  0.1024  0.0286 -0.5444
19867SOL    HW163643   2.096   5.362   4.521  1.0634  1.3682 -0.7681
19867SOL    HW263644   1.983   5.363   4.420  0.1302 -1.1419  0.1822
19868SOL     OW63645   8.533   1.936  10.015 -0.4510 -0.5717  0.1693
19868SOL    HW163646   8.524   1.842   9.995  0.1890 -0.9306  1.4634
19868SOL    HW263647   8.628   1.951  10.014 -0.4712 -0.2894  1.4561
19869SOL     OW63648   6.647   5.954   8.588  0.1527  0.4239  0.0788
19869SOL    HW163649   6.693   5.940   8.506  0.1142 -0.7611  0.2489
19869SOL    HW263650   6.698   6.021   8.634  1.7125 -0.8287  0.2594
19870SOL     OW63651   1.089   8.292   6.406 -0.0756 -0.3643  0.2232
19870SOL    HW163652   1.013   8.343   6.375 -0.2769 -1.7018 -1.6731
19870SOL    HW263653   1.164   8.343   6.376 -0.2664 -0.3471 -0.2523
19871SOL     OW63654   0.995   5.982   4.682  0.1524 -0.1784 -0.1418
19871SOL    HW163655   0.937   5.944   4.615 -0.9359 -1.0444  1.2135
19871SOL    HW263656   0.975   5.932   4.762  3.2086 -0.9155  0.2866
19872SOL     OW63657   0.297   5.753   8.317 -0.0886 -0.0064 -0.2710
19872SOL    HW163658   0.276   5.788   8.230 -1.0273 -0.1127 -0.0993
19872SOL    HW263659   0.340   5.826   8.362 -1.0039  0.5736 -0.3032
19873SOL     OW63660   9.289   9.956   1.178  0.0895  0.4157  0.7117
19873SOL    HW163661   9.370   9.962   1.229 -0.6872  1.2932  1.9028
19873SOL    HW263662   9.261   9.865   1.187  0.5359  0.3042  0.9538
19874SOL     OW63663   1.578   6.928   7.816 -0.4607 -0.0585 -0.0671
19874SOL    HW163664   1.485   6.907   7.821 -0.7845  1.4555  0.6510
19874SOL    HW263665   1.620   6.845   7.791 -1.9170 -0.9322  0.2943
19875SOL     OW63666   6.656   0.646   9.058 -0.2919  0.0809 -0.6187
19875SOL    HW163667   6.706   0.655   9.138  0.1951 -0.9725 -0.7917
19875SOL    HW263668   6.608   0.564   9.068  0.3307 -0.4403 -1.6855
19876SOL     OW63669   3.668   6.723   5.230  0.1537 -0.1487 -0.2465
19876SOL    HW163670   3.649   6.629   5.225  0.5737 -0.2234 -0.4567
19876SOL    HW263671   3.615   6.754   5.303 -1.2562 -0.2335 -1.1967
19877SOL     OW63672   2.958   2.091   7.157  0.0438  0.3044  0.3160
19877SOL    HW163673   2.968   2.053   7.245  0.8977  1.4776  0.7539
19877SOL    HW263674   2.885   2.152   7.166  0.1291  0.4208  0.2197
19878SOL     OW63675   5.206   8.741   9.169  0.0502  0.2514 -0.2846
19878SOL    HW163676   5.234   8.761   9.258  3.0804  2.2241 -1.5156
19878SOL    HW263677   5.235   8.651   9.154  0.0705  0.1184  0.5060
19879SOL     OW63678   4.338   3.481   0.176  0.2507  0.4167  0.1577
19879SOL    HW163679   4.420   3.433   0.189  0.1793 -0.0103 -0.8707
19879SOL    HW263680   4.311   3.459   0.087 -0.0058  2.0606 -0.2016
19880SOL     OW63681   9.951   7.104   4.921  0.1019 -0.3471  0.6363
19880SOL    HW163682  10.011   7.082   4.993  0.6577 -2.2117 -0.3364
19880SOL    HW263683   9.904   7.023   4.904 -0.8245  0.3813 -0.3885
19881SOL     OW63684   8.366   2.740   7.056  0.2084 -0.1095  0.0830
19881SOL    HW163685   8.344   2.763   6.966  0.5435 -0.1768 -0.0149
19881SOL    HW263686   8.291   2.771   7.107 -0.8609 -1.7355 -0.4235
19882SOL     OW63687   3.092   6.259   8.498 -1.0865 -0.0683  0.0379
19882SOL    HW163688   3.004   6.261   8.460 -1.9709 -1.0252  1.8451
19882SOL    HW263689   3.118   6.351   8.505 -1.3417  0.1671 -1.7606
19883SOL     OW63690   3.409   0.983   2.276  0.3811  0.4989  0.0592
19883SOL    HW163691   3.332   0.988   2.220  0.7793  1.1019 -0.4458
19883SOL    HW263692   3.438   0.892   2.268  0.1492  0.4539 -0.3197
19884SOL     OW63693   6.490   5.361   7.961  0.2799 -0.2443 -0.4683
19884SOL    HW163694   6.561   5.300   7.943  1.4069  0.8055  0.2875
19884SOL    HW263695   6.524   5.447   7.934 -0.7063  0.2693 -0.1250
19885SOL     OW63696  10.165   9.134   4.743  0.1474  0.1915  0.8405
19885SOL    HW163697  10.254   9.160   4.769  0.9076 -1.1407 -0.3133
19885SOL    HW263698  10.171   9.039   4.731 -1.9403 -0.2382  2.6294
19886SOL     OW63699   4.895   2.857   2.047 -0.0200  0.1364  0.7011
19886SOL    HW163700   4.977   2.886   2.008  0.0250 -1.5487 -0.5839
19886SOL    HW263701   4.833   2.927   2.029 -0.2183 -0.8603 -3.3062
19887SOL     OW63702   1.665   5.623   4.404 -0.7788 -0.2794 -0.0525
19887SOL    HW163703   1.577   5.589   4.385 -0.6487 -0.3583 -0.5132
19887SOL    HW263704   1.712   5.547   4.438 -1.3459  0.1135  1.7435
19888SOL     OW63705   2.666   3.212   6.469 -0.7848 -0.5651 -0.0205
19888SOL    HW163706   2.645   3.221   6.376  0.4823 -0.6087 -0.3314
19888SOL    HW263707   2.597   3.157   6.505 -1.9246  0.4035 -0.6882
19889SOL     OW63708   7.351   6.490   2.654 -0.1961  0.4035 -0.5378
19889SOL    HW163709   7.327   6.397   2.661 -1.0955  0.4516 -2.2941
19889SOL    HW263710   7.421   6.491   2.589  1.1893  0.7977  0.8959
19890SOL     OW63711   2.244   9.109   3.425  0.3830 -0.3028 -0.0486
19890SOL    HW163712   2.290   9.159   3.358  0.1266 -0.4189 -0.3100
19890SOL    HW263713   2.187   9.173   3.467 -1.5324 -0.7747 -1.7792
19891SOL     OW63714   6.627   4.848   8.381 -0.0223 -0.5083  0.0817
19891SOL    HW163715   6.653   4.927   8.333 -2.4783  0.0725 -0.4197
19891SOL    HW263716   6.650   4.867   8.472  2.9277 -0.8493 -0.4814
19892SOL     OW63717  10.118   9.172   1.355  0.0397  0.4399  0.2912
19892SOL    HW163718  10.180   9.239   1.381  0.6302  0.5446 -1.2632
19892SOL    HW263719  10.169   9.091   1.353  0.3066  0.6028 -1.4465
19893SOL     OW63720   0.452   8.551   9.962 -0.2804 -0.1179 -0.2128
19893SOL    HW163721   0.417   8.486  10.022 -0.3224 -1.3828 -1.5552
19893SOL    HW263722   0.488   8.619  10.019  0.2961 -1.5839  1.2567
19894SOL     OW63723   2.542   0.369   0.026 -0.3300  0.0752 -0.4775
19894SOL    HW163724   2.512   0.368  -0.065  0.6571  0.7474 -0.8214
19894SOL    HW263725   2.618   0.428   0.026  0.2561 -0.6548  0.5993
19895SOL     OW63726   3.777   0.538  10.279  0.4181 -0.1711 -0.0293
19895SOL    HW163727   3.755   0.630  10.297  3.1999  1.7461 -4.7052
19895SOL    HW263728   3.838   0.514  10.350  0.0998  1.7733  0.9815
19896SOL     OW63729   7.973   3.202   2.531  0.1324  0.2114 -0.1403
19896SOL    HW163730   8.058   3.243   2.546  1.0645 -1.6450 -0.1316
19896SOL    HW263731   7.937   3.189   2.618  0.0222  0.5969 -0.1250
19897SOL     OW63732   2.777   4.997   4.099 -0.1545  0.1553  0.1111
19897SOL    HW163733   2.709   4.982   4.033  1.1213 -0.9667 -1.0001
19897SOL    HW263734   2.833   5.064   4.060  0.4382 -0.2952  0.1795
19898SOL     OW63735   1.655   6.665  10.104 -0.9796  0.1389 -0.2092
19898SOL    HW163736   1.606   6.638  10.182  0.9019 -0.8318  0.7194
19898SOL    HW263737   1.611   6.622  10.031 -1.2880 -1.0295  0.6341
19899SOL     OW63738   4.786   0.487   6.191 -0.0758 -0.2853 -0.1629
19899SOL    HW163739   4.698   0.524   6.184  0.1412  0.0424 -1.6866
19899SOL    HW263740   4.844   0.562   6.188  0.2732 -0.5252  0.4640
19900SOL     OW63741   2.900   0.496   2.493 -0.3064 -0.0916 -0.1835
19900SOL    HW163742   2.820   0.477   2.542  0.0074  0.1210  0.4169
19900SOL    HW263743   2.889   0.448   2.411 -1.3788  0.5286 -0.4285
19901SOL     OW63744   6.308   2.254   5.041  1.0713  0.1998  0.5143
19901SOL    HW163745   6.322   2.260   5.135  1.6257  1.6968  0.3712
19901SOL    HW263746   6.258   2.333   5.019 -1.2565 -1.3423 -0.1151
19902SOL     OW63747   9.908   6.326   7.813  0.1054 -0.7558 -0.5161
19902SOL    HW163748   9.983   6.285   7.857 -0.3662 -0.1645  0.8761
19902SOL    HW263749   9.832   6.277   7.843 -0.3236  0.2639  0.1136
19903SOL     OW63750   7.165   0.807   7.039  0.5857 -1.2460  0.1386
19903SOL    HW163751   7.083   0.852   7.058  1.8878  1.1514  0.4114
19903SOL    HW263752   7.218   0.819   7.118  1.8120 -1.2644 -0.6614
19904SOL     OW63753   2.050   1.204   5.823  0.2729  0.1740 -0.2721
19904SOL    HW163754   2.143   1.217   5.807  0.1208 -0.1829 -1.5967
19904SOL    HW263755   2.033   1.248   5.906  0.9041  3.3702 -1.7097
19905SOL     OW63756   6.291   8.054   1.681  0.8568 -0.5468 -0.4722
19905SOL    HW163757   6.337   7.986   1.632  2.0680  1.5871 -2.4499
19905SOL    HW263758   6.218   8.080   1.625 -0.9980 -1.6859  1.2621
19906SOL     OW63759   6.440   0.314   0.408 -0.1876 -0.1073  0.2367
19906SOL    HW163760   6.483   0.342   0.488 -1.3366 -0.2546  0.9175
19906SOL    HW263761   6.348   0.309   0.430 -0.5002 -0.3730 -1.0363
19907SOL     OW63762   8.277   3.023   0.192  0.4803 -0.3465 -0.1681
19907SOL    HW163763   8.286   2.929   0.178  1.7623 -0.5637  1.7792
19907SOL    HW263764   8.366   3.054   0.210  0.0732  1.2459 -0.6947
19908SOL     OW63765   4.469  10.294   7.069 -0.1430 -0.5173 -0.2325
19908SOL    HW163766   4.529  10.349   7.018 -1.9434  0.1241 -1.7515
19908SOL    HW263767   4.390  10.347   7.079  0.2551 -0.3597  3.8363
19909SOL     OW63768   3.103   4.384  10.022  0.1262 -0.5215 -0.0054
19909SOL    HW163769   3.173   4.426  10.073 -0.1556 -0.8956  0.7133
19909SOL    HW263770   3.141   4.300   9.995 -0.7348 -1.7086  2.2420
19910SOL     OW63771   7.405  10.200   5.247 -0.0151 -0.4388 -0.2529
19910SOL    HW163772   7.315  10.191   5.216  0.0632 -1.1999 -0.2788
19910SOL    HW263773   7.441  10.111   5.243  0.5959 -0.2207  0.1874
19911SOL     OW63774   3.253   7.495   9.590 -0.3265 -0.1050 -0.4649
19911SOL    HW163775   3.211   7.567   9.637 -0.6943  0.1297 -1.1474
19911SOL    HW263776   3.289   7.439   9.660 -2.0176 -0.4808  0.1448
19912SOL     OW63777   8.365   2.515   5.925 -0.0417 -0.1051  0.1813
19912SOL    HW163778   8.382   2.421   5.926  1.3553  0.0943 -0.9202
19912SOL    HW263779   8.276   2.524   5.957  0.2321 -1.7026  1.5159
19913SOL     OW63780   0.300   2.234   1.598  0.5668 -0.3510 -0.1820
19913SOL    HW163781   0.262   2.195   1.518  1.4465  1.1183 -1.3709
19913SOL    HW263782   0.380   2.184   1.612  2.0361  1.2899 -2.0813
19914SOL     OW63783   4.808   0.229   1.778  0.3020  0.2554  0.6315
19914SOL    HW163784   4.858   0.217   1.697 -0.5692  1.5228 -0.1308
19914SOL    HW263785   4.728   0.274   1.751 -0.7566 -0.7118  1.9890
19915SOL     OW63786   0.550   5.552   5.114 -0.1240 -0.2925  0.3643
19915SOL    HW163787   0.563   5.538   5.208 -2.3487  2.3541  1.1997
19915SOL    HW263788   0.458   5.527   5.099 -0.1728  0.5181 -0.7960
19916SOL     OW63789   8.920   4.004   3.153 -0.3238 -0.5226 -0.1522
19916SOL    HW163790   9.015   4.016   3.148 -0.2473 -1.2511 -0.5506
19916SOL    HW263791   8.894   4.052   3.232  0.2524  0.3784 -0.4839
19917SOL     OW63792   0.171   0.896   3.503 -0.1007  0.3825 -0.3463
19917SOL    HW163793   0.159   0.858   3.590  0.9332  0.4280 -0.1701
19917SOL    HW263794   0.121   0.977   3.505 -0.8655 -0.0827 -0.1267
19918SOL     OW63795   9.977   3.426   4.943 -0.1222 -0.0225 -0.2917
19918SOL    HW163796   9.955   3.429   4.850  1.7159 -1.5024 -0.8343
19918SOL    HW263797   9.998   3.517   4.965 -0.7270  0.3750 -1.2533
19919SOL     OW63798   9.271   0.307   7.670  0.4830  0.3520  0.4437
19919SOL    HW163799   9.272   0.215   7.643 -1.6707  0.7326 -1.2001
19919SOL    HW263800   9.353   0.343   7.636  1.3665 -0.9181  1.1298
19920SOL     OW63801   9.433   4.742   1.736 -0.3856 -0.9678 -0.3462
19920SOL    HW163802   9.419   4.836   1.721 -0.8249 -1.2684 -2.0412
19920SOL    HW263803   9.518   4.737   1.779 -0.5794  0.2349  0.2278
19921SOL     OW63804   5.318   2.701   1.309 -0.0694  0.4537 -0.3473
19921SOL    HW163805   5.253   2.740   1.368 -1.0300 -0.1439 -0.9773
19921SOL    HW263806   5.398   2.698   1.361 -0.7290  0.5139  0.7151
19922SOL     OW63807   0.693   1.737   6.258  0.0713 -0.3724 -0.5101
19922SOL    HW163808   0.743   1.813   6.230  0.7374 -0.0647  1.3267
19922SOL    HW263809   0.744   1.701   6.331 -1.1574 -1.4977 -0.1651
19923SOL     OW63810  10.102   8.215   0.467  0.2761 -0.1539 -0.6749
19923SOL    HW163811  10.010   8.192   0.474 -0.2521 -0.0949 -5.1355
19923SOL    HW263812  10.103   8.301   0.425  2.4123  0.4888  0.5087
19924SOL     OW63813   6.544   1.523   9.076 -0.1290 -0.4651  0.0169
19924SOL    HW163814   6.491   1.473   9.013 -0.7375  1.2718 -0.9203
19924SOL    HW263815   6.503   1.610   9.077 -0.0331 -0.3965  2.7383
19925SOL     OW63816   3.900   7.214   1.270  0.3132 -0.2873 -0.3910
19925SOL    HW163817   3.892   7.244   1.361  2.2867  2.0710 -0.8866
19925SOL    HW263818   3.988   7.177   1.265 -0.5233 -2.3022 -0.8970
19926SOL     OW63819   3.133   8.280   2.497 -0.5964  0.3027 -0.2625
19926SOL    HW163820   3.083   8.344   2.447 -0.6155 -0.1240 -0.8011
19926SOL    HW263821   3.117   8.197   2.452  0.9122  0.2112 -0.6883
19927SOL     OW63822   2.332   6.865   7.671 -0.4655 -0.0910  0.6219
19927SOL    HW163823   2.322   6.948   7.718  3.1832  0.0227  1.4761
19927SOL    HW263824   2.351   6.891   7.580  0.8251  0.0850  0.9197
19928SOL     OW63825   8.779   9.390   9.352  0.3187  0.4080  0.1430
19928SOL    HW163826   8.873   9.375   9.340  0.1619 -1.7633  1.0561
19928SOL    HW263827   8.769   9.403   9.447 -0.2956  0.7578  0.0324
19929SOL     OW63828   6.319   9.833   4.885  0.2212 -0.5127 -0.2403
19929SOL    HW163829   6.340   9.809   4.975 -0.8209 -1.3990 -0.2130
19929SOL    HW263830   6.388   9.894   4.859  0.1153  0.3659  1.4167
19930SOL     OW63831   0.643   7.072   4.634 -0.2135 -0.1007  0.4258
19930SOL    HW163832   0.577   7.112   4.578 -0.5833 -0.7995  0.3452
19930SOL    HW263833   0.627   7.108   4.721  1.9239  2.9160 -0.2862
19931SOL     OW63834   4.049   0.224   1.004  0.7069 -0.2748 -0.5626
19931SOL    HW163835   4.132   0.179   1.022 -1.2091 -3.5241  1.1388
19931SOL    HW263836   4.007   0.168   0.938 -0.9486  0.1576  0.0913
19932SOL     OW63837   0.804   4.823   8.992  0.1723 -0.4767 -0.6514
19932SOL    HW163838   0.863   4.748   8.981  0.3896 -0.2578 -1.0039
19932SOL    HW263839   0.733   4.806   8.930 -0.5629 -1.1451  0.3443
19933SOL     OW63840   8.870   7.680   4.148 -0.0821 -0.4391 -0.1590
19933SOL    HW163841   8.796   7.721   4.193  1.8310  0.9212  1.9320
19933SOL    HW263842   8.882   7.732   4.069 -0.7451 -0.0482 -0.0082
19934SOL     OW63843   2.310   9.146   2.516  0.0047  0.2072 -0.5756
19934SOL    HW163844   2.312   9.054   2.543 -0.7100  0.6381  1.1198
19934SOL    HW263845   2.402   9.172   2.513  0.1997 -0.4838 -0.7646
19935SOL     OW63846   8.927   8.199   1.919  0.5379  0.3360 -0.1408
19935SOL    HW163847   9.013   8.157   1.913  0.9904  1.1508  0.3255
19935SOL    HW263848   8.943   8.278   1.972 -0.7529 -0.1777  1.0844
19936SOL     OW63849   6.467   9.073  10.010  1.0755 -0.5642 -0.3385
19936SOL    HW163850   6.374   9.052   9.997  1.3535 -1.2719 -1.3188
19936SOL    HW263851   6.476   9.082  10.105  0.3752 -2.3488 -0.0612
19937SOL     OW63852   3.788   9.081   9.989 -0.4385  0.0749 -0.3982
19937SOL    HW163853   3.883   9.091   9.981 -0.4370  1.6979  0.9732
19937SOL    HW263854   3.776   8.999  10.035  0.3147 -0.0624 -0.4321
19938SOL     OW63855   4.752   3.896   1.831  0.2529 -0.2045  0.7294
19938SOL    HW163856   4.837   3.904   1.875  0.1550 -2.5057  1.4429
19938SOL    HW263857   4.770   3.920   1.740  1.1863  1.3801  1.2823
19939SOL     OW63858   4.747   2.440   6.685 -0.1226 -0.3304  0.3508
19939SOL    HW163859   4.777   2.398   6.605  0.8379  1.0507 -0.0377
19939SOL    HW263860   4.795   2.396   6.756 -0.1291 -0.7685  0.0879
19940SOL     OW63861   6.628   5.888   8.250 -0.0323 -0.1156  0.4757
19940SOL    HW163862   6.646   5.978   8.277  0.1306 -0.5412  1.8621
19940SOL    HW263863   6.710   5.857   8.212  0.0278  0.1953  0.3501
19941SOL     OW63864   4.028   6.504   0.642 -0.5419  0.6721  0.2531
19941SOL    HW163865   3.996   6.420   0.609 -0.1823  0.8753 -0.6304
19941SOL    HW263866   3.984   6.515   0.727 -0.1010 -0.7176  0.6897
19942SOL     OW63867   5.592   9.189   3.755 -0.1223  0.3597  0.0060
19942SOL    HW163868   5.520   9.231   3.709  1.1616  0.8763 -1.6084
19942SOL    HW263869   5.647   9.152   3.686  1.1447 -0.0579  1.1937
19943SOL     OW63870   4.176   2.260   0.976 -0.0975 -0.2042 -0.0026
19943SOL    HW163871   4.256   2.268   1.028 -0.4610 -1.0705  0.7243
19943SOL    HW263872   4.176   2.169   0.947 -1.4654 -0.5989  1.1205
19944SOL     OW63873   3.997   9.808   0.007  0.2915 -0.0237 -0.5116
19944SOL    HW163874   3.968   9.873  -0.058 -0.4483  0.6568  0.4774
19944SOL    HW263875   3.917   9.778   0.048  0.8387  0.6736  1.1385
19945SOL     OW63876   4.965   0.483   4.637  0.4385 -0.1529 -0.0750
19945SOL    HW163877   4.990   0.513   4.549  0.9285 -3.3119 -1.1327
19945SOL    HW263878   4.881   0.438   4.624  0.3903 -0.4354  1.1309
19946SOL     OW63879   7.772   6.454   6.496 -0.0694  0.3392  0.3169
19946SOL    HW163880   7.852   6.488   6.456 -0.4548 -0.0202 -0.7954
19946SOL    HW263881   7.797   6.367   6.527 -0.5487 -0.7537 -2.0807
19947SOL     OW63882   6.180   4.476   2.921 -0.1114  0.0833 -0.0652
19947SOL    HW163883   6.242   4.444   2.855 -0.3378  0.3623 -0.4191
19947SOL    HW263884   6.103   4.420   2.911 -1.1182  1.6528 -1.7390
19948SOL     OW63885   1.330  10.268   0.103 -0.4217  0.5898  0.4052
19948SOL    HW163886   1.393  10.313   0.159 -1.9262  2.6361  0.6040
19948SOL    HW263887   1.283  10.209   0.163  0.4269  0.0185  0.5157
19949SOL     OW63888   3.244   8.841   0.051 -0.7429  0.0728 -0.0257
19949SOL    HW163889   3.266   8.834   0.144  1.4038  2.2317 -0.2696
19949SOL    HW263890   3.266   8.754   0.016  3.3695  0.5795  0.6922
19950SOL     OW63891   2.916   7.362   8.626  0.4230  0.5226 -0.0865
19950SOL    HW163892   2.923   7.437   8.686  1.1539  0.3571  0.0441
19950SOL    HW263893   2.960   7.391   8.547  0.8521  0.1704  0.0239
19951SOL     OW63894   7.175   9.601   8.790  0.2137 -0.3032 -0.1814
19951SOL    HW163895   7.230   9.538   8.744 -0.7854 -0.5780 -1.0332
19951SOL    HW263896   7.237   9.658   8.835  1.2700  0.3962 -2.3815
19952SOL     OW63897   0.977   1.353   7.952  0.3508  0.1922  0.7727
19952SOL    HW163898   1.057   1.381   7.998  1.7317 -1.1011 -0.7238
19952SOL    HW263899   0.980   1.257   7.956 -0.5499  0.1106 -0.2625
19953SOL     OW63900   1.092   6.458   8.844 -0.2507 -1.0838  0.4871
19953SOL    HW163901   1.035   6.395   8.799  0.3093 -0.0455 -1.8845
19953SOL    HW263902   1.034   6.507   8.901 -0.9745 -2.6567  1.1474
19954SOL     OW63903   2.296   2.666   3.254 -0.0924  0.6564  0.0084
19954SOL    HW163904   2.325   2.682   3.344  0.8434  2.2879 -0.5501
19954SOL    HW263905   2.345   2.588   3.226  0.7969  1.0622  0.3974
19955SOL     OW63906   6.420   4.963   1.808  0.0297  0.2095  0.3362
19955SOL    HW163907   6.461   4.890   1.761  0.5984  0.2690  0.7240
19955SOL    HW263908   6.372   5.011   1.741 -0.7260 -0.7740  0.1498
19956SOL     OW63909   3.250  10.240   4.795  0.3192  0.0326 -0.1561
19956SOL    HW163910   3.329  10.186   4.792  0.6554  0.4755  0.4419
19956SOL    HW263911   3.219  10.244   4.705  2.2709  1.7422 -0.8293
19957SOL     OW63912   6.960  10.020   6.539  0.5364  0.0686  0.3530
19957SOL    HW163913   6.990  10.060   6.457  1.6745 -0.4029  0.5237
19957SOL    HW263914   6.902  10.086   6.577 -0.8646 -0.1176 -1.3218
19958SOL     OW63915   5.595   8.783   8.278 -0.3066  0.0685 -0.1383
19958SOL    HW163916   5.667   8.744   8.228 -0.4849 -0.6291  0.1414
19958SOL    HW263917   5.600   8.877   8.258  1.0228  0.1165  0.3087
19959SOL     OW63918   9.437   1.015   5.181 -0.0222  0.3096 -0.2823
19959SOL    HW163919   9.430   1.082   5.113  0.0441 -1.4042 -2.0748
19959SOL    HW263920   9.352   1.016   5.224 -0.3723  0.8653 -0.9636
19960SOL     OW63921   0.620   3.373   2.393 -0.3004  0.5185  0.1043
19960SOL    HW163922   0.665   3.343   2.314 -1.8955  1.5590 -1.2420
19960SOL    HW263923   0.687   3.368   2.461  1.4716  0.7408 -1.5378
19961SOL     OW63924   3.532   0.881   6.358  0.2619  0.0450 -0.6169
19961SOL    HW163925   3.463   0.925   6.307 -0.7262  0.4979  1.0122
19961SOL    HW263926   3.521   0.917   6.447  0.9988 -1.7296  0.2269
19962SOL     OW63927   3.869   4.367   9.535  1.0081 -0.3494 -0.5246
19962SOL    HW163928   3.838   4.307   9.602  2.0770 -1.0414 -0.6255
19962SOL    HW263929   3.869   4.453   9.578 -0.1519 -0.4656 -0.2620
19963SOL     OW63930   2.320   8.796   0.605  0.2286  0.2697  0.7096
19963SOL    HW163931   2.357   8.714   0.570  0.9677 -0.1994  2.4641
19963SOL    HW263932   2.302   8.849   0.527 -1.1547 -1.8965 -0.5694
19964SOL     OW63933   7.834   4.996   5.293  0.6659  0.3158  0.5326
19964SOL    HW163934   7.866   5.072   5.342 -1.4663  1.4430  0.2832
19964SOL    HW263935   7.901   4.981   5.226  0.9158  2.3157  0.2684
19965SOL     OW63936   9.215   9.859   8.993 -0.4663  0.4045  0.1081
19965SOL    HW163937   9.290   9.837   9.048 -2.1715 -1.5171  1.7605
19965SOL    HW263938   9.190   9.777   8.952 -2.0417  0.8982  0.0362
19966SOL     OW63939   7.543   0.257   3.700  0.0674  0.0868  0.3114
19966SOL    HW163940   7.498   0.270   3.616 -1.2442 -1.3284  0.7437
19966SOL    HW263941   7.475   0.221   3.758  0.8266  1.3950  2.1220
19967SOL     OW63942   8.030   5.632   6.928 -0.2054 -0.1336 -0.0698
19967SOL    HW163943   7.979   5.557   6.898 -0.5437  0.2275 -0.4241
19967SOL    HW263944   8.111   5.595   6.962 -0.8682 -0.7511  0.8525
19968SOL     OW63945   0.985   1.191   3.784 -0.0473 -0.3091 -0.0187
19968SOL    HW163946   0.963   1.098   3.795 -0.0653 -0.1561  1.3992
19968SOL    HW263947   0.921   1.237   3.838 -1.4704  0.7220 -2.4272
19969SOL     OW63948   9.619   4.849   4.005  0.9327 -0.3870 -0.8443
19969SOL    HW163949   9.585   4.854   4.094 -2.9734 -0.9526 -2.0805
19969SOL    HW263950   9.670   4.929   3.994  1.3577 -0.2172  1.8030
19970SOL     OW63951   5.390   9.264   4.203  0.1289  0.0451  0.2684
19970SOL    HW163952   5.368   9.356   4.188  0.2669  0.6221  3.1152
19970SOL    HW263953   5.447   9.241   4.130  0.5491  2.3856 -0.2281
19971SOL     OW63954   1.117   5.047   0.690 -0.1774  0.3710 -0.4085
19971SOL    HW163955   1.039   5.032   0.636  0.0398  0.0084 -0.6244
19971SOL    HW263956   1.110   5.139   0.717  0.3159  0.9180 -2.0270
19972SOL     OW63957   4.891   6.580   7.259 -0.2866  0.4757 -0.1731
19972SOL    HW163958   4.976   6.545   7.233 -0.2218  0.4332  0.0922
19972SOL    HW263959   4.835   6.567   7.183 -0.0653  0.4699 -0.3357
19973SOL     OW63960   5.707   7.551   7.757 -0.3410 -0.5277 -0.0361
19973SOL    HW163961   5.754   7.633   7.747 -0.5354 -0.6238 -2.1730
19973SOL    HW263962   5.711   7.532   7.851  0.2771  1.5599  0.4090
19974SOL     OW63963   8.440   8.977   7.292  0.1176 -0.0752  0.1041
19974SOL    HW163964   8.521   8.955   7.246  1.1793  1.7270  1.0020
19974SOL    HW263965   8.468   9.034   7.364 -1.9047  0.2671  0.6802
19975SOL     OW63966   2.701   7.243   3.019  0.1915 -0.2004  0.6776
19975SOL    HW163967   2.644   7.316   3.043  0.5143  0.1560  0.3719
19975SOL    HW263968   2.678   7.174   3.081 -1.3245 -0.4341 -0.0847
19976SOL     OW63969   6.340   8.750   4.346 -0.0060  0.3180 -0.2112
19976SOL    HW163970   6.332   8.828   4.401 -3.5728 -0.6442  0.9248
19976SOL    HW263971   6.261   8.750   4.293  0.5248 -1.8854 -1.1122
19977SOL     OW63972   9.584   9.397   3.422  0.4275 -0.2519  0.6679
19977SOL    HW163973   9.673   9.364   3.434  0.6137  0.7258  2.3337
19977SOL    HW263974   9.529   9.339   3.475 -0.0777 -1.3572 -1.0043
19978SOL     OW63975   1.658   3.925   3.190 -0.2898 -0.3426  0.0313
19978SOL    HW163976   1.570   3.896   3.213 -0.1796 -0.1271  0.7466
19978SOL    HW263977   1.687   3.863   3.122 -1.0465 -0.3126 -0.3261
19979SOL     OW63978   7.979   7.652   3.108  0.1535 -0.1482  0.2274
19979SOL    HW163979   7.983   7.746   3.089 -0.7152 -0.0033  0.7095
19979SOL    HW263980   7.888   7.627   3.090  0.2338 -0.7763  0.6383
19980SOL     OW63981   4.752   0.159   2.334  0.5893  0.1171  0.3027
19980SOL    HW163982   4.676   0.202   2.374  0.7941  0.1091  0.7006
19980SOL    HW263983   4.821   0.224   2.337  1.1866 -0.5459  1.8014
19981SOL     OW63984   2.504   0.131   0.566  0.1429  0.5040  0.1986
19981SOL    HW163985   2.544   0.047   0.587  0.5925  0.0496 -2.1316
19981SOL    HW263986   2.418   0.128   0.608  0.6443 -0.5880  1.1943
19982SOL     OW63987   5.098  10.184   3.581  0.0741 -0.2335 -0.1111
19982SOL    HW163988   5.010  10.206   3.614  0.3066  1.9534 -0.7653
19982SOL    HW263989   5.082  10.131   3.503 -0.7259  0.9273 -0.7611
19983SOL     OW63990   4.072   7.749   8.416 -0.1614  0.3470  0.0760
19983SOL    HW163991   4.109   7.672   8.375 -0.9541  0.0013 -0.0132
19983SOL    HW263992   4.117   7.757   8.500  0.5386  0.2984 -0.2949
19984SOL     OW63993   9.368   5.723   3.672 -0.0837 -0.7400  0.1079
19984SOL    HW163994   9.346   5.750   3.761  1.0218 -1.3664  0.5875
19984SOL    HW263995   9.311   5.649   3.654 -0.6563 -0.3060  0.0945
19985SOL     OW63996   2.192   5.928   3.220 -0.7424 -0.5055  0.9375
19985SOL    HW163997   2.179   5.864   3.151  0.6039  0.7681 -0.5614
19985SOL    HW263998   2.105   5.968   3.232 -1.0516 -0.9276  0.1926
19986SOL     OW63999   7.586   3.140   4.183  0.1628 -0.0852 -0.2781
19986SOL    HW164000   7.674   3.150   4.220  0.0611 -0.6225  0.1285
19986SOL    HW264001   7.527   3.160   4.255 -0.0635  0.8238 -0.7010
19987SOL     OW64002   7.404   4.542   6.412 -0.5945  0.1577  0.1110
19987SOL    HW164003   7.425   4.597   6.336  0.6302 -1.1388 -0.5189
19987SOL    HW264004   7.309   4.551   6.421 -0.6461  1.0685 -0.9974
19988SOL     OW64005   2.027   9.349   0.872 -0.6472  0.0765 -0.2486
19988SOL    HW164006   2.058   9.392   0.952 -0.3112 -0.0377 -0.3146
19988SOL    HW264007   1.933   9.342   0.883 -0.6792  0.6242 -0.1321
19989SOL     OW64008   6.928   4.657  10.033  0.1850  0.5486 -0.3867
19989SOL    HW164009   6.940   4.702  10.117  0.4923 -0.6343  0.2214
19989SOL    HW264010   6.894   4.725   9.975  1.5847  1.8342  0.2140
19990SOL     OW64011   6.165   4.742   4.118 -0.3224  0.0640  0.0525
19990SOL    HW164012   6.139   4.809   4.182 -0.5168  0.4678 -0.4458
19990SOL    HW264013   6.095   4.677   4.121  0.5412 -0.8519  1.5587
19991SOL     OW64014   2.220   6.061   4.194  0.3284  0.8465 -0.2209
19991SOL    HW164015   2.230   5.966   4.204 -0.1003  0.9511  1.7493
19991SOL    HW264016   2.170   6.072   4.113  0.9780 -0.5661 -0.8341
19992SOL     OW64017   3.868   0.773   9.525  0.2795  0.1630  0.1827
19992SOL    HW164018   3.963   0.781   9.521  0.2988  1.5933  1.9704
19992SOL    HW264019   3.836   0.862   9.513 -0.6134  0.2761  2.7216
19993SOL     OW64020   4.523   0.147   4.256  0.3726  0.2329 -1.2601
19993SOL    HW164021   4.475   0.163   4.337  2.3571 -0.1733  0.0637
19993SOL    HW264022   4.457   0.114   4.195 -0.8354 -1.5193  0.8633
19994SOL     OW64023   4.530   1.631   2.413 -0.2976 -0.4698 -0.7009
19994SOL    HW164024   4.472   1.558   2.393  0.0029 -1.1176  0.6844
19994SOL    HW264025   4.608   1.590   2.450  0.7251  0.4388 -1.7560
19995SOL     OW64026   7.157   8.419   3.759  0.3909 -0.3110 -0.5969
19995SOL    HW164027   7.069   8.454   3.745 -0.4072 -2.1231 -0.3993
19995SOL    HW264028   7.210   8.496   3.781 -1.5864  0.6044  1.3384
19996SOL     OW64029   6.131   4.258   1.697 -0.4667 -1.0682  0.1809
19996SOL    HW164030   6.192   4.187   1.679 -1.5779 -2.0520  0.1144
19996SOL    HW264031   6.045   4.221   1.678 -0.9299  1.4531 -3.6365
19997SOL     OW64032   6.627   3.819   7.471  0.2515 -0.8189  0.1566
19997SOL    HW164033   6.567   3.745   7.464 -1.2029  0.4129 -1.3454
19997SOL    HW264034   6.702   3.795   7.416 -0.5256 -0.9208 -0.8925
19998SOL     OW64035   7.135   4.104   0.012  0.1555 -0.4025 -0.0008
19998SOL    HW164036   7.145   4.104   0.107  3.3494  0.7346 -0.1997
19998SOL    HW264037   7.208   4.050  -0.020  0.7933  1.3573 -1.8188
19999SOL     OW64038   6.716   8.931   1.746  0.1702  0.1981 -0.7837
19999SOL    HW164039   6.733   8.981   1.826  0.9077  0.8016 -1.3044
19999SOL    HW264040   6.695   8.843   1.777 -1.5042  0.8826  0.1667
20000SOL     OW64041   6.657   3.779   7.113 -0.3278 -0.3188  0.3641
20000SOL    HW164042   6.678   3.753   7.023 -0.8669 -1.7858  0.6335
20000SOL    HW264043   6.696   3.711   7.167 -1.2565 -0.2414  1.1555
20001SOL     OW64044   8.598   6.775   4.068  0.4764 -0.1068 -0.5853
20001SOL    HW164045   8.546   6.737   3.997 -0.5030  1.3365 -0.6943
20001SOL    HW264046   8.650   6.844   4.026  1.6638 -0.7942 -0.2775
20002SOL     OW64047   0.572   7.227   0.419 -0.1974  0.7376 -0.1311
20002SOL    HW164048   0.593   7.190   0.334  0.4485  3.0695 -1.0819
20002SOL    HW264049   0.479   7.209   0.431  0.2712 -1.9446 -0.0259
20003SOL     OW64050   4.685  10.167   3.137  0.1121  0.1298 -0.1342
20003SOL    HW164051   4.751  10.098   3.130 -0.3278 -0.2862 -0.2133
20003SOL    HW264052   4.734  10.245   3.163  0.3590 -0.6853  2.0774
20004SOL     OW64053  10.011   8.036   8.882  0.4421  0.6543  0.0409
20004SOL    HW164054   9.923   8.028   8.917  0.1774 -0.9531 -0.9093
20004SOL    HW264055  10.010   8.118   8.833 -0.0223  1.4585  1.3384
20005SOL     OW64056  10.098   1.260   0.118  0.3792  0.2129  0.6094
20005SOL    HW164057  10.154   1.228   0.189  0.7514  1.6775  1.0138
20005SOL    HW264058  10.068   1.346   0.147 -0.5149  0.2922 -0.4572
20006SOL     OW64059   3.269   6.576   6.881 -0.0160  0.0323  0.3663
20006SOL    HW164060   3.337   6.518   6.846  0.1658 -0.0238  0.7975
20006SOL    HW264061   3.294   6.663   6.851  0.1988 -0.0011  0.4450
20007SOL     OW64062   5.329   9.066   4.744  0.4153  0.4518  0.2015
20007SOL    HW164063   5.347   9.067   4.650  0.8041 -0.8770  0.2358
20007SOL    HW264064   5.236   9.046   4.750  0.8092 -1.6950  0.0766
20008SOL     OW64065   9.574   5.124   2.015  0.0927 -0.5603 -0.1711
20008SOL    HW164066   9.513   5.183   1.971  0.1728 -0.8084 -0.6205
20008SOL    HW264067   9.606   5.175   2.090 -1.3274 -0.7504  0.5894
20009SOL     OW64068   7.710   3.554   5.379 -0.9656  0.5982  0.3025
20009SOL    HW164069   7.797   3.517   5.394 -0.7680  1.3172  1.0264
20009SOL    HW264070   7.726   3.643   5.349 -1.4483  0.6663  0.2315
20010SOL     OW64071   3.643  10.154   2.694 -0.2574 -0.1123  0.5624
20010SOL    HW164072   3.660  10.078   2.748  0.2782  0.1670  0.7905
20010SOL    HW264073   3.582  10.122   2.627  0.9474 -1.0702 -0.1167
20011SOL     OW64074   8.105   2.451   0.740 -0.2089  0.5664 -0.3822
20011SOL    HW164075   8.141   2.539   0.750  1.3548  0.0540 -1.1077
20011SOL    HW264076   8.014   2.465   0.713 -0.1352  1.9353 -0.0240
20012SOL     OW64077   6.395   8.908   2.958 -0.1113  0.0186  0.3534
20012SOL    HW164078   6.485   8.932   2.937 -0.1403  0.7924  1.0642
20012SOL    HW264079   6.388   8.816   2.933  0.6013  0.1982 -0.5674
20013SOL     OW64080   3.399   5.232   8.106  0.0104  0.7171  0.1923
20013SOL    HW164081   3.315   5.259   8.070 -1.2056  0.9734  3.0175
20013SOL    HW264082   3.428   5.306   8.159  1.5034  0.2030  0.1568
20014SOL     OW64083   2.730   2.280   0.521  0.1538  0.2556  0.8833
20014SOL    HW164084   2.764   2.364   0.551 -1.4989  1.3270 -0.0980
20014SOL    HW264085   2.775   2.215   0.576  0.8655  1.8124  2.2264
20015SOL     OW64086   3.949   0.682   2.194  0.0515  0.1252 -0.5576
20015SOL    HW164087   3.885   0.709   2.259 -0.0555 -2.8960  0.7861
20015SOL    HW264088   4.018   0.749   2.197 -0.8168  0.9818  1.3735
20016SOL     OW64089   0.298   9.209   4.337  0.6266 -0.0364 -0.0174
20016SOL    HW164090   0.340   9.264   4.270 -0.0450 -1.9896 -2.1995
20016SOL    HW264091   0.314   9.119   4.307 -0.6479 -0.9742  1.9048
20017SOL     OW64092   0.443   9.393   9.598  0.5189  0.2745  0.3892
20017SOL    HW164093   0.530   9.430   9.611  0.3454  0.4493  1.0855
20017SOL    HW264094   0.389   9.436   9.664 -0.0492  0.0153  0.0950
20018SOL     OW64095   1.945   6.659   9.664 -0.0555  0.1583 -0.0845
20018SOL    HW164096   1.978   6.570   9.664 -0.6148 -0.0559  0.4727
20018SOL    HW264097   1.934   6.681   9.571  2.0058  0.3908 -0.3376
20019SOL     OW64098   0.394   8.830   7.872 -0.3121 -0.0408 -0.2863
20019SOL    HW164099   0.341   8.789   7.939  0.1379  1.1417  0.8288
20019SOL    HW264100   0.413   8.918   7.906  1.5582 -0.0947 -1.0557
20020SOL     OW64101   7.873   8.873   6.936  0.3354 -0.4281 -0.3993
20020SOL    HW164102   7.788   8.838   6.911  1.4847 -4.3946  0.5655
20020SOL    HW264103   7.913   8.900   6.853 -0.3997 -2.2161 -1.3841
20021SOL     OW64104   7.622  10.095   9.593 -0.4492 -0.0572 -0.0715
20021SOL    HW164105   7.604  10.185   9.619  1.3033 -0.0786  1.4195
20021SOL    HW264106   7.568  10.081   9.515 -0.2356  2.4840 -0.7435
20022SOL     OW64107   5.996   1.633   3.575  0.3575  0.2074  0.3483
20022SOL    HW164108   6.029   1.716   3.610 -0.0541  0.1552  0.8808
20022SOL    HW264109   6.055   1.566   3.610 -1.7737 -0.1926  3.5484
20023SOL     OW64110   7.986   2.689   3.048  0.0535  0.1269  0.4530
20023SOL    HW164111   7.917   2.643   3.095 -0.4670  0.1240 -0.2816
20023SOL    HW264112   8.032   2.621   2.999 -1.1604  0.4064 -1.1889
20024SOL     OW64113   2.838   1.357   7.345 -0.6378  0.0009  0.3477
20024SOL    HW164114   2.913   1.378   7.290 -1.2536  0.1378 -0.4519
20024SOL    HW264115   2.811   1.270   7.317 -1.1051  0.1717  0.2616
20025SOL     OW64116   8.439   0.289   2.665  0.1460 -0.0442 -0.2391
20025SOL    HW164117   8.418   0.362   2.724 -2.7555 -0.4563 -0.5974
20025SOL    HW264118   8.412   0.211   2.713  1.3531 -0.7408 -0.6489
20026SOL     OW64119   6.471   0.129   3.674  0.2292 -0.3922  0.3316
20026SOL    HW164120   6.537   0.116   3.606  0.8325  0.8940  0.6462
20026SOL    HW264121   6.463   0.224   3.683  0.3499 -0.5194  2.2186
20027SOL     OW64122   7.319   9.203   0.404 -0.3293 -0.4505 -0.1700
20027SOL    HW164123   7.301   9.287   0.447  1.2344  0.8461 -1.8795
20027SOL    HW264124   7.233   9.163   0.392 -1.3843  2.0185 -1.4073
20028SOL     OW64125   6.605   9.105   5.862  0.6130  0.9391 -0.0379
20028SOL    HW164126   6.518   9.124   5.826  0.2857  0.7484  0.6347
20028SOL    HW264127   6.652   9.063   5.790  0.1491  1.0441 -0.4091
20029SOL     OW64128   8.486   1.396   9.946 -0.1471  0.2696 -0.3275
20029SOL    HW164129   8.419   1.328   9.939 -0.1854 -0.1609  2.8559
20029SOL    HW264130   8.568   1.348   9.958 -0.1361  0.6950  1.6580
20030SOL     OW64131   9.993   1.438   3.851  0.5822 -0.3886 -0.4367
20030SOL    HW164132  10.008   1.521   3.805 -0.6287 -1.4636 -2.9788
20030SOL    HW264133  10.018   1.456   3.942  1.0780  2.5208 -1.0460
20031SOL     OW64134   2.780   0.096   2.790 -0.3817  0.2158  0.5748
20031SOL    HW164135   2.837   0.031   2.830 -1.6410 -0.9801  0.4788
20031SOL    HW264136   2.796   0.176   2.841  2.2361  0.2846 -0.1989
20032SOL     OW64137   2.422   9.246   0.034  0.2600  0.3831 -1.0559
20032SOL    HW164138   2.368   9.291   0.099  0.3627 -2.7717  1.4775
20032SOL    HW264139   2.360   9.192  -0.015  0.7046 -1.7474  0.5500
20033SOL     OW64140   7.668   9.082   7.917 -0.2456  0.1293 -0.1849
20033SOL    HW164141   7.597   9.132   7.958  0.5872  0.6047  0.7091
20033SOL    HW264142   7.698   9.023   7.985 -1.1962 -1.6554 -1.2126
20034SOL     OW64143   5.385   3.639   1.040  0.1233  0.4083  0.2169
20034SOL    HW164144   5.432   3.556   1.030 -0.7251 -0.0297 -0.2654
20034SOL    HW264145   5.442   3.705   1.002  1.2076  0.1921  1.4053
20035SOL     OW64146   8.246   9.136   4.736 -0.0712  0.1470 -0.5103
20035SOL    HW164147   8.189   9.086   4.795 -2.3554  1.1662 -1.7019
20035SOL    HW264148   8.274   9.211   4.787  1.5039 -1.0953  0.5575
20036SOL     OW64149   1.271   4.669   7.750 -0.0434 -0.5365 -0.9364
20036SOL    HW164150   1.353   4.621   7.734  0.2980  0.0299 -0.9005
20036SOL    HW264151   1.299   4.757   7.774 -0.6993  0.0008 -2.0775
20037SOL     OW64152   3.967   1.385   9.174 -0.7094 -0.0680 -0.2854
20037SOL    HW164153   3.964   1.410   9.082  2.8818 -1.8411 -1.0631
20037SOL    HW264154   3.932   1.297   9.177 -2.0243  0.4460  0.3407
20038SOL     OW64155   1.240   4.856   4.789 -0.0619  0.3038 -0.9811
20038SOL    HW164156   1.280   4.782   4.835 -0.3004 -0.1906 -1.5560
20038SOL    HW264157   1.227   4.824   4.700 -1.0831  0.7074 -0.9846
20039SOL     OW64158   4.826   5.800   0.218  0.3038 -0.6976 -0.2750
20039SOL    HW164159   4.864   5.825   0.302  1.6045 -2.0342 -0.4139
20039SOL    HW264160   4.898   5.756   0.171 -0.5523 -0.5132 -1.8496
20040SOL     OW64161   1.453   7.177   0.705  0.1870 -0.2268 -0.4893
20040SOL    HW164162   1.470   7.083   0.707  2.1656  0.0720  1.9573
20040SOL    HW264163   1.374   7.189   0.757 -0.4850 -0.5744 -1.4133
20041SOL     OW64164   0.918   5.794   1.783  0.5070  0.2383 -0.4213
20041SOL    HW164165   0.921   5.703   1.811 -1.1153  0.5372  0.8372
20041SOL    HW264166   1.008   5.825   1.794  0.8705 -0.9326  0.0519
20042SOL     OW64167   4.473   2.406   5.312 -0.3219  0.4058 -0.1897
20042SOL    HW164168   4.425   2.355   5.247  0.1394  1.5374 -1.4741
20042SOL    HW264169   4.473   2.352   5.391  2.3098 -2.7799 -2.1405
20043SOL     OW64170   2.826   0.224   0.908 -0.4272  0.0466 -0.0024
20043SOL    HW164171   2.852   0.297   0.965  2.1638  0.1746 -1.2080
20043SOL    HW264172   2.741   0.250   0.873 -0.4045  1.6226  0.9905
20044SOL     OW64173   3.388   4.134   1.312  0.3727 -0.5627  0.1289
20044SOL    HW164174   3.404   4.170   1.400  0.0942 -0.5938  0.1923
20044SOL    HW264175   3.439   4.190   1.254  1.2358 -1.0523  0.3984
20045SOL     OW64176   2.527   6.570   5.249  0.0354  0.5306  0.0193
20045SOL    HW164177   2.480   6.553   5.331 -1.2491  1.1733 -0.5543
20045SOL    HW264178   2.613   6.602   5.277 -0.1490  0.1073  1.1098
20046SOL     OW64179   5.949   8.315   9.098  0.1296 -0.1735  0.5943
20046SOL    HW164180   6.004   8.245   9.064  0.5941  0.3660  0.2137
20046SOL    HW264181   5.880   8.327   9.032 -0.0290 -0.3641  0.7257
20047SOL     OW64182  10.226   1.043   2.676 -0.2277  0.0942 -0.0664
20047SOL    HW164183  10.138   1.077   2.661 -0.0667  0.0652 -1.1504
20047SOL    HW264184  10.256   1.014   2.590  1.0085  0.5089  0.1969
20048SOL     OW64185   7.549   1.130   6.725  0.0658  0.0039 -0.2925
20048SOL    HW164186   7.582   1.219   6.734  1.4795 -0.6472  1.6134
20048SOL    HW264187   7.628   1.077   6.712 -0.6084 -1.1412  0.1397
20049SOL     OW64188   4.391   1.335   0.050  0.1137  0.3204  0.1778
20049SOL    HW164189   4.392   1.406  -0.014  1.8582 -1.8653 -2.4575
20049SOL    HW264190   4.474   1.345   0.098 -0.7264  1.3516  1.5037
20050SOL     OW64191   0.834   7.115   9.615 -0.1085 -0.0263 -0.2921
20050SOL    HW164192   0.786   7.156   9.542  2.0570 -1.5191 -2.7449
20050SOL    HW264193   0.914   7.168   9.623 -0.1916 -0.0646  0.8326
20051SOL     OW64194   6.523   1.835   2.655  0.6343 -0.5746 -0.5042
20051SOL    HW164195   6.542   1.928   2.641 -0.4437 -0.2672 -0.0275
20051SOL    HW264196   6.435   1.834   2.693  1.1648 -1.7051  0.7990
20052SOL     OW64197   2.844   9.116   4.560 -0.0196  0.0502  0.0380
20052SOL    HW164198   2.833   9.095   4.467 -1.6274  0.7472  0.0259
20052SOL    HW264199   2.895   9.197   4.560 -0.0177  0.0507 -0.2443
20053SOL     OW64200   2.049   9.043   5.350 -0.7752  0.4802 -0.4780
20053SOL    HW164201   1.978   8.985   5.319 -0.5680 -0.4231  0.6778
20053SOL    HW264202   2.060   9.107   5.279 -1.3937 -0.5643 -1.5622
20054SOL     OW64203   9.861   4.546   3.766 -0.0104 -0.4426 -0.2279
20054SOL    HW164204   9.769   4.571   3.766 -0.0260 -0.5059  0.1713
20054SOL    HW264205   9.906   4.615   3.815  0.0537 -0.7770  0.1910
20055SOL     OW64206   0.759   3.728   5.618 -0.3040 -0.1379  0.4592
20055SOL    HW164207   0.707   3.690   5.548 -0.7669  0.2854  0.5722
20055SOL    HW264208   0.849   3.729   5.583 -0.5117 -0.0277 -0.0816
20056SOL     OW64209   7.755   8.166   6.680  0.3554 -0.0618  0.6800
20056SOL    HW164210   7.847   8.190   6.666 -0.8898  4.2763 -2.4582
20056SOL    HW264211   7.724   8.230   6.744 -0.8297 -0.4270  0.4896
20057SOL     OW64212   6.999   6.388   8.738  0.3849 -0.2858  0.2672
20057SOL    HW164213   6.982   6.411   8.829 -1.0685 -0.4177  0.0469
20057SOL    HW264214   6.929   6.432   8.689  0.7689 -0.7561 -0.7125
20058SOL     OW64215   1.023   9.699   1.692  0.5144 -0.0879 -0.1478
20058SOL    HW164216   0.971   9.643   1.634 -0.8935  1.7720 -0.7405
20058SOL    HW264217   1.056   9.638   1.759 -1.4049 -1.5652 -0.4352
20059SOL     OW64218   7.722   6.541   4.956 -0.3147 -0.3065  0.1603
20059SOL    HW164219   7.740   6.581   5.041 -0.2116  1.5322 -0.6739
20059SOL    HW264220   7.805   6.501   4.930  0.1596  0.6529  0.1600
20060SOL     OW64221   9.976   7.177   9.300 -0.3327 -0.0560  0.4724
20060SOL    HW164222  10.003   7.187   9.391  0.3405  1.1373  0.1687
20060SOL    HW264223   9.902   7.116   9.303 -0.0604 -0.3519  1.7624
20061SOL     OW64224   3.589   3.637   9.509 -0.4082 -0.2485  0.5320
20061SOL    HW164225   3.512   3.641   9.566 -1.0632  0.7368 -0.4110
20061SOL    HW264226   3.651   3.700   9.548 -1.4990  1.6934 -0.7426
20062SOL     OW64227   8.406   1.324   7.924  0.0351 -0.0138 -0.3664
20062SOL    HW164228   8.463   1.289   7.993  0.5088  0.4349 -0.5207
20062SOL    HW264229   8.320   1.332   7.966 -0.1503 -1.5498 -0.3919
20063SOL     OW64230   6.882   2.000   2.565 -0.0291 -0.3836 -0.5169
20063SOL    HW164231   6.957   1.974   2.511 -0.5870 -1.4409 -0.7988
20063SOL    HW264232   6.812   2.018   2.503  0.1107  1.1030 -0.2798
20064SOL     OW64233   3.447   3.032   8.614 -1.0650  0.6861  0.4618
20064SOL    HW164234   3.428   3.029   8.708  0.0386  1.2920  0.7155
20064SOL    HW264235   3.399   2.957   8.578  0.0842 -0.7550  1.8077
20065SOL     OW64236   1.474   7.561   9.510 -0.2387 -0.2903  0.0312
20065SOL    HW164237   1.532   7.612   9.567  0.3024 -0.8161 -0.0390
20065SOL    HW264238   1.492   7.470   9.534 -2.4639 -0.4333  1.4087
20066SOL     OW64239   5.956   6.268  10.008 -0.2103  0.3811  0.5814
20066SOL    HW164240   5.928   6.291  10.097 -0.5077 -0.5766  0.7410
20066SOL    HW264241   5.892   6.204   9.978 -1.4416  2.3031 -1.1934
20067SOL     OW64242   5.297   0.831   2.158 -0.2688 -0.3810  0.3671
20067SOL    HW164243   5.389   0.843   2.181 -0.5928  3.0363  0.4546
20067SOL    HW264244   5.259   0.783   2.232  0.8490  0.9687  1.8774
20068SOL     OW64245   7.683   3.071   9.644 -0.1316 -0.0953 -0.0919
20068SOL    HW164246   7.682   3.073   9.740 -1.1536 -0.6563 -0.0770
20068SOL    HW264247   7.662   3.161   9.619  1.9298  0.5214  0.1632
20069SOL     OW64248   6.808   3.580   6.825 -0.1730  0.2147 -0.4177
20069SOL    HW164249   6.835   3.521   6.754 -1.1675 -0.9740  0.1731
20069SOL    HW264250   6.784   3.523   6.897  0.5913  1.4066  0.8282
20070SOL     OW64251   2.461   6.647   3.668 -0.0510 -0.9052 -0.0051
20070SOL    HW164252   2.376   6.679   3.697 -0.2650 -0.3864 -1.1578
20070SOL    HW264253   2.469   6.676   3.577  2.7389  1.9162  0.9562
20071SOL     OW64254   6.154   6.049   1.153  0.4602  0.6499 -0.3773
20071SOL    HW164255   6.088   6.079   1.090  0.2500 -1.3315 -1.1809
20071SOL    HW264256   6.115   6.066   1.239 -0.9880 -0.1522 -0.8321
20072SOL     OW64257   3.528   1.389   9.353  0.3571  0.2769 -0.1703
20072SOL    HW164258   3.500   1.470   9.396  2.4138  0.5499  0.8088
20072SOL    HW264259   3.580   1.419   9.278  1.0196 -0.1292  0.1229
20073SOL     OW64260   2.555   0.707   5.814 -0.2192 -0.1784  0.2747
20073SOL    HW164261   2.567   0.799   5.788 -1.4213  0.3240  1.3595
20073SOL    HW264262   2.463   0.688   5.792 -0.1279 -0.9614  0.5423
20074SOL     OW64263   1.829   8.113   7.705  0.6155  0.4169  0.7022
20074SOL    HW164264   1.884   8.035   7.700  1.8729  1.2520  1.0471
20074SOL    HW264265   1.884   8.178   7.750 -0.5350  1.3827  0.7445
20075SOL     OW64266   3.245   4.949   2.359  0.2324  0.5253  0.5246
20075SOL    HW164267   3.235   5.032   2.406  0.2166 -0.4234  2.2720
20075SOL    HW264268   3.337   4.946   2.335  0.4109  0.6855  1.1706
20076SOL     OW64269   2.674   3.316   5.685 -0.3046  0.6452  0.2048
20076SOL    HW164270   2.635   3.267   5.612 -0.1726  0.9761 -0.0906
20076SOL    HW264271   2.682   3.252   5.755  0.4951  0.0626 -0.3992
20077SOL     OW64272   1.663   7.367   8.652  0.2561 -0.8405  0.3847
20077SOL    HW164273   1.629   7.287   8.693  1.8400 -1.4524  0.5712
20077SOL    HW264274   1.724   7.403   8.716  0.4125 -0.1098 -0.1699
20078SOL     OW64275  10.283   3.455   6.365 -0.2172  0.2989  0.0464
20078SOL    HW164276  10.313   3.495   6.447  1.3211  0.5992 -0.6167
20078SOL    HW264277  10.258   3.366   6.390 -1.9469  1.0636  1.2192
20079SOL     OW64278   6.803   1.616   0.815 -0.2485  0.0658 -0.3118
20079SOL    HW164279   6.879   1.659   0.777 -0.8465  0.0438 -1.5963
20079SOL    HW264280   6.771   1.677   0.881 -0.1687  0.8930 -1.0184
20080SOL     OW64281   5.443   0.847   0.246 -0.3314  0.1033  0.0582
20080SOL    HW164282   5.527   0.801   0.240 -1.1025 -1.3117 -0.2994
20080SOL    HW264283   5.467   0.940   0.245  1.1884 -0.2540 -0.8828
20081SOL     OW64284   3.045   3.951   1.691  0.9630  0.5944  0.0594
20081SOL    HW164285   3.070   3.879   1.749  1.5633 -0.0884 -1.0333
20081SOL    HW264286   3.095   4.026   1.725  1.2470  0.2254  0.4811
20082SOL     OW64287   9.092   1.781   1.319  0.3033 -0.0164  0.6941
20082SOL    HW164288   9.060   1.746   1.235 -4.4327  3.1933  0.7688
20082SOL    HW264289   9.148   1.854   1.294  1.1983 -0.7746  0.4282
20083SOL     OW64290   5.982   3.638   9.543 -0.4469 -0.5684 -0.5100
20083SOL    HW164291   5.916   3.585   9.498 -1.7055  1.5237 -1.2490
20083SOL    HW264292   5.932   3.695   9.601  0.6104  1.5952 -1.6218
20084SOL     OW64293  10.212   6.545   0.072 -0.2469  0.4008  0.7832
20084SOL    HW164294  10.128   6.567   0.032 -0.5684  0.6451  1.5614
20084SOL    HW264295  10.199   6.563   0.165  0.6338  0.3243  0.9275
20085SOL     OW64296   7.827   1.260   5.390 -0.2731 -0.0239 -0.2172
20085SOL    HW164297   7.799   1.242   5.300 -0.7319 -1.6527  0.2059
20085SOL    HW264298   7.894   1.194   5.407  0.4159  0.8123  0.3785
20086SOL     OW64299   1.004   3.824   2.928 -0.1091  0.6939  0.1209
20086SOL    HW164300   0.965   3.897   2.977 -0.7625  0.2688  0.2418
20086SOL    HW264301   0.935   3.758   2.924 -0.2283  0.8730 -1.7490
20087SOL     OW64302   9.361   4.443   2.828 -0.0259 -0.0187 -0.1909
20087SOL    HW164303   9.360   4.518   2.769 -2.3400  0.5707  0.5019
20087SOL    HW264304   9.294   4.384   2.793 -1.2022  0.1799  1.5766
20088SOL     OW64305   3.836   5.284   2.340 -0.2382 -0.5300  0.5321
20088SOL    HW164306   3.756   5.258   2.294 -0.7517  1.0765  0.4663
20088SOL    HW264307   3.888   5.329   2.275  1.4887 -2.8746  0.1485
20089SOL     OW64308   7.514   3.614   1.055 -0.2681  0.1644  0.4829
20089SOL    HW164309   7.572   3.567   0.995  0.9236 -0.3297  1.9495
20089SOL    HW264310   7.468   3.677   0.999  1.1188  0.0454 -0.8681
20090SOL     OW64311   9.089   4.484   6.025  0.5727 -0.2656 -0.2347
20090SOL    HW164312   9.121   4.430   5.953  0.8681 -0.9809  0.4154
20090SOL    HW264313   8.994   4.485   6.013  0.3720 -2.4095  0.7008
20091SOL     OW64314   6.205   8.621   2.165  0.0368  0.0733 -0.1306
20091SOL    HW164315   6.219   8.582   2.078  2.5075  0.1070  0.1800
20091SOL    HW264316   6.184   8.546   2.221  1.7148 -0.4739 -0.1586
20092SOL     OW64317   1.898   4.014   1.927  0.2074  0.6956  0.2336
20092SOL    HW164318   1.809   4.002   1.893  0.6931 -0.2599 -0.7584
20092SOL    HW264319   1.947   4.050   1.853  0.6046  1.4771  0.8578
20093SOL     OW64320   3.591   2.647   4.096  0.1411 -0.3000  0.2560
20093SOL    HW164321   3.533   2.571   4.103 -0.3242  0.0124 -0.1445
20093SOL    HW264322   3.643   2.644   4.176 -1.1587  0.0081  1.1488
20094SOL     OW64323   6.059   2.726   1.151  0.1010  0.0028  0.0287
20094SOL    HW164324   6.127   2.678   1.104 -0.0563 -0.8814  0.6783
20094SOL    HW264325   5.980   2.716   1.098 -0.1201 -1.1441  0.5431
20095SOL     OW64326   0.018   3.866   2.581 -0.4989  0.4639 -0.5976
20095SOL    HW164327  -0.077   3.871   2.591 -0.5797  1.2102 -1.5603
20095SOL    HW264328   0.052   3.928   2.646 -0.6764  0.3523 -0.3968
20096SOL     OW64329   9.366   9.851  10.242  0.1897 -0.4700 -0.3477
20096SOL    HW164330   9.455   9.829  10.271 -0.7726 -1.6481  2.0394
20096SOL    HW264331   9.329   9.767  10.215 -0.0946  0.0824 -1.7527
20097SOL     OW64332   2.714   3.293   7.481 -0.0105  0.4496 -0.2160
20097SOL    HW164333   2.737   3.325   7.568  0.8828 -0.6598 -0.0337
20097SOL    HW264334   2.722   3.370   7.424  1.3848  0.7309  0.3352
20098SOL     OW64335   1.103   6.303   3.302 -0.0028  0.8670 -0.2233
20098SOL    HW164336   1.162   6.249   3.250  1.4143  1.1600  1.0251
20098SOL    HW264337   1.030   6.244   3.323  1.1385 -0.3561  0.4596
20099SOL     OW64338   9.787   9.835   3.336  0.0058 -0.7201  0.0578
20099SOL    HW164339   9.760   9.817   3.247 -0.2132 -0.8269  0.1456
20099SOL    HW264340   9.883   9.833   3.333 -0.0011 -0.6946 -0.1784
20100SOL     OW64341   4.699   5.012   6.975 -0.9239  0.2956 -0.5889
20100SOL    HW164342   4.755   5.023   7.052 -0.6458  1.2712 -0.9149
20100SOL    HW264343   4.624   5.069   6.991 -0.9579  0.3558 -0.9505
20101SOL     OW64344   5.666   1.641   8.805  0.3122 -0.2346 -0.4707
20101SOL    HW164345   5.706   1.596   8.731 -0.7794 -2.4202  0.1840
20101SOL    HW264346   5.574   1.613   8.803  0.4519 -1.1309  2.2019
20102SOL     OW64347   1.405   1.418   6.257  0.2137  0.1832  0.2904
20102SOL    HW164348   1.342   1.367   6.308 -2.5899  2.8910 -0.1720
20102SOL    HW264349   1.429   1.491   6.314  1.3742  0.2948 -0.3102
20103SOL     OW64350   7.616   7.445   6.744  0.3440 -0.2664 -0.2500
20103SOL    HW164351   7.653   7.524   6.782  1.0411 -1.3339  1.3851
20103SOL    HW264352   7.614   7.382   6.816  1.5002 -2.3097 -1.8861
20104SOL     OW64353   4.157   2.176   7.603 -0.0068  0.2309 -0.6734
20104SOL    HW164354   4.136   2.087   7.630 -1.3142  0.6910 -0.0976
20104SOL    HW264355   4.243   2.193   7.643 -0.0870 -0.5099 -0.1623
20105SOL     OW64356   0.970   6.529   9.190 -0.4768  0.3278 -0.3774
20105SOL    HW164357   0.990   6.437   9.211 -1.9033  0.0168 -0.2391
20105SOL    HW264358   0.888   6.524   9.140 -2.2276  1.6737  2.1441
20106SOL     OW64359   4.425   2.613   7.255 -0.0525  0.0510 -0.2818
20106SOL    HW164360   4.455   2.667   7.182  0.0790  1.8567  1.0204
20106SOL    HW264361   4.506   2.584   7.298 -0.1317  0.0929 -0.1020
20107SOL     OW64362   9.563   6.195   9.147 -0.0062 -1.0244 -0.0049
20107SOL    HW164363   9.512   6.128   9.103 -0.5085 -0.6132 -0.0611
20107SOL    HW264364   9.611   6.148   9.215  0.2082 -1.5493 -0.5052
20108SOL     OW64365   0.491   3.039   5.155  0.0694  0.0946 -0.3146
20108SOL    HW164366   0.460   3.127   5.178  0.0452  0.1062 -0.3918
20108SOL    HW264367   0.478   2.988   5.235 -1.8142 -0.3456 -0.8322
20109SOL     OW64368   8.248   8.679   8.479  0.1775 -0.2389 -0.0327
20109SOL    HW164369   8.314   8.656   8.413  0.2735 -1.9469  0.6277
20109SOL    HW264370   8.273   8.629   8.556 -0.5852  0.8810  0.9676
20110SOL     OW64371   9.386   8.291   1.829  0.7178 -0.0322  0.1393
20110SOL    HW164372   9.475   8.271   1.857  1.0219  1.7869  0.5363
20110SOL    HW264373   9.343   8.325   1.906  0.1423  0.5698 -0.4377
20111SOL     OW64374   7.919   4.288   6.899 -0.1695 -0.2356 -0.2000
20111SOL    HW164375   7.836   4.336   6.903  0.9226  1.7144  0.9251
20111SOL    HW264376   7.906   4.212   6.956 -0.6712  0.9724  1.3744
20112SOL     OW64377  10.008   2.482   5.281  0.2143 -0.1548  0.1647
20112SOL    HW164378   9.990   2.567   5.240 -0.4884 -0.0194  0.7385
20112SOL    HW264379   9.973   2.418   5.219  0.7390 -0.0372 -0.2675
20113SOL     OW64380   4.240   4.774   1.783  0.1915  0.4935  0.2398
20113SOL    HW164381   4.255   4.856   1.737 -1.2344  0.2593 -0.7174
20113SOL    HW264382   4.198   4.800   1.865  0.2905  0.7623  0.2056
20114SOL     OW64383   6.859   6.406   0.892  0.4943  0.2794 -0.8746
20114SOL    HW164384   6.847   6.462   0.969 -1.6106 -0.6805 -0.4337
20114SOL    HW264385   6.797   6.441   0.828 -0.0633 -0.8464 -0.9704
20115SOL     OW64386  10.170   9.605   1.410  0.0158 -0.3205 -0.3406
20115SOL    HW164387  10.218   9.522   1.415 -0.8181 -0.8758 -0.9824
20115SOL    HW264388  10.204   9.648   1.332  0.7566  0.1528  0.2376
20116SOL     OW64389   3.723   1.781   6.387 -0.7393  0.1802  0.4134
20116SOL    HW164390   3.802   1.835   6.395  0.7139 -2.0271  2.1093
20116SOL    HW264391   3.734   1.735   6.303  0.0290 -0.4566  0.8529
20117SOL     OW64392   2.841   6.475   8.685 -0.6231  0.0030  0.0860
20117SOL    HW164393   2.863   6.387   8.715  2.7131  0.8148  0.5015
20117SOL    HW264394   2.863   6.474   8.592 -0.1491  0.4627  0.1844
20118SOL     OW64395   9.283   3.219   9.954  0.2901  0.5613 -0.1294
20118SOL    HW164396   9.347   3.258  10.014  1.0333  2.4774 -2.0443
20118SOL    HW264397   9.329   3.215   9.870 -1.6122  0.5152 -1.2059
20119SOL     OW64398   9.330   5.091   0.468 -0.6027  0.4555  0.0353
20119SOL    HW164399   9.284   5.089   0.551 -2.5694 -1.0684 -1.0142
20119SOL    HW264400   9.310   5.007   0.427 -0.9620  1.7335 -2.6302
20120SOL     OW64401   7.110   3.483   5.790  0.3111 -0.6158  0.1154
20120SOL    HW164402   7.100   3.565   5.838  0.4982 -1.4722  1.6454
20120SOL    HW264403   7.195   3.449   5.817  0.1706 -1.3986 -0.4049
20121SOL     OW64404   5.640   6.753   0.517  0.0378 -0.2730  0.0270
20121SOL    HW164405   5.583   6.713   0.582  1.1124 -0.4498  0.8954
20121SOL    HW264406   5.586   6.760   0.438 -1.0096 -0.8933  0.6682
20122SOL     OW64407   1.817   5.330   7.728 -0.5179  0.1212  0.1086
20122SOL    HW164408   1.847   5.345   7.639  0.0797  0.2917  0.3373
20122SOL    HW264409   1.783   5.241   7.727 -1.4559  0.4673 -0.5406
20123SOL     OW64410   2.935   7.318   9.249  0.7789  0.1491  0.4513
20123SOL    HW164411   2.968   7.235   9.213 -0.2257  0.2330 -0.7074
20123SOL    HW264412   3.012   7.375   9.251  1.4983 -0.8130  1.3312
20124SOL     OW64413   0.074   7.929   0.022 -0.3306 -0.2263  0.2735
20124SOL    HW164414   0.135   7.914   0.094 -2.4092  0.3330  2.2825
20124SOL    HW264415   0.096   8.017  -0.009  0.0775 -0.1378  0.7895
20125SOL     OW64416   2.031   6.525   8.700 -0.0445 -0.5696 -0.3997
20125SOL    HW164417   2.125   6.543   8.704 -0.1674  0.2977 -1.1307
20125SOL    HW264418   2.022   6.437   8.736  1.1959 -1.1837 -1.5122
20126SOL     OW64419   3.500   2.474   9.211  0.3325  0.4630 -0.0529
20126SOL    HW164420   3.532   2.514   9.130  1.2972 -1.5583 -0.7631
20126SOL    HW264421   3.434   2.534   9.244  1.6145  2.5234 -1.0575
20127SOL     OW64422   8.908   8.700   5.570  0.0240  0.1167  0.0127
20127SOL    HW164423   8.891   8.790   5.596  1.0561 -0.0404  1.3198
20127SOL    HW264424   8.836   8.679   5.510 -0.2379  1.7867 -0.3095
20128SOL     OW64425   4.483   9.099   6.122 -0.2582  0.1865 -0.0297
20128SOL    HW164426   4.555   9.044   6.153  1.3471  1.9948 -0.3470
20128SOL    HW264427   4.492   9.098   6.026 -0.4617  0.6547 -0.0586
20129SOL     OW64428   4.904   4.600   0.838 -0.2501  0.2285 -0.3944
20129SOL    HW164429   4.842   4.578   0.909  0.1296  0.3109 -0.0316
20129SOL    HW264430   4.989   4.572   0.872 -0.3666 -2.4165 -1.9347
20130SOL     OW64431   1.873   5.517   3.100  0.5513 -0.5014  0.1292
20130SOL    HW164432   1.814   5.511   3.175  0.9389  0.6026  0.5515
20130SOL    HW264433   1.816   5.507   3.024 -0.1626  0.3725  0.5318
20131SOL     OW64434   9.964   4.048   5.843 -0.7654 -0.1382 -0.4458
20131SOL    HW164435   9.953   4.098   5.924 -0.5019  1.6616 -1.4647
20131SOL    HW264436  10.037   4.090   5.798  0.9860 -2.8768 -0.3911
20132SOL     OW64437   6.362   9.955   2.749 -0.0876  0.6634 -0.2905
20132SOL    HW164438   6.395  10.043   2.729  1.0134  0.3443  0.0968
20132SOL    HW264439   6.425   9.919   2.811 -0.7474 -0.2632 -0.1437
20133SOL     OW64440   1.330   8.478   5.950 -0.0010 -0.3413  0.0438
20133SOL    HW164441   1.362   8.463   5.862 -0.3035 -1.7531  0.1591
20133SOL    HW264442   1.308   8.571   5.952  3.1357  0.5283 -0.3168
20134SOL     OW64443   2.724   3.722   0.611  0.1189 -0.1063  0.3071
20134SOL    HW164444   2.765   3.801   0.647 -2.2165 -0.0324  3.1649
20134SOL    HW264445   2.688   3.677   0.687 -0.5125 -2.8540 -1.4808
20135SOL     OW64446   2.269   1.774   1.600 -0.8165  0.1430 -0.1651
20135SOL    HW164447   2.287   1.704   1.664 -0.1446  0.7492  0.3264
20135SOL    HW264448   2.326   1.846   1.627 -1.0019  0.6434 -1.0746
20136SOL     OW64449   4.318   5.762   1.097  0.5171 -0.1572  0.3449
20136SOL    HW164450   4.261   5.690   1.070  1.8011 -1.3693  0.7382
20136SOL    HW264451   4.271   5.841   1.070  0.6205 -1.1599 -3.2956
20137SOL     OW64452   2.884   6.163   4.055 -0.1368  0.0964  0.0025
20137SOL    HW164453   2.914   6.197   3.970  1.0497 -0.3637  0.2127
20137SOL    HW264454   2.789   6.155   4.046 -0.1468  1.0260 -0.9270
20138SOL     OW64455   5.532   9.563   9.556 -0.0946  0.4971 -0.6939
20138SOL    HW164456   5.534   9.645   9.605  0.7957  1.0114 -1.5324
20138SOL    HW264457   5.530   9.494   9.622  0.8555  1.1742  0.0585
20139SOL     OW64458   7.305   2.031   0.087 -0.2970  0.9567 -0.3204
20139SOL    HW164459   7.323   2.084   0.164 -0.2713  1.5101 -0.7025
20139SOL    HW264460   7.258   1.955   0.121  1.1626  0.3560  0.4661
20140SOL     OW64461   9.932   8.168   8.100  0.5727 -0.2277  0.0467
20140SOL    HW164462  10.006   8.226   8.080 -0.1543  1.0680  0.9587
20140SOL    HW264463   9.871   8.223   8.149  0.2755 -2.0557  1.8324
20141SOL     OW64464   8.440   4.108  10.037  0.1633  0.2380 -0.1064
20141SOL    HW164465   8.394   4.179  10.081  3.1288  2.4273 -0.2042
20141SOL    HW264466   8.457   4.044  10.105  0.0802  1.0998  0.7430
20142SOL     OW64467   1.324   8.994   0.934 -0.9565 -0.4935 -0.6602
20142SOL    HW164468   1.264   9.068   0.941 -0.4583 -0.1100 -0.3438
20142SOL    HW264469   1.273   8.925   0.891 -2.0029 -0.6102  0.7184
20143SOL     OW64470  10.288   5.790   2.823 -0.1273  0.1380 -0.4325
20143SOL    HW164471  10.321   5.876   2.796  2.3236  0.3575  2.6928
20143SOL    HW264472  10.364   5.732   2.819 -0.9404 -1.0719  0.6618
20144SOL     OW64473   2.190   9.805   0.870  0.1742  0.0520  0.1828
20144SOL    HW164474   2.179   9.728   0.925 -3.1523  0.7507  0.7381
20144SOL    HW264475   2.166   9.775   0.782 -0.6506  0.2926  0.3133
20145SOL     OW64476   3.294   4.722   5.097  0.0739 -0.3801  0.2929
20145SOL    HW164477   3.334   4.635   5.101  1.8183  0.1188 -2.9367
20145SOL    HW264478   3.237   4.719   5.020  0.2882  1.3419  0.0172
20146SOL     OW64479   4.026   2.508   5.044  0.0924  0.5515  0.7064
20146SOL    HW164480   4.082   2.499   5.121 -1.4480  0.1765  1.8613
20146SOL    HW264481   4.010   2.602   5.036 -0.1482  0.5550  1.1778
20147SOL     OW64482   5.318   5.150   9.822 -0.0441 -0.3293  0.1218
20147SOL    HW164483   5.339   5.232   9.867  1.5134 -0.3732 -0.4462
20147SOL    HW264484   5.399   5.127   9.776 -1.3391 -0.6902 -2.0676
20148SOL     OW64485   1.289   1.321   8.687 -0.5218  0.6358 -0.5964
20148SOL    HW164486   1.264   1.229   8.698 -0.4244  0.3663 -2.3513
20148SOL    HW264487   1.384   1.321   8.700 -0.7238  0.8334  1.1897
20149SOL     OW64488  10.148   5.625   0.564  0.2906  0.1562 -0.1516
20149SOL    HW164489  10.165   5.678   0.643 -0.2907 -0.5307  0.4486
20149SOL    HW264490  10.220   5.647   0.505 -1.2319  3.5363 -0.9732
20150SOL     OW64491   0.182   8.903   3.881 -0.2819  0.0532  0.2851
20150SOL    HW164492   0.273   8.926   3.900 -0.3114 -0.2564  0.8189
20150SOL    HW264493   0.147   8.980   3.835 -0.5045  1.2965  2.4117
20151SOL     OW64494   9.898   6.497   0.605  0.3545 -0.5600  0.0058
20151SOL    HW164495   9.835   6.446   0.655  1.4107 -1.8716  0.0626
20151SOL    HW264496   9.950   6.431   0.559  0.3943  0.5538 -1.6293
20152SOL     OW64497   3.739   1.259   0.910 -0.2694 -0.0982  0.1980
20152SOL    HW164498   3.832   1.276   0.922  0.0748 -1.0393 -1.0135
20152SOL    HW264499   3.719   1.290   0.822 -0.8850 -0.7951  0.0837
20153SOL     OW64500   5.512   5.266   7.492  0.0181  0.2700 -0.1067
20153SOL    HW164501   5.488   5.217   7.570  1.9249 -0.3633  0.1380
20153SOL    HW264502   5.500   5.204   7.420 -1.0726  0.6364 -0.2605
20154SOL     OW64503  10.101   4.708   3.299 -0.6319 -0.0317 -0.1891
20154SOL    HW164504  10.140   4.793   3.280 -0.3490  0.2485  1.4766
20154SOL    HW264505  10.174   4.646   3.295 -0.7299 -0.1140 -0.8060
20155SOL     OW64506   3.782   6.275   1.341 -0.1355 -0.6319 -0.3874
20155SOL    HW164507   3.752   6.230   1.420 -0.2805  0.8004  0.4209
20155SOL    HW264508   3.877   6.280   1.351 -0.1094 -0.8873 -0.5330
20156SOL     OW64509   4.004   5.733   3.110 -0.8046 -0.4273  0.8412
20156SOL    HW164510   3.990   5.673   3.184 -0.0861  0.4898  1.7472
20156SOL    HW264511   4.099   5.738   3.101 -0.8236 -2.4007 -1.7550
20157SOL     OW64512   0.088   9.450   0.225  0.3788  0.0517 -0.1393
20157SOL    HW164513   0.182   9.468   0.226  0.4276 -0.1128 -0.9398
20157SOL    HW264514   0.056   9.484   0.308  0.7768  2.1796 -0.7990
20158SOL     OW64515   9.904   4.453   9.839  0.4119  0.3977 -0.5573
20158SOL    HW164516   9.988   4.410   9.849 -0.4378 -1.6535 -1.5798
20158SOL    HW264517   9.840   4.382   9.842 -1.2243  1.8022 -0.5537
20159SOL     OW64518   3.779   1.703   5.846 -0.3391 -0.2238 -0.5972
20159SOL    HW164519   3.866   1.731   5.820 -0.0354 -1.2158 -0.6949
20159SOL    HW264520   3.720   1.770   5.812  0.5122  1.4331  1.0115
20160SOL     OW64521   8.743   5.506   1.453  0.1603 -0.0550 -0.0733
20160SOL    HW164522   8.746   5.429   1.396  1.2555 -0.5957  0.6722
20160SOL    HW264523   8.827   5.505   1.499 -1.1407 -0.3408  2.4836
20161SOL     OW64524  10.241   7.065   4.442 -0.5483  0.0904  0.1832
20161SOL    HW164525  10.227   6.973   4.419  0.2607 -0.7314  2.6791
20161SOL    HW264526  10.175   7.084   4.508 -2.1820  2.0708 -1.8311
20162SOL     OW64527   8.062   9.038   5.206 -0.2427  0.1672  0.0464
20162SOL    HW164528   8.010   9.021   5.128  1.1630  0.1018 -0.9096
20162SOL    HW264529   8.070   8.952   5.249 -3.1055  0.5793  1.7098
20163SOL     OW64530   3.239   1.936   4.545 -0.1625  0.1549  0.2423
20163SOL    HW164531   3.284   1.898   4.469 -1.8052 -0.6217 -0.3978
20163SOL    HW264532   3.216   2.025   4.518 -0.5883 -0.0601 -0.1051
20164SOL     OW64533   0.381   4.453   3.507  0.3729  0.1015  0.6981
20164SOL    HW164534   0.445   4.382   3.509  2.6952  2.0890  1.5017
20164SOL    HW264535   0.410   4.514   3.574 -1.2155  2.0624 -0.2871
20165SOL     OW64536   0.763   9.084   0.191 -0.2004  0.0567 -0.2383
20165SOL    HW164537   0.742   9.133   0.271 -0.8284 -2.0437  0.9718
20165SOL    HW264538   0.742   8.993   0.213  1.6005 -0.8887 -2.1049
20166SOL     OW64539   1.242   6.900   3.624  0.3515 -0.2538  0.2699
20166SOL    HW164540   1.168   6.853   3.587  0.4563  0.0433 -0.3199
20166SOL    HW264541   1.250   6.979   3.571  1.9151 -0.9053 -0.5286
20167SOL     OW64542   4.797   8.572  10.047 -0.3677  0.1502 -0.0440
20167SOL    HW164543   4.816   8.506   9.980  0.2098 -0.3786  0.6265
20167SOL    HW264544   4.703   8.561  10.065 -0.7074  0.8288 -1.3123
20168SOL     OW64545   6.283   4.698   1.270  0.0946  0.1430  0.0674
20168SOL    HW164546   6.200   4.743   1.257  0.3095  0.7958  0.9129
20168SOL    HW264547   6.333   4.755   1.328  0.5983 -0.8995  0.6827
20169SOL     OW64548   7.364   0.780   9.030 -0.0971 -0.3721 -0.1642
20169SOL    HW164549   7.419   0.718   9.078  1.0935  0.9329  0.2297
20169SOL    HW264550   7.301   0.812   9.095 -0.9592 -1.3981 -0.4595
20170SOL     OW64551   3.885   5.073   5.307 -0.0566  0.2256 -0.1546
20170SOL    HW164552   3.809   5.035   5.350 -1.2547  1.9029 -0.6711
20170SOL    HW264553   3.926   5.127   5.374  1.0965 -1.1971  0.3143
20171SOL     OW64554   3.709   4.278  10.200  0.3452 -0.2325 -0.1590
20171SOL    HW164555   3.703   4.357  10.254  1.1856 -0.8393  0.8662
20171SOL    HW264556   3.799   4.248  10.210  1.0866  0.5779 -3.3496
20172SOL     OW64557   2.523   8.566   9.874  1.0157 -0.5475 -0.0405
20172SOL    HW164558   2.538   8.505   9.945 -0.2603 -2.6075 -1.4247
20172SOL    HW264559   2.444   8.534   9.831  1.6438  0.6771 -2.2879
20173SOL     OW64560   9.681   7.945   5.071 -0.9180 -0.5224  0.2115
20173SOL    HW164561   9.650   8.008   5.136 -0.4545 -0.6071  0.5182
20173SOL    HW264562   9.738   7.997   5.014  0.0680 -0.8127  0.9094
20174SOL     OW64563   8.366   0.990   3.265 -0.0228  0.0969  0.4338
20174SOL    HW164564   8.412   0.941   3.196 -1.2037 -0.7025  0.1924
20174SOL    HW264565   8.419   1.069   3.277  0.3032  0.1759 -1.2789
20175SOL     OW64566   8.841   3.188   4.232  0.3332  0.1174  0.8528
20175SOL    HW164567   8.901   3.127   4.274 -1.0645 -1.4324  0.7172
20175SOL    HW264568   8.797   3.232   4.305  1.7042  1.4009  0.9533
20176SOL     OW64569   0.183   8.934   7.264  0.1300  0.0786  0.5114
20176SOL    HW164570   0.111   8.875   7.239 -0.5290  0.6060  1.1218
20176SOL    HW264571   0.262   8.885   7.243 -0.3901 -1.2479  1.4844
20177SOL     OW64572   4.862   1.018   8.206  0.2689 -0.4056 -0.1389
20177SOL    HW164573   4.950   1.031   8.240 -0.1223  3.2061 -0.0916
20177SOL    HW264574   4.813   0.979   8.278  1.0227  0.9327  1.1468
20178SOL     OW64575   0.570   4.489   7.592  0.1324  0.3181  0.7670
20178SOL    HW164576   0.599   4.520   7.506  3.5301 -1.4710  1.0965
20178SOL    HW264577   0.531   4.403   7.575 -0.1514  0.4112  0.9333
20179SOL     OW64578   7.636   1.433   8.496  0.2489 -0.7942 -0.1778
20179SOL    HW164579   7.603   1.369   8.559  3.1781 -0.5453  1.8282
20179SOL    HW264580   7.717   1.394   8.463  1.1964  1.1264 -0.2314
20180SOL     OW64581   9.424   0.062   4.089  0.1991 -0.5518 -0.1899
20180SOL    HW164582   9.405  -0.002   4.019 -1.2515  0.1756 -0.4986
20180SOL    HW264583   9.511   0.096   4.067  1.4361 -3.0312  0.4875
20181SOL     OW64584   1.249   9.465   7.282  0.0313  0.4246 -0.3320
20181SOL    HW164585   1.196   9.521   7.339 -0.1903 -0.4253  0.3036
20181SOL    HW264586   1.222   9.490   7.193 -1.2657  0.1949 -0.0337
20182SOL     OW64587   3.288   1.315   2.559 -0.2054 -0.5877 -0.6132
20182SOL    HW164588   3.282   1.384   2.492 -2.3687 -1.1020 -1.0280
20182SOL    HW264589   3.202   1.315   2.601  0.7377 -1.0412  1.4473
20183SOL     OW64590   3.065   8.860   0.816 -0.0206  0.0113 -0.3479
20183SOL    HW164591   3.091   8.919   0.745  0.8895 -1.6506 -1.4590
20183SOL    HW264592   3.109   8.895   0.894  2.0599 -0.2528 -1.3553
20184SOL     OW64593   9.699   9.046   4.771 -0.2936  0.1198 -0.0172
20184SOL    HW164594   9.706   9.002   4.687  0.6887  0.0571  0.0878
20184SOL    HW264595   9.708   8.975   4.836  1.3907  0.4449  0.1538
20185SOL     OW64596   4.302   0.050   4.078  0.3804 -0.1144  0.7230
20185SOL    HW164597   4.264   0.065   3.992  0.4933 -1.3703  0.4457
20185SOL    HW264598   4.231   0.069   4.139  0.4924  1.4602  0.4263
20186SOL     OW64599   7.069   4.772   2.604  0.2141  0.4245 -0.5885
20186SOL    HW164600   7.163   4.788   2.597  0.3029 -0.1146 -0.6886
20186SOL    HW264601   7.062   4.677   2.614 -0.1234  0.6717  2.6702
20187SOL     OW64602   1.380   1.846   2.479 -0.7821 -0.1418 -0.1660
20187SOL    HW164603   1.346   1.848   2.389 -0.0001 -1.0155 -0.5057
20187SOL    HW264604   1.418   1.759   2.487  0.9906  0.6526  0.3302
20188SOL     OW64605   6.912   9.233   7.991  0.6168  0.4826 -0.3924
20188SOL    HW164606   6.994   9.205   8.032  0.7413  0.1825 -0.8355
20188SOL    HW264607   6.938   9.299   7.926  0.6030 -0.1384 -1.0509
20189SOL     OW64608   8.686   6.322   8.931 -0.1123 -0.3208  0.2733
20189SOL    HW164609   8.643   6.244   8.897 -0.2824 -0.3503  0.5470
20189SOL    HW264610   8.769   6.327   8.883 -0.7139  0.1205 -0.7527
20190SOL     OW64611   0.203   1.822   0.970 -0.6959 -0.0980 -0.1849
20190SOL    HW164612   0.173   1.789   0.885 -1.6200  0.5806 -0.1397
20190SOL    HW264613   0.135   1.795   1.032  0.3399 -1.2374  0.4860
20191SOL     OW64614   1.895   0.026   1.565 -0.1552  0.1454  0.4234
20191SOL    HW164615   1.835  -0.020   1.623  0.5716  1.6338  2.4462
20191SOL    HW264616   1.838   0.066   1.499 -1.0811 -0.8588  0.5935
20192SOL     OW64617  10.235   7.173   0.907  0.1874 -0.1427  0.4114
20192SOL    HW164618  10.312   7.129   0.943  0.7795  0.4416 -0.1260
20192SOL    HW264619  10.270   7.243   0.853 -0.6674 -0.7638 -1.0267
20193SOL     OW64620   8.474   4.813   6.535  0.0721 -0.0279  0.1027
20193SOL    HW164621   8.509   4.726   6.513 -0.9635  0.2116 -2.8410
20193SOL    HW264622   8.398   4.824   6.478 -0.8850  2.1514  1.6501
20194SOL     OW64623   6.708   4.448   8.881  0.0129 -0.3151  0.6451
20194SOL    HW164624   6.740   4.364   8.915 -0.3329 -1.3437 -1.3878
20194SOL    HW264625   6.651   4.424   8.808  2.9692  1.6667 -2.6621
20195SOL     OW64626   0.169   8.435   5.587 -0.3027 -0.0061 -0.5155
20195SOL    HW164627   0.171   8.523   5.549  2.4337 -0.7924 -2.4918
20195SOL    HW264628   0.256   8.399   5.569 -1.3820 -3.2092  0.0406
20196SOL     OW64629   5.089   6.558   8.646  0.1790  0.0290 -0.2654
20196SOL    HW164630   5.062   6.644   8.612 -0.5855  0.0855  0.4380
20196SOL    HW264631   5.069   6.563   8.740 -0.3234 -1.0918 -0.3015
20197SOL     OW64632   7.097   3.968   0.686 -0.7775  0.5132  0.2141
20197SOL    HW164633   7.051   3.897   0.732 -0.1664  0.7879  1.2939
20197SOL    HW264634   7.107   4.036   0.753  0.0022  0.9946 -0.3867
20198SOL     OW64635   7.709   7.502   2.149  0.5169  0.1923 -0.2694
20198SOL    HW164636   7.670   7.456   2.223  2.6038 -2.6401 -0.7681
20198SOL    HW264637   7.635   7.522   2.091 -0.6769 -1.2956  0.6655
20199SOL     OW64638   7.143   5.477   3.744 -0.1984 -0.1307 -0.0751
20199SOL    HW164639   7.137   5.472   3.840  1.5928 -0.5101  0.0450
20199SOL    HW264640   7.237   5.479   3.726 -0.4582  2.9932 -1.7037
20200SOL     OW64641   6.334   0.687   4.236  0.5260  0.4798  0.2572
20200SOL    HW164642   6.270   0.756   4.253 -0.3096 -0.5598  1.5452
20200SOL    HW264643   6.282   0.607   4.231  1.5496 -0.1704 -0.4852
20201SOL     OW64644   8.559   0.595   4.515 -0.1966 -0.1979  0.1009
20201SOL    HW164645   8.482   0.652   4.509  0.5542  0.7611 -1.0584
20201SOL    HW264646   8.538   0.534   4.585 -1.8811  0.2318  0.0315
20202SOL     OW64647   0.301  10.037   0.109  0.2984  0.3265  0.2854
20202SOL    HW164648   0.348   9.955   0.128 -0.0658  0.3279  1.2841
20202SOL    HW264649   0.209  10.015   0.126 -0.0206  0.4492 -1.2050
20203SOL     OW64650   8.414   8.559   1.708 -0.1830 -0.1505  0.3797
20203SOL    HW164651   8.380   8.638   1.750  1.1171  1.5736 -1.5892
20203SOL    HW264652   8.383   8.565   1.617  1.3696 -0.9727 -0.2484
20204SOL     OW64653   4.759   1.415   1.307  0.5630  0.8346 -0.1480
20204SOL    HW164654   4.728   1.340   1.255  0.5649  0.6180  0.1601
20204SOL    HW264655   4.693   1.482   1.293  0.0954  0.4714  0.2723
20205SOL     OW64656   4.332   6.074   1.046 -0.1883 -0.0809 -0.7091
20205SOL    HW164657   4.386   6.132   0.993 -0.9944  0.2754 -1.1536
20205SOL    HW264658   4.278   6.026   0.983 -0.6720 -0.1453 -0.2562
20206SOL     OW64659   7.950   8.950   7.498 -0.2273  0.6916 -0.0553
20206SOL    HW164660   8.036   8.909   7.486 -0.4326 -1.2356  3.5975
20206SOL    HW264661   7.923   8.975   7.410  2.5327 -1.8660 -1.8343
20207SOL     OW64662   5.387   4.748   0.050 -0.0519 -0.1450  0.4695
20207SOL    HW164663   5.302   4.718   0.081 -0.0950 -0.2856  0.2185
20207SOL    HW264664   5.367   4.818  -0.012  0.0362  0.1759  0.7972
20208SOL     OW64665   6.791   7.363   6.651 -0.1656  0.6918 -0.0386
20208SOL    HW164666   6.794   7.412   6.569  1.2775 -0.2170 -0.5577
20208SOL    HW264667   6.723   7.297   6.637  0.9898 -0.3326 -1.0555
20209SOL     OW64668   1.759   1.291   1.051 -0.0481  0.2227 -0.1640
20209SOL    HW164669   1.807   1.211   1.069 -1.1862 -0.3922  0.2601
20209SOL    HW264670   1.667   1.268   1.067 -0.2259  2.2449  2.4265
20210SOL     OW64671   0.412   4.596   2.021  0.3670  0.2990 -0.1741
20210SOL    HW164672   0.396   4.680   2.063 -1.5384 -1.1488  2.3187
20210SOL    HW264673   0.371   4.604   1.935  0.0869  1.8727  0.0732
20211SOL     OW64674   5.982   2.712   8.850 -0.1902 -0.4465 -0.1345
20211SOL    HW164675   5.931   2.731   8.929  0.9906  0.1473  0.5067
20211SOL    HW264676   5.962   2.620   8.831 -1.5496 -0.2030  0.0454
20212SOL     OW64677   5.844   9.959   9.453 -0.2449 -0.4405 -0.2054
20212SOL    HW164678   5.843  10.053   9.438 -0.8211 -0.3857  0.1170
20212SOL    HW264679   5.753   9.938   9.475  0.1388 -0.8446  1.0789
20213SOL     OW64680  10.010   4.431   6.531  0.2134  0.0612 -0.1239
20213SOL    HW164681   9.987   4.476   6.450 -0.4897 -1.4598 -0.8309
20213SOL    HW264682  10.105   4.435   6.536  0.1412  2.1141  0.1802
20214SOL     OW64683   7.146  10.248   8.299  0.2336 -0.7079  0.3995
20214SOL    HW164684   7.057  10.220   8.320  0.0348  0.5895  1.4421
20214SOL    HW264685   7.136  10.338   8.268  1.1281 -0.7327  0.0179
20215SOL     OW64686   5.564   0.780   1.283  0.1507 -0.6393 -0.1411
20215SOL    HW164687   5.541   0.808   1.195 -1.7007 -0.6230  0.2882
20215SOL    HW264688   5.562   0.684   1.278 -0.4209 -0.6389 -0.0302
20216SOL     OW64689   3.327   4.128   6.702 -0.4119 -0.1523  0.3971
20216SOL    HW164690   3.409   4.136   6.750  0.2262  2.2000 -0.9500
20216SOL    HW264691   3.349   4.078   6.624 -0.8605 -1.6457  1.1850
20217SOL     OW64692   7.430   4.735  10.049  0.6516 -0.0481  0.1114
20217SOL    HW164693   7.480   4.666  10.004  1.5553  0.2290  0.6572
20217SOL    HW264694   7.340   4.703  10.049  0.7915 -0.4847 -1.0532
20218SOL     OW64695   4.174   2.837   2.482 -0.4082  0.3157 -0.6270
20218SOL    HW164696   4.118   2.791   2.545 -0.3267  0.2835 -0.5783
20218SOL    HW264697   4.192   2.921   2.523  1.8898 -0.7014  0.6533
20219SOL     OW64698   5.421  10.086   6.424 -0.1282  0.4655 -0.2946
20219SOL    HW164699   5.351  10.086   6.359  0.4263 -1.5906 -0.9606
20219SOL    HW264700   5.434   9.993   6.445  0.7137  0.9763  1.6672
20220SOL     OW64701   0.451   4.555   6.972 -0.9164  0.6082  0.7456
20220SOL    HW164702   0.358   4.548   6.952 -1.0834  0.7640  1.4539
20220SOL    HW264703   0.457   4.625   7.037 -0.1864  1.3333 -0.0588
20221SOL     OW64704   0.718   9.781   3.156  0.1912  0.0481  0.2896
20221SOL    HW164705   0.785   9.737   3.103 -0.6407  1.3132 -1.9151
20221SOL    HW264706   0.749   9.871   3.163 -0.6522  0.3328  0.3747
20222SOL     OW64707   0.487   0.087   0.466 -0.0448  0.0265 -0.1105
20222SOL    HW164708   0.531   0.169   0.443 -0.7193  0.1148 -1.1529
20222SOL    HW264709   0.428   0.111   0.537 -0.7443  0.6199 -0.8652
20223SOL     OW64710   2.191   8.744   5.578  0.0026 -0.0651  0.2447
20223SOL    HW164711   2.181   8.703   5.493 -0.4986  0.2872  0.1306
20223SOL    HW264712   2.262   8.807   5.566  2.2265 -2.2881  0.9527
20224SOL     OW64713   0.428   7.675   9.838  0.4061  0.3803  0.5645
20224SOL    HW164714   0.505   7.647   9.788  0.6820  1.1223  0.5515
20224SOL    HW264715   0.383   7.735   9.779 -0.8133 -0.9190  0.1370
20225SOL     OW64716   6.844   0.291   4.378  0.2804 -0.0741  0.0384
20225SOL    HW164717   6.934   0.259   4.375 -0.0323 -0.8741 -1.4063
20225SOL    HW264718   6.828   0.326   4.290 -0.9132 -0.2089  0.1840
20226SOL     OW64719   1.485   5.144   5.807  0.2241  0.6111  0.4044
20226SOL    HW164720   1.422   5.198   5.757 -1.3233 -2.0686 -0.7676
20226SOL    HW264721   1.455   5.151   5.897 -0.7489  0.6933  0.0925
20227SOL     OW64722   0.770   7.698   2.094 -0.2280  0.0964 -0.5948
20227SOL    HW164723   0.836   7.640   2.056  1.5694  2.3222 -1.1482
20227SOL    HW264724   0.741   7.752   2.020  1.2874  2.6495  0.5291
20228SOL     OW64725   2.103  10.035   3.477 -0.3649 -0.2276 -0.5736
20228SOL    HW164726   2.189  10.019   3.438  1.5060  3.0922  1.6772
20228SOL    HW264727   2.061  10.096   3.416  1.0817  2.1024  0.5903
20229SOL     OW64728   2.361   9.552   6.037  0.4613  0.0663 -0.3117
20229SOL    HW164729   2.283   9.497   6.026 -0.4069  0.6390  2.3097
20229SOL    HW264730   2.358   9.580   6.129  1.3514  3.7721 -1.2585
20230SOL     OW64731   5.478   6.431   1.708 -0.4878 -0.0828 -0.4391
20230SOL    HW164732   5.492   6.342   1.740  1.0186  0.8018  1.5728
20230SOL    HW264733   5.383   6.442   1.707 -0.7211 -1.9175 -1.4115
20231SOL     OW64734   9.817   1.117   6.033  0.1398  0.4687 -0.3508
20231SOL    HW164735   9.813   1.211   6.015 -1.0764  0.6900  0.9757
20231SOL    HW264736   9.884   1.108   6.100  0.7685  0.2893 -0.9917
20232SOL     OW64737   3.287   4.191   9.913  0.0999 -0.3913 -0.2840
20232SOL    HW164738   3.290   4.223   9.823 -1.6797 -1.7076 -0.8472
20232SOL    HW264739   3.275   4.096   9.905  0.5971 -0.6272  1.3461
20233SOL     OW64740   5.803   8.331   4.210 -0.5482  0.8038  0.0340
20233SOL    HW164741   5.769   8.403   4.264  0.3780  1.1953  0.1106
20233SOL    HW264742   5.806   8.256   4.269  0.3267  1.1958  0.5048
20234SOL     OW64743   7.541   2.456   1.663  0.4916  0.1223  0.3536
20234SOL    HW164744   7.485   2.382   1.686 -0.2130 -0.2931 -2.3621
20234SOL    HW264745   7.625   2.415   1.638  0.7886  0.4426  0.8052
20235SOL     OW64746   8.267   5.489   6.954  0.3918 -0.0638  0.4995
20235SOL    HW164747   8.320   5.420   6.993 -1.2204 -2.1019 -0.7246
20235SOL    HW264748   8.288   5.486   6.861 -0.3566  0.4980  0.3046
20236SOL     OW64749  10.225   8.760   4.936  0.4121  0.6445  0.3533
20236SOL    HW164750  10.210   8.755   5.030  1.8459 -0.1203  0.5672
20236SOL    HW264751  10.292   8.827   4.925  1.0864 -0.0690  0.0036
20237SOL     OW64752   6.927   3.176   8.873 -0.4168  0.2461  0.0947
20237SOL    HW164753   6.879   3.108   8.922 -1.3986  0.0181 -1.1464
20237SOL    HW264754   7.011   3.184   8.920 -0.0678 -2.1555  0.0228
20238SOL     OW64755   1.060   2.548   9.232 -0.3173 -0.7395 -0.1055
20238SOL    HW164756   1.050   2.580   9.321  0.6422 -0.3062 -0.1465
20238SOL    HW264757   1.113   2.468   9.240 -0.4438 -0.8423 -0.2668
20239SOL     OW64758   5.285   2.737   1.032  0.1657 -0.7937 -1.2763
20239SOL    HW164759   5.287   2.737   1.128 -0.0664 -4.9142 -1.0574
20239SOL    HW264760   5.359   2.791   1.006  1.9101 -1.7240  1.3577
20240SOL     OW64761   4.432   1.330   2.380 -0.1225  0.7142  0.0776
20240SOL    HW164762   4.499   1.262   2.394 -1.9329 -0.8984  1.4999
20240SOL    HW264763   4.389   1.304   2.298 -0.3900  0.4803  0.2871
20241SOL     OW64764   0.567   2.515   4.687  0.1398  0.0772 -0.5055
20241SOL    HW164765   0.628   2.571   4.639  0.5718 -0.0181 -0.0807
20241SOL    HW264766   0.485   2.564   4.687  0.4166  0.5538 -0.4490
20242SOL     OW64767   8.106   2.490   6.908 -0.1615  0.3827  0.6154
20242SOL    HW164768   8.197   2.459   6.910 -0.7243 -1.3389  0.4239
20242SOL    HW264769   8.114   2.586   6.906  1.6489  0.2583  0.1678
20243SOL     OW64770   1.757   8.789   0.921  0.4340 -0.1222 -0.5633
20243SOL    HW164771   1.825   8.746   0.973  0.2204 -1.9185 -1.6926
20243SOL    HW264772   1.675   8.754   0.955  0.3272 -2.4966 -2.9532
20244SOL     OW64773   3.526   7.512   7.606 -0.1783 -0.1442  0.3268
20244SOL    HW164774   3.505   7.433   7.655  2.4563 -1.1114  0.0605
20244SOL    HW264775   3.480   7.582   7.653 -0.0588 -1.4043  2.4765
20245SOL     OW64776   2.254   3.382   8.938  0.7234 -0.3054 -0.0262
20245SOL    HW164777   2.165   3.377   8.974  1.2676  0.8288  1.5460
20245SOL    HW264778   2.261   3.470   8.902  0.7721 -0.8582 -1.4533
20246SOL     OW64779   5.249   2.537   2.526 -0.0269  0.0264 -0.2006
20246SOL    HW164780   5.232   2.464   2.584  1.8725 -0.0628  0.3172
20246SOL    HW264781   5.262   2.498   2.440  0.0018 -0.1428 -0.1184
20247SOL     OW64782   8.475   8.709   8.013  0.1508 -0.9637 -0.4915
20247SOL    HW164783   8.495   8.673   8.099  0.1824 -0.0529 -0.0954
20247SOL    HW264784   8.380   8.697   8.002  0.2901 -1.8905 -0.7293
20248SOL     OW64785   7.990   4.708   0.753  0.1478 -0.3281  0.3941
20248SOL    HW164786   8.031   4.777   0.702  0.0151 -0.2889  0.3389
20248SOL    HW264787   7.946   4.754   0.824 -2.2717 -0.0549 -1.1506
20249SOL     OW64788   7.026   2.224   3.070  0.5362  0.1932 -0.3985
20249SOL    HW164789   7.057   2.250   3.156 -0.5953 -0.9682  0.4070
20249SOL    HW264790   7.079   2.148   3.048  0.7230  0.3992 -0.6607
20250SOL     OW64791   3.591   3.496   5.106 -0.1768 -0.1838 -0.1987
20250SOL    HW164792   3.594   3.401   5.117 -0.0597 -0.1844 -0.2299
20250SOL    HW264793   3.603   3.531   5.195  0.4757 -0.1911 -0.2773
20251SOL     OW64794   0.271   2.625   6.461 -0.5292 -0.4793 -0.2526
20251SOL    HW164795   0.280   2.712   6.423 -2.1761 -0.4423 -0.6332
20251SOL    HW264796   0.334   2.624   6.533 -1.1263  1.3711  0.3564
20252SOL     OW64797   8.765   0.656   8.813 -0.3473  0.7523 -0.1777
20252SOL    HW164798   8.850   0.616   8.793  0.4608  2.3447 -0.0837
20252SOL    HW264799   8.738   0.616   8.895 -0.0357 -0.2883 -0.5663
20253SOL     OW64800   1.111   0.546   9.936 -0.0225  0.0957 -0.3425
20253SOL    HW164801   1.128   0.496  10.016 -0.3058  1.8317  0.8590
20253SOL    HW264802   1.113   0.638   9.964 -3.5143  0.7130 -1.6393
20254SOL     OW64803   6.918   5.938   3.755  0.0853 -0.0533 -0.4617
20254SOL    HW164804   6.848   6.003   3.766 -1.6016 -1.8047 -0.1930
20254SOL    HW264805   6.927   5.898   3.841  0.1155 -1.0789 -0.9226
20255SOL     OW64806   4.190   0.555   0.152  0.0132  0.8472 -0.1030
20255SOL    HW164807   4.206   0.583   0.062  0.5797  1.6741  0.2434
20255SOL    HW264808   4.098   0.576   0.167 -0.0046  0.9833 -0.3902
20256SOL     OW64809   7.748   7.991   0.805 -0.1263  0.0924  0.1232
20256SOL    HW164810   7.817   7.977   0.869  0.4110  1.3008 -0.1595
20256SOL    HW264811   7.688   7.917   0.817  1.4997 -1.3079 -0.0432
20257SOL     OW64812   8.088   7.335   5.320 -0.3751 -0.6430 -0.3378
20257SOL    HW164813   8.012   7.277   5.317 -0.5803 -0.6767  2.6218
20257SOL    HW264814   8.148   7.293   5.381 -0.3271  1.9758  1.5869
20258SOL     OW64815   0.640   7.536   9.706 -0.0073 -0.6654 -0.1277
20258SOL    HW164816   0.683   7.554   9.623 -0.8999 -1.2312 -0.7290
20258SOL    HW264817   0.709   7.500   9.762  0.3300 -1.4248 -1.0149
20259SOL     OW64818   1.598   8.370   8.639 -0.0743 -0.1464 -0.3458
20259SOL    HW164819   1.559   8.456   8.655 -1.3571 -1.0350  1.7803
20259SOL    HW264820   1.605   8.364   8.544 -2.5138  1.2377 -0.6966
20260SOL     OW64821   8.101   6.434   3.854  0.1261  0.0660  0.2122
20260SOL    HW164822   8.024   6.389   3.886 -1.3645  2.2497 -0.0706
20260SOL    HW264823   8.165   6.365   3.836 -2.2296 -1.9588 -0.8526
20261SOL     OW64824   0.231   1.422   1.451 -0.1613  0.1963  0.2909
20261SOL    HW164825   0.148   1.407   1.497  0.0003  0.3106  0.6221
20261SOL    HW264826   0.297   1.377   1.503  0.0801  0.6542  0.3894
20262SOL     OW64827   2.641   4.645   4.345  0.0473 -0.1818 -0.1804
20262SOL    HW164828   2.711   4.699   4.310  0.0313 -0.6145 -0.9244
20262SOL    HW264829   2.564   4.668   4.292 -0.1038 -0.4954 -0.1018
20263SOL     OW64830   4.198   1.266   6.498 -0.2084 -0.8940 -0.2462
20263SOL    HW164831   4.110   1.299   6.517  0.9506  1.5707  1.4566
20263SOL    HW264832   4.235   1.248   6.585  1.8023  0.6733 -0.6935
20264SOL     OW64833   9.218   7.886   0.503  0.2049 -0.0869  0.2126
20264SOL    HW164834   9.217   7.937   0.583  0.6764 -1.5024  1.1670
20264SOL    HW264835   9.302   7.908   0.461  0.2179  0.2167  0.4002
20265SOL     OW64836   1.722   0.294   2.639  0.3497 -0.2396  0.6932
20265SOL    HW164837   1.755   0.256   2.558 -0.4133 -1.0132  0.7364
20265SOL    HW264838   1.801   0.324   2.685  0.8852 -0.8745  0.2108
20266SOL     OW64839   2.718   8.042   5.473 -0.1129 -0.0267 -0.2149
20266SOL    HW164840   2.632   8.084   5.480  0.5015  1.1093  0.8708
20266SOL    HW264841   2.779   8.115   5.462  0.9300 -0.6618  1.1516
20267SOL     OW64842   8.319   9.472   7.908 -0.3980  0.5262  0.1931
20267SOL    HW164843   8.265   9.459   7.986  1.0304  0.8096  1.2701
20267SOL    HW264844   8.353   9.561   7.917 -0.8309  0.8470 -1.1691
20268SOL     OW64845   9.207   4.074   5.875  0.2763  0.4418 -0.2117
20268SOL    HW164846   9.299   4.089   5.897  0.7685 -0.4079 -1.5332
20268SOL    HW264847   9.206   3.986   5.835 -1.3478 -0.1885  1.0977
20269SOL     OW64848   0.100   9.446   0.522 -1.2814 -0.2779  0.3025
20269SOL    HW164849   0.190   9.415   0.534 -1.2112 -0.8199 -1.3427
20269SOL    HW264850   0.046   9.377   0.561 -1.0164 -0.2131  0.8020
20270SOL     OW64851   1.426   2.874   3.414  0.0154 -0.5253  0.6121
20270SOL    HW164852   1.451   2.812   3.483  0.3978 -0.7313  0.2973
20270SOL    HW264853   1.330   2.878   3.419  0.0817  0.1751  1.7530
20271SOL     OW64854   3.252   0.980   4.557  0.0881 -0.5510 -0.4768
20271SOL    HW164855   3.279   0.889   4.575 -1.4292 -1.0072 -0.3542
20271SOL    HW264856   3.312   1.033   4.610 -0.6233 -1.6225  1.5481
20272SOL     OW64857   3.589   0.727   4.894 -0.0728  0.2383  0.0058
20272SOL    HW164858   3.575   0.794   4.827  0.9024 -0.3321 -0.8038
20272SOL    HW264859   3.562   0.645   4.852 -2.1573  0.1711  1.2981
20273SOL     OW64860   6.480   0.245   4.283  0.4965  0.6758  0.3920
20273SOL    HW164861   6.525   0.165   4.312  1.1944  0.7914 -0.3269
20273SOL    HW264862   6.422   0.267   4.356  0.6109 -0.2419  0.7823
20274SOL     OW64863   5.247   3.203   8.062  0.0062  0.7184 -0.1940
20274SOL    HW164864   5.185   3.269   8.031  1.4663  2.7451  0.9339
20274SOL    HW264865   5.279   3.162   7.982 -1.3818  0.9327 -0.8995
20275SOL     OW64866   1.254   0.767   9.511 -0.0439  0.0953 -0.6478
20275SOL    HW164867   1.211   0.853   9.507  0.0003  0.1582  0.0549
20275SOL    HW264868   1.211   0.722   9.583  1.5301  0.4303  0.5622
20276SOL     OW64869   3.426   3.613   6.810 -0.2671 -0.2684 -0.1012
20276SOL    HW164870   3.350   3.656   6.850  0.5654  1.9401 -0.7864
20276SOL    HW264871   3.411   3.520   6.826 -1.3219  0.3051  2.9314
20277SOL     OW64872   4.728  10.243   5.758 -0.0685 -0.2795  0.1364
20277SOL    HW164873   4.724  10.242   5.853 -0.5306  0.2868  0.1280
20277SOL    HW264874   4.711  10.152   5.732  0.9412 -0.6186  0.6153
20278SOL     OW64875   0.613   3.241   1.487 -0.2760 -0.0359 -0.3589
20278SOL    HW164876   0.700   3.269   1.461 -0.1688  0.3919  0.4260
20278SOL    HW264877   0.571   3.213   1.406 -0.2110  1.9436 -1.1436
20279SOL     OW64878   8.200   9.522   6.043 -0.0395  0.3238  0.6883
20279SOL    HW164879   8.281   9.474   6.059 -0.8599 -2.0538 -1.5641
20279SOL    HW264880   8.214   9.563   5.957 -0.6550  1.1891  0.9933
20280SOL     OW64881   8.270   0.583   3.963 -0.5434  0.3197 -0.1474
20280SOL    HW164882   8.349   0.595   3.911 -0.2038  1.0999  0.5320
20280SOL    HW264883   8.300   0.535   4.041 -0.3980  2.0462  0.9035
20281SOL     OW64884   8.885   8.633   5.882 -0.2709 -0.3751 -0.5306
20281SOL    HW164885   8.804   8.584   5.870  0.9485 -2.0451 -2.7515
20281SOL    HW264886   8.908   8.663   5.795  0.5603  1.7109  0.3490
20282SOL     OW64887   8.449   3.514   0.601  0.2275 -0.0500 -0.0760
20282SOL    HW164888   8.436   3.506   0.695  0.8145 -0.9843 -0.0640
20282SOL    HW264889   8.540   3.489   0.587  0.1510  0.0982 -0.8942
20283SOL     OW64890   0.321   6.154   6.066  0.1334  0.2933 -0.0003
20283SOL    HW164891   0.248   6.159   6.004 -0.2313 -0.9967  0.3032
20283SOL    HW264892   0.290   6.202   6.143 -0.8013 -1.0563  0.4967
20284SOL     OW64893   8.861   0.208   3.847 -0.1331 -0.3397 -0.0650
20284SOL    HW164894   8.935   0.198   3.907 -0.9760 -0.0459  1.0512
20284SOL    HW264895   8.790   0.240   3.901 -0.9338 -0.0675 -1.2328
20285SOL     OW64896   8.960   7.581   7.172 -0.3114 -0.2374  0.6568
20285SOL    HW164897   8.925   7.668   7.154  0.6669  0.3484  1.4982
20285SOL    HW264898   8.883   7.524   7.173 -1.0007  0.6695  0.4301
20286SOL     OW64899   3.237   3.575   7.445 -0.3183 -0.6145 -0.0370
20286SOL    HW164900   3.220   3.493   7.399  1.4463 -0.4924 -0.9805
20286SOL    HW264901   3.322   3.561   7.488 -0.0462  0.6854 -0.1239
20287SOL     OW64902   1.423   5.796   5.502  0.6792  0.2935 -0.6667
20287SOL    HW164903   1.482   5.871   5.509 -0.9739  1.5707  0.5008
20287SOL    HW264904   1.358   5.824   5.437  0.5171 -0.4939 -0.8506
20288SOL     OW64905   5.792   0.229   5.586  0.1042 -0.3789  0.4673
20288SOL    HW164906   5.745   0.154   5.550 -0.6342  0.9449 -1.4654
20288SOL    HW264907   5.738   0.258   5.659  0.7807 -2.1184  1.7395
20289SOL     OW64908   0.646   8.030   9.657  0.6543 -0.3712 -0.5888
20289SOL    HW164909   0.552   8.013   9.666  0.5940  0.3628  0.2515
20289SOL    HW264910   0.663   8.017   9.564 -0.0859 -1.4470 -0.5959
20290SOL     OW64911   6.740   3.485   9.516  0.0709 -0.3003  0.6057
20290SOL    HW164912   6.815   3.473   9.574  0.3405  0.8540  0.5302
20290SOL    HW264913   6.694   3.561   9.552  0.4540  0.6763 -0.8593
20291SOL     OW64914   9.089   0.589   9.184  0.2327 -0.3294 -0.2800
20291SOL    HW164915   9.128   0.632   9.108 -0.3986 -0.4895 -0.7005
20291SOL    HW264916   9.056   0.660   9.238 -0.8507 -0.2750 -0.9957
20292SOL     OW64917   4.631   5.528   4.067  0.2322 -0.0521 -0.3855
20292SOL    HW164918   4.626   5.605   4.010 -1.8383 -0.5121 -0.9000
20292SOL    HW264919   4.725   5.515   4.081  0.7484  1.0338 -2.3865
20293SOL     OW64920   8.434   0.873   8.261  0.4618 -0.6342 -0.2030
20293SOL    HW164921   8.433   0.847   8.169  0.9882 -0.3891 -0.2794
20293SOL    HW264922   8.526   0.875   8.284  0.3880  0.4199  0.0192
20294SOL     OW64923   1.521   4.040   9.790 -0.0968  0.5345 -0.3574
20294SOL    HW164924   1.477   3.961   9.822 -0.8686  1.3472  0.6728
20294SOL    HW264925   1.582   4.009   9.724  1.0478 -1.1996  1.3887
20295SOL     OW64926   3.769   9.050   4.417  0.3164 -0.5700  0.1471
20295SOL    HW164927   3.762   9.121   4.481  0.4754  0.6987 -1.2018
20295SOL    HW264928   3.858   9.016   4.428  0.0806 -0.9209  1.1301
20296SOL     OW64929   6.375   2.174   8.673  0.1119 -0.0151 -0.0881
20296SOL    HW164930   6.375   2.078   8.673 -0.7955 -0.0633 -2.1335
20296SOL    HW264931   6.463   2.198   8.644 -0.0036 -0.2729 -0.6736
20297SOL     OW64932   3.517   9.513   8.154  0.6109  0.4116  0.5115
20297SOL    HW164933   3.437   9.501   8.103  0.6507 -0.4466  0.6359
20297SOL    HW264934   3.542   9.604   8.139 -0.0182  0.4942 -0.0664
20298SOL     OW64935   6.114   7.665   3.829 -0.1241  0.9454  0.3729
20298SOL    HW164936   6.046   7.620   3.779  0.1527  0.9500 -0.0124
20298SOL    HW264937   6.196   7.641   3.785  0.1815  0.4861  1.1649
20299SOL     OW64938   1.557   8.200   5.221  0.1951 -0.7125 -0.1439
20299SOL    HW164939   1.632   8.161   5.266  0.6723 -0.3377 -0.6045
20299SOL    HW264940   1.546   8.286   5.263  0.3763 -0.5377 -0.4494
20300SOL     OW64941   0.434   6.355   9.441 -0.1415  0.3286  0.1515
20300SOL    HW164942   0.365   6.373   9.505 -0.1359 -0.6990  0.4652
20300SOL    HW264943   0.389   6.312   9.368  0.0961  0.0730  0.1538
20301SOL     OW64944   1.991   1.073   2.326  0.8633 -0.4318  0.0096
20301SOL    HW164945   1.959   0.985   2.347 -0.2927 -0.0515 -0.1182
20301SOL    HW264946   1.999   1.074   2.231 -1.7798  0.4292 -0.2947
20302SOL     OW64947   8.020   6.049   4.155  0.2682  1.0820  0.6529
20302SOL    HW164948   7.971   6.024   4.077  0.7115 -0.2766  0.7809
20302SOL    HW264949   7.952   6.067   4.221 -0.1085 -0.8945  0.8664
20303SOL     OW64950   2.078   0.987   8.612 -0.2578 -0.2303  0.3569
20303SOL    HW164951   2.153   1.046   8.612 -0.0828 -0.3925 -1.1476
20303SOL    HW264952   2.084   0.939   8.695  1.0606  0.0645  0.4522
20304SOL     OW64953   5.242   1.298  10.172  0.0329 -0.3259 -0.2132
20304SOL    HW164954   5.265   1.206  10.156  1.2159  0.4539 -4.0636
20304SOL    HW264955   5.306   1.328  10.237  1.0905 -1.6882 -0.5817
20305SOL     OW64956   1.006   8.123   5.304  0.2847 -0.0518  0.0522
20305SOL    HW164957   1.015   8.084   5.217 -1.4481  0.5539 -0.4351
20305SOL    HW264958   1.087   8.174   5.315  1.1555 -1.2392 -0.5858
20306SOL     OW64959   8.549   2.740   4.328 -0.5899  0.7009  0.3532
20306SOL    HW164960   8.586   2.661   4.288 -3.6477 -0.8634  0.2717
20306SOL    HW264961   8.543   2.803   4.256 -0.7426 -0.0499 -0.3076
20307SOL     OW64962   4.465   3.346   5.336 -0.8213 -0.1097 -0.0473
20307SOL    HW164963   4.515   3.352   5.417  0.5708 -0.0710 -0.8866
20307SOL    HW264964   4.373   3.347   5.364 -0.3791  0.7939  1.4682
20308SOL     OW64965   3.854   3.072   3.566 -0.0963  0.3119 -0.9544
20308SOL    HW164966   3.853   3.115   3.481 -1.2340  0.6510 -0.7878
20308SOL    HW264967   3.916   2.999   3.556  1.6294  1.7658 -1.3245
20309SOL     OW64968   5.669   5.875   1.840  0.1430  0.6190  0.1201
20309SOL    HW164969   5.692   5.783   1.838 -4.0874 -0.6718  0.7015
20309SOL    HW264970   5.620   5.890   1.759  1.0823  2.5033 -0.1656
20310SOL     OW64971   1.594   6.976   1.017  0.1115 -0.1947 -0.0891
20310SOL    HW164972   1.555   7.062   1.003 -0.3327 -0.1585  1.2379
20310SOL    HW264973   1.686   6.994   1.039  0.8503 -0.2554 -2.7210
20311SOL     OW64974   8.292   9.894   2.675 -0.1085 -0.2017  0.2700
20311SOL    HW164975   8.218   9.836   2.694 -0.3626  0.3718  1.1059
20311SOL    HW264976   8.360   9.837   2.640 -0.8407 -0.7822 -0.2166
20312SOL     OW64977   3.247   3.892   2.705  0.5253  0.0747  0.0698
20312SOL    HW164978   3.281   3.957   2.767  1.3245 -0.5813  0.3346
20312SOL    HW264979   3.202   3.828   2.759 -1.8751  1.3013 -0.3262
20313SOL     OW64980   9.634   9.709   3.964  0.0606 -0.3358 -0.2549
20313SOL    HW164981   9.622   9.804   3.958 -1.7097 -0.5199 -0.1589
20313SOL    HW264982   9.696   9.688   3.894  1.2016  0.9866  0.3054
20314SOL     OW64983   0.578   9.730   1.886 -0.2084 -0.0192  0.4241
20314SOL    HW164984   0.489   9.760   1.906 -0.3704 -0.0044 -0.2897
20314SOL    HW264985   0.635   9.791   1.932 -0.5232  1.3692 -0.9362
20315SOL     OW64986   1.322   3.266   0.727  0.0729 -0.1833  0.4525
20315SOL    HW164987   1.249   3.327   0.712  1.5283  2.2967  2.5397
20315SOL    HW264988   1.305   3.230   0.814  0.3851 -1.0573  0.1526
20316SOL     OW64989  10.061   9.654   7.423  0.1200  0.3270 -0.0441
20316SOL    HW164990  10.015   9.608   7.493 -0.7088 -0.1720 -0.8932
20316SOL    HW264991  10.135   9.598   7.401 -0.0691  0.1000 -0.1023
20317SOL     OW64992   8.124   0.673   9.183  0.0013  0.7047  0.5062
20317SOL    HW164993   8.211   0.638   9.164 -1.0457 -1.7227 -0.2368
20317SOL    HW264994   8.133   0.768   9.170  1.8024  0.2477 -2.7029
20318SOL     OW64995   0.901   8.862   9.878  0.5443 -0.0197 -0.7471
20318SOL    HW164996   0.828   8.837   9.821 -1.0348  0.8181  0.7991
20318SOL    HW264997   0.860   8.908   9.951  2.7532  1.6987 -0.4565
20319SOL     OW64998   6.868   4.756   4.277  0.7342  0.0985  0.9371
20319SOL    HW164999   6.947   4.739   4.227  1.0236  3.0178  0.2366
20319SOL    HW265000   6.803   4.783   4.211  0.6918  2.5874  1.9058
20320SOL     OW65001   8.809   4.492   4.483 -0.0840 -0.2603  0.1327
20320SOL    HW165002   8.895   4.527   4.506  0.2187 -1.3372  0.7101
20320SOL    HW265003   8.748   4.563   4.501  0.6161  0.3052  0.3034
20321SOL     OW65004   7.966   0.742   1.787  0.1110  0.1538 -0.3901
20321SOL    HW165005   7.949   0.826   1.830 -0.6010  0.2182 -0.7904
20321SOL    HW265006   8.060   0.743   1.770  0.1664  0.7244 -0.0885
20322SOL     OW65007   4.413   3.048   8.351 -0.4377 -0.0603  0.3933
20322SOL    HW165008   4.441   2.996   8.427 -0.0615  0.0858  0.3579
20322SOL    HW265009   4.335   3.003   8.319  0.1166 -0.8472  0.1176
20323SOL     OW65010   1.024   5.747   9.533  0.0250 -0.0611  0.5092
20323SOL    HW165011   0.951   5.748   9.595  1.0460 -0.7292  1.7747
20323SOL    HW265012   0.995   5.690   9.463  0.0002 -1.8648  1.9067
20324SOL     OW65013   0.885   5.921   3.970 -0.4742  0.2684  0.4485
20324SOL    HW165014   0.958   5.879   4.014  2.0047 -2.0221 -4.9235
20324SOL    HW265015   0.912   6.012   3.961  0.1044  0.2041  1.4235
20325SOL     OW65016   6.781   4.381   3.514  0.4436 -0.4631  0.1105
20325SOL    HW165017   6.688   4.371   3.531  0.0237  0.9542 -1.1940
20325SOL    HW265018   6.796   4.334   3.432  1.0505 -1.2936  0.6729
20326SOL     OW65019   9.334   6.112   2.778  0.0893 -0.5479 -0.0693
20326SOL    HW165020   9.376   6.062   2.708  0.1512 -1.1841  0.4151
20326SOL    HW265021   9.327   6.050   2.850  0.3499  0.2043  0.6114
20327SOL     OW65022   4.234   3.293   5.463  0.4111 -0.4704 -0.0986
20327SOL    HW165023   4.237   3.257   5.551  0.8726 -0.1426  0.0260
20327SOL    HW265024   4.156   3.254   5.424  0.0166 -0.3731  0.5629
20328SOL     OW65025   4.348   5.265   5.152  0.2661 -0.0771 -0.0168
20328SOL    HW165026   4.253   5.265   5.155  0.2327 -2.4618  1.4410
20328SOL    HW265027   4.370   5.186   5.101  1.5290  2.1019 -3.1363
20329SOL     OW65028   5.500   3.691   6.125 -0.4511  0.6112 -0.2393
20329SOL    HW165029   5.447   3.754   6.076 -2.1522 -1.5430 -1.2892
20329SOL    HW265030   5.440   3.654   6.190  0.9738  1.2118  1.5384
20330SOL     OW65031   7.407   2.928   3.876  0.3614  0.1921  0.0438
20330SOL    HW165032   7.442   3.015   3.894 -0.6358  0.7264 -0.4842
20330SOL    HW265033   7.351   2.940   3.799 -0.5042 -0.7167  0.5001
20331SOL     OW65034   7.576  10.123   0.443  0.0360 -0.0074 -0.0078
20331SOL    HW165035   7.607  10.125   0.353  0.6580 -0.2420  0.1985
20331SOL    HW265036   7.601  10.208   0.479 -1.2272  0.5443 -0.3809
20332SOL     OW65037   5.760   7.834   5.623 -0.1297 -0.7979  0.5465
20332SOL    HW165038   5.846   7.812   5.588 -0.4570 -0.9599 -0.1653
20332SOL    HW265039   5.753   7.929   5.611 -0.3155 -0.8782 -0.0099
20333SOL     OW65040   5.681   7.295   1.241  0.3811  0.3209 -0.5629
20333SOL    HW165041   5.747   7.291   1.172  0.1811  0.9283 -0.8002
20333SOL    HW265042   5.690   7.213   1.289  0.3499 -0.2218 -1.4765
20334SOL     OW65043   0.392   5.290   4.739 -0.1184  0.8360  0.2249
20334SOL    HW165044   0.355   5.202   4.740 -0.4224  0.9661  0.5303
20334SOL    HW265045   0.485   5.277   4.759 -0.1306  0.5720  0.1101
20335SOL     OW65046   5.590   0.797   1.679  0.0960 -0.2028 -0.1375
20335SOL    HW165047   5.563   0.822   1.590  1.8097 -2.0833 -1.2935
20335SOL    HW265048   5.508   0.786   1.727 -0.9822 -0.9575 -2.0406
20336SOL     OW65049   6.026   2.665   4.406  0.4363 -0.3014 -0.0705
20336SOL    HW165050   6.002   2.711   4.325  1.1253  0.0997 -0.0576
20336SOL    HW265051   6.119   2.646   4.396 -0.0783 -2.9861 -0.6926
20337SOL     OW65052   0.169   5.100   1.554  0.1944  0.7534  0.0135
20337SOL    HW165053   0.164   5.122   1.461 -0.5203  1.9164  0.3021
20337SOL    HW265054   0.132   5.012   1.560 -3.4076  2.0717 -0.3580
20338SOL     OW65055   0.285   3.495   3.727 -0.3851  0.3082  0.3726
20338SOL    HW165056   0.223   3.480   3.797  0.0475  0.9667  0.9095
20338SOL    HW265057   0.235   3.543   3.660 -0.7686 -0.2344  0.2651
20339SOL     OW65058   2.650   5.261   3.853 -0.6083  0.7058  0.0735
20339SOL    HW165059   2.645   5.169   3.827 -0.2075  1.0962 -1.4630
20339SOL    HW265060   2.562   5.282   3.882 -0.5909 -0.2804  0.9085
20340SOL     OW65061   4.962  10.101   9.961  0.1276  0.4573  0.1185
20340SOL    HW165062   4.925  10.079  10.047  0.2873 -0.1638  0.0316
20340SOL    HW265063   5.039  10.046   9.953 -0.8757 -0.8146 -1.1689
20341SOL     OW65064  10.236   1.337   9.927  0.1767  0.1788 -0.2268
20341SOL    HW165065  10.266   1.343  10.018  1.9297  1.6284 -0.8297
20341SOL    HW265066  10.141   1.332   9.933  0.3014 -0.7389  1.7095
20342SOL     OW65067   5.964   8.334   4.855  0.3265 -0.2031 -0.3992
20342SOL    HW165068   5.941   8.259   4.799  0.8740 -0.3003 -0.4999
20342SOL    HW265069   5.932   8.410   4.807  1.4443 -0.2206 -1.2311
20343SOL     OW65070   8.027   8.248   6.601 -0.3972  0.1848  0.4181
20343SOL    HW165071   8.038   8.179   6.536  0.1449 -0.9742  1.6659
20343SOL    HW265072   8.109   8.248   6.650 -0.8268  0.9233  1.1776
20344SOL     OW65073  10.004   9.674   3.803  0.0702 -0.0999 -0.1615
20344SOL    HW165074  10.075   9.670   3.739  0.3747  0.5179  0.1205
20344SOL    HW265075  10.048   9.666   3.888 -0.1555  0.6240  0.0314
20345SOL     OW65076   6.236   0.754   9.143  0.3388  1.2112  0.4653
20345SOL    HW165077   6.282   0.788   9.220 -0.5142  1.8606  0.6999
20345SOL    HW265078   6.170   0.696   9.179 -0.2977  1.7912  0.2532
20346SOL     OW65079   2.200   4.004   6.407  0.4451  0.0312  0.2717
20346SOL    HW165080   2.129   3.963   6.456  0.0101 -0.3336 -0.6420
20346SOL    HW265081   2.263   4.032   6.474  1.0875 -2.6797  0.9293
20347SOL     OW65082   7.485   6.828   4.184 -0.2908  0.2357 -0.1297
20347SOL    HW165083   7.496   6.827   4.088 -0.9693 -0.5895 -0.2061
20347SOL    HW265084   7.474   6.921   4.205 -2.0774  0.2890 -1.0972
20348SOL     OW65085   1.371   3.729   5.247  0.1066 -0.0797 -0.0363
20348SOL    HW165086   1.320   3.789   5.301 -0.2557  0.9199 -1.4550
20348SOL    HW265087   1.312   3.702   5.177  1.8262  2.2322 -2.5702
20349SOL     OW65088   0.421   3.394   4.796  0.2882  0.2493  0.0136
20349SOL    HW165089   0.447   3.340   4.721 -0.1896  1.9288 -1.4340
20349SOL    HW265090   0.377   3.469   4.757 -2.2801 -0.0131  2.1039
20350SOL     OW65091   8.221   0.590   0.771 -0.4327 -0.4320  0.0585
20350SOL    HW165092   8.241   0.653   0.841 -1.7061  0.7001 -0.5581
20350SOL    HW265093   8.279   0.615   0.699 -0.9620  0.0622 -0.1978
20351SOL     OW65094   0.410  10.014   1.981 -1.0148  0.5100  0.0035
20351SOL    HW165095   0.473  10.039   1.914 -0.9641  0.6153  0.0899
20351SOL    HW265096   0.461  10.008   2.061 -1.3558  2.0758  0.3786
20352SOL     OW65097   1.315   4.269   4.045 -0.3895  0.1520 -0.3469
20352SOL    HW165098   1.351   4.236   4.127  0.9857  1.2779 -0.4631
20352SOL    HW265099   1.346   4.360   4.040 -0.7967  0.2356 -1.9144
20353SOL     OW65100   3.774   4.046   8.187 -0.5257 -0.0004  0.1022
20353SOL    HW165101   3.847   4.073   8.131 -0.6272  0.0815  0.0089
20353SOL    HW265102   3.709   4.011   8.126 -1.1034  1.1230  0.0544
20354SOL     OW65103   9.269   3.709   6.048 -0.7607 -0.5042 -0.6357
20354SOL    HW165104   9.349   3.745   6.087 -0.2872  0.7094 -2.5430
20354SOL    HW265105   9.198   3.741   6.103 -0.0195 -0.6267  0.4212
20355SOL     OW65106   9.934   0.863   1.488  0.1971 -0.3951  0.2740
20355SOL    HW165107   9.950   0.937   1.547  0.5470 -1.0976  1.0852
20355SOL    HW265108   9.845   0.835   1.508  0.3935 -0.7698  0.6237
20356SOL     OW65109   4.064   1.743   6.422  0.0392  0.2011 -0.2560
20356SOL    HW165110   4.138   1.797   6.394 -0.4742  1.4576  0.7277
20356SOL    HW265111   4.062   1.671   6.359  1.0827  1.0264 -1.2752
20357SOL     OW65112   7.431   8.055   0.440 -0.0489  0.0766 -0.1236
20357SOL    HW165113   7.403   8.112   0.511 -2.6043 -1.4149  0.1850
20357SOL    HW265114   7.373   8.077   0.367  1.2584  0.2491 -1.1387
20358SOL     OW65115   0.715   7.925   9.961 -0.1195 -0.0660  0.6388
20358SOL    HW165116   0.679   7.964   9.881 -1.5501 -2.5861 -0.0605
20358SOL    HW265117   0.637   7.902  10.013  0.7141 -0.6257  1.6828
20359SOL     OW65118   7.229   0.188   5.707 -0.4032 -0.3199  0.0039
20359SOL    HW165119   7.248   0.133   5.631 -2.0626  0.4808 -1.0438
20359SOL    HW265120   7.140   0.219   5.692 -0.1662  1.1748  1.4788
20360SOL     OW65121   4.295   6.024   2.566 -0.4109  0.1093 -0.7759
20360SOL    HW165122   4.224   5.993   2.510 -0.8747 -0.4153  0.0839
20360SOL    HW265123   4.371   6.027   2.508 -0.6493 -1.3427 -1.2070
20361SOL     OW65124   2.947   0.389   2.242 -0.1370  0.1955  0.2962
20361SOL    HW165125   2.903   0.343   2.171 -1.4909 -0.5527  1.5725
20361SOL    HW265126   3.037   0.356   2.239 -0.5156 -0.8426 -0.2388
20362SOL     OW65127   2.458   2.964   1.881 -0.1309  0.4950 -0.1117
20362SOL    HW165128   2.434   3.036   1.939 -0.7186  0.1953  0.0241
20362SOL    HW265129   2.459   3.003   1.794 -2.8051  0.1825 -0.3574
20363SOL     OW65130   5.799   2.081   7.384  0.1400 -0.2885 -0.0788
20363SOL    HW165131   5.768   2.110   7.298 -1.0834 -0.8217  0.1591
20363SOL    HW265132   5.768   1.991   7.392 -0.3260 -0.0393  1.1694
20364SOL     OW65133   5.223   7.591   0.951  0.4161  0.0479  0.0068
20364SOL    HW165134   5.279   7.538   0.894 -0.5006  0.3417 -1.2097
20364SOL    HW265135   5.203   7.533   1.024  1.1159 -0.5615 -0.2695
20365SOL     OW65136   4.292   1.564   9.699 -0.2241 -0.6007  0.6677
20365SOL    HW165137   4.268   1.626   9.630 -0.2824 -0.0210  1.1995
20365SOL    HW265138   4.218   1.503   9.704 -0.0125 -0.9359 -0.0983
20366SOL     OW65139   9.960   7.931   2.575 -0.1537  0.0401  0.1476
20366SOL    HW165140  10.027   7.875   2.538 -0.2455  0.2862 -0.4003
20366SOL    HW265141   9.950   8.003   2.512 -0.4260  0.3791  0.5667
20367SOL     OW65142   1.221   8.072   7.258 -0.0413 -0.0260  0.3000
20367SOL    HW165143   1.152   8.136   7.278 -0.3595 -0.6976  1.4459
20367SOL    HW265144   1.291   8.093   7.319  0.8872  0.7686 -0.9865
20368SOL     OW65145   8.361   8.736   3.421  0.3995  0.4303  0.6095
20368SOL    HW165146   8.309   8.815   3.442  1.7467  1.7621 -0.8058
20368SOL    HW265147   8.295   8.671   3.394 -0.6386  1.8890 -0.5958
20369SOL     OW65148   5.305   9.464   7.800 -0.2724 -0.0937 -0.5054
20369SOL    HW165149   5.358   9.445   7.723 -2.5676  0.6149 -2.3757
20369SOL    HW265150   5.257   9.543   7.777  0.3615  1.2913  2.4586
20370SOL     OW65151   4.706   7.905   3.505 -0.1368  0.0941  0.4791
20370SOL    HW165152   4.704   7.830   3.564 -0.6393 -2.1607 -2.1943
20370SOL    HW265153   4.799   7.925   3.495 -0.0253  0.2322  1.6396
20371SOL     OW65154   3.368   0.231   3.008 -0.2280  0.0675  0.2377
20371SOL    HW165155   3.367   0.319   2.970 -0.9976  0.4934  1.1967
20371SOL    HW265156   3.437   0.235   3.074  0.3867 -0.3489 -0.3702
20372SOL     OW65157   4.765   7.722   0.004  0.3302 -0.6230  0.4907
20372SOL    HW165158   4.762   7.721   0.100 -0.1965 -0.1984  0.4877
20372SOL    HW265159   4.750   7.631  -0.021  0.5101 -0.7441  0.8145
20373SOL     OW65160   0.702   2.440   1.495  0.1756 -0.2399 -0.0188
20373SOL    HW165161   0.656   2.426   1.578  0.7921 -0.6028  0.2685
20373SOL    HW265162   0.726   2.533   1.497  1.4423 -0.5579  0.8778
20374SOL     OW65163   9.539   8.113   8.078 -0.4003 -1.2146  0.1887
20374SOL    HW165164   9.529   8.207   8.059  1.3964 -1.0923 -0.3473
20374SOL    HW265165   9.609   8.110   8.143 -1.9800 -2.0880  1.9710
20375SOL     OW65166  10.179   3.726   4.738  0.2986  0.0805  0.6806
20375SOL    HW165167  10.183   3.797   4.675  0.7238 -1.0379 -0.6159
20375SOL    HW265168  10.108   3.749   4.797  0.0644  1.2972 -0.0510
20376SOL     OW65169   0.169   5.855   9.963 -0.2828  0.0117 -0.2665
20376SOL    HW165170   0.146   5.948   9.958 -2.5370 -0.4377  0.2598
20376SOL    HW265171   0.263   5.854   9.979  0.4085  2.1177 -3.2441
20377SOL     OW65172   8.390   3.107   2.668  0.9668  0.9802 -0.3581
20377SOL    HW165173   8.369   3.039   2.603  0.1993  1.7863 -0.9709
20377SOL    HW265174   8.363   3.068   2.751  0.3756  0.5812 -0.7208
20378SOL     OW65175   9.031   7.938   0.302  0.4043  0.4818 -0.1918
20378SOL    HW165176   9.080   7.891   0.370 -0.3329  1.4596  1.0794
20378SOL    HW265177   9.077   8.022   0.293 -1.3058  1.6871  1.4964
20379SOL     OW65178   9.970   7.124   2.089 -0.4409  0.5316 -0.1133
20379SOL    HW165179   9.947   7.154   2.177 -2.7381  0.4317 -0.6186
20379SOL    HW265180  10.023   7.046   2.104 -0.0894  0.9829  1.1654
20380SOL     OW65181   0.393   6.465   6.249 -0.0878  0.0167 -0.3073
20380SOL    HW165182   0.409   6.375   6.279  0.9911 -0.0578 -1.0376
20380SOL    HW265183   0.425   6.465   6.159 -1.1384  0.8377 -0.6939
20381SOL     OW65184  10.229   7.355  10.190 -0.2087 -0.2712  0.3247
20381SOL    HW165185  10.315   7.397  10.189  0.5440 -1.7772 -0.6640
20381SOL    HW265186  10.224   7.313  10.276  0.6364 -1.3319 -0.1338
20382SOL     OW65187   8.754   9.140   4.284 -0.2448  0.2771  0.4051
20382SOL    HW165188   8.774   9.188   4.204  3.5461  0.1040  1.0909
20382SOL    HW265189   8.718   9.207   4.343 -3.0557  0.4079 -1.2721
20383SOL     OW65190   9.722   2.990   0.344  0.5315  0.5495  0.0242
20383SOL    HW165191   9.733   3.059   0.409 -2.2936  1.2917 -0.1658
20383SOL    HW265192   9.733   2.909   0.394 -0.7084  1.1167  1.2874
20384SOL     OW65193   9.690   7.996   2.380  0.0227  0.4623  0.1569
20384SOL    HW165194   9.653   8.022   2.296 -0.0157  1.9196  0.5919
20384SOL    HW265195   9.784   8.009   2.370 -0.0457  1.3481  0.5502
20385SOL     OW65196   0.980   0.206   8.875 -0.2761 -0.6012  0.2977
20385SOL    HW165197   0.891   0.243   8.873 -0.1701 -0.3625 -0.5927
20385SOL    HW265198   1.034   0.273   8.833  0.1315 -1.2314 -0.1991
20386SOL     OW65199   5.573   0.492   9.657  0.1134 -0.6956 -0.0174
20386SOL    HW165200   5.642   0.558   9.653 -0.7585  0.2062 -0.6002
20386SOL    HW265201   5.501   0.529   9.605 -0.0557 -2.5107 -1.1659
20387SOL     OW65202   6.986   9.858   0.183  0.4675  0.0081 -0.3583
20387SOL    HW165203   7.081   9.844   0.187  0.9190  2.8893  1.4909
20387SOL    HW265204   6.954   9.834   0.270 -0.3657 -0.0437 -0.6687
20388SOL     OW65205   6.081   0.886   2.419 -0.4291  0.2883  0.3412
20388SOL    HW165206   6.077   0.831   2.497  2.4002  2.0814  1.9372
20388SOL    HW265207   6.135   0.835   2.357 -1.2009 -0.3894  0.2119
20389SOL     OW65208   8.787   0.656   3.271  0.0407 -0.5452  0.8228
20389SOL    HW165209   8.772   0.719   3.201 -0.4564 -0.8714  0.6326
20389SOL    HW265210   8.700   0.622   3.293  0.2267 -0.6864  1.3695
20390SOL     OW65211   5.321   6.158   3.907 -0.0419 -0.1537 -0.4352
20390SOL    HW165212   5.264   6.190   3.978 -1.1189 -2.1359 -0.3417
20390SOL    HW265213   5.331   6.065   3.925 -0.4301 -0.7477 -2.9333
20391SOL     OW65214   8.448   2.580  10.203 -0.4900  0.2593 -0.9446
20391SOL    HW165215   8.361   2.544  10.186 -1.5228  1.9861  0.2617
20391SOL    HW265216   8.474   2.541  10.287 -0.1991 -0.0792 -1.1906
20392SOL     OW65217   9.489   7.409   2.549  0.1205 -0.2070  0.9748
20392SOL    HW165218   9.575   7.415   2.508 -0.5337 -0.5362 -0.5168
20392SOL    HW265219   9.458   7.321   2.527 -1.0009  0.2607  0.6187
20393SOL     OW65220   2.805   0.138   6.999  0.5604  0.3222 -0.2096
20393SOL    HW165221   2.825   0.166   7.088 -0.7675 -0.7153  0.4562
20393SOL    HW265222   2.735   0.198   6.970  1.0519  0.7159 -0.6002
20394SOL     OW65223   3.976   1.484   6.348  0.4280  0.0236  0.1054
20394SOL    HW165224   3.988   1.389   6.355  3.0666  0.2264 -0.7397
20394SOL    HW265225   3.894   1.494   6.300 -0.4236 -1.7833  1.0757
20395SOL     OW65226   6.598   7.482   0.115 -0.3696  0.4239  0.1905
20395SOL    HW165227   6.632   7.492   0.204  2.1283  1.6283 -0.8067
20395SOL    HW265228   6.583   7.388   0.105  0.5318  0.1269  1.4532
20396SOL     OW65229   9.425   3.450   1.375 -0.2263 -0.3883 -0.6553
20396SOL    HW165230   9.416   3.517   1.307  0.1767 -0.1322 -0.4575
20396SOL    HW265231   9.402   3.495   1.456 -3.2833 -1.3206 -0.8622
20397SOL     OW65232   4.520   5.080   6.007  0.4910 -0.2951 -0.0796
20397SOL    HW165233   4.566   5.043   5.932  0.4671  0.7768 -0.6601
20397SOL    HW265234   4.566   5.047   6.083 -0.2512 -2.4355 -0.4922
20398SOL     OW65235   1.715   6.421   4.278  0.5691  0.3767  0.2813
20398SOL    HW165236   1.698   6.443   4.370 -0.6614 -0.0159  0.1765
20398SOL    HW265237   1.730   6.326   4.278 -0.0343  0.2730  0.0213
20399SOL     OW65238   3.803   9.679   0.858  0.2874 -0.5352  0.4716
20399SOL    HW165239   3.870   9.641   0.802 -0.2173  1.6738 -1.8262
20399SOL    HW265240   3.724   9.631   0.838  0.6159 -1.4695  1.3108
20400SOL     OW65241   9.279   3.666   0.319  0.0722 -0.3718  0.4527
20400SOL    HW165242   9.258   3.578   0.288 -1.6601 -0.2164  1.0550
20400SOL    HW265243   9.348   3.652   0.385  0.7144 -1.1222 -0.3503
20401SOL     OW65244   4.046   0.993   9.389  0.5467  0.2893 -0.3856
20401SOL    HW165245   4.120   0.976   9.331  0.0503  2.1473 -1.6496
20401SOL    HW265246   3.994   1.058   9.343 -0.9285  0.3753  1.2977
20402SOL     OW65247   9.564   7.534   6.368 -0.4022 -0.4503 -0.3671
20402SOL    HW165248   9.578   7.582   6.450  1.7165 -0.6835 -0.5282
20402SOL    HW265249   9.472   7.550   6.346 -0.4129  1.5281  0.8545
20403SOL     OW65250   4.230   5.749   9.923 -0.3245 -0.1662  0.4625
20403SOL    HW165251   4.303   5.688   9.914  0.4839  0.6647  1.2370
20403SOL    HW265252   4.155   5.701   9.889  1.1835  0.3183 -4.4220
20404SOL     OW65253   1.751   2.684   9.546 -0.3846 -0.2110 -0.5700
20404SOL    HW165254   1.806   2.705   9.470 -0.1156 -0.6395 -0.4952
20404SOL    HW265255   1.761   2.759   9.604 -0.3467 -0.0209 -0.8164
20405SOL     OW65256   1.766   1.749   6.529 -0.0620  0.4647  0.4915
20405SOL    HW165257   1.826   1.679   6.553 -0.9061 -0.2566  0.5667
20405SOL    HW265258   1.679   1.708   6.533 -0.5344  1.4025  0.1204
20406SOL     OW65259   7.435   9.442   7.334 -0.0575  0.0185  0.0509
20406SOL    HW165260   7.432   9.538   7.337 -1.1750  0.1845 -2.7630
20406SOL    HW265261   7.528   9.421   7.344  0.5760  1.6164 -1.7441
20407SOL     OW65262  10.060   2.833   7.622 -0.5324  0.4472  0.0881
20407SOL    HW165263  10.085   2.926   7.621 -1.6599  0.7552 -1.1924
20407SOL    HW265264  10.131   2.790   7.670  2.0165  1.4127 -2.5580
20408SOL     OW65265   5.650   3.029   2.967  0.5805 -0.2425  0.3791
20408SOL    HW165266   5.556   3.031   2.946  0.7233 -1.5136 -0.4657
20408SOL    HW265267   5.683   2.953   2.920  1.5393 -1.4243  2.7905
20409SOL     OW65268   0.044   2.332  10.209 -0.7946 -0.1768  0.3940
20409SOL    HW165269   0.120   2.292  10.250 -0.3720  0.7842  0.5855
20409SOL    HW265270   0.057   2.319  10.115  0.7644  1.8657  0.2548
20410SOL     OW65271   4.681   9.465   3.241  0.2512 -0.0114 -0.2326
20410SOL    HW165272   4.691   9.523   3.317 -0.3033  0.2954 -0.3861
20410SOL    HW265273   4.667   9.525   3.167 -1.9969 -0.3290 -0.1463
20411SOL     OW65274   9.143   7.885   2.617 -0.4495 -0.5775  0.0738
20411SOL    HW165275   9.222   7.940   2.617 -0.8017 -0.0697  0.5144
20411SOL    HW265276   9.132   7.858   2.708 -1.4802  0.3672  0.2418
20412SOL     OW65277   9.223   2.881   9.068  0.6723 -0.0842 -0.0655
20412SOL    HW165278   9.231   2.837   8.984 -0.1168 -0.1372 -0.1176
20412SOL    HW265279   9.311   2.875   9.107  0.7002 -1.2593 -0.2838
20413SOL     OW65280   2.828   4.797   9.584 -0.3363  0.3643  0.1476
20413SOL    HW165281   2.747   4.847   9.573 -1.6080 -1.4682  0.7280
20413SOL    HW265282   2.833   4.741   9.507  0.7597  0.9231 -0.2103
20414SOL     OW65283   2.628   7.674   0.684 -0.2310  0.4982  0.3542
20414SOL    HW165284   2.615   7.727   0.606 -1.1526  1.1589  0.9440
20414SOL    HW265285   2.723   7.657   0.686 -0.3430 -0.6565 -1.6067
20415SOL     OW65286   1.325   2.443   7.950  0.1521  0.0697  0.2229
20415SOL    HW165287   1.288   2.406   7.869  0.0446 -2.1596  1.2251
20415SOL    HW265288   1.420   2.442   7.935  0.1304 -0.3027  0.0928
20416SOL     OW65289   5.275   1.544  10.046 -0.0103  0.2647 -0.8780
20416SOL    HW165290   5.259   1.473  10.108  0.7933  1.7034  1.0549
20416SOL    HW265291   5.226   1.518   9.968 -1.4485 -1.3911  0.4845
20417SOL     OW65292   5.125   2.167   6.031 -0.0976 -0.0415  0.3364
20417SOL    HW165293   5.196   2.146   6.091 -1.0801 -1.1993  1.1368
20417SOL    HW265294   5.149   2.122   5.950  0.2349 -0.1678  0.5017
20418SOL     OW65295   0.541   3.377   8.735 -0.2840  0.1313 -0.1667
20418SOL    HW165296   0.579   3.464   8.748  0.3396 -0.2197  0.4727
20418SOL    HW265297   0.573   3.325   8.809 -0.2925 -0.7571 -0.7584
20419SOL     OW65298   8.874   6.457   0.797  0.4391 -0.3636  0.7329
20419SOL    HW165299   8.965   6.440   0.771  1.2312  0.6052  2.6965
20419SOL    HW265300   8.824   6.387   0.755  1.8919 -0.2103 -1.4075
20420SOL     OW65301   2.474   2.989   4.512  0.4619 -0.1367  0.4503
20420SOL    HW165302   2.532   3.017   4.582  0.9004 -0.1392  0.0921
20420SOL    HW265303   2.463   2.895   4.526 -2.6264  0.4360  2.8588
20421SOL     OW65304   3.145   8.579   7.113  0.0625  0.4427  0.0327
20421SOL    HW165305   3.142   8.671   7.138 -0.1720  0.5603 -0.4073
20421SOL    HW265306   3.125   8.579   7.019 -0.4557 -0.1008  0.1371
20422SOL     OW65307   6.805   6.244   5.979  0.2998 -0.0626 -0.3071
20422SOL    HW165308   6.876   6.209   6.032 -0.6696 -0.8819  0.5094
20422SOL    HW265309   6.840   6.251   5.891  0.5760 -3.1115 -0.5452
20423SOL     OW65310   8.391   1.319   0.098 -0.1156 -0.5244  0.7213
20423SOL    HW165311   8.421   1.405   0.129 -1.0628  0.5078 -1.0515
20423SOL    HW265312   8.467   1.262   0.109 -0.0704 -0.0113  3.8273
20424SOL     OW65313   2.139   3.714   6.653  0.2509  0.0399 -0.1948
20424SOL    HW165314   2.212   3.684   6.599  1.1232 -0.5147  1.2200
20424SOL    HW265315   2.155   3.672   6.739 -0.5049  1.6753  0.7833
20425SOL     OW65316   0.617   6.026   4.016  0.3545 -0.3657 -0.4998
20425SOL    HW165317   0.605   6.077   3.936  0.2640 -1.5157 -1.2510
20425SOL    HW265318   0.704   5.989   4.008  0.1986 -0.7938 -0.2461
20426SOL     OW65319   0.599   6.994   8.591  0.1118  0.6076 -0.2540
20426SOL    HW165320   0.629   7.029   8.508  1.4738  0.0081 -0.0277
20426SOL    HW265321   0.678   6.963   8.635 -0.5630  0.9734  1.2983
20427SOL     OW65322   6.760   6.525   1.124 -0.2832 -0.3932 -0.0452
20427SOL    HW165323   6.679   6.507   1.173  0.8598 -2.2248  1.2949
20427SOL    HW265324   6.776   6.618   1.139 -0.1872 -0.7786  2.8660
20428SOL     OW65325   2.503   9.742   5.877  0.2713  0.2643 -0.0112
20428SOL    HW165326   2.442   9.744   5.803 -1.5105  2.2972  1.3896
20428SOL    HW265327   2.451   9.713   5.951  1.1648  1.3368  1.0816
20429SOL     OW65328   3.213   2.209   7.191  0.0235 -0.2653  0.5819
20429SOL    HW165329   3.159   2.277   7.231  0.9823  0.6882  0.2809
20429SOL    HW265330   3.154   2.133   7.184 -1.7771  1.1608 -1.1009
20430SOL     OW65331   3.746   9.786   9.733  0.8332 -0.0370  0.3775
20430SOL    HW165332   3.682   9.845   9.694 -0.1598 -0.4316  1.3690
20430SOL    HW265333   3.793   9.748   9.659  0.1818  0.5556 -0.3413
20431SOL     OW65334   1.797   4.346   5.751 -0.1939  0.0055 -0.3825
20431SOL    HW165335   1.711   4.305   5.750  0.0157 -0.5761  1.3769
20431SOL    HW265336   1.859   4.272   5.751  0.2458  0.3623  0.1401
20432SOL     OW65337   5.802   7.418   3.877 -0.0822 -0.1324 -0.0281
20432SOL    HW165338   5.775   7.386   3.791 -0.0261  0.7840 -0.3928
20432SOL    HW265339   5.856   7.347   3.912 -0.6674 -0.8077 -0.4495
20433SOL     OW65340   9.696   8.699   9.670 -0.3435 -0.2660  0.5319
20433SOL    HW165341   9.607   8.730   9.650  0.1137 -0.0415 -1.3557
20433SOL    HW265342   9.731   8.766   9.729 -0.6672  0.8835 -0.5309
20434SOL     OW65343   4.674   3.830   5.197  0.6779 -0.3702 -0.1958
20434SOL    HW165344   4.600   3.851   5.254  0.5940  1.4475 -0.9076
20434SOL    HW265345   4.673   3.734   5.190 -0.9911 -0.4400  0.5942
20435SOL     OW65346   8.902   5.146   0.280  0.2551 -0.2524  0.0139
20435SOL    HW165347   8.886   5.106   0.366  0.7903 -0.2970  0.0962
20435SOL    HW265348   8.959   5.084   0.235 -1.4170 -1.0723 -1.0471
20436SOL     OW65349   1.166   3.611   6.616 -0.4082 -0.7901 -0.5298
20436SOL    HW165350   1.161   3.702   6.645  1.3708 -1.1465  1.1254
20436SOL    HW265351   1.142   3.613   6.523  1.2926  1.6567 -1.0055
20437SOL     OW65352   8.235   5.796   0.676 -0.0862  0.2742 -0.3792
20437SOL    HW165353   8.186   5.842   0.608 -0.7834 -1.1877 -0.9183
20437SOL    HW265354   8.230   5.854   0.752 -1.6069  0.7438 -0.7977
20438SOL     OW65355   0.023   4.443   3.554 -0.2876 -0.2178 -0.0144
20438SOL    HW165356   0.091   4.376   3.550 -2.1968 -2.1906 -1.2592
20438SOL    HW265357   0.000   4.459   3.462 -0.9701  0.9842  0.3508
20439SOL     OW65358   4.698  10.280   6.766  0.3111  0.9180  0.2049
20439SOL    HW165359   4.749  10.210   6.806 -2.0621 -1.4420 -0.5905
20439SOL    HW265360   4.755  10.315   6.697  1.1755 -1.0875 -0.1674
20440SOL     OW65361   6.680   2.733   5.253  0.0156 -0.0371  0.0127
20440SOL    HW165362   6.747   2.665   5.243 -1.4041 -1.7327  1.5084
20440SOL    HW265363   6.714   2.790   5.323  0.5095 -0.0587 -0.2000
20441SOL     OW65364   9.499   1.549  10.101 -0.0764 -0.7503  0.3683
20441SOL    HW165365   9.582   1.564  10.055 -0.2845 -0.8162 -0.0411
20441SOL    HW265366   9.443   1.507  10.035 -1.1320  1.1494 -0.0501
20442SOL     OW65367   5.597   7.620   0.711  0.2746 -0.2088  0.5626
20442SOL    HW165368   5.650   7.606   0.633  0.4687 -0.2002  0.6948
20442SOL    HW265369   5.648   7.680   0.765  0.2994 -0.4992  0.8586
20443SOL     OW65370   1.028   7.037   1.863  0.1943 -0.3886  0.1788
20443SOL    HW165371   1.052   6.981   1.937 -0.0663  0.4078  0.8870
20443SOL    HW265372   1.078   7.118   1.877  0.7379 -0.5071 -0.9491
20444SOL     OW65373   0.199   6.913   7.047 -0.2489 -0.2104 -0.2958
20444SOL    HW165374   0.115   6.921   7.092 -0.3181 -0.1368 -0.4363
20444SOL    HW265375   0.257   6.974   7.094 -0.0201 -0.9378  0.3802
20445SOL     OW65376   1.985   9.040   6.768 -0.2505 -0.4392 -0.1724
20445SOL    HW165377   1.907   9.080   6.730  0.2315 -1.4451 -2.3490
20445SOL    HW265378   1.956   8.955   6.801 -0.4499  0.0105  0.8677
20446SOL     OW65379   8.791   9.734   8.978  0.2391  0.2948 -0.6459
20446SOL    HW165380   8.843   9.808   9.008 -1.1069  1.4039 -0.9178
20446SOL    HW265381   8.817   9.661   9.034  1.3928  1.0460 -0.1796
20447SOL     OW65382   6.594   5.068   5.902  0.2683 -0.9722  0.0849
20447SOL    HW165383   6.530   5.091   5.970 -0.6229 -0.7311 -0.8100
20447SOL    HW265384   6.672   5.041   5.951  0.2348  0.7878  1.2079
20448SOL     OW65385   2.324   7.741   9.210  0.2429 -0.3362 -0.2400
20448SOL    HW165386   2.231   7.740   9.188 -0.0152 -0.4948  0.8257
20448SOL    HW265387   2.342   7.830   9.240  0.2387 -0.5297  0.3477
20449SOL     OW65388   1.292   0.933   3.103 -0.1479  0.0401 -0.4121
20449SOL    HW165389   1.300   0.935   3.008  0.2147 -0.9896 -0.4150
20449SOL    HW265390   1.198   0.947   3.120 -0.9356 -3.4035 -1.1301
20450SOL     OW65391   2.500   1.005   9.375 -0.2284 -0.2626 -0.2651
20450SOL    HW165392   2.586   1.048   9.370  1.2231 -3.0523 -2.3036
20450SOL    HW265393   2.489   0.964   9.289 -3.6177 -0.1234 -0.0261
20451SOL     OW65394   7.910   6.937   0.930  0.0671  0.3787  0.4551
20451SOL    HW165395   7.895   6.860   0.876  0.9717  0.6988 -0.2790
20451SOL    HW265396   7.913   6.904   1.020 -0.2500 -0.3341  0.2049
20452SOL     OW65397   3.984   2.837   3.514 -1.0673  0.0149  0.2547
20452SOL    HW165398   4.003   2.761   3.569  0.0030  0.2653  0.2581
20452SOL    HW265399   4.004   2.807   3.425  1.4152  0.8488  0.4322
20453SOL     OW65400   2.587  10.187   7.427  0.0223  1.2165  0.4193
20453SOL    HW165401   2.550  10.102   7.453  1.2224  1.1004  1.9053
20453SOL    HW265402   2.564  10.246   7.499  0.9007  1.6390  0.3692
20454SOL     OW65403   8.629   3.012   8.701  0.2722  0.2985 -0.2634
20454SOL    HW165404   8.623   2.972   8.788 -0.9960 -0.7746 -0.8031
20454SOL    HW265405   8.715   2.985   8.669 -0.1937 -1.3393 -0.2563
20455SOL     OW65406   9.569   3.001   9.443 -0.1562  0.2156 -0.3772
20455SOL    HW165407   9.532   2.914   9.458  1.9275 -0.5672  0.6909
20455SOL    HW265408   9.612   2.995   9.358  0.1511  0.1159 -0.2186
20456SOL     OW65409   3.839   2.213   8.015  0.4754 -0.2125 -0.7197
20456SOL    HW165410   3.869   2.140   7.960 -2.7909 -3.3766  1.3047
20456SOL    HW265411   3.894   2.209   8.093 -0.4807 -1.4466 -0.0690
20457SOL     OW65412   7.358   3.660   2.929  0.1989 -0.4001  0.4113
20457SOL    HW165413   7.346   3.708   2.847 -0.1862  0.4093  0.9266
20457SOL    HW265414   7.274   3.668   2.974  0.2908 -1.1371  0.7370
20458SOL     OW65415   3.748  10.004   5.198 -0.3723 -0.4767  0.2001
20458SOL    HW165416   3.740  10.087   5.150  1.3526 -0.4324 -0.0542
20458SOL    HW265417   3.798  10.027   5.277  1.5738 -1.5296 -0.6600
20459SOL     OW65418   7.001   1.211   4.099 -0.5622 -0.0523  0.3532
20459SOL    HW165419   7.040   1.169   4.176 -2.5788 -1.2385  0.8137
20459SOL    HW265420   6.986   1.139   4.038 -1.5297  0.4133  0.0099
20460SOL     OW65421   5.908   5.888   2.489  0.4172 -0.0860 -0.2819
20460SOL    HW165422   5.917   5.871   2.582 -3.6114 -1.7201 -0.0046
20460SOL    HW265423   5.942   5.809   2.446 -0.3481 -0.5503 -0.0368
20461SOL     OW65424   0.280   1.168   2.583 -0.5214 -0.1295 -0.0854
20461SOL    HW165425   0.261   1.218   2.663  1.2060 -1.6944  1.4010
20461SOL    HW265426   0.341   1.222   2.534  0.9571 -0.4958  1.2738
20462SOL     OW65427   1.483   1.852   9.780  0.2943 -0.0203 -0.3156
20462SOL    HW165428   1.451   1.938   9.754  0.4501  0.3420  0.6357
20462SOL    HW265429   1.578   1.862   9.785  0.2284  0.1505  1.0766
20463SOL     OW65430   6.601   5.247   5.403 -0.0215  0.0908  0.3578
20463SOL    HW165431   6.560   5.161   5.402 -0.6687  0.3353  2.1505
20463SOL    HW265432   6.613   5.267   5.496 -0.0191  1.9933 -0.0126
20464SOL     OW65433   6.124   9.490   0.534 -0.3734 -0.1955  0.1936
20464SOL    HW165434   6.167   9.555   0.478 -2.6624  1.4327  0.2047
20464SOL    HW265435   6.120   9.411   0.479  2.4197 -0.4367  0.1661
20465SOL     OW65436   7.624   8.472   5.446 -0.3620  0.6055 -0.3023
20465SOL    HW165437   7.670   8.461   5.530 -1.2939  2.4479  0.5155
20465SOL    HW265438   7.690   8.507   5.387  0.1250 -0.0166 -0.1345
20466SOL     OW65439   1.151   1.457   2.510 -0.4775 -0.3269 -0.3820
20466SOL    HW165440   1.128   1.529   2.568  0.7313  1.5176 -2.0676
20466SOL    HW265441   1.106   1.476   2.428 -0.0443 -1.4293 -0.8982
20467SOL     OW65442   6.998   2.629   7.897  0.1196  0.0433 -0.2725
20467SOL    HW165443   7.023   2.661   7.811 -2.0078  0.8604 -0.6501
20467SOL    HW265444   7.076   2.583   7.929  1.1088  0.1084 -2.4107
20468SOL     OW65445   3.678   1.699   7.534  0.2460 -0.3778  0.6013
20468SOL    HW165446   3.607   1.763   7.540  0.4612  0.2084 -1.9704
20468SOL    HW265447   3.655   1.632   7.599 -1.4440  0.9224  1.4258
20469SOL     OW65448   5.836   6.529   0.814  1.0239 -0.7549  0.5103
20469SOL    HW165449   5.883   6.463   0.763 -1.1598 -0.9076 -1.4498
20469SOL    HW265450   5.748   6.493   0.825 -0.5385  2.1437 -1.4653
20470SOL     OW65451   8.034   3.074   5.896  0.7341 -0.0645 -0.2393
20470SOL    HW165452   7.962   3.019   5.928  0.3715  0.0804 -0.7938
20470SOL    HW265453   8.034   3.061   5.801 -0.0073  1.6591 -0.4986
20471SOL     OW65454  10.038   7.582   6.476  0.2347 -0.3708 -0.1438
20471SOL    HW165455   9.994   7.517   6.529 -2.2625  1.5416  0.3050
20471SOL    HW265456   9.970   7.617   6.418  1.4658  1.7146 -0.4538
20472SOL     OW65457   6.730   6.530   4.451  0.3390  0.3482  0.0226
20472SOL    HW165458   6.677   6.536   4.372  0.6998 -0.0198 -0.2506
20472SOL    HW265459   6.796   6.463   4.432  1.4481  1.3948  0.0343
20473SOL     OW65460   8.888   4.006   2.222 -0.2090  0.2372 -0.2788
20473SOL    HW165461   8.956   4.031   2.283 -0.5741 -0.9327  0.6411
20473SOL    HW265462   8.806   4.025   2.268 -0.4860 -0.8401 -0.3021
20474SOL     OW65463   8.695   6.301   8.239  0.5093  0.1059  0.8856
20474SOL    HW165464   8.771   6.244   8.251  0.5044  0.1457  1.1002
20474SOL    HW265465   8.624   6.241   8.215  0.8946  0.1909 -0.6028
20475SOL     OW65466   8.279   8.467   6.654  0.7675 -0.2175 -0.3589
20475SOL    HW165467   8.277   8.520   6.733 -2.8308 -0.1681 -0.3345
20475SOL    HW265468   8.330   8.519   6.592  2.0896  0.5865  1.3143
20476SOL     OW65469   3.068   0.312   1.407  0.0865  0.0994 -0.6159
20476SOL    HW165470   3.012   0.277   1.339 -0.4656 -1.8579  0.7622
20476SOL    HW265471   3.087   0.237   1.464  1.8180  1.3063  0.5039
20477SOL     OW65472   7.717   2.049   7.752 -0.2983 -0.0757  0.0563
20477SOL    HW165473   7.798   2.004   7.776 -0.6385 -0.5558  0.3208
20477SOL    HW265474   7.665   1.982   7.709 -1.5115 -0.4117  1.9572
20478SOL     OW65475   7.823   9.250   0.450 -0.2446 -0.6142  0.2695
20478SOL    HW165476   7.917   9.264   0.438 -0.2228 -2.3520 -2.2271
20478SOL    HW265477   7.786   9.339   0.456  1.1213  0.2955 -2.9962
20479SOL     OW65478   6.772   4.735   0.403  0.0284 -0.0947 -0.0529
20479SOL    HW165479   6.766   4.714   0.309 -0.1536 -0.3513  0.0154
20479SOL    HW265480   6.691   4.782   0.422  0.7320  1.3139 -0.3584
20480SOL     OW65481   9.351   4.805   1.405  0.0507 -0.3564  0.3524
20480SOL    HW165482   9.392   4.838   1.485 -0.4391  0.7463  0.1775
20480SOL    HW265483   9.359   4.878   1.343 -0.4498 -0.8349 -0.2829
20481SOL     OW65484  10.150   4.191   0.664  0.0484 -0.1715  0.3691
20481SOL    HW165485  10.078   4.184   0.601 -0.4043  0.7817  0.7667
20481SOL    HW265486  10.190   4.275   0.645  1.0380 -0.6671  0.1928
20482SOL     OW65487   4.249   1.197   4.061  0.0837  0.5133 -0.5491
20482SOL    HW165488   4.340   1.202   4.091  0.7447  0.6128 -2.4292
20482SOL    HW265489   4.235   1.278   4.012 -0.3893 -0.3352 -1.8815
20483SOL     OW65490   8.444   5.175   8.487  0.1335  0.3797 -0.1045
20483SOL    HW165491   8.437   5.209   8.576  1.7336  0.5853 -0.0360
20483SOL    HW265492   8.379   5.225   8.437  0.2893  1.3385  0.6384
20484SOL     OW65493   7.886   8.597   0.429 -0.4979  0.2120  1.1638
20484SOL    HW165494   7.928   8.627   0.510  1.2110  1.8936 -0.2675
20484SOL    HW265495   7.944   8.529   0.396 -0.2551  0.7490  0.4756
20485SOL     OW65496   9.621   0.116   4.389 -0.6975  0.2595 -0.2145
20485SOL    HW165497   9.604   0.195   4.440  0.9843  0.7423 -0.3553
20485SOL    HW265498   9.708   0.087   4.416 -1.0968 -1.3204 -0.4838
20486SOL     OW65499   8.808   2.018  10.004 -0.1306  0.1364  0.2361
20486SOL    HW165500   8.857   2.052  10.080  1.7867 -0.9231 -0.4387
20486SOL    HW265501   8.868   1.954   9.965 -1.0648  0.6362 -2.1804
20487SOL     OW65502   4.092   4.891   1.310 -0.6578  0.4176 -0.6510
20487SOL    HW165503   4.034   4.964   1.291 -0.9853  0.5604  0.7391
20487SOL    HW265504   4.167   4.931   1.354 -1.0370 -0.0972  0.5072
20488SOL     OW65505   8.390   3.059   6.504  0.4301 -0.4416  0.4599
20488SOL    HW165506   8.368   3.084   6.594  1.3409  0.6181  0.4130
20488SOL    HW265507   8.483   3.080   6.495  0.4232 -0.7898 -0.6543
20489SOL     OW65508   8.009   0.856   2.334 -0.0224 -0.2927 -0.4913
20489SOL    HW165509   8.097   0.868   2.370 -0.1845  1.6998 -0.6385
20489SOL    HW265510   8.023   0.851   2.240 -0.0809  0.5937 -0.5600
20490SOL     OW65511   5.918   1.223   3.909  0.0707  0.3666  0.4132
20490SOL    HW165512   5.923   1.207   4.003 -0.1806  0.0091  0.3682
20490SOL    HW265513   5.868   1.148   3.875 -2.6651  2.0573  0.4110
20491SOL     OW65514   3.413   1.456   7.404  0.3490  0.1900 -0.3938
20491SOL    HW165515   3.450   1.420   7.324 -0.4457 -0.7409 -0.3569
20491SOL    HW265516   3.368   1.383   7.445 -1.5453  1.2800 -0.4278
20492SOL     OW65517   7.191   5.866  10.099  0.1137 -0.1477  0.2132
20492SOL    HW165518   7.214   5.865  10.192  2.1735  0.0431 -0.2505
20492SOL    HW265519   7.100   5.896  10.097 -0.4954 -1.6656  2.2464
20493SOL     OW65520   0.186   3.240   4.723 -0.6629  0.4769 -0.1445
20493SOL    HW165521   0.158   3.331   4.710 -0.9804  0.1714 -1.7510
20493SOL    HW265522   0.275   3.236   4.687 -1.1657 -0.1528 -1.3653
20494SOL     OW65523   1.300   4.147   4.641 -0.1007 -0.8469  0.2587
20494SOL    HW165524   1.344   4.073   4.599 -0.2378 -0.7573 -0.0517
20494SOL    HW265525   1.217   4.155   4.594  0.7907  0.8139 -1.1649
20495SOL     OW65526   0.146   4.717   8.856 -0.3571  0.0786 -0.1171
20495SOL    HW165527   0.187   4.715   8.942 -0.4990 -1.2689 -0.0593
20495SOL    HW265528   0.216   4.749   8.798 -0.1715  0.6991  0.4307
20496SOL     OW65529   1.601   5.369   2.123  1.5331  0.1092 -0.8590
20496SOL    HW165530   1.567   5.310   2.055 -1.4382 -1.8730  2.0376
20496SOL    HW265531   1.543   5.444   2.121 -0.8821 -1.5004  1.4916
20497SOL     OW65532   5.489   0.062   6.449 -0.1939 -0.4730 -0.3734
20497SOL    HW165533   5.486  -0.032   6.431  0.3666 -0.3803 -0.9974
20497SOL    HW265534   5.505   0.102   6.364  0.2055  0.1453 -0.0150
20498SOL     OW65535   9.096   9.566   9.273  0.3276 -0.7456  0.7444
20498SOL    HW165536   9.182   9.535   9.245  1.1883  0.4673  1.8942
20498SOL    HW265537   9.037   9.543   9.201  1.5368 -1.9190  0.0873
20499SOL     OW65538   2.028   6.187   9.088 -0.4998  0.2033  0.0077
20499SOL    HW165539   2.081   6.181   9.168 -0.4530  1.9720  0.1437
20499SOL    HW265540   2.092   6.191   9.017 -0.4662  1.2874  0.0925
20500SOL     OW65541   8.136   7.236   2.150 -0.4484 -0.6716  0.1763
20500SOL    HW165542   8.146   7.144   2.175  0.1165 -0.8424 -0.6317
20500SOL    HW265543   8.055   7.264   2.192 -1.6840 -2.0867 -1.1343
20501SOL     OW65544   0.323   0.088   8.311 -0.2834  0.2547  0.1701
20501SOL    HW165545   0.236   0.049   8.326 -0.3818  1.2821  3.0233
20501SOL    HW265546   0.310   0.182   8.329  1.0860  0.7127 -1.0563
20502SOL     OW65547   0.656   9.449   1.941 -0.2517  0.3696  0.7435
20502SOL    HW165548   0.601   9.524   1.916  1.6474  1.6488  0.1906
20502SOL    HW265549   0.687   9.413   1.858  0.6154  0.3521  1.0662
20503SOL     OW65550   0.791   5.844   0.989 -0.3858 -0.1927 -0.3385
20503SOL    HW165551   0.728   5.915   0.981  0.8598  1.2123  1.5849
20503SOL    HW265552   0.739   5.767   1.012 -1.3796  1.1067  2.0513
20504SOL     OW65553   8.320   8.873   7.608  0.6765  0.5535  0.5490
20504SOL    HW165554   8.285   8.932   7.675 -1.2755  2.1573 -1.6890
20504SOL    HW265555   8.242   8.834   7.568  1.7450 -0.1524 -0.9434
20505SOL     OW65556   3.583   1.558   6.526  0.6614  0.6116 -0.6942
20505SOL    HW165557   3.605   1.639   6.481  0.6645  0.3285 -1.2120
20505SOL    HW265558   3.558   1.585   6.615  3.5952  0.9085  0.1250
20506SOL     OW65559   5.019  10.049   6.004 -0.3367  0.0268 -0.2856
20506SOL    HW165560   5.020  10.075   6.096 -0.2669 -3.1899  0.7326
20506SOL    HW265561   4.926  10.039   5.983 -0.3049 -0.6220 -0.1214
20507SOL     OW65562   0.620   9.957   2.468 -0.5882 -0.4002  0.0635
20507SOL    HW165563   0.605   9.862   2.467 -1.2291 -0.3147 -1.3740
20507SOL    HW265564   0.581   9.986   2.550 -0.3001 -1.3864  0.5683
20508SOL     OW65565   3.879   9.664   6.913  0.5244 -0.3440  0.1904
20508SOL    HW165566   3.889   9.604   6.987  0.0969 -1.5909 -0.7198
20508SOL    HW265567   3.969   9.692   6.893  0.4754  1.6353  2.4147
20509SOL     OW65568   4.446   8.386   3.900 -0.1965  0.2391 -0.0236
20509SOL    HW165569   4.532   8.427   3.889 -0.6845  1.2468 -0.2510
20509SOL    HW265570   4.418   8.366   3.811 -0.9554  1.5762 -0.1146
20510SOL     OW65571   5.833   8.706   1.699  0.0088  0.0065 -0.5043
20510SOL    HW165572   5.744   8.723   1.728 -0.2441  0.0502 -1.2776
20510SOL    HW265573   5.838   8.611   1.690 -0.8917  0.1251 -3.2090
20511SOL     OW65574   7.484   6.608   8.442  0.0678 -0.2675 -0.0980
20511SOL    HW165575   7.457   6.693   8.408 -2.0656 -1.4298 -1.4873
20511SOL    HW265576   7.501   6.555   8.364  2.5425 -0.8379  0.7302
20512SOL     OW65577   5.068   7.171   2.991  0.4574  0.7135 -0.1599
20512SOL    HW165578   5.088   7.098   3.050  0.2475  1.6932  1.1821
20512SOL    HW265579   5.146   7.227   2.996 -0.3813  1.8708  0.9174
20513SOL     OW65580   2.196   9.160   5.907  0.4267  0.4079 -0.5924
20513SOL    HW165581   2.202   9.080   5.853  0.6567  0.1417 -0.1759
20513SOL    HW265582   2.167   9.129   5.993 -0.5531  0.9059 -0.7276
20514SOL     OW65583   4.827   8.173   7.932 -0.6149 -0.3047 -0.1028
20514SOL    HW165584   4.796   8.085   7.952 -1.2342 -0.3422 -1.1748
20514SOL    HW265585   4.890   8.161   7.861  0.7629 -0.0642  1.0345
20515SOL     OW65586   2.152   1.481   2.021  0.4257  0.0890 -0.2749
20515SOL    HW165587   2.208   1.541   1.973  0.5389  0.2493  0.0494
20515SOL    HW265588   2.201   1.399   2.024  0.5979  0.1971 -0.0854
20516SOL     OW65589   3.917   4.458   1.283 -0.6712  0.4468  0.2557
20516SOL    HW165590   3.924   4.424   1.194  1.5408  0.5128  0.3590
20516SOL    HW265591   3.853   4.401   1.326 -0.8682 -0.3205 -1.0261
20517SOL     OW65592   4.374   9.783   1.482 -0.0027  0.5898  0.1940
20517SOL    HW165593   4.419   9.712   1.436  0.8939 -0.2917  2.2993
20517SOL    HW265594   4.409   9.863   1.443  1.5938 -0.1060  0.1121
20518SOL     OW65595   7.092   9.363   3.220  0.3211  0.3614  0.3213
20518SOL    HW165596   7.152   9.344   3.148  0.1110  1.9313 -0.3162
20518SOL    HW265597   7.005   9.357   3.181 -0.0064 -2.2035  1.3147
20519SOL     OW65598   7.203   9.266   5.658  0.1803 -0.6096 -0.3768
20519SOL    HW165599   7.226   9.211   5.733  1.5250 -1.9987 -1.7356
20519SOL    HW265600   7.136   9.216   5.612 -0.9867  0.4620  0.1144
20520SOL     OW65601   5.307   7.920   1.931 -0.1265 -0.9441  0.0688
20520SOL    HW165602   5.324   7.836   1.890  0.1124 -0.9032  0.0833
20520SOL    HW265603   5.352   7.916   2.015  0.7173 -0.4380 -0.3450
20521SOL     OW65604   2.466   2.636   0.119  0.0287  0.1635  0.0714
20521SOL    HW165605   2.553   2.649   0.157  0.2189 -0.4784 -0.1406
20521SOL    HW265606   2.481   2.580   0.042 -0.7229 -0.9901  0.7408
20522SOL     OW65607   5.393   8.631   1.939 -0.1122 -0.9000 -0.2275
20522SOL    HW165608   5.380   8.712   1.988  0.6685 -1.5465  1.1304
20522SOL    HW265609   5.308   8.587   1.941  0.0480 -1.1936  1.1314
20523SOL     OW65610   6.649   9.177   5.602 -0.4369 -0.0119  0.7806
20523SOL    HW165611   6.595   9.251   5.572  1.3851  1.3174  0.5783
20523SOL    HW265612   6.655   9.119   5.526 -0.7891  0.3145  0.5022
20524SOL     OW65613   6.859   9.879   7.530 -0.3408  0.2826 -0.3709
20524SOL    HW165614   6.765   9.867   7.516  0.0664 -4.2657 -0.5111
20524SOL    HW265615   6.875   9.846   7.618  1.1682  0.9853 -0.3456
20525SOL     OW65616   8.304   7.367   9.468 -0.5529  0.0751 -0.0863
20525SOL    HW165617   8.369   7.435   9.484 -1.6742  1.0573  0.4382
20525SOL    HW265618   8.297   7.363   9.373  0.9215 -0.7130 -0.2011
20526SOL     OW65619   8.306   7.680   5.399  0.5653 -0.0582  0.2843
20526SOL    HW165620   8.312   7.755   5.339 -0.1953  0.0235  0.3077
20526SOL    HW265621   8.359   7.612   5.357 -0.6787 -0.2989 -0.9385
20527SOL     OW65622   8.076   9.736   9.821 -0.0065 -0.0277  0.2685
20527SOL    HW165623   8.040   9.753   9.908 -0.6509  0.9062 -0.1797
20527SOL    HW265624   8.007   9.689   9.775  1.0260 -2.3105  0.8444
20528SOL     OW65625   5.504   1.657   6.637  0.0549  0.5927  0.6999
20528SOL    HW165626   5.545   1.736   6.671 -0.7197  1.6812 -0.8231
20528SOL    HW265627   5.572   1.615   6.584 -0.6207  2.3227 -1.7108
20529SOL     OW65628   2.500   7.830   4.319 -0.3831  0.4500 -0.5362
20529SOL    HW165629   2.495   7.889   4.244 -0.9540 -0.3364 -1.1362
20529SOL    HW265630   2.418   7.843   4.366 -0.2027  0.6445 -0.2709
20530SOL     OW65631   8.283   4.033   2.339 -0.1896 -0.0798  0.0426
20530SOL    HW165632   8.271   4.004   2.430 -0.4622 -0.7792 -0.2123
20530SOL    HW265633   8.330   3.961   2.297  0.3176  0.4237 -0.2727
20531SOL     OW65634   9.112   4.182   0.285  0.0511  0.2321 -0.4897
20531SOL    HW165635   9.101   4.273   0.312 -0.1659 -0.0461  0.3917
20531SOL    HW265636   9.042   4.135   0.330 -0.6360 -0.1883 -1.9428
20532SOL     OW65637   6.818   0.651   2.611 -0.9074 -0.0158  0.0891
20532SOL    HW165638   6.802   0.596   2.534 -0.1608  0.9965 -0.8210
20532SOL    HW265639   6.731   0.669   2.646 -1.5013  1.5080 -1.9669
20533SOL     OW65640   6.459   0.060   9.366  0.5402  0.5933  0.1113
20533SOL    HW165641   6.545   0.027   9.391  0.0771 -0.5684  0.2364
20533SOL    HW265642   6.441   0.129   9.429  0.1792 -1.0652  1.9183
20534SOL     OW65643   8.984   0.401  10.248  0.4317 -0.2594  0.3327
20534SOL    HW165644   8.985   0.325  10.305 -1.2248 -1.3071 -0.9193
20534SOL    HW265645   8.954   0.473  10.304 -1.4818 -1.3260  0.7779
20535SOL     OW65646   5.727   2.941   1.058  0.0934 -0.0502  0.3429
20535SOL    HW165647   5.784   2.909   1.128  0.5434 -0.7640 -0.3404
20535SOL    HW265648   5.773   2.918   0.977 -1.0610 -0.4744 -0.2155
20536SOL     OW65649   3.359   4.823   9.266 -0.2421  0.5463 -0.4574
20536SOL    HW165650   3.350   4.793   9.356 -0.1804  1.5491 -0.0939
20536SOL    HW265651   3.421   4.763   9.225  2.4618  2.0191  1.1655
20537SOL     OW65652   5.034   4.885   7.149  0.1918  0.3692 -0.6106
20537SOL    HW165653   4.957   4.941   7.153 -0.1742  0.2151 -3.3448
20537SOL    HW265654   5.077   4.909   7.067  0.8665 -2.2408 -1.1239
20538SOL     OW65655   7.014   0.084   8.737 -0.2519  0.0999 -0.4087
20538SOL    HW165656   6.995   0.171   8.702  0.0578 -0.3170 -1.6687
20538SOL    HW265657   7.085   0.051   8.681 -0.2165 -0.8735  0.1917
20539SOL     OW65658   7.251   3.797   2.082  0.5404 -0.4758  0.4395
20539SOL    HW165659   7.211   3.858   2.143  1.1491  1.0084 -0.5824
20539SOL    HW265660   7.200   3.806   2.002  1.7115  0.0223 -0.2739
20540SOL     OW65661   4.054   2.656   5.650  0.1001  0.1602  0.4685
20540SOL    HW165662   4.149   2.667   5.643  0.0206  1.3773  0.9783
20540SOL    HW265663   4.042   2.563   5.667  1.1132 -0.2432 -0.8815
20541SOL     OW65664   6.654   4.434   1.717  0.5371  0.1511 -0.2011
20541SOL    HW165665   6.626   4.349   1.750 -1.8633  0.7092 -0.5916
20541SOL    HW265666   6.649   4.492   1.792 -0.7744  0.5234 -0.5379
20542SOL     OW65667   9.435   5.579   2.088  0.2213 -0.0409  0.2270
20542SOL    HW165668   9.517   5.620   2.114  0.8393 -0.8812 -0.3308
20542SOL    HW265669   9.417   5.614   2.001 -0.2356  0.4449  0.5078
20543SOL     OW65670   3.343   7.380   1.691  0.0126 -0.3719  0.6278
20543SOL    HW165671   3.428   7.356   1.728  1.1499 -0.2981 -1.7478
20543SOL    HW265672   3.303   7.297   1.666 -0.8596 -0.4401  2.1617
20544SOL     OW65673   2.891   3.109   3.343  0.3882 -0.1242  0.2731
20544SOL    HW165674   2.886   3.087   3.436  1.0362 -0.5045  0.2266
20544SOL    HW265675   2.803   3.139   3.321  0.2556  0.0697  1.0313
20545SOL     OW65676   2.519   5.076   7.277 -0.2387 -0.2731 -0.5559
20545SOL    HW165677   2.586   5.036   7.222 -1.4539 -0.6085 -1.8626
20545SOL    HW265678   2.529   5.033   7.362 -0.0542 -1.7615 -1.2877
20546SOL     OW65679   0.637   4.265   6.905  0.2254 -0.1044 -0.5363
20546SOL    HW165680   0.606   4.307   6.985  0.1194 -0.3110 -0.4671
20546SOL    HW265681   0.610   4.173   6.914  0.4055 -0.1760 -0.7083
20547SOL     OW65682   7.977   5.548   1.382 -0.4631  0.1025  0.6137
20547SOL    HW165683   7.882   5.544   1.398 -0.4738  0.6778  0.7283
20547SOL    HW265684   8.016   5.508   1.458 -0.5847  0.9014  1.1144
20548SOL     OW65685   8.612   9.257   6.532 -0.1968  0.0026  0.2952
20548SOL    HW165686   8.620   9.352   6.534 -0.2038 -0.0032  0.7761
20548SOL    HW265687   8.559   9.236   6.609 -0.6670 -0.3453 -0.1129
20549SOL     OW65688   5.783   1.572   9.748 -0.3333 -0.0397 -0.2653
20549SOL    HW165689   5.842   1.631   9.700  0.0949  0.5218  0.9165
20549SOL    HW265690   5.797   1.487   9.707  0.5409  0.2829 -0.6809
20550SOL     OW65691   7.989   8.984   8.278  0.1071  0.3309  0.5912
20550SOL    HW165692   7.951   9.065   8.312  0.0126  0.8684 -0.7396
20550SOL    HW265693   7.914   8.926   8.265 -0.1049  0.8070 -0.4606
20551SOL     OW65694   4.543   4.434   7.629 -0.1658  0.6648 -0.1317
20551SOL    HW165695   4.457   4.461   7.664 -0.1456  0.6948 -0.1042
20551SOL    HW265696   4.525   4.351   7.585 -0.0813  0.3290  0.4611
20552SOL     OW65697   1.917   2.054   4.018  0.0568  0.4163 -0.0503
20552SOL    HW165698   1.900   2.039   4.111  2.1443 -0.9156  0.1980
20552SOL    HW265699   1.961   1.974   3.989 -0.9210  0.6206 -2.3122
20553SOL     OW65700   8.883   5.945   5.138 -0.4409  0.1067  0.1605
20553SOL    HW165701   8.867   5.873   5.077 -0.1262  1.3809 -1.5059
20553SOL    HW265702   8.851   6.023   5.092  1.4779  1.3588  0.8268
20554SOL     OW65703   8.941   5.518   6.343  0.0911 -0.1877  0.0072
20554SOL    HW165704   9.023   5.517   6.393 -0.5671 -0.3164  1.1063
20554SOL    HW265705   8.895   5.596   6.374 -0.1195  0.0100 -0.7704
20555SOL     OW65706   2.655   7.148   7.652 -0.0535  0.1412 -0.2773
20555SOL    HW165707   2.667   7.242   7.663  0.5368  0.1203 -0.6981
20555SOL    HW265708   2.740   7.110   7.675  0.1819 -0.1654 -1.5703
20556SOL     OW65709   1.823   2.698   0.322  0.2461 -0.1252 -0.2148
20556SOL    HW165710   1.769   2.776   0.310  2.3718  1.5107  0.3412
20556SOL    HW265711   1.853   2.676   0.234 -0.2580 -0.2792 -0.3544
20557SOL     OW65712   4.445   4.921   9.352  0.1493 -0.4661  0.3905
20557SOL    HW165713   4.369   4.869   9.326 -0.3851  0.7256 -0.5508
20557SOL    HW265714   4.424   5.009   9.322  1.2456  0.1973  1.4910
20558SOL     OW65715   8.827   7.798   7.089  0.4641 -0.1787 -0.2058
20558SOL    HW165716   8.833   7.890   7.062 -0.8461 -0.2844 -0.9053
20558SOL    HW265717   8.746   7.766   7.049 -0.1181 -1.1059  1.6075
20559SOL     OW65718   2.489   9.291   4.782  0.1694 -0.0074 -0.3355
20559SOL    HW165719   2.578   9.325   4.774 -0.6423  1.9131 -2.1493
20559SOL    HW265720   2.474   9.244   4.700 -0.7786  0.5365 -0.4951
20560SOL     OW65721   7.035   6.637   1.279 -0.3966 -0.1037  0.1275
20560SOL    HW165722   7.071   6.625   1.367  0.5864 -0.1762 -0.2776
20560SOL    HW265723   6.955   6.687   1.293  1.0956  2.2296  0.8358
20561SOL     OW65724   9.674   9.651   4.663  0.2657 -0.2608  0.5233
20561SOL    HW165725   9.694   9.741   4.636  0.7030  0.0845  1.9235
20561SOL    HW265726   9.581   9.640   4.641  0.7155 -0.2702 -1.6993
20562SOL     OW65727   6.825   3.346   2.685  0.1087 -0.6502 -0.3487
20562SOL    HW165728   6.751   3.286   2.684  0.1696 -0.7436  0.3272
20562SOL    HW265729   6.873   3.327   2.604  0.6535 -2.1646  0.2976
20563SOL     OW65730   8.304   0.828   4.943 -0.1218  0.3424  0.4684
20563SOL    HW165731   8.228   0.808   4.888  0.2594 -0.7087  0.2976
20563SOL    HW265732   8.266   0.868   5.021 -0.8657 -0.1701  0.3914
20564SOL     OW65733   9.956   9.786   2.089  0.0339  0.2821  0.2363
20564SOL    HW165734   9.861   9.782   2.086  0.0032 -0.9896  1.6991
20564SOL    HW265735   9.985   9.728   2.019 -0.3453 -2.2730  2.0761
20565SOL     OW65736   7.397   5.088   5.223 -0.8406  0.0117  0.2965
20565SOL    HW165737   7.332   5.136   5.274  0.7351  0.2934  2.1946
20565SOL    HW265738   7.478   5.095   5.275 -0.1013 -3.2007 -0.1998
20566SOL     OW65739   7.595   0.464   3.871  0.0933 -0.6053 -0.4705
20566SOL    HW165740   7.572   0.393   3.811  0.1582 -2.5878  1.7168
20566SOL    HW265741   7.680   0.440   3.907 -0.6686 -0.3973  1.6446
20567SOL     OW65742   1.895   7.465   8.125 -0.1817  0.1418  0.4737
20567SOL    HW165743   1.943   7.539   8.089  0.5045  0.1495  1.3771
20567SOL    HW265744   1.916   7.466   8.218 -0.1241 -1.2300  0.4864
20568SOL     OW65745   8.348   0.416   4.340  0.4379 -0.4553  0.3409
20568SOL    HW165746   8.291   0.373   4.276  1.1555  0.1026 -0.7107
20568SOL    HW265747   8.291   0.478   4.385  0.4727  1.2564 -1.8003
20569SOL     OW65748   4.577   1.160   0.352 -0.5313  0.3034 -0.7345
20569SOL    HW165749   4.651   1.215   0.376 -1.6567  1.0426  1.2944
20569SOL    HW265750   4.542   1.200   0.272  0.7749  0.3735 -1.2951
20570SOL     OW65751   9.421   4.242   8.509  0.1321  0.1726 -0.3308
20570SOL    HW165752   9.472   4.227   8.429  0.8920 -0.7154  0.3023
20570SOL    HW265753   9.477   4.298   8.563  0.0169  0.0109 -0.0405
20571SOL     OW65754   2.954   2.403   5.703  0.1995 -0.0206 -0.1281
20571SOL    HW165755   2.994   2.436   5.783 -2.0851  2.6311  0.0583
20571SOL    HW265756   2.992   2.457   5.633 -1.6778  1.3684 -0.1332
20572SOL     OW65757   2.447   7.377   7.771  0.4186 -0.1923  0.2969
20572SOL    HW165758   2.450   7.407   7.862  1.5681 -3.5834  1.5674
20572SOL    HW265759   2.531   7.404   7.734 -0.0709  1.2445  0.1713
20573SOL     OW65760   0.353   8.094   8.830  0.4129  0.0948  0.2194
20573SOL    HW165761   0.277   8.104   8.888  0.6090  0.2169  0.4608
20573SOL    HW265762   0.361   8.000   8.818 -0.9349  0.1379 -1.3758
20574SOL     OW65763   8.138   2.658   1.153  0.4902 -0.2692  0.1025
20574SOL    HW165764   8.217   2.704   1.182  0.5309 -1.4666  2.0919
20574SOL    HW265765   8.118   2.598   1.225 -1.6929 -0.6823 -0.7861
20575SOL     OW65766   7.680   9.127   2.414  0.4804 -0.5601 -0.0909
20575SOL    HW165767   7.651   9.147   2.503  0.5601 -0.8862  0.0093
20575SOL    HW265768   7.712   9.037   2.418 -0.1441 -0.8085 -0.6114
20576SOL     OW65769   9.019   6.762   0.475  0.2250  0.3735 -0.5755
20576SOL    HW165770   8.996   6.830   0.413  1.5414 -0.1806 -1.7208
20576SOL    HW265771   8.935   6.726   0.504 -0.4386 -0.3797 -3.2186
20577SOL     OW65772   2.313   6.171   7.451  0.2915 -0.0927 -0.3122
20577SOL    HW165773   2.361   6.110   7.507  0.3810 -1.3182 -1.6608
20577SOL    HW265774   2.253   6.215   7.511  0.1672 -1.5550  0.7150
20578SOL     OW65775   7.733   5.556   8.380 -0.2913  0.3556 -0.2939
20578SOL    HW165776   7.745   5.643   8.418 -1.6388  1.3319 -1.9537
20578SOL    HW265777   7.787   5.557   8.301 -0.6052 -0.1811 -0.5222
20579SOL     OW65778   0.625   5.504   8.221 -0.4252  0.4365 -0.6711
20579SOL    HW165779   0.715   5.516   8.190 -0.1913 -0.0988 -0.1965
20579SOL    HW265780   0.585   5.447   8.155 -0.5451  1.0122 -1.1060
20580SOL     OW65781   5.902   6.110   0.566 -0.2770  0.3964 -0.4014
20580SOL    HW165782   5.988   6.074   0.548  0.2178  0.1867  1.9559
20580SOL    HW265783   5.847   6.034   0.584 -0.3683  0.6060  0.2416
20581SOL     OW65784   1.861   0.571   0.834 -0.4012 -0.5668 -0.2252
20581SOL    HW165785   1.809   0.517   0.893 -0.8511  0.1779  0.0784
20581SOL    HW265786   1.852   0.660   0.868  3.2318 -0.6706  1.4553
20582SOL     OW65787   2.908   2.461   0.640  0.4406 -0.4436 -0.5436
20582SOL    HW165788   2.970   2.506   0.582  1.8670  0.3913  1.5183
20582SOL    HW265789   2.944   2.473   0.728 -2.3070 -0.5545  0.6882
20583SOL     OW65790   3.696   8.019   1.156 -0.0791  0.3087  0.3618
20583SOL    HW165791   3.783   7.985   1.176 -0.3140 -0.4762  0.0951
20583SOL    HW265792   3.689   8.100   1.207  0.6220  0.1300  0.7521
20584SOL     OW65793   5.711   1.542  10.257  0.3127  0.5331  0.0369
20584SOL    HW165794   5.766   1.512  10.185  1.9330  0.9551  1.0644
20584SOL    HW265795   5.764   1.606  10.304 -0.6861  0.2499  1.6372
20585SOL     OW65796   1.495   6.611   8.307 -0.4202  0.4524 -0.5654
20585SOL    HW165797   1.552   6.612   8.384 -0.6059  0.2573 -0.4263
20585SOL    HW265798   1.458   6.699   8.304 -0.3255  0.4961 -0.4984
20586SOL     OW65799   6.886   6.293   7.982 -0.0777  0.2675  0.6538
20586SOL    HW165800   6.794   6.275   8.001  0.1638  0.3908  1.9785
20586SOL    HW265801   6.886   6.382   7.946 -0.6402 -0.3216 -0.9268
20587SOL     OW65802   8.366   7.096   4.854 -0.4425 -0.4871 -0.6533
20587SOL    HW165803   8.360   7.021   4.913  0.4708  0.8298  1.2022
20587SOL    HW265804   8.444   7.078   4.800  0.6241 -0.2522  0.7566
20588SOL     OW65805   9.246   8.870  10.113 -0.1613  0.1506 -0.1578
20588SOL    HW165806   9.341   8.879  10.103  0.1015 -0.6786  1.2280
20588SOL    HW265807   9.228   8.908  10.199 -0.9884 -0.2211 -0.1577
20589SOL     OW65808   4.365   9.634   8.569  0.6813 -0.0506 -0.0120
20589SOL    HW165809   4.412   9.552   8.574  0.1354 -0.4410 -0.9611
20589SOL    HW265810   4.330   9.647   8.657  2.6228  0.3213  0.7504
20590SOL     OW65811   9.518   1.774   7.254  0.3061  0.3091  0.4629
20590SOL    HW165812   9.576   1.752   7.326  1.7005 -0.0964 -0.7456
20590SOL    HW265813   9.525   1.870   7.246  0.3825  0.3191  0.6496
20591SOL     OW65814   8.997   6.983   4.097  0.2754  0.1122 -0.0315
20591SOL    HW165815   8.953   6.938   4.025 -1.7378  0.0053  1.1849
20591SOL    HW265816   9.081   7.010   4.061 -1.2092  1.3537 -2.8714
20592SOL     OW65817   6.421   0.275   4.569 -0.2803  0.3988 -0.4074
20592SOL    HW165818   6.331   0.303   4.585  0.1371  1.8621 -0.4763
20592SOL    HW265819   6.427   0.188   4.609 -1.8774  0.0231 -0.9085
20593SOL     OW65820   9.180   5.894   4.139  0.5014 -0.3459 -0.1820
20593SOL    HW165821   9.179   5.974   4.192  0.1045  0.3386 -1.1698
20593SOL    HW265822   9.089   5.867   4.133  0.8792 -2.6904  2.6798
20594SOL     OW65823   1.155   0.892  10.252  0.2955 -0.4584 -0.2390
20594SOL    HW165824   1.092   0.820  10.253 -1.6550  1.1188 -1.7510
20594SOL    HW265825   1.201   0.884  10.168  1.7516 -1.2200  0.5784
20595SOL     OW65826   6.672   0.967   2.907  0.0925 -0.4540 -1.0256
20595SOL    HW165827   6.675   0.915   2.987  0.1044 -1.7676 -1.8647
20595SOL    HW265828   6.587   1.012   2.911  0.7642  0.8068  0.4880
20596SOL     OW65829   3.372   6.314   8.990 -0.1008 -0.0113  0.3928
20596SOL    HW165830   3.285   6.276   8.975  0.1248 -0.7626  0.8962
20596SOL    HW265831   3.357   6.386   9.050 -0.4873  0.4467 -0.2384
20597SOL     OW65832   4.455   1.722   4.469  0.1912  0.6358 -0.1495
20597SOL    HW165833   4.478   1.748   4.379  0.3926  1.6129  0.1733
20597SOL    HW265834   4.451   1.627   4.465 -1.7370  0.7234 -1.6504
20598SOL     OW65835   2.673   0.626   7.522  0.5175 -0.2017 -0.1169
20598SOL    HW165836   2.762   0.656   7.501  1.0704 -1.1596  0.7432
20598SOL    HW265837   2.686   0.537   7.557 -0.8839 -0.8041 -1.0296
20599SOL     OW65838   0.110   0.642   9.416  0.2782  0.0386  0.0909
20599SOL    HW165839   0.034   0.624   9.471  0.4342  2.1796  1.1104
20599SOL    HW265840   0.109   0.737   9.405  2.6558  0.0915 -0.0820
20600SOL     OW65841   1.062   3.738   4.591 -0.3947  0.0371 -0.7204
20600SOL    HW165842   1.018   3.715   4.673 -0.1324  2.2443  0.1275
20600SOL    HW265843   1.012   3.814   4.559  0.1921 -0.1095 -2.0238
20601SOL     OW65844   2.278   5.590   2.674 -0.0927 -0.4761  0.1045
20601SOL    HW165845   2.258   5.654   2.742 -1.3749  0.3084 -0.9621
20601SOL    HW265846   2.318   5.641   2.603 -0.8158 -0.8987 -0.6241
20602SOL     OW65847   7.028   2.845   9.253  0.4687 -0.6283  0.1710
20602SOL    HW165848   7.098   2.867   9.314  0.3341  1.0292 -0.2158
20602SOL    HW265849   6.976   2.925   9.245 -2.3952 -2.1598  1.5751
20603SOL     OW65850   2.083   9.708   1.440  0.1006 -0.1893 -0.4934
20603SOL    HW165851   2.052   9.777   1.381  0.4482  1.6874  1.4109
20603SOL    HW265852   2.177   9.720   1.445  0.3341 -1.5985 -1.0486
20604SOL     OW65853   2.874   1.477   8.431 -0.0299 -0.6510  0.2849
20604SOL    HW165854   2.890   1.453   8.340  0.3204  0.6183 -0.0005
20604SOL    HW265855   2.961   1.499   8.465 -0.3170  0.1084  0.5539
20605SOL     OW65856   7.850   2.826   7.550  0.0243 -0.0706 -0.0974
20605SOL    HW165857   7.759   2.799   7.557 -0.0792  0.4702  0.7644
20605SOL    HW265858   7.853   2.912   7.591  0.7063  0.4184 -1.1298
20606SOL     OW65859   8.106   8.467   7.285  0.1246  0.2614  0.0698
20606SOL    HW165860   8.043   8.517   7.336  0.2376  1.5535 -0.9923
20606SOL    HW265861   8.145   8.406   7.347 -0.2060  1.3323  1.3736
20607SOL     OW65862   0.864   0.399   8.615 -0.0473 -0.2093  0.3288
20607SOL    HW165863   0.819   0.330   8.664  0.1085  0.3134  1.2321
20607SOL    HW265864   0.794   0.459   8.587 -0.3792 -1.4819 -1.7774
20608SOL     OW65865   5.983   8.539   8.647  0.0172  0.0461  0.0809
20608SOL    HW165866   6.034   8.559   8.569 -3.1312  0.7358 -1.9758
20608SOL    HW265867   5.978   8.443   8.648 -1.0892  0.0614 -1.4366
20609SOL     OW65868   7.062   7.160   5.457  0.4713  0.3239 -0.2036
20609SOL    HW165869   7.053   7.109   5.537  0.2711  1.1888  0.3440
20609SOL    HW265870   7.151   7.193   5.458  0.7423 -0.3653 -0.7822
20610SOL     OW65871   0.603   9.260   0.734  0.5949 -0.4324 -0.1659
20610SOL    HW165872   0.605   9.169   0.761  0.5471 -0.5814 -0.6465
20610SOL    HW265873   0.619   9.310   0.814 -0.8025 -0.8130  0.3768
20611SOL     OW65874   2.151   9.559   2.685  0.5296 -0.3842 -0.2015
20611SOL    HW165875   2.081   9.527   2.743 -0.5005  1.1877 -0.5207
20611SOL    HW265876   2.104   9.598   2.611  1.7278  1.1208 -0.2096
20612SOL     OW65877   9.442   7.303   3.549 -0.0423  0.3324 -0.0721
20612SOL    HW165878   9.498   7.273   3.621 -1.7081 -0.8338  0.7892
20612SOL    HW265879   9.472   7.253   3.474 -1.1475 -1.7475  0.8118
20613SOL     OW65880   7.876   1.244   7.212  0.3352 -0.4429 -0.1445
20613SOL    HW165881   7.844   1.271   7.298 -0.5074 -0.9517 -0.2947
20613SOL    HW265882   7.801   1.203   7.170  0.7888 -0.3545 -1.0630
20614SOL     OW65883   2.361   7.768   6.436 -0.0894  0.2958  0.5568
20614SOL    HW165884   2.439   7.791   6.387 -0.3616  0.7402  0.3303
20614SOL    HW265885   2.390   7.763   6.527  0.1620  0.6506  0.4951
20615SOL     OW65886   1.160   0.026   4.231 -0.4636 -0.3880  0.2661
20615SOL    HW165887   1.117   0.001   4.313  0.8347 -0.9833  0.7946
20615SOL    HW265888   1.156   0.122   4.230 -1.1743 -0.4098  0.6426
20616SOL     OW65889   4.607   1.016   5.500 -0.5552 -0.1807 -0.2670
20616SOL    HW165890   4.560   1.052   5.575 -0.0161  0.2531 -0.1330
20616SOL    HW265891   4.571   1.063   5.424  0.9436  1.5096  0.0136
20617SOL     OW65892   8.424   0.964   0.753  0.4562  0.0777  0.0301
20617SOL    HW165893   8.456   1.054   0.764 -2.0159  1.0469 -0.0632
20617SOL    HW265894   8.406   0.956   0.659 -0.6009 -0.0046  0.2226
20618SOL     OW65895   0.198   4.293   4.374  0.0875  0.0011  0.0867
20618SOL    HW165896   0.108   4.283   4.341 -0.5925  0.5460  1.6490
20618SOL    HW265897   0.225   4.379   4.341  0.3911 -0.5274 -1.1079
20619SOL     OW65898   0.845   6.516   2.006 -0.4129 -0.0514  0.0498
20619SOL    HW165899   0.854   6.602   2.047  2.9109 -0.2760  0.0824
20619SOL    HW265900   0.879   6.455   2.072  2.3626 -0.7324 -1.8492
20620SOL     OW65901   8.220   8.144   0.302  0.3520 -0.2359 -0.5050
20620SOL    HW165902   8.236   8.077   0.368  2.3474 -0.0907 -0.7805
20620SOL    HW265903   8.304   8.153   0.256 -0.5649  0.7067 -2.0887
20621SOL     OW65904   2.497   5.776  10.154 -0.4096 -0.2270  0.5759
20621SOL    HW165905   2.435   5.708  10.126  0.7627 -0.8167 -0.6884
20621SOL    HW265906   2.455   5.858  10.127 -1.4522 -0.4857  1.3563
20622SOL     OW65907   1.494   4.479   4.021  0.6663  0.0169  0.1641
20622SOL    HW165908   1.587   4.496   4.002  0.5142  2.2395  1.0917
20622SOL    HW265909   1.487   4.491   4.116 -0.4989 -0.5229  0.1579
20623SOL     OW65910   0.226  10.006   7.001 -0.1291 -0.4385 -0.7580
20623SOL    HW165911   0.142   9.969   7.028 -0.9345  0.7243 -1.5568
20623SOL    HW265912   0.291   9.959   7.054 -1.2057 -1.8585 -0.6239
20624SOL     OW65913   0.993   7.732   8.941  0.1603  0.0660 -0.1228
20624SOL    HW165914   0.974   7.740   9.035  1.8941  0.3508  0.2419
20624SOL    HW265915   0.936   7.796   8.900  0.8767  1.4714  0.9736
20625SOL     OW65916   6.209   9.756   2.917  0.1642  0.5058 -0.2050
20625SOL    HW165917   6.295   9.799   2.920  0.5328 -0.2373  0.3670
20625SOL    HW265918   6.150   9.816   2.962  0.2920  1.2143 -0.9642
20626SOL     OW65919   5.594  10.133   6.691  0.2938 -0.1002  0.0377
20626SOL    HW165920   5.579  10.108   6.599  0.7141 -2.8833  0.6516
20626SOL    HW265921   5.679  10.179   6.689  1.4177 -2.0763 -0.7289
20627SOL     OW65922   1.278   3.319   2.294  0.5756  0.1133 -0.2119
20627SOL    HW165923   1.328   3.333   2.214 -0.4745 -0.3652 -0.9849
20627SOL    HW265924   1.276   3.223   2.305 -0.4823  0.1028 -0.4139
20628SOL     OW65925   6.984   4.571   9.630  0.1117 -0.5381 -0.1246
20628SOL    HW165926   6.980   4.521   9.711  0.3106  1.4740  1.1916
20628SOL    HW265927   7.040   4.646   9.650 -2.1109  1.5577 -1.1942
20629SOL     OW65928   1.100   1.975   2.054  0.1365  0.3549 -0.1096
20629SOL    HW165929   1.099   2.045   2.120 -1.1702 -0.0907  0.3761
20629SOL    HW265930   1.060   2.015   1.977  0.7034  0.5569 -0.3076
20630SOL     OW65931   2.313   1.476   6.424  0.0153  0.0191  0.2770
20630SOL    HW165932   2.287   1.568   6.431  0.7083  0.1472  1.3933
20630SOL    HW265933   2.397   1.472   6.469 -1.0563 -1.5882  2.2655
20631SOL     OW65934   3.475   9.357   8.588 -0.3792  0.0228  0.5395
20631SOL    HW165935   3.390   9.314   8.574 -0.2940  0.4768 -1.6193
20631SOL    HW265936   3.539   9.294   8.555  0.0531  0.1824  1.0654
20632SOL     OW65937   2.855   5.843   2.496  0.2381  0.0038  0.2306
20632SOL    HW165938   2.822   5.875   2.580  1.4191  1.2566  0.2508
20632SOL    HW265939   2.810   5.895   2.430 -2.0576 -2.1957 -0.0864
20633SOL     OW65940   0.287   7.851   0.192 -0.2362 -0.6022  0.0944
20633SOL    HW165941   0.337   7.888   0.265 -0.6514 -0.9496  0.5583
20633SOL    HW265942   0.281   7.758   0.211 -1.2064 -0.5403  0.1350
20634SOL     OW65943   0.131   6.429   0.390  0.5769 -0.0229  0.8490
20634SOL    HW165944   0.063   6.362   0.377  1.4056 -0.6405 -0.5536
20634SOL    HW265945   0.090   6.511   0.364  0.2196 -0.3258  0.4402
20635SOL     OW65946   1.017   5.287   1.889 -0.2496  0.6651  0.1066
20635SOL    HW165947   1.082   5.281   1.819 -0.6262  0.9870 -0.2813
20635SOL    HW265948   1.068   5.284   1.970  0.1977  0.3305 -0.1793
20636SOL     OW65949   7.423   1.048   6.462  0.4994  0.1429  0.6488
20636SOL    HW165950   7.375   1.122   6.426  2.9130  0.9940 -1.0772
20636SOL    HW265951   7.482   1.086   6.527  2.2842 -0.0535 -0.7668
20637SOL     OW65952   2.576   2.246   6.914 -0.1843  0.4060 -0.1968
20637SOL    HW165953   2.511   2.182   6.945 -1.0961  1.6117  0.4421
20637SOL    HW265954   2.534   2.286   6.838  0.3606  0.3016 -0.5549
20638SOL     OW65955   6.270   0.281   7.023  0.4239  0.6148  0.2630
20638SOL    HW165956   6.270   0.257   6.930  0.7287  0.8034  0.2129
20638SOL    HW265957   6.292   0.374   7.024  1.5560  0.3615  0.5818
20639SOL     OW65958   6.600   4.654   9.500 -0.5452 -0.0066  0.4115
20639SOL    HW165959   6.552   4.646   9.583 -1.6324 -0.9139 -0.2855
20639SOL    HW265960   6.621   4.748   9.494 -1.6878  0.3097  1.0384
20640SOL     OW65961   1.956   3.530   1.066 -0.7249 -0.1842  0.3240
20640SOL    HW165962   1.984   3.579   0.988  0.9175 -0.3486  0.7892
20640SOL    HW265963   1.860   3.527   1.058 -0.6283  0.1879 -1.4487
20641SOL     OW65964   6.880   6.584   7.888  0.4038  0.0557 -0.2790
20641SOL    HW165965   6.950   6.604   7.826  1.7998  1.3792  1.6026
20641SOL    HW265966   6.904   6.631   7.968 -2.5377  0.3815  0.5409
20642SOL     OW65967   9.817   7.477   0.855 -0.0663  0.0513  0.1884
20642SOL    HW165968   9.802   7.387   0.884 -0.4984 -0.2052 -0.8273
20642SOL    HW265969   9.859   7.519   0.931  0.1641 -1.0012  0.6655
20643SOL     OW65970   3.347   5.739   4.260 -0.4312 -0.2697 -0.0574
20643SOL    HW165971   3.429   5.694   4.237 -0.1838  0.1487 -0.0075
20643SOL    HW265972   3.315   5.691   4.337  0.7438  0.7038  1.0793
20644SOL     OW65973   9.003   7.784   9.612  0.0328  0.7117  0.2182
20644SOL    HW165974   9.075   7.787   9.548  0.1549 -0.2399  0.2899
20644SOL    HW265975   9.022   7.707   9.665 -0.6073  0.9249  0.7705
20645SOL     OW65976   0.981   3.111   2.026  0.0640 -0.1734  0.1787
20645SOL    HW165977   0.973   3.096   2.120 -0.6739 -1.5070 -0.0775
20645SOL    HW265978   0.890   3.120   1.996  0.1310 -2.2239 -0.7639
20646SOL     OW65979  10.011   7.167   4.206 -0.1405  0.5464  0.2731
20646SOL    HW165980   9.946   7.106   4.171 -0.6295  1.4265 -0.4071
20646SOL    HW265981   9.972   7.201   4.287 -0.1876  0.5014  0.2687
20647SOL     OW65982   2.903   1.231   1.249 -0.9005  0.0571  0.0291
20647SOL    HW165983   2.881   1.174   1.175 -0.2282  0.0519 -0.1763
20647SOL    HW265984   2.823   1.235   1.301 -1.6235  0.6609 -1.0810
20648SOL     OW65985   6.792   7.843   5.531 -0.4909 -0.5660  0.1870
20648SOL    HW165986   6.837   7.897   5.597 -0.0022  1.1446 -1.4572
20648SOL    HW265987   6.861   7.789   5.493  0.1027  1.3518 -1.6488
20649SOL     OW65988   6.934   1.455   4.795 -0.1923 -0.2933  0.3457
20649SOL    HW165989   6.949   1.361   4.785 -0.8753 -0.4684  0.8495
20649SOL    HW265990   6.951   1.492   4.709  3.0402 -0.4314  0.7957
20650SOL     OW65991   1.203   4.621   3.250 -0.4149 -0.4224  0.0181
20650SOL    HW165992   1.223   4.550   3.311  0.3929  0.4282  0.7838
20650SOL    HW265993   1.142   4.583   3.187  1.7553 -2.4610 -0.9652
20651SOL     OW65994   0.815   0.185   9.496  0.1642 -0.3676  0.5208
20651SOL    HW165995   0.828   0.157   9.405 -1.7981 -0.6298  0.2866
20651SOL    HW265996   0.797   0.278   9.490 -1.3650 -0.6435  0.4664
20652SOL     OW65997  10.240   6.267   5.961  0.3987  0.3153 -0.4365
20652SOL    HW165998  10.287   6.278   6.043 -2.3169  0.9331  1.1340
20652SOL    HW265999  10.221   6.173   5.957 -2.7651  0.7018  1.7455
20653SOL     OW66000   5.682   8.181   1.141 -0.6086 -0.2115  0.0857
20653SOL    HW166001   5.619   8.253   1.139  0.2842  0.6607  1.5937
20653SOL    HW266002   5.635   8.109   1.184 -1.0245 -0.0351 -0.0660
20654SOL     OW66003   7.303   9.389   3.443 -0.2203 -0.0036  0.5227
20654SOL    HW166004   7.290   9.473   3.398 -1.4932 -0.8066 -0.7042
20654SOL    HW266005   7.372   9.346   3.393 -2.1446 -1.2089 -1.2462
20655SOL     OW66006   4.010   3.770   2.745  0.2046 -0.4681  0.0752
20655SOL    HW166007   4.104   3.763   2.755  0.2947  0.5759  0.0873
20655SOL    HW266008   3.974   3.706   2.806  0.8796  0.6358  1.6928
20656SOL     OW66009   2.228   5.600   8.787 -0.2158 -0.0892  0.2955
20656SOL    HW166010   2.248   5.549   8.865 -0.3017 -0.8071 -0.1452
20656SOL    HW266011   2.293   5.572   8.722 -0.1745  0.4631  0.0921
20657SOL     OW66012   6.809   8.670   8.100 -0.4276  0.4546  0.5790
20657SOL    HW166013   6.725   8.625   8.089 -1.0174  1.5078  0.5580
20657SOL    HW266014   6.830   8.660   8.192 -0.4877  0.0332  0.5486
20658SOL     OW66015   8.256   1.737   9.695  1.0503 -0.1558 -0.1247
20658SOL    HW166016   8.250   1.770   9.784  1.0402  1.8177 -0.8083
20658SOL    HW266017   8.347   1.754   9.670  1.2440 -1.3312 -0.2861
20659SOL     OW66018   9.261   5.075   6.008 -0.2570 -0.2010  0.6955
20659SOL    HW166019   9.288   4.989   5.976 -0.3988 -0.1715  0.4980
20659SOL    HW266020   9.218   5.057   6.092 -0.7316 -0.3777  0.4210
20660SOL     OW66021   0.912   6.296   8.736 -0.0141 -0.4788 -0.2261
20660SOL    HW166022   0.853   6.262   8.669  0.2052 -1.3631  0.0163
20660SOL    HW266023   0.945   6.218   8.781 -1.8109  0.1186  2.3465
20661SOL     OW66024   6.528   4.395   3.242 -0.2831 -0.1939 -0.5509
20661SOL    HW166025   6.519   4.307   3.279  0.4066 -0.6794 -1.4946
20661SOL    HW266026   6.443   4.414   3.203 -0.8714  0.1333  0.8165
20662SOL     OW66027   3.506   5.069   4.963  0.4415 -0.0699  0.1320
20662SOL    HW166028   3.547   5.004   5.020  0.8808  1.2322  1.3796
20662SOL    HW266029   3.503   5.149   5.016 -0.4573  0.8297 -1.1909
20663SOL     OW66030   1.773   6.247   0.486  0.1250  0.0405 -0.1782
20663SOL    HW166031   1.706   6.309   0.457 -0.2500 -0.5853 -0.6542
20663SOL    HW266032   1.754   6.234   0.579  0.5061  1.0034  0.0526
20664SOL     OW66033   6.379   5.958   8.101 -0.1331  0.0962  0.5419
20664SOL    HW166034   6.355   6.041   8.144 -1.3103  0.6316 -1.0436
20664SOL    HW266035   6.310   5.897   8.126 -1.3873  0.6819 -1.2594
20665SOL     OW66036   4.647   8.036   4.973 -0.8159 -0.5431  0.4049
20665SOL    HW166037   4.574   8.045   5.034  0.3720 -3.2297  2.4542
20665SOL    HW266038   4.638   7.947   4.938 -0.6094  0.4164 -2.3085
20666SOL     OW66039   5.519   3.045   4.023 -0.5460 -0.3797 -0.5533
20666SOL    HW166040   5.475   2.983   3.966  0.4866 -0.1904 -1.5922
20666SOL    HW266041   5.551   3.113   3.964  1.3842 -0.6680  0.1040
20667SOL     OW66042   9.895   7.191   5.860  0.2732  0.5195 -0.3682
20667SOL    HW166043   9.959   7.120   5.865 -0.8100 -0.4804 -0.3043
20667SOL    HW266044   9.815   7.155   5.899 -0.6663  1.3522 -1.4220
20668SOL     OW66045   1.390   4.019   3.704 -0.6959  0.0859 -0.1318
20668SOL    HW166046   1.328   4.013   3.778 -1.6994 -2.1754 -1.0566
20668SOL    HW266047   1.390   3.931   3.666  4.1667 -0.4822  0.5731
20669SOL     OW66048   8.895   0.681   7.902 -0.3133  0.3193  0.2647
20669SOL    HW166049   8.989   0.679   7.882 -0.1544 -0.0317  1.0335
20669SOL    HW266050   8.884   0.760   7.955 -0.0565 -0.7852  2.0353
20670SOL     OW66051   7.239   8.617   8.554 -0.1573  0.0704 -0.2831
20670SOL    HW166052   7.225   8.544   8.614  1.2116  0.7322  0.9115
20670SOL    HW266053   7.163   8.674   8.566  0.6422  0.7876  1.7803
20671SOL     OW66054   1.960   3.400   4.554  0.1478 -0.1526 -0.3285
20671SOL    HW166055   1.946   3.319   4.505 -1.0068 -0.5537  0.6110
20671SOL    HW266056   2.008   3.457   4.494 -2.6243  0.0010 -2.5707
20672SOL     OW66057   8.009   3.708   8.185 -0.1462  0.2302 -0.0840
20672SOL    HW166058   7.917   3.698   8.210 -0.2078  1.6516  0.3281
20672SOL    HW266059   8.056   3.651   8.246 -0.8134 -1.6316 -1.1988
20673SOL     OW66060   4.045   0.366   6.845  0.2641 -0.2606 -0.7695
20673SOL    HW166061   4.029   0.350   6.939 -2.4867  0.1070 -1.1069
20673SOL    HW266062   4.056   0.278   6.808 -0.9620 -0.5888 -0.4235
20674SOL     OW66063   9.311   5.382   2.675 -0.1720 -0.2637  0.5686
20674SOL    HW166064   9.385   5.325   2.696  0.8635  1.1132  0.8397
20674SOL    HW266065   9.349   5.451   2.621 -1.1916  0.6435  0.9667
20675SOL     OW66066   4.623   8.015   0.185  0.2622 -0.3915  0.0060
20675SOL    HW166067   4.704   7.985   0.226  2.4784  1.2433 -2.8163
20675SOL    HW266068   4.632   7.991   0.093 -1.1068  2.3743 -0.9784
20676SOL     OW66069   1.847   6.185  10.119 -0.3015  0.5097 -0.1745
20676SOL    HW166070   1.890   6.100  10.130 -0.9073  0.3650  1.4595
20676SOL    HW266071   1.754   6.168  10.135 -0.3868  1.5185  0.5667
20677SOL     OW66072   8.382   3.796   0.588  0.0031  0.4232  0.0067
20677SOL    HW166073   8.440   3.871   0.573  0.4207  0.4422  1.5219
20677SOL    HW266074   8.434   3.720   0.563 -0.9307  0.6411 -2.9873
20678SOL     OW66075   6.090   5.476   8.807  0.3990 -0.5409 -0.4456
20678SOL    HW166076   6.141   5.494   8.728  0.9799  1.1630  0.2603
20678SOL    HW266077   6.007   5.441   8.775  0.7139 -0.1032 -1.8041
20679SOL     OW66078   7.398   2.572   9.187  0.2300 -0.5440  0.2710
20679SOL    HW166079   7.396   2.480   9.212  1.4683 -0.2202  1.7009
20679SOL    HW266080   7.478   2.583   9.137 -0.9410 -0.6215 -1.7516
20680SOL     OW66081   4.651   2.494   7.746  0.0111  0.7287  0.0569
20680SOL    HW166082   4.608   2.443   7.677  0.2876  0.5857 -0.0084
20680SOL    HW266083   4.609   2.465   7.827  0.1202  0.4504  0.0134
20681SOL     OW66084   9.341   6.049   9.011 -0.1003  0.0602 -0.3715
20681SOL    HW166085   9.282   6.116   8.977  1.7198  1.5976 -0.7263
20681SOL    HW266086   9.373   6.003   8.934 -0.8314 -0.8068 -0.1776
20682SOL     OW66087   1.801   7.612   3.376  0.4785 -0.0656 -0.6806
20682SOL    HW166088   1.743   7.658   3.438 -0.2879  0.7161 -1.9404
20682SOL    HW266089   1.776   7.645   3.290  1.2766 -1.4055 -1.4652
20683SOL     OW66090   9.360   3.003   3.431 -0.5107  0.3324  0.3679
20683SOL    HW166091   9.429   3.064   3.459 -0.5490  0.0469  1.1162
20683SOL    HW266092   9.341   2.951   3.509 -1.9506  0.7551  0.3198
20684SOL     OW66093   7.562   6.120   5.788  0.2740 -0.3731  0.0764
20684SOL    HW166094   7.641   6.087   5.831  1.2268 -0.8316 -1.9232
20684SOL    HW266095   7.493   6.061   5.816  0.7540 -0.3733  1.3235
20685SOL     OW66096   6.066   6.442   3.032  0.2341  0.1206 -0.3625
20685SOL    HW166097   6.150   6.457   3.074 -0.4370  0.7108  0.8063
20685SOL    HW266098   6.085   6.377   2.964  1.9917  1.5776 -1.3849
20686SOL     OW66099   0.737   8.562   4.382  0.6039  0.2222  0.0360
20686SOL    HW166100   0.766   8.581   4.471  0.5842 -0.5048  0.2010
20686SOL    HW266101   0.664   8.501   4.392  1.2245 -0.6368 -0.5101
20687SOL     OW66102   5.910   8.682  10.118  0.4044 -0.4086 -0.7685
20687SOL    HW166103   5.960   8.763  10.118  0.9599 -0.7497 -0.5206
20687SOL    HW266104   5.966   8.618  10.074  0.6546 -1.0723  0.4685
20688SOL     OW66105   4.145   0.685   7.705  0.1721 -0.2569  0.1596
20688SOL    HW166106   4.120   0.600   7.669 -0.6932 -0.2697  0.7340
20688SOL    HW266107   4.237   0.676   7.729  0.4733 -0.5675 -1.0869
20689SOL     OW66108   4.239   3.913   6.050 -0.3377 -0.3705  0.0303
20689SOL    HW166109   4.195   3.908   5.965  0.3764  1.5845 -0.5091
20689SOL    HW266110   4.225   4.004   6.078  1.0296 -0.4768  1.1222
20690SOL     OW66111   8.346   3.988   8.225  0.4695 -0.1419 -0.0340
20690SOL    HW166112   8.332   3.911   8.281  1.3742 -0.2867  0.0007
20690SOL    HW266113   8.294   3.971   8.147 -0.7674  0.0275  0.7066
20691SOL     OW66114   0.425   7.951   6.841 -0.0246 -0.2033 -0.1115
20691SOL    HW166115   0.337   7.916   6.857 -0.8374  1.3334 -0.9684
20691SOL    HW266116   0.436   8.017   6.909 -0.1018  0.5584 -0.8286
20692SOL     OW66117   8.411   2.695   4.766  0.1432  0.0018  0.3484
20692SOL    HW166118   8.384   2.754   4.836 -2.0914  1.5447 -1.6199
20692SOL    HW266119   8.348   2.622   4.770 -0.5165  0.5010 -0.4781
20693SOL     OW66120   5.399   0.908   4.577 -0.0190  0.1703  0.8352
20693SOL    HW166121   5.416   1.000   4.595 -1.7156  0.4512  1.1580
20693SOL    HW266122   5.324   0.885   4.633 -1.8118 -0.4573 -1.6188
20694SOL     OW66123   8.625   7.428   6.204  0.0215  0.0827 -0.0139
20694SOL    HW166124   8.546   7.390   6.165 -0.7646  2.3371 -0.7433
20694SOL    HW266125   8.598   7.453   6.292  0.3057 -0.2955  0.1833
20695SOL     OW66126   6.233   2.726   9.670 -0.0974  0.6536 -0.0520
20695SOL    HW166127   6.304   2.790   9.671 -1.3517  2.1795  1.9127
20695SOL    HW266128   6.257   2.663   9.738  0.0727  0.3080 -0.4295
20696SOL     OW66129   4.040   0.434   2.353  0.0820 -0.4259 -0.5645
20696SOL    HW166130   4.055   0.425   2.259 -0.2433  0.3023 -0.6989
20696SOL    HW266131   3.966   0.495   2.359 -0.8292 -1.5659  0.1395
20697SOL     OW66132   2.440   0.464   6.454 -0.4521  0.6699  0.2866
20697SOL    HW166133   2.345   0.453   6.444 -0.4683  0.7292  0.3694
20697SOL    HW266134   2.449   0.543   6.507 -0.3258  1.3679 -0.7571
20698SOL     OW66135   4.696   2.438   2.872  0.4916  0.2609 -0.0650
20698SOL    HW166136   4.725   2.432   2.781 -0.4079  1.0132 -0.4173
20698SOL    HW266137   4.648   2.520   2.877 -1.4479 -0.8343  0.5052
20699SOL     OW66138   1.902   8.814   9.352 -0.2876 -0.2603 -0.4770
20699SOL    HW166139   1.926   8.885   9.293 -1.4443 -0.3768 -1.1118
20699SOL    HW266140   1.867   8.859   9.430 -1.4088 -0.1036 -1.0435
20700SOL     OW66141   5.490   2.847   9.537 -0.1007 -0.1348 -0.3694
20700SOL    HW166142   5.491   2.940   9.559  1.0468  0.1545 -1.5015
20700SOL    HW266143   5.523   2.803   9.615 -1.1680  0.3496  0.3642
20701SOL     OW66144   7.359   7.140   1.168 -0.0400  0.2178  0.4109
20701SOL    HW166145   7.410   7.171   1.093 -0.6061 -1.5351 -0.7773
20701SOL    HW266146   7.404   7.175   1.244 -0.2203  3.2237 -0.7440
20702SOL     OW66147  10.061   4.422   3.879 -0.1054  0.3986  0.0437
20702SOL    HW166148  10.097   4.508   3.903  1.5327  0.4879 -2.3764
20702SOL    HW266149   9.981   4.443   3.831 -1.4182  0.3625  2.0912
20703SOL     OW66150   4.620   5.582   8.192 -0.0001  0.1488 -0.0623
20703SOL    HW166151   4.553   5.602   8.257  0.7155  0.3807  0.6151
20703SOL    HW266152   4.589   5.624   8.112 -0.4286  0.6566  0.3668
20704SOL     OW66153   0.141   3.425   4.461 -0.0704  0.1556  0.6979
20704SOL    HW166154   0.083   3.449   4.533 -0.6001  0.2314  0.2539
20704SOL    HW266155   0.135   3.329   4.457 -2.7252  0.3078 -1.3907
20705SOL     OW66156   6.782   5.787   5.677 -0.5234  0.1179  0.2303
20705SOL    HW166157   6.845   5.757   5.743 -1.7941  0.6831  1.7924
20705SOL    HW266158   6.806   5.741   5.597  2.6980  1.3424  0.3761
20706SOL     OW66159   9.822   5.424   4.346 -0.6745 -0.0660 -0.1238
20706SOL    HW166160   9.862   5.346   4.306  0.4774  0.8204 -0.7474
20706SOL    HW266161   9.895   5.472   4.384 -1.3239  0.8910 -0.0455
20707SOL     OW66162   8.362   6.390   2.581  0.2651  0.1757  0.1734
20707SOL    HW166163   8.294   6.414   2.644  1.0449  2.2993  0.2678
20707SOL    HW266164   8.443   6.424   2.618  1.3714 -1.9842 -0.1278
20708SOL     OW66165   5.269   7.300   4.795 -0.6031  0.9629  0.0739
20708SOL    HW166166   5.340   7.253   4.838 -0.4584  0.2639 -0.8766
20708SOL    HW266167   5.197   7.298   4.858 -1.1233 -1.9374 -0.4690
20709SOL     OW66168   4.571  10.053  10.276 -0.0845 -0.5434  0.0562
20709SOL    HW166169   4.533   9.968  10.254  1.2548 -1.3747  0.8382
20709SOL    HW266170   4.639  10.067  10.210 -1.7856  1.0419 -1.4726
20710SOL     OW66171   0.639   5.099   7.515 -0.1086 -0.3231  0.2656
20710SOL    HW166172   0.732   5.090   7.496  0.7584  1.0441  3.2012
20710SOL    HW266173   0.615   5.184   7.479 -0.3111 -0.7737 -0.6889
20711SOL     OW66174   4.488   5.050   5.064  0.0417 -0.4375 -0.6645
20711SOL    HW166175   4.487   4.955   5.067  0.6720 -0.4626 -1.0031
20711SOL    HW266176   4.563   5.071   5.009 -0.0234  0.2574 -0.4956
20712SOL     OW66177   2.108   1.834   1.110  0.0401 -0.3057 -0.0796
20712SOL    HW166178   2.129   1.839   1.203  1.2932  0.7385 -0.3855
20712SOL    HW266179   2.080   1.923   1.087  0.3118 -0.4029 -0.8246
20713SOL     OW66180   2.517   3.991   9.701  0.1326  0.2293  0.2987
20713SOL    HW166181   2.564   4.065   9.740  0.3086  0.1512  0.2385
20713SOL    HW266182   2.426   4.020   9.694  0.4151  0.9026 -0.8554
20714SOL     OW66183   0.115   0.903   8.160 -0.0927  0.2662  0.4996
20714SOL    HW166184   0.073   0.989   8.157  0.8515  0.7555 -2.6263
20714SOL    HW266185   0.179   0.910   8.231  0.9755  2.7056 -0.5996
20715SOL     OW66186   7.960   6.928   2.426 -0.2496  0.0764 -0.3127
20715SOL    HW166187   7.936   6.982   2.501 -0.0363 -0.0681 -0.1366
20715SOL    HW266188   7.888   6.865   2.419  0.4590 -0.8960  0.7431
20716SOL     OW66189   0.944   2.146   6.729 -0.1079 -0.0384  0.2381
20716SOL    HW166190   0.901   2.188   6.804  0.8413  1.2546  0.0873
20716SOL    HW266191   0.914   2.055   6.732 -0.5825  0.1417  1.8173
20717SOL     OW66192   8.145   7.345   8.156 -0.2509  0.3246  0.0251
20717SOL    HW166193   8.143   7.363   8.062 -2.5338  1.7127  0.2595
20717SOL    HW266194   8.053   7.338   8.181  0.3307 -1.9959  1.8396
20718SOL     OW66195   3.275   6.669   7.712  0.1279  0.0889  0.5329
20718SOL    HW166196   3.271   6.705   7.624 -0.0441 -0.4213  0.3317
20718SOL    HW266197   3.343   6.721   7.756 -0.3192  0.8500  0.3426
20719SOL     OW66198   5.196   4.871   1.325 -0.4650 -0.1520 -0.1487
20719SOL    HW166199   5.109   4.833   1.335 -0.4636 -0.7482 -2.0996
20719SOL    HW266200   5.184   4.944   1.265  0.5715 -1.0920 -1.5605
20720SOL     OW66201   1.302   3.793   0.340  0.0564  0.4762 -0.1560
20720SOL    HW166202   1.368   3.736   0.379 -0.1459 -0.1592 -0.7225
20720SOL    HW266203   1.336   3.812   0.252  0.1018  1.2006  0.0102
20721SOL     OW66204   8.281  10.237   4.890 -0.5575  0.1027  0.0399
20721SOL    HW166205   8.313  10.154   4.854 -0.0650  0.1403  0.3780
20721SOL    HW266206   8.190  10.219   4.915 -0.0772 -0.7204  1.2932
20722SOL     OW66207   4.410   6.757   5.429 -0.0446  0.5014 -0.1797
20722SOL    HW166208   4.381   6.836   5.381  1.9575  0.4171 -1.6550
20722SOL    HW266209   4.394   6.685   5.368 -0.4660 -0.0650  0.5830
20723SOL     OW66210  10.194   5.206   3.684 -0.0262 -0.4988  0.0076
20723SOL    HW166211  10.108   5.167   3.700  0.6383 -2.8891 -1.6715
20723SOL    HW266212  10.178   5.269   3.613 -0.5116 -0.4411  0.1669
20724SOL     OW66213   4.955   2.366   2.988  0.2060 -0.0753 -0.3564
20724SOL    HW166214   4.916   2.279   2.980  1.2286 -0.5320 -0.5071
20724SOL    HW266215   4.909   2.419   2.923 -1.4429 -0.1020  0.7202
20725SOL     OW66216   2.706   7.515   0.248  0.1111  0.6926 -0.1339
20725SOL    HW166217   2.613   7.494   0.245 -0.0914  1.6404 -1.2913
20725SOL    HW266218   2.709   7.608   0.268  0.8730  0.3957  1.2680
20726SOL     OW66219   8.051   1.150   0.426 -0.4862  0.0974 -0.3733
20726SOL    HW166220   8.059   1.207   0.349  2.3265 -0.1956 -0.4124
20726SOL    HW266221   8.105   1.074   0.404 -1.4348 -1.0140  1.0400
20727SOL     OW66222   7.866   7.313   7.700  0.7107 -0.7698  0.2005
20727SOL    HW166223   7.843   7.406   7.694 -1.1442 -1.0968  1.5766
20727SOL    HW266224   7.827   7.284   7.782  1.2825 -2.7852 -0.1968
20728SOL     OW66225   5.850   6.962   0.760 -0.2100 -0.1853  0.4435
20728SOL    HW166226   5.791   6.917   0.700  0.6932 -0.1543 -0.4884
20728SOL    HW266227   5.914   6.896   0.786  0.0553  0.0926  0.5045
20729SOL     OW66228   8.942   4.577   5.721 -0.3251 -0.1148  0.7247
20729SOL    HW166229   8.957   4.534   5.637  1.1345 -2.2521  1.9798
20729SOL    HW266230   8.860   4.539   5.753 -2.0607  2.2942 -0.5966
20730SOL     OW66231   9.596   1.162   7.558  1.0672 -0.2956  0.1097
20730SOL    HW166232   9.526   1.121   7.508  0.0542  1.4854 -0.0315
20730SOL    HW266233   9.566   1.158   7.649  2.2974 -2.3531  0.4801
20731SOL     OW66234   6.600   0.837   6.326 -0.3989 -0.5014  0.2148
20731SOL    HW166235   6.647   0.856   6.406  0.4118  0.1871 -0.4087
20731SOL    HW266236   6.646   0.762   6.288  0.7199  0.6388 -0.7756
20732SOL     OW66237   0.627   7.396   5.034  0.1529  0.3606 -0.4772
20732SOL    HW166238   0.709   7.347   5.030  0.5001  0.8450  0.3680
20732SOL    HW266239   0.574   7.360   4.963  0.1372 -1.7056  0.4949
20733SOL     OW66240   1.694   1.871   3.258 -0.0547  0.4490 -0.1006
20733SOL    HW166241   1.641   1.944   3.226  0.8018  1.0417 -0.1952
20733SOL    HW266242   1.677   1.800   3.196 -0.4545  0.7499 -0.3406
20734SOL     OW66243   2.744   5.894   2.752  0.0606 -0.3424  0.2049
20734SOL    HW166244   2.694   5.885   2.833 -0.2401 -0.0588  0.0570
20734SOL    HW266245   2.743   5.988   2.734 -0.2842 -0.4546 -0.3775
20735SOL     OW66246   3.737  10.197   1.536 -0.0633  0.2126  0.2643
20735SOL    HW166247   3.788  10.116   1.527  0.0940  0.1470  1.5370
20735SOL    HW266248   3.660  10.183   1.482  0.7037 -0.1563 -0.7660
20736SOL     OW66249   7.600   4.986  10.029 -0.3178 -0.0991  0.2982
20736SOL    HW166250   7.532   4.920  10.013 -0.5367  0.4983 -1.5683
20736SOL    HW266251   7.682   4.939  10.014 -0.3770 -0.4283  0.9688
20737SOL     OW66252   2.535   2.027   4.780  0.0516  0.5169  0.3743
20737SOL    HW166253   2.493   1.942   4.762  1.0805  0.1487 -0.4466
20737SOL    HW266254   2.485   2.089   4.727 -0.7341  0.4352  1.0081
20738SOL     OW66255   7.090   1.352   1.423  0.7677 -0.0399 -0.2926
20738SOL    HW166256   7.080   1.266   1.382  0.2584  0.2082 -0.7041
20738SOL    HW266257   7.159   1.340   1.488 -1.4909 -1.6639  2.0391
20739SOL     OW66258   1.521   7.012   5.134  0.2849  0.2226 -0.3837
20739SOL    HW166259   1.566   7.070   5.196  0.7811  0.3865 -0.8912
20739SOL    HW266260   1.462   6.960   5.189  0.1040  0.9444  0.1287
20740SOL     OW66261  10.107   6.142   3.024 -0.0126  0.0725 -0.5648
20740SOL    HW166262  10.132   6.157   3.115 -0.1372 -0.0999 -0.5001
20740SOL    HW266263  10.094   6.229   2.987  0.2256  0.1478 -0.4695
20741SOL     OW66264   3.821   9.393   2.266  0.2895  0.0862 -0.4895
20741SOL    HW166265   3.775   9.309   2.253 -0.4197  0.2399  0.8053
20741SOL    HW266266   3.858   9.414   2.180 -1.4419 -0.4330 -1.4194
20742SOL     OW66267   1.221   1.386   8.059  0.6938  0.2567 -0.6214
20742SOL    HW166268   1.294   1.336   8.096  0.4246  1.0412  1.0505
20742SOL    HW266269   1.235   1.476   8.089 -1.8078  0.1499  1.2112
20743SOL     OW66270   0.263   8.979   5.179  0.0929 -0.1788  0.3432
20743SOL    HW166271   0.343   8.954   5.133 -0.0845 -0.6973  0.3138
20743SOL    HW266272   0.287   9.059   5.226  0.3841  0.1483 -0.3401
20744SOL     OW66273   5.325  10.114   3.737  0.3562 -0.4082  0.3607
20744SOL    HW166274   5.408  10.160   3.729  0.6924 -1.1050 -0.3614
20744SOL    HW266275   5.269  10.153   3.670 -0.6928  1.6063  2.2942
20745SOL     OW66276   0.101   1.186   9.782 -0.3252 -0.2166  0.2869
20745SOL    HW166277   0.115   1.111   9.840  0.6264  0.1382  0.5382
20745SOL    HW266278   0.038   1.241   9.829  1.2605  0.6043  1.5228
20746SOL     OW66279   2.780   8.108   2.387 -0.4498  0.2448 -0.3538
20746SOL    HW166280   2.868   8.071   2.390 -1.2662 -1.8050  2.2804
20746SOL    HW266281   2.793   8.202   2.398  1.4330  0.0329 -0.4604
20747SOL     OW66282   2.220   9.827   3.906  0.7280 -0.4200 -0.5007
20747SOL    HW166283   2.201   9.831   3.812  0.1559 -0.9621 -0.4174
20747SOL    HW266284   2.234   9.734   3.923 -0.1456 -0.4389  0.1349
20748SOL     OW66285   8.474   7.180   1.951  0.0949 -0.0665 -0.1457
20748SOL    HW166286   8.395   7.212   1.907  0.4014  0.5071 -0.2867
20748SOL    HW266287   8.528   7.145   1.879  0.4773  0.6227 -0.2046
20749SOL     OW66288   0.938   8.638   3.528  0.0032  0.0146 -0.1941
20749SOL    HW166289   0.952   8.722   3.571  0.9814  0.4135 -1.2259
20749SOL    HW266290   0.958   8.655   3.436 -3.0411 -0.5144 -1.0853
20750SOL     OW66291  10.211   9.022   5.818  0.1140 -0.2651  0.2379
20750SOL    HW166292  10.168   8.936   5.816  0.7672 -0.5927 -0.5228
20750SOL    HW266293  10.297   9.006   5.780 -0.0166  0.8678 -0.5900
20751SOL     OW66294   8.407   6.141   2.831 -0.2601 -0.3259  0.4788
20751SOL    HW166295   8.496   6.134   2.867 -0.3973 -0.2068  0.8479
20751SOL    HW266296   8.418   6.124   2.737 -0.0723 -1.9319  0.7576
20752SOL     OW66297   6.047   1.957   3.461  0.3819 -0.2472  0.2473
20752SOL    HW166298   6.085   1.928   3.544 -1.5030 -1.0711  0.8653
20752SOL    HW266299   6.003   2.040   3.482 -0.2732 -0.5610  0.1289
20753SOL     OW66300   2.738   2.949   2.208  0.4072 -0.6425 -0.1142
20753SOL    HW166301   2.656   2.933   2.255 -0.6507  1.3436 -1.1589
20753SOL    HW266302   2.727   2.902   2.125 -0.5019  1.0547 -1.0095
20754SOL     OW66303   3.226   0.559   1.624  0.6765  0.3128  0.3812
20754SOL    HW166304   3.308   0.525   1.658  0.7312 -0.0471 -0.0935
20754SOL    HW266305   3.251   0.616   1.551  0.5505  0.8920  0.7824
20755SOL     OW66306   7.030   9.282   8.406 -0.1579 -0.1446 -0.4209
20755SOL    HW166307   6.946   9.295   8.450  0.0888 -1.9810  0.7422
20755SOL    HW266308   7.012   9.217   8.339  0.2259 -0.1847 -0.4871
20756SOL     OW66309   5.333   1.566   8.150  0.0050  0.0098 -0.5058
20756SOL    HW166310   5.416   1.610   8.171 -0.0865 -0.4924  1.0883
20756SOL    HW266311   5.290   1.556   8.235 -1.9567  0.7238 -1.3622
20757SOL     OW66312   1.089   9.150   6.550  0.1538  0.1019  0.2578
20757SOL    HW166313   1.076   9.086   6.480 -0.0687 -0.7109  1.0250
20757SOL    HW266314   1.184   9.151   6.564  0.1939  0.2356 -0.0347
20758SOL     OW66315   8.165   0.925   8.025 -0.9388  0.3495  0.3999
20758SOL    HW166316   8.234   0.863   7.999 -1.3490  0.0845 -0.0533
20758SOL    HW266317   8.171   0.996   7.962 -1.9145 -0.2804 -0.4228
20759SOL     OW66318   0.280   9.224   8.600  0.4156 -0.3370  0.0056
20759SOL    HW166319   0.335   9.257   8.671 -0.0483 -0.9594  0.6698
20759SOL    HW266320   0.204   9.283   8.598  1.2710  0.7826 -1.1939
20760SOL     OW66321   5.346   8.824   4.588 -0.2194 -0.3043 -0.1886
20760SOL    HW166322   5.438   8.845   4.605 -0.3849  1.6658 -1.4280
20760SOL    HW266323   5.307   8.820   4.675  0.7341  0.3548  0.2931
20761SOL     OW66324   2.456   9.113   1.096 -0.3189 -0.2628  1.0243
20761SOL    HW166325   2.413   9.163   1.166  2.2437  3.4417  0.2196
20761SOL    HW266326   2.395   9.118   1.023 -1.0774 -0.3673  1.6236
20762SOL     OW66327   9.956   0.776   5.357  0.3135  0.0381 -0.2445
20762SOL    HW166328   9.861   0.773   5.350  0.4211 -1.3759 -1.5168
20762SOL    HW266329   9.984   0.685   5.344  1.8256  0.3746  0.4288
20763SOL     OW66330   6.258   9.535   9.666  0.2228  0.7427  0.1145
20763SOL    HW166331   6.202   9.611   9.683 -0.5840 -0.1755  1.7830
20763SOL    HW266332   6.327   9.540   9.732 -0.4370 -0.5053  0.9377
20764SOL     OW66333   7.515   4.416   5.449 -0.3443 -0.1977  0.3381
20764SOL    HW166334   7.445   4.468   5.411  0.2410  0.6509  0.3959
20764SOL    HW266335   7.489   4.325   5.434 -1.0499  0.1146 -0.3602
20765SOL     OW66336   0.592   7.513   5.263  0.2823 -0.4103  0.1137
20765SOL    HW166337   0.610   7.488   5.172 -0.8840  0.4906 -0.3841
20765SOL    HW266338   0.511   7.467   5.284  1.4288 -2.0093  1.3173
20766SOL     OW66339   6.172   1.968   5.208  0.5145  0.0045 -0.2878
20766SOL    HW166340   6.219   1.886   5.220  2.6098  1.1207 -0.5207
20766SOL    HW266341   6.141   1.966   5.118  0.1303 -0.7105 -0.1484
20767SOL     OW66342   0.929   6.185   3.863  0.6435  0.2817  0.0277
20767SOL    HW166343   0.906   6.252   3.799  0.1385  1.1026  1.0402
20767SOL    HW266344   1.023   6.172   3.851  0.5353  0.3052 -0.9701
20768SOL     OW66345   6.486   1.596  10.291  0.0217 -0.7414  0.3026
20768SOL    HW166346   6.439   1.557  10.218  0.4589  0.4360 -0.6618
20768SOL    HW266347   6.576   1.565  10.281 -0.1649 -1.5737  1.0959
20769SOL     OW66348   4.601   1.259   8.233 -0.2337 -0.1771 -0.4610
20769SOL    HW166349   4.690   1.294   8.240 -0.2698  0.1565 -1.5492
20769SOL    HW266350   4.573   1.281   8.144 -0.4175 -2.5952 -1.0626
20770SOL     OW66351   9.302   3.176   1.071 -0.3176  0.1211  0.5502
20770SOL    HW166352   9.310   3.240   1.001 -0.2117  0.8838  1.2428
20770SOL    HW266353   9.389   3.135   1.075 -0.3753 -0.0453  0.1278
20771SOL     OW66354   6.077   8.804   0.126 -0.1883 -0.3795 -0.4735
20771SOL    HW166355   6.055   8.712   0.110  1.4487 -0.9244  0.2374
20771SOL    HW266356   6.049   8.850   0.046 -2.2804 -1.2421 -0.2864
20772SOL     OW66357   6.257   7.738   5.597  0.3184 -0.0720 -0.1424
20772SOL    HW166358   6.312   7.728   5.674 -0.8969 -0.1238  0.7514
20772SOL    HW266359   6.259   7.832   5.578  0.7200 -0.0772 -0.1384
20773SOL     OW66360   1.834   4.252  10.237 -0.0182  0.3733  0.3486
20773SOL    HW166361   1.866   4.162  10.231  0.5526  0.6301 -1.0194
20773SOL    HW266362   1.747   4.245  10.275 -0.6179 -0.9510 -1.1439
20774SOL     OW66363   6.600   6.936   8.808  0.5062 -0.7488  0.3661
20774SOL    HW166364   6.646   6.853   8.797 -1.3517 -1.7446 -0.2360
20774SOL    HW266365   6.547   6.925   8.887  1.5299  0.5339  1.2894
20775SOL     OW66366   0.175   0.695   8.709  0.3948  0.8152  0.2407
20775SOL    HW166367   0.103   0.662   8.764  0.0972  1.8239  0.4770
20775SOL    HW266368   0.157   0.658   8.623 -0.8924  1.6977  0.0971
20776SOL     OW66369   3.735   0.730   4.108  0.2449  0.5518  0.4846
20776SOL    HW166370   3.764   0.657   4.162 -0.7713 -1.8887 -2.0092
20776SOL    HW266371   3.809   0.749   4.051  0.2236  0.8980  0.5717
20777SOL     OW66372   8.889   0.442   6.798 -0.2017 -0.0055  0.5357
20777SOL    HW166373   8.905   0.437   6.704  0.5094 -0.8301  0.6840
20777SOL    HW266374   8.815   0.502   6.807 -1.1559 -0.9589 -0.6385
20778SOL     OW66375   1.121   0.803   6.793 -0.2607  0.3187  1.2387
20778SOL    HW166376   1.143   0.806   6.700 -1.3697  0.9104  0.9845
20778SOL    HW266377   1.116   0.895   6.820  0.6336  0.1494  2.0380
20779SOL     OW66378   0.962   7.053   7.646  0.8577 -0.3042 -0.2044
20779SOL    HW166379   0.961   7.117   7.575  1.5795 -1.0467 -0.9018
20779SOL    HW266380   0.904   6.983   7.617  1.0696 -0.5635 -0.0145
20780SOL     OW66381   4.809   0.024   5.434 -0.2837 -0.4195  0.4147
20780SOL    HW166382   4.821   0.055   5.524 -0.7245 -1.0318  0.6893
20780SOL    HW266383   4.717   0.040   5.415  0.2013  1.4212 -0.5991
20781SOL     OW66384   2.136   3.432   5.140  0.1122  0.3372  0.1484
20781SOL    HW166385   2.176   3.348   5.163  0.3406  0.7898  1.4779
20781SOL    HW266386   2.093   3.460   5.221 -1.0864  0.8802 -0.6511
20782SOL     OW66387   4.316   1.912   9.722  0.2266  0.3484  0.0398
20782SOL    HW166388   4.406   1.942   9.705  0.5661 -0.5592  0.2004
20782SOL    HW266389   4.304   1.839   9.662 -0.2163  0.1094  0.4204
20783SOL     OW66390   8.862   7.724   1.062 -0.0206 -0.0147 -0.6057
20783SOL    HW166391   8.939   7.774   1.087 -0.5319 -0.3847  1.9411
20783SOL    HW266392   8.813   7.782   1.004  0.2052  1.8047  0.9643
20784SOL     OW66393   9.706   8.609   8.203 -0.3766 -0.4289 -0.0464
20784SOL    HW166394   9.637   8.576   8.146  0.6253  0.8702 -2.1265
20784SOL    HW266395   9.673   8.593   8.292 -2.2140 -2.0927 -0.9420
20785SOL     OW66396   7.801   0.939   6.133 -0.1311  0.3446 -0.2593
20785SOL    HW166397   7.875   0.886   6.163 -1.2623 -2.6808 -2.3271
20785SOL    HW266398   7.840   1.011   6.085  1.5393 -0.9310 -0.9151
20786SOL     OW66399   5.447   3.722   8.410  0.6320 -0.1455  0.4531
20786SOL    HW166400   5.401   3.686   8.335  0.2372  0.7714  0.2544
20786SOL    HW266401   5.378   3.749   8.471  0.8920  1.0020  0.2607
20787SOL     OW66402   0.815   7.454   0.473  0.1542  0.1719  0.3343
20787SOL    HW166403   0.754   7.483   0.540 -0.3314 -0.8796  0.3672
20787SOL    HW266404   0.810   7.522   0.405 -1.2662 -0.0193  0.2164
20788SOL     OW66405   3.102   2.577   6.212  0.2352 -0.0981  0.0950
20788SOL    HW166406   3.106   2.537   6.125  0.0757 -0.7422  0.3769
20788SOL    HW266407   3.100   2.671   6.196  0.9773 -0.1852 -0.5753
20789SOL     OW66408   5.349   7.375   8.923 -0.3190 -0.4338 -0.2657
20789SOL    HW166409   5.337   7.399   9.015  0.6032 -1.4132  0.1340
20789SOL    HW266410   5.323   7.283   8.918 -2.4402  0.1752 -1.4691
20790SOL     OW66411   3.429   5.055   7.529 -0.3702 -0.2353 -0.3100
20790SOL    HW166412   3.473   5.129   7.487 -0.4793  0.7800  1.3005
20790SOL    HW266413   3.461   5.055   7.619 -1.1898 -1.4977  0.0132
20791SOL     OW66414   0.864   2.025   9.098 -0.4988 -0.1999 -0.0823
20791SOL    HW166415   0.900   2.021   9.186  0.6259 -1.8443 -0.5653
20791SOL    HW266416   0.770   2.033   9.111 -0.1899  2.6676  1.2151
20792SOL     OW66417   9.030   7.769   1.725  0.2088  0.2361 -0.0622
20792SOL    HW166418   9.079   7.688   1.739 -0.4353 -0.4436 -1.4428
20792SOL    HW266419   9.016   7.772   1.630 -5.2490 -1.4550  0.3524
20793SOL     OW66420   4.548  10.166   2.895 -0.0829  0.2515 -0.1806
20793SOL    HW166421   4.623  10.178   2.952  0.2613  0.3613 -0.6480
20793SOL    HW266422   4.584  10.126   2.816 -0.4510  0.6315 -0.5510
20794SOL     OW66423   0.006   2.558   4.663 -0.0806 -0.3397  0.5171
20794SOL    HW166424  -0.063   2.501   4.627  0.1643 -1.6248  1.9637
20794SOL    HW266425   0.074   2.559   4.596 -0.8414 -0.3098 -0.2752
20795SOL     OW66426   9.698   3.900   2.458 -0.1807  0.4865  0.7766
20795SOL    HW166427   9.774   3.889   2.514  0.1625  0.5144  0.3232
20795SOL    HW266428   9.692   3.995   2.443 -0.0465  0.4493  0.4685
20796SOL     OW66429  10.219   9.053   0.401 -0.4546 -0.1698 -0.8618
20796SOL    HW166430  10.169   8.981   0.362  0.3053 -0.9380 -0.4693
20796SOL    HW266431  10.172   9.075   0.481 -0.7077 -0.2203 -0.9974
20797SOL     OW66432   2.000   4.606   5.243  0.3017 -0.0430 -0.1479
20797SOL    HW166433   1.989   4.619   5.149  3.4275  3.5539 -0.2816
20797SOL    HW266434   1.924   4.648   5.283 -0.3025 -0.2759 -1.0288
20798SOL     OW66435   4.374   4.980   3.267 -0.0183  0.0181 -0.5608
20798SOL    HW166436   4.330   4.900   3.239  2.2978 -0.5378 -2.9223
20798SOL    HW266437   4.376   5.036   3.190 -1.1534  2.2470  0.9035
20799SOL     OW66438   2.240   7.515   7.263 -0.3192  0.0544  0.4981
20799SOL    HW166439   2.215   7.423   7.262  0.6001 -0.2251  1.1632
20799SOL    HW266440   2.206   7.551   7.181  2.3145 -1.7025 -1.5436
20800SOL     OW66441   1.437   4.329   8.108  0.7022 -0.1335 -0.0377
20800SOL    HW166442   1.393   4.273   8.045 -0.0070 -0.2145  0.5211
20800SOL    HW266443   1.419   4.418   8.077  0.5642 -0.1780 -0.0883
20801SOL     OW66444   2.142   6.619   6.993 -0.0134  0.4574  0.4825
20801SOL    HW166445   2.146   6.670   7.074  2.0516  1.2111 -0.0241
20801SOL    HW266446   2.157   6.529   7.021 -0.3335  0.5671  1.0314
20802SOL     OW66447   9.080   3.059   7.292  0.1025 -0.9384  0.5220
20802SOL    HW166448   9.124   3.142   7.311 -1.5737 -0.4785  2.8666
20802SOL    HW266449   9.151   2.997   7.274  1.3962  0.9689 -1.5284
20803SOL     OW66450   3.447   2.498   1.089  0.0148  0.2316  0.0040
20803SOL    HW166451   3.511   2.508   1.159 -0.7654  1.3550  0.5730
20803SOL    HW266452   3.378   2.444   1.127  0.1492 -0.1638 -0.3009
20804SOL     OW66453   4.768   9.559   7.553  0.2304 -0.5099  0.3072
20804SOL    HW166454   4.741   9.552   7.645  1.2099  1.3595  0.7935
20804SOL    HW266455   4.736   9.645   7.526  1.5736 -0.2374 -0.5171
20805SOL     OW66456   7.118   9.637   3.047 -0.4846  0.1643 -0.3343
20805SOL    HW166457   7.025   9.648   3.025 -0.2754 -1.2337 -2.0784
20805SOL    HW266458   7.141   9.551   3.012  1.8137  1.0571 -1.1687
20806SOL     OW66459   2.225   3.595   1.448 -0.3544  0.4879  0.0440
20806SOL    HW166460   2.147   3.555   1.410 -0.5661 -1.1871  2.0808
20806SOL    HW266461   2.298   3.554   1.401 -0.6285 -0.9222  0.8142
20807SOL     OW66462   3.836   3.380   8.773 -0.1875 -0.0096  0.3211
20807SOL    HW166463   3.913   3.434   8.790 -0.1582 -0.2816  1.0902
20807SOL    HW266464   3.762   3.439   8.788 -0.1417  0.3260 -0.6762
20808SOL     OW66465   1.367   8.526   8.649  0.0220 -0.1927 -0.4875
20808SOL    HW166466   1.288   8.477   8.626 -0.5901 -0.0089  1.0990
20808SOL    HW266467   1.341   8.618   8.642  0.0192 -0.1337  0.2494
20809SOL     OW66468   4.645   1.335   6.933 -0.4417 -0.0343  0.3258
20809SOL    HW166469   4.605   1.251   6.910  0.0994  0.3903 -2.7029
20809SOL    HW266470   4.735   1.312   6.957 -0.8206 -0.4519  1.4219
20810SOL     OW66471   0.314   9.556   1.557 -0.6554  0.0253  0.0109
20810SOL    HW166472   0.250   9.494   1.522  0.1301 -0.2034 -1.0799
20810SOL    HW266473   0.361   9.587   1.480  1.7415 -1.1603  0.8993
20811SOL     OW66474   6.037   2.017   4.589  0.2030 -0.0286 -0.2414
20811SOL    HW166475   6.117   1.989   4.634  0.3730 -0.9664 -1.0904
20811SOL    HW266476   6.052   2.109   4.568  0.4408  0.2101  0.9094
20812SOL     OW66477   3.387   4.914   8.195  0.9990 -0.4428 -0.1273
20812SOL    HW166478   3.417   4.934   8.284  1.8362  0.4069 -0.5806
20812SOL    HW266479   3.296   4.945   8.194  1.5834  1.3964 -0.1240
20813SOL     OW66480   9.312   6.618   3.378  0.3467 -0.3782  0.1940
20813SOL    HW166481   9.369   6.693   3.362 -0.6911  0.0950 -1.7246
20813SOL    HW266482   9.358   6.544   3.339 -0.1082 -0.0769 -0.9614
20814SOL     OW66483   2.950   7.669   1.643 -0.4191  0.5298  0.4419
20814SOL    HW166484   2.945   7.643   1.734 -1.1653 -1.7182 -0.1769
20814SOL    HW266485   3.026   7.623   1.608 -0.1591  1.3419 -0.1102
20815SOL     OW66486   9.059   5.163   9.998  0.4006  0.4734  0.2806
20815SOL    HW166487   9.049   5.218   9.920 -0.6339  0.6511  0.5198
20815SOL    HW266488   9.148   5.130   9.993  1.8723  3.8521  1.2046
20816SOL     OW66489   6.359   9.747   3.283  0.0243 -0.0144  0.3221
20816SOL    HW166490   6.435   9.739   3.342  0.9390  0.2046 -0.8025
20816SOL    HW266491   6.342   9.841   3.280  1.0757  0.1606 -1.0831
20817SOL     OW66492   8.881   3.722   5.410  0.6265  0.4855  0.2880
20817SOL    HW166493   8.834   3.647   5.374 -1.0260  0.7968  1.6297
20817SOL    HW266494   8.953   3.737   5.349  1.8658 -2.9964  0.6538
20818SOL     OW66495   0.174   1.259   6.232  0.8294  0.4975  0.3813
20818SOL    HW166496   0.226   1.205   6.173  2.1040  1.0156  0.9814
20818SOL    HW266497   0.143   1.199   6.300 -0.3544 -0.0342 -0.5975
20819SOL     OW66498   3.810   5.706   0.685  0.2877  0.0945 -0.2956
20819SOL    HW166499   3.873   5.778   0.689  0.0328  0.3266 -0.3794
20819SOL    HW266500   3.789   5.698   0.592  0.9800 -0.6806 -0.4017
20820SOL     OW66501   5.030   2.952   9.425 -0.6921 -0.3096 -1.0350
20820SOL    HW166502   5.118   2.918   9.406 -1.2310 -0.5562 -3.4109
20820SOL    HW266503   4.972   2.876   9.417 -1.3957  0.3071 -2.1167
20821SOL     OW66504   2.377   4.078   7.971 -0.9128  0.0622 -0.6612
20821SOL    HW166505   2.341   4.153   7.924 -0.2340  1.2399  0.6079
20821SOL    HW266506   2.471   4.098   7.978 -0.4328 -1.6648 -1.6174
20822SOL     OW66507   8.763   5.833   0.553 -0.1327 -0.2709 -0.7243
20822SOL    HW166508   8.766   5.855   0.460 -1.4235 -0.6249 -0.8789
20822SOL    HW266509   8.784   5.740   0.557 -1.3569 -0.5789 -0.8368
20823SOL     OW66510   0.537  10.006   9.673 -0.4817 -0.0777 -0.0028
20823SOL    HW166511   0.555  10.033   9.583  1.9694 -0.5379  0.2763
20823SOL    HW266512   0.460   9.950   9.666 -1.7570  1.7381 -1.4537
20824SOL     OW66513   6.266   4.817   7.162  0.0691 -0.1268 -0.8877
20824SOL    HW166514   6.328   4.775   7.102  0.0403 -4.8435  1.9040
20824SOL    HW266515   6.180   4.801   7.123  0.1459 -1.9638 -0.4280
20825SOL     OW66516   3.520   1.217   9.926  0.0409  0.0290  1.2711
20825SOL    HW166517   3.451   1.267   9.969 -2.2814 -0.7641 -1.2782
20825SOL    HW266518   3.509   1.128   9.958 -1.0213 -0.3552 -0.0838
20826SOL     OW66519   2.112   9.858   3.227  0.0914  0.1031  0.2022
20826SOL    HW166520   2.182   9.821   3.281 -0.5979 -1.7489 -0.1144
20826SOL    HW266521   2.116   9.952   3.244  1.9596 -0.0833  1.0001
20827SOL     OW66522   3.933   0.585   5.402  0.4790  0.2629 -0.3913
20827SOL    HW166523   3.853   0.624   5.437  0.0225 -0.1810 -0.9266
20827SOL    HW266524   3.983   0.559   5.480  0.2935  0.9165 -0.0509
20828SOL     OW66525  10.047   0.152   3.901 -0.1591  0.5457  0.6905
20828SOL    HW166526  10.110   0.216   3.935 -0.3283  1.2709 -0.2964
20828SOL    HW266527  10.101   0.082   3.866  0.2684  2.0280 -1.8792
20829SOL     OW66528   1.355   8.251   6.154  0.3945 -0.3240  0.1665
20829SOL    HW166529   1.304   8.307   6.096 -0.2175  1.4314  2.2412
20829SOL    HW266530   1.445   8.282   6.145  0.3216 -0.1397  0.0752
20830SOL     OW66531   2.915   3.151   2.487 -0.6372 -0.6196 -0.2185
20830SOL    HW166532   2.875   3.227   2.530  0.5138 -0.7600  1.1547
20830SOL    HW266533   2.853   3.080   2.501 -1.0162 -0.2920 -0.2078
20831SOL     OW66534   1.486   2.593   6.665 -0.3878 -0.1934  0.1475
20831SOL    HW166535   1.441   2.516   6.700 -1.0073  0.2570  0.3609
20831SOL    HW266536   1.420   2.637   6.611  0.8135 -1.4040 -2.4865
20832SOL     OW66537   0.510   3.694   7.804  0.0175 -0.2724 -0.1714
20832SOL    HW166538   0.583   3.641   7.834  0.3493 -0.2371 -0.8896
20832SOL    HW266539   0.464   3.639   7.741 -0.2059 -0.0621 -0.1948
20833SOL     OW66540   9.385   8.110   9.503 -0.4076  0.3643 -0.0084
20833SOL    HW166541   9.473   8.139   9.477  0.5272 -0.6837  1.7969
20833SOL    HW266542   9.376   8.022   9.466 -0.2744  0.0544  0.6979
20834SOL     OW66543   3.576   3.767   1.686 -0.3854 -0.8290  0.5406
20834SOL    HW166544   3.665   3.793   1.709 -0.3121 -1.3264  0.8298
20834SOL    HW266545   3.521   3.838   1.719 -0.0829 -0.4252  0.1849
20835SOL     OW66546   6.331   7.402   5.172  0.7409  0.6741 -0.4773
20835SOL    HW166547   6.267   7.358   5.229 -0.0419  0.9953 -1.0824
20835SOL    HW266548   6.302   7.382   5.083  1.7033  0.5366 -0.7702
20836SOL     OW66549   1.811   4.481   6.195  0.7051  0.1999 -0.2862
20836SOL    HW166550   1.767   4.483   6.280  0.2379 -1.6603 -0.4452
20836SOL    HW266551   1.784   4.398   6.156  1.8900  0.4587 -1.7403
20837SOL     OW66552  10.044   6.790   1.790 -0.4947 -0.2475  0.0864
20837SOL    HW166553  10.071   6.876   1.758 -0.0788 -1.2748 -2.5803
20837SOL    HW266554  10.102   6.773   1.864  1.7159  0.4046 -1.3860
20838SOL     OW66555   6.279   4.180   9.264 -0.3814  0.1862  0.6467
20838SOL    HW166556   6.349   4.202   9.325  0.3557  0.7923 -0.3701
20838SOL    HW266557   6.205   4.233   9.293  0.2960  1.3386  0.3804
20839SOL     OW66558   1.496   4.265   7.678  0.0137 -0.2637 -0.6269
20839SOL    HW166559   1.578   4.248   7.632 -0.7233  0.4208 -2.2457
20839SOL    HW266560   1.501   4.357   7.703 -0.6229  0.0320 -1.5351
20840SOL     OW66561   0.888   3.045   7.798 -0.2593  0.2639  0.3109
20840SOL    HW166562   0.857   2.957   7.818  1.7367 -0.0989  2.2922
20840SOL    HW266563   0.828   3.103   7.845 -0.6036 -0.1239  0.3572
20841SOL     OW66564   7.652   5.171   9.136  0.3130  0.2897 -0.0073
20841SOL    HW166565   7.724   5.115   9.164  0.9179  0.3964 -1.2990
20841SOL    HW266566   7.618   5.209   9.217  1.0729 -0.5206  0.7072
20842SOL     OW66567   7.217   1.806   4.762  0.3771 -0.3950 -0.1491
20842SOL    HW166568   7.270   1.727   4.769  1.7673  0.5028 -0.2153
20842SOL    HW266569   7.223   1.831   4.670 -0.8107 -0.7013 -0.3269
20843SOL     OW66570   9.899   0.466   8.226  0.5236  0.1070  0.7640
20843SOL    HW166571   9.953   0.467   8.305  0.6285  1.8872  0.6986
20843SOL    HW266572   9.844   0.388   8.236  1.3825 -0.3761  1.9974
20844SOL     OW66573   6.471   7.755   1.660 -0.0429 -0.0727  0.2187
20844SOL    HW166574   6.521   7.679   1.690  0.7479  0.2540 -0.2352
20844SOL    HW266575   6.534   7.827   1.662 -1.5570  1.3726  3.8747
20845SOL     OW66576   5.868   5.696   6.614 -0.4190 -0.2398  0.1356
20845SOL    HW166577   5.909   5.617   6.579 -2.2453 -0.2473 -2.2860
20845SOL    HW266578   5.780   5.669   6.639 -1.7233  1.2109 -2.3919
20846SOL     OW66579   2.834   3.298   0.803  0.1063  0.2969  0.4442
20846SOL    HW166580   2.840   3.372   0.743 -0.3843  0.4755  0.6102
20846SOL    HW266581   2.799   3.336   0.884 -0.5645 -0.1931  0.3889
20847SOL     OW66582   7.796   6.090   3.928 -0.0635  0.3264  0.4441
20847SOL    HW166583   7.760   6.012   3.969  1.7688 -0.3595  0.8470
20847SOL    HW266584   7.832   6.059   3.845 -0.0714  0.9094  0.2160
20848SOL     OW66585   0.406   4.654   5.875 -0.5721  0.1484  0.0437
20848SOL    HW166586   0.390   4.637   5.782  0.5087 -1.3902  0.1136
20848SOL    HW266587   0.328   4.703   5.904 -1.5256 -0.4796 -1.3500
20849SOL     OW66588   5.043   5.305   2.627  0.3641  0.4525 -0.4050
20849SOL    HW166589   5.008   5.229   2.673 -0.0758  0.3683 -0.8680
20849SOL    HW266590   5.135   5.307   2.651  0.3064 -0.0351 -0.1274
20850SOL     OW66591   2.272   5.047   3.863  0.7100  0.3896  0.1147
20850SOL    HW166592   2.282   5.141   3.881 -0.7193  0.4654  0.6261
20850SOL    HW266593   2.362   5.014   3.860  1.2019  1.5177  1.3292
20851SOL     OW66594   6.374   7.647   3.706 -0.6550  0.1172  0.1862
20851SOL    HW166595   6.446   7.702   3.676 -0.5412 -0.6700 -1.0663
20851SOL    HW266596   6.411   7.558   3.707 -1.6870 -0.3460 -0.8101
20852SOL     OW66597   8.427   0.650   0.582 -0.5654  0.3860  0.4232
20852SOL    HW166598   8.375   0.717   0.538  0.4636 -0.0807 -1.6646
20852SOL    HW266599   8.460   0.595   0.510  2.3860  0.3635  1.6602
20853SOL     OW66600   8.621   3.701   6.919  0.5696  0.1759 -0.0958
20853SOL    HW166601   8.619   3.780   6.972  1.3102 -0.8546  1.5520
20853SOL    HW266602   8.584   3.633   6.975  0.8588 -0.8494 -1.0960
20854SOL     OW66603   0.718   6.360   9.366  0.3653 -0.0948 -0.4099
20854SOL    HW166604   0.687   6.272   9.384  1.1748 -0.5030 -0.9610
20854SOL    HW266605   0.813   6.354   9.373  0.4385  0.6942 -0.6149
20855SOL     OW66606   3.927   1.633   0.968  0.1637 -0.5748 -0.6252
20855SOL    HW166607   3.984   1.641   1.044 -2.6007  0.9134  1.4788
20855SOL    HW266608   3.860   1.570   0.995 -0.0758 -1.1311 -2.4066
20856SOL     OW66609   7.503   5.676   5.517  0.3356 -0.8088 -0.2379
20856SOL    HW166610   7.530   5.764   5.542 -0.5485 -0.5072 -0.3130
20856SOL    HW266611   7.456   5.688   5.434 -0.5324 -1.2341  0.1838
20857SOL     OW66612   8.387   7.096   3.005 -0.6349 -0.0555  0.6973
20857SOL    HW166613   8.409   7.004   3.015 -1.6543 -0.3892  0.0391
20857SOL    HW266614   8.472   7.141   3.003 -0.0293 -1.1706 -0.7451
20858SOL     OW66615   1.029   6.728   1.709 -0.2496 -0.3324  0.2919
20858SOL    HW166616   0.938   6.756   1.711 -0.0627  0.2886  0.4364
20858SOL    HW266617   1.030   6.652   1.651 -0.8830 -0.4447  0.4296
20859SOL     OW66618   8.897   7.710   8.740  0.3948  0.0943  0.1111
20859SOL    HW166619   8.805   7.738   8.733 -0.0808 -0.9022  1.9615
20859SOL    HW266620   8.895   7.616   8.726  1.2205  0.1249 -0.2977
20860SOL     OW66621   5.696   8.918   6.336  0.2284  0.1997  0.1174
20860SOL    HW166622   5.757   8.941   6.266  1.4042  0.2494  1.1282
20860SOL    HW266623   5.645   8.998   6.351 -1.3869 -0.3706 -1.9581
20861SOL     OW66624   7.010   9.937   9.976  0.1657 -0.5176 -0.5526
20861SOL    HW166625   6.968  10.020   9.997  1.0931  0.1710 -1.2695
20861SOL    HW266626   7.086   9.933  10.034  0.1655 -0.8244 -0.5728
20862SOL     OW66627   2.582   6.349  10.236 -0.0670  0.0729 -0.2203
20862SOL    HW166628   2.504   6.392  10.202  0.6248 -0.2585 -2.3719
20862SOL    HW266629   2.648   6.360  10.168  1.7468  0.1800  1.4515
20863SOL     OW66630   3.289  10.245   1.376 -0.1376 -0.4542  0.2779
20863SOL    HW166631   3.293  10.322   1.320  0.4503  0.5235  1.6020
20863SOL    HW266632   3.199  10.213   1.365  0.0865 -0.5635 -1.5187
20864SOL     OW66633   6.057   5.539   6.787 -0.2600 -0.2408 -0.2075
20864SOL    HW166634   6.114   5.567   6.716  0.1141 -0.1766  0.1111
20864SOL    HW266635   6.007   5.466   6.751  2.0413 -2.2343  0.3309
20865SOL     OW66636   2.979   2.687   9.716  0.1105 -0.1060 -0.0743
20865SOL    HW166637   2.911   2.623   9.735  0.6443 -0.9472 -0.8873
20865SOL    HW266638   3.053   2.660   9.771  1.3643 -2.0416 -2.5064
20866SOL     OW66639   7.125   0.048   9.604 -0.3878  0.2265 -0.0566
20866SOL    HW166640   7.153   0.083   9.689  1.3084 -0.0503 -0.4619
20866SOL    HW266641   7.063  -0.021   9.626 -0.8284  0.9138  0.9100
20867SOL     OW66642   4.177   8.165   3.737 -0.0867  0.4107  0.1578
20867SOL    HW166643   4.107   8.172   3.672 -0.4169 -0.5713  0.3839
20867SOL    HW266644   4.256   8.190   3.690 -0.3295 -0.2254 -0.6127
20868SOL     OW66645   4.915   7.576   7.979 -0.4041 -0.2199  0.9732
20868SOL    HW166646   4.853   7.571   7.906  1.5693 -1.7378 -0.7448
20868SOL    HW266647   4.965   7.655   7.962  1.5555 -1.7155 -0.7506
20869SOL     OW66648   6.856   7.954   3.147  0.6887 -0.4192 -0.1090
20869SOL    HW166649   6.881   7.866   3.119  0.7017  0.1951 -2.1897
20869SOL    HW266650   6.929   7.984   3.201  2.0999 -0.6274 -1.7940
20870SOL     OW66651   8.711   5.247   3.027  0.1049  0.3021 -0.0961
20870SOL    HW166652   8.772   5.221   2.958 -1.9623 -2.1217 -1.1965
20870SOL    HW266653   8.738   5.196   3.103  0.0990  0.0527 -0.2605
20871SOL     OW66654   2.979   8.317   4.340 -0.2786  0.1582  0.3822
20871SOL    HW166655   2.953   8.225   4.331 -1.9560  0.6661 -0.5383
20871SOL    HW266656   2.966   8.354   4.252  0.4171  1.2720  0.7243
20872SOL     OW66657   1.753   0.119   9.919  0.1288  0.3284  0.0092
20872SOL    HW166658   1.726   0.185   9.983  0.1352 -0.7639  1.1884
20872SOL    HW266659   1.840   0.092   9.948  0.6217  0.6243 -1.1503
20873SOL     OW66660   9.298   8.578   3.567 -0.3865 -0.2589 -0.8970
20873SOL    HW166661   9.279   8.628   3.646 -2.4733 -1.8065 -0.3036
20873SOL    HW266662   9.357   8.508   3.596  0.7294  0.5200 -1.2430
20874SOL     OW66663   5.920   6.304   2.734 -0.4000  0.3922 -0.6619
20874SOL    HW166664   5.927   6.366   2.661  1.2773  0.3677 -0.5418
20874SOL    HW266665   6.004   6.310   2.780 -1.4377  0.4784  1.3545
20875SOL     OW66666   5.808   8.326   3.123  1.2293  0.0603  0.3230
20875SOL    HW166667   5.870   8.298   3.056 -0.3355  0.4558 -1.3621
20875SOL    HW266668   5.757   8.248   3.143  1.0413  0.1785  0.3109
20876SOL     OW66669   7.773   9.584   7.578  0.1276 -0.2263 -0.3104
20876SOL    HW166670   7.866   9.603   7.594  0.0047  0.2182 -0.1166
20876SOL    HW266671   7.773   9.540   7.493  0.5344 -0.3873 -0.2334
20877SOL     OW66672   9.260   1.362   4.207 -0.3341  0.4848 -0.1260
20877SOL    HW166673   9.203   1.288   4.189 -2.3951  2.0520 -0.4763
20877SOL    HW266674   9.331   1.326   4.260 -1.0709 -1.7673 -0.5683
20878SOL     OW66675   7.747   4.237   5.575 -0.3890 -1.0190 -0.3742
20878SOL    HW166676   7.663   4.237   5.528 -1.2771  1.5905  1.0233
20878SOL    HW266677   7.812   4.256   5.509 -1.2637 -0.2163 -1.0206
20879SOL     OW66678   9.907   1.188   7.205  0.2493 -0.6278  0.0192
20879SOL    HW166679   9.891   1.159   7.295 -0.7848  0.4875  0.2128
20879SOL    HW266680   9.974   1.256   7.213  0.8178 -1.1462 -0.1744
20880SOL     OW66681  10.146   9.334   0.630 -0.2730 -0.0681 -0.8648
20880SOL    HW166682  10.161   9.428   0.638 -1.3808  0.0995 -0.5059
20880SOL    HW266683  10.186   9.297   0.709  0.8228  0.0048 -1.3748
20881SOL     OW66684   1.249   5.939  10.008 -0.2277  0.3708  0.2189
20881SOL    HW166685   1.252   6.035  10.012 -2.0245  0.4246  1.4220
20881SOL    HW266686   1.223   5.912  10.096  2.5086 -1.4098  0.6141
20882SOL     OW66687   4.404   1.687   9.216 -0.1667 -0.6610 -0.2132
20882SOL    HW166688   4.455   1.643   9.148  0.9130  0.7772 -0.3832
20882SOL    HW266689   4.332   1.627   9.234  0.8639 -2.1793 -0.8944
20883SOL     OW66690   6.597   8.808   3.290  0.2170  0.4918  0.6197
20883SOL    HW166691   6.502   8.806   3.278  0.4291  1.0672 -1.6352
20883SOL    HW266692   6.630   8.740   3.230  1.2200 -0.0913  1.7827
20884SOL     OW66693   7.988   1.008   1.831 -0.2233 -0.3770 -0.1804
20884SOL    HW166694   7.942   1.092   1.829  0.9035  0.4496  2.5999
20884SOL    HW266695   8.076   1.028   1.798  0.4033 -0.1225  1.5347
20885SOL     OW66696   2.091  10.070   5.326 -0.2178  0.7853  0.6076
20885SOL    HW166697   2.003  10.106   5.329 -0.4433  0.2235  2.3492
20885SOL    HW266698   2.149  10.144   5.345 -0.3588  1.0081  0.1788
20886SOL     OW66699   3.880   1.539   7.439  0.1481 -0.0918 -0.4751
20886SOL    HW166700   3.967   1.578   7.445  0.5207 -0.3512 -3.0454
20886SOL    HW266701   3.822   1.604   7.478  1.2669  0.9371 -0.4559
20887SOL     OW66702   0.099   5.454   2.855  0.2760 -0.7809 -0.2117
20887SOL    HW166703   0.142   5.429   2.774  0.1126  0.0266 -0.5599
20887SOL    HW266704   0.150   5.527   2.888 -1.4140  0.9484 -1.2125
20888SOL     OW66705   4.002   4.779   3.613  0.3782 -0.7501  0.3558
20888SOL    HW166706   4.034   4.852   3.666 -0.6104 -0.7475  0.9643
20888SOL    HW266707   4.078   4.721   3.605  0.7077 -0.4808  1.3191
20889SOL     OW66708   5.165   9.481   0.121  0.0123  0.1911  0.0168
20889SOL    HW166709   5.096   9.546   0.106  0.4162  0.5702 -0.2313
20889SOL    HW266710   5.148   9.449   0.210 -0.0771  0.7840  0.2231
20890SOL     OW66711   4.760   5.861   4.725 -0.3405  0.1676  0.5153
20890SOL    HW166712   4.731   5.800   4.658 -0.8835  1.8711 -0.8998
20890SOL    HW266713   4.679   5.889   4.769 -0.1269  0.0214  1.0011
20891SOL     OW66714  10.214   8.860   2.427  0.2610  0.2168 -0.1653
20891SOL    HW166715  10.162   8.922   2.478 -1.0113  0.0666 -1.2059
20891SOL    HW266716  10.155   8.833   2.356  1.0254 -1.6325 -0.1543
20892SOL     OW66717   4.286   7.086   1.596  0.5781 -0.2852  0.3702
20892SOL    HW166718   4.308   7.084   1.503 -0.2548  1.1757  0.1159
20892SOL    HW266719   4.341   7.155   1.632  1.2796 -1.1943  1.0910
20893SOL     OW66720   3.279   2.662   2.859  0.3153 -0.2250 -0.5974
20893SOL    HW166721   3.321   2.595   2.803  0.1892 -0.1793 -0.7476
20893SOL    HW266722   3.214   2.613   2.909  1.2196 -0.4846  0.3761
20894SOL     OW66723   6.362   7.365   4.418  0.6499  0.4107 -0.0706
20894SOL    HW166724   6.340   7.298   4.484 -0.9344  0.9721 -0.0039
20894SOL    HW266725   6.404   7.435   4.468 -0.5971  0.8589  0.3727
20895SOL     OW66726   4.270   7.342  10.030 -0.5485  0.3135  0.7057
20895SOL    HW166727   4.260   7.435  10.047 -0.0317  0.4251  0.4197
20895SOL    HW266728   4.184   7.304  10.049 -1.6325  1.2376 -1.9080
20896SOL     OW66729   4.441   4.560   7.335 -0.0284  0.4472  0.0328
20896SOL    HW166730   4.364   4.613   7.358  0.8886  1.8260  0.0725
20896SOL    HW266731   4.409   4.500   7.268 -0.9918  1.4917 -0.4913
20897SOL     OW66732   7.620   1.105   3.101 -0.3746  0.0252 -0.1381
20897SOL    HW166733   7.561   1.050   3.050 -0.0141 -0.5551  0.0521
20897SOL    HW266734   7.684   1.137   3.038  0.0960 -0.7253 -0.0562
20898SOL     OW66735   5.707   9.876   3.519 -0.5882  0.4929  0.0995
20898SOL    HW166736   5.616   9.900   3.539 -0.5736  1.3672 -0.7769
20898SOL    HW266737   5.708   9.863   3.424  0.2957  0.9777  0.0265
20899SOL     OW66738   5.798   8.476   5.896 -0.3518 -0.0502  0.0614
20899SOL    HW166739   5.804   8.481   5.800 -0.5619  0.8065  0.0916
20899SOL    HW266740   5.797   8.567   5.925  0.1639 -0.3131  0.9161
20900SOL     OW66741   8.149   1.069   1.338 -0.2974 -0.4416  0.0605
20900SOL    HW166742   8.087   1.026   1.396  1.1245 -2.1195  0.4234
20900SOL    HW266743   8.217   1.104   1.396  0.0532 -0.2866 -0.4355
20901SOL     OW66744   6.235   3.599   2.497  0.0015 -0.2040 -0.6008
20901SOL    HW166745   6.184   3.679   2.512 -1.6277 -1.2981 -0.0066
20901SOL    HW266746   6.198   3.563   2.417  0.3390 -0.6513 -0.5545
20902SOL     OW66747   1.307   8.709   5.665  0.0768  0.2488  0.0325
20902SOL    HW166748   1.355   8.788   5.692  1.7659 -0.8725  0.4783
20902SOL    HW266749   1.299   8.717   5.570  0.8488  0.6360 -0.0061
20903SOL     OW66750   2.622   8.931   2.353  0.4937  1.0082 -0.3945
20903SOL    HW166751   2.629   8.968   2.441 -1.8476  2.0108 -0.5781
20903SOL    HW266752   2.658   8.998   2.296  1.7359  0.4788 -0.2736
20904SOL     OW66753   6.709   7.948   1.683  0.3116  0.2704 -0.3359
20904SOL    HW166754   6.796   7.916   1.708  0.9157  1.9808 -0.1110
20904SOL    HW266755   6.722   7.991   1.598 -0.3990  0.1964 -0.4909
20905SOL     OW66756   3.230   0.302  10.265  0.2561 -0.0897 -0.2697
20905SOL    HW166757   3.307   0.259  10.228  0.4277  0.5143 -0.6323
20905SOL    HW266758   3.261   0.390  10.289  0.1700 -0.4689  1.3676
20906SOL     OW66759   6.435   9.458   3.645  0.0381 -0.0722 -0.0090
20906SOL    HW166760   6.403   9.368   3.644  0.7057 -0.3510  1.2383
20906SOL    HW266761   6.527   9.450   3.672 -0.4707  1.1036  2.3998
20907SOL     OW66762   5.974   9.086   5.041  0.0877  0.4341 -0.1990
20907SOL    HW166763   5.937   9.175   5.037  2.0429  1.2561 -1.1712
20907SOL    HW266764   6.028   9.079   4.962  0.4045 -1.4443  0.1413
20908SOL     OW66765   3.695   9.545   4.215 -0.0818 -0.5978  0.4926
20908SOL    HW166766   3.630   9.476   4.202 -1.2955  0.1010  2.4051
20908SOL    HW266767   3.660   9.620   4.167 -0.6398 -0.2790  1.3646
20909SOL     OW66768   2.139   5.926   9.620  0.1283 -0.2343 -0.0632
20909SOL    HW166769   2.199   6.000   9.635  1.0277 -0.6905 -1.2790
20909SOL    HW266770   2.058   5.967   9.590  1.3480  0.2441 -3.0502
20910SOL     OW66771   2.797   1.998   3.915 -0.7605 -0.0749  0.0915
20910SOL    HW166772   2.804   1.906   3.941 -1.1732  0.1036  0.8389
20910SOL    HW266773   2.886   2.032   3.923 -0.5969 -0.4211 -0.2421
20911SOL     OW66774   7.870   1.911   9.927 -0.0772  0.0922  0.4417
20911SOL    HW166775   7.906   1.873  10.007  0.6673 -0.4607 -0.1486
20911SOL    HW266776   7.796   1.855   9.905  0.8466 -0.8749 -0.2698
20912SOL     OW66777   7.404   5.684   7.731 -0.0700 -0.5450 -0.0524
20912SOL    HW166778   7.489   5.726   7.739  1.3324 -2.7261 -2.0592
20912SOL    HW266779   7.346   5.752   7.696  0.9892  0.7743  0.6597
20913SOL     OW66780   9.545   1.199   0.960  0.2767 -0.1130 -0.5176
20913SOL    HW166781   9.500   1.171   0.880 -1.6928 -0.6556  0.6938
20913SOL    HW266782   9.637   1.181   0.944 -0.1421 -0.7989 -2.4161
20914SOL     OW66783   7.576   2.606   0.355  0.4494  0.1650 -0.3801
20914SOL    HW166784   7.578   2.611   0.451 -0.0734 -0.2800 -0.3400
20914SOL    HW266785   7.618   2.522   0.335  0.5346  0.2466 -0.5396
20915SOL     OW66786   8.241   6.953   8.585 -0.8747 -0.0404 -0.1698
20915SOL    HW166787   8.236   6.876   8.528 -0.2560 -0.7088  0.6503
20915SOL    HW266788   8.203   7.024   8.533 -0.0417 -0.5603 -1.5411
20916SOL     OW66789  10.053   5.533   2.799  0.2525  0.5869 -0.4448
20916SOL    HW166790  10.143   5.504   2.815 -0.8822 -2.5129  0.9749
20916SOL    HW266791  10.032   5.500   2.712 -0.3256 -1.0246  0.2849
20917SOL     OW66792   6.167   8.941   0.828  0.0172 -0.4232 -0.2786
20917SOL    HW166793   6.138   8.863   0.876 -1.2669 -0.3632 -0.9130
20917SOL    HW266794   6.235   8.909   0.769  0.7228 -0.7332  0.6759
20918SOL     OW66795   9.519   6.105   3.970  0.5519 -0.2101 -0.3688
20918SOL    HW166796   9.443   6.115   3.913  0.2227 -1.0177 -0.0775
20918SOL    HW266797   9.519   6.185   4.024 -0.9321 -0.8273  0.6173
20919SOL     OW66798   3.020   4.185   4.842 -0.4763 -0.2542  0.3390
20919SOL    HW166799   2.969   4.258   4.876  0.1587  1.0307 -1.3178
20919SOL    HW266800   3.075   4.224   4.774  2.0350 -1.7384  1.3710
20920SOL     OW66801  10.016   3.818   0.992 -0.0086  0.4997 -0.5144
20920SOL    HW166802  10.103   3.792   0.963  0.1197  1.1290 -0.6985
20920SOL    HW266803   9.987   3.883   0.928 -1.8640 -1.8593 -2.2734
20921SOL     OW66804   2.426   0.575   6.126  0.0250  0.2405 -0.1475
20921SOL    HW166805   2.362   0.630   6.082 -0.5279 -0.4083 -0.1670
20921SOL    HW266806   2.508   0.589   6.078  0.3050  2.2397  0.7939
20922SOL     OW66807   3.168   6.911   9.110  0.3086  0.1405  0.0733
20922SOL    HW166808   3.256   6.890   9.142 -0.4152 -0.8104  1.5136
20922SOL    HW266809   3.109   6.884   9.180 -1.1473  0.8647 -0.8159
20923SOL     OW66810   5.118   7.389   2.727  0.0881  0.2891 -0.2757
20923SOL    HW166811   5.126   7.406   2.821 -0.7580 -0.6713  0.0009
20923SOL    HW266812   5.081   7.300   2.722  0.8228  0.0272 -1.5330
20924SOL     OW66813   5.651   3.735   8.841 -0.6038  0.3960  0.3306
20924SOL    HW166814   5.558   3.741   8.860 -0.6076 -1.5003  1.1170
20924SOL    HW266815   5.693   3.726   8.926  0.2867  0.9268 -0.0324
20925SOL     OW66816   0.053   4.021   2.855 -0.0062  0.3353 -0.3116
20925SOL    HW166817   0.107   4.095   2.828  0.0894  0.7534  0.9675
20925SOL    HW266818  -0.019   4.060   2.904  0.3859 -0.4488  0.9275
20926SOL     OW66819   6.806   7.155   7.582 -0.3279  0.3554  0.1745
20926SOL    HW166820   6.829   7.233   7.632 -1.2303 -0.4854  1.9891
20926SOL    HW266821   6.720   7.175   7.544  1.0047  1.5930 -2.4899
20927SOL     OW66822   8.415   1.659   5.742 -0.1363  1.0879 -0.1494
20927SOL    HW166823   8.397   1.617   5.658  0.3535 -1.4428  0.9407
20927SOL    HW266824   8.507   1.639   5.760 -0.0582  2.1147  0.7445
20928SOL     OW66825   0.558   4.390   4.994 -0.2072  0.0286  0.5911
20928SOL    HW166826   0.476   4.359   5.034 -0.2866 -1.0959 -0.3993
20928SOL    HW266827   0.612   4.416   5.069 -0.2601 -2.2498  1.5039
20929SOL     OW66828   7.348   0.869   8.752 -0.7547  0.9115 -0.4070
20929SOL    HW166829   7.344   0.774   8.746  0.6078  0.8895 -1.5237
20929SOL    HW266830   7.350   0.887   8.846  0.9837 -0.3109 -0.1660
20930SOL     OW66831   2.206   3.432   7.628 -0.6258  0.4204  0.2118
20930SOL    HW166832   2.242   3.501   7.573 -2.1050  1.2497  0.2234
20930SOL    HW266833   2.200   3.355   7.571  0.3818  0.4845  0.0049
20931SOL     OW66834   0.875   9.577   8.199 -0.5863 -0.1396 -0.0615
20931SOL    HW166835   0.815   9.648   8.174  0.7003  0.9244 -0.2205
20931SOL    HW266836   0.901   9.536   8.117  0.6216  0.8570 -0.2066
20932SOL     OW66837   6.250   3.969   1.387 -0.2356  0.2047  0.3174
20932SOL    HW166838   6.287   4.056   1.401 -0.6503  0.6687 -1.2314
20932SOL    HW266839   6.212   3.973   1.299 -0.2155 -1.5636  0.1916
20933SOL     OW66840   9.003   4.824   5.583 -0.1749 -0.8858 -0.1577
20933SOL    HW166841   9.007   4.746   5.528  0.4987 -0.3714 -0.8616
20933SOL    HW266842   9.022   4.792   5.671 -1.2071 -1.7132 -0.2113
20934SOL     OW66843   7.312   6.514  10.237 -0.3677 -0.3252 -0.3261
20934SOL    HW166844   7.352   6.429  10.252 -0.5918 -0.5291 -0.8783
20934SOL    HW266845   7.322   6.529  10.143  1.6763  1.2508  0.0609
20935SOL     OW66846   2.117   6.478   0.276  0.4831 -0.1119  0.1227
20935SOL    HW166847   2.113   6.456   0.369 -1.5261  1.9922  0.6040
20935SOL    HW266848   2.035   6.445   0.240  0.6668  0.2465 -0.6341
20936SOL     OW66849   5.956   5.990   3.056  0.2602  0.1840 -0.8681
20936SOL    HW166850   5.960   5.895   3.062 -1.1492  0.1757  1.1768
20936SOL    HW266851   5.901   6.008   2.980 -0.0053 -0.6445 -0.8769
20937SOL     OW66852   2.917   1.435   9.206 -0.2889  0.1773  0.5594
20937SOL    HW166853   2.885   1.368   9.266 -2.6929  1.9913  1.4724
20937SOL    HW266854   2.982   1.485   9.256  0.2791 -0.4127  0.4271
20938SOL     OW66855   9.376   8.549   0.144 -0.1838 -0.1661  0.7094
20938SOL    HW166856   9.337   8.626   0.184  0.0468  0.2789  0.0816
20938SOL    HW266857   9.328   8.538   0.062  0.9643  0.3587 -0.0439
20939SOL     OW66858   3.296   3.518   1.875 -0.1219 -0.1245  0.0278
20939SOL    HW166859   3.382   3.478   1.864  0.1208  0.3702  0.1098
20939SOL    HW266860   3.262   3.482   1.957  0.3198  0.2421  0.3733
20940SOL     OW66861   2.215   3.271   1.487 -0.4095 -0.5021 -0.4481
20940SOL    HW166862   2.170   3.242   1.407  0.6301 -0.5597 -1.0354
20940SOL    HW266863   2.281   3.333   1.456  0.0990 -0.6296  0.3484
20941SOL     OW66864   6.840   9.755   2.282 -0.3708  0.1755 -0.0729
20941SOL    HW166865   6.818   9.845   2.262  2.3886  0.9188 -0.2450
20941SOL    HW266866   6.862   9.755   2.375 -1.2610 -0.5404  0.1501
20942SOL     OW66867   6.494   1.116   3.357 -0.2132  0.9276 -0.0126
20942SOL    HW166868   6.555   1.051   3.321 -1.3115 -0.4047  0.4288
20942SOL    HW266869   6.494   1.099   3.451 -3.9619 -1.7253 -0.2501
20943SOL     OW66870   1.729   8.841   6.183 -0.5056  0.1891  0.0103
20943SOL    HW166871   1.755   8.835   6.091  0.4996 -0.4433  0.3151
20943SOL    HW266872   1.779   8.772   6.226 -3.2488 -1.6648  0.5412
20944SOL     OW66873   4.609   0.214   6.390 -0.1838  0.0893 -0.1408
20944SOL    HW166874   4.582   0.295   6.434  0.1844  0.1522 -0.0264
20944SOL    HW266875   4.681   0.241   6.333  0.8891 -0.3889  0.9279
20945SOL     OW66876   7.431   5.439   3.721 -0.2142 -0.1720 -0.5283
20945SOL    HW166877   7.509   5.420   3.668  0.8189  0.1109  0.8365
20945SOL    HW266878   7.393   5.517   3.681 -2.3169 -2.6116 -3.8382
20946SOL     OW66879   6.900   6.681   2.204  0.6128  0.4796 -0.5096
20946SOL    HW166880   6.907   6.599   2.254  2.0449  1.3761  0.8676
20946SOL    HW266881   6.989   6.717   2.206  0.1224  1.8138 -1.5357
20947SOL     OW66882   7.520   2.056   1.499  0.4033 -0.3297 -0.3965
20947SOL    HW166883   7.603   2.040   1.542  1.3061  0.8186 -1.6237
20947SOL    HW266884   7.535   2.032   1.407 -0.7974 -0.6646 -0.5284
20948SOL     OW66885   7.338   4.743   0.735 -0.4965  0.0406  0.0008
20948SOL    HW166886   7.432   4.758   0.721 -0.6001  1.3414  0.5445
20948SOL    HW266887   7.329   4.739   0.831 -1.0704  0.5271 -0.0294
20949SOL     OW66888   7.917   9.034   2.059  0.0891 -0.5851 -0.3799
20949SOL    HW166889   7.963   9.114   2.033 -0.4426 -0.1853 -0.1190
20949SOL    HW266890   7.881   8.999   1.978 -1.5501  0.6448 -0.2350
20950SOL     OW66891   3.808   0.092   7.405  0.1740  0.2190  0.2714
20950SOL    HW166892   3.844   0.009   7.372  1.0349  0.8469 -0.3977
20950SOL    HW266893   3.811   0.083   7.501 -0.4028 -0.7972  0.2046
20951SOL     OW66894   5.370   1.339   5.482  0.3671  0.4499  0.4446
20951SOL    HW166895   5.329   1.305   5.561 -2.9332 -0.9689 -1.6658
20951SOL    HW266896   5.351   1.433   5.484  0.6594  0.4983  1.4835
20952SOL     OW66897   8.049   8.759   0.917 -0.0333  0.2821  0.2164
20952SOL    HW166898   8.134   8.729   0.949  0.0274 -1.1079 -1.1367
20952SOL    HW266899   7.992   8.683   0.927 -0.9851  1.0229  0.5475
20953SOL     OW66900   8.189   7.027   1.509  0.6729  0.0469 -0.5229
20953SOL    HW166901   8.214   6.988   1.593 -1.2655  1.9244  1.0355
20953SOL    HW266902   8.110   6.979   1.483  0.4548  0.3975 -0.5214
20954SOL     OW66903   0.038   5.056   9.497  0.7024 -1.0385 -0.2970
20954SOL    HW166904   0.073   5.016   9.417 -0.4996 -2.1066 -0.3199
20954SOL    HW266905   0.065   5.147   9.491 -0.6955 -0.6963 -2.7468
20955SOL     OW66906   6.917   4.234   0.585  0.2131 -0.3048 -0.6958
20955SOL    HW166907   7.005   4.245   0.621 -0.1484  0.8964 -0.1359
20955SOL    HW266908   6.890   4.321   0.558 -1.2753 -0.4131  0.2918
20956SOL     OW66909   2.086   0.337   2.510 -0.2802  0.1159 -0.2941
20956SOL    HW166910   2.129   0.259   2.476 -2.1033 -1.5893  1.0568
20956SOL    HW266911   2.155   0.387   2.552  1.3462  0.4343 -3.1039
20957SOL     OW66912   4.883   8.341   2.811 -0.1129  0.6907  0.3091
20957SOL    HW166913   4.964   8.371   2.852  1.1156  0.0050 -1.5238
20957SOL    HW266914   4.908   8.265   2.759 -1.8572  0.6719 -0.5838
20958SOL     OW66915   5.564   8.860   5.319  0.4503 -0.3013  0.3455
20958SOL    HW166916   5.611   8.816   5.390  0.4949 -1.3878 -0.3359
20958SOL    HW266917   5.628   8.865   5.248 -0.1737 -0.9772 -0.2784
20959SOL     OW66918   4.557   9.547   4.347 -0.3699  0.1943 -0.3813
20959SOL    HW166919   4.554   9.571   4.254  1.9398  0.3338 -0.4846
20959SOL    HW266920   4.618   9.473   4.351 -0.3775  0.2314  1.0361
20960SOL     OW66921   3.758   0.522   1.893  0.6050  0.2444  0.6670
20960SOL    HW166922   3.840   0.528   1.844 -0.1565  0.0451 -0.6894
20960SOL    HW266923   3.751   0.429   1.915 -0.2006 -0.1276 -0.9819
20961SOL     OW66924   9.746   9.503  10.176  0.2823 -0.3989 -0.4302
20961SOL    HW166925   9.705   9.439  10.234  0.2419 -0.1333 -0.1631
20961SOL    HW266926   9.703   9.586  10.197  0.2579 -0.3018 -0.8512
20962SOL     OW66927   6.843   5.754   9.378  0.5088  0.2050  0.5366
20962SOL    HW166928   6.801   5.669   9.363  0.0250  1.0277 -3.9840
20962SOL    HW266929   6.937   5.734   9.379  0.3933 -0.4421 -0.2761
20963SOL     OW66930   4.918   3.956   3.677 -0.1689  0.0956  0.4874
20963SOL    HW166931   5.008   3.926   3.687 -0.0310  0.4848  0.4582
20963SOL    HW266932   4.905   3.962   3.582 -0.5087 -0.7734  0.4690
20964SOL     OW66933   7.507   8.742   4.380 -0.1852  0.7086 -0.9673
20964SOL    HW166934   7.433   8.685   4.396 -0.9229  1.4016 -1.8215
20964SOL    HW266935   7.579   8.683   4.357 -0.2775 -0.0034  0.4232
20965SOL     OW66936   5.911   6.335   7.412 -0.0833  0.4940 -0.4034
20965SOL    HW166937   5.874   6.247   7.405 -0.4425  0.5814  0.3185
20965SOL    HW266938   5.878   6.381   7.334  0.7278 -0.2176 -1.1871
20966SOL     OW66939   7.759   3.535   6.227  0.2051  0.5460 -0.2042
20966SOL    HW166940   7.710   3.456   6.247  3.3433 -1.3760  0.6332
20966SOL    HW266941   7.838   3.529   6.280  1.9935  2.7433 -2.3248
20967SOL     OW66942   9.785   1.686   4.713 -0.2123 -0.0669 -0.2845
20967SOL    HW166943   9.721   1.618   4.692 -1.9648  1.1983  0.7199
20967SOL    HW266944   9.845   1.686   4.639  0.3630 -3.2254  0.0375
20968SOL     OW66945   9.710   0.632   5.270 -0.3699  0.0439 -0.1464
20968SOL    HW166946   9.677   0.690   5.202 -0.8464  0.3983  0.3787
20968SOL    HW266947   9.752   0.560   5.222 -1.9238 -0.4424 -0.8515
20969SOL     OW66948   4.890   9.665   8.195  0.2931 -0.3255 -0.6846
20969SOL    HW166949   4.866   9.573   8.205  1.5019 -0.5485  0.4623
20969SOL    HW266950   4.814   9.705   8.153 -1.1119 -1.4366  0.6702
20970SOL     OW66951   0.186   1.418   2.225  0.5814  0.1758  0.3494
20970SOL    HW166952   0.128   1.352   2.186 -1.1350  1.6912  0.2205
20970SOL    HW266953   0.166   1.499   2.177  0.8814  1.3218  2.0825
20971SOL     OW66954   6.538   8.046   5.147 -0.0583 -0.0151  0.0272
20971SOL    HW166955   6.633   8.042   5.156 -0.1882  0.0330  1.7546
20971SOL    HW266956   6.519   8.137   5.125  0.4216 -0.5239 -2.8029
20972SOL     OW66957   7.968   0.137   6.098  0.2290 -0.0990  0.5783
20972SOL    HW166958   7.897   0.199   6.079  0.9892  0.6200  0.0311
20972SOL    HW266959   7.924   0.062   6.138 -0.8614  0.2619  0.0955
20973SOL     OW66960   8.655   6.077   8.569 -0.2728 -0.1196  0.5475
20973SOL    HW166961   8.690   5.996   8.531  0.5859  0.3890  0.2440
20973SOL    HW266962   8.698   6.147   8.521 -0.4774  0.5316  1.2955
20974SOL     OW66963   9.972   8.327  10.265  0.4816 -0.0288 -0.0170
20974SOL    HW166964   9.947   8.386  10.337 -0.2646 -1.5901  1.0529
20974SOL    HW266965   9.899   8.266  10.257  2.0066 -1.9881  0.2097
20975SOL     OW66966   9.836   7.294   0.268 -0.0554  0.1937 -0.5329
20975SOL    HW166967   9.790   7.378   0.269  0.4533  0.4836 -0.8486
20975SOL    HW266968   9.813   7.255   0.184  0.1014  0.2461 -0.6017
20976SOL     OW66969   8.102   2.379   2.016 -0.2423 -0.3704  0.2371
20976SOL    HW166970   8.021   2.328   2.012 -1.2086  1.1588 -1.2134
20976SOL    HW266971   8.078   2.459   2.063  0.6694 -0.2880  0.5816
20977SOL     OW66972  10.228  10.050   8.583 -0.6440 -0.1770  0.4391
20977SOL    HW166973  10.323  10.049   8.576 -0.6894  1.5495 -1.1971
20977SOL    HW266974  10.210  10.022   8.673  1.4125 -0.0316  0.9467
20978SOL     OW66975   5.001   6.453   0.294 -0.0542  0.1086 -0.1148
20978SOL    HW166976   4.942   6.525   0.269 -0.6483  0.1101  1.1940
20978SOL    HW266977   4.994   6.391   0.222 -1.7598  0.0596  0.0399
20979SOL     OW66978   9.197   1.125   5.036 -0.2847 -0.5498 -0.9618
20979SOL    HW166979   9.167   1.215   5.028  1.0845 -0.1484 -1.8810
20979SOL    HW266980   9.167   1.097   5.122  1.2311  1.5490  0.3356
20980SOL     OW66981   3.265   9.040   0.277 -0.2671  0.2476  0.3620
20980SOL    HW166982   3.278   9.131   0.251 -2.3267  0.5910  0.3535
20980SOL    HW266983   3.335   9.023   0.340  0.9686  1.3891 -0.6455
20981SOL     OW66984   8.403   4.527   8.222 -0.1423  0.2686  0.5856
20981SOL    HW166985   8.452   4.608   8.206 -1.2219  1.0342  1.0111
20981SOL    HW266986   8.448   4.485   8.295 -1.1703  1.9131  2.2568
20982SOL     OW66987   6.145   8.863   6.265  0.3168 -0.2636 -0.4278
20982SOL    HW166988   6.145   8.954   6.294  0.9202 -0.1482 -0.7707
20982SOL    HW266989   6.064   8.855   6.214  1.3073  0.7300 -2.2989
20983SOL     OW66990   4.983   6.518   1.033 -0.0711  0.0719 -0.3977
20983SOL    HW166991   5.029   6.478   0.959  0.3328  0.7916 -0.5532
20983SOL    HW266992   4.924   6.450   1.065 -0.3244 -0.2162 -1.4504
20984SOL     OW66993   7.541   5.634   0.642  0.3670  0.1004  0.4071
20984SOL    HW166994   7.468   5.608   0.585  1.7124 -0.6232 -1.0800
20984SOL    HW266995   7.551   5.561   0.703 -0.6029  0.5392  1.1099
20985SOL     OW66996   5.880   1.781   0.650  0.6051  0.4350 -0.0955
20985SOL    HW166997   5.960   1.776   0.703 -0.7031 -1.3840  1.8719
20985SOL    HW266998   5.881   1.701   0.598 -1.1169 -1.0415  1.9346
20986SOL     OW66999   7.418   8.465   7.239 -0.2563 -0.1956 -0.3350
20986SOL    HW167000   7.410   8.492   7.330 -0.2387 -3.0998  0.6034
20986SOL    HW267001   7.328   8.464   7.206 -0.5617 -1.6941  0.4831
20987SOL     OW67002   2.731   6.737   5.364 -0.5489  0.2084  0.1034
20987SOL    HW167003   2.673   6.800   5.321 -0.8147  0.1115  0.3143
20987SOL    HW267004   2.818   6.759   5.332 -0.8578 -0.5588 -1.3388
20988SOL     OW67005   1.255   4.209   7.071  0.1380  0.4199  0.5925
20988SOL    HW167006   1.167   4.199   7.107 -0.7729  0.6896 -1.4156
20988SOL    HW267007   1.256   4.297   7.032  1.6090  0.7738  1.3449
20989SOL     OW67008   7.227   5.401   3.158 -0.1124  0.0323 -0.4540
20989SOL    HW167009   7.149   5.456   3.153 -2.5281 -3.1068 -0.4987
20989SOL    HW267010   7.229   5.353   3.076  1.2224 -0.8252  0.0363
20990SOL     OW67011   2.392   3.044   3.842 -0.0979 -0.0341  0.0141
20990SOL    HW167012   2.408   3.078   3.930 -0.5171  0.6723 -0.1820
20990SOL    HW267013   2.474   3.060   3.795 -0.0531  0.0591  0.1245
20991SOL     OW67014   4.205   5.102   5.375  0.3594  0.3299 -0.1988
20991SOL    HW167015   4.222   5.008   5.369  0.7650  0.2633  1.5744
20991SOL    HW267016   4.288   5.143   5.349  0.8601  0.1357  1.0243
20992SOL     OW67017   7.649   5.765  10.042  0.1429  0.0272 -0.4601
20992SOL    HW167018   7.712   5.761  10.115 -0.6810 -0.5218  0.2329
20992SOL    HW267019   7.704   5.775   9.964  1.0023  1.6516  0.3123
20993SOL     OW67020   5.552   0.313   0.524  0.2577 -0.1927 -0.6979
20993SOL    HW167021   5.523   0.297   0.614  0.3806  0.7824 -0.4818
20993SOL    HW267022   5.484   0.369   0.487  1.4774  1.5340 -0.4094
20994SOL     OW67023   6.683   4.555   4.325 -0.1280 -0.5370 -0.3924
20994SOL    HW167024   6.727   4.500   4.391 -1.3667 -0.6546  0.3620
20994SOL    HW267025   6.753   4.611   4.291  0.7540 -1.1999  0.2579
20995SOL     OW67026   2.939   2.715   1.378  0.1890 -0.4058 -0.4016
20995SOL    HW167027   2.897   2.630   1.369 -1.4453  0.3312 -0.1673
20995SOL    HW267028   2.999   2.705   1.452 -2.4206 -0.5165  1.8815
20996SOL     OW67029   6.715   4.560   4.018 -0.0388 -0.0838 -0.0060
20996SOL    HW167030   6.711   4.542   4.112 -2.3596  0.0912  0.0045
20996SOL    HW267031   6.648   4.502   3.980 -1.1347  1.8446 -1.1667
20997SOL     OW67032   9.159   0.285  10.044 -0.1068 -0.0663  0.0908
20997SOL    HW167033   9.143   0.330  10.127  1.1807  0.7533 -0.0734
20997SOL    HW267034   9.071   0.268  10.009 -0.7246 -1.5126  2.1469
20998SOL     OW67035   0.347   2.885   4.633 -0.9048  0.0274 -0.2002
20998SOL    HW167036   0.370   2.812   4.690  0.6497 -1.0003 -2.0306
20998SOL    HW267037   0.259   2.864   4.601  0.1385 -1.9807 -1.9868
20999SOL     OW67038   7.963   3.510   0.733 -0.3932 -0.3194 -0.4294
20999SOL    HW167039   7.902   3.567   0.686  1.2088 -0.0747 -2.3125
20999SOL    HW267040   8.039   3.564   0.750  0.3310 -1.3161 -0.4110
21000SOL     OW67041   8.518   7.976   3.652  0.5719  0.0509 -0.0613
21000SOL    HW167042   8.535   8.063   3.688 -0.3145  0.4410 -0.5553
21000SOL    HW267043   8.597   7.926   3.672  0.6203  0.6267  1.2655
21001SOL     OW67044   7.436   5.962  10.012 -0.5937 -0.2483  0.1037
21001SOL    HW167045   7.513   5.905  10.015 -0.3226  0.0715 -0.5697
21001SOL    HW267046   7.363   5.905  10.038 -0.1994 -0.6609  0.3282
21002SOL     OW67047   6.424   3.039   9.396  0.3094 -0.0444  0.1366
21002SOL    HW167048   6.399   2.979   9.326  1.4102  0.3280 -0.5946
21002SOL    HW267049   6.431   3.124   9.354  1.9357  0.0193  0.4539
21003SOL     OW67050   6.656   9.100   7.174 -0.3966  0.1002  0.1174
21003SOL    HW167051   6.649   9.101   7.078  2.7490 -2.1938 -0.3147
21003SOL    HW267052   6.749   9.115   7.191 -0.7396 -0.3472  2.7964
21004SOL     OW67053   8.448   7.058   3.446  0.2579  0.3271 -0.6475
21004SOL    HW167054   8.445   7.154   3.454  0.3851  0.2308  0.6960
21004SOL    HW267055   8.362   7.034   3.413 -1.1727  0.6257  2.5033
21005SOL     OW67056   0.111   1.948   5.174 -0.7099  0.4534  0.2033
21005SOL    HW167057   0.124   1.887   5.246 -1.4375  0.4939  0.3793
21005SOL    HW267058   0.198   1.979   5.152 -0.4812  0.4320  1.0575
21006SOL     OW67059   8.733   9.594   5.209 -0.3586  0.0446 -0.2294
21006SOL    HW167060   8.723   9.507   5.169 -0.1323  0.0158 -0.2263
21006SOL    HW267061   8.791   9.579   5.283  0.2199  0.3123 -0.6160
21007SOL     OW67062   8.707   2.390   8.272  0.2047 -0.2627 -0.4830
21007SOL    HW167063   8.624   2.342   8.265 -0.3538  0.5670  0.2076
21007SOL    HW267064   8.752   2.372   8.190 -0.9731 -0.1672 -1.1850
21008SOL     OW67065   5.190   0.786   4.771 -0.3037 -0.5229  0.5342
21008SOL    HW167066   5.246   0.717   4.804  0.2268  0.1874  1.1433
21008SOL    HW267067   5.129   0.805   4.842 -0.8909 -0.8321  0.1194
21009SOL     OW67068   7.703   0.696   0.667 -0.7771 -0.3831  0.0619
21009SOL    HW167069   7.676   0.659   0.583 -1.5609  0.3954 -0.0441
21009SOL    HW267070   7.798   0.688   0.667 -0.8446 -1.3415 -0.4415
21010SOL     OW67071   9.094   3.548   5.479 -0.2245  0.0075  0.0190
21010SOL    HW167072   9.188   3.558   5.494 -0.2159  0.2967 -0.2076
21010SOL    HW267073   9.055   3.627   5.518 -0.5194 -0.7913  1.3879
21011SOL     OW67074   6.005   0.846   0.454  0.3528 -0.1925  0.2590
21011SOL    HW167075   5.917   0.864   0.487 -0.4252 -2.4289 -0.4042
21011SOL    HW267076   6.010   0.895   0.372 -0.4927 -0.4193  0.0543
21012SOL     OW67077   7.316   8.494   9.540 -0.0215  0.5888 -0.3137
21012SOL    HW167078   7.321   8.453   9.626  2.2597 -0.6525 -0.9449
21012SOL    HW267079   7.223   8.509   9.525 -0.6558 -1.2535  1.4137
21013SOL     OW67080   4.565   1.834   5.714  0.3653 -0.2915 -0.2303
21013SOL    HW167081   4.547   1.740   5.710  0.7973 -0.3492 -1.2331
21013SOL    HW267082   4.504   1.868   5.779 -0.0047 -1.2195 -0.0820
21014SOL     OW67083   6.046   9.917  10.057  0.0028  0.5487  0.0877
21014SOL    HW167084   6.134   9.954  10.052 -0.2624  1.0319 -1.5399
21014SOL    HW267085   5.989   9.986  10.022 -1.0059  0.1675  0.9209
21015SOL     OW67086   2.631   6.090   4.116  0.1630 -0.1136  0.0654
21015SOL    HW167087   2.558   6.111   4.058  0.5907 -1.9047 -1.1928
21015SOL    HW267088   2.599   6.111   4.203 -1.5555 -0.0565 -0.5391
21016SOL     OW67089   9.481   8.364   8.298 -0.5660 -0.0106 -0.1421
21016SOL    HW167090   9.426   8.286   8.292 -0.7073  0.1564 -1.2690
21016SOL    HW267091   9.419   8.435   8.315 -0.4859 -0.0803  0.4483
21017SOL     OW67092   3.781   0.402   5.603  0.1650  0.0388  0.0085
21017SOL    HW167093   3.875   0.412   5.616  0.4993 -1.6368 -0.8845
21017SOL    HW267094   3.771   0.389   5.509 -1.0492  0.8871 -0.0055
21018SOL     OW67095   0.665   4.904   1.895 -0.1209  0.3661  0.1972
21018SOL    HW167096   0.723   4.977   1.877  0.5512 -0.0800  0.5300
21018SOL    HW267097   0.682   4.841   1.825  0.7550 -0.3246  0.9936
21019SOL     OW67098   4.384   0.950   3.444 -0.6601 -0.7584  0.2468
21019SOL    HW167099   4.399   0.862   3.410 -0.2071 -0.7855  0.4997
21019SOL    HW267100   4.443   0.957   3.519  1.5047  0.7726 -1.4462
21020SOL     OW67101   3.097   7.876   1.452  0.1951 -0.2231 -0.6093
21020SOL    HW167102   3.183   7.881   1.493  0.2977  1.4984 -0.9797
21020SOL    HW267103   3.087   7.784   1.429  1.9173 -0.4611 -0.5337
21021SOL     OW67104   3.259   1.236   3.665 -0.0938 -0.3164  0.2789
21021SOL    HW167105   3.212   1.274   3.739 -1.1981 -0.9046 -0.0933
21021SOL    HW267106   3.349   1.228   3.695 -0.1181  1.2218  0.8713
21022SOL     OW67107   0.200   9.111   1.527 -0.0522  0.6982 -0.3197
21022SOL    HW167108   0.154   9.069   1.454  0.3086  0.9989 -0.7234
21022SOL    HW267109   0.197   9.204   1.507 -0.6976  0.8569  0.4891
21023SOL     OW67110   9.356   2.264   8.759  0.2698  0.2625 -0.3993
21023SOL    HW167111   9.447   2.274   8.732  0.1962 -0.7985 -1.0940
21023SOL    HW267112   9.357   2.186   8.815 -0.0148  0.9748  0.6405
21024SOL     OW67113   6.618   0.565   5.700  0.7421 -0.2262 -1.0157
21024SOL    HW167114   6.596   0.652   5.667  0.7954 -0.6163 -2.1157
21024SOL    HW267115   6.710   0.553   5.676  0.3502 -1.1381 -2.1521
21025SOL     OW67116   6.717   9.330  10.243  0.9250 -0.0485  0.3571
21025SOL    HW167117   6.774   9.349  10.168  1.1121  0.2365  0.5727
21025SOL    HW267118   6.774   9.282  10.304  0.8579 -0.0044  0.4541
21026SOL     OW67119   8.821   5.655   5.643 -0.3003 -0.0392  0.0708
21026SOL    HW167120   8.808   5.737   5.691 -2.0964 -0.3821  0.2045
21026SOL    HW267121   8.794   5.587   5.704 -0.6500 -0.6039 -0.7117
21027SOL     OW67122   1.552   1.397   3.099 -0.5882  0.2184 -0.1364
21027SOL    HW167123   1.563   1.381   3.005  1.0979  1.2563 -0.1682
21027SOL    HW267124   1.504   1.321   3.132  0.1182 -0.8828 -1.5733
21028SOL     OW67125  10.242   6.260   0.073  0.3131 -0.4775 -0.8436
21028SOL    HW167126  10.234   6.230  -0.017 -0.3687  1.2350 -1.3857
21028SOL    HW267127  10.236   6.355   0.068 -1.5487 -0.3993  1.1619
21029SOL     OW67128   9.715   6.943   6.832  0.6478 -0.2916  0.2991
21029SOL    HW167129   9.646   6.982   6.885  0.7566  0.2632  0.0331
21029SOL    HW267130   9.781   7.011   6.824 -0.0490  0.2007 -1.8353
21030SOL     OW67131   9.352   2.376   4.860 -0.4148  0.7128 -0.0083
21030SOL    HW167132   9.341   2.342   4.771 -0.3539  2.3808 -0.6877
21030SOL    HW267133   9.428   2.329   4.894 -0.3110  0.1960 -0.9116
21031SOL     OW67134   5.476   6.997   5.337 -0.4506 -0.2250 -0.1344
21031SOL    HW167135   5.513   6.918   5.376  1.7150  0.6410 -0.3094
21031SOL    HW267136   5.414   6.964   5.272 -0.2096 -1.7649  0.3603
21032SOL     OW67137   2.696   7.911   8.328  0.4130 -0.1477  0.2193
21032SOL    HW167138   2.760   7.840   8.324  0.9106  0.2933  0.2102
21032SOL    HW267139   2.703   7.943   8.418 -0.5732 -0.7957  0.5423
21033SOL     OW67140   2.060   7.932   1.948 -0.1433  0.0084 -0.2115
21033SOL    HW167141   2.112   8.012   1.946  1.3692 -0.9441  0.1780
21033SOL    HW267142   1.970   7.963   1.957  0.5731  1.6276  2.3377
21034SOL     OW67143   0.909  10.134   2.619 -0.4577 -0.0330 -0.2383
21034SOL    HW167144   0.995  10.108   2.588 -0.4120  1.1311 -1.1788
21034SOL    HW267145   0.849  10.068   2.583  0.0241 -0.9001  0.5013
21035SOL     OW67146   7.051   7.354   3.570  0.2172  0.1269 -0.2228
21035SOL    HW167147   6.971   7.379   3.616  0.0889  0.4412 -0.6068
21035SOL    HW267148   7.035   7.265   3.541 -1.0706  1.0151 -2.5397
21036SOL     OW67149   5.202   7.179   6.039 -0.3155 -1.2136 -0.4356
21036SOL    HW167150   5.283   7.229   6.037 -0.5253 -0.7656  0.8388
21036SOL    HW267151   5.229   7.090   6.061 -0.2896 -0.5743  2.5884
21037SOL     OW67152   4.557   6.165  10.240 -0.3339  0.3709  0.1245
21037SOL    HW167153   4.609   6.185  10.162  0.3984 -1.7194  0.0161
21037SOL    HW267154   4.615   6.111  10.294 -1.5477  0.0510  1.1479
21038SOL     OW67155   7.705   6.547   8.031 -0.4675 -0.8156  0.1129
21038SOL    HW167156   7.728   6.639   8.023 -2.5489 -0.3048 -0.5093
21038SOL    HW267157   7.778   6.500   7.990 -0.7130  0.6999 -2.1992
21039SOL     OW67158   4.273   1.986   3.078 -0.2367 -0.3813  0.3864
21039SOL    HW167159   4.339   1.954   3.139 -2.9409 -3.4695  2.0208
21039SOL    HW267160   4.202   1.923   3.085 -3.0635  2.2522 -1.8326
21040SOL     OW67161   9.449   8.692   2.387  0.1566  0.4422 -0.1688
21040SOL    HW167162   9.393   8.755   2.342 -1.4362 -0.1083  0.9697
21040SOL    HW267163   9.401   8.610   2.385  1.3993 -0.3199 -0.0529
21041SOL     OW67164   7.546   5.468   0.312 -0.3531 -0.1434 -0.3381
21041SOL    HW167165   7.520   5.558   0.291 -0.8737  0.7200  3.3070
21041SOL    HW267166   7.641   5.468   0.309 -0.2102  1.3229  1.9748
21042SOL     OW67167   2.631   1.040   7.933  0.0237  0.4284  0.3963
21042SOL    HW167168   2.566   1.023   8.001 -0.6103 -1.9784 -0.7012
21042SOL    HW267169   2.715   1.031   7.977 -0.2731  3.5410  1.8235
21043SOL     OW67170   0.761   9.025   3.092  0.2920 -0.5265  0.6097
21043SOL    HW167171   0.737   9.115   3.112  0.3687 -0.5106  0.6305
21043SOL    HW267172   0.856   9.021   3.109  0.4397 -0.3958 -0.1622
21044SOL     OW67173   0.053   5.113   0.586  0.0399 -0.2855  0.7193
21044SOL    HW167174   0.071   5.020   0.575  0.0064 -0.2422  0.2717
21044SOL    HW267175  -0.007   5.135   0.514  0.7315  0.2714  0.2968
21045SOL     OW67176   5.350   0.971   8.313  0.2503 -0.1150  0.2413
21045SOL    HW167177   5.371   0.947   8.403 -0.5843 -1.6495  0.0531
21045SOL    HW267178   5.415   1.037   8.290 -0.8153  1.9648  2.6719
21046SOL     OW67179   7.918   5.753   6.039  0.0004  0.2321 -0.3418
21046SOL    HW167180   8.008   5.781   6.019  0.1643 -0.0437 -0.0054
21046SOL    HW267181   7.917   5.742   6.134  0.4475 -2.5548 -0.5751
21047SOL     OW67182   9.356   4.252   0.116  0.0427 -0.1028 -0.5806
21047SOL    HW167183   9.279   4.212   0.157  0.9812 -0.6277  0.7506
21047SOL    HW267184   9.343   4.346   0.125 -1.8584 -0.0386 -3.1020
21048SOL     OW67185   8.046   5.479   2.810 -0.0885 -0.1185 -0.1539
21048SOL    HW167186   8.108   5.410   2.833 -0.1638 -0.7862 -1.7622
21048SOL    HW267187   8.090   5.560   2.834  1.9123 -0.5080 -2.1077
21049SOL     OW67188   2.097   1.289   1.064  0.0096 -0.1981 -0.5837
21049SOL    HW167189   2.007   1.322   1.054 -0.2045 -0.4499  0.4840
21049SOL    HW267190   2.151   1.364   1.041 -0.4841  0.7058  1.0196
21050SOL     OW67191   6.614   4.021   0.418  0.6033  0.6076  0.2090
21050SOL    HW167192   6.709   4.026   0.429  0.8137 -1.2477 -0.3510
21050SOL    HW267193   6.602   3.993   0.327 -0.4797  0.5173  0.3681
21051SOL     OW67194   0.876   6.457   6.725  0.1596  0.0646  0.7989
21051SOL    HW167195   0.931   6.456   6.804 -0.3839 -0.6799  1.1839
21051SOL    HW267196   0.791   6.423   6.755 -0.2981  0.5415  0.0632
21052SOL     OW67197   0.718   0.725   3.845  0.0711  0.2812 -0.4293
21052SOL    HW167198   0.732   0.791   3.914  0.9328 -0.6566  0.3219
21052SOL    HW267199   0.697   0.777   3.768 -2.7682  1.3098  0.8992
21053SOL     OW67200   7.859   0.289   8.869 -0.3605 -0.2328 -0.0631
21053SOL    HW167201   7.882   0.360   8.930 -0.8097 -1.0611  1.1147
21053SOL    HW267202   7.766   0.302   8.851  0.0395  0.7051 -1.5440
21054SOL     OW67203   0.943   7.836   7.484  0.4057 -0.3962 -0.8627
21054SOL    HW167204   0.869   7.780   7.507 -0.1002  0.6918  0.3036
21054SOL    HW267205   1.020   7.788   7.517 -0.0718 -0.1806  0.6702
21055SOL     OW67206   0.024   0.928   9.328 -0.3667 -0.7091  0.1681
21055SOL    HW167207  -0.056   0.975   9.305  1.4995  1.9211 -1.6037
21055SOL    HW267208   0.055   0.971   9.408  2.2644  2.7279 -2.3842
21056SOL     OW67209   0.344   6.317   7.613  0.2043 -0.3600  0.1489
21056SOL    HW167210   0.372   6.251   7.676 -0.2434  0.7506  1.5544
21056SOL    HW267211   0.283   6.373   7.661 -0.2165  0.4836 -1.2943
21057SOL     OW67212   4.798   0.986   0.691 -0.1213 -0.1044  0.1710
21057SOL    HW167213   4.894   0.992   0.695 -0.0252 -1.1437 -0.4442
21057SOL    HW267214   4.775   0.927   0.763 -0.2540 -0.2917 -0.0249
21058SOL     OW67215   6.769   7.702   1.507 -0.0843  0.2977 -0.2613
21058SOL    HW167216   6.778   7.651   1.588  1.4199 -1.2792 -1.3360
21058SOL    HW267217   6.842   7.764   1.509  0.2645 -0.0949 -0.6303
21059SOL     OW67218   4.148   8.726   9.669 -0.5049 -0.1298 -0.1087
21059SOL    HW167219   4.112   8.689   9.588  0.4723  0.6386 -0.9174
21059SOL    HW267220   4.151   8.652   9.729  2.3997 -1.7819 -2.0154
21060SOL     OW67221   6.779   7.166   1.790  0.1411  0.0956 -0.1341
21060SOL    HW167222   6.789   7.136   1.700  0.6911  0.4456 -0.1990
21060SOL    HW267223   6.717   7.239   1.784 -0.1807 -0.1794 -0.1614
21061SOL     OW67224   4.254   4.607   2.426  0.1912  0.1242 -0.4456
21061SOL    HW167225   4.188   4.541   2.448  0.5524  0.1834  0.8740
21061SOL    HW267226   4.314   4.562   2.366  1.5707 -1.4748  1.9574
21062SOL     OW67227   4.836   6.135   9.393  0.3979 -0.4211  0.6381
21062SOL    HW167228   4.757   6.086   9.373  0.5638 -0.0600 -1.0907
21062SOL    HW267229   4.805   6.219   9.426 -0.2068  1.2833 -3.6162
21063SOL     OW67230   7.450   5.798   2.046  0.1029 -0.3767 -0.2091
21063SOL    HW167231   7.409   5.824   2.128 -2.2877 -0.5959 -1.2581
21063SOL    HW267232   7.421   5.708   2.032 -0.0621 -0.1387 -1.5869
21064SOL     OW67233   8.211   7.984   3.700 -0.4883 -0.2437 -0.0571
21064SOL    HW167234   8.303   7.985   3.674 -0.5204  0.8287 -0.1645
21064SOL    HW267235   8.213   7.958   3.792 -0.0280  0.4012  0.1200
21065SOL     OW67236   0.139   8.715   5.514 -0.3745 -0.3873 -0.5727
21065SOL    HW167237   0.088   8.740   5.437 -0.8613 -3.9073 -1.5882
21065SOL    HW267238   0.204   8.784   5.523 -2.1950  1.7096 -2.2696
21066SOL     OW67239   0.207   6.015   7.694  0.1742  0.0239  0.1645
21066SOL    HW167240   0.206   6.004   7.599  0.5889 -0.0368  0.1652
21066SOL    HW267241   0.205   5.926   7.729 -1.1273  0.0668  0.2330
21067SOL     OW67242   8.271   3.786   4.995 -0.0393 -0.0151  0.6290
21067SOL    HW167243   8.306   3.825   4.915 -1.3173 -1.5214 -0.7387
21067SOL    HW267244   8.348   3.755   5.043  0.6830 -0.3895 -0.7290
21068SOL     OW67245   8.767   5.863   8.440 -0.3164 -0.0777  0.6781
21068SOL    HW167246   8.737   5.813   8.364  1.5620  0.3370 -0.3972
21068SOL    HW267247   8.803   5.797   8.499  0.0497 -0.2286  0.2937
21069SOL     OW67248   1.128   9.374   0.845 -0.7420 -0.3832 -0.2922
21069SOL    HW167249   1.100   9.434   0.775  0.0512  1.0819  0.5828
21069SOL    HW267250   1.086   9.409   0.924 -1.0157 -1.5561  0.0911
21070SOL     OW67251   1.081   8.716   7.911  0.0460  0.4871 -0.5134
21070SOL    HW167252   1.076   8.620   7.921  2.8760  0.3306  0.3096
21070SOL    HW267253   1.051   8.732   7.822  0.7731 -1.3560 -1.1566
21071SOL     OW67254   3.140   0.680   7.630  0.4433  0.2686  0.3156
21071SOL    HW167255   3.178   0.733   7.699  0.4840  3.1874 -1.7706
21071SOL    HW267256   3.193   0.698   7.553 -0.4522 -1.7557 -0.8702
21072SOL     OW67257   8.426   2.172   8.760  0.4990  0.1091  0.6968
21072SOL    HW167258   8.392   2.251   8.801 -0.9472 -0.7738  1.2785
21072SOL    HW267259   8.483   2.204   8.690  0.3409  1.6475  1.2370
21073SOL     OW67260   9.621   6.712   1.358  0.1442 -0.0953  0.0098
21073SOL    HW167261   9.615   6.651   1.431 -0.8033 -1.1342 -0.8884
21073SOL    HW267262   9.618   6.656   1.280  0.2576  1.0348 -0.8338
21074SOL     OW67263   0.845   2.416   4.170 -0.0560  0.0145  0.3426
21074SOL    HW167264   0.754   2.404   4.144 -0.6041  0.0676  2.1162
21074SOL    HW267265   0.887   2.453   4.092 -1.2088 -1.3142 -0.9682
21075SOL     OW67266   0.064   9.214   1.179 -0.4197  0.2934 -0.4146
21075SOL    HW167267   0.080   9.134   1.229  0.4726 -0.6404 -2.1336
21075SOL    HW267268   0.063   9.283   1.245 -0.8322 -1.0706  1.0682
21076SOL     OW67269   1.299   2.487   5.093  0.0318  0.2366 -0.1827
21076SOL    HW167270   1.242   2.414   5.120 -0.0650  0.0696 -0.8282
21076SOL    HW267271   1.341   2.456   5.013  0.1001  0.8360 -0.3812
21077SOL     OW67272   9.126   9.747   2.813  0.3601 -0.8614  0.0082
21077SOL    HW167273   9.193   9.690   2.776  0.1717 -1.5600  0.7037
21077SOL    HW267274   9.044   9.712   2.780  0.3595  0.5208 -1.5418
21078SOL     OW67275   5.145   2.941   1.893  0.2146 -0.3850  0.4320
21078SOL    HW167276   5.174   3.029   1.919 -0.3645  0.1610 -0.7112
21078SOL    HW267277   5.215   2.883   1.923  0.5944  0.4550  1.2289
21079SOL     OW67278   7.515   0.478   7.148  0.1888  0.1533 -0.3702
21079SOL    HW167279   7.473   0.487   7.062 -0.3869  1.4172  0.0323
21079SOL    HW267280   7.447   0.442   7.204  0.6020 -0.7858 -0.4528
21080SOL     OW67281   4.671   8.514   0.084 -0.1320  0.1379  0.6407
21080SOL    HW167282   4.606   8.534   0.017 -0.3347 -0.5535  0.6260
21080SOL    HW267283   4.746   8.481   0.036  0.4023  1.3074  0.6249
21081SOL     OW67284   1.782   0.819   7.768 -0.0906  0.0932 -0.3607
21081SOL    HW167285   1.810   0.768   7.692  1.1415  0.4704 -0.1907
21081SOL    HW267286   1.838   0.789   7.839 -0.9899  0.0016  0.3210
21082SOL     OW67287   4.459   8.745   4.875 -0.5652  0.4909  0.0968
21082SOL    HW167288   4.437   8.658   4.843  1.1329 -0.1744  0.5803
21082SOL    HW267289   4.398   8.804   4.832 -0.6607 -0.7643 -1.5596
21083SOL     OW67290   4.094   9.535   3.612  0.1358  0.1382  0.1590
21083SOL    HW167291   4.113   9.543   3.518  1.2002  0.5411  0.3959
21083SOL    HW267292   4.042   9.613   3.632  1.8540  1.2837  0.3539
21084SOL     OW67293   9.597   1.651   8.159 -0.2358 -0.1031 -0.5996
21084SOL    HW167294   9.540   1.595   8.105 -1.5500  1.4491 -0.8983
21084SOL    HW267295   9.580   1.740   8.128  2.0477  0.4806 -0.3671
21085SOL     OW67296   8.755   1.992   9.676 -0.8945 -0.4977  0.2905
21085SOL    HW167297   8.683   1.948   9.721 -0.7182 -1.2599 -0.1570
21085SOL    HW267298   8.808   1.921   9.641 -0.4412  0.0748 -0.2029
21086SOL     OW67299   1.721   0.010   8.347  0.4295  0.0006 -0.0367
21086SOL    HW167300   1.797  -0.029   8.389 -0.1856 -0.3252  0.7884
21086SOL    HW267301   1.655  -0.059   8.346 -0.0604  0.4639 -0.2015
21087SOL     OW67302   1.501   6.264   1.501  0.1230 -0.2929 -0.2093
21087SOL    HW167303   1.502   6.346   1.451 -0.1477  0.5128  1.0516
21087SOL    HW267304   1.520   6.196   1.436  0.6490  0.7883 -1.2378
21088SOL     OW67305   4.529   1.624   8.286  0.5410 -0.1103 -0.3499
21088SOL    HW167306   4.496   1.605   8.374 -0.3429 -1.0167 -0.8609
21088SOL    HW267307   4.451   1.648   8.235  0.9862  0.0170 -0.9864
21089SOL     OW67308  10.273   0.711   4.039 -0.3591 -0.1473  0.0887
21089SOL    HW167309  10.252   0.681   3.950  0.0643 -1.9950  0.5685
21089SOL    HW267310  10.188   0.716   4.083 -0.3953 -1.3686  0.1889
21090SOL     OW67311   8.686   9.588   0.155 -0.3371 -0.2949  0.0947
21090SOL    HW167312   8.748   9.516   0.165  0.2400  0.1231 -0.4325
21090SOL    HW267313   8.689   9.611   0.062 -0.9037  0.0673  0.1581
21091SOL     OW67314   0.399   3.144   3.300 -0.1412 -0.6518  0.2373
21091SOL    HW167315   0.486   3.118   3.329  0.1084  0.3808  0.4453
21091SOL    HW267316   0.415   3.209   3.231 -0.7424 -0.2121  0.5065
21092SOL     OW67317   5.612   4.133   0.609 -0.0014 -0.2597 -0.5910
21092SOL    HW167318   5.644   4.051   0.572 -1.3012 -1.5080  0.9142
21092SOL    HW267319   5.519   4.136   0.583  0.1519  1.0290 -1.0911
21093SOL     OW67320   9.553   3.771   2.273 -0.3029 -0.3652 -0.7823
21093SOL    HW167321   9.611   3.820   2.331 -0.6372 -0.4818 -0.3371
21093SOL    HW267322   9.607   3.749   2.197  0.1467 -0.2207 -0.5092
21094SOL     OW67323   2.133   7.944   9.524  0.4630  0.2762 -0.2587
21094SOL    HW167324   2.126   7.863   9.575  0.7343  1.3707  1.5694
21094SOL    HW267325   2.163   8.010   9.586 -0.2000  1.9150 -1.5914
21095SOL     OW67326   5.410   6.244   5.298  0.5026  0.0497 -0.1207
21095SOL    HW167327   5.474   6.232   5.368  2.0091  0.6298 -1.3462
21095SOL    HW267328   5.388   6.337   5.302 -1.7251 -0.4684  1.4537
21096SOL     OW67329   2.004   0.027   2.726 -0.1312  0.2186 -0.7214
21096SOL    HW167330   1.925  -0.019   2.698  0.0423 -0.1011 -0.6797
21096SOL    HW267331   1.990   0.118   2.697 -1.1697  0.5090  0.5785
21097SOL     OW67332   1.755   9.405   6.585  0.4506  0.1490 -0.5816
21097SOL    HW167333   1.663   9.386   6.601  0.7075 -0.0787  0.7444
21097SOL    HW267334   1.781   9.342   6.518  0.5376 -2.4018  1.6454
21098SOL     OW67335   0.501   3.324   5.193 -0.2417 -0.4932 -0.2015
21098SOL    HW167336   0.415   3.346   5.157 -0.2674 -0.2979 -0.0229
21098SOL    HW267337   0.563   3.378   5.143 -0.4253  1.0025  1.1225
21099SOL     OW67338   7.731   3.892   4.538  0.5683  0.1899 -0.1554
21099SOL    HW167339   7.660   3.836   4.568  0.2510  0.9616  0.5759
21099SOL    HW267340   7.789   3.901   4.614  0.5310  0.9719 -0.2112
21100SOL     OW67341   2.241   9.024   6.902 -0.2894  0.0040  0.2402
21100SOL    HW167342   2.215   9.033   6.994  0.3870  1.3182  0.3383
21100SOL    HW267343   2.164   9.054   6.853 -1.2618 -2.2656  0.2890
21101SOL     OW67344   4.952   2.329   9.828  0.3326 -0.1068 -0.1339
21101SOL    HW167345   5.024   2.266   9.830  0.4594  0.0591  1.7557
21101SOL    HW267346   4.995   2.414   9.815  0.7116  0.1958  2.5409
21102SOL     OW67347   4.287   4.024   8.824 -0.3832 -0.5181 -0.4198
21102SOL    HW167348   4.333   4.046   8.905 -0.7269  0.1596 -0.4009
21102SOL    HW267349   4.258   4.108   8.789  1.9654 -0.5097 -2.6081
21103SOL     OW67350   6.288   2.425   0.609 -0.7890 -0.6023 -0.3864
21103SOL    HW167351   6.229   2.400   0.538 -0.5353  0.8456 -1.1580
21103SOL    HW267352   6.250   2.505   0.645 -0.4275 -0.8254  0.5267
21104SOL     OW67353   3.631   7.878   6.774  0.0269  0.4894 -0.2260
21104SOL    HW167354   3.652   7.796   6.730  0.2292  0.8497 -0.8155
21104SOL    HW267355   3.548   7.905   6.735 -0.5454  0.0720  0.6762
21105SOL     OW67356   6.829   9.918   1.216  0.2250 -0.5178 -0.0429
21105SOL    HW167357   6.739   9.896   1.192 -0.5004 -0.7900  2.6809
21105SOL    HW267358   6.831  10.013   1.221  0.0703 -0.5180  0.0192
21106SOL     OW67359   2.821   4.713   0.772  0.1168 -0.0997 -0.4814
21106SOL    HW167360   2.863   4.640   0.818  0.3307  0.8902  0.9635
21106SOL    HW267361   2.891   4.748   0.716  0.1078 -0.7870 -0.9333
21107SOL     OW67362  10.121   9.886   5.088  0.0187 -0.5333 -0.1945
21107SOL    HW167363  10.057   9.956   5.074 -0.6388 -1.3472 -1.5208
21107SOL    HW267364  10.176   9.888   5.010  1.4712 -0.0148  0.8206
21108SOL     OW67365   6.719   3.019  10.234 -0.1986  0.5150  0.4028
21108SOL    HW167366   6.678   2.949  10.183 -1.7151  2.1257 -0.7098
21108SOL    HW267367   6.754   3.079  10.168  0.3159  1.2463  1.3093
21109SOL     OW67368   6.926   9.837   6.835  0.2888 -0.0952  0.0394
21109SOL    HW167369   6.935   9.842   6.740 -0.4684 -2.7791 -0.2858
21109SOL    HW267370   6.841   9.794   6.848  0.4378  0.0988  1.9180
21110SOL     OW67371   9.795   5.663   8.075 -0.4393  0.7414 -0.7150
21110SOL    HW167372   9.795   5.643   8.169  0.2833  1.9202 -0.4462
21110SOL    HW267373   9.842   5.746   8.068  0.8004 -0.0384 -2.2791
21111SOL     OW67374   9.314   5.816   3.929  0.7507  0.0830 -0.4179
21111SOL    HW167375   9.336   5.909   3.918  0.6481  0.1576  0.0046
21111SOL    HW267376   9.251   5.814   4.001 -1.6118  0.0035 -2.3485
21112SOL     OW67377   0.882   8.133   6.619 -0.2182 -0.2025 -0.3890
21112SOL    HW167378   0.931   8.162   6.696 -2.0583  1.4142  0.2608
21112SOL    HW267379   0.884   8.208   6.559 -2.0219  0.0303 -0.2363
21113SOL     OW67380   9.938   5.180   2.287 -0.5887  0.1511 -0.2389
21113SOL    HW167381   9.968   5.153   2.201 -0.8576  1.9344 -0.9348
21113SOL    HW267382   9.843   5.192   2.277 -0.9481 -1.4511  0.8370
21114SOL     OW67383   3.549   8.078   8.821  0.1567  0.5918  0.1865
21114SOL    HW167384   3.459   8.047   8.818  0.2797  0.2842 -0.6515
21114SOL    HW267385   3.578   8.061   8.911  0.0221 -1.1882 -0.0698
21115SOL     OW67386   7.746   9.137   1.259  0.0845  0.1843  0.0289
21115SOL    HW167387   7.831   9.178   1.274  0.0149  0.6623 -0.8925
21115SOL    HW267388   7.748   9.110   1.168 -0.6760 -0.0059  0.0670
21116SOL     OW67389   5.233   2.161  10.039 -0.0801 -0.0643 -0.1971
21116SOL    HW167390   5.269   2.074  10.057  1.3837  0.3266 -1.0957
21116SOL    HW267391   5.197   2.155   9.951  1.7224  0.6922 -1.0522
21117SOL     OW67392   2.977   5.848   4.936  0.4896 -0.1086 -0.0523
21117SOL    HW167393   3.055   5.893   4.968 -0.1485  0.6687  0.4566
21117SOL    HW267394   3.011   5.773   4.886  1.5621  0.5346 -0.3241
21118SOL     OW67395   7.773   1.777   2.311  0.2884  0.2345  0.2479
21118SOL    HW167396   7.821   1.783   2.229 -0.4437 -0.6205 -0.2696
21118SOL    HW267397   7.837   1.798   2.378  1.7115 -1.9961 -0.3199
21119SOL     OW67398   4.007   0.685   3.639 -0.3407 -0.1745 -0.4296
21119SOL    HW167399   4.048   0.647   3.717 -1.8489 -1.2655 -0.1265
21119SOL    HW267400   4.074   0.743   3.603  0.8258 -0.5688  0.9968
21120SOL     OW67401   1.966   4.448   8.800 -0.5337 -0.1487 -0.2070
21120SOL    HW167402   1.889   4.490   8.838 -0.4623  0.5817 -0.8517
21120SOL    HW267403   2.007   4.516   8.747 -0.7377 -1.1620 -1.7391
21121SOL     OW67404   1.616   3.395   8.275  0.4608  0.0152 -0.2990
21121SOL    HW167405   1.613   3.446   8.194 -0.3786 -0.0112 -0.2901
21121SOL    HW267406   1.592   3.306   8.248  0.9134 -0.1603 -0.1398
21122SOL     OW67407   3.396   3.496   8.100 -0.4556  0.2863 -0.2843
21122SOL    HW167408   3.308   3.464   8.120 -0.4199 -0.4891 -1.2529
21122SOL    HW267409   3.430   3.526   8.183 -1.8655  1.1742  0.0038
21123SOL     OW67410   2.522   4.190   4.612 -0.0588  0.3572 -0.2614
21123SOL    HW167411   2.560   4.234   4.537 -2.6088 -0.5312 -2.2086
21123SOL    HW267412   2.550   4.099   4.603 -0.3206  0.2590 -0.1119
21124SOL     OW67413   5.851   7.163   0.376 -0.0569  0.5260 -0.0208
21124SOL    HW167414   5.925   7.223   0.373  1.2892 -0.7201  3.0898
21124SOL    HW267415   5.877   7.089   0.322  0.3606  0.7117 -0.0749
21125SOL     OW67416   6.052   1.158   9.083  0.1234  0.0367  0.1563
21125SOL    HW167417   6.137   1.116   9.095  0.2968  0.1495 -0.6057
21125SOL    HW267418   6.073   1.246   9.050 -0.2665  0.3611  0.7637
21126SOL     OW67419   9.229   2.882   4.418 -0.6584  0.6196  0.0578
21126SOL    HW167420   9.223   2.977   4.417  0.7017  0.7142 -0.6341
21126SOL    HW267421   9.153   2.854   4.469  0.0516  2.1529  2.0579
21127SOL     OW67422   3.137   8.280   9.334 -0.1787  0.2646 -0.3440
21127SOL    HW167423   3.051   8.263   9.297 -1.4158  0.3848  2.3061
21127SOL    HW267424   3.133   8.247   9.423  2.6581 -0.0217 -0.2178
21128SOL     OW67425   6.622   3.903   5.957  0.0159 -0.0995  0.8197
21128SOL    HW167426   6.569   3.982   5.948 -0.1424 -0.4386 -2.0789
21128SOL    HW267427   6.710   3.935   5.977  0.0456  0.9016 -0.7338
21129SOL     OW67428   4.739   0.642   5.080 -0.3609  0.4605 -0.3520
21129SOL    HW167429   4.703   0.730   5.067 -0.3056  0.2712 -2.0373
21129SOL    HW267430   4.833   0.653   5.071 -0.3990  0.1446 -1.2093
21130SOL     OW67431   6.280   0.605   3.224  0.0472  0.4261  0.4217
21130SOL    HW167432   6.298   0.675   3.161  2.5386 -0.2400  0.3128
21130SOL    HW267433   6.222   0.545   3.177  0.0715  1.0455 -0.4261
21131SOL     OW67434   8.606   3.166  10.164 -0.2119 -0.1893  0.2580
21131SOL    HW167435   8.690   3.153  10.119  2.5179 -2.9797  5.2479
21131SOL    HW267436   8.570   3.078  10.173 -2.8814  0.7692 -0.1522
21132SOL     OW67437   4.280   8.215   7.617  0.0870 -0.1638  0.4334
21132SOL    HW167438   4.300   8.288   7.560 -1.3464 -1.0504 -1.3161
21132SOL    HW267439   4.186   8.200   7.605 -0.1620 -0.7480  2.6357
21133SOL     OW67440   1.435   5.613   2.187  0.2073 -0.5599 -0.5808
21133SOL    HW167441   1.428   5.639   2.095  0.1835 -0.5591 -0.5786
21133SOL    HW267442   1.361   5.655   2.231  1.6243  1.5257 -0.0721
21134SOL     OW67443   8.549   4.463   5.115 -0.2474  0.3150 -0.5386
21134SOL    HW167444   8.482   4.528   5.138  0.0210  1.2018 -2.1404
21134SOL    HW267445   8.629   4.514   5.106  0.3553 -0.5267 -0.0765
21135SOL     OW67446   3.913   9.990   1.514 -0.5524 -0.0030  0.5514
21135SOL    HW167447   3.924   9.896   1.501 -1.8366  0.1547 -2.6262
21135SOL    HW267448   3.992  10.029   1.478  0.0570  0.1783  2.0246
21136SOL     OW67449   7.648   6.072   9.003  0.4453 -0.6628 -0.4939
21136SOL    HW167450   7.683   6.035   9.084 -1.3198 -0.0976  0.5948
21136SOL    HW267451   7.553   6.060   9.011 -0.1323  2.8145 -0.6328
21137SOL     OW67452   0.584   0.382   5.766 -0.4557 -0.5139  0.1431
21137SOL    HW167453   0.662   0.381   5.822  0.2525  0.5907 -0.7787
21137SOL    HW267454   0.603   0.317   5.698 -0.7489 -0.9090  0.4342
21138SOL     OW67455   7.063   5.516   4.065 -0.1959 -0.3159  0.0241
21138SOL    HW167456   7.053   5.464   4.145 -2.8716  0.6812  0.4130
21138SOL    HW267457   7.151   5.552   4.071 -0.2954 -0.3227  2.5041
21139SOL     OW67458   2.936   7.608   3.775 -0.1775 -0.0494 -0.4122
21139SOL    HW167459   2.898   7.538   3.721 -1.1745  1.1511 -1.3576
21139SOL    HW267460   2.871   7.623   3.843 -0.4612  0.6226 -0.8179
21140SOL     OW67461   5.032   1.694   4.243  0.6298  0.3156 -0.0835
21140SOL    HW167462   4.953   1.722   4.198 -0.2158  0.1441  1.2581
21140SOL    HW267463   5.101   1.702   4.177 -0.6867 -0.6946 -1.6345
21141SOL     OW67464   0.592   6.866   3.619 -0.3312  0.2625 -0.3252
21141SOL    HW167465   0.634   6.787   3.653 -1.2351 -0.4478 -0.8047
21141SOL    HW267466   0.591   6.927   3.693 -2.4350 -1.3142  1.0399
21142SOL     OW67467   7.342   8.559   4.053  0.1058 -0.0873  0.3714
21142SOL    HW167468   7.269   8.616   4.078 -0.6059 -0.4884 -0.7025
21142SOL    HW267469   7.385   8.537   4.135 -0.2199  1.1777  0.8990
21143SOL     OW67470   2.527   7.445   3.110  0.4436 -0.2838 -0.2861
21143SOL    HW167471   2.446   7.496   3.116  0.0922 -0.9704  0.9671
21143SOL    HW267472   2.561   7.467   3.023 -0.8614  0.3353 -0.6801
21144SOL     OW67473   8.909   6.491   4.146 -0.3004  0.0291  1.0790
21144SOL    HW167474   8.838   6.489   4.210 -0.5616  0.6553  0.8074
21144SOL    HW267475   8.971   6.424   4.177 -0.6287  0.0300  1.7453
21145SOL     OW67476   1.707   1.472   0.114 -0.3408 -0.2503  0.3177
21145SOL    HW167477   1.715   1.411   0.188 -3.3017 -0.1723  0.7875
21145SOL    HW267478   1.704   1.415   0.037  1.6175 -0.3784  0.2672
21146SOL     OW67479   5.027   5.269   0.454  0.2069  0.4711 -0.3184
21146SOL    HW167480   5.012   5.278   0.548  0.5802  0.2793 -0.2372
21146SOL    HW267481   4.952   5.311   0.413 -0.3504 -0.1318  0.0696
21147SOL     OW67482  10.192   9.001  10.019 -1.2414 -0.0737  0.1301
21147SOL    HW167483  10.174   9.048   9.937  1.3019  0.4284 -0.2346
21147SOL    HW267484  10.215   9.069  10.081 -2.5004 -0.5114  1.1194
21148SOL     OW67485   6.193   1.026   3.412 -0.1375  0.1339  0.1901
21148SOL    HW167486   6.102   1.043   3.434 -0.0861  0.5622  0.0755
21148SOL    HW267487   6.243   1.090   3.463  0.0583  0.3037 -0.2079
21149SOL     OW67488   3.704   1.547   1.089 -0.4420 -0.1777  0.0083
21149SOL    HW167489   3.702   1.475   1.151  1.9719 -0.2012  0.1518
21149SOL    HW267490   3.636   1.608   1.121 -2.7213 -2.4050 -0.2784
21150SOL     OW67491   3.019   4.261   9.218 -0.1920  0.3345 -0.1235
21150SOL    HW167492   2.939   4.270   9.165 -0.5580  0.2043  0.4076
21150SOL    HW267493   3.068   4.192   9.174 -0.7356 -0.1423 -0.0045
21151SOL     OW67494   4.484   3.669   6.423  0.4644  0.3764  0.5388
21151SOL    HW167495   4.511   3.624   6.343 -0.7179  0.0004  0.3226
21151SOL    HW267496   4.492   3.762   6.403 -0.5192  0.2964 -0.2945
21152SOL     OW67497   5.058   2.593   2.111  0.9707  0.3736  0.4760
21152SOL    HW167498   5.040   2.682   2.083 -2.0322 -0.0549  0.7465
21152SOL    HW267499   5.060   2.542   2.030  0.8623  0.4038  0.4549
21153SOL     OW67500   4.187   7.638   4.887 -0.3998 -0.6489 -0.0936
21153SOL    HW167501   4.262   7.668   4.836 -1.6657  0.7636 -1.2317
21153SOL    HW267502   4.220   7.630   4.976  1.5747 -2.0169 -0.8881
21154SOL     OW67503   1.587   3.401   6.039 -0.2592  0.0659 -0.2733
21154SOL    HW167504   1.624   3.488   6.030 -1.9653  0.9920  0.9980
21154SOL    HW267505   1.663   3.343   6.044  0.9521  1.6081  0.0222
21155SOL     OW67506  10.098   9.097   4.429  0.2781 -0.1181  0.6631
21155SOL    HW167507  10.080   9.068   4.518  0.8853 -0.4316  0.6889
21155SOL    HW267508  10.077   9.022   4.374  0.9048 -0.2842  0.6422
21156SOL     OW67509   6.328   0.638   8.002  0.4314 -0.1982  0.1794
21156SOL    HW167510   6.385   0.563   7.985  0.4893 -0.5521  1.7968
21156SOL    HW267511   6.313   0.636   8.096 -0.5533  1.1293  0.0790
21157SOL     OW67512   6.806   7.451   2.079 -0.1418 -0.1550 -0.4041
21157SOL    HW167513   6.790   7.361   2.105  0.5393 -0.0723  0.3534
21157SOL    HW267514   6.782   7.454   1.986 -0.7027 -0.9681 -0.2938
21158SOL     OW67515   0.064   0.350   9.631  0.6252  0.3100 -0.0855
21158SOL    HW167516   0.075   0.400   9.712  0.4522 -0.2566  0.2948
21158SOL    HW267517   0.154   0.338   9.598  1.1508 -2.5697  1.9541
21159SOL     OW67518   7.015   3.599   0.632  0.0919  0.1013 -0.1137
21159SOL    HW167519   7.012   3.504   0.627  0.9070  0.0500  0.2877
21159SOL    HW267520   7.037   3.618   0.724 -0.3388  0.6862 -0.1192
21160SOL     OW67521   7.974   8.661   8.453  0.1780 -0.2130 -0.1498
21160SOL    HW167522   7.956   8.684   8.362  0.5259  1.7617  0.2224
21160SOL    HW267523   8.069   8.665   8.461  0.0796  1.4890  0.6817
21161SOL     OW67524   0.566   6.614   0.516  0.4452 -0.0365  0.2545
21161SOL    HW167525   0.540   6.550   0.581 -0.4301 -0.7721 -0.7772
21161SOL    HW267526   0.489   6.672   0.507  1.5557  1.8125  1.8799
21162SOL     OW67527   5.948   8.781   6.808 -0.7408 -0.2405  0.0731
21162SOL    HW167528   6.016   8.764   6.743 -1.0722  0.1701 -0.3876
21162SOL    HW267529   5.907   8.862   6.780 -0.8404 -0.0123  0.8431
21163SOL     OW67530   8.258   0.556   1.962  0.2162  0.8260  0.0767
21163SOL    HW167531   8.333   0.589   2.011  0.5511 -0.7794  0.7279
21163SOL    HW267532   8.243   0.469   1.998  0.0388 -0.1742 -2.2345
21164SOL     OW67533   9.152   8.394   9.206 -0.3032 -0.4851 -0.2992
21164SOL    HW167534   9.179   8.352   9.287 -1.3935  0.7050  0.7271
21164SOL    HW267535   9.081   8.453   9.231 -0.3812  0.2506 -2.0434
21165SOL     OW67536   7.350   4.373   4.629 -0.7536 -0.0322  0.3624
21165SOL    HW167537   7.269   4.364   4.680  0.2626  0.6230  2.1419
21165SOL    HW267538   7.419   4.378   4.694  0.7917 -0.9458 -1.1366
21166SOL     OW67539   7.181   5.610   4.461 -0.0552  0.5345  0.2551
21166SOL    HW167540   7.219   5.550   4.525  1.4054  3.4557  2.3828
21166SOL    HW267541   7.249   5.621   4.395 -0.3003 -0.0527 -0.1040
21167SOL     OW67542   5.973   2.224   0.635  0.1035  0.1231  0.4526
21167SOL    HW167543   5.915   2.150   0.656  1.5279 -0.4676  2.5947
21167SOL    HW267544   6.029   2.233   0.712  0.8332  2.6434 -0.2985
21168SOL     OW67545   9.437   6.118   1.861  0.1274  0.3054 -0.2325
21168SOL    HW167546   9.527   6.087   1.859 -0.3125 -1.0739  0.4595
21168SOL    HW267547   9.443   6.209   1.890  1.3809  0.6537 -1.4848
21169SOL     OW67548   5.119   6.417   3.385 -0.3772  0.2692 -0.2912
21169SOL    HW167549   5.100   6.510   3.388  0.1899  0.5353 -2.7590
21169SOL    HW267550   5.141   6.394   3.475 -0.4044  2.5215  0.3509
21170SOL     OW67551   9.296   4.934   8.579  0.1451  0.4887 -0.5415
21170SOL    HW167552   9.314   4.992   8.653 -3.0757 -0.8747  1.4996
21170SOL    HW267553   9.296   4.993   8.503  0.4242  2.5284  0.9332
21171SOL     OW67554   5.824   6.598   6.318 -0.3529  0.0573  0.4727
21171SOL    HW167555   5.810   6.605   6.413 -1.6455  0.4999  0.2621
21171SOL    HW267556   5.864   6.512   6.306  1.2163  0.5863  1.5654
21172SOL     OW67557   4.244   1.458   3.433 -0.2968  0.4726 -0.2816
21172SOL    HW167558   4.284   1.391   3.489  2.1452  0.8556 -1.4195
21172SOL    HW267559   4.220   1.411   3.353 -0.5920  0.5549 -0.2421
21173SOL     OW67560   1.701   0.755   6.214  0.0723  0.3028 -0.1419
21173SOL    HW167561   1.738   0.837   6.183 -1.4824  0.6225 -1.2872
21173SOL    HW267562   1.676   0.771   6.305  1.5983  0.4335  0.2767
21174SOL     OW67563   4.577   5.667   1.933  0.1151 -0.3903 -0.5626
21174SOL    HW167564   4.497   5.718   1.945 -0.1108 -0.7363 -0.5834
21174SOL    HW267565   4.635   5.696   2.004  0.2491  0.3921 -0.9916
21175SOL     OW67566   5.226   4.034   8.072  0.2918  0.0075  0.7865
21175SOL    HW167567   5.272   3.973   8.015 -1.0007  0.3661 -0.6877
21175SOL    HW267568   5.290   4.056   8.140  2.0717  0.0098 -0.8181
21176SOL     OW67569   7.642   6.976   7.213  0.2256 -0.0814 -0.3228
21176SOL    HW167570   7.659   7.070   7.216 -0.1020 -0.0080 -0.6688
21176SOL    HW267571   7.648   6.954   7.120  1.6145 -0.6500 -0.1159
21177SOL     OW67572   7.098   1.439   9.992  0.0616  0.0064 -0.0454
21177SOL    HW167573   7.170   1.429   9.929 -0.0019  0.3138 -0.1704
21177SOL    HW267574   7.124   1.385  10.066  0.2743 -0.1330 -0.2180
21178SOL     OW67575   1.721   1.283   4.234 -0.5779  0.2400 -0.4232
21178SOL    HW167576   1.645   1.336   4.212 -2.6565 -0.6299  3.7012
21178SOL    HW267577   1.776   1.340   4.287 -1.2132 -0.6946  1.3061
21179SOL     OW67578   1.351   9.835   9.352  0.2577  0.1377 -0.3105
21179SOL    HW167579   1.332   9.894   9.279  0.4563  1.3682  0.5951
21179SOL    HW267580   1.302   9.872   9.425  1.0819 -0.3300  0.4907
21180SOL     OW67581   2.107   0.450   0.190 -0.4980 -0.3675  0.4820
21180SOL    HW167582   2.111   0.449   0.095 -1.5199 -0.5232  0.4304
21180SOL    HW267583   2.106   0.357   0.215 -3.1119 -0.4048  0.4715
21181SOL     OW67584   9.793   2.491   9.852  0.4326  0.4267  0.1632
21181SOL    HW167585   9.877   2.537   9.853  0.4451  0.4480 -0.7499
21181SOL    HW267586   9.802   2.424   9.920 -0.0064  2.4423  2.3293
21182SOL     OW67587   2.936   8.276   3.233  0.1747 -0.4508  0.3890
21182SOL    HW167588   2.993   8.211   3.274  0.9709  0.2581  0.4324
21182SOL    HW267589   2.922   8.245   3.144  2.3165  0.3717 -0.2954
21183SOL     OW67590   9.436  10.112   5.507  0.2610  0.1999 -0.0117
21183SOL    HW167591   9.418  10.190   5.453 -0.7117  1.6904  2.3208
21183SOL    HW267592   9.374  10.046   5.474  0.3134  0.7468 -1.2846
21184SOL     OW67593   3.256   2.049   7.521 -0.0462 -0.1799  0.3805
21184SOL    HW167594   3.166   2.017   7.509 -0.2109  0.1613  0.7048
21184SOL    HW267595   3.248   2.144   7.527  0.2692 -0.1878  1.0079
21185SOL     OW67596   3.336   4.645   0.399 -0.3078 -0.0040 -0.1381
21185SOL    HW167597   3.359   4.659   0.491 -1.5241 -0.6206  0.2755
21185SOL    HW267598   3.299   4.728   0.371  0.4375  0.3166 -0.2000
21186SOL     OW67599   1.350   2.307   0.709  0.2599  0.0607  0.0668
21186SOL    HW167600   1.396   2.380   0.751 -0.8924  1.5570 -1.1229
21186SOL    HW267601   1.419   2.249   0.678  1.2974  1.4227 -0.2727
21187SOL     OW67602   2.257   5.805   6.451 -0.0898 -0.4462 -0.3224
21187SOL    HW167603   2.219   5.724   6.416  0.4389 -0.4482 -0.9135
21187SOL    HW267604   2.351   5.793   6.441  0.0467 -0.2590  0.7219
21188SOL     OW67605  10.186   5.511   6.268  0.3847  0.3351  0.4232
21188SOL    HW167606  10.149   5.536   6.183 -2.2083 -0.1647  1.3122
21188SOL    HW267607  10.152   5.576   6.330 -0.5205 -1.1548  1.5741
21189SOL     OW67608   4.633   0.808   6.537  0.6464  0.0443 -0.3409
21189SOL    HW167609   4.653   0.802   6.630 -0.2451 -0.3235 -0.1700
21189SOL    HW267610   4.703   0.864   6.502  0.1636  1.4358  0.8024
21190SOL     OW67611   9.235   8.760   3.753 -0.5246  0.0486  0.4168
21190SOL    HW167612   9.149   8.800   3.754 -0.8129 -0.5584  0.5008
21190SOL    HW267613   9.294   8.830   3.724 -1.0338  0.4771  0.4007
21191SOL     OW67614  10.223   4.264   8.046  0.1625  0.3430 -0.1735
21191SOL    HW167615  10.276   4.211   8.106  0.0093  0.2959 -0.0767
21191SOL    HW267616  10.195   4.339   8.099  1.5700  1.2758 -0.7119
21192SOL     OW67617   5.348   6.473   8.593  0.1699 -0.5464  0.2955
21192SOL    HW167618   5.264   6.509   8.622  0.6281  2.7096 -1.8844
21192SOL    HW267619   5.412   6.513   8.651  0.4452 -0.5950  0.0259
21193SOL     OW67620   5.614   6.500   4.821  0.5702  0.0894 -0.0118
21193SOL    HW167621   5.617   6.460   4.908  0.9817 -0.7114 -0.3756
21193SOL    HW267622   5.540   6.560   4.825 -0.3238 -0.9936  0.4564
21194SOL     OW67623   4.354   5.963   6.427  0.4408  0.7788 -0.3284
21194SOL    HW167624   4.305   5.929   6.353  0.3580  0.9241 -0.3420
21194SOL    HW267625   4.434   5.912   6.429  0.0833  0.2235 -0.0188
21195SOL     OW67626   6.364   5.432   0.808  0.1282  0.2262  0.1107
21195SOL    HW167627   6.370   5.336   0.813  0.0584  0.2496  0.6904
21195SOL    HW267628   6.442   5.458   0.759 -0.3922 -0.1988 -0.9648
21196SOL     OW67629   9.710   0.917   7.109  0.1320  0.1036 -0.4289
21196SOL    HW167630   9.792   0.897   7.153  0.4114  1.6920 -0.1674
21196SOL    HW267631   9.664   0.833   7.105  1.3119 -0.6094  0.3511
21197SOL     OW67632   0.788   7.122   6.425 -0.0259 -0.1563 -0.1650
21197SOL    HW167633   0.865   7.089   6.471 -0.8286 -1.4990  0.2486
21197SOL    HW267634   0.779   7.064   6.349  0.2674  0.9713 -1.0949
21198SOL     OW67635   0.646   8.717   6.726  0.7105 -0.0076 -0.2999
21198SOL    HW167636   0.604   8.656   6.665  0.0540  0.3212 -0.1914
21198SOL    HW267637   0.723   8.671   6.757  1.2290 -0.0766 -1.6043
21199SOL     OW67638   0.371   5.961   2.640 -0.2046 -0.4725 -0.2112
21199SOL    HW167639   0.320   5.897   2.592 -1.4349 -1.0853  1.7742
21199SOL    HW267640   0.417   5.910   2.707 -0.0130  0.5228  0.4444
21200SOL     OW67641   4.575   5.700   5.843 -0.6500 -0.1581 -0.0814
21200SOL    HW167642   4.559   5.747   5.925 -0.5012 -1.4762  0.7246
21200SOL    HW267643   4.635   5.757   5.794  1.2994 -0.4746  1.8046
21201SOL     OW67644   0.822   2.053   8.825  0.0225  0.4030 -0.3107
21201SOL    HW167645   0.793   1.966   8.797  2.2086 -0.2947 -0.5483
21201SOL    HW267646   0.839   2.043   8.919  1.1214  0.3135 -0.5110
21202SOL     OW67647   4.876   8.638   3.312 -0.2884  0.0937  0.2382
21202SOL    HW167648   4.823   8.717   3.301 -0.5934  0.0668  1.3710
21202SOL    HW267649   4.831   8.571   3.260 -0.9474  0.2662  0.5755
21203SOL     OW67650   6.390   2.834   9.214  0.3728 -0.1787 -0.4176
21203SOL    HW167651   6.296   2.832   9.195  0.3134 -0.3399 -0.1045
21203SOL    HW267652   6.412   2.745   9.240  0.6806 -0.2181 -0.7995
21204SOL     OW67653   9.194   9.003   5.728 -0.1578 -0.2804  0.3796
21204SOL    HW167654   9.268   8.977   5.673  0.2318  1.1955  0.1426
21204SOL    HW267655   9.122   9.017   5.666  0.3343  1.5746  0.1529
21205SOL     OW67656   3.475   1.457   8.287  0.1033  0.2791  0.3671
21205SOL    HW167657   3.551   1.472   8.230  0.4122 -1.7495  0.1897
21205SOL    HW267658   3.490   1.516   8.361  3.0590 -1.5243  1.4024
21206SOL     OW67659   4.499  10.237   8.811  0.4182  0.5112  0.0700
21206SOL    HW167660   4.436  10.307   8.793 -1.6881 -1.5332 -0.9720
21206SOL    HW267661   4.495  10.224   8.906 -0.6730  0.4657  0.0203
21207SOL     OW67662   5.963   1.512   2.608 -0.2194 -0.3330  0.8310
21207SOL    HW167663   5.995   1.580   2.548 -2.2837 -1.0588 -1.2297
21207SOL    HW267664   5.969   1.431   2.557 -2.3375 -0.9316  1.4500
21208SOL     OW67665   9.292   3.916   7.038  0.1488  0.0614  0.1043
21208SOL    HW167666   9.200   3.904   7.062 -0.3002  0.6332 -1.2644
21208SOL    HW267667   9.302   4.010   7.027  0.6378 -0.0821 -0.7441
21209SOL     OW67668   0.234   0.258   7.946  0.6847  0.3585 -0.0520
21209SOL    HW167669   0.264   0.312   7.873  0.1323  1.8193  0.7574
21209SOL    HW267670   0.139   0.273   7.950  0.6769  0.1655  0.8499
21210SOL     OW67671   8.841   3.122   8.466 -0.3254 -0.4035  0.4057
21210SOL    HW167672   8.817   3.173   8.543 -0.8032 -0.2179  0.1398
21210SOL    HW267673   8.934   3.139   8.454 -0.5959  0.8870 -0.0168
21211SOL     OW67674   1.264   2.472   8.465  0.1860 -0.1944 -0.3292
21211SOL    HW167675   1.305   2.484   8.379 -1.8763 -0.5276 -1.4102
21211SOL    HW267676   1.179   2.434   8.446 -0.7872  0.7775  1.7949
21212SOL     OW67677   9.571   6.628   0.184  0.0680 -0.1634 -0.0932
21212SOL    HW167678   9.549   6.717   0.211 -0.1644 -0.1952 -0.1804
21212SOL    HW267679   9.666   6.623   0.193  0.1525  0.2932 -0.6980
21213SOL     OW67680   3.689   3.579   5.724  0.1476 -0.1729  0.3365
21213SOL    HW167681   3.762   3.603   5.782 -0.6137  0.7424  0.9459
21213SOL    HW267682   3.656   3.663   5.692 -0.8026 -0.5739  0.2592
21214SOL     OW67683   0.988   0.750   9.271 -0.1128  0.0275 -0.1565
21214SOL    HW167684   0.968   0.778   9.361  0.9816  0.3765 -0.0027
21214SOL    HW267685   1.024   0.662   9.281  0.3592  0.2122 -0.2085
21215SOL     OW67686   5.319   0.262   9.629 -0.6601  0.0091  0.1618
21215SOL    HW167687   5.321   0.355   9.605 -0.4016 -0.1104 -0.2746
21215SOL    HW267688   5.280   0.262   9.717 -1.1028  0.4869 -0.0264
21216SOL     OW67689   2.507   5.442   1.049  0.1229 -0.0916 -0.0896
21216SOL    HW167690   2.550   5.366   1.010  0.4255 -0.0830  0.2249
21216SOL    HW267691   2.544   5.449   1.137 -2.1994 -1.4672  1.0702
21217SOL     OW67692   8.444   9.077   0.041  0.2625  0.0316  0.1531
21217SOL    HW167693   8.395   9.157   0.022  1.2592  0.2212 -1.8887
21217SOL    HW267694   8.504   9.067  -0.033  0.9258 -2.0292  0.8844
21218SOL     OW67695   2.051   1.537   6.150  0.5037 -0.3458  0.6241
21218SOL    HW167696   2.040   1.607   6.213 -0.0072 -0.4254  0.6264
21218SOL    HW267697   2.013   1.570   6.069  0.0410 -0.7071  0.6890
21219SOL     OW67698   1.182   5.114   6.824  0.0052 -0.2131 -0.2874
21219SOL    HW167699   1.234   5.034   6.815 -0.8518 -0.8966  0.5395
21219SOL    HW267700   1.149   5.131   6.736 -1.9320 -2.2936 -0.0548
21220SOL     OW67701   6.662   3.668   6.568  0.4462 -0.2391  0.4796
21220SOL    HW167702   6.679   3.631   6.654  1.6924 -0.5206  0.1296
21220SOL    HW267703   6.734   3.729   6.553 -1.1670  1.8195  0.7235
21221SOL     OW67704   8.820   0.673   4.438 -0.0594 -0.0600  0.0821
21221SOL    HW167705   8.824   0.744   4.502 -0.0108  1.0290 -1.0991
21221SOL    HW267706   8.734   0.634   4.450 -0.5540  0.9657 -0.0437
21222SOL     OW67707   1.543   0.375   2.987 -0.3847  0.0169  0.4331
21222SOL    HW167708   1.493   0.371   3.068  1.3469  0.8230  1.6185
21222SOL    HW267709   1.621   0.322   3.004  0.0260  0.2233 -0.6866
21223SOL     OW67710   6.525   7.094   0.481 -0.4052 -0.1654 -0.0068
21223SOL    HW167711   6.494   7.075   0.569  0.6836  3.7147  1.3949
21223SOL    HW267712   6.521   7.189   0.473  1.9822 -0.1497 -3.2118
21224SOL     OW67713   0.753   6.743   1.705  0.2951 -0.2437  0.6350
21224SOL    HW167714   0.753   6.655   1.744 -0.3503 -0.0123  1.1831
21224SOL    HW267715   0.669   6.780   1.730  0.6022  0.5720  0.4946
21225SOL     OW67716   3.915   8.446   7.206  0.7781  0.0819  0.0568
21225SOL    HW167717   4.001   8.435   7.166  0.9447  0.8867  0.1762
21225SOL    HW267718   3.898   8.363   7.250 -0.2104 -1.5429 -3.1309
21226SOL     OW67719   8.890   8.601   4.069 -0.0283 -0.3646 -0.2578
21226SOL    HW167720   8.896   8.507   4.050  0.3093 -1.0635  2.6594
21226SOL    HW267721   8.965   8.617   4.127 -0.9225  1.3668  0.4717
21227SOL     OW67722   5.418   0.328   0.770 -0.2359 -0.0752  0.3807
21227SOL    HW167723   5.478   0.393   0.805 -0.6481 -0.3234  1.5823
21227SOL    HW267724   5.391   0.276   0.846  0.0710 -1.6425 -0.5383
21228SOL     OW67725   1.569   7.027   0.047 -0.0665 -0.3505  1.0671
21228SOL    HW167726   1.553   7.055   0.137 -0.0073 -0.1551  1.0174
21228SOL    HW267727   1.613   6.942   0.056 -0.1372 -0.3707  1.2209
21229SOL     OW67728   1.996   3.948   3.346  0.0504  0.7425 -0.3180
21229SOL    HW167729   1.954   4.008   3.284  0.1818  0.9515 -0.2046
21229SOL    HW267730   1.947   3.866   3.337 -0.6424  1.0985  0.1020
21230SOL     OW67731   8.119   9.776   0.525 -0.3069 -0.0641  0.2715
21230SOL    HW167732   8.205   9.796   0.562  0.7209 -0.6473 -1.6490
21230SOL    HW267733   8.071   9.735   0.597  0.2920  2.0199  1.9522
21231SOL     OW67734   1.243   4.240   2.841  0.3382 -0.0282  0.1017
21231SOL    HW167735   1.335   4.222   2.860  1.0945 -0.6592 -3.3429
21231SOL    HW267736   1.199   4.155   2.851  0.6910 -0.3175 -0.7092
21232SOL     OW67737   9.674   3.988   9.007 -0.3138 -0.2657  0.0325
21232SOL    HW167738   9.649   4.043   8.933 -0.7570 -1.0405 -0.4066
21232SOL    HW267739   9.729   4.044   9.061  0.9523  0.0063 -1.4423
21233SOL     OW67740   3.551   8.402   7.573 -0.2009  0.2937 -0.4129
21233SOL    HW167741   3.460   8.383   7.550 -0.4655  0.5020  0.4464
21233SOL    HW267742   3.568   8.489   7.536 -0.3930  0.3133 -0.4562
21234SOL     OW67743   6.256   6.950   1.045 -0.3707 -0.3367 -0.1372
21234SOL    HW167744   6.294   7.036   1.026 -0.7444  0.2318  1.4543
21234SOL    HW267745   6.242   6.951   1.140 -1.7506 -1.5924 -0.2830
21235SOL     OW67746   2.400   3.314   7.203 -0.2025  0.3304 -0.2609
21235SOL    HW167747   2.437   3.403   7.205  2.0929 -0.5574 -0.5826
21235SOL    HW267748   2.390   3.295   7.110 -1.3317  0.4674 -0.1811
21236SOL     OW67749   5.137   1.395   0.584 -0.7507  0.5361 -0.1022
21236SOL    HW167750   5.074   1.382   0.514 -0.3583 -1.1308 -0.1847
21236SOL    HW267751   5.129   1.488   0.607 -1.5095  0.9061 -1.7295
21237SOL     OW67752  10.257   1.990   3.569 -0.4324 -0.0305  0.1738
21237SOL    HW167753  10.211   2.048   3.630 -0.1150 -0.3200  0.6916
21237SOL    HW267754  10.262   1.906   3.615 -0.8029 -0.4530 -0.5271
21238SOL     OW67755   7.474   7.436   9.290  0.2366  0.1036  0.0546
21238SOL    HW167756   7.405   7.416   9.354  0.7465 -0.3772  0.4642
21238SOL    HW267757   7.456   7.526   9.263 -0.5242  0.0022  0.1961
21239SOL     OW67758   7.049   7.146   3.929  0.6401  0.2888 -0.3149
21239SOL    HW167759   6.981   7.207   3.957  1.0804  1.0930 -0.9672
21239SOL    HW267760   7.075   7.101   4.010  1.3832  2.0510  0.4755
21240SOL     OW67761   5.589   9.620   2.574 -0.1701 -0.0144  0.0787
21240SOL    HW167762   5.511   9.674   2.561 -0.1540  0.0862  0.3854
21240SOL    HW267763   5.583   9.553   2.507  0.1463  0.7522 -0.7324
21241SOL     OW67764   9.148   7.301   1.627  0.2668  0.1485 -0.2363
21241SOL    HW167765   9.185   7.304   1.539 -0.0493 -0.5324 -0.3982
21241SOL    HW267766   9.108   7.214   1.633 -0.1112  0.3638  0.4172
21242SOL     OW67767   4.238   0.373   8.524  0.1449  0.2133 -0.4435
21242SOL    HW167768   4.193   0.291   8.499  1.1267 -0.4814  0.0096
21242SOL    HW267769   4.288   0.397   8.446  1.9542 -1.0960  0.2345
21243SOL     OW67770   4.923   5.390   5.808 -0.1176 -0.0757  0.0607
21243SOL    HW167771   4.994   5.327   5.807 -0.6102 -0.6851 -1.5928
21243SOL    HW267772   4.844   5.337   5.794 -0.6686  0.7813 -0.1632
21244SOL     OW67773   7.479   2.864   4.765 -0.4047 -0.0264 -0.3174
21244SOL    HW167774   7.530   2.943   4.750  0.0073 -0.3719 -0.7553
21244SOL    HW267775   7.532   2.794   4.729 -1.1255 -0.4125 -0.6509
21245SOL     OW67776   0.131   6.400   1.359  0.1549  0.5226 -0.3394
21245SOL    HW167777   0.125   6.404   1.263  0.5179 -0.0631 -0.3917
21245SOL    HW267778   0.176   6.480   1.384  1.0754  0.1477 -0.7563
21246SOL     OW67779   2.742   5.052   2.005  0.1934 -0.6081 -0.0729
21246SOL    HW167780   2.732   4.976   1.947 -0.8545 -1.0276  0.6350
21246SOL    HW267781   2.836   5.069   2.007  0.7073 -3.1651  1.3425
21247SOL     OW67782   9.025   6.713   9.470  0.0035  0.3937  0.1049
21247SOL    HW167783   9.101   6.765   9.497 -1.2063  1.6789  1.1594
21247SOL    HW267784   8.991   6.675   9.551 -0.4746 -0.1848 -0.3593
21248SOL     OW67785   3.245   6.173   1.301  0.1390  0.5717  0.3642
21248SOL    HW167786   3.234   6.247   1.361  0.8634  1.4029 -0.4773
21248SOL    HW267787   3.165   6.173   1.248 -0.0394  0.4968  0.6321
21249SOL     OW67788   1.352   2.488   3.121  0.0779  0.0082  0.9358
21249SOL    HW167789   1.409   2.559   3.092 -0.0645  0.5814  1.9884
21249SOL    HW267790   1.358   2.491   3.217 -0.0680 -1.2955  1.0003
21250SOL     OW67791   2.476   2.452   5.533 -0.6317 -0.1943  0.5627
21250SOL    HW167792   2.480   2.357   5.519 -1.2561 -0.2207  0.5174
21250SOL    HW267793   2.563   2.475   5.564 -0.2102 -0.6448 -0.2471
21251SOL     OW67794   0.683   3.661  10.253  0.3736 -0.5065  0.1000
21251SOL    HW167795   0.722   3.693  10.171  3.6803 -2.5074  0.6820
21251SOL    HW267796   0.687   3.736  10.312  0.0138  0.3342 -0.9079
21252SOL     OW67797   0.207   7.714   3.876 -0.0349  0.1649  0.0482
21252SOL    HW167798   0.155   7.792   3.896  1.0258  1.0532 -0.5322
21252SOL    HW267799   0.279   7.717   3.938  0.9246  0.5957 -1.0386
21253SOL     OW67800   3.136   1.792   6.839  0.0077 -0.1280  0.0660
21253SOL    HW167801   3.112   1.795   6.746  1.0442  0.3983 -0.1994
21253SOL    HW267802   3.215   1.738   6.841 -0.1832 -0.3881  0.6894
21254SOL     OW67803   9.202   8.636   7.989 -0.2737 -0.1227  0.1410
21254SOL    HW167804   9.153   8.716   8.006 -1.2900 -0.4058 -1.1848
21254SOL    HW267805   9.147   8.566   8.024  0.8822 -0.2431  1.8272
21255SOL     OW67806   4.167   9.158   5.850  0.4224  0.5624  0.3508
21255SOL    HW167807   4.250   9.204   5.851 -0.1160  1.6438 -1.0997
21255SOL    HW267808   4.105   9.219   5.891  0.1061  0.2623  0.3297
21256SOL     OW67809   9.256   1.988   5.111 -0.5824  0.3111 -0.2521
21256SOL    HW167810   9.186   1.923   5.122  0.1608 -0.2747  1.2020
21256SOL    HW267811   9.313   1.976   5.187 -0.1921  2.3973 -0.1562
21257SOL     OW67812   5.522   2.091   0.526  0.4132  0.4842  0.0227
21257SOL    HW167813   5.617   2.089   0.536  0.3183 -1.6533  1.0201
21257SOL    HW267814   5.505   2.044   0.445  0.1899  0.6115 -0.0043
21258SOL     OW67815   9.482   2.739   2.254  0.6938 -0.1555  0.4155
21258SOL    HW167816   9.409   2.728   2.192 -0.2695 -2.2975  1.7903
21258SOL    HW267817   9.464   2.822   2.298 -2.0031 -1.3991  1.9270
21259SOL     OW67818   0.218   2.482   6.839  0.3119  0.0913 -0.2456
21259SOL    HW167819   0.131   2.519   6.856 -0.1210 -0.5838 -0.9137
21259SOL    HW267820   0.235   2.427   6.915  0.0476  0.0463 -0.2153
21260SOL     OW67821   2.178   7.255   7.052  0.5255  0.1388 -0.1574
21260SOL    HW167822   2.231   7.238   7.129 -1.6936  2.0308  1.9620
21260SOL    HW267823   2.108   7.191   7.056  0.4921  0.1357 -0.7190
21261SOL     OW67824   2.845  10.291   3.917  0.3810 -0.0660 -0.1838
21261SOL    HW167825   2.801  10.206   3.919  1.4882 -0.6465  0.8170
21261SOL    HW267826   2.830  10.323   3.828 -0.2444 -1.2059 -0.5187
21262SOL     OW67827   8.224   4.118   1.984  0.6192 -0.5549 -0.0399
21262SOL    HW167828   8.155   4.185   1.988  0.2693 -0.9603  1.3016
21262SOL    HW267829   8.279   4.137   2.060 -0.8794 -3.2138  1.8754
21263SOL     OW67830   3.576   2.832   0.578 -0.2529  0.2685  0.1430
21263SOL    HW167831   3.643   2.763   0.580  0.6344  1.0922 -0.1600
21263SOL    HW267832   3.604   2.894   0.646  0.0027  1.2465 -0.8323
21264SOL     OW67833   3.333   6.933   8.866  0.4596 -0.3634 -0.1185
21264SOL    HW167834   3.303   6.930   8.957 -1.1786 -0.7924 -0.6360
21264SOL    HW267835   3.315   6.845   8.832  3.0110 -0.8813 -0.3063
21265SOL     OW67836   9.701   9.122   0.989 -0.2528 -0.1394  0.2859
21265SOL    HW167837   9.704   9.216   0.969 -2.4480 -0.0035  0.3734
21265SOL    HW267838   9.757   9.113   1.067  2.3560  0.5431 -1.3747
21266SOL     OW67839   6.076   1.488   0.223 -0.5682 -0.3230 -0.3596
21266SOL    HW167840   5.996   1.536   0.205 -0.5162 -0.5391 -1.2301
21266SOL    HW267841   6.048   1.397   0.230 -0.2096 -0.6370 -2.3718
21267SOL     OW67842   2.122   2.079   8.237 -0.1860 -0.3160 -0.2705
21267SOL    HW167843   2.119   2.170   8.267 -0.9138 -0.3161 -0.3347
21267SOL    HW267844   2.163   2.031   8.310 -0.9070 -0.1339  0.2621
21268SOL     OW67845   9.279   4.977   4.145  0.0560  0.1277 -0.1881
21268SOL    HW167846   9.367   4.979   4.183  0.4496 -1.4287 -0.9272
21268SOL    HW267847   9.287   5.023   4.062 -0.0759  0.8805  0.2145
21269SOL     OW67848   3.663   2.670   8.516 -0.5384  0.5537  0.1517
21269SOL    HW167849   3.575   2.704   8.528 -0.9930 -0.3953 -0.3651
21269SOL    HW267850   3.683   2.623   8.597 -1.3530 -1.0016 -0.5076
21270SOL     OW67851   4.457   7.194   8.188  0.1623  0.3678  0.7133
21270SOL    HW167852   4.552   7.204   8.192 -0.0055  2.1781  1.2274
21270SOL    HW267853   4.442   7.129   8.120  1.7294  1.0279 -0.3167
21271SOL     OW67854   7.298   8.057   2.708 -0.4524  0.1148 -0.1260
21271SOL    HW167855   7.312   8.065   2.802  2.0210 -0.0953 -0.4060
21271SOL    HW267856   7.203   8.064   2.697 -0.7947  0.2458  2.3484
21272SOL     OW67857   3.416   5.090   2.987  0.4808  0.1675 -0.3945
21272SOL    HW167858   3.324   5.081   3.012  0.7344 -0.3450  0.4113
21272SOL    HW267859   3.458   5.130   3.064  1.1439 -0.6945 -0.2913
21273SOL     OW67860   7.903   3.775   8.551  0.2494  0.1434 -0.5088
21273SOL    HW167861   7.991   3.744   8.570 -0.3637 -0.8930  0.8539
21273SOL    HW267862   7.860   3.781   8.637 -1.4147 -0.6866 -1.2283
21274SOL     OW67863   2.386   6.962   0.528  0.0570  0.0135  0.2356
21274SOL    HW167864   2.374   7.019   0.604 -0.6864  0.4015 -0.1644
21274SOL    HW267865   2.368   6.874   0.562  0.9139  0.0351  0.7816
21275SOL     OW67866   2.451   0.657   3.766 -0.0770 -0.1140  0.3024
21275SOL    HW167867   2.360   0.677   3.789 -0.5206 -0.3083 -1.2084
21275SOL    HW267868   2.462   0.690   3.677  1.0899 -0.8323  0.1548
21276SOL     OW67869   8.868   1.844   0.103  0.0028 -0.1362 -0.6072
21276SOL    HW167870   8.944   1.847   0.161 -0.9425  0.8849  0.6305
21276SOL    HW267871   8.795   1.820   0.161 -1.6567  4.3089 -0.4854
21277SOL     OW67872   8.585   5.438   9.209  0.4693 -0.2552 -0.1753
21277SOL    HW167873   8.675   5.473   9.206 -0.0851  1.1825 -1.5652
21277SOL    HW267874   8.532   5.512   9.239 -0.3344 -0.9421  0.1328
21278SOL     OW67875   5.096   9.555   7.060 -0.2263  0.1462 -0.1573
21278SOL    HW167876   5.063   9.612   7.129  0.8453 -0.3552  0.7909
21278SOL    HW267877   5.185   9.587   7.042 -0.9859  1.2362 -2.3951
21279SOL     OW67878   0.414   0.990   5.610 -0.4936 -0.4279  0.1611
21279SOL    HW167879   0.501   0.955   5.630 -0.3321  0.2038  0.6062
21279SOL    HW267880   0.421   1.023   5.521  0.9054  3.0236  1.3673
21280SOL     OW67881   0.069   2.972   5.678  0.6411 -0.3590 -0.2111
21280SOL    HW167882   0.096   3.011   5.595 -0.0538 -0.0872 -0.3178
21280SOL    HW267883   0.108   2.884   5.677 -0.0338 -0.6672 -1.2091
21281SOL     OW67884   5.363   8.180   9.018 -0.1975  0.1922  0.1442
21281SOL    HW167885   5.334   8.158   8.929 -0.5803  2.3366 -0.3261
21281SOL    HW267886   5.423   8.110   9.042 -3.1141 -2.6512 -0.1811
21282SOL     OW67887   3.144   8.567   9.224 -0.1203  0.3803  0.1817
21282SOL    HW167888   3.190   8.639   9.269  0.1050 -0.6263  1.6644
21282SOL    HW267889   3.150   8.494   9.286 -3.8133  0.1847  0.5146
21283SOL     OW67890   3.880   4.842   5.782 -0.0407 -0.3723 -0.4184
21283SOL    HW167891   3.805   4.792   5.814  0.1264  0.1440  0.8275
21283SOL    HW267892   3.844   4.927   5.759 -0.0264 -0.5012 -0.9462
21284SOL     OW67893   6.202   3.564   0.290 -0.4011 -0.4358  0.1961
21284SOL    HW167894   6.276   3.559   0.351 -1.2611  0.5762  1.3757
21284SOL    HW267895   6.226   3.505   0.218  1.3047 -0.5359  0.7992
21285SOL     OW67896   5.581   9.381   3.973  0.2660  0.3978  0.1697
21285SOL    HW167897   5.625   9.343   3.897  0.5250  1.3024 -0.1523
21285SOL    HW267898   5.488   9.383   3.949  0.2397 -0.1074  0.2270
21286SOL     OW67899   3.321   3.647   1.627  0.2497 -0.0535 -0.1230
21286SOL    HW167900   3.413   3.669   1.642  0.4837 -1.3088  0.3937
21286SOL    HW267901   3.301   3.579   1.691 -1.1767  0.4964  0.0614
21287SOL     OW67902   9.717   8.047   6.917  0.0697 -0.3864 -0.7130
21287SOL    HW167903   9.798   8.018   6.876  0.7205  0.9343 -0.4050
21287SOL    HW267904   9.653   8.048   6.845  0.9686  1.0051 -1.5385
21288SOL     OW67905   5.196   6.643   7.795 -0.0361  0.2876 -0.5531
21288SOL    HW167906   5.222   6.695   7.871 -0.2644  0.7084 -0.7611
21288SOL    HW267907   5.180   6.556   7.830 -0.6020  0.5902 -0.0349
21289SOL     OW67908   1.771   1.132   9.853 -0.0142 -0.2454 -0.3616
21289SOL    HW167909   1.850   1.109   9.805  0.4912 -1.6896  1.0711
21289SOL    HW267910   1.798   1.205   9.910  0.3928 -0.9297  0.3401
21290SOL     OW67911   8.941   2.303   7.044  0.1441 -0.1139  0.4915
21290SOL    HW167912   8.869   2.296   6.982  2.3258  0.2063 -2.2469
21290SOL    HW267913   8.951   2.215   7.080 -0.7955 -0.4356 -0.0062
21291SOL     OW67914   3.485   6.144   5.892  0.4522 -0.2203 -0.6666
21291SOL    HW167915   3.453   6.219   5.942 -0.1992  0.0362 -1.4354
21291SOL    HW267916   3.576   6.166   5.871 -0.2174  1.1859 -2.3518
21292SOL     OW67917   4.695   0.790   4.194 -0.4491 -0.1701  0.2128
21292SOL    HW167918   4.623   0.751   4.146 -0.4836 -1.1537  1.0419
21292SOL    HW267919   4.685   0.758   4.284 -0.0398  1.1455  0.7631
21293SOL     OW67920   1.678   5.453   6.037  0.3554 -0.0906 -0.3415
21293SOL    HW167921   1.628   5.389   6.088  1.7415 -0.9783 -0.0502
21293SOL    HW267922   1.748   5.403   5.996  1.4719  1.2127 -0.1267
21294SOL     OW67923   1.028   0.753   4.962  0.2776 -0.0169  0.2630
21294SOL    HW167924   1.105   0.706   4.931 -0.5733 -1.0511 -0.3497
21294SOL    HW267925   1.054   0.789   5.047  0.0670 -4.1243  2.2891
21295SOL     OW67926   5.413   9.248   5.240 -0.0021  1.1899 -0.0512
21295SOL    HW167927   5.349   9.230   5.172  0.0265 -3.4965  0.8441
21295SOL    HW267928   5.498   9.237   5.196  0.0227 -0.4568  0.3425
21296SOL     OW67929   7.794   5.137   6.904 -0.5069 -0.2915  0.6518
21296SOL    HW167930   7.768   5.171   6.819  0.1947  0.5240  0.7458
21296SOL    HW267931   7.775   5.043   6.900  1.6116 -0.7256 -1.2484
21297SOL     OW67932   4.970   0.765   5.405  0.0169  0.6642 -0.3672
21297SOL    HW167933   4.902   0.701   5.429  1.1690  0.2077  2.0169
21297SOL    HW267934   5.005   0.733   5.322 -2.0793  0.4600 -1.2359
21298SOL     OW67935   4.071   7.854   7.679  0.7761 -0.0298  0.2604
21298SOL    HW167936   4.165   7.853   7.692  0.8747 -0.1282 -0.4136
21298SOL    HW267937   4.041   7.768   7.706  0.9662 -0.2121 -0.1027
21299SOL     OW67938   6.964   3.507   9.339  0.7751 -0.0770  0.1335
21299SOL    HW167939   6.904   3.487   9.411  0.9863  2.0640  0.9812
21299SOL    HW267940   7.031   3.439   9.344  0.4452 -0.3313  1.5907
21300SOL     OW67941   2.424   0.342   2.370  0.8734 -0.3739 -0.3422
21300SOL    HW167942   2.498   0.284   2.349  1.1243  0.1962 -1.0652
21300SOL    HW267943   2.364   0.332   2.296 -0.7055 -2.2587  1.0794
21301SOL     OW67944   5.909   9.763   9.235 -0.0595 -0.2613 -0.4456
21301SOL    HW167945   5.874   9.831   9.293 -0.4538 -0.8997  0.0794
21301SOL    HW267946   6.002   9.783   9.228 -0.0079 -0.1862  0.4196
21302SOL     OW67947   4.176   0.267   1.817 -0.1330 -0.2380 -0.0196
21302SOL    HW167948   4.200   0.267   1.910 -1.0593 -0.1828  0.2382
21302SOL    HW267949   4.133   0.182   1.804 -0.5534  0.0038 -0.2358
21303SOL     OW67950   5.624   2.236  10.226  0.2399 -0.2397 -0.3009
21303SOL    HW167951   5.627   2.290  10.148  0.1877 -1.2989 -1.0623
21303SOL    HW267952   5.639   2.147  10.194 -2.5489 -1.1000  0.4642
21304SOL     OW67953   9.360   4.478   9.232  0.8026  0.1418 -0.0545
21304SOL    HW167954   9.265   4.469   9.233  0.7646  0.5359 -0.0015
21304SOL    HW267955   9.384   4.475   9.140  0.7271  0.1611 -0.0741
21305SOL     OW67956   6.324   4.642   2.615  0.6472  0.3164  0.5155
21305SOL    HW167957   6.413   4.670   2.637 -0.3081  2.5322  1.9079
21305SOL    HW267958   6.317   4.553   2.650  2.6366 -0.3639 -0.6759
21306SOL     OW67959   9.498   3.291  10.193 -0.1533  0.0772  0.1009
21306SOL    HW167960   9.525   3.222  10.253 -0.3481  0.2591  0.3983
21306SOL    HW267961   9.419   3.327  10.232 -0.7365 -0.3417 -0.6813
21307SOL     OW67962   8.708   5.841   2.092 -0.2287 -0.5785  0.2972
21307SOL    HW167963   8.651   5.846   2.014 -0.3975 -2.1036  0.2982
21307SOL    HW267964   8.655   5.795   2.157 -1.4177  3.4738  2.5925
21308SOL     OW67965   4.630   2.300   3.960 -0.3213  0.5377 -0.8022
21308SOL    HW167966   4.583   2.229   3.918 -1.3704 -1.0394  2.6553
21308SOL    HW267967   4.707   2.258   3.998 -0.3815  1.4438  0.3754
21309SOL     OW67968   5.071   0.633   2.247 -0.1447  0.0225  0.1258
21309SOL    HW167969   5.023   0.552   2.266  0.4685 -0.5076 -0.5447
21309SOL    HW267970   5.163   0.607   2.248  0.2020  1.1414  1.9512
21310SOL     OW67971   0.979   7.533   5.801 -0.5383 -0.0741  0.2676
21310SOL    HW167972   0.943   7.591   5.868 -0.8773 -0.7701  0.7049
21310SOL    HW267973   1.058   7.577   5.770  0.8456 -0.7241  2.6482
21311SOL     OW67974   2.532   6.614   6.818 -0.4118  0.3966 -0.0188
21311SOL    HW167975   2.568   6.665   6.891  1.4100  1.2972 -1.4792
21311SOL    HW267976   2.544   6.523   6.845  0.8337  0.7039  0.5569
21312SOL     OW67977   5.073   0.999   2.131  0.3312 -0.2148  0.6054
21312SOL    HW167978   5.136   0.939   2.092 -0.5965 -1.4026  0.8688
21312SOL    HW267979   4.995   0.990   2.077  0.0633  0.4934  0.8623
21313SOL     OW67980  10.045   1.311   8.503  0.0354  0.1431 -0.0295
21313SOL    HW167981   9.970   1.271   8.459 -1.0917  0.5527  1.4393
21313SOL    HW267982  10.027   1.299   8.596  0.9544  1.7434  0.3833
21314SOL     OW67983   6.885   3.864   5.350 -0.2694 -0.2810 -0.1053
21314SOL    HW167984   6.918   3.953   5.350  1.2558 -0.8055  1.8526
21314SOL    HW267985   6.802   3.869   5.397 -0.2581  0.1007 -0.1233
21315SOL     OW67986   2.508   0.403   1.371 -0.0675  0.0503 -0.5910
21315SOL    HW167987   2.446   0.331   1.376  1.1207 -0.9364  0.6059
21315SOL    HW267988   2.589   0.363   1.338  1.2956  0.2777  2.1916
21316SOL     OW67989   9.647   2.369   5.951 -0.3464 -0.4448  0.2315
21316SOL    HW167990   9.646   2.276   5.925 -0.7853 -0.8048  1.4922
21316SOL    HW267991   9.626   2.416   5.870  1.5403 -1.3208 -0.8299
21317SOL     OW67992   5.340   4.341   7.996 -0.6965 -0.0628 -0.0416
21317SOL    HW167993   5.293   4.408   7.946  0.9232  1.3664  0.2592
21317SOL    HW267994   5.281   4.320   8.068 -0.2773  3.0075  1.3699
21318SOL     OW67995   6.081   0.619   6.104 -0.5482 -0.5340 -0.1115
21318SOL    HW167996   6.041   0.672   6.035  0.1977 -0.5319 -0.5486
21318SOL    HW267997   6.151   0.571   6.060  0.7909  0.4345  0.8962
21319SOL     OW67998  10.091   7.873   1.211 -0.4662 -0.1931 -0.3532
21319SOL    HW167999  10.142   7.941   1.255 -0.2938  1.1587 -2.4751
21319SOL    HW268000  10.149   7.797   1.207 -0.3808 -0.2547  1.3806
21320SOL     OW68001   6.802   9.819   9.038  0.2157 -0.2650 -0.1026
21320SOL    HW168002   6.839   9.897   8.998  3.6619 -2.7695 -2.4189
21320SOL    HW268003   6.727   9.797   8.981  0.4038  0.3128 -0.5849
21321SOL     OW68004   7.738   6.159   7.347 -0.3578  0.5838 -0.1789
21321SOL    HW168005   7.710   6.207   7.424  1.6798  1.5929 -0.0067
21321SOL    HW268006   7.753   6.226   7.280 -1.4326 -0.2140 -1.2762
21322SOL     OW68007   3.687   0.222   6.863  0.2132  0.1846  0.2703
21322SOL    HW168008   3.676   0.312   6.831  1.0716  0.8818  1.8186
21322SOL    HW268009   3.671   0.229   6.957 -0.8254 -1.5191  0.2604
21323SOL     OW68010   0.814   8.342   6.468 -0.3611 -0.3623  0.6822
21323SOL    HW168011   0.805   8.273   6.402  2.8354  0.4231 -0.7263
21323SOL    HW268012   0.762   8.414   6.433 -1.0270 -0.9027  0.5160
21324SOL     OW68013   3.677   9.263   6.930  0.4685 -0.0604 -0.3342
21324SOL    HW168014   3.732   9.197   6.973  0.6971  0.4676  0.1919
21324SOL    HW268015   3.727   9.344   6.936  0.4201  0.0762 -1.4338
21325SOL     OW68016   1.083   9.217   3.157  0.2607 -0.0632 -0.6706
21325SOL    HW168017   1.028   9.248   3.229 -0.7894 -0.0410 -1.4737
21325SOL    HW268018   1.144   9.289   3.141 -0.5492  0.5924 -0.8619
21326SOL     OW68019   3.862   9.015   3.757 -0.1577 -0.1305  0.4054
21326SOL    HW168020   3.818   9.099   3.773 -1.7366 -0.9199  0.4091
21326SOL    HW268021   3.951   9.039   3.734 -1.2106  1.7434 -2.2455
21327SOL     OW68022   2.296   8.909   2.978 -0.1666  0.2473  0.1139
21327SOL    HW168023   2.269   8.826   3.016 -2.0021  0.5403 -0.4545
21327SOL    HW268024   2.230   8.972   3.007  0.5223  1.2622 -0.4446
21328SOL     OW68025   5.610   5.303   0.480  0.2416  0.2063  0.1285
21328SOL    HW168026   5.704   5.286   0.473 -0.0043 -1.6522  0.7178
21328SOL    HW268027   5.575   5.224   0.521 -1.9097 -0.1709 -2.2087
21329SOL     OW68028   4.526   3.355   6.749  0.7153  0.4824 -0.0353
21329SOL    HW168029   4.430   3.351   6.746  0.7753 -1.1014 -2.3924
21329SOL    HW268030   4.548   3.439   6.709  0.3372  0.6461  0.0909
21330SOL     OW68031  10.125   0.022   8.568 -0.3766  0.0270  0.1333
21330SOL    HW168032  10.037   0.027   8.605 -0.1273  0.3365  0.7016
21330SOL    HW268033  10.151  -0.069   8.577  0.2228  0.3497  2.0268
21331SOL     OW68034   8.087   5.752   3.491  0.0714 -0.1818 -0.3223
21331SOL    HW168035   8.063   5.760   3.399  0.8484  2.3837 -0.3610
21331SOL    HW268036   8.014   5.791   3.539 -0.7955 -2.3810  0.2901
21332SOL     OW68037   4.100   5.861   5.311 -0.2006 -0.3836  0.1550
21332SOL    HW168038   4.071   5.907   5.233  0.4125 -1.0480 -0.4865
21332SOL    HW268039   4.046   5.896   5.382  1.1873  2.3302 -0.0238
21333SOL     OW68040   7.359   2.059   2.316 -0.6686  0.2267 -0.0904
21333SOL    HW168041   7.426   1.996   2.342 -3.1415 -2.0813  1.1911
21333SOL    HW268042   7.326   2.027   2.233  0.2671  1.8003 -1.1164
21334SOL     OW68043   4.980   2.237   0.203  0.1456  0.5072 -0.4396
21334SOL    HW168044   5.057   2.207   0.155 -0.0683 -2.5957  0.8967
21334SOL    HW268045   5.015   2.266   0.288 -0.0511 -0.1982 -0.1092
21335SOL     OW68046   9.608   7.798   1.710  0.3926  0.1791 -0.7665
21335SOL    HW168047   9.695   7.822   1.743 -0.4687  3.0974 -0.3224
21335SOL    HW268048   9.611   7.817   1.617  0.1078  0.6982 -0.6717
21336SOL     OW68049   4.037   8.435   8.669  0.1475  0.0199 -0.0859
21336SOL    HW168050   4.012   8.404   8.582 -0.9188 -0.1326  0.2632
21336SOL    HW268051   4.029   8.530   8.663  1.6777  0.1545 -0.6200
21337SOL     OW68052   0.236   0.339   2.367 -0.0347  0.2172 -0.4697
21337SOL    HW168053   0.262   0.426   2.397 -0.7249  1.1847 -2.5052
21337SOL    HW268054   0.299   0.317   2.298 -0.1100 -0.7353 -0.2567
21338SOL     OW68055   1.170   6.231   5.701  1.1202  0.0287 -0.0895
21338SOL    HW168056   1.075   6.226   5.707  1.0542  1.8252  3.9855
21338SOL    HW268057   1.201   6.201   5.786  4.0133  1.7975 -0.3831
21339SOL     OW68058   6.814   1.122   6.242 -0.2792 -0.4972 -0.7920
21339SOL    HW168059   6.720   1.131   6.231 -0.0282 -0.3898 -3.2886
21339SOL    HW268060   6.845   1.212   6.252 -0.3093 -0.4546 -1.1007
21340SOL     OW68061   2.143   2.560   1.153 -0.1858  0.1138  0.0719
21340SOL    HW168062   2.182   2.645   1.175  1.1949 -0.8123  1.3556
21340SOL    HW268063   2.061   2.557   1.203  0.4973  0.0872  1.2065
21341SOL     OW68064   0.941   2.301   5.443 -0.5673 -0.0035 -0.0078
21341SOL    HW168065   0.908   2.382   5.482 -0.7647 -0.7338  1.3990
21341SOL    HW268066   0.880   2.234   5.473 -0.7064 -0.6166 -1.5777
21342SOL     OW68067   1.758   6.825   0.063 -0.0100  0.3858  0.3205
21342SOL    HW168068   1.803   6.781   0.135  0.3083  1.3094  0.6955
21342SOL    HW268069   1.788   6.779  -0.016  1.1760  0.6363  0.6129
21343SOL     OW68070   3.879   3.664   5.377  0.7502  0.4570  0.4808
21343SOL    HW168071   3.957   3.705   5.416  0.0494 -0.2569  2.7768
21343SOL    HW268072   3.806   3.702   5.425 -0.4435  1.5675 -2.0523
21344SOL     OW68073   4.382   8.592   9.867  0.3598  0.0650  0.1619
21344SOL    HW168074   4.305   8.538   9.886  0.5034  0.3674  1.6997
21344SOL    HW268075   4.456   8.531   9.872  0.5740  0.4268  2.3862
21345SOL     OW68076   3.253   4.036   2.962 -0.1922  0.4963  0.2894
21345SOL    HW168077   3.288   4.077   3.042 -0.4793  1.2898  0.0207
21345SOL    HW268078   3.159   4.032   2.977 -0.2043  0.2796  0.1537
21346SOL     OW68079   4.275   4.859   8.230  0.0594  0.2329  0.4552
21346SOL    HW168080   4.370   4.861   8.219  0.1463  1.7642  1.1651
21346SOL    HW268081   4.257   4.933   8.288 -1.3144 -1.5426  2.3908
21347SOL     OW68082   3.215   3.912   8.488  0.0780  0.7048  0.6356
21347SOL    HW168083   3.256   3.974   8.427  1.3962 -1.1924 -0.4905
21347SOL    HW268084   3.128   3.897   8.451 -0.7218  2.6675  1.5465
21348SOL     OW68085   7.800   9.661   5.589  0.8563  0.1760 -0.2939
21348SOL    HW168086   7.803   9.583   5.645 -1.8375  1.1255  1.3718
21348SOL    HW268087   7.755   9.632   5.510  2.9207 -0.6948 -1.2261
21349SOL     OW68088   4.361   7.841   8.999  0.3719 -0.4261 -0.1608
21349SOL    HW168089   4.419   7.836   8.923  0.5795  0.4393 -0.0744
21349SOL    HW268090   4.393   7.916   9.049 -1.1050  0.3908 -0.3672
21350SOL     OW68091   6.061   4.521   5.426  0.3363 -0.2863 -0.0307
21350SOL    HW168092   5.972   4.555   5.429  0.5630  0.4000 -0.6495
21350SOL    HW268093   6.093   4.546   5.339  0.9318 -1.0344 -0.0342
21351SOL     OW68094   9.705   9.640   7.093  0.1847  0.5532  0.1231
21351SOL    HW168095   9.631   9.626   7.153 -0.0026 -2.7553 -0.6733
21351SOL    HW268096   9.782   9.620   7.146  0.1435 -0.5200 -0.1945
21352SOL     OW68097   3.216   7.112   4.766  0.3183 -0.1620 -0.2024
21352SOL    HW168098   3.304   7.131   4.733  0.5851 -0.7232  0.1852
21352SOL    HW268099   3.169   7.194   4.755  1.5724  0.9054  1.8605
21353SOL     OW68100   5.455   2.734   4.075 -0.5247  0.7705 -0.4823
21353SOL    HW168101   5.411   2.754   4.158 -0.0871 -2.5485  0.7034
21353SOL    HW268102   5.409   2.658   4.041 -0.2083  1.6165 -3.0001
21354SOL     OW68103   8.395   1.259   6.096  0.5068  0.0072 -0.5688
21354SOL    HW168104   8.367   1.341   6.138  3.6875  1.0088 -0.1445
21354SOL    HW268105   8.355   1.190   6.150 -2.1195  1.1721 -0.8437
21355SOL     OW68106   6.595   3.285   9.080  0.4010  0.0144 -0.6192
21355SOL    HW168107   6.530   3.355   9.082 -0.0814 -0.4284  0.9362
21355SOL    HW268108   6.546   3.208   9.053  0.6281 -0.0022 -0.9824
21356SOL     OW68109   6.898   0.580   8.603  0.4830 -0.0433  0.5751
21356SOL    HW168110   6.988   0.594   8.573  0.5323  0.3179  0.8777
21356SOL    HW268111   6.888   0.642   8.676 -0.0622  0.0221  0.4427
21357SOL     OW68112   9.913   2.157   5.849  0.5636  0.0926 -0.0456
21357SOL    HW168113   9.838   2.138   5.792  1.1666  0.2026 -0.9037
21357SOL    HW268114   9.934   2.248   5.831  1.0149  0.0099  0.0462
21358SOL     OW68115   1.407   2.801   8.199  0.1381 -1.2289 -0.2135
21358SOL    HW168116   1.330   2.749   8.177 -0.2343 -0.1145 -1.6714
21358SOL    HW268117   1.398   2.819   8.292 -1.5422 -0.8504 -0.4227
21359SOL     OW68118   4.245   7.230   7.051  0.6899  0.0239  0.3626
21359SOL    HW168119   4.223   7.309   7.100  0.7592  0.4551 -0.2958
21359SOL    HW268120   4.193   7.235   6.971  1.8886  0.2160 -0.4331
21360SOL     OW68121   1.342   4.502   8.638 -0.2950 -0.0562  0.3563
21360SOL    HW168122   1.323   4.433   8.702 -0.2854 -0.8143 -0.4293
21360SOL    HW268123   1.391   4.457   8.569  0.0642  0.8345  0.0255
21361SOL     OW68124   4.040   9.684   2.310  0.1331  0.6838  0.2167
21361SOL    HW168125   3.979   9.628   2.358  0.6365  0.7268  0.9231
21361SOL    HW268126   4.106   9.624   2.276 -0.8040  0.5055 -1.3895
21362SOL     OW68127   7.731   2.638   9.498  0.0797 -0.0412  0.3595
21362SOL    HW168128   7.711   2.601   9.412 -2.3154  0.2149  0.7427
21362SOL    HW268129   7.826   2.629   9.506  0.4070  0.0160 -2.3378
21363SOL     OW68130  10.001   5.095   9.582 -0.6705  0.5834  0.5400
21363SOL    HW168131  10.080   5.052   9.550  1.9375  2.2964  4.0324
21363SOL    HW268132   9.962   5.135   9.504  1.9939 -0.1879 -1.3241
21364SOL     OW68133   2.180   7.584   0.226 -0.3913 -0.3013 -0.6325
21364SOL    HW168134   2.107   7.534   0.189 -1.3261 -0.3926  1.2123
21364SOL    HW268135   2.249   7.519   0.240 -1.0051 -0.7754  0.2514
21365SOL     OW68136   4.206   5.160   7.027 -0.5767 -0.2838 -0.2097
21365SOL    HW168137   4.211   5.189   6.936 -0.6961 -0.1953 -0.1888
21365SOL    HW268138   4.180   5.068   7.022  0.9964 -0.7591 -0.3236
21366SOL     OW68139   5.816   3.381   3.421 -0.1821  0.1811 -0.4437
21366SOL    HW168140   5.785   3.292   3.436  0.7710  0.1247  1.4591
21366SOL    HW268141   5.756   3.436   3.473 -0.7469  0.6853 -1.5786
21367SOL     OW68142   9.368   3.976   8.855 -0.1226  0.0191  0.2968
21367SOL    HW168143   9.400   3.968   8.765  0.1048 -0.3548  0.4112
21367SOL    HW268144   9.338   3.889   8.878 -3.0900  0.7160 -0.4867
21368SOL     OW68145   5.115   9.701   3.323 -0.0289 -0.3833 -0.7817
21368SOL    HW168146   5.043   9.742   3.276  0.7157  1.8295 -0.1499
21368SOL    HW268147   5.117   9.746   3.408  0.0542 -2.7066  0.5201
21369SOL     OW68148   9.828   1.456   2.509  0.4212 -0.1718 -1.0582
21369SOL    HW168149   9.777   1.446   2.590 -0.5827  1.5209 -1.4425
21369SOL    HW268150   9.768   1.431   2.439  1.2068 -1.3779 -1.3314
21370SOL     OW68151   1.792   6.605   2.447 -0.0344 -0.0751  0.3126
21370SOL    HW168152   1.848   6.563   2.382  0.8052 -0.6325  1.3616
21370SOL    HW268153   1.720   6.642   2.396  1.5434  1.1553 -1.1698
21371SOL     OW68154   4.745   0.873   8.810  0.3332  0.3719  0.2930
21371SOL    HW168155   4.666   0.909   8.849  0.8510  1.8368  0.0467
21371SOL    HW268156   4.727   0.870   8.717  0.0065 -0.7837  0.3822
21372SOL     OW68157   2.433   0.821   2.710  0.8127 -0.2272  0.6719
21372SOL    HW168158   2.523   0.795   2.730  1.0061  0.6934  1.0490
21372SOL    HW268159   2.439   0.862   2.623  0.0643 -3.7262 -1.2190
21373SOL     OW68160   1.794   5.438   4.606  0.5662 -0.9588 -0.6791
21373SOL    HW168161   1.806   5.425   4.700 -0.4411 -1.2222 -0.5721
21373SOL    HW268162   1.882   5.455   4.572  0.8578 -0.1596  0.4160
21374SOL     OW68163   5.118   6.082   7.433 -0.0478 -0.5707 -0.6573
21374SOL    HW168164   5.157   6.068   7.346  0.0291  0.6576 -0.8273
21374SOL    HW268165   5.035   6.125   7.416  0.4446  0.6467 -0.0786
21375SOL     OW68166   8.807   7.092   2.177 -0.0745  0.4693  0.2983
21375SOL    HW168167   8.741   7.024   2.168  0.3777  0.0548  0.0672
21375SOL    HW268168   8.832   7.114   2.087  0.8093 -0.0905  0.3862
21376SOL     OW68169   0.186   4.288   9.623  0.0505  0.6209 -0.3340
21376SOL    HW168170   0.110   4.336   9.590  0.4437  0.8534 -0.9187
21376SOL    HW268171   0.246   4.284   9.548  0.1128 -0.6025 -0.2447
21377SOL     OW68172   4.032   0.078   3.919 -0.0833  0.1029 -0.4384
21377SOL    HW168173   3.969   0.142   3.886 -1.3326 -0.4754  0.7197
21377SOL    HW268174   4.012  -0.002   3.870 -1.2228 -0.4613  0.8854
21378SOL     OW68175   4.990   7.161   2.707 -0.1424  0.3671  0.4314
21378SOL    HW168176   5.049   7.091   2.677 -0.4701 -0.4243  1.5201
21378SOL    HW268177   4.985   7.148   2.802 -1.3995  0.9485  0.4694
21379SOL     OW68178   9.585   6.932   2.731 -0.1376  0.2304  0.6779
21379SOL    HW168179   9.492   6.951   2.733 -0.5966 -1.7355  0.0625
21379SOL    HW268180   9.604   6.914   2.639  0.6398 -0.2985  0.9272
21380SOL     OW68181   0.054   1.170   4.221  0.3012 -0.0731  0.6473
21380SOL    HW168182   0.097   1.225   4.286 -2.4494 -0.1537  2.7417
21380SOL    HW268183   0.081   1.081   4.244  1.1051  0.0473  0.2060
21381SOL     OW68184   5.946  10.053   0.750 -0.2485  0.3643 -0.8390
21381SOL    HW168185   5.908   9.990   0.688 -1.1332 -1.2458  1.2339
21381SOL    HW268186   5.960  10.003   0.830 -2.5113  3.1140  1.5157
21382SOL     OW68187   1.395   0.950   0.634 -0.7665  0.1255 -0.3059
21382SOL    HW168188   1.463   0.984   0.692 -0.5000 -0.0332 -0.5248
21382SOL    HW268189   1.316   0.947   0.689 -0.1980 -1.3900  0.4758
21383SOL     OW68190   0.819   8.773   9.467  0.7410 -0.3940  0.0322
21383SOL    HW168191   0.794   8.806   9.553  0.5021  0.0375 -0.1994
21383SOL    HW268192   0.822   8.850   9.411  0.8861 -0.6715 -0.3502
21384SOL     OW68193   8.800   0.379   4.981 -0.1907  0.3877  0.1351
21384SOL    HW168194   8.730   0.434   4.947  0.2768  0.2585 -1.0946
21384SOL    HW268195   8.870   0.384   4.915  1.1535  0.8690  1.5342
21385SOL     OW68196   7.908   5.495   1.049  0.1854  0.6186  0.5683
21385SOL    HW168197   7.923   5.424   1.112  0.7094  1.0068  0.8824
21385SOL    HW268198   7.983   5.492   0.991 -0.9676 -0.6581 -0.9485
21386SOL     OW68199   2.873   3.915   0.005  0.6208 -0.8495 -0.1382
21386SOL    HW168200   2.846   3.947  -0.081  3.3557 -0.3545 -0.9085
21386SOL    HW268201   2.846   3.983   0.066 -2.0936 -1.5837 -0.4187
21387SOL     OW68202   9.041   7.916  10.217  0.1307 -0.3405 -0.9226
21387SOL    HW168203   9.060   7.908  10.124  1.3766  0.3642 -0.7453
21387SOL    HW268204   9.116   7.963  10.253 -1.0435  0.7722  0.1782
21388SOL     OW68205   1.034   8.113   1.374  0.2082 -0.4491 -1.0645
21388SOL    HW168206   1.022   8.147   1.286 -2.5502 -0.1480 -0.6611
21388SOL    HW268207   0.962   8.051   1.386  1.0356 -1.1570  0.6707
21389SOL     OW68208   1.828   4.027   0.566  0.1715 -0.4140  0.1106
21389SOL    HW168209   1.848   4.117   0.543  0.5539 -0.0844  1.6381
21389SOL    HW268210   1.733   4.022   0.566  0.1466 -0.5078 -1.7229
21390SOL     OW68211   9.477   7.680   0.390 -0.8880  0.0330  0.4449
21390SOL    HW168212   9.501   7.627   0.314 -3.1188  0.3715 -0.5657
21390SOL    HW268213   9.474   7.617   0.462  0.1547 -0.4968  0.0539
21391SOL     OW68214   6.611   3.347   6.456 -0.7701 -0.1949  0.2004
21391SOL    HW168215   6.648   3.423   6.502 -0.4237 -0.4127  0.2861
21391SOL    HW268216   6.669   3.335   6.381 -0.3669 -0.8499  0.6092
21392SOL     OW68217   3.400   5.440   9.572 -0.4923  0.5514  0.2076
21392SOL    HW168218   3.410   5.416   9.664 -0.3299  0.2520  0.1105
21392SOL    HW268219   3.489   5.456   9.541 -0.2468 -1.9829 -0.6111
21393SOL     OW68220   1.158   7.886   3.270  0.0941 -0.2711  0.0893
21393SOL    HW168221   1.195   7.970   3.241  0.1269 -0.7068 -1.2126
21393SOL    HW268222   1.091   7.866   3.204 -0.0037 -1.1996  0.4615
21394SOL     OW68223   6.510  10.289   6.213  0.6005 -0.5053 -0.1137
21394SOL    HW168224   6.470  10.210   6.248  0.2303  0.2476  1.2156
21394SOL    HW268225   6.472  10.360   6.263  0.2826  0.6237 -1.8498
21395SOL     OW68226   9.283   0.471   0.463  0.0833  0.6720  0.0380
21395SOL    HW168227   9.293   0.511   0.549 -3.6229  2.7685 -0.2983
21395SOL    HW268228   9.352   0.511   0.410  1.1204  0.8980  1.4773
21396SOL     OW68229   4.756   2.433   2.599 -0.1260 -0.4094  0.0430
21396SOL    HW168230   4.770   2.467   2.511  1.0561 -2.0380 -0.4466
21396SOL    HW268231   4.706   2.352   2.587  0.5440 -0.9636  0.7840
21397SOL     OW68232   5.534   4.862  10.031 -0.1762 -0.3455  0.2163
21397SOL    HW168233   5.440   4.851  10.046 -0.6706 -0.0645 -2.1699
21397SOL    HW268234   5.557   4.939  10.082 -1.3903 -0.0710  0.3928
21398SOL     OW68235   2.510   4.190   8.241 -0.5231 -0.4422 -0.0979
21398SOL    HW168236   2.581   4.199   8.177 -0.4288  0.3240  0.1000
21398SOL    HW268237   2.486   4.097   8.238 -0.6157 -0.3866 -1.3288
21399SOL     OW68238   0.120   5.483   0.682 -0.3370 -1.0061  0.0423
21399SOL    HW168239   0.209   5.508   0.706 -0.6612  0.8412 -0.5266
21399SOL    HW268240   0.129   5.441   0.596  0.0043 -1.0682  0.1054
21400SOL     OW68241   0.789   7.284   5.502 -0.0490  0.2700 -0.3593
21400SOL    HW168242   0.749   7.279   5.415  0.6716 -1.2861 -0.6313
21400SOL    HW268243   0.810   7.377   5.514 -3.1817  1.0943 -0.4288
21401SOL     OW68244   9.645   7.370   0.552 -0.0750  0.4626 -0.3624
21401SOL    HW168245   9.695   7.450   0.538 -0.0854  0.5422  0.0285
21401SOL    HW268246   9.579   7.395   0.618  0.8388 -0.2376  0.8575
21402SOL     OW68247   4.301   5.893  10.151 -0.3624 -0.0134 -0.3198
21402SOL    HW168248   4.258   5.823  10.102  1.9974 -1.9336  0.2003
21402SOL    HW268249   4.262   5.889  10.238  2.1025 -3.1866  0.8169
21403SOL     OW68250   0.962   3.283   5.089 -0.2794  0.2080 -0.0056
21403SOL    HW168251   0.907   3.204   5.092  0.4272 -0.2799  0.6886
21403SOL    HW268252   0.996   3.286   5.000  0.2875 -0.7142  0.1631
21404SOL     OW68253   4.074   0.443   2.780 -0.0151  0.1873 -0.6028
21404SOL    HW168254   4.040   0.386   2.712 -1.2355  1.4912 -1.1340
21404SOL    HW268255   4.169   0.445   2.764  0.2464 -2.5046  0.1310
21405SOL     OW68256   1.770   1.647   7.948  0.3304 -0.5071  0.0958
21405SOL    HW168257   1.866   1.644   7.951  0.5181  1.3714 -1.9865
21405SOL    HW268258   1.746   1.725   7.999  0.0154 -0.1145 -0.6469
21406SOL     OW68259   7.581   2.259   3.072 -0.5496 -0.0462 -0.5576
21406SOL    HW168260   7.659   2.271   3.018 -0.1675  1.9671  0.3376
21406SOL    HW268261   7.609   2.285   3.160 -1.5115 -1.9486  0.3738
21407SOL     OW68262   9.296   5.754   0.397  0.2887 -0.1208  0.4217
21407SOL    HW168263   9.373   5.751   0.454  0.3283  1.2265  0.4516
21407SOL    HW268264   9.223   5.728   0.453  0.6612 -1.1025  0.4701
21408SOL     OW68265   2.643   1.829   1.539  0.2095  0.3386  0.1968
21408SOL    HW168266   2.682   1.742   1.543 -1.3442 -0.3686  0.7059
21408SOL    HW268267   2.717   1.889   1.543  1.2873 -0.9501  0.1026
21409SOL     OW68268   9.273   4.233   4.851  0.1974 -0.4714  0.6601
21409SOL    HW168269   9.201   4.293   4.831  0.1750 -0.3888  0.9816
21409SOL    HW268270   9.285   4.183   4.771  0.9285  0.6849  0.0169
21410SOL     OW68271   6.854   1.580   9.013  0.0778  0.2762  0.5010
21410SOL    HW168272   6.860   1.546   8.924  1.8936  1.5941  0.0469
21410SOL    HW268273   6.765   1.559   9.041 -0.4003 -0.5525 -1.4428
21411SOL     OW68274   6.420   0.892   0.757 -0.6815  0.2457  0.3815
21411SOL    HW168275   6.364   0.832   0.707  1.3780 -1.1733 -0.3573
21411SOL    HW268276   6.443   0.960   0.694  0.9583 -0.9126 -0.3554
21412SOL     OW68277   0.300   6.124  10.183  0.6029  0.3205 -0.2262
21412SOL    HW168278   0.204   6.119  10.178  0.2029  2.6898  2.5735
21412SOL    HW268279   0.325   6.044  10.229  0.0063 -0.3046 -0.9502
21413SOL     OW68280   2.004   7.481   7.779 -0.2942  0.2242 -0.2622
21413SOL    HW168281   1.943   7.439   7.840 -3.5537  1.9072 -2.1186
21413SOL    HW268282   1.980   7.447   7.693  1.9967  0.3697 -1.0324
21414SOL     OW68283   6.665   1.434   9.312 -0.8899  0.0134 -0.2265
21414SOL    HW168284   6.648   1.512   9.366  2.6536  0.8314 -0.0688
21414SOL    HW268285   6.629   1.457   9.227  1.2194  2.5175 -0.5651
21415SOL     OW68286   2.215   7.099   1.729  0.6284  0.1268  0.0881
21415SOL    HW168287   2.121   7.093   1.713  0.6024 -1.7806  0.7482
21415SOL    HW268288   2.233   7.029   1.792  2.5619  0.1793 -0.3645
21416SOL     OW68289   7.972   7.679   0.759  0.1325  0.2839 -0.0210
21416SOL    HW168290   8.041   7.617   0.779 -0.6123 -0.3189  0.7203
21416SOL    HW268291   7.890   7.632   0.776 -0.4500  1.5848  1.0007
21417SOL     OW68292   5.933   0.230   1.373 -0.0460  0.2805 -0.6749
21417SOL    HW168293   5.997   0.302   1.371 -0.4661  0.6581 -0.6904
21417SOL    HW268294   5.883   0.245   1.453  1.2539 -1.2369  0.5044
21418SOL     OW68295   4.989   0.183   5.033 -0.1588  0.6737  0.3627
21418SOL    HW168296   4.943   0.107   5.070  0.6720 -0.0272  0.0008
21418SOL    HW268297   4.971   0.178   4.939  0.9900  0.1306  0.1525
21419SOL     OW68298   5.330   0.098   5.435 -0.1627 -0.0995 -0.2539
21419SOL    HW168299   5.376   0.028   5.483 -0.7905  0.1751  0.7948
21419SOL    HW268300   5.307   0.161   5.503  0.0543  0.9491 -1.1344
21420SOL     OW68301   9.160   8.437   7.370 -0.5424 -0.0336  0.3160
21420SOL    HW168302   9.234   8.376   7.363  0.0512  0.6818  0.2475
21420SOL    HW268303   9.201   8.521   7.390 -1.4251  0.1400  1.4634
21421SOL     OW68304   9.767   5.143   4.727  0.5276 -0.5157 -0.1935
21421SOL    HW168305   9.807   5.078   4.785  3.0926  1.2120  0.1540
21421SOL    HW268306   9.841   5.179   4.677 -1.1796  0.2476 -2.3092
21422SOL     OW68307   5.232   9.651   3.096  0.2533  0.5437  0.9552
21422SOL    HW168308   5.142   9.645   3.064 -0.2190 -1.6907  2.4239
21422SOL    HW268309   5.224   9.666   3.190  1.5145  2.5244  0.8143
21423SOL     OW68310   0.430   4.160   5.615  0.1534 -0.1993  0.7862
21423SOL    HW168311   0.478   4.230   5.570  1.5911 -1.6947 -0.0799
21423SOL    HW268312   0.345   4.157   5.570  0.4070  0.4065  0.2463
21424SOL     OW68313   8.279   3.364   2.899  0.1463 -0.2104 -0.1077
21424SOL    HW168314   8.323   3.360   2.984  0.6155 -1.0047 -0.3701
21424SOL    HW268315   8.260   3.273   2.878 -1.3117  0.0962 -0.1803
21425SOL     OW68316   9.127   3.618   4.551 -0.1106  0.0150 -0.4781
21425SOL    HW168317   9.061   3.670   4.505 -1.2205 -0.9352 -0.0272
21425SOL    HW268318   9.090   3.605   4.639  0.6829 -0.5256 -0.2103
21426SOL     OW68319   6.300   1.067   9.137 -0.1822  0.0833  0.3173
21426SOL    HW168320   6.364   1.002   9.106  0.4305  0.8004  0.0525
21426SOL    HW268321   6.353   1.139   9.171 -0.8265  1.1114 -0.7724
21427SOL     OW68322   3.705   0.548   7.942  0.1326 -0.0725 -0.2705
21427SOL    HW168323   3.682   0.528   8.033 -0.7808 -1.4496 -0.7613
21427SOL    HW268324   3.723   0.642   7.941  0.6739 -0.1330  1.4280
21428SOL     OW68325   6.959   3.544   2.096 -0.1249 -0.3034 -0.1537
21428SOL    HW168326   6.877   3.500   2.116 -0.6486  0.4725 -0.5603
21428SOL    HW268327   7.013   3.476   2.054 -0.7686 -0.6644 -0.4080
21429SOL     OW68328   0.325   3.991   1.445 -0.2240 -0.6553  0.0248
21429SOL    HW168329   0.293   4.079   1.426  0.6419 -0.5878 -1.2775
21429SOL    HW268330   0.394   4.003   1.510 -0.0166 -0.3467 -0.2485
21430SOL     OW68331   4.913   5.051   9.196  0.0203  0.6065 -0.0502
21430SOL    HW168332   4.897   5.145   9.190  0.7867  0.7808  0.5298
21430SOL    HW268333   4.997   5.043   9.241 -0.8354 -0.3730  1.4913
21431SOL     OW68334   7.004   6.080   1.670 -0.0322 -0.8590 -0.0985
21431SOL    HW168335   7.046   6.123   1.595  0.6343  0.6828  1.1037
21431SOL    HW268336   7.025   5.987   1.659  2.1351 -0.3698 -0.5667
21432SOL     OW68337   7.176   0.197   3.279  0.0825  0.1781 -0.4345
21432SOL    HW168338   7.201   0.283   3.245  1.1692  0.8543  1.8469
21432SOL    HW268339   7.086   0.209   3.308 -0.3847 -0.0135 -1.7387
21433SOL     OW68340   8.227   7.805   1.062  0.0558 -0.0534 -0.4774
21433SOL    HW168341   8.243   7.879   1.004 -1.0990  1.1696  0.6932
21433SOL    HW268342   8.132   7.800   1.070  0.0186 -2.6622 -1.7156
21434SOL     OW68343   0.567   8.107   4.198  0.1705 -0.0926  0.4397
21434SOL    HW168344   0.596   8.051   4.269 -0.8909 -1.0958  0.1189
21434SOL    HW268345   0.527   8.047   4.135 -0.1548  0.9263 -0.3511
21435SOL     OW68346   4.850   2.131   3.955 -0.2661 -0.7457  0.7886
21435SOL    HW168347   4.832   2.053   3.902 -0.9547 -0.6351  0.8550
21435SOL    HW268348   4.940   2.119   3.984  0.8741  0.1450 -2.0785
21436SOL     OW68349   7.263   4.373   2.569  0.3086  0.0671 -0.0528
21436SOL    HW168350   7.258   4.317   2.491 -0.8121  2.6500 -2.0040
21436SOL    HW268351   7.349   4.415   2.563  0.5598 -0.3283  0.6121
21437SOL     OW68352   1.402   7.443   7.506  0.5894  0.2599  0.3722
21437SOL    HW168353   1.471   7.459   7.571  0.1015  0.0097  0.9672
21437SOL    HW268354   1.445   7.456   7.422  1.3389  0.2076  0.7334
21438SOL     OW68355   9.894   0.475   3.505  0.9489 -0.4470 -0.7813
21438SOL    HW168356   9.979   0.515   3.485  1.7168 -1.2896  0.6325
21438SOL    HW268357   9.855   0.533   3.570  1.3463 -1.1187  0.0670
21439SOL     OW68358   9.136   7.907   9.910  0.2068 -0.2061  0.3203
21439SOL    HW168359   9.125   7.813   9.926 -0.0090 -0.1691  0.3907
21439SOL    HW268360   9.066   7.930   9.850  1.5228 -0.5115 -1.3956
21440SOL     OW68361   9.598   1.926   9.326  0.2617 -0.6350  0.0617
21440SOL    HW168362   9.616   1.855   9.388  0.2740  0.6639  1.6271
21440SOL    HW268363   9.637   2.003   9.367 -0.2990  0.4069 -1.2893
21441SOL     OW68364   6.673   4.867   7.819 -0.1269 -0.0699  0.1214
21441SOL    HW168365   6.675   4.933   7.888 -0.6242 -0.8701  0.9224
21441SOL    HW268366   6.754   4.881   7.770  0.6883 -0.0635  1.4223
21442SOL     OW68367   2.760   1.106   8.973  0.0172 -0.9706  0.0823
21442SOL    HW168368   2.728   1.113   8.883  0.6713 -0.9001 -0.1520
21442SOL    HW268369   2.767   1.012   8.989 -3.7034 -1.1911  1.3964
21443SOL     OW68370   8.601   6.304   9.350  0.2198 -0.3337 -0.1773
21443SOL    HW168371   8.652   6.265   9.279 -1.9683 -1.8144 -1.0360
21443SOL    HW268372   8.664   6.358   9.397  2.4273 -1.5769 -1.5061
21444SOL     OW68373   4.036   0.414   9.426  0.4993 -0.1714 -0.5390
21444SOL    HW168374   4.008   0.494   9.382  3.6836  2.0778  1.1112
21444SOL    HW268375   4.090   0.369   9.361 -0.4744 -0.5137 -1.1350
21445SOL     OW68376   8.446   3.846   5.772 -0.4128 -0.2590 -0.2220
21445SOL    HW168377   8.519   3.904   5.750 -0.7424  0.5690  0.7848
21445SOL    HW268378   8.375   3.873   5.714  0.5155 -2.1617 -2.3842
21446SOL     OW68379   9.872   5.292   0.958 -0.4133  0.2459  0.7117
21446SOL    HW168380   9.850   5.378   0.922 -0.1527  0.8796  2.0049
21446SOL    HW268381   9.828   5.289   1.043 -1.7112 -1.5551  0.0196
21447SOL     OW68382   1.966   6.591   8.984 -0.2759 -0.0562 -0.0312
21447SOL    HW168383   2.049   6.575   8.938 -0.9434 -0.7964 -0.9992
21447SOL    HW268384   1.906   6.526   8.948 -1.8448  1.7398 -0.7776
21448SOL     OW68385   1.494   6.005   2.392 -0.7776 -0.2289 -0.2990
21448SOL    HW168386   1.542   5.975   2.315  0.6700  0.9515  0.1068
21448SOL    HW268387   1.485   5.926   2.446 -0.8978 -0.8443 -1.1932
21449SOL     OW68388   8.318   3.720   9.488 -0.4005 -0.5263 -0.0955
21449SOL    HW168389   8.300   3.814   9.483  0.7361 -0.2420  0.8887
21449SOL    HW268390   8.316   3.691   9.397 -1.9391  0.1938 -0.3357
21450SOL     OW68391   1.397   7.576   8.584  0.2301  0.3157 -0.4551
21450SOL    HW168392   1.405   7.487   8.549  0.9407 -0.6835  1.9834
21450SOL    HW268393   1.307   7.580   8.617  0.5187  0.0737  0.3954
21451SOL     OW68394   1.276   6.385  10.020  0.0816 -0.4235 -0.0211
21451SOL    HW168395   1.367   6.396  10.048 -0.3729  0.6476  1.0922
21451SOL    HW268396   1.262   6.452   9.954 -0.6946  1.3674  1.8643
21452SOL     OW68397   9.821   4.573   4.811  0.5505  0.5137 -0.1438
21452SOL    HW168398   9.865   4.652   4.777  1.1080 -0.9021 -3.0580
21452SOL    HW268399   9.760   4.548   4.741  0.6121 -1.8023  0.5620
21453SOL     OW68400   3.934   5.147   2.039 -0.6205  0.4803  0.8178
21453SOL    HW168401   4.012   5.194   2.068  0.3007 -0.1206 -0.5965
21453SOL    HW268402   3.961   5.056   2.035 -1.7361  0.1092  1.3552
21454SOL     OW68403   2.087   9.374   9.394  0.2700 -0.0131 -0.0760
21454SOL    HW168404   2.017   9.311   9.409 -0.3843  1.2521  2.6427
21454SOL    HW268405   2.080   9.395   9.300 -1.6452 -1.4305 -0.3069
21455SOL     OW68406   0.932   4.347   1.780 -0.1628  0.2501 -0.0687
21455SOL    HW168407   0.935   4.271   1.839 -0.8653 -0.0967 -0.4642
21455SOL    HW268408   1.018   4.349   1.739  0.3764  0.5647  1.0487
21456SOL     OW68409   0.449   0.850   4.345 -0.2050  0.6384  0.4382
21456SOL    HW168410   0.446   0.911   4.419 -1.5206  1.7507 -0.4679
21456SOL    HW268411   0.440   0.764   4.385 -1.0634  1.2258  1.5912
21457SOL     OW68412   1.585   0.217   8.239 -0.2490  0.3381  0.6748
21457SOL    HW168413   1.636   0.147   8.279  0.2269  0.0728 -0.3406
21457SOL    HW268414   1.516   0.171   8.190  0.7131  0.4890 -0.8853
21458SOL     OW68415   4.884   3.349   3.994  0.5566 -0.3532  0.3450
21458SOL    HW168416   4.839   3.379   3.915  0.7552  3.4752  1.5053
21458SOL    HW268417   4.972   3.326   3.965  0.8519  1.7015 -0.5119
21459SOL     OW68418   1.761   2.278   3.246 -0.0513 -0.0439  0.2207
21459SOL    HW168419   1.780   2.193   3.208  1.2602  0.2876  0.0858
21459SOL    HW268420   1.680   2.306   3.203 -0.0508 -0.8683 -0.3324
21460SOL     OW68421   9.944   8.662   1.744 -0.5483 -0.1113 -0.3040
21460SOL    HW168422   9.943   8.751   1.710  0.6733  0.6239  1.4135
21460SOL    HW268423   9.852   8.636   1.747 -0.9602  1.2606 -0.3988
21461SOL     OW68424   6.456   3.092   9.939  0.5293 -0.5315 -0.6883
21461SOL    HW168425   6.485   3.149   9.868  2.2655  1.2770  1.3050
21461SOL    HW268426   6.439   3.152  10.012  0.1801 -2.3901  0.8465
21462SOL     OW68427   2.082   2.732   8.026  0.0999  0.3178 -0.0558
21462SOL    HW168428   2.166   2.761   8.062  0.4170 -1.1742  0.4906
21462SOL    HW268429   2.017   2.774   8.082  0.5632 -0.7747  1.3674
21463SOL     OW68430   4.468  10.017   2.089 -0.7159 -0.1840 -0.5216
21463SOL    HW168431   4.398  10.046   2.147  0.6321  0.5715  0.7937
21463SOL    HW268432   4.423   9.991   2.009 -2.4205  1.0810 -0.0387
21464SOL     OW68433   2.892   1.328   9.927 -0.6836  0.6870 -0.0458
21464SOL    HW168434   2.834   1.404   9.924  1.5789  2.6034  0.9025
21464SOL    HW268435   2.980   1.365   9.916  0.4674 -1.9138 -0.3019
21465SOL     OW68436   9.381   7.746   3.984 -0.2988 -0.0167  0.2683
21465SOL    HW168437   9.350   7.687   4.052  0.8249 -0.0205  0.7968
21465SOL    HW268438   9.435   7.810   4.030 -2.7577  2.4633 -0.0445
21466SOL     OW68439   9.729   2.296   3.863  0.2514  0.0115 -0.8794
21466SOL    HW168440   9.765   2.245   3.935  0.2302  0.8349 -0.2759
21466SOL    HW268441   9.712   2.382   3.900  2.0775  1.0770 -2.3474
21467SOL     OW68442   7.017   0.497   6.312  0.2194  0.4035  0.5934
21467SOL    HW168443   7.026   0.402   6.324 -3.6652 -0.0770  1.1176
21467SOL    HW268444   7.021   0.533   6.401 -0.3301  0.4709  0.5916
21468SOL     OW68445   3.137   9.591   9.343  0.0501  0.0617  0.5099
21468SOL    HW168446   3.060   9.616   9.291  0.5657  0.1865 -0.2211
21468SOL    HW268447   3.117   9.503   9.375 -0.6608  0.3440  0.8682
21469SOL     OW68448   8.021   0.501   8.979  0.2487 -0.0924  0.6901
21469SOL    HW168449   8.100   0.480   8.931  0.5303  2.1770  0.0405
21469SOL    HW268450   8.049   0.567   9.043 -1.0379  0.5194  0.6518
21470SOL     OW68451   9.738   9.967  10.134  0.4964  0.3459  0.7924
21470SOL    HW168452   9.695  10.004  10.057  1.3603 -0.2092  0.0214
21470SOL    HW268453   9.827   9.946  10.104  1.2200  1.1910  2.2657
21471SOL     OW68454   0.685   5.212   1.023 -0.0728  0.7822 -0.0313
21471SOL    HW168455   0.728   5.161   0.955  1.6436  2.3605 -0.2068
21471SOL    HW268456   0.607   5.161   1.046  0.8080 -1.1705 -1.1562
21472SOL     OW68457   4.490   4.248   4.014  0.0611 -0.2180  0.0816
21472SOL    HW168458   4.542   4.288   3.944 -0.7299 -0.8561 -0.9011
21472SOL    HW268459   4.534   4.274   4.095  1.6903 -0.4392 -0.6981
21473SOL     OW68460   1.069   0.707   4.300  0.3783  1.0180 -0.1854
21473SOL    HW168461   1.098   0.657   4.223  0.4260  1.3584 -0.3874
21473SOL    HW268462   1.030   0.641   4.357 -0.3287  0.8749 -0.8207
21474SOL     OW68463   8.563   3.452   7.022 -0.2167 -0.2915  0.0012
21474SOL    HW168464   8.633   3.401   6.981 -0.5161 -1.1754  0.5616
21474SOL    HW268465   8.493   3.451   6.957 -0.9790 -2.3429  0.7695
21475SOL     OW68466   5.261   3.414   2.293 -0.3447  0.1415  0.2140
21475SOL    HW168467   5.264   3.324   2.325 -1.1624  0.7376  2.1332
21475SOL    HW268468   5.352   3.439   2.281 -0.1248 -1.1794 -1.1513
21476SOL     OW68469   2.978   5.669   0.624  0.7286 -0.1665  1.0399
21476SOL    HW168470   2.993   5.634   0.536 -0.9223  0.1580  0.6105
21476SOL    HW268471   3.066   5.677   0.661  1.3460 -2.3509  0.2424
21477SOL     OW68472   5.492   3.418   6.349  0.1752  0.0991 -0.4159
21477SOL    HW168473   5.417   3.435   6.292  1.1543  0.3042 -1.7099
21477SOL    HW268474   5.513   3.503   6.387 -2.4205 -0.5345  2.9089
21478SOL     OW68475   5.293   8.163   8.443  0.0741  0.2592 -0.4527
21478SOL    HW168476   5.383   8.130   8.441  0.4965  1.3372 -0.1578
21478SOL    HW268477   5.269   8.175   8.351  0.0911 -0.3974 -0.5420
21479SOL     OW68478   5.138   5.434   2.145  0.4311 -0.1134 -0.6193
21479SOL    HW168479   5.175   5.375   2.211 -0.4151 -0.2256 -0.2318
21479SOL    HW268480   5.054   5.394   2.121  0.6156  0.0578 -1.5871
21480SOL     OW68481   5.944   6.414   4.246 -0.1129 -0.4136 -0.5415
21480SOL    HW168482   5.982   6.459   4.321 -0.3445  0.3459 -0.8601
21480SOL    HW268483   6.007   6.345   4.224 -0.4785 -1.2304  0.8870
21481SOL     OW68484  10.078   7.289   1.437  0.2446  0.1808 -0.1562
21481SOL    HW168485  10.067   7.364   1.496  0.2648 -0.6260  0.9162
21481SOL    HW268486  10.074   7.326   1.349 -0.2670  1.3659  0.3456
21482SOL     OW68487   8.225   5.685   7.507 -0.0587  0.3776 -0.5140
21482SOL    HW168488   8.131   5.671   7.522  0.3088 -1.0717  0.6312
21482SOL    HW268489   8.253   5.741   7.579  0.0790  0.2313 -0.4519
21483SOL     OW68490   9.506   1.802   4.200  0.0129  0.2321  0.1438
21483SOL    HW168491   9.429   1.856   4.181  0.8080  1.3884  0.0844
21483SOL    HW268492   9.509   1.798   4.296 -0.0663  0.2635  0.1482
21484SOL     OW68493   7.842   5.162   2.569  0.0727  0.0220 -0.2757
21484SOL    HW168494   7.913   5.173   2.506  0.2312  0.4936 -0.0219
21484SOL    HW268495   7.886   5.160   2.654 -0.2091  0.2495 -0.1230
21485SOL     OW68496   9.020   7.299   4.086 -0.0153 -0.0085 -0.5381
21485SOL    HW168497   8.953   7.251   4.036  0.6344 -1.2771 -0.2230
21485SOL    HW268498   8.976   7.323   4.167  0.0058 -1.2259 -0.1399
21486SOL     OW68499   3.666   5.370   9.053  0.3279 -0.1500  0.0648
21486SOL    HW168500   3.587   5.408   9.091  0.7871 -0.8661  1.8046
21486SOL    HW268501   3.702   5.439   8.997 -0.7041  0.7066  0.4332
21487SOL     OW68502   4.343   2.256   1.619 -0.3949 -0.3924 -0.7344
21487SOL    HW168503   4.412   2.212   1.569  0.5665  2.1493 -1.8129
21487SOL    HW268504   4.335   2.204   1.699  2.7444 -0.8600 -0.5973
21488SOL     OW68505   2.185   9.076   7.159  0.0560  0.0524  0.3663
21488SOL    HW168506   2.223   9.157   7.127 -1.3871  0.1051 -1.4061
21488SOL    HW268507   2.122   9.104   7.226  1.3175  0.1558  1.5412
21489SOL     OW68508   5.929   9.841   7.632  0.1465 -0.2944 -0.2024
21489SOL    HW168509   5.970   9.781   7.694  0.7667  0.0240 -0.2936
21489SOL    HW268510   5.879   9.785   7.573 -1.0365 -0.5482  1.0068
21490SOL     OW68511   8.109   5.785  10.276  0.3099 -0.1900 -0.4903
21490SOL    HW168512   8.169   5.736  10.220  2.4590  1.0344  0.6237
21490SOL    HW268513   8.094   5.867  10.230 -0.7618 -0.5630 -0.8599
21491SOL     OW68514   6.136   7.129   8.050 -0.1303 -0.0309  0.3679
21491SOL    HW168515   6.097   7.073   8.118 -0.2673  0.5200  0.7509
21491SOL    HW268516   6.134   7.217   8.088 -1.3231  0.4951 -0.8261
21492SOL     OW68517   7.365   8.567   4.577 -0.3626  0.2786 -0.2341
21492SOL    HW168518   7.284   8.523   4.553 -0.1085 -0.6541  0.5722
21492SOL    HW268519   7.434   8.507   4.549 -0.0342 -0.3119  1.6977
21493SOL     OW68520   6.821   7.463   0.981  0.0432 -0.0470  0.2046
21493SOL    HW168521   6.778   7.379   1.000  0.6548 -0.7084 -1.1797
21493SOL    HW268522   6.890   7.470   1.048 -0.6724 -0.1309  0.9649
21494SOL     OW68523   1.647   9.028   8.574 -0.4012 -1.0434  0.1843
21494SOL    HW168524   1.663   8.992   8.487 -1.8827 -0.5969 -0.2968
21494SOL    HW268525   1.619   8.954   8.627 -1.0450 -1.0422 -0.1500
21495SOL     OW68526   0.779   0.539   6.075 -0.5699 -0.6446  0.1842
21495SOL    HW168527   0.746   0.615   6.027  0.7903  0.5124  1.0058
21495SOL    HW268528   0.812   0.480   6.007 -0.9681 -0.1770 -0.4210
21496SOL     OW68529   3.297   8.882   3.040 -0.0386  0.1151 -0.0440
21496SOL    HW168530   3.227   8.934   3.001 -0.3145 -0.1336  0.1160
21496SOL    HW268531   3.269   8.866   3.130 -0.3628 -1.0102 -0.3249
21497SOL     OW68532   3.292   7.847   4.616  0.3627 -0.2378 -0.0252
21497SOL    HW168533   3.324   7.881   4.699  0.7786 -0.4026 -0.1165
21497SOL    HW268534   3.295   7.923   4.557  3.0547 -0.7985 -0.7373
21498SOL     OW68535   0.175   8.119   6.062  0.0649  0.0488  0.2117
21498SOL    HW168536   0.169   8.047   6.124 -0.2021  0.4861  0.7015
21498SOL    HW268537   0.184   8.076   5.977  2.0248 -0.5533  0.6758
21499SOL     OW68538   7.148   0.697   4.284 -0.4718  0.5067 -0.6719
21499SOL    HW168539   7.113   0.617   4.323  1.9466 -0.7658 -0.9341
21499SOL    HW268540   7.075   0.733   4.234 -0.8469 -3.3128 -3.2746
21500SOL     OW68541   5.355   1.514   2.646 -0.2520  0.4011 -0.9580
21500SOL    HW168542   5.293   1.448   2.678 -0.1855  0.5098 -0.5978
21500SOL    HW268543   5.328   1.595   2.689 -0.1163  0.5368 -1.1261
21501SOL     OW68544   1.961   7.023   2.922  0.1728  0.8566  0.1085
21501SOL    HW168545   2.044   7.041   2.965  0.2085 -0.6308  0.7325
21501SOL    HW268546   1.968   6.932   2.892 -1.0648  0.8429 -0.2132
21502SOL     OW68547   3.493   0.411   5.580  0.0662  0.2801  0.2125
21502SOL    HW168548   3.478   0.455   5.497  1.9510  0.6709  0.0184
21502SOL    HW268549   3.587   0.393   5.581 -0.3677 -2.4166  0.9562
21503SOL     OW68550   7.857   5.083   2.992  0.4740  0.3184  0.0526
21503SOL    HW168551   7.810   5.157   3.032 -0.0828  0.3264 -0.6072
21503SOL    HW268552   7.791   5.013   2.986  0.4235  0.4581 -1.2563
21504SOL     OW68553   6.926   2.458   5.865 -0.2405 -0.0759 -0.0050
21504SOL    HW168554   7.017   2.476   5.841  0.2445 -0.2856  1.6079
21504SOL    HW268555   6.921   2.363   5.871 -0.5529 -0.0607  0.0114
21505SOL     OW68556   8.901   6.802   3.366  0.2754 -0.4336 -0.4471
21505SOL    HW168557   8.876   6.732   3.427  0.6994  1.3015  1.8690
21505SOL    HW268558   8.834   6.869   3.378  1.0121  0.4192 -1.0258
21506SOL     OW68559   4.125   7.564   0.374  0.3920 -0.4407  0.2962
21506SOL    HW168560   4.180   7.492   0.344  1.9053  1.2309 -1.1631
21506SOL    HW268561   4.061   7.577   0.304 -0.5507 -0.9753  1.0209
21507SOL     OW68562   1.403   9.665   1.441 -0.6078  0.0085 -0.0217
21507SOL    HW168563   1.363   9.699   1.361  0.9423 -3.3116 -2.4323
21507SOL    HW268564   1.496   9.687   1.433  0.0496 -2.6963 -0.6059
21508SOL     OW68565   7.021   4.120   7.966 -0.7145  0.1094 -0.4869
21508SOL    HW168566   7.076   4.139   8.042 -0.6354 -3.6417  0.5858
21508SOL    HW268567   7.077   4.067   7.909 -2.4194 -1.8183 -0.4755
21509SOL     OW68568   8.297   4.184   6.244 -0.0509 -0.5596  0.0184
21509SOL    HW168569   8.360   4.112   6.250  0.5037 -0.0048  1.1288
21509SOL    HW268570   8.299   4.224   6.331  0.0815  1.1590 -0.7484
21510SOL     OW68571   8.172   4.655   6.663 -0.0483 -0.5331 -0.1388
21510SOL    HW168572   8.120   4.612   6.731  1.6385  0.9225  2.2395
21510SOL    HW268573   8.254   4.606   6.661  0.4417  0.2646 -0.0838
21511SOL     OW68574   8.222   7.554   4.205 -0.3790 -0.6408 -0.0805
21511SOL    HW168575   8.231   7.613   4.131  2.0603  1.8771  1.9931
21511SOL    HW268576   8.270   7.475   4.179 -1.9466 -1.0111 -2.1213
21512SOL     OW68577   8.901   2.062   7.810  0.4741  0.6395 -0.5160
21512SOL    HW168578   8.867   1.980   7.774  1.4119 -0.5255  1.1290
21512SOL    HW268579   8.828   2.123   7.804 -0.4505 -0.4812 -1.1834
21513SOL     OW68580   7.393   0.564   6.900 -0.1798  0.0701 -0.1807
21513SOL    HW168581   7.317   0.562   6.958 -0.0104 -1.4232  0.0377
21513SOL    HW268582   7.401   0.656   6.874 -2.5311  0.1423 -0.8453
21514SOL     OW68583   1.195   8.882   3.898 -0.3997 -0.1488  0.7917
21514SOL    HW168584   1.131   8.887   3.970 -2.0395 -1.2439 -0.5335
21514SOL    HW268585   1.253   8.956   3.914 -2.4540  1.3921  1.6389
21515SOL     OW68586   7.972   5.350   5.193 -0.0733  0.2877  0.0771
21515SOL    HW168587   8.043   5.391   5.242  0.1620  1.6224 -1.2966
21515SOL    HW268588   8.012   5.273   5.152  0.0319 -0.1440  0.9804
21516SOL     OW68589   2.936   9.412  10.292  0.0879  0.8171  0.6160
21516SOL    HW168590   2.870   9.352  10.254  0.7575  0.3380  0.1870
21516SOL    HW268591   2.901   9.433  10.379 -0.1647 -0.2045  0.7781
21517SOL     OW68592   9.162   3.092   6.051  0.0113 -0.5098 -0.3810
21517SOL    HW168593   9.071   3.119   6.039 -0.4607 -2.5637 -2.3130
21517SOL    HW268594   9.156   3.014   6.106  0.8086  0.2752  0.8638
21518SOL     OW68595  10.152   9.065   3.042  0.5636 -0.0170 -0.7626
21518SOL    HW168596  10.125   9.029   2.957  1.3850  1.2008 -1.5691
21518SOL    HW268597  10.205   8.995   3.081 -2.1623 -1.7384  0.0834
21519SOL     OW68598   9.408   7.758   3.563  0.2429 -0.6788  0.1390
21519SOL    HW168599   9.451   7.679   3.597 -0.0918 -0.6612  0.6147
21519SOL    HW268600   9.424   7.756   3.469  0.9226 -0.8951  0.2534
21520SOL     OW68601   5.015  10.138   8.285 -0.2184 -0.4280 -0.7415
21520SOL    HW168602   5.022  10.215   8.229 -0.0069 -1.0066 -1.5268
21520SOL    HW268603   4.964  10.167   8.360  0.3711  0.6353 -0.7378
21521SOL     OW68604   6.877   0.241   2.845  0.2189 -0.0077  0.3147
21521SOL    HW168605   6.793   0.237   2.799  0.1935 -1.8257  0.4599
21521SOL    HW268606   6.867   0.183   2.920  1.6935 -0.5182  0.1581
21522SOL     OW68607   4.537   7.623   2.805 -0.3085  0.4990  0.2172
21522SOL    HW168608   4.494   7.631   2.720 -1.2327 -0.9056  0.5095
21522SOL    HW268609   4.507   7.538   2.839  1.0272  0.4535  1.3925
21523SOL     OW68610   6.356   6.753   0.168 -0.1269 -0.8036  0.2406
21523SOL    HW168611   6.409   6.712   0.236 -0.2937 -0.5197  0.5458
21523SOL    HW268612   6.393   6.721   0.085  1.1839  0.1910  0.4082
21524SOL     OW68613   3.187   6.632   5.317  0.1971 -0.1740  0.0503
21524SOL    HW168614   3.258   6.653   5.378  2.1322 -2.1206 -1.3977
21524SOL    HW268615   3.180   6.537   5.319 -3.5193 -0.0375  1.2692
21525SOL     OW68616   7.512   0.154   5.172  0.3883 -0.1343 -0.1672
21525SOL    HW168617   7.472   0.072   5.197 -0.1157 -0.3574 -1.5802
21525SOL    HW268618   7.449   0.221   5.197  0.4020 -0.2560  0.1847
21526SOL     OW68619   6.864   6.940   9.760  0.2103 -0.2984  0.6764
21526SOL    HW168620   6.802   6.981   9.700  0.0681 -0.6664  0.5710
21526SOL    HW268621   6.874   6.851   9.726  0.0949 -0.5194  1.2226
21527SOL     OW68622   8.458   9.738   2.048 -0.0868 -0.2409 -0.6511
21527SOL    HW168623   8.422   9.728   1.960 -0.2763  3.1960 -1.0858
21527SOL    HW268624   8.381   9.752   2.103  0.2010  1.1502 -0.5729
21528SOL     OW68625   5.021  10.162   2.850  0.7091 -0.2376 -0.4038
21528SOL    HW168626   5.061  10.245   2.822  0.0773 -0.1607 -1.0978
21528SOL    HW268627   4.945  10.152   2.794 -0.7280 -0.0038  1.4036
21529SOL     OW68628   0.365   5.249   7.256  0.5850 -0.3531  0.1786
21529SOL    HW168629   0.409   5.268   7.339 -0.6177 -1.2149  1.0521
21529SOL    HW268630   0.307   5.175   7.277  0.2363 -0.5555 -1.4247
21530SOL     OW68631   1.017   8.592   1.810  0.3971  0.3934  0.7473
21530SOL    HW168632   0.975   8.636   1.884  1.2149 -0.6145  1.8426
21530SOL    HW268633   0.957   8.605   1.737 -1.0210  0.3642  1.8813
21531SOL     OW68634   8.083   3.781   5.195  0.1869  0.6934 -0.6400
21531SOL    HW168635   8.115   3.698   5.229 -1.0023  0.1818 -0.7270
21531SOL    HW268636   8.138   3.799   5.119 -0.6569 -0.9063 -1.6717
21532SOL     OW68637   9.549   2.504   5.744 -0.0527  1.1104  0.0728
21532SOL    HW168638   9.501   2.478   5.665 -1.4791  0.5710  1.0669
21532SOL    HW268639   9.505   2.584   5.773  0.8708  1.6617 -0.0057
21533SOL     OW68640   4.649   8.258  10.090 -0.1226 -0.2826  0.2088
21533SOL    HW168641   4.714   8.286  10.155 -0.6014  0.0343  0.5603
21533SOL    HW268642   4.694   8.193  10.037  1.5166  2.0962 -1.5199
21534SOL     OW68643   8.616   0.963   6.007  0.1805  0.6119 -0.3720
21534SOL    HW168644   8.654   1.044   5.973 -1.5894  1.4886 -0.3619
21534SOL    HW268645   8.522   0.974   5.998 -0.1245 -1.4356 -0.2884
21535SOL     OW68646   9.005   5.231   1.504  0.1210 -0.2242  0.1695
21535SOL    HW168647   9.005   5.144   1.544 -0.5125 -0.6672 -0.7504
21535SOL    HW268648   8.970   5.217   1.416  1.0309  0.7981 -0.3770
21536SOL     OW68649   8.981   9.334   6.601 -0.0954  0.4712  0.3271
21536SOL    HW168650   9.017   9.402   6.544  0.3880  0.4591  0.6076
21536SOL    HW268651   8.938   9.273   6.542 -1.0489  1.3161  0.1075
21537SOL     OW68652   0.007   2.204   8.148 -0.9051 -0.1900  0.3188
21537SOL    HW168653   0.081   2.147   8.125  0.4633  1.2182  1.0584
21537SOL    HW268654  -0.044   2.210   8.068  1.1093  0.7303 -0.9717
21538SOL     OW68655   5.095   1.620   9.117 -0.0127 -0.2914 -0.7887
21538SOL    HW168656   5.185   1.611   9.085 -0.4990 -0.5072 -2.1695
21538SOL    HW268657   5.043   1.641   9.040 -1.4019 -1.7858 -0.3365
21539SOL     OW68658   7.714   7.835   2.124 -0.0107  0.1604 -0.7497
21539SOL    HW168659   7.705   7.851   2.218 -1.0213  0.1941 -0.8408
21539SOL    HW268660   7.639   7.880   2.085  0.8023  0.7790 -1.6488
21540SOL     OW68661   1.125   6.097   9.600 -0.1358  0.3187  0.0690
21540SOL    HW168662   1.080   6.037   9.660 -1.0376  2.7898  2.0062
21540SOL    HW268663   1.192   6.139   9.654  0.6730  0.8647 -1.3212
21541SOL     OW68664   1.846   7.223   5.310 -0.2801 -0.5004 -0.1204
21541SOL    HW168665   1.758   7.224   5.348 -0.4654 -0.7615 -0.5355
21541SOL    HW268666   1.885   7.307   5.336 -1.2926  0.4104 -1.4141
21542SOL     OW68667   7.586   0.465   5.513 -0.6036  0.1314  0.4169
21542SOL    HW168668   7.612   0.553   5.540 -0.4502  0.0535  0.5225
21542SOL    HW268669   7.641   0.407   5.565  1.2095 -0.0258 -1.5418
21543SOL     OW68670   5.340   3.147   9.199 -0.7860  0.3723 -0.8343
21543SOL    HW168671   5.415   3.188   9.242 -0.4375 -0.5635 -0.5219
21543SOL    HW268672   5.271   3.213   9.203 -1.0258  0.0718  1.8883
21544SOL     OW68673   8.202   5.272   9.130  0.1180 -0.4251  0.1607
21544SOL    HW168674   8.180   5.216   9.204 -0.6587  1.1936  1.2116
21544SOL    HW268675   8.125   5.270   9.074  0.0180 -0.2493  0.2929
21545SOL     OW68676   5.122   8.044   7.505  0.1755  0.7695 -0.1450
21545SOL    HW168677   5.209   8.006   7.513  1.1454  2.6668 -1.0443
21545SOL    HW268678   5.096   8.063   7.595  0.4842 -0.2029  0.1651
21546SOL     OW68679   2.879   5.080   0.366  0.1068 -0.1912  0.4352
21546SOL    HW168680   2.936   5.004   0.354 -0.4789 -0.6378  0.4344
21546SOL    HW268681   2.890   5.103   0.458  0.0656 -0.4693  0.5125
21547SOL     OW68682   2.982   4.031   3.767  0.0920 -0.4582  0.1101
21547SOL    HW168683   2.976   4.040   3.672  2.0257 -0.8289 -0.0990
21547SOL    HW268684   2.904   3.983   3.792 -1.8244  1.9163 -0.9072
21548SOL     OW68685   1.722   6.491   0.362  0.2320  0.5425  0.0008
21548SOL    HW168686   1.764   6.576   0.348  1.1799  0.2066  0.7219
21548SOL    HW268687   1.646   6.492   0.304  1.1922  1.2002 -1.2838
21549SOL     OW68688   9.913   4.743   6.467 -0.2646 -0.3699  0.3145
21549SOL    HW168689   9.908   4.808   6.537 -0.4656 -0.3351  0.2691
21549SOL    HW268690   9.829   4.698   6.470 -0.2367 -0.4339  0.1574
21550SOL     OW68691   7.656   2.095   1.936  0.4512 -0.3669  0.3135
21550SOL    HW168692   7.572   2.123   1.902 -0.2680  0.0109  2.2688
21550SOL    HW268693   7.642   2.005   1.964  0.8635 -0.4957  0.1133
21551SOL     OW68694   1.229   9.970   4.900  0.2533 -0.6627 -0.4938
21551SOL    HW168695   1.156  10.011   4.947 -0.9900 -1.0544 -1.9896
21551SOL    HW268696   1.302   9.971   4.962 -0.5525  1.2040  0.4998
21552SOL     OW68697   5.150   5.375   6.322  0.4506  0.0326  0.5516
21552SOL    HW168698   5.180   5.436   6.255 -0.2384 -1.1737 -0.9265
21552SOL    HW268699   5.230   5.334   6.355  0.7174 -0.4501 -0.6440
21553SOL     OW68700   8.206  10.294   5.623  0.2327  1.1279 -0.3555
21553SOL    HW168701   8.266  10.357   5.583  0.2247  0.9712 -0.6153
21553SOL    HW268702   8.167  10.248   5.549 -0.0751  1.1073 -0.1795
21554SOL     OW68703   4.897   0.847   3.063  0.1367  0.0059  0.2072
21554SOL    HW168704   4.981   0.824   3.104  1.0190 -0.8836 -1.9238
21554SOL    HW268705   4.844   0.768   3.071  0.3148 -0.1731 -0.3470
21555SOL     OW68706   2.841   0.751   6.161  0.1577  0.0670 -0.1635
21555SOL    HW168707   2.842   0.759   6.066  0.7948  1.1544 -0.0842
21555SOL    HW268708   2.864   0.660   6.178  0.0911 -0.1205 -1.0433
21556SOL     OW68709   6.104   8.034   3.665 -0.3267  0.6394  0.4126
21556SOL    HW168710   6.064   8.088   3.598  0.3785  0.8956  0.1980
21556SOL    HW268711   6.130   7.954   3.619  2.3782  1.7723 -0.2039
21557SOL     OW68712   2.745   0.580   6.841 -0.0762  0.4156  0.4008
21557SOL    HW168713   2.783   0.659   6.803 -0.1159  0.3916  0.3111
21557SOL    HW268714   2.715   0.529   6.766  0.6665 -0.0548  0.4177
21558SOL     OW68715   2.184   5.129   2.849  0.4867 -0.2122  0.0186
21558SOL    HW168716   2.192   5.066   2.921 -2.1789  1.3387  1.8489
21558SOL    HW268717   2.152   5.078   2.775  1.7982 -1.5707  0.3253
21559SOL     OW68718   3.168   8.425   5.183 -0.4583  0.4664 -0.3192
21559SOL    HW168719   3.151   8.417   5.089  1.5840  0.4187 -0.7335
21559SOL    HW268720   3.147   8.516   5.204 -0.0967  0.7185 -1.0224
21560SOL     OW68721   2.147   3.901   7.782 -0.0013  0.6193 -0.2438
21560SOL    HW168722   2.226   3.848   7.794 -1.6440 -2.3845 -1.6274
21560SOL    HW268723   2.098   3.890   7.864 -0.6530 -0.6943 -0.7767
21561SOL     OW68724   3.209   3.393   2.157  0.8431 -1.0165 -0.6632
21561SOL    HW168725   3.162   3.316   2.189  0.5920 -0.5426  0.1543
21561SOL    HW268726   3.249   3.430   2.235  1.9662 -0.9914 -1.2383
21562SOL     OW68727   8.579   9.502   8.295  0.6266 -0.4964  0.1449
21562SOL    HW168728   8.654   9.498   8.355  1.2344  0.0786 -0.5435
21562SOL    HW268729   8.504   9.518   8.351  1.4631  2.2995  0.6214
21563SOL     OW68730   9.871   1.126   1.629  0.3309  0.1716  1.2983
21563SOL    HW168731   9.951   1.145   1.676  0.7500  0.2277  0.5796
21563SOL    HW268732   9.836   1.047   1.670  0.7957  0.1025  1.5601
21564SOL     OW68733   1.830   6.435   3.684  0.2324  0.2590  0.1319
21564SOL    HW168734   1.763   6.384   3.639  0.0331  0.9390 -0.3625
21564SOL    HW268735   1.824   6.522   3.644 -0.3306  1.0437  1.8613
21565SOL     OW68736   1.512   5.568   4.954  0.7171  0.4115  0.4067
21565SOL    HW168737   1.475   5.605   5.034  0.6930 -2.6611  1.9498
21565SOL    HW268738   1.444   5.510   4.920  1.2584  0.5924 -1.0617
21566SOL     OW68739   7.727   3.886   7.152 -0.7921 -0.1443  0.2435
21566SOL    HW168740   7.670   3.871   7.076  0.2763  0.8650 -0.8084
21566SOL    HW268741   7.681   3.845   7.225 -2.4373 -0.1112 -0.7219
21567SOL     OW68742   5.338   5.826   0.004 -0.2665 -0.2809 -0.3240
21567SOL    HW168743   5.250   5.859  -0.014 -0.0675  0.5943  0.2286
21567SOL    HW268744   5.326   5.732   0.016 -1.7848  0.1918  3.2724
21568SOL     OW68745   6.316   4.702   9.993 -0.4713 -0.1550 -0.0152
21568SOL    HW168746   6.271   4.636  10.045 -2.3623 -0.5385 -2.0007
21568SOL    HW268747   6.254   4.726   9.924  0.6765  2.6692 -0.2310
21569SOL     OW68748   2.275   1.809   9.887  0.0671 -0.4647 -0.0399
21569SOL    HW168749   2.216   1.779   9.819  0.1702 -1.2943  0.2316
21569SOL    HW268750   2.359   1.820   9.843  0.0334 -0.5926 -0.1357
21570SOL     OW68751   2.160   7.268   6.659  0.1213 -0.2863  0.3470
21570SOL    HW168752   2.241   7.276   6.608  0.5765 -3.8300  0.2671
21570SOL    HW268753   2.179   7.315   6.741  1.4830  0.6186 -0.4458
21571SOL     OW68754   6.701  10.004   2.542  0.1855  0.4024  0.1242
21571SOL    HW168755   6.768   9.975   2.604  1.7966  1.8944 -0.8168
21571SOL    HW268756   6.639   9.931   2.537  1.2467 -0.6655  1.7262
21572SOL     OW68757   7.678   1.529   9.537 -0.0285  0.5753 -0.4009
21572SOL    HW168758   7.600   1.582   9.553  0.5870  1.1162  0.9564
21572SOL    HW268759   7.742   1.561   9.601  0.4745 -1.5624  0.2386
21573SOL     OW68760   2.912   7.096   0.219 -0.0550  0.5542  0.1023
21573SOL    HW168761   2.907   7.084   0.314  1.3037  0.3886  0.1717
21573SOL    HW268762   2.901   7.190   0.206  2.4440  1.0063  0.6997
21574SOL     OW68763   5.044   7.316   3.336 -0.4168 -0.6766  0.4552
21574SOL    HW168764   4.979   7.376   3.370 -1.8116 -1.3686 -0.8906
21574SOL    HW268765   5.123   7.369   3.324 -1.2757  0.5944  0.3736
21575SOL     OW68766   9.022   3.780   8.998  0.6277  0.3617  0.4205
21575SOL    HW168767   9.090   3.786   9.064  0.6971  2.3837  0.2527
21575SOL    HW268768   9.013   3.870   8.965  0.1908 -0.4505 -1.8948
21576SOL     OW68769   1.303   4.117   1.732 -0.5362 -0.0977 -0.5489
21576SOL    HW168770   1.266   4.188   1.679  0.7097  0.0042 -1.3073
21576SOL    HW268771   1.327   4.159   1.815  0.4754  0.4523 -1.1059
21577SOL     OW68772   7.942   3.545   9.797  0.0704 -0.0841  0.1466
21577SOL    HW168773   7.932   3.566   9.889  0.1539 -1.6894  0.5580
21577SOL    HW268774   7.865   3.583   9.754 -0.2747  0.1499  0.9687
21578SOL     OW68775   4.687   1.235   4.955 -0.0969 -0.3402 -0.1883
21578SOL    HW168776   4.740   1.163   4.990 -0.1247 -0.5318 -0.5368
21578SOL    HW268777   4.697   1.305   5.019  1.5637  0.0614 -0.8530
21579SOL     OW68778   9.856   3.541   9.289  0.2689  0.1938 -0.0560
21579SOL    HW168779   9.764   3.536   9.316  0.5760 -3.4374  0.9288
21579SOL    HW268780   9.855   3.509   9.198  0.4453  1.7266 -0.6267
21580SOL     OW68781   1.826   1.806   0.585  0.1716 -0.0889  0.0370
21580SOL    HW168782   1.912   1.767   0.599  1.2814  2.5716  1.3325
21580SOL    HW268783   1.788   1.816   0.672 -0.2526  1.2441 -0.2739
21581SOL     OW68784   9.009   4.578   1.257 -0.6225  0.0714  0.2457
21581SOL    HW168785   9.070   4.505   1.248  0.9632  1.4233 -0.7086
21581SOL    HW268786   9.027   4.634   1.181 -2.3634  1.0485  0.4805
21582SOL     OW68787   1.825   5.703   8.692 -0.3531  0.6216 -0.3964
21582SOL    HW168788   1.879   5.747   8.757 -1.9687  1.2740  0.5588
21582SOL    HW268789   1.745   5.754   8.688 -1.4159 -0.9895 -0.8560
21583SOL     OW68790   4.118   2.487   2.649 -0.5124  0.2349 -0.0422
21583SOL    HW168791   4.053   2.469   2.718 -0.8360 -0.0653 -0.4188
21583SOL    HW268792   4.074   2.547   2.590 -0.3874  0.1627 -0.2100
21584SOL     OW68793   1.761   5.717   2.848  0.6159 -0.1238  0.1688
21584SOL    HW168794   1.844   5.721   2.801  1.0951  1.4458  1.0858
21584SOL    HW268795   1.724   5.805   2.841  0.6056  0.1260  2.4639
21585SOL     OW68796   9.165   6.425   0.911 -0.4225  0.0988  0.3667
21585SOL    HW168797   9.186   6.517   0.891  0.5410 -0.3070 -0.5783
21585SOL    HW268798   9.171   6.380   0.827 -2.2874 -0.6125  0.5498
21586SOL     OW68799   7.907   4.149   6.599 -0.4626 -0.2544  0.5068
21586SOL    HW168800   7.955   4.207   6.659 -0.3218  0.8267 -0.6286
21586SOL    HW268801   7.819   4.144   6.637 -0.9510  1.9920 -0.1791
21587SOL     OW68802   7.120   0.070   6.637 -0.2616  0.1187  0.8272
21587SOL    HW168803   7.132   0.040   6.547 -0.8511  0.6267  0.5714
21587SOL    HW268804   7.037   0.031   6.664 -2.0210  2.8697 -0.1442
21588SOL     OW68805   7.073   4.336   7.628 -0.4142  0.0063 -0.6495
21588SOL    HW168806   7.124   4.356   7.549 -1.0326  1.1664 -0.7814
21588SOL    HW268807   7.033   4.420   7.652  0.6572 -0.0380  1.5685
21589SOL     OW68808   6.168   3.661   9.754  0.3698  0.2204 -0.2428
21589SOL    HW168809   6.143   3.630   9.666  2.6592  0.6517 -1.1076
21589SOL    HW268810   6.145   3.589   9.812 -0.0654 -0.5878 -1.3738
21590SOL     OW68811   2.034   0.378   0.662 -0.0319  0.2971 -0.0419
21590SOL    HW168812   2.029   0.299   0.716 -0.2474 -0.3750 -1.0185
21590SOL    HW268813   1.981   0.358   0.586  1.8767  0.4200 -1.4844
21591SOL     OW68814   7.887   2.908   9.731  0.1386  0.0100  0.2612
21591SOL    HW168815   7.808   2.949   9.693  0.0546 -1.8424 -1.7595
21591SOL    HW268816   7.872   2.911   9.825 -1.1314  2.0328  0.0657
21592SOL     OW68817   6.069   9.273   7.006 -0.1948  0.2016 -0.4662
21592SOL    HW168818   6.096   9.361   6.981 -0.3788  0.4719  0.2692
21592SOL    HW268819   6.151   9.224   7.014 -0.1221  0.1386 -1.4513
21593SOL     OW68820  10.173   7.913   8.101 -0.2649 -0.5515  0.1938
21593SOL    HW168821  10.108   7.947   8.040  0.4827 -0.8888 -0.8174
21593SOL    HW268822  10.213   7.839   8.055  0.2083 -0.9219  1.1649
21594SOL     OW68823   5.312   1.944   5.995  0.4639  0.0050 -0.0951
21594SOL    HW168824   5.334   1.851   5.983  0.1887 -0.0787  0.0617
21594SOL    HW268825   5.341   1.964   6.084 -0.6660 -0.2708  0.3502
21595SOL     OW68826   8.815   6.332   8.529 -0.2067 -0.3140 -0.4663
21595SOL    HW168827   8.862   6.251   8.509 -1.0226 -0.5550 -1.5048
21595SOL    HW268828   8.808   6.377   8.444  1.0047  1.2862  0.2242
21596SOL     OW68829   0.442   4.080   6.208 -0.1341 -0.0492  0.1740
21596SOL    HW168830   0.356   4.081   6.164 -0.4825  0.0719  0.8496
21596SOL    HW268831   0.473   4.171   6.202  0.6745 -0.3839 -1.4420
21597SOL     OW68832   7.115   5.374   2.376 -0.2704  0.7957 -0.2875
21597SOL    HW168833   7.075   5.308   2.320  0.8370 -0.5485  0.4373
21597SOL    HW268834   7.167   5.428   2.316  2.6716 -1.9258 -0.4878
21598SOL     OW68835   0.752   4.895   0.213  0.0896  0.7562 -0.2487
21598SOL    HW168836   0.688   4.922   0.279  0.3301  0.3648  0.1540
21598SOL    HW268837   0.835   4.933   0.242  0.2406  0.3986 -0.1994
21599SOL     OW68838   2.172   4.503   1.563 -0.1223 -0.2099  0.3990
21599SOL    HW168839   2.159   4.499   1.468 -1.4377 -1.4538  0.5847
21599SOL    HW268840   2.253   4.551   1.574  0.5220 -0.7846 -1.4009
21600SOL     OW68841   7.548  10.188   7.383  0.0679 -0.2341 -1.1100
21600SOL    HW168842   7.530  10.272   7.342  0.8960 -0.6303 -2.3406
21600SOL    HW268843   7.618  10.205   7.446  0.8114 -0.1305 -1.9437
21601SOL     OW68844   8.167   1.891   6.085 -0.2288 -1.2339  0.2709
21601SOL    HW168845   8.117   1.862   6.009 -2.0559  1.9302  0.0905
21601SOL    HW268846   8.197   1.979   6.062  1.8508 -1.3983  2.0578
21602SOL     OW68847   6.764   3.144   3.960 -0.8689 -0.3630  0.3715
21602SOL    HW168848   6.745   3.058   3.998 -0.9975 -0.5389 -0.0827
21602SOL    HW268849   6.689   3.161   3.902 -1.0970  0.2823  0.8478
21603SOL     OW68850   4.105   2.839   7.718  0.1007 -0.3915  0.3406
21603SOL    HW168851   4.031   2.821   7.776  0.1129  2.3650  1.3471
21603SOL    HW268852   4.145   2.918   7.753  1.5785  0.0418 -2.0559
21604SOL     OW68853   3.298   0.382   8.920  0.1745  0.0690  0.6442
21604SOL    HW168854   3.341   0.462   8.951  0.3866  0.5831 -0.9175
21604SOL    HW268855   3.291   0.327   8.998  2.4532  0.5078  1.2304
21605SOL     OW68856   4.139   9.827   3.437 -0.5672  0.7129  0.1155
21605SOL    HW168857   4.163   9.754   3.380 -0.6807  1.5805 -1.0841
21605SOL    HW268858   4.109   9.895   3.377 -1.8667  1.2322  1.3023
21606SOL     OW68859   5.126   4.564   1.893 -0.0241 -0.3546 -0.1475
21606SOL    HW168860   5.161   4.653   1.904 -1.1850  0.2409 -0.9570
21606SOL    HW268861   5.077   4.548   1.973 -1.8661  0.7760 -0.9632
21607SOL     OW68862   0.804   8.654   0.996 -0.2106  0.2870 -0.3996
21607SOL    HW168863   0.830   8.745   0.986  0.0555  0.2068 -0.4462
21607SOL    HW268864   0.708   8.655   0.990 -0.1658  0.4528 -1.2739
21608SOL     OW68865   3.466   0.864   0.156  0.2680  0.2890  0.4588
21608SOL    HW168866   3.474   0.910   0.239  0.8845  2.1110 -0.5555
21608SOL    HW268867   3.382   0.893   0.120  0.0311 -0.4446  0.3997
21609SOL     OW68868   8.717   3.297   9.375  0.0562  0.0630  0.4501
21609SOL    HW168869   8.684   3.386   9.381  0.1949  0.0834  0.9144
21609SOL    HW268870   8.807   3.307   9.342  0.5970  0.1994  1.9169
21610SOL     OW68871   3.879   8.977   1.461 -0.2945  0.1283 -0.0962
21610SOL    HW168872   3.806   8.972   1.523  0.1718  0.3874  0.4842
21610SOL    HW268873   3.957   8.986   1.516  0.1849 -0.2041 -0.7081
21611SOL     OW68874   6.534   4.959   5.414  0.1049  0.0653 -0.7910
21611SOL    HW168875   6.507   4.876   5.374  0.5808  0.5203 -2.1179
21611SOL    HW268876   6.598   4.934   5.480  0.7128 -0.6061 -1.6032
21612SOL     OW68877   5.853   4.384   9.946 -0.5695 -0.3876 -0.5517
21612SOL    HW168878   5.817   4.458   9.995 -0.6245 -0.8386  0.0998
21612SOL    HW268879   5.948   4.399   9.946 -0.4958 -0.8230  0.4275
21613SOL     OW68880   1.569   0.932   3.533 -0.7490  0.7299  0.3985
21613SOL    HW168881   1.617   0.851   3.551  0.3402  1.3765  0.4461
21613SOL    HW268882   1.620   0.976   3.466 -1.4374  1.3034  0.2403
21614SOL     OW68883   4.608   1.865   9.285 -0.2819  0.1200 -0.7597
21614SOL    HW168884   4.530   1.900   9.328  0.0272  0.1133 -0.1824
21614SOL    HW268885   4.594   1.770   9.284  0.2585 -0.0004  0.4710
21615SOL     OW68886   0.086   3.752   8.740  0.1726 -0.1041 -0.4276
21615SOL    HW168887   0.051   3.713   8.820  0.7763 -1.0240 -0.5924
21615SOL    HW268888   0.024   3.822   8.718  0.1575  0.3464  0.9839
21616SOL     OW68889   2.868   2.092   0.750 -0.1020 -0.5215 -0.0454
21616SOL    HW168890   2.819   2.012   0.769 -1.9452  0.4758 -0.3600
21616SOL    HW268891   2.959   2.064   0.745 -0.4034 -2.1583  2.3042
21617SOL     OW68892   4.171   0.243   8.936 -0.1149  0.8865  0.7505
21617SOL    HW168893   4.256   0.233   8.891 -0.6630  1.3134 -0.4146
21617SOL    HW268894   4.135   0.155   8.939 -0.4661  0.9742 -0.4772
21618SOL     OW68895   1.039   2.253   9.085  0.0294 -0.0148 -0.2146
21618SOL    HW168896   1.101   2.193   9.127  1.3564  1.5786  0.2416
21618SOL    HW268897   0.971   2.196   9.050  0.2485 -1.6383  1.7616
21619SOL     OW68898   3.775   0.523   4.582 -0.9212 -0.4874 -0.1132
21619SOL    HW168899   3.785   0.449   4.642  0.4242 -0.9051 -0.7977
21619SOL    HW268900   3.841   0.586   4.611 -1.3031 -0.0350 -0.2186
21620SOL     OW68901   8.566   4.901   1.798 -0.1839 -0.2514 -0.5161
21620SOL    HW168902   8.642   4.850   1.770  2.0891  1.1781  2.4453
21620SOL    HW268903   8.594   4.992   1.788 -1.2427  0.3065  1.1974
21621SOL     OW68904   8.173   5.024   7.839  0.0298 -0.0162  0.0972
21621SOL    HW168905   8.099   4.980   7.797 -1.2164  1.0670  1.0678
21621SOL    HW268906   8.183   4.979   7.923 -0.0831  0.3721  0.3224
21622SOL     OW68907   9.531   8.915  10.022 -0.2341 -0.3597 -0.3625
21622SOL    HW168908   9.516   9.008  10.002  2.5092  0.0216 -1.0492
21622SOL    HW268909   9.497   8.869   9.945 -0.9077  0.1159 -0.3638
21623SOL     OW68910   3.949   5.157   8.678 -0.2924 -0.3339 -0.1269
21623SOL    HW168911   3.989   5.195   8.756 -1.0851  0.1663  0.0438
21623SOL    HW268912   4.000   5.192   8.605  0.9395 -1.3941  0.1738
21624SOL     OW68913   3.910   2.448   8.306 -0.0397 -0.0531  0.0781
21624SOL    HW168914   3.883   2.539   8.293 -0.1830 -0.1508 -0.3219
21624SOL    HW268915   3.870   2.423   8.390  0.0090  0.2564  0.1936
21625SOL     OW68916   5.605   7.733   7.560 -0.4751 -0.0074 -0.2641
21625SOL    HW168917   5.627   7.645   7.530  0.9657  0.3484 -0.3281
21625SOL    HW268918   5.566   7.720   7.646 -1.0893 -0.7594 -0.6438
21626SOL     OW68919   0.364   9.078   0.271  0.1631  0.6539 -0.2748
21626SOL    HW168920   0.439   9.095   0.328  0.3044  1.6677 -0.7335
21626SOL    HW268921   0.288   9.078   0.329  0.3275  1.4588 -0.0497
21627SOL     OW68922   4.639   8.012   7.706  0.6654  0.3796 -0.8683
21627SOL    HW168923   4.676   8.056   7.629 -0.7368 -0.1110 -1.8630
21627SOL    HW268924   4.546   8.031   7.702  0.0178 -2.4298 -1.2124
21628SOL     OW68925   6.765   1.565   3.460  0.1560  0.0864  0.2917
21628SOL    HW168926   6.847   1.591   3.418  0.8554 -1.3396  0.7303
21628SOL    HW268927   6.731   1.646   3.498  1.2840  0.7235 -0.0092
21629SOL     OW68928   3.111   8.053   4.045 -0.4814 -0.5761  0.3856
21629SOL    HW168929   3.091   7.964   4.016  0.2298 -0.1305 -1.6832
21629SOL    HW268930   3.028   8.086   4.078 -0.9428 -1.7483  0.4590
21630SOL     OW68931   6.950   1.818   0.658  0.2572 -0.3350  0.4917
21630SOL    HW168932   6.866   1.835   0.614 -0.4237 -3.6343  0.2416
21630SOL    HW268933   7.012   1.876   0.614 -1.6786  1.5335  0.0411
21631SOL     OW68934   8.776   6.051  10.264  0.2229  0.3469 -0.4079
21631SOL    HW168935   8.799   5.959  10.272  1.7868  0.6179 -1.3078
21631SOL    HW268936   8.695   6.052  10.213 -0.6373 -0.5617  0.8854
21632SOL     OW68937   6.313   7.584   0.472  0.0126 -0.3440 -0.1633
21632SOL    HW168938   6.269   7.500   0.483 -0.7634  0.0691 -0.0497
21632SOL    HW268939   6.401   7.570   0.507  0.3559 -1.5038 -1.4256
21633SOL     OW68940   9.864   9.244   2.556 -0.3235  0.2287 -0.6825
21633SOL    HW168941   9.955   9.228   2.529 -0.3947 -0.5936 -0.4525
21633SOL    HW268942   9.821   9.159   2.547 -0.7450  0.3046  0.5131
21634SOL     OW68943   6.299   2.610   4.311  0.5658  0.0793 -0.2045
21634SOL    HW168944   6.308   2.632   4.404  1.4612 -1.2442  0.0553
21634SOL    HW268945   6.386   2.623   4.274  0.2749  0.3449 -0.8107
21635SOL     OW68946   0.568   5.781   9.512 -0.2370  0.6517 -0.1656
21635SOL    HW168947   0.514   5.781   9.433 -0.0091  0.2283 -0.3278
21635SOL    HW268948   0.657   5.800   9.480 -0.0193 -0.2117 -0.1104
21636SOL     OW68949   5.495   3.993   8.495  0.1428  0.0148  0.4596
21636SOL    HW168950   5.481   3.903   8.466  1.5341  0.6136 -2.4340
21636SOL    HW268951   5.407   4.027   8.512 -0.5051 -1.4628  0.2110
21637SOL     OW68952   0.968   8.007   5.070  0.2876 -0.5883  0.3579
21637SOL    HW168953   0.891   7.952   5.083  1.0582 -1.5874  0.8329
21637SOL    HW268954   0.955   8.046   4.983 -1.9643  1.3130  1.4534
21638SOL     OW68955   6.719   7.191   9.004 -0.1344  0.5838  0.4428
21638SOL    HW168956   6.691   7.266   8.951 -0.8208  0.1404  0.1677
21638SOL    HW268957   6.789   7.150   8.954  0.2330  1.0260  0.5869
21639SOL     OW68958  10.085   2.093   5.048 -0.6299  0.2084  0.3143
21639SOL    HW168959  10.175   2.124   5.044  0.1566 -2.0018 -0.7257
21639SOL    HW268960  10.089   2.015   5.104 -1.4238 -1.2250 -1.5363
21640SOL     OW68961   4.078   9.484   6.542  0.2581 -0.3081 -0.0635
21640SOL    HW168962   4.001   9.475   6.598  0.3893 -0.6229  0.0657
21640SOL    HW268963   4.104   9.576   6.551  0.1774 -0.3170  0.2583
21641SOL     OW68964  10.130   2.618   0.795 -0.0302 -0.4050  0.4934
21641SOL    HW168965  10.088   2.676   0.731  1.2280 -0.0499 -0.0276
21641SOL    HW268966  10.078   2.538   0.792  0.6149 -0.7880 -1.7538
21642SOL     OW68967   7.739   6.857   8.059 -0.0194  0.0143 -0.9867
21642SOL    HW168968   7.735   6.890   7.969 -0.2968  1.1161 -0.5939
21642SOL    HW268969   7.735   6.936   8.113  1.7691 -0.5098 -0.0130
21643SOL     OW68970   1.576   8.593   4.853 -0.0013  0.1423 -0.2477
21643SOL    HW168971   1.558   8.601   4.947 -0.0443  0.2742 -0.2675
21643SOL    HW268972   1.519   8.521   4.824  0.3234 -0.1804 -0.0893
21644SOL     OW68973   9.224   0.051   0.890  0.1942 -0.1913  1.1227
21644SOL    HW168974   9.301  -0.001   0.912  0.9220 -0.7031 -2.1132
21644SOL    HW268975   9.151  -0.010   0.898  0.7899 -1.1978 -0.5430
21645SOL     OW68976   5.810   7.638   1.368 -0.3771  0.3872 -0.1753
21645SOL    HW168977   5.896   7.606   1.398 -1.6433 -1.2818  1.9141
21645SOL    HW268978   5.809   7.730   1.392  0.8016  0.4138 -0.1656
21646SOL     OW68979   0.335   1.521   1.804  0.1346 -0.2480 -0.3481
21646SOL    HW168980   0.243   1.526   1.779  0.3242  0.4872 -0.9438
21646SOL    HW268981   0.383   1.527   1.722  0.7102 -1.2563 -0.0991
21647SOL     OW68982   0.700   0.235   9.178  0.5979  0.1799  0.5099
21647SOL    HW168983   0.686   0.227   9.083  0.2196  0.9587  0.4921
21647SOL    HW268984   0.790   0.265   9.187  0.5298  0.4263  0.3794
21648SOL     OW68985   1.998   4.442   6.781  0.3100 -0.4129 -0.8146
21648SOL    HW168986   2.087   4.465   6.754  0.7462 -0.7409  0.2506
21648SOL    HW268987   2.007   4.355   6.821 -0.5997 -0.7056 -1.2165
21649SOL     OW68988   5.698   3.081   8.886  0.0208 -0.0748 -0.2233
21649SOL    HW168989   5.683   3.172   8.862 -2.6751 -0.2464  0.5028
21649SOL    HW268990   5.690   3.080   8.982 -3.2165 -1.4968 -0.4121
21650SOL     OW68991   6.466   9.295   7.265  0.2841  0.0221 -0.2663
21650SOL    HW168992   6.533   9.229   7.248 -0.6502 -1.1350  0.3841
21650SOL    HW268993   6.424   9.310   7.180  1.6983  1.1674 -0.7909
21651SOL     OW68994   5.697   3.292   0.122  0.4001 -0.3829  0.0688
21651SOL    HW168995   5.624   3.321   0.176  0.7920 -0.5135  0.6713
21651SOL    HW268996   5.747   3.372   0.104 -1.3295  0.2285 -2.6231
21652SOL     OW68997   6.027   7.032   2.931 -0.5417  0.2142  0.3254
21652SOL    HW168998   6.113   7.007   2.965 -1.0133 -0.6108  0.9652
21652SOL    HW268999   5.965   6.994   2.994 -1.3749  0.6755 -0.2020
21653SOL     OW69000   1.419   1.882   8.936  0.5045  0.2935  0.3767
21653SOL    HW169001   1.462   1.907   8.855  0.3442 -1.2127 -0.2071
21653SOL    HW269002   1.467   1.929   9.004  1.2416  0.8501 -0.5039
21654SOL     OW69003   4.606   9.115   0.036  0.3291 -0.5358 -0.0013
21654SOL    HW169004   4.659   9.100   0.114 -0.1790  0.1651  0.4874
21654SOL    HW269005   4.532   9.168   0.066 -0.4583 -1.1789 -0.7405
21655SOL     OW69006   0.999   4.975   8.294  0.6664  0.1351 -0.3996
21655SOL    HW169007   1.012   4.939   8.207  2.7294  2.8370 -1.3458
21655SOL    HW269008   1.066   4.932   8.348 -0.2791 -1.1634 -0.2235
21656SOL     OW69009   9.560   5.763   4.586 -0.4492  0.3268  0.1073
21656SOL    HW169010   9.507   5.829   4.540 -0.9055  0.4434  0.7823
21656SOL    HW269011   9.647   5.772   4.548 -0.4967  1.3554  0.2113
21657SOL     OW69012   9.839   2.690   3.104  0.8160 -0.6968 -0.2725
21657SOL    HW169013   9.859   2.747   3.178  1.4795  0.7485 -1.5060
21657SOL    HW269014   9.746   2.670   3.113  0.0501  2.1769 -0.7775
21658SOL     OW69015   8.961   2.243   7.536  0.3844  0.1720 -0.2079
21658SOL    HW169016   8.902   2.227   7.609  0.1740 -1.8532 -0.7619
21658SOL    HW269017   8.973   2.157   7.496  1.9935  0.9139 -1.4172
21659SOL     OW69018   5.043   1.396   1.155 -0.1255  0.5452  0.8122
21659SOL    HW169019   4.985   1.400   1.079 -0.3636  1.2983  1.0300
21659SOL    HW269020   5.017   1.316   1.201 -0.7019  0.6555  0.6793
21660SOL     OW69021   6.055   7.007   5.122 -0.5492 -0.3917 -0.4939
21660SOL    HW169022   6.013   7.073   5.068 -1.3993 -0.0999  0.4836
21660SOL    HW269023   6.017   7.020   5.209  0.0419 -1.4863 -0.0547
21661SOL     OW69024   2.604  10.190   0.696 -0.0072  0.3316  0.1741
21661SOL    HW169025   2.592  10.104   0.656  0.6477  0.0533  0.5797
21661SOL    HW269026   2.603  10.174   0.790 -0.7136  0.8827  0.2745
21662SOL     OW69027   4.324   6.054   0.686  0.5089 -0.3348 -0.2473
21662SOL    HW169028   4.280   6.083   0.606  0.6895 -2.1430 -1.0398
21662SOL    HW269029   4.254   6.018   0.741  0.5099  0.1014  0.0478
21663SOL     OW69030   6.566   3.328   1.138 -0.0137  0.1263 -0.6420
21663SOL    HW169031   6.522   3.311   1.222  1.6895  0.0875  0.2846
21663SOL    HW269032   6.570   3.423   1.132  0.6437  0.1306 -0.2337
21664SOL     OW69033   0.424   2.588   0.731 -0.1439  0.6610 -0.0096
21664SOL    HW169034   0.499   2.539   0.764 -1.5454 -1.9075 -0.4263
21664SOL    HW269035   0.351   2.561   0.787 -1.4092  0.5011 -1.6731
21665SOL     OW69036   2.348   7.004   3.354  0.3979  0.1295 -0.2721
21665SOL    HW169037   2.404   7.049   3.417  0.7369 -1.1837  0.3893
21665SOL    HW269038   2.264   6.994   3.398  1.2360 -2.6539  0.8610
21666SOL     OW69039   4.145   7.701   1.312 -0.0497  0.0528 -0.6546
21666SOL    HW169040   4.067   7.694   1.258 -1.7811  0.1851  1.6835
21666SOL    HW269041   4.120   7.665   1.396  2.7084 -0.6884 -0.0412
21667SOL     OW69042   9.837   9.755   1.630 -0.1894 -0.0644  0.6829
21667SOL    HW169043   9.909   9.782   1.574 -0.7171  0.0910  0.0668
21667SOL    HW269044   9.841   9.814   1.705  0.7845 -0.5539  1.0299
21668SOL     OW69045   2.440   5.177   6.005 -0.2735 -0.0694 -0.2390
21668SOL    HW169046   2.461   5.151   6.094  0.5443 -1.0186 -0.6881
21668SOL    HW269047   2.506   5.134   5.951  0.1122  1.6303 -1.1841
21669SOL     OW69048   0.051   3.394   9.514 -0.3631 -0.3579  0.3426
21669SOL    HW169049   0.093   3.412   9.430 -1.3907  0.2989 -0.0571
21669SOL    HW269050  -0.039   3.370   9.491 -0.7299  0.0827  1.2604
21670SOL     OW69051   9.269   2.870   5.272  0.7105 -0.2291 -0.2551
21670SOL    HW169052   9.247   2.815   5.347  0.4370 -0.2688 -0.3615
21670SOL    HW269053   9.332   2.818   5.222 -0.0362 -0.7329 -0.7006
21671SOL     OW69054   9.672   2.425   9.278 -0.1990  0.0763  0.2327
21671SOL    HW169055   9.600   2.443   9.339 -1.1735  0.7557 -1.0626
21671SOL    HW269056   9.700   2.336   9.299 -1.7934 -0.4123  0.4177
21672SOL     OW69057   9.408   1.109   3.114  0.0940  0.1474  0.3334
21672SOL    HW169058   9.456   1.027   3.126 -0.7613 -0.4230 -0.0642
21672SOL    HW269059   9.345   1.090   3.045 -0.2398  1.0931  0.3665
21673SOL     OW69060   8.519   0.669   7.758 -1.1208  0.2902  0.0364
21673SOL    HW169061   8.445   0.707   7.709  0.1726  1.9129 -0.7430
21673SOL    HW269062   8.570   0.622   7.692 -1.6192 -1.1716  0.6458
21674SOL     OW69063   9.885   1.750   5.973  0.1269  0.2741 -0.2258
21674SOL    HW169064   9.930   1.667   5.991  1.9949  1.4105  0.7493
21674SOL    HW269065   9.908   1.805   6.047  0.4989  2.2656 -1.7528
21675SOL     OW69066   7.910   0.436   4.516 -0.0842 -0.4584 -0.1204
21675SOL    HW169067   7.854   0.359   4.501 -1.0793  0.2757 -0.3013
21675SOL    HW269068   7.888   0.463   4.605  0.9541 -0.9188  0.2905
21676SOL     OW69069   3.764   6.430   6.683 -0.4520 -0.1954 -0.6891
21676SOL    HW169070   3.815   6.500   6.643 -0.6894 -0.4201 -1.4106
21676SOL    HW269071   3.829   6.373   6.724 -0.2397  0.2935 -0.3381
21677SOL     OW69072   4.548   4.536   5.879  0.0568 -0.2446  0.5939
21677SOL    HW169073   4.555   4.460   5.821  0.8919  0.1250  0.1819
21677SOL    HW269074   4.483   4.593   5.837  0.5205 -0.0646  0.1027
21678SOL     OW69075   8.031   7.633   6.834 -0.3424 -0.1118 -0.0787
21678SOL    HW169076   8.075   7.654   6.916  1.7402 -0.1298 -1.1190
21678SOL    HW269077   7.938   7.633   6.855  0.1425 -0.1416  2.2689
21679SOL     OW69078   2.698   3.287   3.858 -0.2195  0.2853 -0.4477
21679SOL    HW169079   2.790   3.263   3.847 -0.2951 -0.5034  0.5112
21679SOL    HW269080   2.678   3.341   3.781  0.5394 -1.0269 -1.6078
21680SOL     OW69081   6.565   1.990   5.986 -0.2881 -0.0132  0.2046
21680SOL    HW169082   6.581   1.922   6.051 -1.0710 -0.3510  0.0457
21680SOL    HW269083   6.653   2.017   5.958  0.0398 -0.4439  0.7890
21681SOL     OW69084   0.075   9.090   3.700 -0.1564  0.4301  0.3092
21681SOL    HW169085   0.073   9.061   3.608 -0.8686 -1.3343  0.8496
21681SOL    HW269086   0.034   9.176   3.698 -0.5560  0.2353 -0.9784
21682SOL     OW69087   3.907   5.414   2.622  0.3826 -0.2486 -0.0460
21682SOL    HW169088   3.861   5.380   2.545  1.3362  1.6682 -1.5456
21682SOL    HW269089   3.849   5.481   2.657  1.0955  0.7520 -0.7300
21683SOL     OW69090   1.553   7.729   1.669  0.3025 -0.3168  0.3080
21683SOL    HW169091   1.484   7.747   1.605  0.4658  0.4242  0.3361
21683SOL    HW269092   1.600   7.655   1.632 -0.3652 -0.6917  0.1789
21684SOL     OW69093   7.739   9.389   6.705  0.3075 -0.1482 -0.2655
21684SOL    HW169094   7.732   9.303   6.746 -1.0357 -0.6842 -1.4956
21684SOL    HW269095   7.806   9.379   6.638  0.5183 -0.0916 -0.0619
21685SOL     OW69096   1.919   7.921   8.194  0.4448 -0.1209  0.0754
21685SOL    HW169097   1.861   7.845   8.190  0.5392 -0.1592 -1.2023
21685SOL    HW269098   2.003   7.889   8.161  0.2371  0.7155 -1.3544
21686SOL     OW69099   0.024   9.653   7.937  0.4231 -0.7258  0.1496
21686SOL    HW169100  -0.017   9.739   7.943  0.6879 -0.5959  0.0865
21686SOL    HW269101   0.025   9.620   8.027  2.1901  0.2060  0.5234
21687SOL     OW69102   4.895   9.328   7.258  0.1739 -0.0230 -0.4684
21687SOL    HW169103   4.922   9.275   7.333 -2.6843 -0.4137  0.4165
21687SOL    HW269104   4.902   9.418   7.288  0.6662 -0.1119 -0.3209
21688SOL     OW69105   6.659   8.441   3.072  0.2879  0.2460 -0.3666
21688SOL    HW169106   6.705   8.376   3.125 -0.3388  1.0340  1.1929
21688SOL    HW269107   6.601   8.389   3.016 -0.9221 -0.5629  1.5314
21689SOL     OW69108   3.612   5.687   7.280 -0.3179  0.0041  0.0406
21689SOL    HW169109   3.662   5.753   7.232 -0.7146  0.3950  0.1628
21689SOL    HW269110   3.645   5.603   7.247 -0.4385  0.2690 -0.7558
21690SOL     OW69111   1.052   8.976   2.778 -0.2911  0.1671  0.5835
21690SOL    HW169112   1.046   8.950   2.685  1.1896  2.5120 -0.2507
21690SOL    HW269113   1.146   8.980   2.796 -0.5502  0.4139  2.0025
21691SOL     OW69114   2.789   1.810   4.608 -0.1331 -0.6071  0.3936
21691SOL    HW169115   2.801   1.738   4.670  0.2113 -0.7120  0.2057
21691SOL    HW269116   2.694   1.823   4.605 -0.1947 -1.0342  0.4483
21692SOL     OW69117   2.575   4.678   3.431 -0.0493  0.1794 -0.2310
21692SOL    HW169118   2.615   4.633   3.357  4.9587  2.4703  0.6768
21692SOL    HW269119   2.570   4.770   3.404 -2.1759  0.4538  0.8562
21693SOL     OW69120   8.153   4.303   1.458 -0.4262  0.3117  0.2534
21693SOL    HW169121   8.063   4.335   1.455 -0.0791  1.2588 -1.0292
21693SOL    HW269122   8.155   4.232   1.393  0.3669  2.1486 -1.8807
21694SOL     OW69123   8.195   8.783   0.254  0.1868  0.4705 -0.0246
21694SOL    HW169124   8.221   8.844   0.323 -0.4284  1.5930 -0.7453
21694SOL    HW269125   8.238   8.701   0.276 -0.4810  0.6171  2.0251
21695SOL     OW69126   5.845   2.868   6.481 -0.1703 -0.0327  0.0195
21695SOL    HW169127   5.804   2.921   6.550 -1.4076 -0.6111 -0.2468
21695SOL    HW269128   5.784   2.872   6.408  0.8486  0.0866 -0.8614
21696SOL     OW69129   9.529   4.353   4.807  0.0039  0.5958  0.2781
21696SOL    HW169130   9.548   4.391   4.721  0.9352 -0.2145  0.1143
21696SOL    HW269131   9.433   4.344   4.808 -0.2246  2.5031  0.1597
21697SOL     OW69132   1.456   2.307   0.114  0.3562 -0.1030 -0.3094
21697SOL    HW169133   1.458   2.352   0.029 -0.1693  0.1808 -0.1739
21697SOL    HW269134   1.449   2.214   0.091 -1.0027  0.0445 -0.5861
21698SOL     OW69135   1.551   0.328   2.207  0.0021 -0.9030  0.6360
21698SOL    HW169136   1.548   0.406   2.152 -0.1970 -1.8412 -0.7241
21698SOL    HW269137   1.533   0.360   2.295 -1.0729  0.4469 -0.0469
21699SOL     OW69138   4.814   8.852   9.949 -0.8596  0.2054 -0.1073
21699SOL    HW169139   4.778   8.885  10.031 -0.6202  2.2978 -0.7821
21699SOL    HW269140   4.818   8.757   9.961 -1.3184  0.4079  2.0862
21700SOL     OW69141   9.488   0.009   6.121  0.8675 -0.5914  0.4939
21700SOL    HW169142   9.394  -0.006   6.126  0.8555 -0.3096  1.2069
21700SOL    HW269143   9.525  -0.074   6.092  0.3357 -0.4854 -0.5530
21701SOL     OW69144   7.909   3.966   5.302  0.7287 -0.0208 -0.5010
21701SOL    HW169145   7.815   3.953   5.301  0.6006  0.7573 -1.9805
21701SOL    HW269146   7.946   3.878   5.293  0.0710 -0.1456 -2.4400
21702SOL     OW69147   0.247   6.405   9.597 -0.5535 -0.6405  0.1351
21702SOL    HW169148   0.220   6.478   9.654  2.7775 -0.8690  2.2958
21702SOL    HW269149   0.165   6.373   9.560 -2.2594  4.0319 -0.8746
21703SOL     OW69150   1.576   0.939   2.570  0.1975 -0.5454  0.2036
21703SOL    HW169151   1.659   0.924   2.526  0.3063  0.1715  0.1578
21703SOL    HW269152   1.527   0.857   2.558  1.6421 -1.7453  1.9351
21704SOL     OW69153   7.311   8.993   1.458  0.5343 -0.3687 -0.6782
21704SOL    HW169154   7.323   9.080   1.495  0.7109 -0.2532 -1.0072
21704SOL    HW269155   7.238   8.956   1.508 -0.6897  0.6102 -1.6527
21705SOL     OW69156   8.759   0.315   0.820 -0.0944  0.1110  0.1017
21705SOL    HW169157   8.667   0.295   0.804  0.1998 -1.3209  0.0521
21705SOL    HW269158   8.758   0.380   0.890 -1.1135 -1.2557  1.4127
21706SOL     OW69159   2.164  10.006   1.902 -0.3676 -0.4969  0.2401
21706SOL    HW169160   2.151   9.942   1.832 -1.6847 -0.0581  0.0759
21706SOL    HW269161   2.260  10.009   1.913 -0.1223 -0.4947 -1.5964
21707SOL     OW69162   8.390   6.095   2.215 -0.0147 -0.7133  0.2292
21707SOL    HW169163   8.370   6.058   2.129  1.0095  1.1860 -0.8929
21707SOL    HW269164   8.319   6.157   2.231 -0.1344 -0.9722  0.7186
21708SOL     OW69165   4.028   9.581   8.332  0.2388 -0.6429  0.1255
21708SOL    HW169166   4.036   9.638   8.408  2.7780 -1.8224  0.8918
21708SOL    HW269167   3.983   9.633   8.267 -0.7140  0.9329  1.9335
21709SOL     OW69168   1.034   7.914   4.491  0.2322 -0.2120 -0.4716
21709SOL    HW169169   1.004   7.825   4.473 -0.0274 -1.2578  3.9515
21709SOL    HW269170   0.953   7.963   4.509  0.5061  0.0135  0.2053
21710SOL     OW69171   9.784   9.498   4.892  0.2318 -0.6687  0.1286
21710SOL    HW169172   9.828   9.424   4.850 -2.4898 -0.4296 -3.6327
21710SOL    HW269173   9.691   9.473   4.894 -0.3794  1.4290  1.6406
21711SOL     OW69174   6.194   4.559   0.661 -0.3608  0.0853  0.0913
21711SOL    HW169175   6.185   4.633   0.720  1.4455  1.5232 -1.3038
21711SOL    HW269176   6.169   4.593   0.575 -2.6052 -1.8507 -0.1209
21712SOL     OW69177   6.370   7.404   3.256  0.1304 -0.4608  0.0110
21712SOL    HW169178   6.428   7.463   3.304 -0.4447 -0.0462  0.2009
21712SOL    HW269179   6.283   7.441   3.267  0.0180 -0.1264 -1.6571
21713SOL     OW69180   7.551   4.142   3.364  0.0457  0.3990 -0.1972
21713SOL    HW169181   7.614   4.080   3.400  0.5143  0.4422 -0.9243
21713SOL    HW269182   7.604   4.217   3.337 -0.3023  0.4030 -0.8938
21714SOL     OW69183   7.535   2.294   2.499  0.1722  0.0808  0.0522
21714SOL    HW169184   7.561   2.380   2.533  0.5263  0.3623 -0.8948
21714SOL    HW269185   7.538   2.236   2.575 -1.0522  1.0986  0.9343
21715SOL     OW69186   3.225   9.208   8.557  0.8651  0.2626  0.0200
21715SOL    HW169187   3.190   9.226   8.645  0.2356  1.6748 -0.5027
21715SOL    HW269188   3.261   9.119   8.564 -1.5563 -0.7418  0.9856
21716SOL     OW69189   5.648   2.878   1.355  0.3742 -0.5288 -0.1122
21716SOL    HW169190   5.687   2.793   1.377 -0.0236 -1.4269 -2.4920
21716SOL    HW269191   5.721   2.939   1.354  1.0316 -1.3018 -0.3909
21717SOL     OW69192   1.311  10.212   7.932 -0.5688  0.0875 -0.3179
21717SOL    HW169193   1.298  10.152   8.005  0.3851  0.2684  0.0157
21717SOL    HW269194   1.290  10.161   7.854 -1.2616 -0.2083  0.0592
21718SOL     OW69195   6.718   9.508   3.752 -0.5878 -0.1369 -0.6842
21718SOL    HW169196   6.796   9.527   3.804 -0.8235 -1.1752  0.0801
21718SOL    HW269197   6.692   9.420   3.778 -2.5111  0.4992 -0.2832
21719SOL     OW69198   4.855   0.853   9.772  0.5761  0.3504 -0.0961
21719SOL    HW169199   4.773   0.842   9.724  0.3703 -0.0652  0.3510
21719SOL    HW269200   4.829   0.867   9.863  1.0202 -0.3961  0.1561
21720SOL     OW69201   9.825   3.319   2.585 -0.7215  0.2781 -0.1287
21720SOL    HW169202   9.742   3.334   2.540 -0.6441  0.6057 -0.1607
21720SOL    HW269203   9.892   3.341   2.520 -0.6077  0.9327  0.2029
21721SOL     OW69204   4.850   9.633   9.944 -0.2360  0.3241  0.5244
21721SOL    HW169205   4.763   9.644   9.906  0.4613  2.4355 -0.6317
21721SOL    HW269206   4.906   9.607   9.870  0.5293  1.2828  0.7408
21722SOL     OW69207   3.254   1.329   2.254 -0.0696  0.3078 -0.0856
21722SOL    HW169208   3.284   1.316   2.164 -1.4202  0.3780 -0.5701
21722SOL    HW269209   3.317   1.390   2.292  1.3567 -0.8536 -0.5082
21723SOL     OW69210   6.414   5.039   7.219  0.4739  0.1101 -0.3056
21723SOL    HW169211   6.354   5.110   7.240  1.2448  0.8211 -0.4813
21723SOL    HW269212   6.357   4.963   7.206 -0.3171  0.5669  0.3902
21724SOL     OW69213   4.446   0.315   8.835  0.4770 -0.0765 -0.4891
21724SOL    HW169214   4.446   0.364   8.917  0.3046 -0.8331 -0.0299
21724SOL    HW269215   4.480   0.377   8.770 -0.9213  1.0669 -0.1842
21725SOL     OW69216   4.591   1.618   1.544  0.2819  0.6126  0.0037
21725SOL    HW169217   4.619   1.619   1.452  2.4367  2.6392  0.5702
21725SOL    HW269218   4.522   1.684   1.549 -0.9962 -0.6418 -0.4026
21726SOL     OW69219   9.341   4.671   8.527  0.9976  0.8565  0.7181
21726SOL    HW169220   9.323   4.764   8.543 -3.3621  0.8585 -2.1866
21726SOL    HW269221   9.387   4.670   8.443  0.9546  0.4155  0.6970
21727SOL     OW69222  10.263   2.887   4.740 -0.1019 -0.1542 -0.4334
21727SOL    HW169223  10.303   2.883   4.653 -1.0578  0.5263 -0.9259
21727SOL    HW269224  10.171   2.864   4.725  0.1773 -2.3430  0.7630
21728SOL     OW69225   6.666   5.113   8.247 -0.8681 -0.6668 -0.6075
21728SOL    HW169226   6.591   5.165   8.272 -1.6280 -2.3921  0.9890
21728SOL    HW269227   6.734   5.136   8.311 -0.9615 -1.0757 -0.3558
21729SOL     OW69228   3.123   8.209   5.848 -0.2059 -0.2899 -0.4695
21729SOL    HW169229   3.186   8.206   5.776 -0.1107  0.6620 -0.4414
21729SOL    HW269230   3.152   8.142   5.909 -0.4707 -1.3365 -1.4646
21730SOL     OW69231   4.802   1.402   5.700 -0.1162  0.2677 -0.7346
21730SOL    HW169232   4.857   1.471   5.662 -0.6036  0.1924 -1.6162
21730SOL    HW269233   4.858   1.325   5.701 -0.3446  0.0558 -2.1327
21731SOL     OW69234   6.892   4.412   9.317 -0.2255  0.1184  0.4769
21731SOL    HW169235   6.910   4.464   9.395  1.2498  2.2633 -1.1891
21731SOL    HW269236   6.816   4.454   9.277  0.0405  0.0710 -0.0898
21732SOL     OW69237   2.102   0.255   5.030 -0.3985  0.2407  0.1017
21732SOL    HW169238   2.167   0.202   4.984 -1.0260 -0.3434 -0.1263
21732SOL    HW269239   2.139   0.268   5.117  2.2102  3.7935 -1.2608
21733SOL     OW69240   1.166   3.324   8.307 -0.9435  0.4484 -0.4013
21733SOL    HW169241   1.218   3.243   8.310 -1.5155  0.1184  0.8896
21733SOL    HW269242   1.223   3.386   8.260 -0.0663 -0.3817 -0.4788
21734SOL     OW69243   7.431   5.535   2.001 -0.1609  0.1523 -0.1960
21734SOL    HW169244   7.462   5.444   2.000 -0.0214  0.2008 -1.1457
21734SOL    HW269245   7.413   5.555   1.909 -1.2117  0.7433  0.1209
21735SOL     OW69246   0.301   3.479   1.144  0.1195  0.5168 -0.2304
21735SOL    HW169247   0.304   3.409   1.078  2.6641  0.8453 -0.5400
21735SOL    HW269248   0.305   3.560   1.093 -0.4781  0.8617  0.2489
21736SOL     OW69249   3.531   7.110   2.252  0.1284  0.2207 -0.3184
21736SOL    HW169250   3.551   7.194   2.211 -1.5353  1.4770  1.2500
21736SOL    HW269251   3.567   7.117   2.340 -2.8229  0.7002  0.9615
21737SOL     OW69252   0.357   8.544   3.465 -0.1605  0.3278  0.2081
21737SOL    HW169253   0.337   8.630   3.501  0.4986  0.5928 -0.0467
21737SOL    HW269254   0.435   8.558   3.412 -0.1361 -0.3995  0.0444
21738SOL     OW69255   8.926   8.200   8.568 -0.1449  0.3328  0.1464
21738SOL    HW169256   8.912   8.114   8.606 -1.2163  0.3485 -0.1649
21738SOL    HW269257   8.912   8.187   8.474  1.8728  0.4114 -0.2114
21739SOL     OW69258   3.533   6.967   6.086 -0.2542  0.0073  0.0928
21739SOL    HW169259   3.626   6.989   6.076 -0.4895  0.7048 -0.7208
21739SOL    HW269260   3.510   6.923   6.004 -0.4367 -0.9621  0.6538
21740SOL     OW69261   0.725   7.309   8.605 -0.7730 -0.3021 -0.2747
21740SOL    HW169262   0.773   7.300   8.687  0.4749 -0.1998 -0.9776
21740SOL    HW269263   0.777   7.370   8.553 -1.5602 -0.3380 -1.1335
21741SOL     OW69264   5.622   9.163   5.486  0.9820  0.4779 -0.0094
21741SOL    HW169265   5.629   9.155   5.391 -0.6259  0.9547 -0.1988
21741SOL    HW269266   5.696   9.112   5.520  1.6957  0.4570 -1.5029
21742SOL     OW69267   8.533   0.010   6.394  0.0728  0.5300  0.3174
21742SOL    HW169268   8.473   0.072   6.353  0.8107  1.9325  1.3006
21742SOL    HW269269   8.498  -0.001   6.483  0.4449  0.2024  0.4240
21743SOL     OW69270   3.673   6.570   2.139  0.2834  0.9299 -0.1030
21743SOL    HW169271   3.712   6.629   2.203  1.2917  0.5590 -0.3434
21743SOL    HW269272   3.711   6.596   2.055  1.2403 -0.4226 -0.1305
21744SOL     OW69273   3.300   7.036   8.407  0.4775  0.0149  0.0834
21744SOL    HW169274   3.265   7.081   8.484 -0.6726 -0.8019  0.0576
21744SOL    HW269275   3.357   6.968   8.443  1.3199  0.7244  0.1459
21745SOL     OW69276   9.473   2.167   2.587 -0.5135  0.1033 -0.4061
21745SOL    HW169277   9.431   2.241   2.631 -0.7966  0.2497 -0.9190
21745SOL    HW269278   9.550   2.148   2.642  0.6299  1.9640 -1.2401
21746SOL     OW69279   3.103   9.358   2.204 -0.2449  0.2373 -0.1795
21746SOL    HW169280   3.074   9.269   2.226  1.2216 -0.0554  0.6643
21746SOL    HW269281   3.127   9.353   2.112  1.2634 -0.6654  0.2360
21747SOL     OW69282   9.075   1.946   4.773  0.1274  0.1488  0.2572
21747SOL    HW169283   9.149   1.925   4.717 -0.5015  0.8388 -0.8598
21747SOL    HW269284   9.114   1.982   4.853  0.9880  0.4822 -0.3050
21748SOL     OW69285   6.455   5.289   4.803  0.5528  0.6073 -0.3193
21748SOL    HW169286   6.407   5.364   4.767 -0.1686  0.4917  0.3751
21748SOL    HW269287   6.388   5.235   4.844  1.4616  1.5724  2.7104
21749SOL     OW69288   7.954   1.260   3.144  0.3283 -0.1179  0.0569
21749SOL    HW169289   8.005   1.181   3.123  0.6776  0.5517 -1.8054
21749SOL    HW269290   7.963   1.270   3.238  0.5805 -2.0951  0.2800
21750SOL     OW69291   3.399   2.866   1.375 -0.0441  0.2514  0.2415
21750SOL    HW169292   3.383   2.772   1.368  1.7113 -0.0066 -0.9820
21750SOL    HW269293   3.494   2.874   1.375 -0.1465  2.1073 -1.2086
21751SOL     OW69294   5.169   8.790   9.890 -0.0286  0.4179 -0.1248
21751SOL    HW169295   5.138   8.880   9.897 -1.7570  0.0506 -2.0524
21751SOL    HW269296   5.106   8.747   9.833  1.5705 -1.6462 -0.4789
21752SOL     OW69297   7.082   0.148   4.261  0.1242 -0.1685  0.3745
21752SOL    HW169298   7.035   0.125   4.181  1.5519 -1.4998 -0.1127
21752SOL    HW269299   7.171   0.167   4.233  0.6749 -0.7282  1.6495
21753SOL     OW69300   5.156   4.147   7.482  0.3616 -0.1511 -0.0027
21753SOL    HW169301   5.095   4.154   7.409  0.7969  1.0093 -0.2657
21753SOL    HW269302   5.119   4.204   7.550  1.0765  0.4742 -0.1228
21754SOL     OW69303   0.670   0.897   5.665  0.5582 -0.0513 -0.2616
21754SOL    HW169304   0.755   0.939   5.678  1.6516 -2.3077  0.3966
21754SOL    HW269305   0.686   0.833   5.595  0.0332 -2.0036  1.3253
21755SOL     OW69306   1.168   9.396   0.151 -0.5536 -0.0315  0.7625
21755SOL    HW169307   1.179   9.491   0.154 -1.7204  0.1090  1.9162
21755SOL    HW269308   1.189   9.372   0.061  0.9489  1.1434  0.7664
21756SOL     OW69309   3.541   9.442   7.199  0.1452 -0.1679 -0.5753
21756SOL    HW169310   3.545   9.347   7.194  0.3514 -0.1198 -1.3674
21756SOL    HW269311   3.459   9.466   7.156  0.8690  0.1091 -1.8304
21757SOL     OW69312   1.794   2.858   0.964  0.1879  0.1464 -0.2371
21757SOL    HW169313   1.771   2.766   0.955 -0.7379  0.4093 -0.8155
21757SOL    HW269314   1.742   2.888   1.039 -0.8300  0.5656 -1.0746
21758SOL     OW69315   1.303   8.389   9.283 -0.0123 -0.4988 -0.1298
21758SOL    HW169316   1.348   8.430   9.209 -0.9328 -0.2287 -0.5480
21758SOL    HW269317   1.363   8.321   9.312  0.0689 -1.0772 -1.5699
21759SOL     OW69318   9.701   0.992   4.959 -0.0175 -0.5258 -0.5722
21759SOL    HW169319   9.696   0.934   5.035 -1.4278 -2.7127 -2.2313
21759SOL    HW269320   9.678   1.078   4.994  1.2899 -1.0761  1.8110
21760SOL     OW69321   2.719   4.703   0.073  0.3686 -0.1397 -0.1634
21760SOL    HW169322   2.729   4.797   0.092  0.4218 -0.2008  0.1088
21760SOL    HW269323   2.770   4.659   0.141 -0.7038 -0.4061  0.4868
21761SOL     OW69324   0.173   9.622   4.875 -0.1225 -0.1439 -0.3885
21761SOL    HW169325   0.255   9.579   4.849 -0.2363 -0.3716 -0.3700
21761SOL    HW269326   0.187   9.644   4.967  0.3379  0.7975 -0.6668
21762SOL     OW69327   5.383   3.919   0.687  0.6848  0.0748 -0.4016
21762SOL    HW169328   5.418   3.882   0.606  0.4854  0.2010 -0.5449
21762SOL    HW269329   5.436   3.879   0.756  0.5354 -0.4030 -0.5629
21763SOL     OW69330   7.406   8.011   3.527 -0.8087 -0.1238  0.4034
21763SOL    HW169331   7.328   8.060   3.555 -1.2526 -0.1539 -0.7364
21763SOL    HW269332   7.474   8.078   3.516 -0.9227  0.0149  0.5317
21764SOL     OW69333   9.466   7.698   3.011 -0.4873  0.0672  0.0700
21764SOL    HW169334   9.482   7.786   3.045  1.0824 -0.3811  0.5964
21764SOL    HW269335   9.522   7.691   2.934 -1.0836 -0.2620 -0.3456
21765SOL     OW69336   7.716   5.119   3.487  0.1912  0.7428  0.0109
21765SOL    HW169337   7.667   5.056   3.436  1.3195 -0.1933  0.0473
21765SOL    HW269338   7.732   5.075   3.571 -1.1981  2.0544  1.0199
21766SOL     OW69339   9.407   3.581   6.670 -0.4260  0.4072  0.0155
21766SOL    HW169340   9.420   3.645   6.740 -0.5736 -0.1079  0.5293
21766SOL    HW269341   9.451   3.618   6.594  1.6360 -0.0044  0.9443
21767SOL     OW69342   5.967   3.295   0.460  0.3812  0.2459 -0.2729
21767SOL    HW169343   5.927   3.346   0.530 -0.8075 -1.3374  0.2509
21767SOL    HW269344   6.060   3.294   0.481  0.3745  1.6956 -0.0167
21768SOL     OW69345   6.724   5.510   5.942  0.4511 -0.2087  0.4172
21768SOL    HW169346   6.728   5.590   5.994  1.9649 -1.1166  1.7683
21768SOL    HW269347   6.791   5.453   5.979  0.9803 -1.2695 -1.9719
21769SOL     OW69348   4.465   4.546   1.344  0.5480 -0.9061  0.5160
21769SOL    HW169349   4.507   4.482   1.287  0.0646 -0.5946 -0.2046
21769SOL    HW269350   4.525   4.620   1.345  0.7134 -1.0423  0.6798
21770SOL     OW69351   1.459   2.427   8.669  0.5810  0.0537  0.1096
21770SOL    HW169352   1.524   2.389   8.609  0.6593 -1.0795  0.8851
21770SOL    HW269353   1.381   2.438   8.615  1.3814  1.4211 -0.8385
21771SOL     OW69354   4.328   1.568   5.629 -0.9803  0.5006  0.3342
21771SOL    HW169355   4.294   1.480   5.648  1.0009 -0.1561  1.1347
21771SOL    HW269356   4.332   1.572   5.534  0.1748 -0.8534  0.2824
21772SOL     OW69357   8.250   5.577   6.233  0.1710 -0.5131 -0.2279
21772SOL    HW169358   8.303   5.588   6.154 -1.1365 -2.3675 -1.4540
21772SOL    HW269359   8.211   5.663   6.247  1.5033  0.2164 -0.7691
21773SOL     OW69360  10.288   5.325   6.077  0.4682 -0.0494  0.0345
21773SOL    HW169361  10.251   5.389   6.139  0.2674  0.3846 -0.5306
21773SOL    HW269362  10.265   5.240   6.115 -2.2232  0.1700 -0.9156
21774SOL     OW69363   7.817   6.566  10.179 -0.0740  0.5313 -0.1285
21774SOL    HW169364   7.870   6.605  10.109 -0.3878 -0.4472 -0.9450
21774SOL    HW269365   7.871   6.575  10.257  0.6134  0.9875 -0.6371
21775SOL     OW69366   3.137   2.943   7.974  0.1908 -0.0733  0.0355
21775SOL    HW169367   3.165   3.033   7.990  1.9859 -0.7183  0.7633
21775SOL    HW269368   3.055   2.935   8.024 -1.8742  2.0605 -2.6821
21776SOL     OW69369   4.547   3.690   2.832  0.4659 -0.4919  0.3145
21776SOL    HW169370   4.625   3.637   2.814 -0.6782 -2.5741  1.2433
21776SOL    HW269371   4.548   3.702   2.927 -0.4672 -0.7325  0.3610
21777SOL     OW69372   6.735   7.242   5.029  0.3150  0.1742  0.4389
21777SOL    HW169373   6.678   7.297   5.081  0.8249  1.2235 -0.0875
21777SOL    HW269374   6.823   7.277   5.045  0.5162  0.2674 -0.8067
21778SOL     OW69375   4.345   6.791   1.617 -0.1493  0.2658  0.5656
21778SOL    HW169376   4.354   6.761   1.707  0.0356  0.1387  0.5062
21778SOL    HW269377   4.343   6.886   1.623 -0.6404  0.2495  0.7480
21779SOL     OW69378   7.441   1.085   1.418 -0.5953  0.8168 -0.4427
21779SOL    HW169379   7.481   1.163   1.380  1.4161 -0.1340 -0.3975
21779SOL    HW269380   7.434   1.023   1.345 -0.3473  0.3624 -0.0876
21780SOL     OW69381   5.790   4.099   4.947 -0.8812  0.2682  0.4628
21780SOL    HW169382   5.790   4.163   5.018  0.2029  0.2692  0.4845
21780SOL    HW269383   5.699   4.070   4.940 -0.7976 -0.7490  2.7575
21781SOL     OW69384   2.654   1.861   5.764  0.7258  0.0308  0.4820
21781SOL    HW169385   2.677   1.772   5.792  0.3554  0.3663  1.9690
21781SOL    HW269386   2.658   1.912   5.845  2.0671  1.6162 -0.5477
21782SOL     OW69387   6.703   1.439   5.931 -0.0353 -0.2227  0.8589
21782SOL    HW169388   6.719   1.485   5.848 -0.5532 -0.2615  0.7308
21782SOL    HW269389   6.782   1.388   5.946  0.5993  0.7962  1.0581
21783SOL     OW69390   3.785   8.369   2.098  0.2921  0.1417 -0.0377
21783SOL    HW169391   3.753   8.408   2.179  0.8277  0.2089  0.1449
21783SOL    HW269392   3.775   8.275   2.110  2.9711 -0.0534  1.2615
21784SOL     OW69393   4.040   7.396   4.835  0.2823  0.3995 -0.4986
21784SOL    HW169394   4.013   7.382   4.926  1.1681 -1.2446 -0.4678
21784SOL    HW269395   4.085   7.481   4.836  0.3915  0.3394  0.6187
21785SOL     OW69396   8.650   5.948   6.793 -0.2865 -0.3163 -0.3250
21785SOL    HW169397   8.663   6.010   6.722 -2.1590  0.5146  0.0134
21785SOL    HW269398   8.733   5.950   6.842  0.1704  0.8742 -1.1168
21786SOL     OW69399   5.831   6.749   9.922 -0.0366 -0.2928  0.1871
21786SOL    HW169400   5.920   6.765   9.954 -0.4435  1.1028  0.7135
21786SOL    HW269401   5.832   6.658   9.892  1.7281 -0.1388 -0.3526
21787SOL     OW69402   2.806   9.619   0.561  0.3543  0.3185 -0.6365
21787SOL    HW169403   2.828   9.529   0.586  0.4283 -0.2194 -2.5110
21787SOL    HW269404   2.779   9.661   0.643  2.0030 -0.8900  0.5857
21788SOL     OW69405   1.602   6.510   1.263  0.1381  0.2959  0.6534
21788SOL    HW169406   1.508   6.502   1.245  0.0564 -1.4729  1.6044
21788SOL    HW269407   1.608   6.517   1.358  1.0073 -1.9500  0.8412
21789SOL     OW69408   8.325   0.160   4.607  0.3680  0.2099 -0.0272
21789SOL    HW169409   8.328   0.094   4.677 -1.2996 -0.2107 -0.2965
21789SOL    HW269410   8.269   0.229   4.642 -0.6697 -0.1074 -0.9997
21790SOL     OW69411   9.993   1.996   2.983 -0.4370 -0.3465  0.2337
21790SOL    HW169412  10.073   2.048   2.984  0.3080 -1.4506  1.6366
21790SOL    HW269413   9.987   1.964   2.892  0.9511 -0.5755  0.1971
21791SOL     OW69414   1.460   1.766   1.128 -0.3041 -0.0448 -0.3686
21791SOL    HW169415   1.450   1.807   1.042  0.0247  1.3738  0.2564
21791SOL    HW269416   1.552   1.741   1.132 -0.3843 -0.3789 -0.5310
21792SOL     OW69417   9.242   3.293   7.337 -0.6185 -0.2128  0.0624
21792SOL    HW169418   9.324   3.249   7.315 -1.0234  0.3125 -2.8397
21792SOL    HW269419   9.270   3.374   7.380  0.4732  0.3401 -1.5992
21793SOL     OW69420   5.387   2.956   8.953 -0.7195  0.6029 -0.2121
21793SOL    HW169421   5.425   2.924   9.035 -0.4908 -0.6795 -0.8063
21793SOL    HW269422   5.461   2.957   8.892 -0.9146  1.4502 -0.4450
21794SOL     OW69423   5.607   2.126   6.323  0.0919  0.3141  0.1227
21794SOL    HW169424   5.591   2.034   6.301  1.1330  0.1933 -0.1497
21794SOL    HW269425   5.610   2.171   6.238 -0.5992  0.6462  0.2610
21795SOL     OW69426   9.794   4.937   9.108  0.0764 -0.8039 -0.0635
21795SOL    HW169427   9.715   4.967   9.063  0.3388 -1.5743 -1.0872
21795SOL    HW269428   9.866   4.969   9.055  0.5397  0.9428  1.5270
21796SOL     OW69429   6.797   9.778   3.660 -0.0277  0.4571  0.2459
21796SOL    HW169430   6.866   9.719   3.689 -0.4594  0.1886  0.7605
21796SOL    HW269431   6.734   9.722   3.615  0.0932  0.6992 -0.2240
21797SOL     OW69432   2.179   0.754   3.781  0.4494 -0.6084 -0.2905
21797SOL    HW169433   2.188   0.826   3.719 -0.8585  0.0508  0.2488
21797SOL    HW269434   2.195   0.795   3.867  0.3310 -1.0903 -0.0372
21798SOL     OW69435   8.801   7.265   4.388  0.4915 -0.6527 -0.3173
21798SOL    HW169436   8.828   7.255   4.479  1.5432  1.0189 -0.4267
21798SOL    HW269437   8.850   7.340   4.355  1.7735 -2.4721 -2.9058
21799SOL     OW69438   2.615   9.500   0.019 -0.3392 -0.3977  0.1516
21799SOL    HW169439   2.613   9.406  -0.000  1.3838 -0.4544  0.1202
21799SOL    HW269440   2.643   9.541  -0.063  2.7675 -0.2558  1.1622
21800SOL     OW69441   4.526   7.549   2.101 -0.0680 -0.3189  0.6265
21800SOL    HW169442   4.498   7.561   2.010 -0.6955 -0.2867  0.8180
21800SOL    HW269443   4.552   7.636   2.130 -0.8629 -0.1223  0.7917
21801SOL     OW69444   8.443   8.910   5.446 -0.3988  0.2915  0.3627
21801SOL    HW169445   8.447   8.950   5.360  0.7946 -0.3539  0.0886
21801SOL    HW269446   8.358   8.937   5.482 -0.4618  1.4261 -0.5784
21802SOL     OW69447   6.824   9.683   1.546 -0.0715  0.0602  0.1413
21802SOL    HW169448   6.793   9.638   1.624 -1.0261 -0.5332 -0.5629
21802SOL    HW269449   6.785   9.635   1.473  3.7391 -1.7650 -0.9511
21803SOL     OW69450   3.875   2.907   4.378 -0.1084 -0.5645 -0.1297
21803SOL    HW169451   3.845   2.992   4.411 -3.7523 -1.2366 -1.1992
21803SOL    HW269452   3.915   2.864   4.454  0.6662  1.5808  0.7359
21804SOL     OW69453   7.364   4.156   1.979  0.3086 -0.1027  0.1113
21804SOL    HW169454   7.272   4.142   2.002  0.4241 -0.8049  0.1610
21804SOL    HW269455   7.363   4.173   1.885 -0.1227  2.3660  0.5133
21805SOL     OW69456   7.922  10.187   4.613 -0.2116  0.6330  0.0908
21805SOL    HW169457   7.871  10.107   4.612 -1.0060  1.0987  0.9789
21805SOL    HW269458   7.997  10.169   4.557 -1.8436  0.2669 -2.0927
21806SOL     OW69459   2.554   1.952   6.013 -0.0688  0.5543 -0.2885
21806SOL    HW169460   2.465   1.925   6.033 -0.0409  0.5281 -0.2001
21806SOL    HW269461   2.588   1.988   6.095  0.4693 -0.7164  0.0639
21807SOL     OW69462   1.724  10.085   2.178 -0.0857  0.2416 -0.1077
21807SOL    HW169463   1.682  10.135   2.248  0.7262 -1.7947  1.9941
21807SOL    HW269464   1.666  10.009   2.166  0.2379  0.1340 -1.0877
21808SOL     OW69465   1.991   0.545   5.632  0.1178  0.3599 -0.0337
21808SOL    HW169466   1.981   0.457   5.667 -2.5260  0.6917  0.2495
21808SOL    HW269467   1.992   0.602   5.709  1.1397  0.6378 -0.2427
21809SOL     OW69468   5.036   5.920   2.659 -0.4728  0.4468 -0.1625
21809SOL    HW169469   5.092   5.899   2.584  0.1530  0.4254  0.2936
21809SOL    HW269470   4.969   5.979   2.624  0.0802  0.8024 -0.6508
21810SOL     OW69471   7.091   1.331   9.093 -0.1222  0.0312  0.4881
21810SOL    HW169472   7.110   1.243   9.059  1.0328  0.0964  0.9132
21810SOL    HW269473   7.010   1.320   9.143 -0.3973 -0.6260 -0.0783
21811SOL     OW69474   7.365   1.282   2.752 -0.5377  0.0235 -0.5431
21811SOL    HW169475   7.439   1.297   2.693  0.7550  1.8405  1.3726
21811SOL    HW269476   7.329   1.198   2.725  1.3763 -0.2757 -2.4240
21812SOL     OW69477  10.109   1.370   7.167 -0.5146 -0.0057  0.5976
21812SOL    HW169478  10.192   1.328   7.148  0.7632  1.6632  2.1450
21812SOL    HW269479  10.074   1.394   7.082  0.3338 -1.1453 -0.1004
21813SOL     OW69480   4.110   9.572   2.931  0.0720  0.3024 -0.2931
21813SOL    HW169481   4.126   9.487   2.892  1.6514  0.3673  0.1344
21813SOL    HW269482   4.018   9.591   2.912 -0.5521 -1.8390  0.2990
21814SOL     OW69483   1.939   0.375   8.489 -0.0212 -0.0486  0.2304
21814SOL    HW169484   1.907   0.381   8.399  0.0144  2.5287  0.2943
21814SOL    HW269485   2.033   0.388   8.481  0.0075 -0.0218  0.6149
21815SOL     OW69486   9.778   4.652   2.249  0.0336  0.2391  0.1680
21815SOL    HW169487   9.732   4.574   2.217 -0.6773  0.3889  0.7704
21815SOL    HW269488   9.759   4.720   2.184 -0.4333  0.2428  0.3029
21816SOL     OW69489   2.562   9.893   7.371 -0.6000 -0.0184  0.1246
21816SOL    HW169490   2.652   9.867   7.389 -0.8168 -1.3268 -0.5625
21816SOL    HW269491   2.529   9.826   7.311 -1.6499  1.1020 -0.6030
21817SOL     OW69492   7.708   7.936   9.795 -0.1910 -0.4672  0.4777
21817SOL    HW169493   7.647   7.991   9.844  0.8158  0.8226  0.3404
21817SOL    HW269494   7.719   7.982   9.711  0.0432 -1.3184  0.0315
21818SOL     OW69495   8.945   5.082   0.899  0.1215  0.1219  0.2175
21818SOL    HW169496   9.030   5.123   0.916  0.1320  0.2776 -0.2038
21818SOL    HW269497   8.942   5.008   0.959  0.2037  0.5994  0.8239
21819SOL     OW69498   6.421   8.165   0.841  0.0265  0.0638 -0.6108
21819SOL    HW169499   6.450   8.120   0.920 -0.9004  0.0385 -0.2747
21819SOL    HW269500   6.326   8.162   0.845 -0.0506  1.1800 -1.0868
21820SOL     OW69501   1.403   0.531   0.343  0.4158 -0.0043  0.6835
21820SOL    HW169502   1.374   0.622   0.353 -0.7792 -0.4016  0.9170
21820SOL    HW269503   1.496   0.534   0.366  0.6196  1.3123 -0.1542
21821SOL     OW69504   5.329   4.460   3.316 -0.6843 -0.3007  0.0783
21821SOL    HW169505   5.394   4.428   3.378 -0.9855  2.0836  1.7644
21821SOL    HW269506   5.364   4.437   3.230  1.7472 -0.2172  0.9686
21822SOL     OW69507   4.044   6.057   9.647 -0.8399 -0.1622 -0.1532
21822SOL    HW169508   4.081   6.059   9.736  0.9041 -0.6084 -0.8391
21822SOL    HW269509   3.999   5.973   9.642 -1.1119 -0.0566  0.3514
21823SOL     OW69510   2.970   0.083   6.784 -0.3737 -0.6648  0.9735
21823SOL    HW169511   2.916   0.102   6.708 -0.5639  0.3887  1.3478
21823SOL    HW269512   2.915   0.107   6.859  0.8504  1.2193  1.3493
21824SOL     OW69513   7.174   9.632   5.998 -0.0425 -0.2647 -0.3205
21824SOL    HW169514   7.110   9.631   5.927 -0.2031  0.9339 -0.2106
21824SOL    HW269515   7.137   9.694   6.062  1.6073  1.1086 -0.6272
21825SOL     OW69516   1.680   4.232   2.930 -0.1071  0.6357  0.3021
21825SOL    HW169517   1.594   4.190   2.923  0.2918 -0.2086  0.3669
21825SOL    HW269518   1.742   4.160   2.923  0.5737  1.1220  1.2442
21826SOL     OW69519   7.022   7.043   9.934 -0.1028 -0.1918 -0.0359
21826SOL    HW169520   6.976   7.025   9.852 -2.7314  4.3908  0.0779
21826SOL    HW269521   6.978   6.987   9.998 -0.9394 -0.7624 -1.0602
21827SOL     OW69522   2.865   1.200   6.266 -0.1722 -0.1037  0.2568
21827SOL    HW169523   2.920   1.275   6.245 -0.3793 -0.1500 -0.4530
21827SOL    HW269524   2.787   1.211   6.213 -0.7839 -0.1317  1.1237
21828SOL     OW69525   9.775   5.174   6.672 -0.4863 -0.4970  0.0094
21828SOL    HW169526   9.827   5.200   6.596 -1.8069 -3.0812 -1.9106
21828SOL    HW269527   9.768   5.254   6.724  1.2830  1.1340 -2.0654
21829SOL     OW69528   2.192   4.189  10.270  0.1064  0.0810  0.2504
21829SOL    HW169529   2.157   4.272  10.301 -0.7026 -0.3346  0.4741
21829SOL    HW269530   2.119   4.147  10.225  0.4972 -0.5304  0.1639
21830SOL     OW69531   2.640   0.381   6.267 -0.4576 -0.2246  0.1126
21830SOL    HW169532   2.656   0.449   6.201 -1.8706 -1.2270 -1.3311
21830SOL    HW269533   2.557   0.405   6.307 -0.6450 -0.7469  0.0439
21831SOL     OW69534   5.458   3.293   2.044 -0.1889  0.5599  0.3791
21831SOL    HW169535   5.386   3.238   2.075 -1.9970  0.9638 -2.6266
21831SOL    HW269536   5.527   3.231   2.019 -1.4345 -0.2789 -1.1624
21832SOL     OW69537   1.552   3.603   3.995 -0.2772  0.3981  0.0974
21832SOL    HW169538   1.490   3.579   4.063 -0.0399  1.8848  0.8733
21832SOL    HW269539   1.505   3.586   3.913 -0.5084 -1.5378  0.5839
21833SOL     OW69540   7.524   9.832   1.037  0.0373 -0.3859 -0.3595
21833SOL    HW169541   7.459   9.861   1.101  0.8459 -0.2251  0.4040
21833SOL    HW269542   7.592   9.898   1.039  0.6545 -1.0063 -0.5035
21834SOL     OW69543   8.618   8.758   3.586 -0.4443  0.1042  0.1187
21834SOL    HW169544   8.526   8.742   3.608 -0.9994  1.6620 -0.8363
21834SOL    HW269545   8.649   8.816   3.655 -0.6632  0.8187 -0.3631
21835SOL     OW69546   3.181   3.940   2.136  0.2359 -0.1108 -0.0298
21835SOL    HW169547   3.165   3.974   2.048  0.0626 -0.3517 -0.0904
21835SOL    HW269548   3.192   3.846   2.125  0.7071 -0.0825  0.1421
21836SOL     OW69549   4.367   8.750  10.100 -0.0615  0.3101 -0.2419
21836SOL    HW169550   4.395   8.721  10.013 -0.3064 -0.3567 -0.1026
21836SOL    HW269551   4.419   8.829  10.116  1.7655 -0.8577  0.0046
21837SOL     OW69552   0.830   6.698   3.339  0.2123 -0.2614 -0.1357
21837SOL    HW169553   0.828   6.671   3.247  0.6633  0.2682 -0.3062
21837SOL    HW269554   0.769   6.771   3.343  0.0990 -0.3640  0.0168
21838SOL     OW69555   7.475  10.074   9.393 -0.0209 -0.2660 -0.5349
21838SOL    HW169556   7.451  10.166   9.402  1.0761  0.1570 -1.5642
21838SOL    HW269557   7.476  10.059   9.298 -4.1565 -2.4798 -0.4403
21839SOL     OW69558   0.310   4.302   4.085 -0.1244  0.2055 -0.6019
21839SOL    HW169559   0.260   4.301   4.003  1.5298 -0.6515 -1.6648
21839SOL    HW269560   0.279   4.226   4.133 -2.5148  1.7794  0.5494
21840SOL     OW69561   7.294   4.294   6.726  0.1165 -0.3712  0.1155
21840SOL    HW169562   7.335   4.379   6.708  0.4340 -0.3452  0.9231
21840SOL    HW269563   7.304   4.245   6.644 -1.2612  0.8245 -0.8118
21841SOL     OW69564   9.943   4.309   0.247 -0.1277  0.8914  0.2731
21841SOL    HW169565   9.975   4.242   0.187  0.4646  0.8186  0.6672
21841SOL    HW269566   9.877   4.357   0.196 -0.4904  0.0823 -0.0510
21842SOL     OW69567   0.287   1.172   2.939 -0.2116 -0.1451  0.5258
21842SOL    HW169568   0.350   1.243   2.946 -0.0259 -0.3511  1.0293
21842SOL    HW269569   0.333   1.096   2.974 -0.1968 -0.6564 -0.5900
21843SOL     OW69570   8.540   2.838   2.196 -0.2149  0.0442  0.2522
21843SOL    HW169571   8.476   2.828   2.125 -0.2193 -3.3077  0.5790
21843SOL    HW269572   8.489   2.828   2.276  0.1351  1.5490  0.6887
21844SOL     OW69573   9.335   2.086   8.288 -0.1698 -0.0355 -0.2106
21844SOL    HW169574   9.323   2.162   8.230 -2.5702 -0.2196 -0.0550
21844SOL    HW269575   9.426   2.092   8.316  0.0643  2.0844 -1.1912
21845SOL     OW69576   2.363   0.731   4.472  0.2743 -0.0776 -0.3041
21845SOL    HW169577   2.429   0.661   4.475 -0.1042 -0.4181  1.6870
21845SOL    HW269578   2.414   0.812   4.481  0.5837 -0.2008 -0.9203
21846SOL     OW69579   2.158   0.034   5.316 -0.2371  0.3341  0.0964
21846SOL    HW169580   2.161   0.123   5.349 -3.1043 -0.1339  2.0170
21846SOL    HW269581   2.071   0.026   5.277 -0.9625 -2.1769  1.9862
21847SOL     OW69582   8.933   6.421   7.793 -0.0878  0.4836 -0.0899
21847SOL    HW169583   8.904   6.511   7.804  0.0923  0.6143 -0.6477
21847SOL    HW269584   8.853   6.369   7.792 -0.1418  0.4070  2.0283
21848SOL     OW69585   1.400   1.150   2.113  0.3291 -0.0732  0.0109
21848SOL    HW169586   1.489   1.141   2.147  0.1972 -0.9170  0.1661
21848SOL    HW269587   1.351   1.189   2.184  0.8989  1.9389 -0.6286
21849SOL     OW69588   8.082   8.392   4.711  0.0166 -0.2492  0.3858
21849SOL    HW169589   7.998   8.380   4.754  0.1356 -1.0024  0.4258
21849SOL    HW269590   8.073   8.347   4.627  0.3034 -0.1295  0.2882
21850SOL     OW69591  10.240   8.552   2.527 -0.5678  0.5665 -0.1387
21850SOL    HW169592  10.168   8.604   2.492 -0.7112  1.8723  1.9778
21850SOL    HW269593  10.263   8.493   2.455 -2.1954  1.6880 -1.6698
21851SOL     OW69594   6.868   7.420   5.782  0.0783  0.1991 -0.0973
21851SOL    HW169595   6.849   7.333   5.819  0.5429  0.4730  0.8142
21851SOL    HW269596   6.938   7.405   5.719 -0.6464 -0.2587 -0.8175
21852SOL     OW69597   5.678   4.902   6.662 -0.6649 -0.3576  0.4855
21852SOL    HW169598   5.625   4.864   6.732  0.1760 -1.9207  0.3239
21852SOL    HW269599   5.627   4.888   6.582 -0.0958 -1.7597  0.3451
21853SOL     OW69600   9.374   0.465   4.746 -0.0630  0.7145  0.5965
21853SOL    HW169601   9.337   0.380   4.721  0.5750 -0.0126  2.0309
21853SOL    HW269602   9.310   0.529   4.713 -2.2861 -0.4670  2.3355
21854SOL     OW69603   7.904  10.215   6.754 -0.3043  0.5397 -0.0944
21854SOL    HW169604   7.833  10.238   6.694  0.9171  1.3655 -1.2811
21854SOL    HW269605   7.980  10.205   6.698  0.7193  0.5345  1.2453
21855SOL     OW69606   6.412   2.791   3.252  0.3824  0.5688  0.1770
21855SOL    HW169607   6.484   2.787   3.315  1.1792  2.9425 -0.4738
21855SOL    HW269608   6.371   2.705   3.257  2.5625 -0.4895  1.3979
21856SOL     OW69609   2.164   5.059   0.578 -0.1843  0.4231  0.1340
21856SOL    HW169610   2.077   5.097   0.566  0.8105  2.9191  0.1762
21856SOL    HW269611   2.211   5.124   0.631  1.8181 -0.6893 -0.1772
21857SOL     OW69612   8.303   8.162   4.315  0.3241 -0.3493  0.2707
21857SOL    HW169613   8.300   8.170   4.220 -3.5646  0.1294  0.2891
21857SOL    HW269614   8.360   8.234   4.343  2.4961 -1.1977 -1.6336
21858SOL     OW69615   2.410   3.775   5.181  0.1740  0.1148 -0.4137
21858SOL    HW169616   2.346   3.733   5.238 -0.5482  0.1434 -1.1877
21858SOL    HW269617   2.436   3.706   5.119 -2.3486  1.1651 -2.8390
21859SOL     OW69618   0.956   8.440   7.173 -0.3363 -0.0266  0.2665
21859SOL    HW169619   0.869   8.449   7.211 -0.5947  1.1316 -0.5511
21859SOL    HW269620   0.980   8.349   7.190 -1.6378 -0.3220  0.6352
21860SOL     OW69621   2.519  10.172   5.444 -0.1651  0.1404 -0.7124
21860SOL    HW169622   2.517  10.258   5.487  0.6677 -0.3849  0.4247
21860SOL    HW269623   2.474  10.114   5.505 -0.6756 -0.2668 -1.4515
21861SOL     OW69624   0.657   8.887   8.711 -0.3631 -0.0801 -1.1720
21861SOL    HW169625   0.648   8.826   8.638 -0.6743 -0.2032 -1.0349
21861SOL    HW269626   0.578   8.941   8.707 -0.8187 -0.6651 -0.4010
21862SOL     OW69627   5.112   9.101   3.704  0.2056 -0.6922 -0.0509
21862SOL    HW169628   5.030   9.121   3.660 -0.1537 -1.0742  0.4430
21862SOL    HW269629   5.090   9.100   3.797  1.0941  0.8237  0.2140
21863SOL     OW69630   9.190   0.692   7.996 -0.5149 -1.0323  0.7765
21863SOL    HW169631   9.218   0.778   8.026 -0.0452 -0.7665 -0.3735
21863SOL    HW269632   9.271   0.647   7.973 -0.8600 -0.2769 -2.5548
21864SOL     OW69633   3.936   9.379   5.082 -0.3863  0.0903  0.6790
21864SOL    HW169634   3.969   9.469   5.081  1.2123 -0.4794 -0.7954
21864SOL    HW269635   4.011   9.325   5.056 -1.8689 -1.4792 -0.5252
21865SOL     OW69636   6.490   3.068   6.153  0.5844 -0.1547  0.1350
21865SOL    HW169637   6.524   3.121   6.081  0.1777 -0.9306 -0.6386
21865SOL    HW269638   6.454   2.990   6.111 -0.9915  0.0484  1.0357
21866SOL     OW69639   0.153   8.226   1.616 -0.1735  0.2655  0.1296
21866SOL    HW169640   0.138   8.227   1.711  0.9530  0.8527  0.3210
21866SOL    HW269641   0.108   8.304   1.585 -0.9481 -0.1831  0.1039
21867SOL     OW69642   0.541   1.443   1.321  0.6512  0.3817 -0.0475
21867SOL    HW169643   0.621   1.401   1.291  1.1302 -1.2948  3.1459
21867SOL    HW269644   0.531   1.519   1.264  3.0119 -0.8239 -2.2550
21868SOL     OW69645   3.571   8.770  10.229 -0.2684  0.1891  0.4170
21868SOL    HW169646   3.664   8.762  10.248 -0.9352 -0.0012  4.2422
21868SOL    HW269647   3.560   8.722  10.147  2.9025 -0.1016  0.0424
21869SOL     OW69648   2.807   0.260   7.274  0.4835 -0.0104 -0.5720
21869SOL    HW169649   2.776   0.332   7.220 -0.8630  0.1099  0.3204
21869SOL    HW269650   2.889   0.292   7.312  0.6160  0.4982 -1.2680
21870SOL     OW69651   2.729   9.368   6.643 -0.4670 -0.5039  0.3919
21870SOL    HW169652   2.637   9.370   6.616 -0.8137 -1.8635  1.3728
21870SOL    HW269653   2.740   9.447   6.696 -0.9487 -0.1107 -0.0801
21871SOL     OW69654   6.591   0.465   4.446 -0.3356 -0.2436 -0.4246
21871SOL    HW169655   6.584   0.435   4.355 -0.4458 -2.2789  0.1930
21871SOL    HW269656   6.527   0.412   4.493 -0.2032  0.7073  0.8733
21872SOL     OW69657   3.537   7.583   1.895 -0.6512 -0.0489  0.1223
21872SOL    HW169658   3.574   7.671   1.903 -0.0231 -0.2076 -0.8412
21872SOL    HW269659   3.445   7.598   1.874 -0.4159  0.3942 -0.6363
21873SOL     OW69660   1.104   1.180   4.403 -0.5282 -0.1611 -0.2813
21873SOL    HW169661   1.053   1.118   4.455 -1.2464  0.1130 -0.6399
21873SOL    HW269662   1.038   1.235   4.361  0.0942  1.3035  0.5814
21874SOL     OW69663   1.821   2.248   7.546 -0.3003  0.0978  0.2102
21874SOL    HW169664   1.831   2.279   7.456 -0.3318 -1.5962 -0.4172
21874SOL    HW269665   1.807   2.328   7.598 -0.7841  1.0582 -1.3392
21875SOL     OW69666   5.832   3.352   6.167 -0.1302 -0.1156 -0.0504
21875SOL    HW169667   5.776   3.429   6.156 -1.1529 -0.7613  0.3764
21875SOL    HW269668   5.848   3.321   6.079  0.4456  0.6774 -0.2388
21876SOL     OW69669   7.432   9.528   5.959 -0.1472 -0.3631 -0.1215
21876SOL    HW169670   7.347   9.556   5.993  0.4879 -0.0469  1.2904
21876SOL    HW269671   7.487   9.520   6.037  1.0179 -0.9225 -0.9751
21877SOL     OW69672   6.290   9.935   6.959 -0.2682  0.2216  0.7084
21877SOL    HW169673   6.360   9.873   6.941  0.9520  1.4700  0.9974
21877SOL    HW269674   6.320  10.017   6.919 -1.5106  0.8093  0.9402
21878SOL     OW69675   5.691   2.519   3.652 -0.4052 -0.1620 -0.1128
21878SOL    HW169676   5.663   2.610   3.653  0.0634 -0.0155 -0.2924
21878SOL    HW269677   5.786   2.522   3.639 -0.5397 -0.7102 -1.3668
21879SOL     OW69678   9.332   7.911   9.700  0.9989  0.0122 -0.1452
21879SOL    HW169679   9.259   7.935   9.757  0.2554 -0.0894 -1.0433
21879SOL    HW269680   9.347   7.987   9.645 -0.7887 -1.1438 -2.3937
21880SOL     OW69681   4.222   4.787   4.437 -0.4103 -0.5278 -0.1646
21880SOL    HW169682   4.203   4.855   4.373 -2.3148 -1.2166 -0.3860
21880SOL    HW269683   4.239   4.835   4.518  0.3661  0.2694 -0.7798
21881SOL     OW69684   9.209   1.638   9.278 -0.2031  0.1729  0.0612
21881SOL    HW169685   9.238   1.649   9.188  1.7944 -2.0052  0.3492
21881SOL    HW269686   9.262   1.700   9.328 -0.3760  0.4592 -0.1084
21882SOL     OW69687   0.243   4.419   6.784  0.6418  0.5135 -0.0914
21882SOL    HW169688   0.313   4.441   6.723  1.8864 -0.7149  0.8089
21882SOL    HW269689   0.273   4.338   6.827 -1.4924 -0.2525  0.0910
21883SOL     OW69690   1.190   3.815   1.344 -0.3670 -0.4839 -0.5974
21883SOL    HW169691   1.111   3.834   1.395  0.0387  0.4653 -0.3026
21883SOL    HW269692   1.262   3.820   1.408  0.0264 -0.3974 -1.0418
21884SOL     OW69693   8.355   4.359   1.763 -0.7650 -0.0744 -0.0301
21884SOL    HW169694   8.309   4.441   1.742  0.6445  0.8313  0.3022
21884SOL    HW269695   8.447   4.383   1.763 -0.3659 -1.5288  0.7780
21885SOL     OW69696   4.577   9.560   8.772  0.3138  0.3566 -0.2578
21885SOL    HW169697   4.600   9.468   8.787  0.9442  0.5045 -0.3112
21885SOL    HW269698   4.486   9.566   8.800  0.0674 -0.4302 -0.8246
21886SOL     OW69699   0.208   8.253   7.413 -0.0753 -0.2262  0.2292
21886SOL    HW169700   0.146   8.235   7.342 -0.6858  0.0850  0.6760
21886SOL    HW269701   0.156   8.246   7.493  0.5034 -0.1137  0.6240
21887SOL     OW69702   8.938   4.801   0.622  0.2553 -0.4800  0.5769
21887SOL    HW169703   8.923   4.723   0.569 -0.2757 -0.5545  0.8384
21887SOL    HW269704   9.033   4.811   0.622  0.2556 -0.1919 -0.8139
21888SOL     OW69705   2.579   1.969  10.017  0.0637  0.2125 -0.3755
21888SOL    HW169706   2.563   1.881  10.049 -2.0096  0.6801  0.0173
21888SOL    HW269707   2.609   1.957   9.927  0.3306 -0.8939 -0.1534
21889SOL     OW69708   4.577   7.346   3.468  0.3742 -0.2305  0.1689
21889SOL    HW169709   4.551   7.255   3.458  1.6214 -0.5481 -0.4711
21889SOL    HW269710   4.499   7.396   3.447 -0.1907 -1.1429  0.0494
21890SOL     OW69711   1.569   6.639   2.317 -0.0050  0.6396 -0.7069
21890SOL    HW169712   1.497   6.675   2.369  1.0537  0.7710  0.7290
21890SOL    HW269713   1.549   6.665   2.228 -1.3966  1.2330 -0.2528
21891SOL     OW69714   8.534   1.108   5.064  0.0863  0.3257 -0.2059
21891SOL    HW169715   8.526   1.201   5.087 -1.1986  0.1177  0.2731
21891SOL    HW269716   8.549   1.064   5.148 -1.2722 -0.0936 -0.1640
21892SOL     OW69717   3.996   4.961   3.171  0.2663 -0.3668  0.4056
21892SOL    HW169718   4.033   5.040   3.130  0.8143 -0.4548  0.7127
21892SOL    HW269719   3.987   4.985   3.263  1.0744 -0.8797  0.6308
21893SOL     OW69720   3.593   7.227  10.035  0.2210 -0.0191 -0.1793
21893SOL    HW169721   3.611   7.150  10.089  0.0412  0.5054  0.6396
21893SOL    HW269722   3.506   7.211   9.998 -0.1548  0.1351  0.6146
21894SOL     OW69723   7.007   7.537   1.173 -0.4786 -0.1637 -0.3013
21894SOL    HW169724   7.000   7.525   1.268 -0.8840  1.5623 -0.0864
21894SOL    HW269725   7.051   7.621   1.163  2.2019 -1.6017 -1.6808
21895SOL     OW69726   1.184   5.552   1.934 -0.0956  0.1025  0.1560
21895SOL    HW169727   1.254   5.503   1.891 -0.4322 -0.2049 -0.0478
21895SOL    HW269728   1.179   5.515   2.022 -1.8736 -1.8717 -0.6744
21896SOL     OW69729   0.332   6.741   2.562 -0.0229 -0.4047  0.0176
21896SOL    HW169730   0.337   6.646   2.567  1.0194 -0.3066  1.4107
21896SOL    HW269731   0.414   6.772   2.602 -0.9540  1.0943  0.8561
21897SOL     OW69732   0.566   2.439   8.350  0.3474  0.0943 -0.2819
21897SOL    HW169733   0.652   2.476   8.329  0.7069 -0.4069  0.2822
21897SOL    HW269734   0.504   2.508   8.326  0.8327  0.0949 -1.6335
21898SOL     OW69735   3.927   8.438   1.053 -0.1552 -0.4613 -0.4044
21898SOL    HW169736   3.934   8.516   0.997  1.3730  0.5804  1.1335
21898SOL    HW269737   3.996   8.380   1.023  0.0409 -0.3221 -0.2240
21899SOL     OW69738   9.432   8.388   6.938  0.1397  0.3141  0.1856
21899SOL    HW169739   9.370   8.356   7.003 -1.4576 -0.4487 -1.6121
21899SOL    HW269740   9.380   8.446   6.882  1.3599  0.6172 -0.6782
21900SOL     OW69741   8.775   2.753   1.126  0.1547  0.0639  0.3964
21900SOL    HW169742   8.707   2.818   1.146  0.4813  0.1495  1.3263
21900SOL    HW269743   8.797   2.768   1.034 -1.5072 -0.3863 -0.1074
21901SOL     OW69744   3.978   1.241   7.711  0.0858  0.0132 -0.1377
21901SOL    HW169745   4.048   1.239   7.776  0.9714  0.5184 -1.0528
21901SOL    HW269746   4.020   1.274   7.631 -1.4840  1.6401 -0.3394
21902SOL     OW69747   1.225   5.688   1.229  0.7349  0.5554 -0.0053
21902SOL    HW169748   1.279   5.703   1.307  3.0746 -1.2497 -1.1604
21902SOL    HW269749   1.142   5.733   1.249  1.7132  1.3270  2.9150
21903SOL     OW69750   6.066  10.127   8.473  0.1767 -0.1924  0.4503
21903SOL    HW169751   6.018  10.078   8.539 -0.6541 -2.1234 -1.4734
21903SOL    HW269752   6.015  10.117   8.393  1.5167  1.4255 -0.6946
21904SOL     OW69753   0.740   9.109   6.133 -0.3312  0.2713 -0.1288
21904SOL    HW169754   0.676   9.048   6.171 -1.4419  1.1989 -0.4606
21904SOL    HW269755   0.744   9.180   6.196  1.6710 -0.5336  0.7248
21905SOL     OW69756   6.573   0.657   0.555  0.4158  0.3736 -0.6589
21905SOL    HW169757   6.590   0.564   0.571  1.7355  0.5293 -1.0660
21905SOL    HW269758   6.482   0.670   0.582  0.6244 -0.7448  0.6549
21906SOL     OW69759   9.430   8.703   4.955  0.3706 -0.2403 -0.0800
21906SOL    HW169760   9.479   8.716   5.036 -0.1560  0.4031  0.1440
21906SOL    HW269761   9.496   8.674   4.892  1.1375  0.9908  0.1050
21907SOL     OW69762   4.265   6.983   5.577 -0.3218  0.0807  0.6843
21907SOL    HW169763   4.187   6.948   5.534  0.7442 -0.7601 -0.6537
21907SOL    HW269764   4.251   7.078   5.578 -0.9143  0.0217 -0.4432
21908SOL     OW69765   9.544   4.456   3.312  0.0281  0.0873 -0.3121
21908SOL    HW169766   9.486   4.446   3.236  1.0797 -0.4871 -1.0643
21908SOL    HW269767   9.566   4.366   3.337  0.4375  0.2986  0.0967
21909SOL     OW69768   8.327   8.680   7.296  0.1663 -0.6116 -0.0509
21909SOL    HW169769   8.341   8.765   7.339  1.1592 -0.3207 -0.8943
21909SOL    HW269770   8.237   8.684   7.263  0.5987  0.6485 -1.1723
21910SOL     OW69771   5.587   7.984   2.016  0.3284 -0.0119 -0.3103
21910SOL    HW169772   5.530   7.981   2.093 -0.7869 -0.5906 -1.1154
21910SOL    HW269773   5.572   8.071   1.979 -0.5409 -0.3829 -0.8648
21911SOL     OW69774   3.993   5.831   7.446  0.2806 -0.2490 -0.0669
21911SOL    HW169775   4.006   5.889   7.371  1.7904  0.2213  0.5308
21911SOL    HW269776   4.056   5.760   7.433  1.6839  0.6562  1.5347
21912SOL     OW69777   2.872   7.631   3.308  0.5058 -0.2436  0.1546
21912SOL    HW169778   2.908   7.688   3.241  2.1487 -0.1161  1.0832
21912SOL    HW269779   2.893   7.675   3.391 -0.2467 -1.0659  0.8123
21913SOL     OW69780  10.239   1.424   5.297 -0.3634 -0.0492 -0.0279
21913SOL    HW169781  10.255   1.479   5.374 -1.4882 -0.0873  0.2606
21913SOL    HW269782  10.307   1.357   5.301  0.7520  1.0230 -0.1303
21914SOL     OW69783   5.572   8.103   8.575  0.2756 -0.1981 -0.5964
21914SOL    HW169784   5.652   8.085   8.625 -0.9109 -0.1543  1.4138
21914SOL    HW269785   5.543   8.188   8.607 -0.3904 -0.0424 -1.5836
21915SOL     OW69786   4.811   1.761   3.118 -0.5390 -0.2537  0.5487
21915SOL    HW169787   4.716   1.749   3.123 -0.6720  0.6418  0.3324
21915SOL    HW269788   4.824   1.855   3.129  0.2793 -0.2899 -0.0509
21916SOL     OW69789   4.667   6.592   3.123 -0.1719 -0.0067 -0.5958
21916SOL    HW169790   4.750   6.636   3.100  0.1946 -0.6243 -0.4595
21916SOL    HW269791   4.693   6.518   3.178 -0.8733  0.1904  0.0211
21917SOL     OW69792   6.373   0.597   7.180  0.1693  0.4726 -0.4656
21917SOL    HW169793   6.326   0.629   7.103  0.7684  0.4685 -0.8406
21917SOL    HW269794   6.310   0.542   7.226  0.1727 -0.5588 -1.6316
21918SOL     OW69795   9.574   7.840   1.427  0.6568  0.6231  0.2804
21918SOL    HW169796   9.646   7.795   1.382 -1.0286  0.5324 -2.5521
21918SOL    HW269797   9.573   7.928   1.389  0.2396  1.1558  1.4715
21919SOL     OW69798   6.578   9.787   4.115  0.1703  0.0752 -0.1370
21919SOL    HW169799   6.607   9.695   4.117  0.4033  0.1298 -0.7836
21919SOL    HW269800   6.617   9.826   4.194  0.0772 -0.3794  0.1374
21920SOL     OW69801   8.696   7.357   0.305  0.1722  0.1845  0.6275
21920SOL    HW169802   8.674   7.446   0.333  0.3239 -0.1947  2.0426
21920SOL    HW269803   8.695   7.361   0.210  1.6548  2.0703  0.6347
21921SOL     OW69804   5.833   2.752   2.048  0.1867  0.3318  0.0677
21921SOL    HW169805   5.914   2.797   2.071 -0.7242  0.5501  3.3028
21921SOL    HW269806   5.860   2.665   2.021  1.5774  0.9790 -0.7553
21922SOL     OW69807   9.018   0.262   4.344  0.1907  0.5950  0.4046
21922SOL    HW169808   9.111   0.241   4.336 -0.3265 -1.2630 -3.8477
21922SOL    HW269809   8.973   0.185   4.308 -2.9639  1.8291  1.3518
21923SOL     OW69810   6.895   0.867   0.221  0.2800 -0.1764  0.1687
21923SOL    HW169811   6.883   0.806   0.294 -0.3466 -0.5013 -0.1979
21923SOL    HW269812   6.953   0.934   0.256 -0.8541  0.2485  1.3298
21924SOL     OW69813   7.651   9.751   4.479 -0.6105 -0.7311  0.1333
21924SOL    HW169814   7.719   9.695   4.441 -0.8377  0.0738 -1.5422
21924SOL    HW269815   7.576   9.740   4.420 -1.1779  0.1236  0.6857
21925SOL     OW69816   6.588   5.660   2.864  0.1993  0.3848  0.7267
21925SOL    HW169817   6.639   5.741   2.862  1.2010 -0.2452  0.2701
21925SOL    HW269818   6.574   5.638   2.772 -1.8371  1.1062  0.8162
21926SOL     OW69819   0.600   0.735  10.121 -0.1633  0.3856 -0.0334
21926SOL    HW169820   0.662   0.684  10.069 -0.8942 -1.1266  0.5412
21926SOL    HW269821   0.530   0.757  10.060  0.5528  1.5129 -0.5042
21927SOL     OW69822   8.374   1.575   5.473 -0.2665 -0.1380 -0.3298
21927SOL    HW169823   8.315   1.516   5.427  0.3371  0.4616 -1.9476
21927SOL    HW269824   8.424   1.618   5.403  0.8679  0.6306  0.9074
21928SOL     OW69825   2.196   8.118   5.179  0.2963  0.4638  0.6195
21928SOL    HW169826   2.166   8.191   5.234  0.5430 -0.0741  1.4951
21928SOL    HW269827   2.289   8.135   5.166  0.6303 -0.2830  1.8219
21929SOL     OW69828   9.636   1.738   8.922  0.4129  0.3665 -0.0777
21929SOL    HW169829   9.565   1.748   8.985  0.8330  3.0394  0.0979
21929SOL    HW269830   9.709   1.703   8.974 -0.3502 -1.2675 -0.0192
21930SOL     OW69831   3.350   1.024   7.621  0.1303  0.1447  0.2411
21930SOL    HW169832   3.290   1.097   7.604 -0.5077 -0.3288  0.4223
21930SOL    HW269833   3.400   1.051   7.698 -1.7769 -0.5966  1.8147
21931SOL     OW69834   7.101   6.307   0.096  0.4074  0.3283  0.2773
21931SOL    HW169835   7.167   6.376   0.094 -1.1806  1.9074  0.2993
21931SOL    HW269836   7.020   6.351   0.119 -0.8377 -1.4201 -0.4962
21932SOL     OW69837   9.470   7.872   4.266 -0.2613 -0.0389 -0.3761
21932SOL    HW169838   9.408   7.936   4.230  1.3316  2.3680  0.9036
21932SOL    HW269839   9.437   7.854   4.354 -1.2605 -1.9043 -1.0528
21933SOL     OW69840   1.230   6.558   7.121  0.7560 -0.3663  0.8189
21933SOL    HW169841   1.298   6.496   7.147  1.4614  1.1199  2.7172
21933SOL    HW269842   1.264   6.644   7.146 -1.0261  0.6063  0.0851
21934SOL     OW69843   7.761  10.053   9.256  0.1253  0.0770 -0.5291
21934SOL    HW169844   7.704   9.978   9.237 -0.4531 -0.1006  1.6473
21934SOL    HW269845   7.790  10.038   9.346  1.3272  1.6485 -0.6243
21935SOL     OW69846   1.137   5.622   3.764 -0.1752 -0.1263 -0.7087
21935SOL    HW169847   1.045   5.641   3.783  0.1522  0.5982  0.2410
21935SOL    HW269848   1.181   5.707   3.772  0.5897 -0.4829 -1.0379
21936SOL     OW69849   1.020   6.397   5.354  0.0826  0.4808  0.6005
21936SOL    HW169850   0.933   6.356   5.357  0.7038 -1.4269 -2.5981
21936SOL    HW269851   1.002   6.491   5.354 -2.1749  0.1531 -1.3242
21937SOL     OW69852   7.980   8.536   7.822  0.6499  0.0374 -0.0450
21937SOL    HW169853   7.896   8.504   7.854  2.1611 -2.5329  1.7978
21937SOL    HW269854   7.958   8.611   7.766 -2.8868 -1.2232 -0.6076
21938SOL     OW69855   7.972   6.720   2.107 -0.0749  0.4745 -0.2472
21938SOL    HW169856   7.996   6.653   2.170 -1.6237  0.2714  0.1812
21938SOL    HW269857   7.945   6.671   2.029  0.4346  0.6695 -0.5494
21939SOL     OW69858   6.832   0.185   5.281  0.2775  0.4605  0.1714
21939SOL    HW169859   6.914   0.229   5.302  0.1298  0.7598  0.1335
21939SOL    HW269860   6.764   0.240   5.322  0.0624  0.4854 -0.2104
21940SOL     OW69861   9.788   0.527   1.652 -0.3434  0.3378 -0.1294
21940SOL    HW169862   9.790   0.468   1.727 -0.0070  0.2845 -0.1803
21940SOL    HW269863   9.696   0.527   1.624 -0.1976 -0.8053 -0.6368
21941SOL     OW69864   5.472   0.319   7.170  0.0259 -0.2413  0.2087
21941SOL    HW169865   5.537   0.306   7.102 -0.7953  0.6191 -0.7788
21941SOL    HW269866   5.430   0.403   7.148 -0.7960 -0.3300  1.3170
21942SOL     OW69867   5.028   0.462   1.634  0.3220  0.4526  0.1281
21942SOL    HW169868   5.046   0.467   1.728  1.1411  0.1104 -0.0035
21942SOL    HW269869   5.105   0.501   1.593  1.1959 -1.7291 -0.4811
21943SOL     OW69870   2.890   3.604   1.962  0.0324 -0.1975  0.2433
21943SOL    HW169871   2.866   3.655   2.040 -1.8420  0.2164 -0.5568
21943SOL    HW269872   2.822   3.537   1.956  0.7288 -0.8494 -0.4743
21944SOL     OW69873   6.933   8.343   0.849  0.8117  0.3664  0.3437
21944SOL    HW169874   6.846   8.303   0.841  0.2454  1.8046 -1.4223
21944SOL    HW269875   6.991   8.271   0.874 -0.6786 -0.8722  0.3686
21945SOL     OW69876   2.623   6.170   0.434 -0.4417  0.4073  0.9329
21945SOL    HW169877   2.636   6.212   0.350 -3.1438 -0.1793  0.1420
21945SOL    HW269878   2.700   6.113   0.444 -0.2091  0.2542 -1.2783
21946SOL     OW69879   7.325   3.692   2.397 -0.3564  0.0088 -0.2586
21946SOL    HW169880   7.381   3.705   2.321 -0.7385 -0.1064 -0.5627
21946SOL    HW269881   7.384   3.699   2.472  0.2699 -1.1669 -0.6094
21947SOL     OW69882   0.339   3.279   6.728 -0.0897  0.0593  0.0559
21947SOL    HW169883   0.336   3.304   6.635 -2.7668 -1.2671 -0.3081
21947SOL    HW269884   0.347   3.184   6.727 -0.5219  0.0006  1.1894
21948SOL     OW69885   1.536   3.109   8.246  0.2380  0.0538 -0.1941
21948SOL    HW169886   1.586   3.108   8.327  1.1189  0.3502 -0.7208
21948SOL    HW269887   1.602   3.104   8.177 -0.4778  0.1518 -0.8998
21949SOL     OW69888   0.507   0.675   3.133 -0.6651 -0.1578  0.0301
21949SOL    HW169889   0.475   0.675   3.223  3.0474 -2.3858  1.5787
21949SOL    HW269890   0.561   0.754   3.126  0.1596 -0.6862  0.2750
21950SOL     OW69891   2.554   1.802   3.599  0.4061 -0.2032 -0.1961
21950SOL    HW169892   2.547   1.744   3.675 -1.2181  1.5439  1.0865
21950SOL    HW269893   2.587   1.746   3.529 -0.1657 -2.4347  1.2186
21951SOL     OW69894   9.001   1.467   1.695 -0.2105  0.1528 -0.4061
21951SOL    HW169895   8.972   1.379   1.669 -0.7293  0.2667 -0.2086
21951SOL    HW269896   9.052   1.498   1.619  0.0573 -0.3518 -0.4390
21952SOL     OW69897   7.614   8.704   0.009  0.2780 -0.2874  0.1991
21952SOL    HW169898   7.551   8.762   0.052 -0.3370  0.1280 -1.2009
21952SOL    HW269899   7.627   8.633   0.071  0.7528  1.1247  1.8134
21953SOL     OW69900   3.000   9.075   5.400  0.4486 -0.0067  0.7741
21953SOL    HW169901   2.925   9.060   5.342  0.3449  2.0261  0.2913
21953SOL    HW269902   3.077   9.058   5.345  0.3660  2.4743 -0.2572
21954SOL     OW69903  10.028   6.240   3.912 -0.2428  0.0148  0.4013
21954SOL    HW169904  10.121   6.218   3.900  0.2600  1.6581  0.9469
21954SOL    HW269905   9.990   6.233   3.824  0.5364 -0.0862  0.0606
21955SOL     OW69906   9.808   0.094   6.687 -0.3879 -0.6107  0.2856
21955SOL    HW169907   9.812   0.009   6.731 -0.6242 -0.3002  0.9230
21955SOL    HW269908   9.795   0.073   6.595 -1.0247 -1.2558  0.5118
21956SOL     OW69909   4.253   3.441   6.824  0.7100  0.2327  0.8356
21956SOL    HW169910   4.271   3.531   6.799  1.8806 -0.2221 -0.0659
21956SOL    HW269911   4.161   3.428   6.800  0.6518  1.0502  0.5763
21957SOL     OW69912   0.099   1.531   6.572  0.0574 -0.0392 -0.1346
21957SOL    HW169913   0.034   1.570   6.630 -0.3988  0.1799 -0.7813
21957SOL    HW269914   0.074   1.439   6.565  1.7138 -0.7710  2.1989
21958SOL     OW69915   6.515   1.968   5.414 -0.1431 -0.2568  0.7995
21958SOL    HW169916   6.512   1.930   5.501 -0.9372 -0.5117  0.6742
21958SOL    HW269917   6.608   1.977   5.394  0.0443 -0.8050  1.4078
21959SOL     OW69918   3.285   4.132   5.713 -0.1535 -0.4060  0.6873
21959SOL    HW169919   3.244   4.100   5.793  0.3040 -1.3878  0.5506
21959SOL    HW269920   3.287   4.056   5.655  1.4124 -0.2801  0.5208
21960SOL     OW69921   0.094   8.474   1.565  0.9495  0.2778  0.6849
21960SOL    HW169922   0.124   8.560   1.537 -0.8284  0.9311  0.6581
21960SOL    HW269923   0.020   8.455   1.507  0.7187 -0.8480  1.3267
21961SOL     OW69924   4.853   3.997   5.035  0.2717 -0.4177 -0.0985
21961SOL    HW169925   4.894   3.911   5.026  3.1496  0.7826  0.2198
21961SOL    HW269926   4.830   4.004   5.127  0.6303 -0.5976  0.0046
21962SOL     OW69927   9.021   7.229   7.940 -0.3157  0.2110 -0.3832
21962SOL    HW169928   9.064   7.272   7.866  2.0797  0.2806  0.9415
21962SOL    HW269929   9.064   7.144   7.948 -0.9361 -0.0372  0.5888
21963SOL     OW69930   8.149   0.732   5.608  0.0582  0.0086  0.0710
21963SOL    HW169931   8.167   0.690   5.692  0.1073 -0.1585 -0.0213
21963SOL    HW269932   8.134   0.659   5.548  1.9044  0.0413 -0.5005
21964SOL     OW69933   0.640   4.895   9.271  0.0396 -0.3065  0.4014
21964SOL    HW169934   0.599   4.958   9.331  0.0917  0.0878  0.0243
21964SOL    HW269935   0.608   4.920   9.184  2.4187  1.1222 -0.1414
21965SOL     OW69936   2.854   1.145  10.118  0.5253 -0.1052 -0.2691
21965SOL    HW169937   2.821   1.065  10.077  2.6254 -0.4003 -1.4995
21965SOL    HW269938   2.871   1.204  10.045 -0.2774  1.2294  0.5837
21966SOL     OW69939   9.746   4.878   3.726  0.0003 -0.1259  0.5891
21966SOL    HW169940   9.722   4.873   3.633  0.4732  0.6273  0.4148
21966SOL    HW269941   9.701   4.804   3.766 -1.7761  0.6162  0.1033
21967SOL     OW69942   9.275   6.423   5.524 -0.0880 -0.1495 -0.1835
21967SOL    HW169943   9.252   6.455   5.437  2.1062  1.1014 -0.3740
21967SOL    HW269944   9.237   6.488   5.584  1.1101  0.7823 -0.3960
21968SOL     OW69945   2.650   4.810   5.781  0.0375  0.2481  0.4272
21968SOL    HW169946   2.612   4.831   5.866 -0.3722 -1.8459  0.8262
21968SOL    HW269947   2.602   4.732   5.752  3.1420 -1.8605  0.4368
21969SOL     OW69948  10.241   5.101   2.991  0.1999 -0.1460 -0.5665
21969SOL    HW169949  10.325   5.079   2.951  0.7378  2.3404 -1.0132
21969SOL    HW269950  10.252   5.192   3.021 -2.6946  0.7495 -1.7971
21970SOL     OW69951   5.678   9.854   6.262 -0.1203  0.4741 -0.0973
21970SOL    HW169952   5.614   9.866   6.332  1.0589 -0.0488  1.1041
21970SOL    HW269953   5.642   9.783   6.209 -1.1976  1.1140 -0.2598
21971SOL     OW69954   6.880   8.886   2.146  0.3148  0.3698 -0.2407
21971SOL    HW169955   6.904   8.923   2.061 -0.2582  0.6959 -0.2652
21971SOL    HW269956   6.961   8.849   2.180  0.1089 -1.9076 -1.9839
21972SOL     OW69957   2.120   0.600   0.430  0.5681  0.1485  0.0247
21972SOL    HW169958   2.168   0.542   0.488 -1.0347  1.7089  3.1653
21972SOL    HW269959   2.129   0.560   0.344  4.5662 -1.3880  0.9224
21973SOL     OW69960   2.403   0.971   8.839 -0.3661 -0.3261  0.0062
21973SOL    HW169961   2.392   1.062   8.866  0.8032  0.6433 -2.5064
21973SOL    HW269962   2.315   0.940   8.822 -0.6291  1.3984 -2.1697
21974SOL     OW69963   9.549   1.034   6.160 -0.3410  0.2865 -0.3576
21974SOL    HW169964   9.625   1.055   6.107  0.4626  0.1772  0.7115
21974SOL    HW269965   9.583   1.030   6.250 -1.4829 -0.4032  0.0614
21975SOL     OW69966   3.758   6.318   9.706  0.5156  0.3221  0.0591
21975SOL    HW169967   3.706   6.238   9.701  1.6413 -0.3852 -0.7446
21975SOL    HW269968   3.708   6.376   9.764 -1.1647 -0.3050 -0.6999
21976SOL     OW69969   6.129   0.165   2.181 -0.4276  0.1569 -0.2339
21976SOL    HW169970   6.062   0.098   2.167  0.1760 -0.2299 -1.4451
21976SOL    HW269971   6.178   0.167   2.098 -0.0207  1.6312  0.0137
21977SOL     OW69972   7.920   2.016   3.018 -0.2846  0.5638 -1.1663
21977SOL    HW169973   7.901   2.110   3.013  0.0461  0.7860  0.9709
21977SOL    HW269974   7.852   1.980   3.074  0.5086 -0.1640 -0.6297
21978SOL     OW69975   2.182   2.191   3.959 -0.5274  0.8114 -0.2063
21978SOL    HW169976   2.125   2.123   3.994 -0.5363  0.4471 -0.9055
21978SOL    HW269977   2.233   2.147   3.891  0.4022  1.1897  0.2251
21979SOL     OW69978   3.622   1.869   3.396 -0.5712  0.3689  0.0914
21979SOL    HW169979   3.655   1.807   3.460  2.8999 -0.2620 -2.0328
21979SOL    HW269980   3.658   1.953   3.423 -1.3917  0.6174  0.4317
21980SOL     OW69981   1.630   0.963   9.031 -0.6824  0.2218  0.2157
21980SOL    HW169982   1.674   0.885   8.996 -0.5584  0.2908  0.2178
21980SOL    HW269983   1.598   0.935   9.117  1.5241  0.8817  1.3340
21981SOL     OW69984   8.607   5.542   4.144 -0.5750 -0.1784 -0.4614
21981SOL    HW169985   8.666   5.489   4.091  1.2104  1.2363 -0.0032
21981SOL    HW269986   8.580   5.613   4.087 -0.3164  0.2009 -0.1210
21982SOL     OW69987   3.429   1.601   8.912 -0.3595  0.0540 -0.0524
21982SOL    HW169988   3.396   1.570   8.997 -0.5734  0.4683  0.0205
21982SOL    HW269989   3.352   1.640   8.870  0.0220  1.0021  0.1037
21983SOL     OW69990   7.222   0.422   4.374 -0.1634  0.2263 -0.4633
21983SOL    HW169991   7.222   0.352   4.309  0.8759  0.6093 -0.8938
21983SOL    HW269992   7.308   0.463   4.365 -1.1379  2.2646 -0.9712
21984SOL     OW69993   7.184   5.444   5.008 -0.1767 -0.2479  0.2414
21984SOL    HW169994   7.232   5.446   5.091 -0.1898 -0.0363  0.2433
21984SOL    HW269995   7.110   5.386   5.024  0.1449 -0.6818  0.2023
21985SOL     OW69996   5.953  10.182   7.196 -0.6313  0.2180  0.0031
21985SOL    HW169997   5.973  10.273   7.171 -3.2417  0.8065 -0.2316
21985SOL    HW269998   5.955  10.182   7.292 -0.0110  0.3681 -0.0090
21986SOL     OW69999   0.563   6.002   7.393 -0.6380 -0.4648 -0.0058
21986SOL    HW170000   0.562   5.939   7.465 -0.5532 -0.6009 -0.1240
21986SOL    HW270001   0.654   6.030   7.386 -0.3034 -1.7236 -1.1655
21987SOL     OW70002   2.407   8.056   1.532  0.0737 -0.5061  0.0741
21987SOL    HW170003   2.465   7.988   1.497  0.9802 -0.2451  1.0066
21987SOL    HW270004   2.319   8.028   1.507  0.5204 -1.4193 -0.5453
21988SOL     OW70005   8.206  10.137   5.860 -0.1947 -0.0366 -0.2041
21988SOL    HW170006   8.200  10.042   5.860  1.5576 -0.2052  1.2424
21988SOL    HW270007   8.225  10.160   5.769 -0.4510 -1.0843 -0.5278
21989SOL     OW70008   9.627   3.495   6.900  0.3813  0.1573  0.1059
21989SOL    HW170009   9.565   3.489   6.828  1.2712  0.3047 -0.6879
21989SOL    HW270010   9.623   3.409   6.942  3.0478 -1.6348 -2.8534
21990SOL     OW70011   0.546   6.759   1.019  0.1625 -0.5175  0.5159
21990SOL    HW170012   0.457   6.728   1.037  0.7687 -1.1964  2.6554
21990SOL    HW270013   0.602   6.683   1.036  1.1193 -0.3799 -1.7187
21991SOL     OW70014   3.461   2.117   7.284 -0.2895 -0.0001  0.1963
21991SOL    HW170015   3.368   2.140   7.284 -0.4459 -0.6258  0.0910
21991SOL    HW270016   3.469   2.048   7.219  0.4003  0.6030 -0.3806
21992SOL     OW70017   4.604   1.130   4.722 -0.1414 -0.1742  0.3914
21992SOL    HW170018   4.617   1.164   4.811 -0.0058  1.0890 -0.0781
21992SOL    HW270019   4.518   1.088   4.724  0.9203 -2.4563  1.7558
21993SOL     OW70020   6.615   6.563   7.810 -0.3099  0.0174 -0.4206
21993SOL    HW170021   6.708   6.582   7.818  0.0453 -1.6993 -0.0947
21993SOL    HW270022   6.572   6.639   7.850  0.9766  0.3001  0.5045
21994SOL     OW70023   2.808  10.008   1.756  0.5667 -0.0229  0.0955
21994SOL    HW170024   2.745   9.936   1.763 -0.1747  0.7263  2.1255
21994SOL    HW270025   2.799  10.040   1.666  0.4500 -2.0194 -0.6451
21995SOL     OW70026  10.031   4.605   1.036  0.7096  0.2219  0.3762
21995SOL    HW170027  10.082   4.686   1.038 -0.9827  1.4197 -1.5039
21995SOL    HW270028   9.998   4.600   0.947 -0.5972 -1.7078  0.9116
21996SOL     OW70029   0.165   3.197   1.507 -0.4153 -0.7337 -0.5284
21996SOL    HW170030   0.139   3.282   1.470  3.2537  1.4352  1.3034
21996SOL    HW270031   0.242   3.172   1.456  0.2925 -1.4739  0.8724
21997SOL     OW70032   7.132   6.712   5.107 -0.1014 -0.2478  0.0410
21997SOL    HW170033   7.108   6.786   5.162  0.3872 -1.9150  2.6704
21997SOL    HW270034   7.053   6.659   5.101  0.0323 -0.4170 -0.3227
21998SOL     OW70035   7.709   6.331   7.111  0.2492  0.0988 -0.0194
21998SOL    HW170036   7.653   6.354   7.037  1.2461 -3.2975 -2.0881
21998SOL    HW270037   7.798   6.345   7.079  0.7203 -2.1081  0.1719
21999SOL     OW70038   3.142   1.749  10.136 -0.1137 -0.2095  0.3741
21999SOL    HW170039   3.169   1.692  10.064 -1.5307 -0.5250  0.0624
21999SOL    HW270040   3.220   1.757  10.190  1.2312  0.7015 -1.5976
22000SOL     OW70041   1.826   7.221   7.264 -0.0708  0.0887  0.1263
22000SOL    HW170042   1.900   7.174   7.305  0.8683  0.8467 -0.6603
22000SOL    HW270043   1.862   7.255   7.182 -1.0587  1.2073  0.1381
22001SOL     OW70044   7.665   0.865   4.988 -0.4463 -0.9867  0.0142
22001SOL    HW170045   7.626   0.888   5.073 -1.0103 -2.3559  0.1536
22001SOL    HW270046   7.597   0.813   4.944 -0.4288  0.2686 -1.5872
22002SOL     OW70047   9.824   7.963   7.196  0.1728 -0.2628 -0.3073
22002SOL    HW170048   9.848   7.922   7.113 -1.0781  0.0594 -0.8569
22002SOL    HW270049   9.900   8.017   7.218  0.8711 -1.0074 -0.7900
22003SOL     OW70050   8.773   6.719   2.673 -0.0526  0.5138  0.0355
22003SOL    HW170051   8.856   6.682   2.702 -0.3167  0.1823  0.3758
22003SOL    HW270052   8.787   6.739   2.581  0.2225 -0.0597 -0.0504
22004SOL     OW70053   1.209   4.194   2.435  0.0104 -0.1934 -0.2086
22004SOL    HW170054   1.132   4.185   2.490  0.5228 -0.7240  0.4513
22004SOL    HW270055   1.261   4.115   2.454  1.1236  0.5790  0.0329
22005SOL     OW70056   9.602   1.366   6.280 -0.5554  0.1379  0.7970
22005SOL    HW170057   9.559   1.356   6.366 -0.1690  0.0440  0.9791
22005SOL    HW270058   9.693   1.342   6.296 -0.6239 -0.5457  0.2092
22006SOL     OW70059   3.691  10.292   2.332  0.5761 -0.0871  0.4546
22006SOL    HW170060   3.756  10.243   2.382  0.2503 -0.1002  0.8733
22006SOL    HW270061   3.680  10.243   2.251  0.6090 -0.4444  0.6653
22007SOL     OW70062   7.822   2.059   8.080  0.0662  0.1515 -0.2475
22007SOL    HW170063   7.761   1.988   8.061 -0.4556  0.5378 -0.0333
22007SOL    HW270064   7.901   2.038   8.030  0.6514 -1.6080  1.2977
22008SOL     OW70065   4.300   2.080   1.346 -0.0847 -0.0632 -0.0901
22008SOL    HW170066   4.217   2.090   1.392  0.4979  1.6646  0.6554
22008SOL    HW270067   4.331   1.993   1.372  0.3027  0.8797  3.0129
22009SOL     OW70068   0.638   1.530   4.837 -0.1912 -0.0728  0.1241
22009SOL    HW170069   0.544   1.540   4.849  0.0242  1.7273  0.7179
22009SOL    HW270070   0.666   1.613   4.797  1.3787  0.1816  1.6233
22010SOL     OW70071   8.619   6.091   5.843 -0.6027 -0.1047  0.7043
22010SOL    HW170072   8.653   6.082   5.932  0.0805 -0.5705  0.4064
22010SOL    HW270073   8.632   6.005   5.803 -3.1017 -0.6257  0.8856
22011SOL     OW70074   7.611   8.187   8.060 -0.3160 -0.2240 -0.1650
22011SOL    HW170075   7.696   8.148   8.045  0.4505  0.7516  1.3414
22011SOL    HW270076   7.560   8.119   8.105 -0.3101 -0.7688 -0.9742
22012SOL     OW70077   6.008   2.110   3.825  0.3794  0.4293 -0.6378
22012SOL    HW170078   6.090   2.110   3.775  0.8410  1.9922  0.0753
22012SOL    HW270079   6.026   2.053   3.899  0.7163  0.4994 -0.6615
22013SOL     OW70080   4.329   9.123   0.095  0.0284  0.1094  0.0283
22013SOL    HW170081   4.270   9.100   0.167 -0.1630 -0.8973 -0.4275
22013SOL    HW270082   4.396   9.055   0.097  0.0449  0.0946 -0.7037
22014SOL     OW70083   8.472  10.283   0.808 -0.2920  0.4717  0.2749
22014SOL    HW170084   8.538  10.243   0.863 -0.7180 -2.4669 -1.1820
22014SOL    HW270085   8.444  10.361   0.857  1.2547 -0.4766  2.8545
22015SOL     OW70086   6.173   8.345   5.033  0.1991  0.0209 -0.4660
22015SOL    HW170087   6.161   8.250   5.040  0.6656 -0.0615 -0.7294
22015SOL    HW270088   6.113   8.372   4.964  0.4519 -0.1649 -0.7620
22016SOL     OW70089   1.150   1.827  10.038  0.3997  0.3265 -0.0823
22016SOL    HW170090   1.219   1.821  10.104 -1.2180 -0.7291  1.6204
22016SOL    HW270091   1.190   1.793   9.958  2.0266  0.3725  0.6673
22017SOL     OW70092   0.211   0.615   2.791 -0.5378 -0.0872 -0.0114
22017SOL    HW170093   0.136   0.572   2.831 -0.5563 -1.0179 -1.0093
22017SOL    HW270094   0.277   0.546   2.782 -0.1694  0.3355 -0.6592
22018SOL     OW70095   9.776   9.614   9.849 -0.5572  0.0850 -0.4756
22018SOL    HW170096   9.833   9.545   9.880  0.9675  0.4256 -2.3177
22018SOL    HW270097   9.781   9.682   9.916  2.5254  0.7595 -1.2385
22019SOL     OW70098   4.455   2.256   5.543 -0.0949 -0.6629 -0.3546
22019SOL    HW170099   4.530   2.256   5.603 -0.1341  0.6076 -0.2831
22019SOL    HW270100   4.380   2.275   5.598 -0.5568 -2.2398 -0.3758
22020SOL     OW70101   2.655   5.455   0.567 -0.1483 -0.1038 -0.2363
22020SOL    HW170102   2.572   5.504   0.569  0.7797  1.6039 -1.3398
22020SOL    HW270103   2.700   5.488   0.490  2.0895 -0.1259  0.9991
22021SOL     OW70104   9.646   4.150   7.415  0.3209  0.1804 -0.2352
22021SOL    HW170105   9.738   4.123   7.425  0.6618  1.5117  0.4035
22021SOL    HW270106   9.648   4.215   7.345 -0.2405 -0.2090 -0.6180
22022SOL     OW70107   4.696   8.297   5.096 -0.2684 -0.4399 -0.2134
22022SOL    HW170108   4.776   8.343   5.123  0.5306 -3.5639  3.8221
22022SOL    HW270109   4.724   8.242   5.023  0.1347  1.4137 -1.5034
22023SOL     OW70110   3.872   8.387   9.653 -0.3771  0.3884 -0.2427
22023SOL    HW170111   3.784   8.418   9.630 -0.6284 -0.7037 -0.7764
22023SOL    HW270112   3.859   8.297   9.682  0.5998  0.1588 -0.5133
22024SOL     OW70113   5.853   5.483   0.608  0.5107  0.1635 -0.4681
22024SOL    HW170114   5.920   5.462   0.673  0.9322 -0.0958 -0.9773
22024SOL    HW270115   5.868   5.421   0.537 -0.1964  0.1851 -0.6413
22025SOL     OW70116   1.264   7.458   8.314 -0.4373  0.1176  0.1278
22025SOL    HW170117   1.214   7.389   8.270 -0.1982  0.3184 -0.4777
22025SOL    HW270118   1.206   7.534   8.311 -1.1161 -0.3046  1.7051
22026SOL     OW70119   4.739   2.171   9.517  0.5956  0.0268 -0.0248
22026SOL    HW170120   4.701   2.088   9.548 -0.8295  0.1244 -1.4158
22026SOL    HW270121   4.815   2.145   9.466  1.1778 -0.3031  0.9794
22027SOL     OW70122   8.272   0.317   2.128  0.0299 -0.3740  0.4941
22027SOL    HW170123   8.326   0.241   2.107  0.7357  0.3105 -0.2505
22027SOL    HW270124   8.316   0.358   2.203  0.2583 -0.1065  0.2164
22028SOL     OW70125   8.661   4.938   9.262  0.8565  0.1549 -0.2071
22028SOL    HW170126   8.743   4.933   9.311  0.3697 -1.3750  0.5152
22028SOL    HW270127   8.668   5.020   9.212  1.8530  1.1775  1.5213
22029SOL     OW70128   7.480   5.058   1.419 -0.2649 -0.4459  0.6187
22029SOL    HW170129   7.430   4.976   1.428 -0.6112 -0.3265 -0.0812
22029SOL    HW270130   7.469   5.082   1.326 -1.8346  1.4414  1.2198
22030SOL     OW70131   7.565   8.975   2.652 -0.0662 -0.3561 -0.3844
22030SOL    HW170132   7.573   8.895   2.600  1.1305  0.0008 -0.7755
22030SOL    HW270133   7.563   8.945   2.743  0.5436 -0.8187 -0.5205
22031SOL     OW70134   7.469   1.427   4.373 -0.3303 -0.0595 -0.2177
22031SOL    HW170135   7.391   1.385   4.335 -0.8294 -0.3559  1.0669
22031SOL    HW270136   7.542   1.374   4.342 -0.8775 -1.4124  0.6590
22032SOL     OW70137   5.919   4.203   3.709 -0.3021  0.5617 -0.4420
22032SOL    HW170138   5.893   4.111   3.696  0.8739  0.4535 -2.4048
22032SOL    HW270139   5.981   4.221   3.638  1.3434  2.1945  1.2991
22033SOL     OW70140   2.238   1.129   6.016  0.5098 -0.3868  0.4046
22033SOL    HW170141   2.194   1.058   6.061 -0.6641 -0.2847 -0.5419
22033SOL    HW270142   2.227   1.205   6.074  0.3298 -0.5941  0.6448
22034SOL     OW70143  10.121   3.924   1.633  0.0945  0.6618  0.3566
22034SOL    HW170144  10.114   4.019   1.621 -0.9926  0.3176 -3.1777
22034SOL    HW270145  10.215   3.906   1.636  0.4158  1.7149 -1.6734
22035SOL     OW70146   9.939   5.928   8.098 -0.0231  0.3095 -0.7139
22035SOL    HW170147   9.885   5.982   8.155 -1.3335 -0.9172 -0.7245
22035SOL    HW270148   9.994   5.878   8.157  0.2562  0.7014 -0.6408
22036SOL     OW70149   2.190   3.985   0.828 -0.1485 -0.2995  0.1792
22036SOL    HW170150   2.139   3.924   0.774 -0.3568 -1.2855  1.4343
22036SOL    HW270151   2.191   3.944   0.914  2.3364 -0.0196  0.3282
22037SOL     OW70152   9.408   5.869   8.747 -0.1415 -0.1521  0.0088
22037SOL    HW170153   9.349   5.944   8.742 -0.4354 -0.4143 -0.4555
22037SOL    HW270154   9.352   5.795   8.768  0.0651 -0.3499 -0.1285
22038SOL     OW70155   8.154   7.592   1.987 -0.3800 -0.2633  0.1291
22038SOL    HW170156   8.061   7.612   2.002 -0.5702 -1.5007  0.7275
22038SOL    HW270157   8.153   7.527   1.917 -0.0226 -0.9791  0.7871
22039SOL     OW70158   1.103   4.037   7.421  0.1478 -0.3545  0.3801
22039SOL    HW170159   1.186   4.083   7.418  0.3162 -0.6111  0.8836
22039SOL    HW270160   1.054   4.068   7.345  0.8778 -0.5289 -0.1688
22040SOL     OW70161   9.359   8.237   7.426 -0.5140  0.1345 -0.2495
22040SOL    HW170162   9.349   8.189   7.508 -0.8716 -0.1513 -0.4608
22040SOL    HW270163   9.410   8.314   7.450 -1.0480  0.3163  0.3497
22041SOL     OW70164   9.237   8.495   8.247 -0.1847 -0.3372 -0.4105
22041SOL    HW170165   9.215   8.457   8.161 -1.7465 -2.0915  0.6758
22041SOL    HW270166   9.163   8.471   8.303  1.0578  0.2566  1.5851
22042SOL     OW70167   5.016   0.286   5.945 -0.7543 -0.9100 -0.2958
22042SOL    HW170168   4.995   0.328   5.861 -0.2468  0.5215  0.2594
22042SOL    HW270169   4.931   0.260   5.981 -1.2969  1.1616  0.0746
22043SOL     OW70170   9.514   9.519   8.550  0.1211  0.0610  0.1344
22043SOL    HW170171   9.540   9.609   8.569  1.2992  0.1657 -1.7574
22043SOL    HW270172   9.561   9.497   8.469 -1.6809 -1.5751 -0.5305
22044SOL     OW70173   8.884   8.012   2.559  0.4332  0.6051  0.8396
22044SOL    HW170174   8.835   7.931   2.544  1.7274  0.1379 -1.4000
22044SOL    HW270175   8.974   7.984   2.571  0.9554  1.7016 -0.2624
22045SOL     OW70176   3.771   2.084   6.103  0.2832 -0.1114  0.4373
22045SOL    HW170177   3.788   2.106   6.195  0.5626  0.1689  0.3185
22045SOL    HW270178   3.857   2.085   6.062  0.0483  0.7553 -0.0457
22046SOL     OW70179   4.494   6.768   8.727 -0.5423  0.6573  0.4460
22046SOL    HW170180   4.548   6.803   8.656  0.7465 -1.8316  0.0833
22046SOL    HW270181   4.410   6.747   8.685  0.0341 -0.3153 -0.2677
22047SOL     OW70182   5.125   8.747   3.882  0.7267  0.3969  0.2241
22047SOL    HW170183   5.099   8.753   3.974  0.0547 -0.6108  0.1145
22047SOL    HW270184   5.204   8.801   3.876  1.1079  0.0195  1.5193
22048SOL     OW70185   8.426   9.053   8.811 -0.2148  0.6220 -0.2421
22048SOL    HW170186   8.449   9.146   8.807  2.3629  0.0415 -0.6843
22048SOL    HW270187   8.508   9.009   8.832 -1.5414 -1.5193  0.7749
22049SOL     OW70188   7.594   8.562   3.189  0.2789  0.7376  0.5888
22049SOL    HW170189   7.594   8.644   3.140 -0.4214  1.7219  2.1217
22049SOL    HW270190   7.501   8.544   3.205  0.4867  0.7810  2.0055
22050SOL     OW70191   2.861   2.192   5.218 -0.0518  0.3115 -0.4189
22050SOL    HW170192   2.874   2.193   5.123  0.6525  2.9944 -0.3754
22050SOL    HW270193   2.950   2.184   5.253 -0.3923 -1.9540  0.1031
22051SOL     OW70194   6.369   6.243   9.434 -0.1733 -0.8056  0.0611
22051SOL    HW170195   6.411   6.316   9.389  0.8278  0.6166  3.0429
22051SOL    HW270196   6.421   6.166   9.411  2.7487  0.5121  1.7424
22052SOL     OW70197   7.830   1.621   3.704 -0.2297  0.1003 -0.0384
22052SOL    HW170198   7.814   1.531   3.731 -1.8277  0.1870 -0.5890
22052SOL    HW270199   7.883   1.613   3.625 -0.3958 -0.3616 -0.1074
22053SOL     OW70200   4.950   8.695   4.441 -0.1259 -0.5701 -0.3826
22053SOL    HW170201   4.936   8.784   4.474 -2.6071 -1.3944  1.0517
22053SOL    HW270202   5.036   8.670   4.477 -0.5490  0.3516  1.3682
22054SOL     OW70203   8.277   3.864   3.760  0.2546 -0.3651 -0.3075
22054SOL    HW170204   8.332   3.801   3.713  2.6415  0.2798  1.3976
22054SOL    HW270205   8.276   3.832   3.850 -4.0052 -1.4615 -0.5181
22055SOL     OW70206   4.346   2.911   6.722 -0.7548  0.3598  0.4905
22055SOL    HW170207   4.419   2.900   6.662  0.0959  1.7334  1.2090
22055SOL    HW270208   4.310   2.997   6.701 -2.2631 -0.3373  0.0788
22056SOL     OW70209   9.945   6.165   4.897  0.1318 -0.2179  0.1440
22056SOL    HW170210   9.910   6.253   4.905  0.8762 -0.0296  1.6912
22056SOL    HW270211   9.890   6.112   4.956  0.1164 -0.6491 -0.2538
22057SOL     OW70212   2.048   7.810   7.115  0.3262  0.1538 -0.0141
22057SOL    HW170213   2.072   7.722   7.084 -2.5200 -0.3023 -1.1922
22057SOL    HW270214   2.000   7.795   7.196  0.8677  0.7622  0.4333
22058SOL     OW70215   9.515   5.651   0.883 -0.1164 -0.1986  0.1483
22058SOL    HW170216   9.533   5.744   0.894  0.8511 -0.3801  0.2121
22058SOL    HW270217   9.602   5.610   0.882 -0.5560 -1.1940  1.0179
22059SOL     OW70218   2.399   1.939   9.045  0.3116 -0.0816  0.6214
22059SOL    HW170219   2.303   1.941   9.041  0.2275 -0.1174  2.1553
22059SOL    HW270220   2.421   1.989   9.124  1.4331 -1.9151  1.5444
22060SOL     OW70221   1.615   8.744   5.600  0.2000  0.1658 -0.1977
22060SOL    HW170222   1.569   8.787   5.673  0.8134 -0.1351  0.3792
22060SOL    HW270223   1.546   8.697   5.553  0.0227 -1.0101  1.1704
22061SOL     OW70224   9.121   0.263   4.836 -0.2141 -0.2131 -0.2849
22061SOL    HW170225   9.038   0.275   4.789 -1.0314 -1.2535  0.7962
22061SOL    HW270226   9.187   0.254   4.768 -0.8879  1.2632 -1.1660
22062SOL     OW70227   2.243   5.339   5.328 -0.3177 -0.6540 -0.0727
22062SOL    HW170228   2.281   5.427   5.320 -0.0978 -0.7280  0.1445
22062SOL    HW270229   2.148   5.355   5.330 -0.2792 -0.1416  2.6725
22063SOL     OW70230   3.596   2.657   1.668  0.1407  0.4831 -0.2217
22063SOL    HW170231   3.600   2.566   1.697 -0.4638  0.6596  0.4398
22063SOL    HW270232   3.644   2.706   1.735 -1.7313  0.9639  0.8158
22064SOL     OW70233   0.326   9.537   8.181 -0.0100 -0.1046  0.4833
22064SOL    HW170234   0.356   9.583   8.103 -0.7476 -1.7835 -0.8526
22064SOL    HW270235   0.343   9.598   8.253 -0.0091  1.8175 -1.0611
22065SOL     OW70236   9.260   3.190   5.536  0.7050 -0.2218 -0.3020
22065SOL    HW170237   9.308   3.115   5.571  0.5669 -0.3511 -0.3833
22065SOL    HW270238   9.207   3.221   5.610 -0.9818 -1.6248 -0.8316
22066SOL     OW70239   0.186   2.498   2.364  0.4107 -0.3853 -0.1564
22066SOL    HW170240   0.116   2.517   2.301 -0.4852 -0.8390  0.6790
22066SOL    HW270241   0.140   2.471   2.444  1.5381 -0.3832  0.5137
22067SOL     OW70242   0.342   4.763   5.266  0.2473 -0.0555 -0.0488
22067SOL    HW170243   0.329   4.853   5.298 -2.0884  0.3157 -1.7850
22067SOL    HW270244   0.416   4.730   5.317 -0.8582  1.7237  2.9760
22068SOL     OW70245   5.850   4.282   9.682  0.4799  0.0361 -0.3083
22068SOL    HW170246   5.923   4.223   9.700 -0.0902 -0.3501  0.8543
22068SOL    HW270247   5.845   4.339   9.759 -0.1613  0.3452 -0.5668
22069SOL     OW70248   5.151   1.685   1.276 -0.2361  0.1398  0.0458
22069SOL    HW170249   5.146   1.724   1.188 -0.9018 -2.2033 -1.0205
22069SOL    HW270250   5.099   1.605   1.270  0.4314 -0.5385  2.3531
22070SOL     OW70251   7.288   9.191   7.027  0.1607 -0.0861  0.2879
22070SOL    HW170252   7.252   9.273   6.992  0.8810  0.4995  0.8949
22070SOL    HW270253   7.211   9.143   7.057 -0.3902 -0.1853 -1.1742
22071SOL     OW70254   2.088   5.239   8.508 -0.3104 -0.1968 -0.1819
22071SOL    HW170255   2.074   5.217   8.600  1.3556  0.5852  0.2849
22071SOL    HW270256   2.061   5.160   8.460 -1.5453 -0.4829  0.9196
22072SOL     OW70257   1.792   9.210   7.204  0.0424  0.3690 -0.2697
22072SOL    HW170258   1.821   9.254   7.283  1.9884 -0.4484 -0.4745
22072SOL    HW270259   1.826   9.121   7.212 -1.2667 -0.2612 -1.2110
22073SOL     OW70260   4.540   2.394   4.900 -0.1415 -0.5362  0.6274
22073SOL    HW170261   4.482   2.360   4.968  0.2214  0.9853  1.7581
22073SOL    HW270262   4.628   2.367   4.928 -0.0743 -0.6578  0.2950
22074SOL     OW70263   5.663   9.006   5.046 -0.3580 -0.2048  0.2924
22074SOL    HW170264   5.689   9.098   5.046 -0.4607 -0.1521 -1.1854
22074SOL    HW270265   5.723   8.965   5.109  1.4581  0.4204 -0.9362
22075SOL     OW70266   3.792   5.573   8.870 -0.1177  0.2641 -0.3509
22075SOL    HW170267   3.881   5.607   8.881 -0.0339 -0.1225  0.2518
22075SOL    HW270268   3.767   5.597   8.781  0.2441  1.1813 -0.2134
22076SOL     OW70269   6.020   1.386   0.673  0.1816  1.2114  0.4996
22076SOL    HW170270   6.106   1.383   0.632  0.1134  0.5224  0.3912
22076SOL    HW270271   6.016   1.307   0.727 -0.8985  0.4605 -0.6004
22077SOL     OW70272   0.366   9.630   3.223 -0.6901  0.0738 -0.1898
22077SOL    HW170273   0.352   9.696   3.155 -2.0092 -0.2076 -0.2140
22077SOL    HW270274   0.320   9.665   3.299 -0.6282 -0.3992  0.0628
22078SOL     OW70275   8.365   5.461   2.888 -0.0054 -0.1216 -0.0286
22078SOL    HW170276   8.369   5.391   2.953  0.7003  0.1872  0.2722
22078SOL    HW270277   8.371   5.416   2.804  4.3973 -0.3002  0.1484
22079SOL     OW70278   1.177   0.837   5.260 -0.3331  0.2333 -0.4100
22079SOL    HW170279   1.269   0.814   5.250 -0.3782  0.6816 -2.1131
22079SOL    HW270280   1.174   0.933   5.250 -0.8545  0.3682  0.8080
22080SOL     OW70281   9.634   7.880   9.175  0.2143  0.8086  0.0506
22080SOL    HW170282   9.640   7.960   9.123 -2.4455  0.9192 -0.2050
22080SOL    HW270283   9.681   7.814   9.124 -1.4248  1.1676 -2.0607
22081SOL     OW70284   3.158   1.925   6.375  0.5337 -0.4023  0.7543
22081SOL    HW170285   3.083   1.894   6.324  0.7320  0.9001 -0.3872
22081SOL    HW270286   3.233   1.915   6.317  0.5316  2.6325  0.0452
22082SOL     OW70287   1.264   3.395   9.453  0.1971  0.1443 -0.2308
22082SOL    HW170288   1.338   3.371   9.397 -0.0418 -2.2641  0.3631
22082SOL    HW270289   1.187   3.360   9.408 -0.1283 -0.7400  0.9592
22083SOL     OW70290   6.103   7.990   5.811  0.2316 -0.1044  0.0757
22083SOL    HW170291   6.198   7.981   5.805  0.2612  0.6607 -0.7668
22083SOL    HW270292   6.079   8.045   5.737 -0.4949  2.4252  2.0575
22084SOL     OW70293   6.303   4.391   4.912  0.5595 -0.4969  0.0913
22084SOL    HW170294   6.371   4.344   4.864  0.6551  0.0384 -0.3126
22084SOL    HW270295   6.230   4.398   4.850 -0.6889 -2.8522  1.1729
22085SOL     OW70296   6.394   0.387   3.970  0.0449 -0.5900 -0.1147
22085SOL    HW170297   6.482   0.352   3.956  0.2882 -0.7709  1.6408
22085SOL    HW270298   6.338   0.309   3.974  0.3151 -0.7232  1.9662
22086SOL     OW70299   9.043   1.066   6.382 -0.1284 -0.1239  0.1263
22086SOL    HW170300   8.985   1.062   6.458 -0.3183 -1.0686 -0.0617
22086SOL    HW270301   9.122   1.109   6.415  0.4151 -1.9031  1.3033
22087SOL     OW70302   4.511   0.278   3.043 -0.1093 -0.0683  0.1752
22087SOL    HW170303   4.528   0.217   3.114 -1.5921  1.2036  1.7047
22087SOL    HW270304   4.451   0.230   2.985  0.0428 -0.6468  0.4873
22088SOL     OW70305   7.446   6.034   6.995  0.2398  0.1410  0.0484
22088SOL    HW170306   7.518   6.002   7.048  0.2431  1.2747  0.7667
22088SOL    HW270307   7.483   6.047   6.908  0.3956 -1.1137 -0.0919
22089SOL     OW70308   2.216   4.767   3.819  0.7334  0.4516  0.2125
22089SOL    HW170309   2.262   4.726   3.745 -1.0030 -1.0338 -0.1218
22089SOL    HW270310   2.237   4.860   3.812  0.7200  0.3373 -2.0938
22090SOL     OW70311   4.881   4.510   5.136  0.0611  0.3340 -0.8585
22090SOL    HW170312   4.971   4.478   5.146  0.1623  0.3631 -1.5801
22090SOL    HW270313   4.884   4.599   5.169  0.0658  0.0130  0.0276
22091SOL     OW70314   6.541   0.367   6.779  0.0418 -0.0340  0.1672
22091SOL    HW170315   6.560   0.408   6.863 -1.7333 -0.0504  0.6166
22091SOL    HW270316   6.582   0.281   6.784 -1.8145 -0.8870  1.9143
22092SOL     OW70317   8.881   7.965   1.556  0.1726 -0.0363 -0.0005
22092SOL    HW170318   8.822   7.903   1.599 -0.4369 -0.1844 -1.0187
22092SOL    HW270319   8.957   7.911   1.532 -0.0027 -0.2187 -0.1568
22093SOL     OW70320   2.798   6.568   2.165 -0.2789  0.3199 -0.3849
22093SOL    HW170321   2.858   6.640   2.185  0.6798 -0.6253  0.2131
22093SOL    HW270322   2.804   6.510   2.241 -0.9545 -0.4551 -0.9108
22094SOL     OW70323  10.035   9.651   5.245 -0.4649  0.1979  0.4095
22094SOL    HW170324   9.952   9.626   5.206  0.0790  0.1005 -0.6970
22094SOL    HW270325  10.080   9.701   5.177  0.6742 -0.3274  0.7503
22095SOL     OW70326   4.879   4.456   4.762  0.7783 -0.4070  0.3188
22095SOL    HW170327   4.785   4.462   4.777  0.5979 -0.4398 -0.7130
22095SOL    HW270328   4.904   4.371   4.798  0.4503 -0.3305  0.7358
22096SOL     OW70329   8.992   1.404   9.492 -0.4287  0.3657 -0.4953
22096SOL    HW170330   8.948   1.319   9.489  0.9846 -0.4560  0.4592
22096SOL    HW270331   9.046   1.406   9.414 -0.7927  0.5938 -0.7451
22097SOL     OW70332  10.141   8.416   1.460 -0.0421  0.3493  0.7981
22097SOL    HW170333  10.057   8.454   1.432  0.8410  1.3330 -0.6887
22097SOL    HW270334  10.131   8.402   1.554 -2.4613 -1.1504  0.4268
22098SOL     OW70335   6.913   9.755   0.789 -0.2740 -1.0577 -0.0927
22098SOL    HW170336   6.935   9.681   0.845 -1.2262 -0.7967  0.6428
22098SOL    HW270337   6.818   9.750   0.777 -0.1563 -0.8402 -1.3089
22099SOL     OW70338   7.125   6.550   0.555 -0.8643  0.2990 -0.2759
22099SOL    HW170339   7.158   6.478   0.608 -0.8320  1.6040  1.5411
22099SOL    HW270340   7.038   6.522   0.527 -0.4592 -0.8318 -0.4394
22100SOL     OW70341   9.833   9.218  10.231  0.0287 -0.6709 -0.6769
22100SOL    HW170342   9.766   9.234  10.297 -0.6863 -0.2717 -1.4736
22100SOL    HW270343   9.908   9.270  10.259 -0.3791 -0.2499 -0.3568
22101SOL     OW70344   8.989   1.692   2.904  0.1568  0.2950  0.1722
22101SOL    HW170345   9.013   1.777   2.939 -2.2748  2.0264 -1.9837
22101SOL    HW270346   9.043   1.683   2.825  1.0274 -0.6315  0.8421
22102SOL     OW70347   5.531   1.302  10.209 -0.1695 -0.6320 -0.1407
22102SOL    HW170348   5.574   1.260  10.134 -0.2605 -0.0753 -0.5135
22102SOL    HW270349   5.595   1.366  10.240 -0.8273  0.4263 -0.8967
22103SOL     OW70350   0.220   2.816   6.881 -0.1645 -0.1722 -0.7955
22103SOL    HW170351   0.133   2.787   6.854 -0.9276  2.1590 -1.0497
22103SOL    HW270352   0.222   2.800   6.975 -0.6466 -0.7449 -0.8755
22104SOL     OW70353   4.435   6.145   8.820  0.1617 -0.5575 -0.3115
22104SOL    HW170354   4.396   6.225   8.856  1.2400 -0.3468  0.4424
22104SOL    HW270355   4.467   6.098   8.897  2.9914  0.1343 -0.9393
22105SOL     OW70356   9.224   8.791   5.931 -0.0469  0.0370 -0.3053
22105SOL    HW170357   9.287   8.750   5.872 -0.6023 -2.0262  0.4432
22105SOL    HW270358   9.194   8.868   5.884 -0.0982 -1.2475 -2.5374
22106SOL     OW70359   0.403   1.667   0.803  0.4052 -0.6512 -0.2621
22106SOL    HW170360   0.390   1.762   0.803  0.2141 -0.6603 -1.6854
22106SOL    HW270361   0.466   1.651   0.733  1.4824 -1.4733  0.8363
22107SOL     OW70362   6.388   6.201   1.402  0.5041 -0.3690  0.0290
22107SOL    HW170363   6.362   6.136   1.336  0.8204 -0.2316 -0.2311
22107SOL    HW270364   6.309   6.254   1.415  1.4977  2.3121 -3.3362
22108SOL     OW70365   3.183   6.668   4.881  0.4339 -0.2585  0.9455
22108SOL    HW170366   3.126   6.601   4.917  0.4979  0.1342  1.7948
22108SOL    HW270367   3.139   6.751   4.901  0.3030 -0.0403 -0.1843
22109SOL     OW70368   4.214   7.459   7.261 -0.3156 -0.2661 -0.2472
22109SOL    HW170369   4.176   7.513   7.330  0.2216  1.0890 -0.9583
22109SOL    HW270370   4.150   7.462   7.189 -0.0525 -0.1509 -0.4794
22110SOL     OW70371   2.342   6.377   3.773  0.7566  0.1345 -0.2842
22110SOL    HW170372   2.278   6.393   3.703  1.8769 -1.7334 -1.8682
22110SOL    HW270373   2.426   6.368   3.727  1.4266 -1.8989  1.1627
22111SOL     OW70374   3.381   8.830   2.444 -0.3644  0.2331  0.7546
22111SOL    HW170375   3.403   8.782   2.365  0.0875  1.5786  0.0319
22111SOL    HW270376   3.337   8.766   2.500 -0.4319 -0.8104 -0.4559
22112SOL     OW70377   0.913   9.340   2.497 -0.6223 -0.0752  0.6863
22112SOL    HW170378   1.006   9.319   2.486 -0.7969  0.2538 -2.0247
22112SOL    HW270379   0.908   9.383   2.582  1.2391 -2.4712  2.1650
22113SOL     OW70380   8.066   6.625   4.448  0.1096 -0.0797  0.6350
22113SOL    HW170381   8.103   6.646   4.362 -1.0840 -1.0389 -0.1441
22113SOL    HW270382   8.134   6.572   4.491  1.2079  1.3817  0.7932
22114SOL     OW70383   6.209   4.461   2.299  0.1276 -0.6526 -0.5926
22114SOL    HW170384   6.162   4.398   2.244 -0.7457 -1.3998  0.9375
22114SOL    HW270385   6.299   4.428   2.302 -0.0752 -1.2232 -0.6737
22115SOL     OW70386   8.138   0.530   0.202 -0.1470 -0.0594  0.2419
22115SOL    HW170387   8.155   0.441   0.232  1.0928 -0.0251 -0.2974
22115SOL    HW270388   8.219   0.556   0.158 -0.2256  1.5755  0.9832
22116SOL     OW70389   6.817   5.897   6.254 -0.6006  0.3611  0.4532
22116SOL    HW170390   6.873   5.969   6.283 -1.7181  1.2146  0.5852
22116SOL    HW270391   6.766   5.873   6.332  1.1915 -2.0130  0.9863
22117SOL     OW70392   4.555   6.096   6.891  0.0706 -0.2726 -0.2996
22117SOL    HW170393   4.610   6.018   6.884 -0.3017 -0.5264 -0.4674
22117SOL    HW270394   4.470   6.068   6.858 -1.0348 -0.7511  2.6509
22118SOL     OW70395   9.879   1.772   5.497  0.1028  0.0925  0.6856
22118SOL    HW170396   9.929   1.715   5.439  0.0381  1.5740 -0.8949
22118SOL    HW270397   9.901   1.861   5.469 -0.5191  0.8551  2.4522
22119SOL     OW70398   5.517   0.448   8.719  0.1078 -0.4012  0.0012
22119SOL    HW170399   5.577   0.518   8.693  0.7569 -0.8043  0.3886
22119SOL    HW270400   5.429   0.484   8.703  0.4410  0.3659 -0.1252
22120SOL     OW70401   8.524   8.056   9.219 -0.1454 -0.0820  0.0526
22120SOL    HW170402   8.557   8.145   9.234  0.6647  0.5786 -4.4265
22120SOL    HW270403   8.600   8.000   9.234  0.6740  0.5307 -1.6257
22121SOL     OW70404   9.589   0.179   2.980  0.7341  0.2014  0.0107
22121SOL    HW170405   9.581   0.273   2.996 -1.1909 -0.2331  2.1678
22121SOL    HW270406   9.518   0.140   3.031  1.9884 -2.5062 -0.1326
22122SOL     OW70407   8.146   0.495   9.413 -0.4238 -0.0395  0.0759
22122SOL    HW170408   8.099   0.418   9.381  0.1401  0.4438 -2.0561
22122SOL    HW270409   8.161   0.549   9.336  1.1220  1.1869  1.1442
22123SOL     OW70410   4.110   5.845   7.930 -0.0092  0.2765  0.3317
22123SOL    HW170411   4.081   5.839   7.839  1.6028  0.3802 -0.2166
22123SOL    HW270412   4.034   5.880   7.977 -0.6099  1.0088 -1.1113
22124SOL     OW70413   5.566   2.204   4.307 -0.1923 -0.0464 -0.0423
22124SOL    HW170414   5.501   2.135   4.300 -1.0572  0.7994 -0.6232
22124SOL    HW270415   5.650   2.158   4.310 -0.7503 -1.1140 -0.3383
22125SOL     OW70416   9.633   2.737   0.262  0.2862  0.5160  0.2279
22125SOL    HW170417   9.727   2.719   0.269  0.5313  1.6389  0.0493
22125SOL    HW270418   9.623   2.776   0.176 -0.6264 -1.1177 -0.4331
22126SOL     OW70419   3.357   3.365   6.866  0.2756  0.4004 -0.5376
22126SOL    HW170420   3.322   3.344   6.952  0.3543 -0.0464 -0.6141
22126SOL    HW270421   3.434   3.310   6.856  0.1173  0.2553 -1.0018
22127SOL     OW70422   2.826   6.887  10.101  0.0539  0.1407 -0.3634
22127SOL    HW170423   2.821   6.874  10.195  0.6996  1.1677 -0.1730
22127SOL    HW270424   2.874   6.969  10.090 -1.0159  0.6450 -1.5489
22128SOL     OW70425   8.303   0.506   6.052 -0.4571  0.0289 -0.1216
22128SOL    HW170426   8.315   0.549   5.968 -0.4411 -1.0288 -0.6705
22128SOL    HW270427   8.209   0.490   6.058 -0.4298 -0.1061 -0.0447
22129SOL     OW70428   8.592   3.835   8.916 -0.3710  0.0517 -0.4163
22129SOL    HW170429   8.514   3.836   8.973 -0.7511  1.6950 -0.9129
22129SOL    HW270430   8.663   3.806   8.973 -1.3670 -1.8165 -0.0250
22130SOL     OW70431   0.669   9.084   2.840 -0.4084  0.2778  0.0983
22130SOL    HW170432   0.702   9.171   2.859 -0.4229  0.2112  0.4401
22130SOL    HW270433   0.700   9.030   2.913  1.1170 -0.3933 -0.9941
22131SOL     OW70434   5.844   4.737   7.467  0.0951 -0.0479  0.2003
22131SOL    HW170435   5.794   4.781   7.535 -0.5936 -0.1682 -0.2220
22131SOL    HW270436   5.884   4.807   7.417  0.0063  0.0565  0.2757
22132SOL     OW70437   3.146   0.098   0.995  0.0870  0.0113 -0.1612
22132SOL    HW170438   3.197   0.169   0.957  0.6290 -0.1034  0.3414
22132SOL    HW270439   3.082   0.075   0.927  0.2554  0.6144 -0.5292
22133SOL     OW70440   9.932   4.967   7.081 -0.3630 -0.5238 -0.5250
22133SOL    HW170441   9.867   4.933   7.143 -0.2453  1.5652  0.8249
22133SOL    HW270442   9.882   5.020   7.020 -0.3323 -1.7429 -1.6652
22134SOL     OW70443   1.830   6.957   3.160 -1.0977  0.2258 -0.0393
22134SOL    HW170444   1.875   6.986   3.081 -0.7776 -0.4634 -0.1109
22134SOL    HW270445   1.760   7.022   3.173 -0.3622  1.0539 -0.1647
22135SOL     OW70446   1.506   6.240   3.139 -0.0566  0.4862  0.3981
22135SOL    HW170447   1.414   6.212   3.141 -0.2369  1.1002  0.7471
22135SOL    HW270448   1.517   6.294   3.216  0.2122  1.6111 -0.4028
22136SOL     OW70449   4.525  10.184   9.121 -0.0875 -0.3095 -0.0033
22136SOL    HW170450   4.562  10.267   9.152  2.7935 -1.5966  0.3299
22136SOL    HW270451   4.580  10.117   9.160 -2.8720 -2.5096  0.4868
22137SOL     OW70452   3.718   0.059   0.307  0.3970  0.2789  0.2791
22137SOL    HW170453   3.658   0.004   0.258 -0.1269  1.3215 -0.2953
22137SOL    HW270454   3.667   0.137   0.328  1.0361  0.4479  1.2928
22138SOL     OW70455   6.960   5.793   9.031 -0.3566 -0.2646 -1.0125
22138SOL    HW170456   6.992   5.702   9.036 -0.5807 -0.3961 -1.7643
22138SOL    HW270457   6.892   5.790   8.964 -1.3051  0.2019 -0.0880
22139SOL     OW70458   7.190   4.807   7.237 -0.2300  0.0083  0.3792
22139SOL    HW170459   7.151   4.829   7.152 -1.1052  1.3334  1.0785
22139SOL    HW270460   7.228   4.890   7.267  1.4373 -0.7947  0.6267
22140SOL     OW70461   9.692   0.122   3.647  0.2955 -0.8749 -0.0266
22140SOL    HW170462   9.769   0.156   3.600 -0.0282 -0.7068 -0.4423
22140SOL    HW270463   9.724   0.104   3.735  1.1549 -2.0075 -0.5244
22141SOL     OW70464   3.806   6.596   0.784 -0.5243 -0.0826  0.1502
22141SOL    HW170465   3.777   6.687   0.788  0.4462  0.2184  1.0348
22141SOL    HW270466   3.804   6.567   0.876 -2.0507 -1.3721 -0.2536
22142SOL     OW70467   0.009   8.464   3.416  0.5120  0.8062 -0.3126
22142SOL    HW170468  -0.082   8.450   3.441  0.8504 -2.1585 -0.4584
22142SOL    HW270469   0.004   8.515   3.335 -1.1259 -0.8559 -1.3407
22143SOL     OW70470   4.301   6.241   3.817 -0.1605 -0.2800  0.2317
22143SOL    HW170471   4.319   6.333   3.833  0.2006 -0.6317  2.0966
22143SOL    HW270472   4.215   6.240   3.776  1.8017  1.1509 -4.6187
22144SOL     OW70473   7.697   1.748   5.549  0.6743 -0.0297  0.1026
22144SOL    HW170474   7.754   1.752   5.625  0.5466  0.7224  0.1721
22144SOL    HW270475   7.712   1.661   5.511  1.5709  0.0140  0.3402
22145SOL     OW70476   2.700   2.779   6.103 -0.2404  0.3398  0.3155
22145SOL    HW170477   2.780   2.797   6.055  0.2895  0.8660  1.3555
22145SOL    HW270478   2.638   2.749   6.037  0.7920 -0.0180 -0.5108
22146SOL     OW70479   1.913   2.597   8.781 -0.1383  0.1756 -0.4241
22146SOL    HW170480   1.911   2.579   8.687 -0.3644  0.4653 -0.4782
22146SOL    HW270481   1.831   2.559   8.814  0.4115 -0.8188 -0.1702
22147SOL     OW70482  10.273   0.408   5.307  0.4847 -0.0633 -0.3208
22147SOL    HW170483  10.284   0.387   5.400 -0.2754  3.4731  0.7418
22147SOL    HW270484  10.192   0.458   5.303  0.8982  0.5497 -2.7869
22148SOL     OW70485   9.716   2.858   8.139 -0.6164  0.2085  0.0899
22148SOL    HW170486   9.757   2.928   8.088 -0.7206 -0.2612 -0.6655
22148SOL    HW270487   9.704   2.787   8.075 -1.8075  0.0217  0.5053
22149SOL     OW70488   3.895   3.989   9.112 -0.0874 -0.2891  0.5638
22149SOL    HW170489   3.857   3.936   9.041  0.2771 -1.2175  1.0399
22149SOL    HW270490   3.976   4.024   9.074  0.8311 -1.9215  0.9315
22150SOL     OW70491   8.788   2.763   2.467  0.3641  0.6052  0.1540
22150SOL    HW170492   8.769   2.751   2.375  1.6183  1.2136 -0.2178
22150SOL    HW270493   8.874   2.721   2.479 -0.1115 -0.1023  1.2085
22151SOL     OW70494   9.170   5.950   8.197 -0.5740 -0.6018 -0.8766
22151SOL    HW170495   9.089   5.901   8.178 -2.9271  2.7224 -0.3363
22151SOL    HW270496   9.200   5.982   8.112 -1.7800  0.8211 -0.8129
22152SOL     OW70497   6.430   4.721   5.290 -0.7421  0.1841  0.2992
22152SOL    HW170498   6.356   4.692   5.345 -0.2495 -1.3513  0.1898
22152SOL    HW270499   6.507   4.683   5.331  0.2302  2.8709  1.2003
22153SOL     OW70500   6.534   4.510   0.134 -0.6032 -0.0578 -0.0764
22153SOL    HW170501   6.485   4.530   0.214  0.6942  0.0919  0.7146
22153SOL    HW270502   6.522   4.586   0.078 -3.9564 -1.3471 -1.3297
22154SOL     OW70503   5.884   9.482   5.263  0.0160 -0.2743 -0.3045
22154SOL    HW170504   5.943   9.440   5.200 -0.2502 -0.1917 -0.6091
22154SOL    HW270505   5.938   9.496   5.340  0.8105  1.1184 -1.0733
22155SOL     OW70506   1.982   0.727   9.282 -0.1321  0.1258  0.4136
22155SOL    HW170507   1.963   0.639   9.250 -0.4992  0.0035  0.9585
22155SOL    HW270508   2.051   0.760   9.223 -1.1157  0.0918 -0.7981
22156SOL     OW70509   7.941   7.109   2.650  0.6287 -0.4621  0.4149
22156SOL    HW170510   8.003   7.136   2.717 -0.1996 -0.0988  1.0463
22156SOL    HW270511   7.861   7.159   2.668  0.6320  0.2780 -1.3278
22157SOL     OW70512   3.330   0.547   6.453 -0.4791 -0.8213  0.3748
22157SOL    HW170513   3.299   0.469   6.408  0.6379 -1.3100  0.4268
22157SOL    HW270514   3.258   0.610   6.444 -0.7451 -1.3053 -1.0716
22158SOL     OW70515   5.560   3.371   1.050 -0.1766  0.0754 -0.3598
22158SOL    HW170516   5.643   3.325   1.056 -1.5769 -2.9775 -1.8012
22158SOL    HW270517   5.507   3.334   1.120 -0.2767  2.2245  0.7553
22159SOL     OW70518   2.391   5.678   6.940 -0.6577 -0.2158  0.2910
22159SOL    HW170519   2.361   5.600   6.986 -0.6156  0.3833  1.3609
22159SOL    HW270520   2.486   5.670   6.940 -0.6842 -1.4542 -1.9411
22160SOL     OW70521   5.052  10.158   7.769  0.0396  0.7543 -0.3464
22160SOL    HW170522   5.053  10.249   7.738 -0.9773  1.3328  1.1862
22160SOL    HW270523   5.076  10.164   7.861 -0.5580 -0.4794 -0.0907
22161SOL     OW70524   7.922   2.258   7.294 -0.6105  0.2208 -0.1344
22161SOL    HW170525   7.958   2.325   7.352  1.5707 -0.5242 -0.5511
22161SOL    HW270526   7.910   2.181   7.350  2.1247 -0.7109 -0.6811
22162SOL     OW70527   7.500   6.002   6.734 -0.2359  0.2970  0.1547
22162SOL    HW170528   7.406   5.986   6.720 -0.4385  1.9760 -0.7517
22162SOL    HW270529   7.541   5.916   6.728 -1.6747 -0.4256  0.1934
22163SOL     OW70530   4.302   1.561   5.342 -0.2772  0.1081  0.0895
22163SOL    HW170531   4.372   1.495   5.348  0.3814  0.8257  0.5998
22163SOL    HW270532   4.232   1.518   5.294  0.9682 -0.2452 -1.4956
22164SOL     OW70533   6.219   1.053   2.568 -0.2461  0.9904 -0.0715
22164SOL    HW170534   6.187   1.136   2.533 -0.0614  0.5777 -1.2405
22164SOL    HW270535   6.171   0.986   2.519 -0.2677  0.3962  0.7359
22165SOL     OW70536   8.927   3.442   6.167 -0.2402  0.4334 -0.1086
22165SOL    HW170537   8.892   3.483   6.087 -0.4099  0.9135  0.2091
22165SOL    HW270538   8.974   3.512   6.211 -0.5078  0.2799  0.4265
22166SOL     OW70539   6.384   0.112   0.809 -0.0353 -0.0093  0.5543
22166SOL    HW170540   6.344   0.027   0.828 -1.7060  0.1725 -1.6690
22166SOL    HW270541   6.432   0.099   0.728 -0.4698  1.1658  0.0723
22167SOL     OW70542   1.326   7.978   0.953 -0.1101 -0.3334 -0.0990
22167SOL    HW170543   1.390   7.969   0.882  0.1054 -0.8226  0.1473
22167SOL    HW270544   1.270   8.051   0.927 -0.3498 -0.8316 -1.0153
22168SOL     OW70545   0.023   8.230   7.599 -0.3038  0.4640 -0.2757
22168SOL    HW170546  -0.031   8.155   7.623 -1.4840  0.8484 -1.5661
22168SOL    HW270547  -0.034   8.284   7.544  1.6872  0.3166 -2.7044
22169SOL     OW70548   3.694   5.541   0.141  0.1095 -0.0355  0.2689
22169SOL    HW170549   3.608   5.524   0.180 -0.4647 -1.2270 -1.4504
22169SOL    HW270550   3.683   5.625   0.096  0.1134  0.2183  0.7267
22170SOL     OW70551   2.581   7.851   0.441  0.0734  0.2346 -0.3853
22170SOL    HW170552   2.669   7.887   0.447 -0.5466  2.1922 -1.7708
22170SOL    HW270553   2.528   7.924   0.410 -1.7645 -1.2986 -1.0428
22171SOL     OW70554  10.077   6.104   2.514 -0.1647 -0.2854 -0.5917
22171SOL    HW170555  10.034   6.108   2.429 -0.0635  0.5051 -0.6130
22171SOL    HW270556  10.163   6.067   2.496 -0.1726 -0.1916 -0.8260
22172SOL     OW70557   3.576   9.548   0.496  0.0082  0.5210  0.3240
22172SOL    HW170558   3.568   9.465   0.544 -0.0376  0.7899  0.7890
22172SOL    HW270559   3.504   9.546   0.433  0.3737 -0.0605 -0.0801
22173SOL     OW70560   3.394   2.782   6.836  0.2332 -0.2021  0.4389
22173SOL    HW170561   3.451   2.783   6.912 -0.3919  0.6284  0.9157
22173SOL    HW270562   3.354   2.695   6.836  0.0772 -0.1283  1.1740
22174SOL     OW70563   1.232   2.967   6.551  0.0142 -0.0940 -0.1814
22174SOL    HW170564   1.234   2.879   6.589  3.1801  0.7095  1.8734
22174SOL    HW270565   1.194   3.021   6.621 -0.7881  0.4118 -0.9828
22175SOL     OW70566   5.494   9.717   9.038 -0.6043  0.1966 -0.0103
22175SOL    HW170567   5.408   9.723   9.080 -0.4968  1.2854  0.0919
22175SOL    HW270568   5.513   9.807   9.010  0.7567  0.0889  0.4909
22176SOL     OW70569   9.120   9.291   3.475 -0.1417 -0.2859 -0.2278
22176SOL    HW170570   9.034   9.289   3.516 -0.9238 -0.8878 -1.8342
22176SOL    HW270571   9.109   9.345   3.397  1.2668  0.7026  0.2168
22177SOL     OW70572   3.403   1.297   8.785 -0.0691 -0.4315  0.2084
22177SOL    HW170573   3.433   1.388   8.778 -1.2080 -0.1062 -1.1035
22177SOL    HW270574   3.308   1.303   8.773 -0.4854 -1.5878  2.3725
22178SOL     OW70575   9.867   6.661   3.384 -0.5061  0.3885  0.1839
22178SOL    HW170576   9.835   6.573   3.402  1.8223  0.1060  3.9422
22178SOL    HW270577   9.926   6.650   3.309  0.7872 -1.5769  1.4197
22179SOL     OW70578   9.257   0.268   2.410 -0.1573  0.1981 -0.7114
22179SOL    HW170579   9.213   0.183   2.405  0.2010 -0.0878  0.6505
22179SOL    HW270580   9.194   0.330   2.373 -0.2943 -0.6973 -2.0196
22180SOL     OW70581   0.608   1.650   5.926 -0.0063 -0.2313  0.2443
22180SOL    HW170582   0.528   1.634   5.976 -0.8058  0.9235 -0.6133
22180SOL    HW270583   0.678   1.617   5.981 -1.0267 -0.7400  1.2690
22181SOL     OW70584   7.526   8.820   6.210 -0.4015 -0.4367 -0.1679
22181SOL    HW170585   7.576   8.738   6.201  1.6742  0.7684 -0.1617
22181SOL    HW270586   7.450   8.808   6.153  0.7965 -1.6858 -1.5921
22182SOL     OW70587   2.451   8.870   0.069  0.5704 -0.1824  0.0474
22182SOL    HW170588   2.355   8.866   0.066  0.1827  4.3908 -1.4409
22182SOL    HW270589   2.478   8.860  -0.022  1.4241 -0.1341  0.2865
22183SOL     OW70590   8.929   8.562   3.430  0.3022  0.2801 -0.1456
22183SOL    HW170591   8.959   8.486   3.381  0.5747  0.6977 -0.6406
22183SOL    HW270592   8.836   8.569   3.409 -0.1636 -0.9418  1.2922
22184SOL     OW70593   8.653   6.842   0.148  0.0361 -0.1961 -0.1335
22184SOL    HW170594   8.696   6.927   0.136  1.0529 -0.7885 -0.7769
22184SOL    HW270595   8.600   6.831   0.069 -0.8578  0.2517  0.3813
22185SOL     OW70596   2.576   8.554   8.761  0.1297 -0.0049  0.2489
22185SOL    HW170597   2.603   8.644   8.774 -0.4800  0.0881  0.8902
22185SOL    HW270598   2.502   8.559   8.700  0.4461 -0.1199 -0.1488
22186SOL     OW70599   3.147   4.116   7.653 -0.3651  0.0337  0.6823
22186SOL    HW170600   3.079   4.141   7.717  0.8122  1.5601  1.4100
22186SOL    HW270601   3.229   4.136   7.698  0.5723 -1.4307 -0.3260
22187SOL     OW70602   6.226   4.962   2.183  0.0122 -0.1278  0.6423
22187SOL    HW170603   6.164   4.965   2.256 -0.2405 -0.4176  0.4423
22187SOL    HW270604   6.289   4.895   2.207 -0.8044 -1.1424  0.0246
22188SOL     OW70605   7.963   6.320   8.560 -0.1450 -0.2139  0.2785
22188SOL    HW170606   8.050   6.280   8.555 -0.1408 -0.0878 -0.9653
22188SOL    HW270607   7.960   6.379   8.485 -1.4706 -0.5516  0.0577
22189SOL     OW70608   0.163   1.406   9.133 -0.6886  0.4886  0.3333
22189SOL    HW170609   0.145   1.313   9.149  1.8106 -0.2611 -0.8360
22189SOL    HW270610   0.155   1.416   9.038  1.1125  0.9555  0.2086
22190SOL     OW70611   5.412   9.309   2.218  0.0516  0.8071 -0.1578
22190SOL    HW170612   5.327   9.328   2.178 -0.8394  0.1629  1.3297
22190SOL    HW270613   5.398   9.226   2.265  1.6054  0.5152 -0.1629
22191SOL     OW70614   8.425   6.936   5.768  0.6690  0.1917  0.2658
22191SOL    HW170615   8.390   7.009   5.819 -0.8693  0.1237 -0.6505
22191SOL    HW270616   8.520   6.944   5.778  0.4978  1.7743  0.9161
22192SOL     OW70617   5.268   2.367   2.739  0.5711 -0.3506  0.5139
22192SOL    HW170618   5.193   2.324   2.699 -0.1173  1.7986 -0.6410
22192SOL    HW270619   5.248   2.370   2.832 -1.4724  1.4021  0.0722
22193SOL     OW70620   5.932   6.527   7.859 -0.4716 -0.2123 -0.6308
22193SOL    HW170621   5.988   6.468   7.910  1.0859 -1.1005 -3.1918
22193SOL    HW270622   5.983   6.608   7.850 -0.3460 -0.3802 -1.4977
22194SOL     OW70623   7.495   4.299   4.889  0.0605  0.3885 -0.6892
22194SOL    HW170624   7.519   4.271   4.977  0.6779  1.0009 -0.6559
22194SOL    HW270625   7.577   4.295   4.839  0.3066  2.5928 -0.5498
22195SOL     OW70626   3.208   8.314   3.187 -0.6250  0.4980  0.2739
22195SOL    HW170627   3.145   8.368   3.140 -2.4324 -2.3572 -0.8657
22195SOL    HW270628   3.279   8.300   3.124 -1.4273 -0.5360 -0.4457
22196SOL     OW70629   2.105   0.416   0.952 -0.7615 -0.2823 -0.5048
22196SOL    HW170630   2.035   0.353   0.970 -0.4499 -0.8489 -1.2250
22196SOL    HW270631   2.183   0.376   0.992 -0.8412  0.3417  0.2883
22197SOL     OW70632   3.973   3.421   7.927  0.4359 -0.7871 -0.2745
22197SOL    HW170633   3.885   3.456   7.938  0.3633 -0.5584 -1.4983
22197SOL    HW270634   4.018   3.485   7.871  2.2015  0.4491  2.3417
22198SOL     OW70635   9.122   7.026   0.570  0.3634  0.1966 -0.2689
22198SOL    HW170636   9.183   7.081   0.619  1.3925  0.5440 -1.8485
22198SOL    HW270637   9.098   7.080   0.494  2.0970 -1.7767 -2.3477
22199SOL     OW70638   6.417   0.429  10.158  0.7296 -0.6861  0.7796
22199SOL    HW170639   6.469   0.376  10.218  0.1901 -1.3390  0.6841
22199SOL    HW270640   6.332   0.439  10.202 -1.0206 -4.2674 -1.3337
22200SOL     OW70641   7.367   6.196   9.468  0.5089  0.3141  0.1915
22200SOL    HW170642   7.282   6.229   9.438 -0.1677 -0.1411  1.5334
22200SOL    HW270643   7.370   6.219   9.561  0.8100 -1.7500  0.7395
22201SOL     OW70644   0.774   2.456   0.684  0.7096 -0.1998 -0.2445
22201SOL    HW170645   0.807   2.484   0.599 -0.2482  0.0152 -0.5494
22201SOL    HW270646   0.802   2.365   0.692  0.4523 -0.3463 -0.9698
22202SOL     OW70647   9.086   0.286   3.074  0.3122 -0.3568 -0.0667
22202SOL    HW170648   9.170   0.272   3.118  0.7656  0.0149 -0.7908
22202SOL    HW270649   9.030   0.324   3.142  0.8907 -0.1041  0.2793
22203SOL     OW70650  10.244   7.793   3.120 -0.1426  0.3235  0.0304
22203SOL    HW170651  10.230   7.788   3.025 -1.9977 -2.0477  0.3250
22203SOL    HW270652  10.257   7.886   3.137 -0.0165  0.8529 -2.5023
22204SOL     OW70653   3.672   6.618   3.039 -0.5962  0.0470  0.0576
22204SOL    HW170654   3.684   6.562   2.962 -0.7226 -1.7556  1.2796
22204SOL    HW270655   3.738   6.687   3.029  2.1609 -2.3566  0.2329
22205SOL     OW70656   1.406  10.240   4.949 -0.0427  0.7772  0.6607
22205SOL    HW170657   1.369  10.328   4.935 -0.6374  0.2974 -1.0487
22205SOL    HW270658   1.416  10.204   4.861  1.6231 -0.3215  1.2430
22206SOL     OW70659   3.498   1.600   9.835 -0.1526 -0.4694  0.2785
22206SOL    HW170660   3.512   1.616   9.928  2.4123  0.8160 -0.2560
22206SOL    HW270661   3.533   1.512   9.821  1.7398  0.2729  0.1286
22207SOL     OW70662   6.522   9.376   5.270  0.1510  0.8946  0.0686
22207SOL    HW170663   6.541   9.399   5.361  0.2565 -1.2847  0.6574
22207SOL    HW270664   6.606   9.388   5.225  1.0262 -1.1346  1.0077
22208SOL     OW70665   2.794   6.642   9.031 -0.1269 -0.2269 -0.3851
22208SOL    HW170666   2.704   6.609   9.039  0.6640 -2.4472  0.1069
22208SOL    HW270667   2.844   6.590   9.094  1.8213 -0.3421 -1.9309
22209SOL     OW70668   2.557   3.195   5.489 -0.0572 -0.8758 -0.3400
22209SOL    HW170669   2.541   3.208   5.396 -0.4069 -0.5249 -0.2347
22209SOL    HW270670   2.469   3.196   5.529  0.1896  1.3232  0.2957
22210SOL     OW70671   4.636   1.832   8.535 -0.1376 -0.2285  0.0037
22210SOL    HW170672   4.591   1.777   8.471  0.6567 -0.5115 -0.3151
22210SOL    HW270673   4.578   1.908   8.545  0.1057  0.2134 -1.6606
22211SOL     OW70674   2.608   3.922   4.959 -0.3971  0.3995 -0.3406
22211SOL    HW170675   2.580   3.915   5.050  0.6607  1.6313  0.1012
22211SOL    HW270676   2.689   3.872   4.955  0.2792  1.4621 -0.2594
22212SOL     OW70677   8.786   5.427   5.829 -0.4662 -0.1743  0.2480
22212SOL    HW170678   8.775   5.464   5.916  2.0448 -1.8160  1.3739
22212SOL    HW270679   8.778   5.332   5.842 -1.8022 -0.3789 -1.6551
22213SOL     OW70680   4.516   3.336   5.861 -0.5075  0.3498 -0.5525
22213SOL    HW170681   4.502   3.382   5.944 -0.2013  0.2675 -0.4560
22213SOL    HW270682   4.500   3.244   5.882  0.4268  0.2211 -0.3801
22214SOL     OW70683   8.459   5.290   9.398 -0.0251 -0.4572  0.4201
22214SOL    HW170684   8.468   5.308   9.304  0.6556 -0.8712  0.4004
22214SOL    HW270685   8.515   5.355   9.440  1.8020 -1.9355  0.3881
22215SOL     OW70686   7.713   5.277   3.135  0.0718 -0.1989 -0.1119
22215SOL    HW170687   7.663   5.344   3.089 -0.3496 -0.4331 -0.0034
22215SOL    HW270688   7.758   5.324   3.205 -0.5890 -0.0943  0.2531
22216SOL     OW70689   2.083   1.161   8.334 -0.3571 -0.4428  0.6607
22216SOL    HW170690   2.120   1.174   8.422 -1.3791 -0.7861  1.1601
22216SOL    HW270691   2.157   1.173   8.275  0.0717  1.2661  1.4687
22217SOL     OW70692   9.014   1.849   3.638 -0.1439  0.4395 -0.5696
22217SOL    HW170693   9.109   1.862   3.644 -0.1983  0.9197 -0.7222
22217SOL    HW270694   9.003   1.789   3.565  0.0556  0.2022 -0.4082
22218SOL     OW70695   6.336   8.910   8.303  0.1202  0.0785 -0.2038
22218SOL    HW170696   6.314   9.002   8.287  0.2100 -0.0096 -0.8593
22218SOL    HW270697   6.257   8.873   8.343  0.2160  0.5246  0.4030
22219SOL     OW70698   5.928   2.652   0.564  0.6841 -0.3615  0.4312
22219SOL    HW170699   5.903   2.612   0.480  0.4733 -1.2121  0.8861
22219SOL    HW270700   5.979   2.729   0.539  1.3106 -1.0442 -0.4804
22220SOL     OW70701   7.008   8.060   1.277 -0.4233  0.2060  0.2877
22220SOL    HW170702   7.046   8.053   1.190 -3.2290 -0.0859 -1.0118
22220SOL    HW270703   7.034   8.147   1.308  0.0839  0.5661 -1.1029
22221SOL     OW70704   6.015   3.654   0.503 -0.2548  0.7055  0.1104
22221SOL    HW170705   5.942   3.599   0.476 -0.6266  1.6253 -0.8286
22221SOL    HW270706   6.087   3.628   0.446 -0.6496  1.6925 -0.8749
22222SOL     OW70707   5.525   3.754   7.149  0.4341 -0.3250  0.2668
22222SOL    HW170708   5.494   3.798   7.229 -0.4847 -0.2217 -0.1288
22222SOL    HW270709   5.618   3.774   7.145  0.3306  0.3240  0.9018
22223SOL     OW70710   2.229   8.390   4.061  0.4503 -0.2851  0.3288
22223SOL    HW170711   2.279   8.439   3.996  0.9696  0.8775  1.5477
22223SOL    HW270712   2.145   8.438   4.066  0.0616 -0.9039 -0.1078
22224SOL     OW70713   5.895   6.853   7.143 -0.1385 -0.0335 -0.6359
22224SOL    HW170714   5.854   6.817   7.064  0.4397 -0.2853 -0.8243
22224SOL    HW270715   5.843   6.931   7.163  1.2149  1.5227 -2.7300
22225SOL     OW70716   7.065   3.359   1.660 -0.0019 -0.5857 -0.0183
22225SOL    HW170717   6.993   3.414   1.691  1.4792  0.9657  0.8167
22225SOL    HW270718   7.144   3.402   1.692  1.3320 -2.1361 -1.0593
22226SOL     OW70719   3.757   5.144   1.092  0.2187  0.2332  0.4452
22226SOL    HW170720   3.852   5.156   1.096  0.3426  0.0702 -1.1307
22226SOL    HW270721   3.729   5.202   1.021 -0.6765 -0.6234  0.0797
22227SOL     OW70722   4.323   2.749   5.756  0.0152 -0.3583  0.3007
22227SOL    HW170723   4.389   2.818   5.766 -0.1161 -0.2352  0.3094
22227SOL    HW270724   4.325   2.702   5.839 -0.1206 -0.1701  0.4093
22228SOL     OW70725   9.118   2.954   5.076 -0.7252 -0.1334  0.7566
22228SOL    HW170726   9.170   2.935   5.155  2.0673  0.4414 -0.8061
22228SOL    HW270727   9.164   3.026   5.034 -1.3345 -1.2571 -2.0739
22229SOL     OW70728   2.825   0.795   5.468  0.0410  0.3567  0.4721
22229SOL    HW170729   2.748   0.757   5.427 -0.1235  1.0255  0.1400
22229SOL    HW270730   2.830   0.753   5.554  0.1136 -0.7096 -0.0343
22230SOL     OW70731   5.594   2.509   2.951  0.0364  0.0296  0.4153
22230SOL    HW170732   5.547   2.514   2.868 -2.8064  0.2895  1.8849
22230SOL    HW270733   5.644   2.428   2.946 -3.0598 -2.0370 -0.2354
22231SOL     OW70734   6.469   4.647   0.380  0.3227 -0.2763  0.4239
22231SOL    HW170735   6.481   4.583   0.450  1.0596  0.3845  0.9049
22231SOL    HW270736   6.415   4.716   0.419  0.5795  0.0024  0.2934
22232SOL     OW70737   8.905   1.904   6.695  0.3217 -0.1477 -0.3749
22232SOL    HW170738   8.952   1.946   6.624  1.3619 -1.1066 -0.2808
22232SOL    HW270739   8.829   1.863   6.652 -0.0215  0.7534 -0.6438
22233SOL     OW70740   7.444   5.893   9.088 -0.1423 -0.3666  0.1601
22233SOL    HW170741   7.479   5.807   9.068  0.4041 -0.8593  2.8882
22233SOL    HW270742   7.353   5.890   9.058  0.4373 -1.1312 -1.6210
22234SOL     OW70743   9.010   5.630   2.484 -0.0756 -0.7186 -0.1420
22234SOL    HW170744   9.060   5.618   2.564 -0.2561  1.3440  0.3324
22234SOL    HW270745   8.920   5.609   2.508  0.0039 -0.9218 -0.0244
22235SOL     OW70746   3.047   0.458   4.880 -0.0697  0.3843 -0.5958
22235SOL    HW170747   3.054   0.363   4.888 -0.5222  0.5126  2.1410
22235SOL    HW270748   3.120   0.492   4.932 -0.2870  1.5404 -1.0224
22236SOL     OW70749   3.855   9.579   1.239  0.3699  0.7186 -0.5162
22236SOL    HW170750   3.881   9.547   1.153  0.3614  1.3217 -0.7542
22236SOL    HW270751   3.803   9.508   1.276  0.4898  0.3957 -0.9526
22237SOL     OW70752   8.029   7.056   6.607  0.3386 -0.0150 -0.0581
22237SOL    HW170753   8.093   7.027   6.541  1.7989  0.1979  1.2028
22237SOL    HW270754   8.083   7.083   6.682 -1.2827 -1.3374  1.6810
22238SOL     OW70755   6.403   3.766  10.281 -0.2730  0.1835  0.2501
22238SOL    HW170756   6.420   3.759  10.187  1.1039 -1.3549  0.5578
22238SOL    HW270757   6.309   3.785  10.287 -0.8342 -1.6641 -1.4256
22239SOL     OW70758   2.312   6.546   9.627  0.1584  0.0136 -0.0888
22239SOL    HW170759   2.245   6.481   9.648 -0.0576  0.5363  0.9000
22239SOL    HW270760   2.368   6.549   9.705 -0.8529  2.2476  0.6332
22240SOL     OW70761   8.600   7.400   5.659 -0.0803  0.2156 -0.2984
22240SOL    HW170762   8.566   7.474   5.709  0.1238  0.6201 -0.7546
22240SOL    HW270763   8.639   7.343   5.726 -0.7347  0.2373  0.1145
22241SOL     OW70764   3.663   0.532   1.183 -0.0707  0.1581 -0.3282
22241SOL    HW170765   3.655   0.533   1.278 -0.2086 -0.0318 -0.3367
22241SOL    HW270766   3.710   0.451   1.163 -0.0252  0.2061 -0.4205
22242SOL     OW70767   5.645   8.316   2.621  0.7867 -0.3891 -0.1496
22242SOL    HW170768   5.733   8.353   2.629  0.5060  0.0658  1.0320
22242SOL    HW270769   5.658   8.232   2.577  1.6812  0.1361 -0.9357
22243SOL     OW70770   7.142   8.401   7.130 -0.7611 -0.1131 -0.5668
22243SOL    HW170771   7.162   8.322   7.180 -1.8034 -0.2226 -0.2915
22243SOL    HW270772   7.124   8.370   7.042  0.0107 -0.0398 -0.7571
22244SOL     OW70773   6.133   0.809   2.831 -0.0410  0.4454  0.4499
22244SOL    HW170774   6.165   0.899   2.831  0.5626  0.2534  1.7596
22244SOL    HW270775   6.089   0.799   2.915 -1.5296 -0.0092 -0.3565
22245SOL     OW70776   0.263   4.001   7.099 -0.0024 -0.4601 -0.2726
22245SOL    HW170777   0.288   3.961   7.182 -0.4154  0.9813  0.5788
22245SOL    HW270778   0.169   3.986   7.092 -0.3409  1.0992  0.5122
22246SOL     OW70779   5.055   1.337   8.463  0.3204  0.0237  0.2466
22246SOL    HW170780   5.056   1.247   8.431  0.1132  0.6157 -1.5317
22246SOL    HW270781   5.147   1.362   8.467  0.3107  0.6989 -2.2894
22247SOL     OW70782   2.595   8.080   2.594 -0.3026  0.4380 -0.2548
22247SOL    HW170783   2.634   8.119   2.672 -0.3725 -1.7483  0.9647
22247SOL    HW270784   2.666   8.078   2.530  1.5263 -2.5444  1.5955
22248SOL     OW70785  10.068   8.947   8.086  0.5014 -0.4946 -0.0712
22248SOL    HW170786  10.104   8.937   8.174 -0.1057 -0.9231  0.1264
22248SOL    HW270787   9.993   8.888   8.083 -1.1850  1.5320  0.0466
22249SOL     OW70788   4.543   4.583   3.924  0.1497  0.1094 -0.2348
22249SOL    HW170789   4.537   4.609   4.016  0.8783  1.6525 -0.6032
22249SOL    HW270790   4.617   4.522   3.922 -0.0674 -0.1747  0.2508
22250SOL     OW70791   1.268   6.230   5.970 -0.1722 -0.5113  0.2658
22250SOL    HW170792   1.354   6.265   5.948  0.7912 -1.9429  1.6150
22250SOL    HW270793   1.263   6.235   6.065  0.0671 -3.9366  0.5895
22251SOL     OW70794   3.549   1.898   9.297 -0.9543 -0.2633 -0.4886
22251SOL    HW170795   3.589   1.984   9.283 -0.2313 -0.6280 -0.6868
22251SOL    HW270796   3.622   1.837   9.295 -1.5793 -1.0001 -1.3529
22252SOL     OW70797   2.423   0.703   1.233 -0.2520 -0.0391  0.4480
22252SOL    HW170798   2.335   0.696   1.271 -0.0303 -0.6335  0.8767
22252SOL    HW270799   2.453   0.790   1.258 -1.2354  0.7041 -0.8580
22253SOL     OW70800   3.298   5.008   1.219  0.6933 -0.4590 -0.2923
22253SOL    HW170801   3.380   5.057   1.212  0.0121  0.8893  0.7623
22253SOL    HW270802   3.299   4.973   1.308  1.1186 -2.3457 -0.9961
22254SOL     OW70803   8.710   8.067   9.929  0.3445  0.2475 -0.3982
22254SOL    HW170804   8.627   8.114   9.936 -0.6199 -1.3379 -0.5466
22254SOL    HW270805   8.749   8.074  10.016  0.2392  1.3213 -0.4310
22255SOL     OW70806   9.760   5.292   2.865  0.4047 -0.2489 -0.1754
22255SOL    HW170807   9.833   5.243   2.903  1.9112 -0.2688 -2.7948
22255SOL    HW270808   9.758   5.374   2.914  0.0577 -1.5090  2.0407
22256SOL     OW70809   0.918   6.243   5.618  0.4503 -0.3325  0.0054
22256SOL    HW170810   0.855   6.233   5.546 -0.0781  0.9600  0.2597
22256SOL    HW270811   0.917   6.158   5.663  0.4152 -0.9875 -1.2033
22257SOL     OW70812   7.836   1.077   6.674  0.1732  0.2676  0.2873
22257SOL    HW170813   7.834   1.173   6.673  0.0019  0.2789 -1.1842
22257SOL    HW270814   7.873   1.055   6.759  0.8068  1.6523  0.4093
22258SOL     OW70815  10.040   2.972   6.673  0.2525 -0.0907 -0.2825
22258SOL    HW170816   9.999   2.949   6.757  1.4476 -0.2727  0.2695
22258SOL    HW270817  10.005   2.907   6.612  0.3861 -0.7953  0.3654
22259SOL     OW70818   3.786   1.894   5.395  0.2741  0.1304 -0.1092
22259SOL    HW170819   3.811   1.984   5.413  1.3075 -0.5443  2.2518
22259SOL    HW270820   3.865   1.843   5.415 -0.7121 -1.4154  0.0168
22260SOL     OW70821   6.121   6.413   9.025 -0.7250 -0.0775 -0.1333
22260SOL    HW170822   6.037   6.368   9.023 -0.8157  0.1127 -1.0095
22260SOL    HW270823   6.102   6.498   9.064 -0.3229 -1.1986  2.7543
22261SOL     OW70824   5.162   9.573   6.794  0.3275 -0.2180 -0.3592
22261SOL    HW170825   5.194   9.663   6.793  0.4209 -0.1603  2.1333
22261SOL    HW270826   5.146   9.554   6.887 -1.7904 -2.0351 -1.0040
22262SOL     OW70827   7.171   8.796   3.194 -0.1026 -0.3723  0.3387
22262SOL    HW170828   7.142   8.781   3.104 -0.3295 -1.5067  0.5736
22262SOL    HW270829   7.147   8.886   3.213  2.1778  0.7270 -1.5321
22263SOL     OW70830   0.160   0.334   6.093  0.3900  0.2144 -0.0533
22263SOL    HW170831   0.203   0.289   6.020 -1.4365 -0.7121 -0.6405
22263SOL    HW270832   0.144   0.422   6.060 -1.1774 -0.4353 -1.1775
22264SOL     OW70833   6.558   0.043  10.286 -0.3539 -0.1892 -0.0403
22264SOL    HW170834   6.484   0.066  10.342 -2.9296 -0.9036 -2.9265
22264SOL    HW270835   6.633   0.089  10.325 -2.1762  0.3666  3.1583
22265SOL     OW70836   3.782   4.699   0.541 -0.5492  0.4919  0.0678
22265SOL    HW170837   3.780   4.784   0.585  0.6541  0.3345  0.4446
22265SOL    HW270838   3.857   4.654   0.579 -1.0930 -0.6893 -0.2342
22266SOL     OW70839   0.239  10.284   7.957 -0.0386  0.0592  0.2421
22266SOL    HW170840   0.241  10.380   7.951 -0.7404  0.0150 -1.0419
22266SOL    HW270841   0.162  10.265   8.012 -0.3652  0.2177 -0.1552
22267SOL     OW70842   4.013   5.475   4.160  0.1093  0.5132  0.4754
22267SOL    HW170843   4.107   5.467   4.143  0.2378  1.3026  0.7631
22267SOL    HW270844   3.988   5.558   4.117 -0.2072  0.9108  1.4080
22268SOL     OW70845   3.713   7.568   4.560 -0.2671 -0.0223  0.1711
22268SOL    HW170846   3.708   7.623   4.638  0.4701 -1.6140  1.3816
22268SOL    HW270847   3.757   7.488   4.589 -1.7627 -1.4927 -1.3907
22269SOL     OW70848   7.460  10.194   2.093  0.6840 -0.8646 -0.1903
22269SOL    HW170849   7.488  10.114   2.139 -1.8526 -0.9068  1.4736
22269SOL    HW270850   7.379  10.169   2.049  0.1629  0.6367 -0.1305
22270SOL     OW70851   8.894   4.036   0.993  0.4873 -0.4667  0.6709
22270SOL    HW170852   8.887   4.074   1.080  0.0978  1.7597 -0.2763
22270SOL    HW270853   8.988   4.036   0.974  0.4546  0.5134  0.4863
22271SOL     OW70854   2.646   3.735   1.052 -0.0722 -0.6343 -0.0025
22271SOL    HW170855   2.641   3.690   1.137  2.2231 -2.0396 -0.5174
22271SOL    HW270856   2.696   3.814   1.070  1.8924 -1.7439 -0.2411
22272SOL     OW70857   4.925   3.956   0.226 -0.1891 -0.2305  0.4346
22272SOL    HW170858   4.920   4.029   0.164 -1.2405  0.1327  0.9154
22272SOL    HW270859   4.834   3.926   0.235  0.3041 -2.0788 -0.2998
22273SOL     OW70860   8.462   3.743   7.585 -0.4356 -0.1237 -0.1778
22273SOL    HW170861   8.549   3.705   7.580 -0.7237 -0.8915  0.4527
22273SOL    HW270862   8.468   3.824   7.533  1.2642  1.0191  1.6635
22274SOL     OW70863   1.790  10.247   6.860  0.2745  0.0329 -0.1792
22274SOL    HW170864   1.848  10.300   6.806 -0.5545  0.0981 -1.0312
22274SOL    HW270865   1.848  10.209   6.926  0.9429  1.7037  0.2452
22275SOL     OW70866   8.448   5.598   5.469 -0.1712 -0.2054 -0.1001
22275SOL    HW170867   8.506   5.641   5.406 -0.1448 -0.1057 -0.0081
22275SOL    HW270868   8.473   5.506   5.464 -0.1015 -0.1835 -0.1643
22276SOL     OW70869   3.215   5.718   9.062 -0.3366 -0.1760 -0.2737
22276SOL    HW170870   3.290   5.772   9.086  0.7028 -1.0176 -1.4844
22276SOL    HW270871   3.153   5.780   9.024 -0.6646  0.6625  1.5174
22277SOL     OW70872   7.547   9.834   8.196  0.2327 -0.0884 -0.6746
22277SOL    HW170873   7.456   9.830   8.226  0.3311 -1.5149 -0.4845
22277SOL    HW270874   7.541   9.865   8.106 -0.2109  2.4234  0.1134
22278SOL     OW70875   0.730   3.623   3.895 -0.3576 -0.1973  0.0176
22278SOL    HW170876   0.796   3.647   3.830 -0.1095 -0.1448  0.2868
22278SOL    HW270877   0.747   3.531   3.914  0.8902  0.2912  1.5092
22279SOL     OW70878   3.969   1.295   9.824  0.9886  0.1294 -0.1994
22279SOL    HW170879   3.976   1.344   9.906 -0.3903 -0.2971  0.1945
22279SOL    HW270880   3.955   1.204   9.851 -0.1638  0.0838 -0.8856
22280SOL     OW70881   8.537   4.684   4.211  0.2046  0.4441  0.5791
22280SOL    HW170882   8.630   4.661   4.210  0.0983 -0.0187  0.9782
22280SOL    HW270883   8.530   4.756   4.273  0.3280  0.6281  0.3819
22281SOL     OW70884   4.492   0.976   9.473 -0.0172  0.5979 -0.4264
22281SOL    HW170885   4.516   0.946   9.560  1.7311  2.1897 -0.3110
22281SOL    HW270886   4.560   0.940   9.416 -0.5761  0.4165 -0.9903
22282SOL     OW70887  10.292   1.474   3.571 -0.7514  0.1243 -0.2588
22282SOL    HW170888  10.222   1.411   3.553 -0.9237  0.3873 -0.5121
22282SOL    HW270889  10.295   1.530   3.494 -0.4490  0.2914 -0.1297
22283SOL     OW70890   0.585   7.681   5.994 -0.1196 -0.4592  0.3073
22283SOL    HW170891   0.517   7.743   6.021  1.1478  0.9707  0.3970
22283SOL    HW270892   0.628   7.656   6.075 -0.9957 -1.9741  0.3366
22284SOL     OW70893   3.610   2.480   6.396  0.1680  0.5820 -0.3475
22284SOL    HW170894   3.613   2.557   6.339 -0.4342 -1.4993 -3.4704
22284SOL    HW270895   3.694   2.482   6.442  0.2684  2.9307 -0.4915
22285SOL     OW70896   5.727   0.857   7.941 -0.9867 -0.5390 -0.3785
22285SOL    HW170897   5.748   0.844   7.849 -3.1355 -2.0789 -0.7277
22285SOL    HW270898   5.728   0.769   7.978  1.1594  0.1446  1.4646
22286SOL     OW70899   2.191   2.677   8.874 -0.0599 -0.3378 -0.7022
22286SOL    HW170900   2.172   2.725   8.955  0.3314 -0.8284 -0.3127
22286SOL    HW270901   2.126   2.607   8.872 -1.3569  0.8438 -1.8436
22287SOL     OW70902   0.528   5.654   3.541 -0.3918  0.3019  0.0836
22287SOL    HW170903   0.433   5.670   3.538 -0.1475  1.8774 -0.5409
22287SOL    HW270904   0.539   5.567   3.503 -1.9299 -2.0416  4.3411
22288SOL     OW70905   8.335   3.453   9.051 -0.1077 -0.3238 -0.8782
22288SOL    HW170906   8.290   3.371   9.032 -1.3774 -0.1548  1.1200
22288SOL    HW270907   8.393   3.466   8.976  1.2557 -3.7832 -0.6460
22289SOL     OW70908   2.760   6.933   3.169  0.0376  0.0944  0.3708
22289SOL    HW170909   2.825   6.992   3.132 -1.4049  0.6976 -1.3712
22289SOL    HW270910   2.789   6.918   3.259  1.7690  1.4866  0.0931
22290SOL     OW70911   9.223   8.847   5.231  0.0104  0.3888 -0.2619
22290SOL    HW170912   9.265   8.838   5.316 -0.6486 -1.0776 -0.0579
22290SOL    HW270913   9.206   8.757   5.203 -0.9876  0.8831 -1.3383
22291SOL     OW70914   9.433   6.873   8.034  0.1551 -0.4169 -0.5584
22291SOL    HW170915   9.392   6.893   8.118  2.1059 -1.6970  0.7732
22291SOL    HW270916   9.441   6.778   8.033  2.2130 -0.2816 -1.1344
22292SOL     OW70917   9.195   9.423   4.905  0.4957 -0.0899 -0.5383
22292SOL    HW170918   9.116   9.372   4.892  0.1193  0.1821  0.6004
22292SOL    HW270919   9.254   9.395   4.834 -0.0700 -1.3448 -0.5367
22293SOL     OW70920   8.387   2.663   8.428 -0.3326 -0.2115 -0.5827
22293SOL    HW170921   8.329   2.616   8.489  1.4143  1.3861  2.5553
22293SOL    HW270922   8.475   2.635   8.453  0.5007  1.2846 -1.7060
22294SOL     OW70923   0.834   1.113   7.523  0.1810 -0.5620  0.4398
22294SOL    HW170924   0.887   1.163   7.461  1.3920 -0.8897  1.1609
22294SOL    HW270925   0.748   1.154   7.520  0.8443  0.8761  0.2116
22295SOL     OW70926   3.695   5.200   6.821 -0.2037  0.1633  0.3045
22295SOL    HW170927   3.735   5.161   6.744 -0.4552  0.2147  0.1457
22295SOL    HW270928   3.601   5.202   6.802 -0.2044  0.7853  0.3326
22296SOL     OW70929   6.400   1.815   5.150 -0.1638  0.8684  0.4139
22296SOL    HW170930   6.373   1.724   5.143  3.4552 -0.3014 -0.3544
22296SOL    HW270931   6.419   1.828   5.243  0.1837  0.5538  0.3870
22297SOL     OW70932   3.473   1.315   7.181  0.1684  0.0144 -0.5059
22297SOL    HW170933   3.465   1.270   7.097  1.1228 -2.0808  0.4515
22297SOL    HW270934   3.385   1.312   7.219  0.3395 -1.8052 -0.1536
22298SOL     OW70935   5.212   1.313   3.459 -0.1637  0.0596  0.7206
22298SOL    HW170936   5.282   1.247   3.459  0.6090  0.7712  2.7274
22298SOL    HW270937   5.185   1.318   3.551 -1.3823  1.3180  0.3178
22299SOL     OW70938   5.163   8.067   4.210  0.5406  0.0697  0.1041
22299SOL    HW170939   5.239   8.046   4.263  0.0405  1.2345  1.3259
22299SOL    HW270940   5.165   8.163   4.201  0.2108 -0.0371 -1.3708
22300SOL     OW70941   2.717   1.280   5.988  0.0449  0.1891  0.6383
22300SOL    HW170942   2.776   1.206   5.974  2.2160  1.9142  0.0705
22300SOL    HW270943   2.712   1.324   5.903 -1.0836  0.8046  0.9943
22301SOL     OW70944   1.093   6.311   8.185  0.5920  0.1746  0.2730
22301SOL    HW170945   1.145   6.360   8.121 -0.9661  1.0426 -0.3962
22301SOL    HW270946   1.003   6.343   8.172 -0.3126 -2.0693  0.5925
22302SOL     OW70947   3.083   5.135   5.428  0.0978  0.3271 -0.0152
22302SOL    HW170948   3.033   5.186   5.364 -0.2650 -0.7321 -0.6145
22302SOL    HW270949   3.174   5.160   5.414  0.0520 -0.1241 -1.1769
22303SOL     OW70950   6.574   4.300   4.244  0.8331 -0.3920 -0.3491
22303SOL    HW170951   6.561   4.394   4.248 -1.0899 -0.5954 -0.4409
22303SOL    HW270952   6.580   4.273   4.336  0.0016 -0.3042 -0.2561
22304SOL     OW70953   5.380   9.071   5.870 -0.0686 -0.2726  0.5315
22304SOL    HW170954   5.382   9.065   5.774 -1.2938 -1.1414  0.5300
22304SOL    HW270955   5.459   9.026   5.898 -0.3390 -1.1504 -0.0591
22305SOL     OW70956   4.563   8.345   8.752  0.0922  0.0497 -0.0377
22305SOL    HW170957   4.561   8.262   8.703  0.8295  0.6150 -1.0748
22305SOL    HW270958   4.651   8.347   8.791 -1.1006 -1.2726  2.9660
22306SOL     OW70959   8.641   4.928   1.230  0.2616 -0.5123  0.7526
22306SOL    HW170960   8.731   4.943   1.200  0.2524  0.6770  1.2666
22306SOL    HW270961   8.650   4.875   1.309  0.4269 -1.3726  0.1780
22307SOL     OW70962   5.418   1.004   5.967  0.0874  0.0572  0.2038
22307SOL    HW170963   5.327   0.992   5.937 -0.1324 -0.5773  1.0854
22307SOL    HW270964   5.420   1.092   6.003  0.5132  1.0906 -2.1648
22308SOL     OW70965   6.531   5.713   8.432 -0.3935  0.3294 -0.2322
22308SOL    HW170966   6.582   5.779   8.385 -1.8275  0.9157 -1.0508
22308SOL    HW270967   6.516   5.644   8.367 -0.0633 -0.1580  0.2069
22309SOL     OW70968   5.107  10.025   0.626 -0.0257 -0.1278  0.4861
22309SOL    HW170969   5.016  10.041   0.598 -0.1835 -1.0368  0.4446
22309SOL    HW270970   5.155  10.015   0.544  0.4503  1.9536  0.4557
22310SOL     OW70971   5.806   4.736   7.989  0.4520 -0.2382 -0.5123
22310SOL    HW170972   5.768   4.654   8.022  1.1548 -1.3706 -2.3764
22310SOL    HW270973   5.748   4.762   7.918  1.7116 -0.6442 -1.7378
22311SOL     OW70974   9.544   3.183   0.709 -0.4099  0.3791  0.1752
22311SOL    HW170975   9.561   3.265   0.756 -0.1544  1.0442 -1.0128
22311SOL    HW270976   9.579   3.114   0.765  2.4708  1.3374 -0.2694
22312SOL     OW70977   4.041   3.816   7.520 -0.1512 -0.0133  0.1222
22312SOL    HW170978   4.132   3.788   7.524  0.1046  0.5033 -1.4431
22312SOL    HW270979   4.045   3.910   7.504 -0.9624  0.1059  0.5508
22313SOL     OW70980   9.236   2.858   7.166 -0.5264  0.1528 -0.1166
22313SOL    HW170981   9.272   2.810   7.091 -0.0332  0.5454 -0.1373
22313SOL    HW270982   9.172   2.798   7.204 -1.9023  0.4984 -1.7430
22314SOL     OW70983   8.591   7.314   0.865  0.7027 -0.1980 -0.2647
22314SOL    HW170984   8.615   7.244   0.804  1.1944 -0.6442  0.4296
22314SOL    HW270985   8.644   7.389   0.837 -0.9570  0.4217 -2.0009
22315SOL     OW70986   9.732   6.643   2.859  0.3100 -0.0406  0.0614
22315SOL    HW170987   9.732   6.593   2.941 -3.0736 -1.1640 -0.4798
22315SOL    HW270988   9.716   6.734   2.886 -0.4397 -0.3491  0.6791
22316SOL     OW70989   3.328  10.220   0.090  0.2312  0.5543 -0.2298
22316SOL    HW170990   3.259  10.260   0.141 -0.1297  0.9511 -1.0039
22316SOL    HW270991   3.407  10.227   0.144 -0.2044  0.6829  0.3830
22317SOL     OW70992   0.994   7.769   1.321 -0.8706 -0.0495 -0.4719
22317SOL    HW170993   0.931   7.833   1.289  0.0559  0.6323 -0.9789
22317SOL    HW270994   1.027   7.725   1.242 -0.7974 -0.4843 -0.2045
22318SOL     OW70995   2.143   4.634   0.863  0.0869  0.1894  0.0443
22318SOL    HW170996   2.090   4.565   0.824  1.0073 -0.1963 -0.5753
22318SOL    HW270997   2.154   4.698   0.792  0.5392  0.2001  0.1206
22319SOL     OW70998   5.612   4.993   5.242 -0.0146  0.4355  0.3262
22319SOL    HW170999   5.550   5.045   5.293 -0.2792  1.7150 -1.2113
22319SOL    HW271000   5.582   5.001   5.152  1.8814  0.3902 -0.3685
22320SOL     OW71001   5.883   5.118  10.027  0.3653  0.1821 -0.4934
22320SOL    HW171002   5.887   5.201  10.075  2.0159 -0.5466  0.6848
22320SOL    HW271003   5.934   5.057  10.079  1.4786 -0.8922 -2.6915
22321SOL     OW71004   8.509   1.560   2.678  0.2975  0.3140 -0.0234
22321SOL    HW171005   8.506   1.521   2.765  0.7566 -0.1325 -0.2041
22321SOL    HW271006   8.575   1.629   2.685  0.4981  0.1298 -0.0729
22322SOL     OW71007   1.291   9.770   3.911  0.3215  0.4523 -0.6112
22322SOL    HW171008   1.254   9.845   3.865  1.4202  0.1803 -1.9862
22322SOL    HW271009   1.385   9.775   3.896  0.5096 -0.7478 -0.0246
22323SOL     OW71010   9.318   4.745   3.230 -0.5756 -0.0616  0.4260
22323SOL    HW171011   9.264   4.720   3.155  0.7392 -1.1299 -0.2131
22323SOL    HW271012   9.362   4.664   3.256 -0.3450  0.4786  1.8150
22324SOL     OW71013   0.531   9.982   3.779  0.0614  0.5863 -0.1584
22324SOL    HW171014   0.605   9.963   3.721  0.0243  1.5913 -0.5716
22324SOL    HW271015   0.554   9.942   3.862  0.5005 -0.1778 -0.6375
22325SOL     OW71016   5.094   2.179   2.370  0.3633 -0.4126  0.3200
22325SOL    HW171017   5.136   2.247   2.318 -0.4818 -0.5628 -0.5921
22325SOL    HW271018   5.114   2.098   2.323  0.5235 -0.6765  0.8440
22326SOL     OW71019  10.224   1.910   6.470  0.1577  0.1683  0.0863
22326SOL    HW171020  10.248   1.961   6.393 -0.0027  0.2048  0.0598
22326SOL    HW271021  10.160   1.847   6.438  0.9862 -0.6167 -0.0576
22327SOL     OW71022   5.050   1.865   5.497 -0.1253 -0.0151  0.1624
22327SOL    HW171023   5.001   1.867   5.580 -0.9642  0.5236 -0.3257
22327SOL    HW271024   5.111   1.793   5.507 -0.2617 -0.0010  1.2294
22328SOL     OW71025   9.306   5.367   9.433 -0.0643  0.0332  0.0159
22328SOL    HW171026   9.220   5.341   9.466 -1.0706  0.5364 -2.0168
22328SOL    HW271027   9.303   5.345   9.339  2.9716 -2.2960  0.2912
22329SOL     OW71028   8.462   8.242   7.335 -0.4551  0.4441 -0.5082
22329SOL    HW171029   8.397   8.250   7.404  0.2608 -0.9618  0.3952
22329SOL    HW271030   8.499   8.330   7.326 -0.6900  0.6982  0.7903
22330SOL     OW71031   5.821   7.331   9.269  0.2235 -1.0606 -0.1047
22330SOL    HW171032   5.728   7.308   9.268  0.1403 -0.9204  1.6731
22330SOL    HW271033   5.827   7.404   9.330  1.3176 -0.0851 -1.3315
22331SOL     OW71034   6.019   9.883   5.478  0.0786 -0.1435  0.4016
22331SOL    HW171035   6.025   9.788   5.474  1.8665 -0.1392  1.7768
22331SOL    HW271036   6.017   9.904   5.571 -0.1912  1.1732  0.1286
22332SOL     OW71037   8.931   8.269   5.017 -0.4562 -0.1801 -0.0164
22332SOL    HW171038   8.916   8.301   4.928  0.0161 -0.4279 -0.1829
22332SOL    HW271039   8.898   8.340   5.073  2.4192  1.5940 -0.3480
22333SOL     OW71040   6.386  10.187   1.763 -0.3496  0.2862  0.2321
22333SOL    HW171041   6.477  10.216   1.762 -0.5938  1.0475 -0.3057
22333SOL    HW271042   6.341  10.244   1.701 -0.9790 -0.8107 -0.3441
22334SOL     OW71043   9.563   1.806   3.850  0.4644  0.2722 -0.1682
22334SOL    HW171044   9.556   1.735   3.913  1.2310 -0.7586 -1.1967
22334SOL    HW271045   9.627   1.775   3.786 -0.9616  0.8878 -1.9732
22335SOL     OW71046   6.376   3.674   8.799  0.0172  0.5125 -0.5121
22335SOL    HW171047   6.414   3.758   8.772 -1.0819  0.8247 -1.1859
22335SOL    HW271048   6.396   3.614   8.727  0.8860  0.1555  0.0125
22336SOL     OW71049   5.878   3.238   9.770 -0.4111  0.3099  0.2012
22336SOL    HW171050   5.881   3.281   9.684  1.5824  0.6814  0.4220
22336SOL    HW271051   5.938   3.289   9.825 -1.2233 -0.2575  1.6800
22337SOL     OW71052   8.003   9.903   6.044  0.2015  1.1109  0.1836
22337SOL    HW171053   8.082   9.912   6.097 -0.1979  1.2870  0.7727
22337SOL    HW271054   8.034   9.897   5.954  0.8700  1.3826  0.3896
22338SOL     OW71055   6.513   3.812   0.583  0.1576  0.3259  0.4005
22338SOL    HW171056   6.535   3.870   0.655  1.1022  0.2157  0.2152
22338SOL    HW271057   6.593   3.806   0.531 -0.2288 -0.3311 -0.1461
22339SOL     OW71058   0.839   0.944   1.553  0.1666  0.0610 -0.3599
22339SOL    HW171059   0.909   1.009   1.551 -0.4968  0.9085 -3.9031
22339SOL    HW271060   0.884   0.860   1.547  0.9388  0.5262 -1.3162
22340SOL     OW71061   4.784   8.823   0.923 -0.6745 -0.4935 -0.2847
22340SOL    HW171062   4.706   8.821   0.868  0.2890 -0.4826 -1.7005
22340SOL    HW271063   4.828   8.905   0.899 -0.4376 -0.2761  0.8246
22341SOL     OW71064   2.239   2.500   2.956  0.3020 -0.6074  0.0511
22341SOL    HW171065   2.290   2.452   3.021  0.6329 -0.7587 -0.3203
22341SOL    HW271066   2.277   2.475   2.872  0.7021  0.5673 -0.1316
22342SOL     OW71067   7.148   7.281   9.885  0.0840  0.3513  0.7678
22342SOL    HW171068   7.109   7.208   9.933 -1.3718  0.9452  0.5454
22342SOL    HW271069   7.235   7.250   9.861 -0.5706 -1.3975  0.5069
22343SOL     OW71070   6.781   0.180   6.782 -0.2851 -0.3036  0.1292
22343SOL    HW171071   6.813   0.169   6.693 -0.8123 -0.6276 -0.0231
22343SOL    HW271072   6.826   0.258   6.814 -0.6445  0.2457 -0.6749
22344SOL     OW71073   8.828   8.817   9.224  0.2428 -0.1307 -0.7690
22344SOL    HW171074   8.819   8.813   9.320  0.9428 -0.7296 -0.7203
22344SOL    HW271075   8.780   8.896   9.199  0.1036  0.0676  0.0835
22345SOL     OW71076   0.727   4.351   8.102 -0.6446 -0.5380  0.2198
22345SOL    HW171077   0.646   4.344   8.052 -0.9070  1.6110  0.2625
22345SOL    HW271078   0.740   4.445   8.114  1.3065 -0.8776  1.1256
22346SOL     OW71079   2.425   3.389   9.891  0.5181 -1.1240 -0.1564
22346SOL    HW171080   2.442   3.296   9.909 -2.0171 -1.4366  1.1104
22346SOL    HW271081   2.414   3.428   9.977  0.6031  0.1669 -0.7136
22347SOL     OW71082   5.428   2.989   0.509 -0.1681  1.1898 -0.7500
22347SOL    HW171083   5.521   2.987   0.531 -0.2485 -1.4979 -0.4071
22347SOL    HW271084   5.388   3.039   0.581  0.9165  1.8409 -0.5776
22348SOL     OW71085   9.593   8.539   4.053  0.6355 -0.0590  0.2873
22348SOL    HW171086   9.646   8.472   4.010  0.1366 -0.3702  0.1617
22348SOL    HW271087   9.505   8.502   4.057  0.4762  0.3607  0.7152
22349SOL     OW71088   1.071   6.094   0.706  0.5059  0.0505 -0.3113
22349SOL    HW171089   1.090   6.062   0.618 -0.5737  2.1727 -1.3973
22349SOL    HW271090   1.094   6.187   0.703  1.6168 -0.0697  2.0571
22350SOL     OW71091   7.080   8.918   0.959  0.4665 -0.0463  0.3145
22350SOL    HW171092   7.083   8.998   0.906 -0.8560 -1.2052 -1.6635
22350SOL    HW271093   7.109   8.945   1.046  0.8143  2.3985 -0.4860
22351SOL     OW71094   1.198   1.199   0.555  0.0759  0.1196  0.1531
22351SOL    HW171095   1.199   1.236   0.467 -2.1888 -1.1750 -0.4737
22351SOL    HW271096   1.271   1.137   0.555  2.5915  2.7971  0.5582
22352SOL     OW71097   2.755   5.385   9.553 -0.3021  0.3358  0.5077
22352SOL    HW171098   2.825   5.385   9.487  0.2492  3.0657  0.9807
22352SOL    HW271099   2.800   5.400   9.636 -1.3709  1.8286  0.8599
22353SOL     OW71100   7.814   7.275   5.344 -0.2257 -0.1643 -0.9593
22353SOL    HW171101   7.787   7.345   5.403  3.5582  2.1830 -1.7025
22353SOL    HW271102   7.854   7.210   5.402 -1.0450 -0.2940 -0.5290
22354SOL     OW71103   8.158   1.124   3.056  0.1068  0.6030  0.3850
22354SOL    HW171104   8.248   1.093   3.065 -0.2357 -0.5398  0.0252
22354SOL    HW271105   8.155   1.165   2.969 -0.0273 -0.5229 -0.1655
22355SOL     OW71106   7.861   1.355   4.947  0.1946  0.6767  0.7864
22355SOL    HW171107   7.945   1.311   4.959 -0.1174  0.5641  3.1439
22355SOL    HW271108   7.801   1.308   5.006 -0.7659  2.6287  1.4725
22356SOL     OW71109   8.446   2.471   9.942  0.0124 -0.3427  0.1702
22356SOL    HW171110   8.497   2.396   9.910 -0.6734 -1.4655  1.6541
22356SOL    HW271111   8.481   2.488  10.029  0.9437  1.8440 -0.5484
22357SOL     OW71112  10.078   5.628   6.021  0.3995  0.0519  0.2179
22357SOL    HW171113  10.102   5.711   5.981 -0.4271 -0.1798 -0.8182
22357SOL    HW271114   9.987   5.640   6.050  0.6285 -0.1441  1.0448
22358SOL     OW71115   9.385   1.478   7.493  0.5946 -0.2866  0.5905
22358SOL    HW171116   9.384   1.472   7.589 -0.4474  0.1634  0.6149
22358SOL    HW271117   9.295   1.500   7.469  0.6181 -1.3190 -0.5610
22359SOL     OW71118   3.663   4.248   9.181  0.5223  0.0001  0.0613
22359SOL    HW171119   3.654   4.213   9.270  2.2089 -0.8256 -0.0530
22359SOL    HW271120   3.633   4.178   9.124 -0.3672  0.4567 -0.0512
22360SOL     OW71121   1.183   1.738   1.945 -0.1840 -0.0593 -0.5176
22360SOL    HW171122   1.157   1.830   1.956 -0.3359  0.0321 -1.5355
22360SOL    HW271123   1.196   1.728   1.851 -2.3717 -1.6765 -0.7198
22361SOL     OW71124   4.202   4.997   4.923 -0.5471  0.0523 -0.0984
22361SOL    HW171125   4.151   5.048   4.986 -1.7997 -1.3598  0.0881
22361SOL    HW271126   4.270   5.058   4.893 -0.5064  1.0720  1.8630
22362SOL     OW71127   0.327   5.685   0.396 -0.1044 -0.0511 -0.6282
22362SOL    HW171128   0.376   5.745   0.452 -0.0349 -0.3979 -0.3118
22362SOL    HW271129   0.362   5.598   0.418 -0.9878 -0.3233 -0.2615
22363SOL     OW71130   3.831   7.354   0.774 -0.0115  0.4576  0.4942
22363SOL    HW171131   3.836   7.448   0.756  2.2463  0.2361 -0.3509
22363SOL    HW271132   3.841   7.347   0.869 -1.2249  1.0955  0.6893
22364SOL     OW71133   3.247   6.122   6.357  0.2587  0.2056 -0.0838
22364SOL    HW171134   3.315   6.065   6.394  0.1954  0.5439  0.5822
22364SOL    HW271135   3.252   6.202   6.410 -1.0377  0.0205  0.3699
22365SOL     OW71136   1.175   7.696   3.621 -0.1077 -0.1656 -0.3462
22365SOL    HW171137   1.215   7.778   3.592 -0.3490  1.0558  2.4590
22365SOL    HW271138   1.248   7.646   3.657 -0.0049 -1.1665 -1.8198
22366SOL     OW71139   9.929   5.131   9.847  0.3194  0.7388 -0.3467
22366SOL    HW171140   9.921   5.037   9.855 -2.6576  0.9278 -0.1578
22366SOL    HW271141   9.955   5.145   9.755 -2.1402 -0.2450 -1.2803
22367SOL     OW71142   4.424   7.745   9.914  0.1795 -0.4659  0.1141
22367SOL    HW171143   4.439   7.673   9.852 -2.0623  0.7979 -2.0870
22367SOL    HW271144   4.352   7.713   9.969  0.7210 -0.7493  0.6725
22368SOL     OW71145   9.596   3.058   1.167 -0.1769 -0.2856  0.1521
22368SOL    HW171146   9.609   3.152   1.151 -0.7965 -0.3524 -0.8754
22368SOL    HW271147   9.684   3.021   1.163 -0.0362  0.0947 -0.6789
22369SOL     OW71148  10.092   4.882   1.026 -1.1655 -0.7794 -0.2013
22369SOL    HW171149  10.089   4.900   0.933 -0.4861 -2.8346 -0.6729
22369SOL    HW271150  10.060   4.962   1.067  1.7658  1.4838 -1.9852
22370SOL     OW71151   6.132   3.359   1.593 -0.3088  0.1959 -0.2000
22370SOL    HW171152   6.098   3.271   1.607  0.0189  0.1091  0.0554
22370SOL    HW271153   6.191   3.351   1.518  0.1331  0.0891  0.1565
22371SOL     OW71154   9.648   5.018   0.137  0.0038 -0.5680  0.4264
22371SOL    HW171155   9.725   4.973   0.102  0.8996 -0.1895  1.8439
22371SOL    HW271156   9.617   5.072   0.064  0.2606 -1.7298 -0.5796
22372SOL     OW71157   5.812   3.493   9.331 -0.8240 -0.2502 -0.2022
22372SOL    HW171158   5.718   3.506   9.317 -0.7370  0.7667  0.1001
22372SOL    HW271159   5.843   3.458   9.248 -1.5885 -1.2814 -0.0688
22373SOL     OW71160   7.678  10.035   7.569 -0.1008 -0.7888 -0.1369
22373SOL    HW171161   7.771  10.023   7.589  0.0746  2.1955  1.3916
22373SOL    HW271162   7.641  10.072   7.649 -1.9160  0.9627 -1.6742
22374SOL     OW71163   7.302   6.624   1.578 -0.0862  0.2213  0.4058
22374SOL    HW171164   7.362   6.599   1.508 -0.6913 -0.2183  0.0295
22374SOL    HW271165   7.249   6.546   1.593  0.2562  0.2096  1.5989
22375SOL     OW71166   5.685   3.880   0.536 -0.3460 -0.4305  0.3217
22375SOL    HW171167   5.736   3.856   0.613 -1.5614 -0.4908  1.1410
22375SOL    HW271168   5.749   3.886   0.466  0.7743 -0.5099  1.3039
22376SOL     OW71169   3.816   5.392  10.188  0.0820 -0.6179 -0.4677
22376SOL    HW171170   3.773   5.420  10.269 -0.8706 -0.8373 -0.8940
22376SOL    HW271171   3.892   5.450  10.181 -0.3325  0.0124  0.1112
22377SOL     OW71172   9.093   5.545   2.761 -0.2766 -0.3601  0.2617
22377SOL    HW171173   9.074   5.554   2.854 -0.1321 -1.3370  0.3946
22377SOL    HW271174   9.176   5.499   2.758 -0.4555 -0.6521 -0.3504
22378SOL     OW71175   1.297   0.928   1.259 -0.4441  0.3215 -0.1401
22378SOL    HW171176   1.203   0.939   1.243 -0.9101 -1.4307  1.0856
22378SOL    HW271177   1.328   0.875   1.186 -0.4497  0.7179 -0.4319
22379SOL     OW71178   5.848   4.129   2.758  0.4096  0.2114 -0.1049
22379SOL    HW171179   5.772   4.075   2.736  0.1646 -0.1187  1.4365
22379SOL    HW271180   5.855   4.192   2.686 -1.6626  0.6289  0.0075
22380SOL     OW71181   5.722   1.004   1.367  0.1750 -0.3793  0.2060
22380SOL    HW171182   5.796   0.975   1.313  1.7327  0.3008  1.8626
22380SOL    HW271183   5.658   0.933   1.360  1.0890 -1.1237 -1.0773
22381SOL     OW71184   4.685   3.973   2.437  0.8107 -0.0721  0.0291
22381SOL    HW171185   4.618   3.978   2.505 -0.0054 -2.2848 -0.5390
22381SOL    HW271186   4.684   4.059   2.395 -1.4229  0.0589  0.2727
22382SOL     OW71187   7.633   1.559   4.550  0.1673  0.1233  0.2456
22382SOL    HW171188   7.567   1.505   4.509  0.2408  0.8987 -0.9357
22382SOL    HW271189   7.639   1.526   4.640  1.0978 -2.6120 -0.7398
22383SOL     OW71190   3.835   0.688   5.833 -0.7124 -0.1435 -0.3623
22383SOL    HW171191   3.803   0.626   5.898 -0.8516  0.7993  0.4816
22383SOL    HW271192   3.861   0.765   5.883  0.8666 -0.0551 -1.2240
22384SOL     OW71193   7.146   8.974   4.032 -0.2858 -0.4693  0.0568
22384SOL    HW171194   7.142   8.887   4.070  0.7145 -0.7902 -0.5231
22384SOL    HW271195   7.056   8.994   4.009 -0.4803 -1.5274 -0.1659
22385SOL     OW71196   9.401   5.792   1.311  0.0447 -0.1140  0.2148
22385SOL    HW171197   9.416   5.880   1.346  1.1085 -0.5104  0.8215
22385SOL    HW271198   9.344   5.805   1.235  0.7106  1.1598 -0.0851
22386SOL     OW71199   0.910   3.670   1.769 -0.4694 -0.5716  0.4154
22386SOL    HW171200   0.907   3.761   1.800  0.6318  0.2968 -1.7729
22386SOL    HW271201   0.821   3.638   1.781 -1.0081  0.9652  0.8129
22387SOL     OW71202   6.221   6.616   8.278  0.8032 -0.2591  0.1188
22387SOL    HW171203   6.254   6.528   8.257 -1.9683 -1.5008  0.6046
22387SOL    HW271204   6.234   6.624   8.373 -0.6796 -0.9723  0.4044
22388SOL     OW71205   7.551   3.051   5.270 -0.0388  0.3341 -0.1646
22388SOL    HW171206   7.593   3.027   5.188 -1.0150  0.2931 -0.6651
22388SOL    HW271207   7.582   3.140   5.288 -0.5966  0.7320 -1.1049
22389SOL     OW71208   4.845   9.307   1.882  0.4631 -0.3003  0.1248
22389SOL    HW171209   4.839   9.218   1.847  0.7695  0.1072 -0.9932
22389SOL    HW271210   4.851   9.295   1.977  0.5868 -1.4738 -0.0179
22390SOL     OW71211   3.637   8.547   7.794  0.1832  0.0857  0.0659
22390SOL    HW171212   3.611   8.483   7.728  0.4075 -0.3910  0.4312
22390SOL    HW271213   3.643   8.497   7.876  1.7426  0.2563  0.0907
22391SOL     OW71214   2.502   0.419   4.920 -0.7029 -0.0325 -0.6609
22391SOL    HW171215   2.497   0.323   4.915 -1.0003  0.0088 -1.1851
22391SOL    HW271216   2.590   0.439   4.886 -0.7260 -0.1018 -0.7619
22392SOL     OW71217   7.422   8.160   2.961  0.4728  0.2786  0.5408
22392SOL    HW171218   7.357   8.221   2.997 -0.0348  0.3348 -0.4092
22392SOL    HW271219   7.459   8.207   2.886 -0.2660 -0.7316 -0.5009
22393SOL     OW71220   3.278   1.272   5.646 -0.2750  0.1496  0.0449
22393SOL    HW171221   3.215   1.312   5.586 -0.6096  0.4976  0.6181
22393SOL    HW271222   3.231   1.198   5.684  0.3655 -0.8693 -1.0645
22394SOL     OW71223   7.228   2.841   7.778 -0.0787  0.0726  0.4285
22394SOL    HW171224   7.218   2.854   7.872 -1.1248  0.6205  0.2500
22394SOL    HW271225   7.316   2.873   7.759  0.1632 -0.0987  1.2281
22395SOL     OW71226   9.086   2.411   5.352  1.1681 -0.2632  0.0391
22395SOL    HW171227   9.043   2.432   5.268  0.1350 -0.7806  0.4218
22395SOL    HW271228   9.017   2.371   5.404  1.4688  1.1262  1.5921
22396SOL     OW71229   8.344   1.886   4.969 -0.5782 -0.0238 -0.6996
22396SOL    HW171230   8.278   1.926   5.025  0.9207  0.8434  0.5516
22396SOL    HW271231   8.331   1.792   4.979 -1.7606  0.1277 -0.6810
22397SOL     OW71232   3.358   0.667   8.391  0.0458 -0.0481  0.0511
22397SOL    HW171233   3.279   0.693   8.345 -1.0461  0.5706  2.1293
22397SOL    HW271234   3.331   0.593   8.446  1.2359 -0.6460 -0.1229
22398SOL     OW71235   5.433   2.254   7.322  0.6511 -0.5685 -0.5372
22398SOL    HW171236   5.350   2.242   7.276 -0.8057 -0.8278  1.9996
22398SOL    HW271237   5.461   2.342   7.298 -0.4924 -0.3708 -1.2232
22399SOL     OW71238   1.881   5.110   8.044  0.1539  0.8079 -0.1982
22399SOL    HW171239   1.802   5.060   8.063  1.8908 -1.5045  1.5493
22399SOL    HW271240   1.897   5.095   7.951 -2.2595  2.7140 -1.0308
22400SOL     OW71241   5.079   6.404   8.424  0.0732  0.0343 -0.3142
22400SOL    HW171242   5.021   6.454   8.367 -0.5639 -1.0029 -0.5926
22400SOL    HW271243   5.062   6.438   8.511 -0.8127 -0.1103 -0.4195
22401SOL     OW71244   7.399   8.548   8.280 -0.1159  0.1755 -0.2476
22401SOL    HW171245   7.425   8.474   8.336  0.9073  0.9683  0.3602
22401SOL    HW271246   7.314   8.576   8.316  0.4964  0.6304  0.8946
22402SOL     OW71247   9.558   5.706   9.816 -0.3523  0.0655 -0.1089
22402SOL    HW171248   9.640   5.746   9.845 -1.2102  0.9794  1.1206
22402SOL    HW271249   9.506   5.697   9.895 -0.9390 -1.7668 -0.6551
22403SOL     OW71250   5.198   5.343  10.084 -0.0910  0.2004 -0.2845
22403SOL    HW171251   5.222   5.294  10.163  1.5422  0.5854 -0.4945
22403SOL    HW271252   5.184   5.433  10.114  1.4699  0.5542 -0.5271
22404SOL     OW71253   4.980   7.244   7.117 -0.0832 -0.1003 -0.3373
22404SOL    HW171254   4.994   7.166   7.170  0.3701 -0.2002 -0.6012
22404SOL    HW271255   5.024   7.225   7.034 -1.8321 -0.4668 -1.2478
22405SOL     OW71256   5.746   3.123   9.160 -0.0076  0.1617  0.1107
22405SOL    HW171257   5.713   3.162   9.241  0.9057  0.1509  0.4972
22405SOL    HW271258   5.841   3.136   9.163  0.1178 -0.4571 -0.6301
22406SOL     OW71259   8.296   4.568   5.166 -0.2134 -0.0525 -0.5977
22406SOL    HW171260   8.257   4.615   5.239 -1.0808  0.4144 -1.3467
22406SOL    HW271261   8.279   4.623   5.089  2.0278  0.2352 -0.9566
22407SOL     OW71262   3.935   3.184   2.083 -0.2499 -0.2893  0.0735
22407SOL    HW171263   3.885   3.104   2.068  0.6213 -1.1773  1.6970
22407SOL    HW271264   3.951   3.185   2.178 -0.0424  1.6920  0.0669
22408SOL     OW71265   5.175   4.617   0.143 -0.0023  0.1244  0.0248
22408SOL    HW171266   5.223   4.548   0.098  1.0059  0.5690  0.3792
22408SOL    HW271267   5.084   4.590   0.138  0.1048 -0.0425 -1.9300
22409SOL     OW71268   2.829   8.983   3.435 -0.4573  0.2314 -0.6469
22409SOL    HW171269   2.849   8.889   3.435  1.3622  0.5543  0.6752
22409SOL    HW271270   2.903   9.023   3.389 -0.8903  1.0499 -0.6409
22410SOL     OW71271   1.716   8.247   5.989 -0.6960 -0.2283 -0.4402
22410SOL    HW171272   1.650   8.186   5.956 -0.9266 -0.6871  0.8121
22410SOL    HW271273   1.718   8.231   6.084  0.6997  0.2826 -0.3588
22411SOL     OW71274   1.442   7.372   6.922  0.3863  0.3597  0.1999
22411SOL    HW171275   1.405   7.440   6.866 -2.4958 -2.0421 -1.0701
22411SOL    HW271276   1.512   7.333   6.869 -1.3800 -0.9583 -1.2939
22412SOL     OW71277   7.170   7.436   5.951 -0.1762 -0.3289 -0.2692
22412SOL    HW171278   7.232   7.476   6.012 -2.1204  0.0973  1.5344
22412SOL    HW271279   7.195   7.343   5.949 -1.7607 -1.0693  3.6547
22413SOL     OW71280   3.559   6.855   1.098  0.2850  0.1979  0.0303
22413SOL    HW171281   3.582   6.884   1.009 -1.1161 -2.0019 -1.1323
22413SOL    HW271282   3.640   6.822   1.135  0.5855 -0.2969 -1.0397
22414SOL     OW71283   1.980   2.047   7.427 -0.5535  0.0515  0.0435
22414SOL    HW171284   1.960   1.962   7.466  0.2740 -0.1356  0.0788
22414SOL    HW271285   1.944   2.111   7.488  0.7623 -0.2332  1.1569
22415SOL     OW71286   0.889   8.879   4.388 -0.0841 -0.1913  0.3756
22415SOL    HW171287   0.932   8.922   4.462 -0.6179  1.0447 -0.0052
22415SOL    HW271288   0.847   8.802   4.426  0.1894  0.0791  1.2451
22416SOL     OW71289   0.364   4.492   8.369 -0.0070 -0.3677 -1.1918
22416SOL    HW171290   0.328   4.511   8.456 -0.6433  0.5055 -1.6342
22416SOL    HW271291   0.452   4.457   8.387 -0.7722 -1.8149 -0.1380
22417SOL     OW71292   8.902   6.631   3.567 -1.1688  0.0169 -0.2172
22417SOL    HW171293   8.846   6.569   3.614 -0.8064  1.0736  1.7241
22417SOL    HW271294   8.965   6.576   3.520  0.0731 -1.1349  2.6081
22418SOL     OW71295   6.708   1.455   6.470 -0.0173  0.6017 -0.7642
22418SOL    HW171296   6.665   1.469   6.385  2.9836  0.9577 -2.3743
22418SOL    HW271297   6.758   1.535   6.484  1.1368 -0.2869  0.3141
22419SOL     OW71298   8.209   8.831  10.041  0.1122  0.1980 -0.5407
22419SOL    HW171299   8.301   8.808  10.055  0.1208  0.4051 -0.2525
22419SOL    HW271300   8.209   8.925  10.025  0.2123 -0.1335 -2.9407
22420SOL     OW71301   2.225   6.706   2.409  0.2035  0.4915 -0.0245
22420SOL    HW171302   2.232   6.792   2.367 -0.0980  0.4134 -0.2313
22420SOL    HW271303   2.307   6.698   2.458  1.9817 -0.6617 -2.8957
22421SOL     OW71304   8.479   6.175   0.615 -0.0915  0.1426 -0.4588
22421SOL    HW171305   8.506   6.109   0.678 -1.4015  0.0171 -0.0041
22421SOL    HW271306   8.385   6.187   0.630 -0.5943 -0.3186 -2.7721
22422SOL     OW71307   6.944   6.435   9.776  0.6988 -0.3436 -0.0146
22422SOL    HW171308   6.897   6.438   9.692  0.8513  0.0829 -0.0877
22422SOL    HW271309   6.933   6.345   9.807  1.4761 -0.7840 -0.9701
22423SOL     OW71310   9.396   2.366   2.113  0.0150  0.0264 -0.2610
22423SOL    HW171311   9.305   2.336   2.105  0.1752 -0.1719 -1.6853
22423SOL    HW271312   9.431   2.319   2.188 -0.4450 -1.6053 -1.0261
22424SOL     OW71313   0.945   2.548   1.873 -0.7976 -0.2464 -0.1446
22424SOL    HW171314   0.962   2.578   1.784  0.3389 -1.7984 -0.4868
22424SOL    HW271315   0.979   2.617   1.929 -2.3559  1.1829 -0.8743
22425SOL     OW71316   1.053   2.378   7.306  0.2466  0.5327 -0.2390
22425SOL    HW171317   1.011   2.331   7.379  0.9628  0.0584 -0.1288
22425SOL    HW271318   1.136   2.333   7.292  0.2619  0.8236 -1.1471
22426SOL     OW71319  10.117   7.372   7.924 -0.0283 -0.0774 -0.3856
22426SOL    HW171320  10.118   7.398   8.016 -2.4116  1.0393 -0.6007
22426SOL    HW271321  10.024   7.365   7.902  0.3959 -4.0110 -1.7544
22427SOL     OW71322   6.761   0.909   4.540  0.1880 -0.0620  0.4396
22427SOL    HW171323   6.669   0.882   4.541  0.3089 -0.4746  0.4161
22427SOL    HW271324   6.778   0.941   4.629  0.0746 -0.1662  0.4986
22428SOL     OW71325   5.677   9.753   1.024 -0.1868 -0.1803  0.6723
22428SOL    HW171326   5.681   9.668   1.069  0.2376 -0.7684 -0.4271
22428SOL    HW271327   5.758   9.757   0.974 -0.0476  1.0386  0.9685
22429SOL     OW71328   9.643   9.675   5.820 -0.5542  0.2226 -0.1622
22429SOL    HW171329   9.731   9.658   5.855 -0.9251 -0.2039  0.5944
22429SOL    HW271330   9.613   9.590   5.788 -0.8174  0.3040 -0.1292
22430SOL     OW71331   0.593   7.076   3.844 -0.1788  0.3834  0.4590
22430SOL    HW171332   0.511   7.123   3.859 -0.0368 -0.0229  2.9994
22430SOL    HW271333   0.658   7.144   3.827 -1.1462  0.6628 -2.7830
22431SOL     OW71334   5.677   1.419   4.877  0.8377 -0.5347 -0.7322
22431SOL    HW171335   5.758   1.372   4.853  0.6158 -0.5327 -1.4913
22431SOL    HW271336   5.670   1.490   4.814  0.9156  0.2567  0.1258
22432SOL     OW71337   4.321   7.417   3.132  0.1299 -0.5506  0.0917
22432SOL    HW171338   4.297   7.431   3.041 -1.1621 -1.3680  0.2889
22432SOL    HW271339   4.411   7.384   3.129  0.3747  0.1582 -0.8210
22433SOL     OW71340   7.431   7.460   6.161  0.2760 -0.1764 -0.3059
22433SOL    HW171341   7.483   7.478   6.240  0.6779  1.1751 -0.8601
22433SOL    HW271342   7.491   7.480   6.089 -1.0717  1.6927 -0.9716
22434SOL     OW71343   0.304   7.480   0.571 -0.0382  0.2103  0.0579
22434SOL    HW171344   0.284   7.573   0.560 -0.8789  0.6437  3.7594
22434SOL    HW271345   0.393   7.479   0.608 -0.9975 -0.0943  2.6185
22435SOL     OW71346   8.186   0.897   2.117  0.5657 -0.0588  0.0174
22435SOL    HW171347   8.155   0.809   2.097  0.5784 -0.5153  1.8316
22435SOL    HW271348   8.201   0.937   2.032 -0.2124 -1.5298 -0.8532
22436SOL     OW71349   8.899   9.325   5.564 -0.2336 -0.0153 -0.2880
22436SOL    HW171350   8.856   9.272   5.632 -1.1687  0.2181 -0.6787
22436SOL    HW271351   8.969   9.371   5.610 -1.6784  1.1724  0.8196
22437SOL     OW71352   7.352   7.838   8.697 -0.7078  0.2670  0.1268
22437SOL    HW171353   7.410   7.893   8.750 -0.2228  0.5452 -0.6755
22437SOL    HW271354   7.389   7.843   8.608 -0.6309 -1.3740  0.0380
22438SOL     OW71355   6.780   1.994   5.314 -0.1816  0.2502  0.2662
22438SOL    HW171356   6.816   2.082   5.307  1.4881 -0.4292 -0.3249
22438SOL    HW271357   6.837   1.949   5.377 -0.8834 -0.4571  0.4188
22439SOL     OW71358   0.135   3.382   6.146  0.4408 -0.1557 -0.1067
22439SOL    HW171359   0.147   3.455   6.084 -0.8287 -0.7504 -1.0924
22439SOL    HW271360   0.074   3.416   6.211 -0.7531 -0.5222 -0.9803
22440SOL     OW71361   4.614   2.870   0.176  0.2853 -0.2552 -0.6974
22440SOL    HW171362   4.559   2.793   0.187 -0.0391 -0.0372 -0.7832
22440SOL    HW271363   4.584   2.931   0.244  1.2126 -0.5856  0.0191
22441SOL     OW71364   2.801   9.649   2.380  0.0535  0.0265 -0.1157
22441SOL    HW171365   2.795   9.623   2.288 -0.0411 -0.8040  0.1152
22441SOL    HW271366   2.733   9.598   2.424 -0.4798  1.0587  0.2856
22442SOL     OW71367   8.546   8.495   0.654  0.5774  0.7301 -0.6631
22442SOL    HW171368   8.452   8.515   0.651  0.5118  1.2952  2.1742
22442SOL    HW271369   8.589   8.580   0.644  0.6203  0.9885  1.3008
22443SOL     OW71370   7.926   4.004   8.817 -0.4088  0.6080 -1.0415
22443SOL    HW171371   7.885   4.037   8.737 -0.0126  0.2019 -1.4264
22443SOL    HW271372   7.973   4.079   8.854  0.5050  0.4934 -1.9140
22444SOL     OW71373   6.929   6.585   2.577  0.2931 -0.0358  0.0172
22444SOL    HW171374   7.004   6.600   2.634  0.3121 -1.5677  0.4376
22444SOL    HW271375   6.903   6.672   2.547  1.9519  0.5613  0.2266
22445SOL     OW71376   6.003   7.481   0.829 -0.0829 -0.3320  0.4388
22445SOL    HW171377   5.978   7.405   0.776 -1.5607  0.3343  0.1004
22445SOL    HW271378   6.076   7.520   0.781 -1.3883  0.2574 -1.1867
22446SOL     OW71379   1.895   8.012   6.080  0.0752 -0.1812 -0.2901
22446SOL    HW171380   1.874   7.931   6.126  1.4596 -0.6286 -0.4055
22446SOL    HW271381   1.815   8.064   6.085 -0.7187 -1.4069  0.0932
22447SOL     OW71382   3.710   4.696   0.268  0.5747 -0.3256  0.4458
22447SOL    HW171383   3.784   4.636   0.267 -0.7646 -2.0716  1.2799
22447SOL    HW271384   3.701   4.722   0.360  0.8544  0.8313  0.1655
22448SOL     OW71385   6.947   3.888   9.921  0.5925  0.1396  0.3564
22448SOL    HW171386   6.899   3.905  10.002 -0.3807 -2.2350  0.3693
22448SOL    HW271387   7.016   3.955   9.919 -0.3701  1.2927  2.2687
22449SOL     OW71388   6.555   0.099   1.036  0.4638  0.4560 -0.3386
22449SOL    HW171389   6.596   0.185   1.025  0.3372  0.4739 -0.6787
22449SOL    HW271390   6.484   0.098   0.973  1.1155 -0.3053 -1.0864
22450SOL     OW71391   5.451   8.192   7.523 -0.1475  0.6613 -0.0384
22450SOL    HW171392   5.461   8.138   7.444 -0.0646 -1.0094  1.0641
22450SOL    HW271393   5.539   8.194   7.562 -0.1127  1.7528 -0.1259
22451SOL     OW71394   2.307   5.469   8.993  0.0849 -0.3729 -0.9339
22451SOL    HW171395   2.269   5.408   9.056  1.9708  0.4252  1.1443
22451SOL    HW271396   2.377   5.420   8.950  3.3922  0.7097  2.5864
22452SOL     OW71397   3.098   8.435   8.135 -0.4665 -0.5641  0.3883
22452SOL    HW171398   3.084   8.424   8.229  0.2460 -0.8635  0.4685
22452SOL    HW271399   3.090   8.530   8.121 -1.0858 -0.5760  0.6602
22453SOL     OW71400   5.679   8.673   2.116  0.3397 -0.4145 -0.0270
22453SOL    HW171401   5.675   8.646   2.207  0.8186  2.3375  0.9058
22453SOL    HW271402   5.597   8.642   2.078 -0.4596 -0.4785  1.6815
22454SOL     OW71403   9.044   6.296   4.240 -0.2281 -0.1905  0.0172
22454SOL    HW171404   9.088   6.284   4.156 -0.0769  0.7379 -0.0407
22454SOL    HW271405   9.060   6.214   4.287  1.3943  0.0322 -0.0804
22455SOL     OW71406   3.355   4.999   0.192  0.0590 -0.4630  0.4709
22455SOL    HW171407   3.420   5.060   0.225 -0.6027  0.8462 -0.5463
22455SOL    HW271408   3.301   4.977   0.269  0.0582  0.5526  0.7705
22456SOL     OW71409   5.056   2.575   9.814 -0.1494 -0.2432  0.0534
22456SOL    HW171410   5.102   2.619   9.742  0.7209 -1.4781 -0.1939
22456SOL    HW271411   5.072   2.630   9.890  1.6516 -0.5563 -0.0630
22457SOL     OW71412   2.525   0.178   1.812  0.5244  0.1178 -0.7217
22457SOL    HW171413   2.516   0.180   1.907  1.9178 -0.7862 -0.5367
22457SOL    HW271414   2.523   0.269   1.785  0.5719  0.4064  0.2210
22458SOL     OW71415   4.529   5.432   3.243 -0.2303 -0.4065 -0.3106
22458SOL    HW171416   4.609   5.481   3.267 -0.7107  0.7573 -0.9792
22458SOL    HW271417   4.551   5.390   3.160 -0.4303  0.2432 -0.7002
22459SOL     OW71418   7.392   2.219   5.940  0.4305  0.1276 -0.0156
22459SOL    HW171419   7.345   2.136   5.935 -0.1450  0.4835 -0.6886
22459SOL    HW271420   7.485   2.194   5.946  0.3047 -0.5576 -0.7633
22460SOL     OW71421   7.824   5.220   1.721 -0.5735  0.6021  0.3997
22460SOL    HW171422   7.770   5.149   1.688 -1.5035  0.9912  1.0140
22460SOL    HW271423   7.887   5.178   1.779 -0.2789  0.1486 -0.2438
22461SOL     OW71424   7.042   8.749   3.848  0.1356 -0.1398 -0.4354
22461SOL    HW171425   6.948   8.746   3.826  0.1441  2.5548 -1.2177
22461SOL    HW271426   7.044   8.750   3.943 -0.6055 -0.6016 -0.4065
22462SOL     OW71427   3.523   7.959   6.073 -0.6032 -0.4573 -0.4574
22462SOL    HW171428   3.592   8.011   6.114  0.8758 -1.3070 -1.8132
22462SOL    HW271429   3.513   7.996   5.985 -0.8370 -1.2973 -0.7895
22463SOL     OW71430   8.642   3.670   2.802  0.3675  0.2715  0.2457
22463SOL    HW171431   8.632   3.576   2.818 -0.4734  0.2168 -0.5171
22463SOL    HW271432   8.680   3.704   2.883 -1.0471 -0.4393  1.2433
22464SOL     OW71433   0.017   3.707   1.194  0.4730 -0.5571 -0.1396
22464SOL    HW171434  -0.052   3.682   1.255  0.0454 -1.4392 -0.9533
22464SOL    HW271435   0.025   3.802   1.204  1.0771 -0.7784  1.9495
22465SOL     OW71436   0.684   3.485   0.808  0.0679  0.4786  0.1354
22465SOL    HW171437   0.658   3.493   0.900 -0.7998  1.5267 -0.1917
22465SOL    HW271438   0.612   3.438   0.767  0.4542  0.0142 -0.0276
22466SOL     OW71439   8.115   3.438   7.197 -0.4745  0.0880  0.1074
22466SOL    HW171440   8.108   3.439   7.292 -2.6963  2.1216  0.0172
22466SOL    HW271441   8.050   3.373   7.169 -0.0239 -0.2989 -0.0662
22467SOL     OW71442   0.303   9.085   8.990  0.6149  0.5942  0.5180
22467SOL    HW171443   0.214   9.101   8.960  0.8837  0.3328 -0.4464
22467SOL    HW271444   0.306   8.991   9.007  0.9212  0.4694 -0.1986
22468SOL     OW71445   4.905   3.255   2.892  0.3112  0.1412  0.5418
22468SOL    HW171446   4.871   3.173   2.854  1.0570 -0.5385  1.2945
22468SOL    HW271447   4.902   3.240   2.987 -1.0118  1.6030  0.7558
22469SOL     OW71448   6.125   7.032   2.402  0.0581  0.0400 -0.5661
22469SOL    HW171449   6.139   7.032   2.496 -0.1305 -2.1144 -0.4823
22469SOL    HW271450   6.207   7.067   2.366  1.0090 -1.1380  0.3467
22470SOL     OW71451   5.435   2.756   9.908  0.0641  0.0530  0.3817
22470SOL    HW171452   5.386   2.766   9.990 -0.0624  0.2865  0.2779
22470SOL    HW271453   5.525   2.737   9.936 -0.0414 -0.1637  0.5739
22471SOL     OW71454   6.563   5.774   1.922  0.6222  0.1388 -0.0184
22471SOL    HW171455   6.535   5.791   1.832 -1.0981 -1.3468  0.1780
22471SOL    HW271456   6.566   5.861   1.963 -0.3606  0.6853 -1.0351
22472SOL     OW71457   3.480   9.075   7.260 -0.4539 -0.0044 -0.1651
22472SOL    HW171458   3.404   9.060   7.316  0.2489 -1.7199  0.3803
22472SOL    HW271459   3.443   9.083   7.172 -1.5210  2.2410  0.3926
22473SOL     OW71460   8.461   5.970   4.163 -0.3659 -0.0214  0.0434
22473SOL    HW171461   8.387   6.021   4.193  0.0183 -0.2515  1.4648
22473SOL    HW271462   8.485   5.916   4.238 -0.0160 -1.4258 -1.0305
22474SOL     OW71463   3.015   7.427   7.168  0.0862 -0.3987 -0.3887
22474SOL    HW171464   2.965   7.459   7.243  0.7160 -1.3314  0.4492
22474SOL    HW271465   2.962   7.452   7.092 -0.2463  1.1383  0.3040
22475SOL     OW71466   8.216   6.267   8.104  0.5595  0.3411 -0.1566
22475SOL    HW171467   8.134   6.257   8.152  0.2287 -1.5117 -1.0295
22475SOL    HW271468   8.214   6.357   8.072 -0.6729  0.6267  0.6452
22476SOL     OW71469   9.106   9.569   2.461  0.2394  0.0903  0.1162
22476SOL    HW171470   9.126   9.530   2.546  1.8314 -1.1567 -0.7915
22476SOL    HW271471   9.170   9.640   2.452 -0.5745  0.8819  0.3549
22477SOL     OW71472   3.332   5.807   6.664  0.1691 -0.0349 -0.1985
22477SOL    HW171473   3.262   5.841   6.608 -0.4988 -0.9186  0.0755
22477SOL    HW271474   3.294   5.729   6.704  0.8696  0.1957  0.9609
22478SOL     OW71475   1.612   2.501   8.034  0.1335  0.7240  0.0046
22478SOL    HW171476   1.688   2.482   8.089 -0.3699  0.9669  0.8014
22478SOL    HW271477   1.604   2.597   8.035 -1.8198  0.6300  2.2568
22479SOL     OW71478   2.876   2.904   8.101 -0.3645 -0.6260 -0.2746
22479SOL    HW171479   2.805   2.940   8.048  0.5352  2.3619  0.4075
22479SOL    HW271480   2.845   2.910   8.191  0.6957  0.6303  0.0231
22480SOL     OW71481   6.106   9.279   9.212  0.0716 -0.2702  0.3018
22480SOL    HW171482   6.198   9.298   9.231 -0.3191  0.4605  1.6249
22480SOL    HW271483   6.068   9.364   9.188 -0.3018 -0.5329 -0.0524
22481SOL     OW71484   2.010   2.390   3.118  0.2014  0.1667 -0.0556
22481SOL    HW171485   2.023   2.305   3.160  0.8241 -0.1250 -0.8156
22481SOL    HW271486   2.091   2.438   3.134 -0.1547  0.6425  0.3867
22482SOL     OW71487   3.611   0.592   5.277 -0.9676 -0.8761 -0.5106
22482SOL    HW171488   3.571   0.665   5.230  0.1995  1.9556  2.5859
22482SOL    HW271489   3.679   0.560   5.217  1.3325  3.3732 -0.5470
22483SOL     OW71490   4.693   7.849   9.599  0.6092 -0.2466  0.0630
22483SOL    HW171491   4.784   7.830   9.578  0.6076  0.5867 -0.7329
22483SOL    HW271492   4.647   7.767   9.581  1.2088 -0.7103  0.5966
22484SOL     OW71493  10.293   3.287   5.278  0.2398  0.4606  0.3457
22484SOL    HW171494  10.318   3.350   5.345 -1.4353  1.5873 -0.0278
22484SOL    HW271495  10.252   3.340   5.209 -1.3493 -1.0262  0.0839
22485SOL     OW71496   9.908   1.328   8.163  0.6933  0.4338 -0.5755
22485SOL    HW171497   9.863   1.255   8.119  0.7352 -0.4007  0.7270
22485SOL    HW271498   9.838   1.375   8.209  0.8515  0.4505 -0.3542
22486SOL     OW71499   9.684   0.159   6.255  0.4236 -0.2264 -0.9682
22486SOL    HW171500   9.630   0.229   6.291 -0.4727 -1.2226 -0.3036
22486SOL    HW271501   9.622   0.099   6.214  1.2007 -0.4806 -1.7946
22487SOL     OW71502   0.128   6.812   0.920  0.0011  0.5524 -0.4954
22487SOL    HW171503   0.045   6.819   0.873  0.6925  1.9231 -1.5869
22487SOL    HW271504   0.148   6.902   0.946  0.4639  0.0477  1.0101
22488SOL     OW71505   9.485   7.829   8.603  0.0124 -0.0730  0.1159
22488SOL    HW171506   9.520   7.828   8.514  0.1316 -0.3879  0.1678
22488SOL    HW271507   9.394   7.855   8.592  0.2270  0.6408 -0.0295
22489SOL     OW71508   3.130   0.635   7.302 -0.4791  0.3168  0.3050
22489SOL    HW171509   3.149   0.661   7.211 -0.2424 -0.0336  0.2520
22489SOL    HW271510   3.204   0.669   7.352  0.1450 -0.7725  0.1462
22490SOL     OW71511   5.901   1.515  10.036 -0.1223 -0.1376 -0.0808
22490SOL    HW171512   5.991   1.535  10.011  0.1708 -1.3436 -0.0389
22490SOL    HW271513   5.852   1.514   9.954  0.1286 -0.5808 -0.2253
22491SOL     OW71514   6.768   9.474   5.616 -0.3761 -0.6306  0.2501
22491SOL    HW171515   6.794   9.459   5.525 -1.8655 -2.3608  0.0542
22491SOL    HW271516   6.768   9.570   5.626  1.4919 -0.4670 -1.0277
22492SOL     OW71517   9.997   5.366   4.962 -0.0653  0.0127  0.4666
22492SOL    HW171518  10.012   5.274   4.942  0.3044 -0.0100  0.8185
22492SOL    HW271519   9.912   5.368   5.006  1.4156 -0.6794  3.6782
22493SOL     OW71520   3.510   9.180  10.061 -0.0567 -0.1053  0.3049
22493SOL    HW171521   3.441   9.120  10.086 -0.2770  0.8289  2.1840
22493SOL    HW271522   3.580   9.124  10.027 -0.2483 -1.4540  1.9745
22494SOL     OW71523   3.578   8.634   5.540 -0.0597  0.1346  0.4736
22494SOL    HW171524   3.569   8.543   5.512 -1.1942  0.5344 -0.5475
22494SOL    HW271525   3.502   8.651   5.595  2.2044 -0.6837  4.2594
22495SOL     OW71526   8.396   7.234   5.790  0.4219 -0.0544  0.4251
22495SOL    HW171527   8.425   7.287   5.865 -0.7563 -1.3110  1.8306
22495SOL    HW271528   8.449   7.266   5.717  0.2617  2.5822  1.3319
22496SOL     OW71529   6.611   4.681   2.930  0.1329  0.0584  0.0919
22496SOL    HW171530   6.573   4.729   3.005  1.4396 -1.6214  1.9225
22496SOL    HW271531   6.704   4.674   2.950  0.2855 -1.6674 -0.9924
22497SOL     OW71532   2.593   3.196   3.301  0.4054  0.7991 -0.0444
22497SOL    HW171533   2.561   3.267   3.356 -2.5182  3.4505 -4.5135
22497SOL    HW271534   2.529   3.125   3.312 -0.0513  1.2270  0.0599
22498SOL     OW71535   9.272   3.295   1.854 -0.5678 -0.1994 -0.3390
22498SOL    HW171536   9.224   3.232   1.800 -1.5460 -0.2039  0.5074
22498SOL    HW271537   9.332   3.242   1.906 -2.0291 -0.5906  1.0449
22499SOL     OW71538   0.164   2.717   2.750 -0.1800 -0.0106  0.8501
22499SOL    HW171539   0.243   2.663   2.751  0.7373  1.2845  0.6278
22499SOL    HW271540   0.130   2.711   2.839  0.1730 -0.5601  0.9543
22500SOL     OW71541   6.828   4.215   3.278 -0.4353  0.7093  0.2819
22500SOL    HW171542   6.868   4.198   3.193 -0.5689  1.6657  0.0148
22500SOL    HW271543   6.897   4.195   3.342 -0.9001 -1.8627  0.1116
22501SOL     OW71544   4.018   6.833   1.830  0.0451 -0.1729 -0.0185
22501SOL    HW171545   4.083   6.885   1.876  0.8026 -0.9307 -0.2181
22501SOL    HW271546   4.063   6.752   1.805 -1.0455 -0.8593  0.1214
22502SOL     OW71547   7.662   5.987   7.152  0.6051  0.2305  0.2333
22502SOL    HW171548   7.743   5.947   7.183  1.9078  2.0239 -0.6286
22502SOL    HW271549   7.646   6.059   7.212 -0.0156  0.2558  0.0439
22503SOL     OW71550   0.753   8.154   5.407 -0.1318 -0.3548 -0.3192
22503SOL    HW171551   0.841   8.151   5.370  0.3570 -2.1077  0.8717
22503SOL    HW271552   0.749   8.239   5.451  0.7755 -0.0440 -0.8039
22504SOL     OW71553   1.004   2.986   8.172 -0.9078 -0.3784  0.5512
22504SOL    HW171554   1.022   2.974   8.265 -0.6069  0.1289  0.5592
22504SOL    HW271555   0.929   3.046   8.170  0.6077  1.6140  0.4465
22505SOL     OW71556   1.192   9.929   9.702 -0.7119  0.1821  0.1804
22505SOL    HW171557   1.148   9.913   9.619  0.8433  1.4253 -0.9487
22505SOL    HW271558   1.194  10.025   9.710  1.6116  0.1958  0.2076
22506SOL     OW71559   6.351   7.098   5.761  0.0539 -0.0501  0.1347
22506SOL    HW171560   6.337   7.076   5.854  0.5307  2.0390  0.7517
22506SOL    HW271561   6.380   7.016   5.721 -4.7224 -2.3486  0.7098
22507SOL     OW71562   5.430   8.119   0.152  0.2621  0.6313 -0.1481
22507SOL    HW171563   5.408   8.210   0.131  0.5597  0.8961  0.6320
22507SOL    HW271564   5.526   8.116   0.147  0.4801  1.0370  2.2726
22508SOL     OW71565   0.433   9.550   7.196  0.6949  0.0314  0.1187
22508SOL    HW171566   0.408   9.483   7.259  0.1017  0.9457  0.8924
22508SOL    HW271567   0.520   9.579   7.223  0.8505 -0.2533 -0.0732
22509SOL     OW71568   1.435   6.269   0.371 -0.3762 -0.8060  0.0218
22509SOL    HW171569   1.471   6.210   0.304 -0.9326  0.0697 -1.0761
22509SOL    HW271570   1.451   6.224   0.453 -1.6245 -2.9751 -0.8329
22510SOL     OW71571   0.499   7.221   4.484 -0.2752  0.4703 -0.2219
22510SOL    HW171572   0.552   7.244   4.408 -0.3902 -0.0521 -0.4647
22510SOL    HW271573   0.425   7.282   4.482 -0.2899  0.4413 -0.5414
22511SOL     OW71574   7.046   9.802   1.655 -0.1020 -0.2369 -0.3716
22511SOL    HW171575   6.969   9.761   1.617 -0.1808  0.5298 -1.0659
22511SOL    HW271576   7.093   9.840   1.581  0.0469  0.7815  0.2161
22512SOL     OW71577   7.210   9.668   7.090 -0.0900 -0.1080  0.0654
22512SOL    HW171578   7.280   9.606   7.073 -0.1912 -0.2686  0.2249
22512SOL    HW271579   7.226   9.741   7.030  1.7378  1.0973  1.8822
22513SOL     OW71580   8.090   1.297   3.404  0.0488 -0.2037 -0.3099
22513SOL    HW171581   8.046   1.219   3.437 -0.2905 -1.3460 -3.1636
22513SOL    HW271582   8.183   1.282   3.421  0.0225 -1.4363 -1.1709
22514SOL     OW71583   4.354   0.349   3.745 -0.8385  0.2726  0.3650
22514SOL    HW171584   4.282   0.349   3.808 -2.1584 -1.0441 -1.0676
22514SOL    HW271585   4.312   0.353   3.660  0.8757  1.2539 -0.5009
22515SOL     OW71586   9.983   9.861   6.302  0.3356  0.9620 -0.0600
22515SOL    HW171587  10.072   9.871   6.336 -0.2542  1.6926  1.3176
22515SOL    HW271588   9.929   9.915   6.358 -0.7346  2.0769 -2.0449
22516SOL     OW71589   9.405   6.294   1.478 -0.5485  0.4137  0.1971
22516SOL    HW171590   9.444   6.371   1.519  1.4864 -0.4524  0.0473
22516SOL    HW271591   9.331   6.271   1.534  2.1782 -0.8049  3.6955
22517SOL     OW71592   2.314   2.342   5.731  0.0045 -0.2345  0.2494
22517SOL    HW171593   2.232   2.387   5.709 -0.0610 -0.4841 -0.0124
22517SOL    HW271594   2.381   2.386   5.679 -0.2878 -1.4305 -1.1815
22518SOL     OW71595   7.524   5.994   7.716  0.0590 -0.1832  0.1886
22518SOL    HW171596   7.576   5.947   7.781  1.3408  0.1698 -0.5537
22518SOL    HW271597   7.557   6.084   7.719 -0.7531  0.1369 -0.0655
22519SOL     OW71598   4.077   7.918  10.016 -0.3267 -0.1142  0.6211
22519SOL    HW171599   4.034   7.846   9.969  0.0838  1.1505 -1.8755
22519SOL    HW271600   4.083   7.989   9.951  0.5812  1.6775  2.5381
22520SOL     OW71601   4.933   9.519   4.871  0.5599 -0.5985 -0.3117
22520SOL    HW171602   4.860   9.485   4.922  1.2227 -0.2110  0.9276
22520SOL    HW271603   4.892   9.557   4.793 -0.3980 -1.9513 -0.5018
22521SOL     OW71604   8.395   5.081   7.424  0.1082  0.4342  0.4652
22521SOL    HW171605   8.322   5.020   7.434 -0.1428  0.6188 -0.2026
22521SOL    HW271606   8.367   5.160   7.470 -0.8964  1.1562 -1.2949
22522SOL     OW71607   9.916   2.948   4.971 -0.2887  0.1440  0.3406
22522SOL    HW171608   9.889   2.995   4.892  0.2174 -3.4454 -2.2175
22522SOL    HW271609   9.841   2.954   5.030 -1.2041  1.8154 -0.9028
22523SOL     OW71610   3.773   3.162   4.429  0.2826  0.6254  0.3611
22523SOL    HW171611   3.809   3.182   4.516  0.2903  0.7507  0.3281
22523SOL    HW271612   3.678   3.171   4.439  0.2101 -0.2574  0.5983
22524SOL     OW71613   9.829   3.048   2.614  0.1687  0.6086  0.4265
22524SOL    HW171614   9.803   3.048   2.706 -2.3326  1.6183 -0.2224
22524SOL    HW271615   9.838   3.140   2.591  3.1766  0.3698  0.1917
22525SOL     OW71616   3.744   6.142   1.590 -0.3084  0.0164 -0.1055
22525SOL    HW171617   3.656   6.178   1.604 -0.3438 -0.3386  0.6097
22525SOL    HW271618   3.739   6.053   1.624  0.3220 -0.0162 -0.0906
22526SOL     OW71619   3.284   1.475   3.477 -0.9163 -0.0808  0.0066
22526SOL    HW171620   3.375   1.481   3.505 -1.2030 -2.2235  1.6370
22526SOL    HW271621   3.244   1.413   3.538 -2.6409 -1.8261 -2.6885
22527SOL     OW71622   4.651   2.758   3.607  0.0427 -0.1990 -0.0009
22527SOL    HW171623   4.587   2.704   3.653 -0.2690 -0.3817 -0.6270
22527SOL    HW271624   4.662   2.715   3.522  1.4622 -0.5150  0.3152
22528SOL     OW71625   2.682   6.052   8.459  0.2944 -0.0231 -0.8132
22528SOL    HW171626   2.716   6.141   8.443  0.9796 -0.0119  0.5347
22528SOL    HW271627   2.761   5.998   8.467 -0.1065 -0.6490 -1.0885
22529SOL     OW71628   7.595   0.773   6.776 -0.8257  0.2612  0.3728
22529SOL    HW171629   7.506   0.804   6.796 -1.0605 -0.9481  1.2474
22529SOL    HW271630   7.651   0.822   6.836 -0.7626  1.7094 -0.8024
22530SOL     OW71631   6.225   1.083   2.844 -0.2933  0.1162  0.0940
22530SOL    HW171632   6.315   1.102   2.870  0.2769 -1.8745 -0.3117
22530SOL    HW271633   6.226   1.085   2.749 -0.4066 -1.0098  0.0589
22531SOL     OW71634   2.810   2.106   1.325  0.1502  0.0834  0.1645
22531SOL    HW171635   2.792   2.086   1.233 -1.3063  1.0885  0.2074
22531SOL    HW271636   2.738   2.162   1.352  0.2844 -0.5964  2.0788
22532SOL     OW71637   7.761   1.137   7.886  0.2438 -0.0119 -0.1705
22532SOL    HW171638   7.801   1.053   7.864  0.2880  0.1473 -0.7283
22532SOL    HW271639   7.668   1.124   7.868 -0.2112 -0.7764  2.3099
22533SOL     OW71640   9.025   5.201   4.775  0.5112 -0.2591  0.9405
22533SOL    HW171641   9.093   5.255   4.814  0.4669 -0.1498  0.8656
22533SOL    HW271642   9.026   5.120   4.827  1.6200 -0.8052  0.0964
22534SOL     OW71643   1.360   3.422   9.921 -0.3526 -0.2078  0.5330
22534SOL    HW171644   1.315   3.349   9.878 -1.5078  0.1263  1.1573
22534SOL    HW271645   1.419   3.380   9.984 -0.6387 -0.6114  0.5338
22535SOL     OW71646   4.111   8.692  10.225 -0.3434 -0.0559  0.0107
22535SOL    HW171647   4.196   8.708  10.184  0.7020 -1.2462  1.6183
22535SOL    HW271648   4.127   8.702  10.319 -2.0762  0.0894  0.3188
22536SOL     OW71649   9.085   1.058   7.110  0.7263  0.0262 -0.1143
22536SOL    HW171650   9.137   1.131   7.076 -0.3378  0.5604 -0.6485
22536SOL    HW271651   9.054   1.090   7.195  0.8905 -0.1085 -0.0038
22537SOL     OW71652   9.397   2.415  10.295 -0.2579  0.1856  0.0989
22537SOL    HW171653   9.433   2.454  10.375 -0.1576  2.0484 -0.8075
22537SOL    HW271654   9.457   2.343  10.275  0.1142  0.1371  1.3123
22538SOL     OW71655   6.879   3.235   0.133 -0.3610 -0.2300 -0.3390
22538SOL    HW171656   6.956   3.190   0.098 -0.0057  1.1518 -1.4189
22538SOL    HW271657   6.814   3.166   0.147  1.2555 -1.5243  1.2154
22539SOL     OW71658   3.272   1.299   0.117 -0.1460 -0.1620 -0.5368
22539SOL    HW171659   3.235   1.374   0.164  0.6246  1.0222 -1.7112
22539SOL    HW271660   3.367   1.312   0.123  0.0237 -1.5730  0.0225
22540SOL     OW71661   5.747   7.566   2.048  0.2963  0.4911 -0.4275
22540SOL    HW171662   5.735   7.472   2.030 -0.0329  0.1178  1.5526
22540SOL    HW271663   5.840   7.573   2.071  0.1695  0.5334  0.0688
22541SOL     OW71664   0.985   0.114  10.119  0.8984  0.0549  0.9499
22541SOL    HW171665   1.007   0.155  10.202  0.5848 -0.0882  1.1049
22541SOL    HW271666   0.889   0.108  10.120  0.8360  0.7341  0.2625
22542SOL     OW71667   3.464   6.874   7.804  0.2585  0.2297  0.4756
22542SOL    HW171668   3.505   6.957   7.780  0.4358  0.4936  1.6450
22542SOL    HW271669   3.514   6.843   7.880  0.0902 -0.8735  0.1621
22543SOL     OW71670   3.936   5.787   1.098 -0.1733 -0.0629  0.3748
22543SOL    HW171671   3.999   5.829   1.040 -1.5687 -0.0837 -1.2274
22543SOL    HW271672   3.853   5.792   1.052 -1.1426 -1.0983  1.8880
22544SOL     OW71673  10.040   4.576   7.264 -0.2371 -0.0943 -0.1229
22544SOL    HW171674   9.971   4.618   7.316  1.0264  2.3421 -0.2901
22544SOL    HW271675  10.037   4.620   7.180 -0.5281 -2.2089 -1.3007
22545SOL     OW71676   3.335   7.958   2.605 -0.6210  0.2597 -0.1712
22545SOL    HW171677   3.392   7.882   2.603  0.5054  1.0823 -0.4804
22545SOL    HW271678   3.382   8.025   2.554 -2.0905  0.8111 -0.8721
22546SOL     OW71679   2.049   9.473   6.064 -0.2197 -0.2151 -0.2231
22546SOL    HW171680   2.096   9.550   6.094 -0.4738  0.0434 -0.4765
22546SOL    HW271681   1.958   9.490   6.088 -0.2362 -0.5508 -0.0497
22547SOL     OW71682   8.706   8.801   0.675  0.1686  0.0750 -0.1104
22547SOL    HW171683   8.768   8.735   0.645 -0.9312 -0.8747 -0.3849
22547SOL    HW271684   8.746   8.839   0.753  0.4524 -1.5531  0.5840
22548SOL     OW71685   6.282   1.218   8.053  0.6371 -0.2449  0.3245
22548SOL    HW171686   6.301   1.306   8.019  2.9302 -0.5306  0.7026
22548SOL    HW271687   6.318   1.159   7.987  0.2544 -0.8960  0.6898
22549SOL     OW71688   7.862   6.310   9.058  0.9400  0.2912 -0.6447
22549SOL    HW171689   7.932   6.267   9.106  0.0185 -0.3676  0.1411
22549SOL    HW271690   7.792   6.244   9.053 -0.7827  1.8345  1.1932
22550SOL     OW71691   4.476   2.829   0.464  0.2439 -0.2278 -0.1825
22550SOL    HW171692   4.400   2.850   0.519  0.6444  0.4539  0.1291
22550SOL    HW271693   4.440   2.776   0.393 -0.2776 -1.1710  0.7537
22551SOL     OW71694   2.245   6.703   0.320 -0.2176  0.0232  0.0432
22551SOL    HW171695   2.204   6.623   0.288 -1.4498  0.5557  0.2276
22551SOL    HW271696   2.317   6.672   0.376 -0.9705 -0.9731  0.5051
22552SOL     OW71697   0.299   5.532   4.960 -0.1421  0.5167 -0.8899
22552SOL    HW171698   0.252   5.482   4.893 -2.6268  0.3692  0.8341
22552SOL    HW271699   0.278   5.623   4.941 -1.0352  0.4615 -0.2228
22553SOL     OW71700   7.469   2.044   2.940 -0.3518 -1.1173  0.1672
22553SOL    HW171701   7.535   1.976   2.952 -0.0517 -0.4954  2.7128
22553SOL    HW271702   7.502   2.119   2.990 -2.0480 -0.1215 -0.1050
22554SOL     OW71703   2.662   2.582   5.319  0.0096 -0.0224  0.0926
22554SOL    HW171704   2.735   2.522   5.333  0.3104  0.3441  0.1378
22554SOL    HW271705   2.585   2.526   5.310  0.4904 -0.4968 -1.3321
22555SOL     OW71706   1.372   0.944   2.858 -0.4125 -0.5536  0.6178
22555SOL    HW171707   1.423   1.022   2.837  2.1968 -2.0817  0.8528
22555SOL    HW271708   1.382   0.887   2.781 -0.9858 -1.2900  1.0756
22556SOL     OW71709  10.136   3.002   1.033 -0.0245 -0.6223 -0.0362
22556SOL    HW171710  10.153   2.922   1.083 -1.5194 -1.2608 -0.5110
22556SOL    HW271711  10.192   3.068   1.075 -1.7175 -0.9438  3.0012
22557SOL     OW71712   1.472   3.693   1.803 -0.2856  0.0523 -0.2334
22557SOL    HW171713   1.404   3.685   1.870  0.0077  0.4830  0.1207
22557SOL    HW271714   1.540   3.633   1.831 -1.1458 -1.5609 -1.4003
22558SOL     OW71715   4.541   9.037   4.304  0.0573 -0.1059  1.0770
22558SOL    HW171716   4.615   9.051   4.246 -0.5679 -2.7311 -0.5651
22558SOL    HW271717   4.472   9.095   4.271  0.0974 -0.7031 -0.0978
22559SOL     OW71718   1.809   5.494   3.794 -0.0225 -0.2850 -0.4924
22559SOL    HW171719   1.848   5.567   3.747 -0.9317  1.5595  1.4344
22559SOL    HW271720   1.872   5.474   3.863  0.4578 -1.7294 -1.3050
22560SOL     OW71721   2.997   9.028   7.968 -0.7176  0.1547 -1.2484
22560SOL    HW171722   3.064   9.096   7.961  2.7627 -2.8497 -0.2030
22560SOL    HW271723   2.952   9.048   8.050  1.6429  0.1732  0.1360
22561SOL     OW71724   3.582   0.260   9.953 -0.2356  0.3501  1.0575
22561SOL    HW171725   3.671   0.251   9.917 -0.1681  0.4717  1.1941
22561SOL    HW271726   3.526   0.270   9.877  0.0301  1.7192  1.0110
22562SOL     OW71727   8.529   9.971  10.063  0.4089  0.2391  0.2644
22562SOL    HW171728   8.540  10.066  10.064 -0.8992  0.4186 -0.1453
22562SOL    HW271729   8.552   9.945   9.974  1.0910  0.1178  0.4704
22563SOL     OW71730   8.961   1.072   8.326  0.4147 -0.1778  0.6446
22563SOL    HW171731   8.879   1.096   8.369 -1.1246 -0.9479 -1.6853
22563SOL    HW271732   8.965   0.977   8.333 -0.7248 -0.5321 -2.1162
22564SOL     OW71733   9.633   5.887   6.657  0.5091  0.0197 -0.2425
22564SOL    HW171734   9.617   5.794   6.643  0.4141  0.0892 -0.6215
22564SOL    HW271735   9.722   5.892   6.693  0.6408 -0.1932 -0.5369
22565SOL     OW71736   3.931   3.400   5.502  0.2476 -0.4143  0.6465
22565SOL    HW171737   3.973   3.429   5.583 -0.8291  0.9232  0.7456
22565SOL    HW271738   3.904   3.480   5.459  1.1591 -1.0794 -1.2650
22566SOL     OW71739   6.181   5.620   0.597  0.4374 -0.7801  0.3894
22566SOL    HW171740   6.126   5.670   0.536  1.6660 -1.6311 -1.5400
22566SOL    HW271741   6.174   5.667   0.680 -0.4088  1.1331 -0.6857
22567SOL     OW71742   6.975   1.993   8.509  0.4317 -0.1702  0.0034
22567SOL    HW171743   6.887   2.031   8.510  0.0557 -1.0164 -0.1255
22567SOL    HW271744   7.034   2.069   8.512 -0.2952  0.4171 -0.3093
22568SOL     OW71745   9.019   3.593   4.794 -0.0904 -0.1215 -0.0757
22568SOL    HW171746   8.938   3.569   4.750  0.9915 -0.0199 -2.2178
22568SOL    HW271747   8.998   3.673   4.842 -0.8335  0.9213 -2.0568
22569SOL     OW71748   9.593   4.275   6.306  0.3440  0.1713  0.1516
22569SOL    HW171749   9.615   4.368   6.312  0.5351  0.2273 -1.0816
22569SOL    HW271750   9.528   4.270   6.236 -1.6214 -0.3387  1.9435
22570SOL     OW71751   3.251   3.853   0.463  0.2565 -0.5974 -0.4328
22570SOL    HW171752   3.249   3.899   0.379  1.2175 -0.8419 -0.6005
22570SOL    HW271753   3.344   3.837   0.479 -0.0322 -4.0078 -1.2347
22571SOL     OW71754   9.600   5.020   1.477  0.1285  0.1102 -0.4794
22571SOL    HW171755   9.637   5.108   1.483  1.5000 -0.4693  4.2014
22571SOL    HW271756   9.521   5.024   1.531  0.0322 -1.4054 -0.4763
22572SOL     OW71757   0.204   5.282   3.346 -0.5150 -0.1097 -0.8312
22572SOL    HW171758   0.256   5.308   3.271 -2.1235 -0.3061 -2.0680
22572SOL    HW271759   0.241   5.331   3.419  2.9075 -2.0124 -1.0874
22573SOL     OW71760   4.938   3.572   6.179  0.4292  0.2616 -0.4471
22573SOL    HW171761   4.874   3.636   6.212 -0.1962 -0.6843  0.2254
22573SOL    HW271762   4.968   3.609   6.096 -0.5630  1.0077 -0.4947
22574SOL     OW71763   2.334   0.120   3.423 -0.8381 -0.2172  0.1438
22574SOL    HW171764   2.247   0.128   3.462 -1.4899 -1.4289 -0.9660
22574SOL    HW271765   2.386   0.190   3.463 -1.8561 -0.5029  2.0500
22575SOL     OW71766   7.405   1.492   6.538 -0.5941  0.4790 -0.3551
22575SOL    HW171767   7.377   1.455   6.622 -1.5025 -0.3211 -0.9864
22575SOL    HW271768   7.494   1.522   6.554 -0.0495 -1.3637  0.4136
22576SOL     OW71769   9.494   9.177   9.913  0.3962  0.3465 -0.3338
22576SOL    HW171770   9.571   9.158   9.859  0.6318 -1.2781  0.5169
22576SOL    HW271771   9.512   9.264   9.949  2.2327 -0.2965  0.4316
22577SOL     OW71772   5.713   1.047   8.442  0.0084 -0.3264 -0.2445
22577SOL    HW171773   5.787   1.098   8.476 -1.4305  1.3131  0.6113
22577SOL    HW271774   5.655   1.113   8.403 -1.5291 -1.4086  0.1305
22578SOL     OW71775   6.046   2.720   7.123  0.0720 -0.2365  0.3443
22578SOL    HW171776   5.951   2.717   7.112  0.0659  0.0362  0.3022
22578SOL    HW271777   6.080   2.651   7.067 -0.1821 -1.2621  1.4091
22579SOL     OW71778   8.714   5.171   7.490 -0.6288  0.1664 -0.1674
22579SOL    HW171779   8.770   5.178   7.412  0.3095  0.1356  0.4882
22579SOL    HW271780   8.627   5.153   7.455 -0.5469  1.7236 -1.2966
22580SOL     OW71781   1.853   5.218   4.890 -0.0431  0.5046  0.4716
22580SOL    HW171782   1.845   5.314   4.894 -0.3914  0.4468  1.6818
22580SOL    HW271783   1.799   5.187   4.963 -0.3021 -0.6419 -0.1917
22581SOL     OW71784   2.342   1.075   5.078 -0.1172 -0.3287  0.2529
22581SOL    HW171785   2.416   1.015   5.078 -0.2788 -0.5304  0.0642
22581SOL    HW271786   2.286   1.044   5.007 -0.8264 -0.7450  0.9715
22582SOL     OW71787   7.840   8.121   7.861  0.2173 -0.3321 -0.2075
22582SOL    HW171788   7.876   8.109   7.773  0.0324 -1.3130 -0.1700
22582SOL    HW271789   7.907   8.086   7.919  0.5887  0.8565  0.0838
22583SOL     OW71790   9.327   3.828   4.617 -0.3317 -0.8836  0.4030
22583SOL    HW171791   9.347   3.843   4.524 -0.7541  0.0901  0.4627
22583SOL    HW271792   9.254   3.767   4.616 -0.4583 -0.7286  0.0918
22584SOL     OW71793   4.620   7.237   5.279  0.7095  0.1170  0.4795
22584SOL    HW171794   4.539   7.272   5.243  0.8731  0.1491  0.1327
22584SOL    HW271795   4.625   7.147   5.245  1.9203  0.8228 -1.3655
22585SOL     OW71796   4.675   2.788   5.739 -0.1581 -0.5666  0.0644
22585SOL    HW171797   4.675   2.693   5.746 -0.7338 -0.5603  0.2444
22585SOL    HW271798   4.767   2.812   5.727  0.6197 -0.8693  3.9172
22586SOL     OW71799   7.514   7.752   9.701  0.0228 -0.4594 -0.0902
22586SOL    HW171800   7.586   7.785   9.754  0.2160  2.2620 -1.8457
22586SOL    HW271801   7.555   7.727   9.618 -0.7708 -1.0878 -0.3106
22587SOL     OW71802   9.950   4.670   4.193  1.1525 -0.4022 -0.3744
22587SOL    HW171803  10.015   4.718   4.141  1.4052 -2.1657 -1.7745
22587SOL    HW271804   9.900   4.620   4.129 -1.6138  0.8431  0.6605
22588SOL     OW71805   0.409   6.754   4.233  0.2052  0.3673  0.2778
22588SOL    HW171806   0.320   6.748   4.196 -0.7726  0.2846  2.4970
22588SOL    HW271807   0.445   6.666   4.222 -0.2783  0.1885  0.0682
22589SOL     OW71808   1.160   3.381   3.580 -0.3498 -0.4412  0.3172
22589SOL    HW171809   1.101   3.307   3.582 -0.3869 -0.6219 -2.9591
22589SOL    HW271810   1.247   3.343   3.569 -0.2648 -0.0234 -0.4919
22590SOL     OW71811   2.334   7.518   4.106  0.1585  0.2684  0.3288
22590SOL    HW171812   2.252   7.470   4.092 -0.3671  1.2722 -0.1843
22590SOL    HW271813   2.320   7.602   4.063  0.4367  1.5318  2.5280
22591SOL     OW71814   4.695   0.837   0.456  0.0196 -0.5172 -0.1320
22591SOL    HW171815   4.708   0.873   0.543  0.5111  0.4128 -0.5786
22591SOL    HW271816   4.613   0.876   0.426  0.4163  0.0313 -0.5141
22592SOL     OW71817   9.152   8.127   4.634 -0.1704  0.3627  0.2629
22592SOL    HW171818   9.242   8.101   4.614 -0.4148  0.1700 -0.6481
22592SOL    HW271819   9.111   8.048   4.669 -0.4047  0.0138 -0.7783
22593SOL     OW71820   5.198   0.663   0.926 -0.0044  0.3780 -0.0932
22593SOL    HW171821   5.172   0.750   0.897  0.2100 -0.1085 -1.9432
22593SOL    HW271822   5.115   0.616   0.937 -0.0945  0.2960 -0.9793
22594SOL     OW71823   3.711   9.239   8.493 -0.2386 -0.1710 -0.1950
22594SOL    HW171824   3.676   9.234   8.404 -1.3165 -0.4544  0.2187
22594SOL    HW271825   3.784   9.177   8.493 -0.8751 -0.9567 -0.6201
22595SOL     OW71826   4.930   8.017   2.810  0.0527  0.1683 -0.5658
22595SOL    HW171827   4.879   7.936   2.799 -0.0178  0.0673  0.4392
22595SOL    HW271828   4.918   8.064   2.727  1.4548 -1.5937 -1.8599
22596SOL     OW71829   2.447   8.855   7.866 -0.6767 -0.2509 -0.1144
22596SOL    HW171830   2.381   8.786   7.862 -1.7301  0.7537 -0.7676
22596SOL    HW271831   2.461   8.880   7.774  2.0046 -1.6719 -0.1886
22597SOL     OW71832   3.139   4.111   6.896 -0.0685 -0.0533 -0.3496
22597SOL    HW171833   3.062   4.055   6.886  0.3832 -0.7133 -0.1152
22597SOL    HW271834   3.189   4.097   6.816 -0.4689  0.8301 -0.7799
22598SOL     OW71835   5.877   0.003   2.188 -0.0088  0.1006 -0.3680
22598SOL    HW171836   5.843  -0.062   2.126  0.4334 -0.4251 -0.0801
22598SOL    HW271837   5.808   0.013   2.253  0.6959 -1.6865  0.7500
22599SOL     OW71838   1.203   4.143   4.344 -0.0258  0.2371  0.4175
22599SOL    HW171839   1.296   4.124   4.332 -0.2326 -1.1156  0.7950
22599SOL    HW271840   1.201   4.232   4.381  1.0750  0.4710 -0.0478
22600SOL     OW71841   5.385   3.689   8.868  0.1091  0.1604  0.4322
22600SOL    HW171842   5.350   3.665   8.954 -0.8850 -1.8471 -0.4726
22600SOL    HW271843   5.310   3.726   8.822  0.6844  1.3949  0.4668
22601SOL     OW71844   7.248   9.487   3.871  0.1675 -0.4214  0.1262
22601SOL    HW171845   7.201   9.568   3.850  0.5477  0.4126  2.2393
22601SOL    HW271846   7.189   9.439   3.929  0.8707 -0.5881  0.7159
22602SOL     OW71847   6.312   2.571   9.038  0.4155  0.3271 -0.2748
22602SOL    HW171848   6.307   2.479   9.013  1.6911 -0.0026  0.5558
22602SOL    HW271849   6.274   2.574   9.126  0.6721  0.5383 -0.1710
22603SOL     OW71850   2.233   9.392   0.256  0.1862 -0.2680 -0.7152
22603SOL    HW171851   2.184   9.344   0.323 -0.2325 -0.4867 -1.1675
22603SOL    HW271852   2.324   9.387   0.285  0.0355 -0.5432 -0.2725
22604SOL     OW71853   8.526   5.732   1.616  0.3647  0.4207  0.1642
22604SOL    HW171854   8.585   5.663   1.586  0.9984  0.9494  0.1661
22604SOL    HW271855   8.440   5.708   1.581  0.9996  0.8095 -1.7671
22605SOL     OW71856   5.272   8.587   7.241 -0.1336  0.2434  0.4754
22605SOL    HW171857   5.249   8.518   7.304 -0.4214 -0.5453 -0.4694
22605SOL    HW271858   5.325   8.649   7.291 -1.2074  0.1694  1.7649
22606SOL     OW71859   9.842   1.736   0.746  0.1066 -0.3117  0.3793
22606SOL    HW171860   9.931   1.723   0.777 -0.5404 -0.4897  2.3079
22606SOL    HW271861   9.806   1.803   0.804 -1.1928 -0.6638  0.0187
22607SOL     OW71862   0.064   6.757   0.555 -0.0123 -0.0598  0.4082
22607SOL    HW171863  -0.009   6.717   0.603  0.5584 -0.2021  1.1955
22607SOL    HW271864   0.035   6.759   0.464 -0.1303 -2.1445  0.3495
22608SOL     OW71865   5.071   1.808   1.030 -0.1664 -0.4117 -0.3096
22608SOL    HW171866   5.029   1.748   0.969  0.3281 -1.1224  0.0307
22608SOL    HW271867   5.003   1.870   1.054 -0.9151 -1.3177 -0.0450
22609SOL     OW71868   9.236   6.284   2.375 -0.2662 -0.0151  0.3644
22609SOL    HW171869   9.181   6.275   2.453 -1.2893 -2.6434 -0.5325
22609SOL    HW271870   9.174   6.281   2.302  0.8725 -0.4534 -0.6176
22610SOL     OW71871   9.127   6.445   7.054  0.1987  0.1980 -0.8545
22610SOL    HW171872   9.146   6.388   6.979 -0.9837 -1.9680  0.3907
22610SOL    HW271873   9.207   6.495   7.066  1.0765 -0.7232 -2.4324
22611SOL     OW71874   3.064   7.531   5.101  0.4333 -0.2048 -0.0041
22611SOL    HW171875   3.017   7.449   5.087 -1.4568  0.6384  0.9580
22611SOL    HW271876   3.140   7.507   5.153  0.7054 -1.5227 -0.9581
22612SOL     OW71877   8.126   1.119   8.653  0.3664  0.0587  0.2140
22612SOL    HW171878   8.038   1.110   8.617  0.9543 -0.3198 -1.1922
22612SOL    HW271879   8.141   1.038   8.702  0.5918 -0.6937 -1.0666
22613SOL     OW71880   2.555   1.045   5.506  0.3291 -0.2343 -0.1875
22613SOL    HW171881   2.577   1.051   5.599 -0.5966  0.1928  0.0165
22613SOL    HW271882   2.567   0.952   5.485 -3.3253 -1.2930  1.4425
22614SOL     OW71883   2.575   8.548   3.517 -0.0542  0.2536 -0.3762
22614SOL    HW171884   2.533   8.625   3.478  1.1441  0.2296 -1.7747
22614SOL    HW271885   2.622   8.583   3.593 -0.7204  0.6391 -0.1271
22615SOL     OW71886   3.694   4.281   9.771 -0.1862 -0.3383 -0.5218
22615SOL    HW171887   3.636   4.280   9.848  1.4831 -0.3287  0.8121
22615SOL    HW271888   3.684   4.194   9.733  1.2477 -1.5367  1.6029
22616SOL     OW71889   8.609   9.024   4.878  0.8816  0.0958  0.7084
22616SOL    HW171890   8.523   9.062   4.894  1.4872  1.8249  0.0423
22616SOL    HW271891   8.609   8.943   4.929 -1.4508 -0.4099  0.0287
22617SOL     OW71892   3.272   1.626   8.122 -0.0856 -0.2608 -0.1852
22617SOL    HW171893   3.322   1.552   8.157  1.6493 -0.2819 -2.4983
22617SOL    HW271894   3.325   1.703   8.143 -0.6002  0.0579 -0.0405
22618SOL     OW71895   6.645   8.404   6.041  0.8485 -0.3184  0.0630
22618SOL    HW171896   6.629   8.380   5.950  0.6151 -0.7472  0.2154
22618SOL    HW271897   6.674   8.495   6.037 -1.2488  0.3919 -0.2674
22619SOL     OW71898   3.662   9.607   1.707 -0.0698  0.1226  0.2350
22619SOL    HW171899   3.720   9.560   1.767  0.7647 -0.1123 -0.7318
22619SOL    HW271900   3.719   9.639   1.638 -1.2782 -1.5309 -1.6426
22620SOL     OW71901   5.684   8.319   8.153  0.0543  0.2477  0.0590
22620SOL    HW171902   5.744   8.331   8.079 -0.7774  3.8574 -0.2383
22620SOL    HW271903   5.730   8.358   8.227 -1.0547  1.1579  0.2905
22621SOL     OW71904   2.584   0.971   5.840  0.8764  0.0561  0.5546
22621SOL    HW171905   2.562   0.968   5.933 -0.2092  0.5020  0.3256
22621SOL    HW271906   2.671   1.012   5.837  1.8022 -1.7575  1.4783
22622SOL     OW71907   3.343   7.435   2.448 -0.3571 -0.9919  0.3537
22622SOL    HW171908   3.400   7.363   2.478  0.6612 -0.0483  0.7913
22622SOL    HW271909   3.393   7.514   2.470 -1.0629 -0.1733 -0.9129
22623SOL     OW71910   5.768   3.094   2.653  0.4360  0.2488  0.0671
22623SOL    HW171911   5.744   3.167   2.595 -0.4476  1.2214  1.6021
22623SOL    HW271912   5.684   3.063   2.688  1.0094  0.2575  1.4864
22624SOL     OW71913   7.350   8.355   2.330 -0.0813 -0.3520  0.5227
22624SOL    HW171914   7.366   8.392   2.243 -2.2047  1.8429  0.9837
22624SOL    HW271915   7.383   8.265   2.323  1.5822  0.3307 -1.9126
22625SOL     OW71916   1.246   9.265   7.746 -0.2108 -0.0094  0.0727
22625SOL    HW171917   1.151   9.282   7.751 -0.2850 -0.5257  0.5414
22625SOL    HW271918   1.268   9.279   7.654 -0.7824 -0.0660 -0.0772
22626SOL     OW71919   2.028   1.580   7.113  0.4854  0.3737  0.4521
22626SOL    HW171920   2.016   1.568   7.208 -1.1855  1.4598  0.4250
22626SOL    HW271921   2.059   1.670   7.104  1.9270 -0.1422  0.0148
22627SOL     OW71922   9.841   1.384   6.669 -0.9710 -0.2487 -0.2399
22627SOL    HW171923   9.791   1.317   6.623 -0.5619  0.1277 -1.2552
22627SOL    HW271924   9.815   1.466   6.628 -0.4018  0.0694  0.0245
22628SOL     OW71925   2.591   7.085   9.449  0.9794  0.6482 -0.3920
22628SOL    HW171926   2.608   7.177   9.427 -0.2774  1.2931  1.1538
22628SOL    HW271927   2.633   7.072   9.534 -0.3577  0.3111  0.2326
22629SOL     OW71928   1.879   7.859   4.938 -0.0494  0.4155  0.0498
22629SOL    HW171929   1.907   7.878   5.027  2.0386  1.9085 -0.8346
22629SOL    HW271930   1.854   7.945   4.902 -1.3903 -0.2372 -0.6574
22630SOL     OW71931   5.050   5.198   9.783 -0.3670 -0.5221 -0.6155
22630SOL    HW171932   5.007   5.168   9.863 -1.3833 -0.9259 -1.2928
22630SOL    HW271933   5.143   5.200   9.805 -0.7258  0.5901  0.9601
22631SOL     OW71934   5.970   4.407   0.769  0.2627 -0.3024 -0.0208
22631SOL    HW171935   6.027   4.467   0.721  2.1142 -1.0566  1.1201
22631SOL    HW271936   5.909   4.465   0.816  0.5585  0.5694 -0.6772
22632SOL     OW71937   7.718   3.174   0.429  0.1722  0.4052 -0.3876
22632SOL    HW171938   7.752   3.217   0.508  2.8234  0.5644 -1.5136
22632SOL    HW271939   7.771   3.095   0.420 -1.4189 -0.6269 -0.9611
22633SOL     OW71940   6.215   9.505   6.965 -0.1294 -0.5115 -0.5095
22633SOL    HW171941   6.244   9.520   7.055  1.9653  0.0503 -1.2231
22633SOL    HW271942   6.144   9.568   6.951  0.6019  0.5135  0.2683
22634SOL     OW71943   9.801   9.214   9.879  0.6109 -0.0957 -0.8104
22634SOL    HW171944   9.833   9.176   9.798  0.5443 -0.6914 -0.5649
22634SOL    HW271945   9.794   9.140   9.939 -0.1932  0.1938 -0.5337
22635SOL     OW71946  10.173   2.105   9.283 -0.2610  0.5593 -0.2761
22635SOL    HW171947  10.134   2.192   9.291 -1.4694 -0.0076  0.2078
22635SOL    HW271948  10.265   2.118   9.305 -0.8886  1.3286  2.1843
22636SOL     OW71949   1.579   6.763   6.591 -0.0370  0.2974 -0.1416
22636SOL    HW171950   1.666   6.797   6.574  0.1051  0.7220  1.3202
22636SOL    HW271951   1.557   6.794   6.678 -0.6441 -1.8666  0.5429
22637SOL     OW71952   1.419  10.022   1.327 -0.1315 -0.5645  0.9648
22637SOL    HW171953   1.357  10.016   1.400 -0.8520  1.5831  0.6082
22637SOL    HW271954   1.366  10.050   1.253  1.2088  1.4715  0.6836
22638SOL     OW71955   9.400   8.486   4.487  0.4362 -0.2847  0.3392
22638SOL    HW171956   9.353   8.420   4.435 -0.6128  0.4762  0.2860
22638SOL    HW271957   9.420   8.441   4.569 -1.4246 -0.3261  0.8337
22639SOL     OW71958   8.480   0.250   3.046 -0.1334  0.9535  0.4515
22639SOL    HW171959   8.434   0.211   2.972  0.4523 -1.1554  1.1192
22639SOL    HW271960   8.550   0.188   3.066  1.1030  2.5593  1.3905
22640SOL     OW71961   2.835   9.210   8.700  0.4380  0.2522  0.4091
22640SOL    HW171962   2.757   9.162   8.674 -0.3872  2.9261 -2.8128
22640SOL    HW271963   2.830   9.215   8.795 -1.9707 -1.7330  0.4753
22641SOL     OW71964   2.117   1.243   2.546  0.2839  0.1877  0.5853
22641SOL    HW171965   2.063   1.238   2.624  0.0089  0.0515  0.3869
22641SOL    HW271966   2.070   1.192   2.480 -0.4745  1.8614 -0.2431
22642SOL     OW71967   5.227  10.141   0.871  0.5432 -0.4549 -0.1026
22642SOL    HW171968   5.152  10.134   0.930 -0.3097  3.5779 -0.4052
22642SOL    HW271969   5.200  10.094   0.792 -0.7531 -0.9174  0.5835
22643SOL     OW71970   5.341   3.000   3.444  0.2077  0.2908 -0.1131
22643SOL    HW171971   5.388   3.075   3.410 -0.6205  0.3528 -1.1855
22643SOL    HW271972   5.293   2.965   3.369  0.2440 -1.0598  0.4524
22644SOL     OW71973   1.621   2.574   2.763  0.2013  0.8647 -0.2983
22644SOL    HW171974   1.534   2.615   2.762 -0.6505 -0.8413 -0.1060
22644SOL    HW271975   1.603   2.480   2.756  1.8826  0.2703  2.0640
22645SOL     OW71976   4.784   3.467   2.345  0.4447  0.0389  0.1660
22645SOL    HW171977   4.733   3.540   2.379 -0.4434  0.2553 -1.4853
22645SOL    HW271978   4.859   3.508   2.301  0.1203 -0.0320 -0.4753
22646SOL     OW71979   9.139   3.717   1.927 -0.2888  0.0393 -0.3615
22646SOL    HW171980   9.060   3.766   1.950 -0.3789 -0.0392 -0.5036
22646SOL    HW271981   9.199   3.733   2.000  0.3138  1.7313 -1.1888
22647SOL     OW71982  10.001   4.981   1.544 -0.1864 -0.0707  0.3060
22647SOL    HW171983  10.017   4.999   1.636 -1.3894  1.9070  0.1785
22647SOL    HW271984   9.925   4.923   1.543  1.2253 -2.0622  0.5676
22648SOL     OW71985   1.969   1.467   1.645  0.3881 -0.5342 -0.0484
22648SOL    HW171986   1.884   1.422   1.645  0.3743 -0.5045 -0.4031
22648SOL    HW271987   1.948   1.557   1.620  0.4062 -0.3079  0.7315
22649SOL     OW71988   5.629   4.023   7.941 -0.1340 -0.0489 -0.4047
22649SOL    HW171989   5.664   4.088   8.001  2.0517 -0.3249 -1.2935
22649SOL    HW271990   5.582   3.961   7.997  0.8100  0.3567  0.8728
22650SOL     OW71991   7.889   9.721   8.587  0.2196  0.1376 -0.7560
22650SOL    HW171992   7.954   9.789   8.571 -0.2216  0.3857 -1.5314
22650SOL    HW271993   7.837   9.718   8.507 -2.1076  1.4609  0.5953
22651SOL     OW71994   4.990   6.865   4.306 -0.2948 -0.4296  0.0115
22651SOL    HW171995   5.077   6.860   4.346 -0.1296  0.4547 -0.2112
22651SOL    HW271996   4.947   6.783   4.330  0.8275 -1.1607 -0.4173
22652SOL     OW71997   3.508   3.643   0.761 -0.3042  0.1371 -0.1752
22652SOL    HW171998   3.581   3.582   0.766  0.7998  1.4880  1.1057
22652SOL    HW271999   3.532   3.704   0.691 -0.1306  0.6379  0.3091
22653SOL     OW72000   9.379   8.879   5.526  0.0175 -0.1047  0.1650
22653SOL    HW172001   9.435   8.857   5.600  1.4214  1.4425 -0.3918
22653SOL    HW272002   9.427   8.946   5.478 -0.1005 -2.1146 -3.0368
22654SOL     OW72003  10.101   2.457   6.141 -0.0535 -0.5089  0.2827
22654SOL    HW172004  10.147   2.377   6.116 -2.1619 -1.8811  0.5402
22654SOL    HW272005  10.078   2.498   6.058  0.4890 -0.4876  0.1377
22655SOL     OW72006   8.974   0.753   0.185 -0.0944  0.4534  0.0981
22655SOL    HW172007   9.058   0.735   0.226 -0.3282  1.8213  1.2581
22655SOL    HW272008   8.991   0.827   0.126 -0.1725 -0.2882 -0.8947
22656SOL     OW72009   0.092   3.077   2.239 -0.5657 -0.2097  0.3751
22656SOL    HW172010   0.124   3.065   2.328  1.2430 -1.8697 -0.4217
22656SOL    HW272011   0.168   3.059   2.183 -1.6167  0.8695 -1.5131
22657SOL     OW72012  10.178   5.217   3.336 -0.4023  0.1521  0.1535
22657SOL    HW172013  10.178   5.212   3.240 -0.2967  0.1428  0.1539
22657SOL    HW272014  10.270   5.229   3.359 -0.5072  0.8649  0.2149
22658SOL     OW72015   3.424   3.013   0.788  0.1083  0.5713  0.0087
22658SOL    HW172016   3.447   3.064   0.711  0.7880  0.7953  0.3495
22658SOL    HW272017   3.382   3.076   0.847  1.7686  0.9862  0.8079
22659SOL     OW72018   1.484   1.823   0.188  0.4917  0.0239  0.8950
22659SOL    HW172019   1.541   1.886   0.232 -0.9852  1.5989  0.6394
22659SOL    HW272020   1.396   1.859   0.197 -0.1934 -1.1131 -0.7731
22660SOL     OW72021   8.340   0.223   6.354 -0.2160 -0.0986 -0.0436
22660SOL    HW172022   8.259   0.222   6.405  0.7203  0.1762  1.5029
22660SOL    HW272023   8.388   0.299   6.387  0.7536 -0.3504 -0.8184
22661SOL     OW72024   0.670  10.214   8.706  0.1982 -0.5777 -0.0740
22661SOL    HW172025   0.643  10.226   8.796  0.9013 -0.9993  0.2078
22661SOL    HW272026   0.589  10.207   8.656 -0.2137  1.5957  0.2304
22662SOL     OW72027   7.049   6.495   4.237 -0.2323 -0.0326  0.4117
22662SOL    HW172028   7.094   6.418   4.202  0.1455  1.6401 -3.2543
22662SOL    HW272029   6.961   6.463   4.258  0.5000 -1.8455  0.9097
22663SOL     OW72030   4.322   7.923   7.632 -0.0743 -0.1283 -0.0378
22663SOL    HW172031   4.340   8.002   7.581  0.4660 -1.1445 -1.4879
22663SOL    HW272032   4.336   7.950   7.723 -0.6809  1.6380 -0.4274
22664SOL     OW72033   5.848   2.711   9.596 -0.1975 -0.0443 -0.0565
22664SOL    HW172034   5.934   2.677   9.620  2.0550  4.7212 -0.4318
22664SOL    HW272035   5.840   2.691   9.503  0.9617  0.3043 -0.2464
22665SOL     OW72036   7.088   6.832   7.986 -0.2382 -0.0249 -0.1424
22665SOL    HW172037   7.037   6.907   8.015 -0.3880 -0.2375  0.1495
22665SOL    HW272038   7.079   6.832   7.891  1.4127  1.5095 -0.3663
22666SOL     OW72039   8.836   9.737   9.922 -0.3085 -0.3164  0.3121
22666SOL    HW172040   8.757   9.782   9.891  0.3525 -0.0502 -1.0357
22666SOL    HW272041   8.899   9.808   9.936  0.1623 -0.6629 -0.0539
22667SOL     OW72042   4.930   6.041   4.578  0.3613 -0.0099 -0.4212
22667SOL    HW172043   4.872   5.999   4.641  1.3508 -0.5789  0.1323
22667SOL    HW272044   4.954   5.971   4.516  0.0806  0.3358 -0.9264
22668SOL     OW72045   3.950   5.927   5.538 -0.5396 -0.2969 -0.3022
22668SOL    HW172046   4.021   5.919   5.602 -0.7075  2.0225  0.2807
22668SOL    HW272047   3.872   5.904   5.587 -0.4575 -0.3512 -0.1950
22669SOL     OW72048   3.382   3.141   6.513  0.0560  0.2909  0.0102
22669SOL    HW172049   3.417   3.104   6.595  2.0961 -1.3016 -1.4458
22669SOL    HW272050   3.436   3.218   6.497  1.8650 -1.1509 -1.3178
22670SOL     OW72051   6.233   2.074   2.806  0.2637  0.7321 -0.0069
22670SOL    HW172052   6.296   2.107   2.870  2.2266  1.0062 -1.9347
22670SOL    HW272053   6.262   1.985   2.787 -2.5409 -0.7792  2.1255
22671SOL     OW72054   2.045   0.502   2.944 -0.0288 -0.0354  0.3116
22671SOL    HW172055   2.022   0.457   3.025 -0.3230 -0.2256  0.1223
22671SOL    HW272056   2.094   0.580   2.973  1.9894 -1.3222  0.5777
22672SOL     OW72057   6.849   5.594   1.096  0.4894 -0.5300  0.0856
22672SOL    HW172058   6.800   5.546   1.162 -0.3090 -0.5204 -0.4960
22672SOL    HW272059   6.783   5.630   1.038  1.1889 -0.7551 -0.8768
22673SOL     OW72060   5.845   3.680   3.916 -1.1153 -0.0323  0.7419
22673SOL    HW172061   5.764   3.730   3.929 -0.1155  2.2058 -0.8479
22673SOL    HW272062   5.829   3.631   3.835 -0.8833  0.5154  0.3523
22674SOL     OW72063   8.245   6.445   4.217 -0.0346 -0.4210  0.0343
22674SOL    HW172064   8.295   6.453   4.136  0.5619  2.6589  0.5976
22674SOL    HW272065   8.311   6.424   4.284 -0.0873 -0.1457  0.1724
22675SOL     OW72066   5.945   1.488   4.468  0.2869  0.0988  0.1303
22675SOL    HW172067   5.879   1.428   4.500  1.5033 -0.4927  1.6887
22675SOL    HW272068   6.011   1.432   4.426  0.1420  0.6090 -0.8031
22676SOL     OW72069   3.718   0.812   4.453  0.9181 -0.2074  0.1145
22676SOL    HW172070   3.684   0.722   4.453  2.4161 -0.8232 -1.4996
22676SOL    HW272071   3.813   0.801   4.454  1.1201  1.3912  0.2712
22677SOL     OW72072   3.304   6.484   1.671  0.2305 -0.0438  0.0379
22677SOL    HW172073   3.292   6.576   1.693  3.7646  0.4726  0.3980
22677SOL    HW272074   3.240   6.467   1.602  0.4330  3.1328 -1.1089
22678SOL     OW72075   1.714   4.536   7.381 -0.5570 -0.0304  0.8925
22678SOL    HW172076   1.644   4.531   7.446 -0.8518 -0.3365  0.5524
22678SOL    HW272077   1.685   4.480   7.309 -0.3307  0.4688  0.4037
22679SOL     OW72078   6.491   9.357   1.601 -0.5265 -0.1530  0.0194
22679SOL    HW172079   6.469   9.383   1.691  0.0542 -2.2791  0.8362
22679SOL    HW272080   6.407   9.350   1.557 -0.8930 -0.0563  0.6902
22680SOL     OW72081   6.411   9.599   2.308 -0.5662  0.7498 -0.2969
22680SOL    HW172082   6.328   9.610   2.261 -1.1937  6.2870  1.4547
22680SOL    HW272083   6.386   9.594   2.400  1.0019  1.6152  0.2043
22681SOL     OW72084   3.416   4.656   2.059 -0.2075  0.2307 -0.0029
22681SOL    HW172085   3.329   4.687   2.035 -0.5432 -0.3064  0.5051
22681SOL    HW272086   3.462   4.646   1.975 -1.6372 -2.4380 -0.5815
22682SOL     OW72087   8.054   6.687   3.968 -0.0644 -0.0583 -0.0750
22682SOL    HW172088   7.999   6.682   4.046  0.2138  0.4322  0.1599
22682SOL    HW272089   8.059   6.597   3.936  2.3242 -0.9002  2.2467
22683SOL     OW72090   9.106   0.876   7.526 -0.0172  0.0026  0.2568
22683SOL    HW172091   9.089   0.969   7.538  0.1378 -0.1911  2.3970
22683SOL    HW272092   9.024   0.833   7.552 -0.0686 -0.4692 -0.6594
22684SOL     OW72093   7.233   7.178   5.986  0.2970 -0.1419 -0.2827
22684SOL    HW172094   7.189   7.129   5.916 -0.3655 -0.5705  0.4116
22684SOL    HW272095   7.262   7.110   6.047 -1.1002  0.3329  0.9678
22685SOL     OW72096   9.259   3.761   3.348  0.2674 -0.4055  0.5356
22685SOL    HW172097   9.266   3.720   3.262  1.0140 -1.0191  0.8765
22685SOL    HW272098   9.318   3.837   3.344  1.0311 -0.9692  0.7944
22686SOL     OW72099   1.534   4.244   9.988 -0.4459  0.1777 -0.4209
22686SOL    HW172100   1.551   4.177   9.921 -0.0688  0.3020 -0.4512
22686SOL    HW272101   1.617   4.291   9.997 -0.6882  0.6039 -0.3582
22687SOL     OW72102   5.160   7.747   4.391  0.2217  0.1470  0.5069
22687SOL    HW172103   5.075   7.774   4.357  0.8364 -1.0858 -2.3403
22687SOL    HW272104   5.158   7.769   4.484 -2.5104  1.7438  0.1486
22688SOL     OW72105   4.399   0.136   8.562  0.1558 -0.5494 -0.3579
22688SOL    HW172106   4.369   0.224   8.585 -0.4845 -1.1468  1.2325
22688SOL    HW272107   4.333   0.102   8.502 -0.0183 -0.2432 -0.3386
22689SOL     OW72108   5.095   2.904   2.719  0.1205 -0.2054 -0.2561
22689SOL    HW172109   5.004   2.930   2.731  0.6500  1.7728 -0.0334
22689SOL    HW272110   5.097   2.859   2.635 -0.7386  1.7913 -1.4368
22690SOL     OW72111   0.353   7.696   4.107  0.3848  0.0473  0.3573
22690SOL    HW172112   0.448   7.710   4.110  0.5974 -1.3021  3.0025
22690SOL    HW272113   0.339   7.615   4.156 -2.1569  0.2116  0.0440
22691SOL     OW72114   6.620   8.747   8.987 -0.3238 -0.2146 -0.0681
22691SOL    HW172115   6.622   8.798   9.068  0.6660 -0.9035  0.3616
22691SOL    HW272116   6.568   8.669   9.010  0.5509 -0.7511  0.1272
22692SOL     OW72117   4.118   4.955   7.371 -0.0719  0.0323 -0.1605
22692SOL    HW172118   4.130   4.920   7.460  1.2021 -0.6852 -0.5909
22692SOL    HW272119   4.042   5.012   7.378 -0.2300 -0.3171  1.3110
22693SOL     OW72120   9.420   2.541   3.061 -0.0785  0.0224  0.0427
22693SOL    HW172121   9.464   2.593   2.994  0.4212  0.7944  0.9394
22693SOL    HW272122   9.328   2.543   3.038  0.1579 -0.2773 -0.9786
22694SOL     OW72123   1.131   4.994   9.813  0.3621 -0.4315  0.3515
22694SOL    HW172124   1.055   5.053   9.816  0.3131 -0.4613 -0.1785
22694SOL    HW272125   1.178   5.021   9.734  0.0723 -1.4330 -0.1725
22695SOL     OW72126   0.429   8.976  10.087  0.2368 -0.6485  0.6406
22695SOL    HW172127   0.412   9.014  10.173 -1.0750  1.0887 -0.3163
22695SOL    HW272128   0.348   8.930  10.065  1.3490 -3.0154  1.2194
22696SOL     OW72129   1.733   3.148   8.467  0.0990 -0.5005 -0.4985
22696SOL    HW172130   1.718   3.242   8.479 -2.5098 -0.9559  0.3485
22696SOL    HW272131   1.820   3.143   8.427  1.5158  2.1108  1.8561
22697SOL     OW72132   4.463   6.111   2.324  0.2295  0.2970 -0.9643
22697SOL    HW172133   4.505   6.025   2.322  1.6300  0.8861  0.3426
22697SOL    HW272134   4.510   6.162   2.258  0.0014  0.3043 -1.1206
22698SOL     OW72135   6.754   8.269   8.321  0.4835 -0.2387 -0.6461
22698SOL    HW172136   6.830   8.326   8.329  0.0530  0.1378  1.6717
22698SOL    HW272137   6.790   8.184   8.296  1.7639 -0.1886  0.8638
22699SOL     OW72138   1.929   7.875  10.230  0.9001  0.0248 -0.3353
22699SOL    HW172139   1.887   7.793  10.255  0.3955  0.8717  1.8984
22699SOL    HW272140   2.020   7.864  10.258  0.9942 -0.0428 -0.6760
22700SOL     OW72141   3.315   8.089   8.615  0.6030  0.4405  0.0991
22700SOL    HW172142   3.299   8.101   8.708 -2.7867 -0.4662 -0.2346
22700SOL    HW272143   3.276   8.004   8.594  0.1871  1.1506 -2.3423
22701SOL     OW72144   0.411   8.004   1.121  0.5508 -0.4428 -0.2289
22701SOL    HW172145   0.448   7.925   1.160 -0.1879 -0.4920  0.3962
22701SOL    HW272146   0.475   8.073   1.139  0.4472 -0.5685  0.6564
22702SOL     OW72147   0.661   1.008   1.764  0.4958 -1.2970  0.5819
22702SOL    HW172148   0.699   1.095   1.773 -0.6543 -0.9337  2.5855
22702SOL    HW272149   0.723   0.960   1.709  0.2905  1.2255 -2.0746
22703SOL     OW72150   5.340   5.000  10.200 -0.0976 -0.0507  0.2248
22703SOL    HW172151   5.287   5.063  10.248 -0.4151 -1.8232  2.3916
22703SOL    HW272152   5.430   5.030  10.212 -0.2766  0.2462  0.8236
22704SOL     OW72153   0.980   5.065   5.921 -0.1966 -0.0827 -0.8325
22704SOL    HW172154   1.067   5.045   5.956  0.5239  0.7543 -2.0748
22704SOL    HW272155   0.947   5.136   5.976 -0.9468 -1.6457  0.8516
22705SOL     OW72156   5.529   9.341   5.672  0.3283  0.0162 -0.1181
22705SOL    HW172157   5.520   9.431   5.639 -1.0317 -0.7769 -2.0684
22705SOL    HW272158   5.571   9.294   5.600  0.4173 -1.0734  0.6330
22706SOL     OW72159   7.201  10.059   7.985 -0.2509 -0.1678  0.0772
22706SOL    HW172160   7.161   9.980   7.950 -2.1631  0.5921  0.3956
22706SOL    HW272161   7.245  10.030   8.065 -2.1101 -0.7420  0.9576
22707SOL     OW72162   4.128   4.192   6.889 -0.1527 -0.0507 -0.0304
22707SOL    HW172163   4.213   4.170   6.927 -0.0057  0.0213 -0.3108
22707SOL    HW272164   4.093   4.109   6.857  0.9842  0.2469 -2.2730
22708SOL     OW72165   1.769   5.021   4.446  0.0859 -0.3260  0.3559
22708SOL    HW172166   1.864   5.029   4.438  0.1503  0.4258  1.5250
22708SOL    HW272167   1.748   5.071   4.525 -1.4839  0.9528 -0.7989
22709SOL     OW72168  10.035   8.839   2.156 -0.3739  0.1223  0.3130
22709SOL    HW172169  10.003   8.772   2.216 -1.0670  0.6712  0.5809
22709SOL    HW272170  10.080   8.791   2.088 -1.3929 -0.6704  0.1638
22710SOL     OW72171   9.776  10.112   3.909 -0.3838  0.1946 -0.6399
22710SOL    HW172172   9.810  10.090   3.822 -0.7674 -0.6497 -0.5913
22710SOL    HW272173   9.782  10.207   3.914  0.8612  0.1538 -1.0795
22711SOL     OW72174   5.968   2.499   5.676  0.7680 -0.1997 -0.4809
22711SOL    HW172175   6.061   2.513   5.656  0.8676 -0.2709 -0.0759
22711SOL    HW272176   5.960   2.404   5.684  1.0136 -0.1150  1.1171
22712SOL     OW72177   2.922   4.221   3.355 -0.1649  0.6009 -0.1288
22712SOL    HW172178   2.853   4.275   3.317  1.3841  2.2835 -0.7044
22712SOL    HW272179   2.994   4.283   3.372  1.2094 -1.0722  0.4210
22713SOL     OW72180   0.307   3.644   0.947 -0.4224  0.3107  0.0130
22713SOL    HW172181   0.264   3.730   0.942 -0.4760  0.2050 -1.9405
22713SOL    HW272182   0.309   3.612   0.857  0.8160 -1.1579  0.5094
22714SOL     OW72183  10.268   7.842   9.274  0.4866 -0.4144 -0.1341
22714SOL    HW172184  10.316   7.915   9.312 -0.1830  0.1269 -0.3250
22714SOL    HW272185  10.306   7.831   9.187 -1.5588  1.8643 -1.4486
22715SOL     OW72186   5.911   6.955   4.123 -0.1231 -0.8991 -0.2276
22715SOL    HW172187   5.921   6.988   4.212  4.1383  1.8619 -1.4149
22715SOL    HW272188   5.972   6.881   4.117  0.6626 -0.2037 -1.1410
22716SOL     OW72189   6.668   6.749   2.060 -0.1449 -0.3268  0.2339
22716SOL    HW172190   6.732   6.690   2.100 -1.3936 -0.8019  1.6348
22716SOL    HW272191   6.628   6.795   2.134  1.1797  2.7794 -0.8354
22717SOL     OW72192   1.369   0.112   2.243  0.0533  0.6543 -0.3072
22717SOL    HW172193   1.438   0.177   2.234  0.8575 -0.4261 -4.3608
22717SOL    HW272194   1.312   0.127   2.168 -1.0430 -1.8009 -0.0779
22718SOL     OW72195   7.214   7.408   3.829 -0.4241  0.4793 -0.5277
22718SOL    HW172196   7.308   7.424   3.838 -0.3956  1.0033 -1.5931
22718SOL    HW272197   7.206   7.363   3.745 -1.1769  0.8823 -0.6784
22719SOL     OW72198   3.183   8.624   6.486  0.6122 -0.2348 -0.6235
22719SOL    HW172199   3.219   8.707   6.518 -0.2241  0.1842 -0.7577
22719SOL    HW272200   3.192   8.628   6.391 -2.0772  1.0107 -0.9195
22720SOL     OW72201   8.192   3.050   0.483 -0.1341 -0.0533 -0.0953
22720SOL    HW172202   8.208   2.959   0.506 -3.5947 -1.0896 -1.2060
22720SOL    HW272203   8.247   3.066   0.406  0.2943 -1.2866 -0.0601
22721SOL     OW72204   9.613   7.195   4.571  0.0046  0.0609  0.2277
22721SOL    HW172205   9.578   7.182   4.659  1.6793 -1.1824  0.7592
22721SOL    HW272206   9.649   7.283   4.572 -0.2054  0.1447  0.6942
22722SOL     OW72207   5.047   8.052   7.780  0.2593 -0.5277 -0.0975
22722SOL    HW172208   5.124   8.105   7.800  0.8035 -1.1584 -0.5308
22722SOL    HW272209   5.047   7.984   7.847 -2.0848  1.6392  2.3489
22723SOL     OW72210   6.847   7.268   8.635  0.3848 -0.3405  0.2622
22723SOL    HW172211   6.872   7.260   8.543 -0.3562  1.5048 -0.1462
22723SOL    HW272212   6.885   7.352   8.662 -1.3371  0.2357  0.9810
22724SOL     OW72213   1.447   9.192   8.683  0.1358 -0.0389 -0.1895
22724SOL    HW172214   1.476   9.172   8.772  1.2736  0.7053 -0.3810
22724SOL    HW272215   1.517   9.161   8.627  0.2047  1.0326 -0.7218
22725SOL     OW72216   2.141  10.240   0.841 -0.0215 -0.4249  0.4932
22725SOL    HW172217   2.164  10.299   0.913 -0.6235  1.3468 -0.7056
22725SOL    HW272218   2.220  10.235   0.788 -0.1643 -0.1935  0.2581
22726SOL     OW72219   7.582   8.694   2.214 -0.1782  0.5751  0.2677
22726SOL    HW172220   7.639   8.654   2.148 -1.2295  0.1448 -0.3915
22726SOL    HW272221   7.581   8.787   2.191 -1.3690  0.2882 -1.0029
22727SOL     OW72222   5.762   5.841   0.661  0.7121 -0.3322 -0.3652
22727SOL    HW172223   5.734   5.765   0.712 -0.6893  0.3311 -0.1071
22727SOL    HW272224   5.815   5.892   0.722 -0.2381  0.0209  0.1840
22728SOL     OW72225   0.512   1.829   4.303 -0.3119  0.3872  0.3555
22728SOL    HW172226   0.518   1.738   4.274  0.5565  0.5005  0.1651
22728SOL    HW272227   0.573   1.835   4.376  0.6764  1.1343 -0.4881
22729SOL     OW72228   7.433   4.112   9.374  0.2243  0.0479  0.0801
22729SOL    HW172229   7.506   4.174   9.383  0.2899 -0.1816  1.3263
22729SOL    HW272230   7.370   4.140   9.441 -0.8785  0.2703 -0.9948
22730SOL     OW72231   5.007   3.370   8.024 -0.6587  0.0796  0.0968
22730SOL    HW172232   4.914   3.387   8.032 -0.7042 -0.1185  0.0090
22730SOL    HW272233   5.027   3.384   7.931 -0.3910  1.1322  0.3012
22731SOL     OW72234   5.350   4.091   3.321 -0.6265  0.4239 -0.4009
22731SOL    HW172235   5.363   4.165   3.262  1.7283  1.0652  0.7860
22731SOL    HW272236   5.378   4.123   3.407  0.6062 -1.8480  0.1429
22732SOL     OW72237   1.911   2.592   8.406 -0.8306 -0.2621 -0.1765
22732SOL    HW172238   1.972   2.593   8.481 -1.2621 -1.9071  0.2147
22732SOL    HW272239   1.833   2.636   8.439  0.3391  2.6499 -0.9377
22733SOL     OW72240   0.554   7.586   5.726  0.4251 -0.0688 -0.5791
22733SOL    HW172241   0.586   7.496   5.716 -1.5049 -0.9950  0.8100
22733SOL    HW272242   0.569   7.605   5.819  1.7750  1.5032 -1.0698
22734SOL     OW72243   1.117   9.520   3.216  0.6887  0.0211  0.1619
22734SOL    HW172244   1.039   9.487   3.261  0.1490 -0.8773 -1.3862
22734SOL    HW272245   1.185   9.456   3.237  0.5591 -0.1523  0.0515
22735SOL     OW72246   9.432  10.152   6.819  0.4643 -0.1945 -0.0617
22735SOL    HW172247   9.368  10.082   6.832  1.0256 -0.6029  0.5529
22735SOL    HW272248   9.457  10.146   6.727 -1.4582  0.9141 -0.7429
22736SOL     OW72249   0.492   1.799   1.907  0.3432  0.0943  0.6860
22736SOL    HW172250   0.452   1.722   1.866  1.1116  0.2699 -0.4320
22736SOL    HW272251   0.423   1.865   1.907 -0.1699 -0.4392  1.1970
22737SOL     OW72252   0.953   9.986   9.034  0.4794  0.3377  0.2510
22737SOL    HW172253   0.931  10.073   9.002  0.9574  1.0543  1.7909
22737SOL    HW272254   0.922   9.984   9.125 -0.4561 -1.4764 -0.0525
22738SOL     OW72255   3.023   8.501   2.678  0.1852 -0.0261 -0.4179
22738SOL    HW172256   3.015   8.467   2.588 -0.6091 -2.8342  0.5916
22738SOL    HW272257   2.958   8.571   2.683 -0.3203 -0.3563 -1.8290
22739SOL     OW72258   7.390   5.501   0.978  0.0683 -0.3637  0.1183
22739SOL    HW172259   7.330   5.485   1.050 -0.0226 -2.0288 -0.2871
22739SOL    HW272260   7.394   5.596   0.970 -0.1277 -0.1554  2.1289
22740SOL     OW72261   5.078   6.650   2.168  0.0632  0.2988  0.0309
22740SOL    HW172262   5.143   6.721   2.168  0.1187  0.2811  1.7237
22740SOL    HW272263   5.008   6.682   2.224 -0.8959 -0.1532 -0.8796
22741SOL     OW72264   1.762   1.381   9.169  0.5080 -0.3444 -0.5431
22741SOL    HW172265   1.759   1.302   9.224  1.2899 -1.3558 -1.8882
22741SOL    HW272266   1.673   1.414   9.169  0.1971 -1.1590  0.1580
22742SOL     OW72267   7.105   9.760   6.600 -0.4133  0.4779  0.0990
22742SOL    HW172268   7.036   9.763   6.534 -0.0319  0.7569 -0.2940
22742SOL    HW272269   7.165   9.830   6.574 -1.0286  1.6026  1.5928
22743SOL     OW72270   6.931   6.434   9.303  0.0989  0.3295 -0.6533
22743SOL    HW172271   7.012   6.407   9.347 -0.4717  1.4295  1.1872
22743SOL    HW272272   6.888   6.352   9.280  0.5085 -0.3199  0.7495
22744SOL     OW72273   8.322   4.655   2.439  0.0843  0.0799 -0.4790
22744SOL    HW172274   8.298   4.628   2.350 -0.3325  0.5075 -0.4967
22744SOL    HW272275   8.310   4.576   2.492 -1.1223  0.2178 -0.5334
22745SOL     OW72276   5.193   6.076   0.824  0.0834 -0.2768  0.8228
22745SOL    HW172277   5.110   6.096   0.780  0.6318 -0.9991 -0.5812
22745SOL    HW272278   5.255   6.061   0.753  1.3111 -0.2416  1.8593
22746SOL     OW72279   1.535   1.642   1.620 -0.7856  0.4819  0.2295
22746SOL    HW172280   1.571   1.574   1.677 -1.2445 -0.0949 -0.1494
22746SOL    HW272281   1.496   1.593   1.547  0.2020  1.2296 -0.8147
22747SOL     OW72282   6.695   9.139   6.898 -0.0602 -0.2740 -0.3532
22747SOL    HW172283   6.762   9.176   6.840  1.4419 -1.8211  0.3304
22747SOL    HW272284   6.664   9.061   6.852 -0.7671 -0.0843 -0.2241
22748SOL     OW72285   0.972   5.957   3.574  0.5014  0.3558  0.0977
22748SOL    HW172286   0.918   6.026   3.536 -4.2006 -2.6544  0.4592
22748SOL    HW272287   1.030   5.929   3.504 -0.4404  1.8935 -1.3569
22749SOL     OW72288   8.466   2.275   0.733  0.1783  0.5175  0.1510
22749SOL    HW172289   8.398   2.220   0.772  0.3453  0.0866 -0.1589
22749SOL    HW272290   8.546   2.223   0.739  0.6024  1.2496  1.0279
22750SOL     OW72291   9.154   0.042   7.891  0.5135 -0.0720  0.4330
22750SOL    HW172292   9.136  -0.012   7.968  0.4002 -0.5559  0.0724
22750SOL    HW272293   9.122   0.129   7.915 -1.4746 -0.6758  0.1926
22751SOL     OW72294   7.394   0.547   0.701 -0.3392  0.0716  0.7179
22751SOL    HW172295   7.464   0.566   0.639  0.2530 -2.2566  0.5970
22751SOL    HW272296   7.434   0.491   0.767 -1.8868 -0.6395  1.0993
22752SOL     OW72297   4.323   0.985   1.188  0.0946  0.4337  0.0121
22752SOL    HW172298   4.359   0.981   1.277  2.3117 -2.0059 -0.8811
22752SOL    HW272299   4.263   0.911   1.184  0.1802  0.3991 -0.6020
22753SOL     OW72300   4.734   6.126   9.091  0.2149 -0.2457  0.7890
22753SOL    HW172301   4.662   6.069   9.061  0.5963  0.0721 -0.8311
22753SOL    HW272302   4.807   6.066   9.105  0.0834 -0.3750  0.9366
22754SOL     OW72303   6.557   2.249   2.888 -0.1480 -0.2281  0.2229
22754SOL    HW172304   6.648   2.256   2.917  0.3881 -2.0378 -0.8276
22754SOL    HW272305   6.514   2.199   2.957  0.5693 -2.4806 -0.8465
22755SOL     OW72306  10.029   0.286   6.696  0.0151 -0.0449  0.1303
22755SOL    HW172307  10.100   0.221   6.694  0.4427  0.4317 -0.5932
22755SOL    HW272308   9.950   0.237   6.675  0.3193 -0.3563 -0.2933
22756SOL     OW72309   9.693   1.442   2.833  0.0257  0.7259  0.7814
22756SOL    HW172310   9.651   1.385   2.898 -0.5897  1.0217  0.6502
22756SOL    HW272311   9.786   1.430   2.848 -0.0696 -0.7110  0.4330
22757SOL     OW72312   8.521   6.683   6.317 -0.0861 -0.1040  0.4325
22757SOL    HW172313   8.492   6.609   6.370  1.0950  0.7532  2.3710
22757SOL    HW272314   8.616   6.678   6.319 -0.0054  0.5984 -0.7439
22758SOL     OW72315   5.442  10.137   5.274 -0.1659 -0.4544 -0.4521
22758SOL    HW172316   5.399  10.212   5.315  1.0347  0.0755 -0.1317
22758SOL    HW272317   5.409  10.062   5.323 -0.1761  0.0053  0.2564
22759SOL     OW72318   2.342   5.274   4.188 -0.4654  0.6500  0.1916
22759SOL    HW172319   2.420   5.311   4.229 -0.4748  2.0616 -0.9816
22759SOL    HW272320   2.340   5.314   4.101 -2.2364  0.2682  0.0270
22760SOL     OW72321   3.327   4.955   1.484  0.2484 -0.3576 -0.4733
22760SOL    HW172322   3.388   4.967   1.557  0.4561  0.8202 -0.8171
22760SOL    HW272323   3.244   4.991   1.517  0.2670 -0.0953 -0.7111
22761SOL     OW72324   2.377   6.429   1.252  0.0785 -0.3501  0.3326
22761SOL    HW172325   2.460   6.416   1.206 -0.3069 -0.3905 -0.3565
22761SOL    HW272326   2.327   6.350   1.235 -0.2717 -0.1446  0.3927
22762SOL     OW72327   2.854   0.420   8.322  0.1250  0.0791  0.4629
22762SOL    HW172328   2.771   0.415   8.369  0.6161  0.7928  1.4246
22762SOL    HW272329   2.865   0.513   8.303 -0.7125 -0.2772 -2.3038
22763SOL     OW72330   8.069   6.700  10.097  0.3420 -0.4496 -0.3152
22763SOL    HW172331   8.097   6.749  10.174 -1.8341 -1.3721  1.1612
22763SOL    HW272332   8.001   6.755  10.057 -1.0985 -1.5167  0.5468
22764SOL     OW72333   7.239   4.845   6.556  0.2408 -0.5022 -0.8784
22764SOL    HW172334   7.237   4.865   6.462  0.6666 -0.8485 -0.9657
22764SOL    HW272335   7.301   4.907   6.593 -0.8654  0.4763 -0.6074
22765SOL     OW72336   6.468   1.159   2.960 -0.1262 -0.0591 -0.1116
22765SOL    HW172337   6.532   1.216   2.917 -0.3502 -1.3083 -2.2322
22765SOL    HW272338   6.478   1.178   3.053  0.1494  3.0423 -0.6804
22766SOL     OW72339   7.479   6.026   0.536  0.7181  0.5282  0.2466
22766SOL    HW172340   7.531   5.946   0.544  3.0900  2.1011  3.1882
22766SOL    HW272341   7.533   6.084   0.482 -0.6638  0.4116 -1.3102
22767SOL     OW72342   8.154   9.141   7.609 -0.0241  0.0029 -0.0697
22767SOL    HW172343   8.060   9.159   7.604 -0.0917  0.8499  2.5575
22767SOL    HW272344   8.161   9.072   7.675  1.1439 -0.6958 -0.9067
22768SOL     OW72345   2.723   3.485   4.528 -0.1838  0.3539 -0.2190
22768SOL    HW172346   2.760   3.397   4.530  1.7791  1.1467  1.5241
22768SOL    HW272347   2.637   3.474   4.487  1.1497 -1.8808 -2.6996
22769SOL     OW72348   1.419   6.393   0.742 -0.1157 -0.1048 -0.5064
22769SOL    HW172349   1.388   6.440   0.819  0.5419 -1.7044  0.8010
22769SOL    HW272350   1.500   6.438   0.717  0.6639 -0.6356  0.9051
22770SOL     OW72351   6.900   4.219   9.698 -0.2920 -0.1063 -0.3335
22770SOL    HW172352   6.931   4.215   9.608 -0.4530 -2.6825 -0.3596
22770SOL    HW272353   6.934   4.302   9.732 -0.7787  1.2616 -2.8991
22771SOL     OW72354   1.323   5.157   8.125 -0.2732 -0.1106  0.1648
22771SOL    HW172355   1.300   5.079   8.176  3.6659 -1.0273  0.8748
22771SOL    HW272356   1.386   5.125   8.060  0.3120  2.2700 -0.5222
22772SOL     OW72357   8.060   9.524   9.064 -0.1946 -0.6484  0.2999
22772SOL    HW172358   8.030   9.590   9.002  1.2903 -0.4814 -0.2853
22772SOL    HW272359   8.077   9.447   9.010 -2.6509 -1.8443  1.0675
22773SOL     OW72360   3.509   9.066   3.028 -0.1048  0.1616 -0.4859
22773SOL    HW172361   3.427   9.018   3.041  0.4759 -0.7675 -0.1001
22773SOL    HW272362   3.574   9.016   3.078  0.1717  2.4960  1.6757
22774SOL     OW72363   3.910   2.865   6.652  0.5072 -0.0497  0.6041
22774SOL    HW172364   3.890   2.903   6.737  1.2932  0.7062  0.4586
22774SOL    HW272365   3.982   2.918   6.617  0.5924 -0.7101 -0.2755
22775SOL     OW72366   0.890   9.660   5.740  0.3582 -0.0037  0.2292
22775SOL    HW172367   0.965   9.611   5.704  0.5963 -0.1496  0.9062
22775SOL    HW272368   0.874   9.729   5.676  0.4742 -0.5405 -0.3881
22776SOL     OW72369   1.049   4.466   2.291  0.7179 -0.5731  0.2607
22776SOL    HW172370   0.995   4.401   2.246  1.2962 -0.1968 -1.0335
22776SOL    HW272371   1.047   4.542   2.233  3.5720 -0.9328 -0.4431
22777SOL     OW72372   5.513   2.404   1.206  0.3483  0.3768 -0.0145
22777SOL    HW172373   5.531   2.310   1.205  0.2576  0.3466  0.6406
22777SOL    HW272374   5.541   2.433   1.292  0.8335  1.0486 -0.3872
22778SOL     OW72375   0.470   9.409   5.477 -0.5714 -0.2390  0.2150
22778SOL    HW172376   0.447   9.483   5.422 -0.9734 -0.6823 -0.2180
22778SOL    HW272377   0.562   9.423   5.499 -0.4183 -0.0522 -0.5450
22779SOL     OW72378   8.622   9.925   4.975  0.0533 -0.2811 -0.0644
22779SOL    HW172379   8.600   9.929   4.882  1.8275  1.5242 -0.4992
22779SOL    HW272380   8.692   9.860   4.981 -1.6573 -2.1874  0.4758
22780SOL     OW72381   2.260   4.877   1.377 -0.2937 -0.6978 -0.1101
22780SOL    HW172382   2.200   4.807   1.352 -1.8930  0.7088 -0.4212
22780SOL    HW272383   2.205   4.956   1.380  1.8262  1.0074 -2.0431
22781SOL     OW72384   2.307   4.938   3.548  0.2873  1.1057  0.3893
22781SOL    HW172385   2.369   4.961   3.617  0.3341 -0.8000  1.0488
22781SOL    HW272386   2.223   4.930   3.593  0.2970 -0.0376  0.2354
22782SOL     OW72387   1.854   7.320   4.529 -0.2154 -0.4892 -0.0290
22782SOL    HW172388   1.795   7.389   4.559  0.8104  0.6078 -0.4259
22782SOL    HW272389   1.798   7.255   4.487 -1.1993  0.1450  0.2922
22783SOL     OW72390   5.611   5.124   1.231  0.2484 -1.0311 -0.6674
22783SOL    HW172391   5.705   5.140   1.226 -0.0609  1.3183 -0.1623
22783SOL    HW272392   5.590   5.132   1.324 -0.3496 -2.3625 -0.6675
22784SOL     OW72393   6.221   7.488   3.471 -0.2071 -0.1170  0.1639
22784SOL    HW172394   6.304   7.533   3.461 -0.2360  0.0036  0.4526
22784SOL    HW272395   6.154   7.555   3.454 -0.2503 -0.0286  0.6725
22785SOL     OW72396   6.677   9.148   0.594  0.1127  0.6016  0.2593
22785SOL    HW172397   6.616   9.105   0.534 -0.6582  0.8175  0.8750
22785SOL    HW272398   6.764   9.123   0.562 -0.3081 -0.8977  0.2317
22786SOL     OW72399   9.312  10.216   9.087 -0.2121 -0.5348 -0.7191
22786SOL    HW172400   9.366  10.268   9.027  1.7435  0.0411  1.4225
22786SOL    HW272401   9.334  10.125   9.066  0.6988 -0.3337 -0.6818
22787SOL     OW72402   4.979   7.762  10.131 -0.3233 -0.6864  0.2461
22787SOL    HW172403   5.040   7.789  10.200 -0.0965  2.2509 -0.9444
22787SOL    HW272404   4.892   7.771  10.169 -0.1371 -1.8156  0.9728
22788SOL     OW72405   2.628   9.710   5.260  0.1096 -0.2520  0.4489
22788SOL    HW172406   2.647   9.795   5.298  1.4999 -0.2793 -0.1231
22788SOL    HW272407   2.550   9.724   5.207  1.4754  1.2309 -1.3197
22789SOL     OW72408   9.328   6.772   0.436  0.4233 -0.6804  0.6469
22789SOL    HW172409   9.388   6.820   0.494 -0.4053  0.1114  0.8700
22789SOL    HW272410   9.354   6.681   0.445  1.1236 -0.4336  1.3011
22790SOL     OW72411   5.445   3.095   0.241  0.5847 -0.0832 -0.0145
22790SOL    HW172412   5.519   3.133   0.289 -0.2267  0.7499  0.6201
22790SOL    HW272413   5.395   3.048   0.307 -1.1596  1.9962  0.2809
22791SOL     OW72414   2.272  10.174   3.164  0.1438 -0.4146  0.3827
22791SOL    HW172415   2.198  10.210   3.114 -0.0961 -1.5293 -0.0859
22791SOL    HW272416   2.312  10.251   3.205 -0.9127  0.2789  0.1640
22792SOL     OW72417   1.428   2.101   5.530  0.2958 -1.1709 -0.7089
22792SOL    HW172418   1.504   2.141   5.489  1.3224 -1.4067  0.8559
22792SOL    HW272419   1.353   2.150   5.495  1.3500  0.7931 -0.3922
22793SOL     OW72420   3.495   7.901   0.255 -0.9510 -0.0568 -0.4799
22793SOL    HW172421   3.418   7.876   0.307 -0.5978 -0.2951 -0.0696
22793SOL    HW272422   3.464   7.973   0.200 -0.7721  1.6858  1.6089
22794SOL     OW72423   7.340   0.011   9.036 -0.8007  0.3761 -0.3407
22794SOL    HW172424   7.247   0.001   9.053 -0.5821 -0.9952  0.1392
22794SOL    HW272425   7.376  -0.078   9.042  0.0762  0.3959 -3.3895
22795SOL     OW72426   4.114   2.316   6.567  0.6452  0.9882  0.0909
22795SOL    HW172427   4.149   2.252   6.505 -1.6221  0.7391 -1.0434
22795SOL    HW272428   4.120   2.274   6.652  2.0419  0.5503 -0.2055
22796SOL     OW72429   0.415   3.518   1.404  0.5566 -0.2048 -0.2145
22796SOL    HW172430   0.497   3.469   1.410  1.3488  1.0957  0.0328
22796SOL    HW272431   0.384   3.502   1.315  1.2688 -0.4159 -0.4318
22797SOL     OW72432   8.799   9.678   1.093  0.3688  0.3087  0.0781
22797SOL    HW172433   8.864   9.609   1.103 -0.4233 -0.1818  2.2467
22797SOL    HW272434   8.734   9.640   1.033  0.0846 -0.7536  1.0249
22798SOL     OW72435   6.953  10.015   0.939  0.4261 -0.1824 -0.6137
22798SOL    HW172436   7.002   9.933   0.931  1.0825  0.3510 -2.5923
22798SOL    HW272437   6.866   9.989   0.968  1.0177 -1.4290  0.1187
22799SOL     OW72438  10.229   2.146   2.648  0.0505 -0.7908 -0.3142
22799SOL    HW172439  10.233   2.089   2.725 -1.3167 -0.3004  0.1405
22799SOL    HW272440  10.211   2.087   2.575  0.8306 -1.1923 -0.1931
22800SOL     OW72441   7.654  10.258   6.180  0.1452 -0.3015 -0.8081
22800SOL    HW172442   7.592  10.254   6.107 -1.6130 -2.1814  0.6837
22800SOL    HW272443   7.729  10.206   6.152 -1.2556 -2.4810 -0.7014
22801SOL     OW72444   3.931   9.354   7.688 -0.1756 -0.1592  0.7045
22801SOL    HW172445   3.888   9.371   7.604  1.6267  0.8494 -0.0788
22801SOL    HW272446   3.861   9.355   7.752 -1.3430  1.2239 -0.5297
22802SOL     OW72447   3.286   8.663   2.636 -0.3469  0.0815 -0.3251
22802SOL    HW172448   3.323   8.625   2.715 -0.6250 -2.3213 -1.2556
22802SOL    HW272449   3.193   8.645   2.642 -0.8186  2.3393  0.0252
22803SOL     OW72450  10.185   1.524   4.720  0.0475  0.0323  0.6630
22803SOL    HW172451  10.162   1.436   4.688  1.5683 -0.0847 -0.1944
22803SOL    HW272452  10.116   1.545   4.783  0.0175 -2.0742  1.4203
22804SOL     OW72453   4.740   8.706   7.515  0.2734  0.4658  0.0995
22804SOL    HW172454   4.676   8.744   7.454 -0.1795 -1.4276 -0.6696
22804SOL    HW272455   4.824   8.743   7.488 -0.1218  0.8154 -0.6945
22805SOL     OW72456  10.290   3.004   1.419 -0.1914  0.0680  0.4521
22805SOL    HW172457  10.234   2.970   1.488 -0.5467 -0.2324  0.0192
22805SOL    HW272458  10.353   3.059   1.465  0.2864 -1.0244  1.1413
22806SOL     OW72459   1.233   2.165   8.770  0.0162  0.0560 -0.2399
22806SOL    HW172460   1.221   2.074   8.797 -1.6011  0.8667  2.1772
22806SOL    HW272461   1.160   2.182   8.711 -1.5315  0.5302  1.6985
22807SOL     OW72462   4.943   2.344   3.267 -0.8311 -0.3383  0.4575
22807SOL    HW172463   4.985   2.412   3.319 -1.4352  0.3046  0.1153
22807SOL    HW272464   4.964   2.368   3.176  0.3357 -1.5234  0.3843
22808SOL     OW72465   5.840   4.793   1.195 -0.1164  0.2177 -0.2388
22808SOL    HW172466   5.789   4.818   1.272 -0.6212  0.2192 -0.5712
22808SOL    HW272467   5.927   4.832   1.210 -0.2281  0.2656  0.2969
22809SOL     OW72468   7.330   2.534   1.458  0.2477 -0.6574 -0.9769
22809SOL    HW172469   7.406   2.538   1.516 -0.8861  1.5240  0.4704
22809SOL    HW272470   7.295   2.445   1.470  0.4675 -0.5011  1.1322
22810SOL     OW72471   9.464   3.159   7.296  0.0885 -0.7738 -0.5690
22810SOL    HW172472   9.444   3.079   7.345  0.1983 -0.9669 -0.8341
22810SOL    HW272473   9.552   3.184   7.324 -0.8460  0.6070  1.3049
22811SOL     OW72474   3.171   2.913   7.634 -0.3274  0.0837  0.5273
22811SOL    HW172475   3.196   2.928   7.725 -2.2228  0.4321  1.0473
22811SOL    HW272476   3.102   2.846   7.639 -0.5844  0.2370 -0.6293
22812SOL     OW72477   9.181   7.843   5.523 -0.2724 -0.5193 -0.4443
22812SOL    HW172478   9.171   7.776   5.456 -0.3772 -0.6322 -0.3169
22812SOL    HW272479   9.247   7.808   5.583  1.3676  0.4546 -1.5726
22813SOL     OW72480   5.470   7.191   6.732 -0.3876  0.4487 -0.2321
22813SOL    HW172481   5.542   7.143   6.774 -0.4957  1.0781  0.6938
22813SOL    HW272482   5.497   7.198   6.640  0.6096  0.4305  0.0443
22814SOL     OW72483   8.306   1.209   9.483 -0.4431  0.4088  0.6613
22814SOL    HW172484   8.327   1.301   9.499 -1.4022  0.7736 -0.0725
22814SOL    HW272485   8.366   1.183   9.412  0.1553  0.3123  1.1877
22815SOL     OW72486   0.385   2.317   7.058  0.0907 -0.0836  0.2143
22815SOL    HW172487   0.449   2.310   7.129  0.8396  1.1744 -0.3148
22815SOL    HW272488   0.320   2.379   7.092  0.4966  0.5877 -0.2176
22816SOL     OW72489   0.880   1.345   7.011  0.5961  0.1501 -0.1197
22816SOL    HW172490   0.845   1.265   7.050 -0.6620  1.2517  1.1675
22816SOL    HW272491   0.814   1.370   6.946  0.4253  0.6820  0.2462
22817SOL     OW72492   4.731   0.415   6.712 -0.1720  0.1549 -0.2493
22817SOL    HW172493   4.708   0.461   6.631 -1.1156 -0.1081 -0.1362
22817SOL    HW272494   4.664   0.440   6.775  1.5558  1.8468  1.0640
22818SOL     OW72495   6.941   2.756   0.609 -0.2497 -0.1763 -0.0475
22818SOL    HW172496   6.971   2.793   0.692 -1.5028  0.7899 -0.0128
22818SOL    HW272497   6.980   2.812   0.542  0.5204 -0.7815 -0.1274
22819SOL     OW72498   2.048   4.992   4.034 -0.2416  0.2191 -0.0132
22819SOL    HW172499   1.976   5.051   4.015 -1.3569 -1.0605  0.1048
22819SOL    HW272500   2.125   5.034   3.996 -1.5437  0.1406 -2.9892
22820SOL     OW72501   8.165   2.565   6.369  0.1191 -0.4427  0.0436
22820SOL    HW172502   8.102   2.581   6.299  0.3617  0.7020  0.0649
22820SOL    HW272503   8.246   2.542   6.324  0.0317 -0.6224 -0.0219
22821SOL     OW72504   9.472   2.530   0.616  0.8444  0.2119 -1.0557
22821SOL    HW172505   9.394   2.488   0.578  0.3368  0.4813 -0.3296
22821SOL    HW272506   9.478   2.614   0.569  0.2049  0.5541 -0.5428
22822SOL     OW72507   0.758   3.424   8.142  0.1412  0.5594  1.1859
22822SOL    HW172508   0.841   3.380   8.159 -0.1613 -0.3738  0.3488
22822SOL    HW272509   0.719   3.434   8.229 -0.2373 -1.8204  1.3552
22823SOL     OW72510   6.220   0.149   3.513  0.8187 -0.2677 -0.1957
22823SOL    HW172511   6.302   0.157   3.561  0.4556  0.3435  0.3293
22823SOL    HW272512   6.196   0.239   3.491 -0.1966 -0.3629  0.4901
22824SOL     OW72513   9.134   4.011   1.490 -0.3486  0.2650 -0.0952
22824SOL    HW172514   9.206   3.952   1.512  1.1301  1.3554 -1.6897
22824SOL    HW272515   9.056   3.956   1.490  0.7444 -1.3305  0.0369
22825SOL     OW72516   8.779   6.855   5.243  0.3415  0.4317  0.1155
22825SOL    HW172517   8.864   6.820   5.217 -1.0123 -2.4585 -0.8498
22825SOL    HW272518   8.777   6.845   5.338  1.1954  0.8861  0.1913
22826SOL     OW72519   3.934   3.265   3.049  0.0665  0.3553  0.2219
22826SOL    HW172520   3.999   3.323   3.088  0.4265  0.2888 -0.2788
22826SOL    HW272521   3.854   3.318   3.046  0.2419  0.6265  0.3120
22827SOL     OW72522   1.900   6.408   3.084  0.0104 -0.4330  0.1580
22827SOL    HW172523   1.890   6.396   2.990 -1.1865 -1.7907  0.4260
22827SOL    HW272524   1.812   6.427   3.115  0.3308 -0.3576  1.0531
22828SOL     OW72525   8.836   3.032   2.466  0.0144 -0.4955 -0.0763
22828SOL    HW172526   8.801   3.050   2.379 -0.3341 -0.6176  0.0390
22828SOL    HW272527   8.817   2.940   2.481 -1.1240 -0.1525  0.6766
22829SOL     OW72528   0.012   5.103   5.331  0.0937  0.1985 -0.0512
22829SOL    HW172529   0.020   5.058   5.415 -1.2423  1.3980  0.7620
22829SOL    HW272530   0.090   5.077   5.282  2.5973  1.9396  2.7315
22830SOL     OW72531   8.563   7.072  10.110  0.2303 -0.0015  0.4438
22830SOL    HW172532   8.567   6.977  10.096 -0.0681  0.0898 -0.3322
22830SOL    HW272533   8.616   7.108  10.039 -0.5699  0.4582  0.0725
22831SOL     OW72534   5.040   9.062   0.047  0.2795 -0.1126 -0.8702
22831SOL    HW172535   5.100   8.992   0.020  0.3654 -0.0234 -0.9109
22831SOL    HW272536   5.080   9.100   0.125 -1.7332 -2.7388  1.6540
22832SOL     OW72537   9.126   9.049   0.712 -0.1031 -0.5185 -0.2580
22832SOL    HW172538   9.058   9.114   0.731 -1.1973 -1.6341 -0.2390
22832SOL    HW272539   9.208   9.098   0.719 -0.8742  0.7911  0.0433
22833SOL     OW72540   1.125   7.107   0.662  0.0982  0.6084 -0.3815
22833SOL    HW172541   1.051   7.134   0.607  0.7702 -0.4195 -1.8490
22833SOL    HW272542   1.139   7.181   0.721 -3.2007  0.1904  1.2097
22834SOL     OW72543   6.121   0.519   0.638 -0.1091 -0.1847  0.1850
22834SOL    HW172544   6.185   0.474   0.693  1.4715  0.3790 -1.1234
22834SOL    HW272545   6.038   0.510   0.686  1.0890 -0.1333  2.4102
22835SOL     OW72546   6.750   5.813   6.846 -1.2706  0.3725 -0.2587
22835SOL    HW172547   6.720   5.811   6.755 -1.7395  1.2668 -0.1340
22835SOL    HW272548   6.673   5.786   6.896 -1.4210  1.1674 -0.0454
22836SOL     OW72549   5.757   3.654   6.184 -0.0198 -0.3509 -0.0351
22836SOL    HW172550   5.778   3.707   6.260 -0.7820  0.1913 -0.1930
22836SOL    HW272551   5.665   3.672   6.167  0.2637 -0.0687 -1.3884
22837SOL     OW72552   1.597   6.373   5.267 -0.4294 -0.1615  0.5914
22837SOL    HW172553   1.567   6.440   5.206 -0.0520  0.4465  1.0667
22837SOL    HW272554   1.628   6.301   5.211  1.9211  1.2232 -0.0314
22838SOL     OW72555   4.321   9.168   5.021  0.3532  0.0697  0.0298
22838SOL    HW172556   4.323   9.210   5.107  1.1761  1.7794 -0.7761
22838SOL    HW272557   4.229   9.153   5.004  0.1273  0.3924  0.9013
22839SOL     OW72558   5.508   0.731   6.423  0.1807 -0.0044  0.2297
22839SOL    HW172559   5.578   0.673   6.392 -0.2599 -0.6666  0.4497
22839SOL    HW272560   5.461   0.757   6.344  0.8732  0.7273  0.0399
22840SOL     OW72561   7.563   0.355   9.748  0.3639  0.1362 -0.2555
22840SOL    HW172562   7.564   0.400   9.833 -2.2783  2.2916 -1.1940
22840SOL    HW272563   7.598   0.419   9.686 -1.7996  0.3394 -1.3669
22841SOL     OW72564   7.331   3.313   3.292  0.3125 -0.0798  0.2498
22841SOL    HW172565   7.263   3.324   3.359 -0.7045 -2.1810 -0.3547
22841SOL    HW272566   7.287   3.335   3.210  0.7565 -0.1485 -0.0102
22842SOL     OW72567   9.465   3.576   1.089 -0.5064  0.7479 -0.4593
22842SOL    HW172568   9.405   3.649   1.079  1.2090  2.3087  0.0697
22842SOL    HW272569   9.544   3.603   1.042  0.7201 -0.1008  1.0338
22843SOL     OW72570   4.058   8.892   6.712  0.4916  0.4459 -0.1095
22843SOL    HW172571   4.043   8.987   6.702 -2.5518  0.1703  0.8421
22843SOL    HW272572   4.064   8.860   6.622 -1.9074  1.1485 -0.5887
22844SOL     OW72573   9.175   3.567   6.275 -0.0970  0.4714 -0.1523
22844SOL    HW172574   9.216   3.644   6.313 -0.8080  0.6411  0.2855
22844SOL    HW272575   9.234   3.495   6.297  0.9226  0.9644 -1.1430
22845SOL     OW72576   3.001   2.203   9.858 -0.5032  0.0478 -0.2390
22845SOL    HW172577   3.052   2.267   9.807 -0.0643 -0.5772 -0.5955
22845SOL    HW272578   2.981   2.134   9.795 -0.8949 -0.2178  0.1733
22846SOL     OW72579   1.157   2.682   4.305 -0.9349 -0.1080 -0.4790
22846SOL    HW172580   1.188   2.630   4.231 -0.1196  1.1246 -1.0519
22846SOL    HW272581   1.179   2.772   4.281  1.7655  0.1624  2.3917
22847SOL     OW72582   0.867   3.495   2.076  0.8271  0.2343  0.1065
22847SOL    HW172583   0.793   3.555   2.062  0.4008 -0.3822 -0.3296
22847SOL    HW272584   0.935   3.550   2.115 -0.4323  0.4863  2.1067
22848SOL     OW72585   4.624   4.364   1.171 -0.3952  0.0274 -0.2406
22848SOL    HW172586   4.669   4.441   1.136 -0.2777  0.4877  0.8735
22848SOL    HW272587   4.692   4.312   1.213 -0.7354  0.2497  0.6160
22849SOL     OW72588   0.646   7.917   6.688 -0.2901 -0.8747  0.3072
22849SOL    HW172589   0.694   7.999   6.678  1.2692 -1.9696 -2.8801
22849SOL    HW272590   0.571   7.939   6.742  0.7168  2.3276  0.6367
22850SOL     OW72591   7.214   2.907   9.463  0.6092 -0.0468 -0.5261
22850SOL    HW172592   7.253   2.963   9.530  1.5441  0.7557 -1.6945
22850SOL    HW272593   7.287   2.881   9.407 -0.0552 -1.1828 -0.9042
22851SOL     OW72594   0.276   4.136   4.967 -0.0001 -0.2541  0.0728
22851SOL    HW172595   0.263   4.225   4.934  0.8478  0.1110  0.7012
22851SOL    HW272596   0.188   4.097   4.966 -0.2009  0.1935 -1.2944
22852SOL     OW72597   0.227   4.284   6.390  0.5135 -0.5954 -0.4757
22852SOL    HW172598   0.289   4.219   6.423  0.0740 -0.7731  0.0103
22852SOL    HW272599   0.237   4.281   6.295  1.1322 -0.7359 -0.4099
22853SOL     OW72600   3.071  10.000   5.291  0.2109 -0.2305 -0.1364
22853SOL    HW172601   3.078  10.064   5.363  0.4785  0.4001 -0.7122
22853SOL    HW272602   3.057  10.054   5.213 -0.4696 -0.9318 -0.5068
22854SOL     OW72603   2.678   7.525  10.148 -0.7062  0.0126 -0.2363
22854SOL    HW172604   2.627   7.547  10.226 -0.3901 -1.5825  0.4485
22854SOL    HW272605   2.757   7.483  10.182  0.2381  0.8125 -1.3597
22855SOL     OW72606   5.433   2.910   8.453 -0.6078 -0.5034 -0.2068
22855SOL    HW172607   5.481   2.857   8.389  0.3536 -0.5851  0.5653
22855SOL    HW272608   5.425   2.996   8.412 -1.7682 -1.0778 -1.2747
22856SOL     OW72609   8.714   1.766   4.457 -0.4176  0.2441  0.1595
22856SOL    HW172610   8.760   1.688   4.488  1.7340  0.3855 -2.3253
22856SOL    HW272611   8.773   1.839   4.476 -1.2672  0.9618  0.1515
22857SOL     OW72612   7.970   4.735   2.453  0.3128 -0.3052  0.0923
22857SOL    HW172613   8.013   4.811   2.492  1.3826 -1.0691  0.4365
22857SOL    HW272614   7.994   4.737   2.361  1.0970 -0.7045  0.2738
22858SOL     OW72615   4.908   2.998   8.063  0.0147  0.1379 -0.0529
22858SOL    HW172616   4.895   3.020   7.970  2.3709  1.1753 -0.2191
22858SOL    HW272617   4.822   3.007   8.102 -0.8862  0.4850 -1.9794
22859SOL     OW72618   9.944   5.627   9.581  0.4883 -0.1491  0.2468
22859SOL    HW172619   9.927   5.590   9.495  0.4978 -1.3046  0.7225
22859SOL    HW272620   9.857   5.644   9.618  0.4475  2.6189 -0.8791
22860SOL     OW72621   9.359   9.477   6.763 -0.1102 -0.2581 -0.1440
22860SOL    HW172622   9.281   9.487   6.819 -0.8318 -0.3604 -1.0972
22860SOL    HW272623   9.432   9.475   6.824 -0.9085 -0.7829  0.8353
22861SOL     OW72624   8.394   8.152  10.234 -0.5155 -0.0335 -0.0667
22861SOL    HW172625   8.444   8.157  10.316 -1.6842  1.9838  0.5780
22861SOL    HW272626   8.303   8.140  10.261 -0.7121 -1.2695 -1.1575
22862SOL     OW72627   5.002   3.285   7.241  0.4151  0.2354 -0.1604
22862SOL    HW172628   5.010   3.379   7.224  0.8816  0.2594  0.1739
22862SOL    HW272629   5.034   3.244   7.161 -1.2726  0.3495 -0.9441
22863SOL     OW72630   1.712   5.094   7.624  0.3435  0.0377 -0.2767
22863SOL    HW172631   1.723   5.146   7.545  0.3072  1.0349  0.3631
22863SOL    HW272632   1.640   5.034   7.603  1.0160 -0.4257 -1.3446
22864SOL     OW72633   9.687   8.750   6.485 -0.3349  0.7310  0.5099
22864SOL    HW172634   9.666   8.826   6.539  1.8267  1.2182  0.7767
22864SOL    HW272635   9.777   8.727   6.510  0.3471  0.2690 -2.0415
22865SOL     OW72636   8.114   6.315   8.918  0.3541  0.2960  0.2969
22865SOL    HW172637   8.164   6.323   8.999  0.7907 -0.4301  0.1083
22865SOL    HW272638   8.061   6.394   8.914  1.0976  0.8240  0.7722
22866SOL     OW72639   2.189   7.531   7.971 -0.0325 -0.5954  0.2219
22866SOL    HW172640   2.257   7.575   7.919 -0.6631 -0.3197 -0.3864
22866SOL    HW272641   2.123   7.506   7.907 -0.6998 -0.4825  0.8618
22867SOL     OW72642   5.612   6.348   8.761 -0.2135  0.3848  0.0047
22867SOL    HW172643   5.667   6.373   8.687 -1.4109  2.2962 -0.3351
22867SOL    HW272644   5.655   6.387   8.837 -0.2733  0.5533 -0.0460
22868SOL     OW72645   0.550   6.178   3.812 -0.4558 -0.1487  0.3129
22868SOL    HW172646   0.532   6.266   3.843  1.2567  0.5644 -0.5740
22868SOL    HW272647   0.551   6.185   3.717 -0.2251 -1.1072  0.2243
22869SOL     OW72648   1.697   2.617   1.575 -0.1530 -0.1143  0.5941
22869SOL    HW172649   1.772   2.563   1.551  0.2167  0.7959 -0.3907
22869SOL    HW272650   1.733   2.682   1.635 -0.1625  0.2627  0.1968
22870SOL     OW72651   0.468   7.859   0.560 -0.5606  0.6457 -0.4899
22870SOL    HW172652   0.496   7.768   0.556  1.8429  1.2234  0.9256
22870SOL    HW272653   0.493   7.896   0.475 -1.6833 -0.0226 -1.1263
22871SOL     OW72654   9.242   7.999   8.922  0.4183 -0.2897 -0.4079
22871SOL    HW172655   9.160   7.972   8.882  1.2708  0.3430 -2.7330
22871SOL    HW272656   9.273   7.922   8.969 -2.2129 -0.0829  1.9287
22872SOL     OW72657   5.357   2.285   5.447  0.4559 -0.2276 -0.5260
22872SOL    HW172658   5.445   2.308   5.475 -0.0233  0.4530  0.4842
22872SOL    HW272659   5.306   2.365   5.458 -0.1945 -0.4810 -1.5458
22873SOL     OW72660   8.133   3.375   5.909  0.0125  0.4624 -0.0752
22873SOL    HW172661   8.087   3.292   5.922  0.3043  0.4321  0.8264
22873SOL    HW272662   8.082   3.439   5.959 -0.2105  0.8404 -0.7622
22874SOL     OW72663   5.504   4.638   0.898  0.3071  0.5650  0.6393
22874SOL    HW172664   5.414   4.652   0.871  0.3138 -0.0314  0.2923
22874SOL    HW272665   5.514   4.543   0.899  0.6013  0.5909  1.7596
22875SOL     OW72666   1.248   6.138   3.130 -0.0104  0.0981  0.0999
22875SOL    HW172667   1.249   6.156   3.036  0.5871 -0.4700 -0.0142
22875SOL    HW272668   1.217   6.047   3.137  0.0709  0.0945  0.4463
22876SOL     OW72669   3.695   6.425   0.603 -0.7264  0.2448  0.5543
22876SOL    HW172670   3.771   6.373   0.578  0.1625  1.5810  0.3347
22876SOL    HW272671   3.727   6.481   0.674 -1.4989  0.8148  0.4676
22877SOL     OW72672   9.149   4.850   1.916  0.8515 -0.5894 -0.0806
22877SOL    HW172673   9.229   4.891   1.949  0.6831 -0.3922  0.0813
22877SOL    HW272674   9.150   4.761   1.952  0.0544  0.0081  1.4639
22878SOL     OW72675   9.078   4.466   0.375  1.1588  0.3607  0.5619
22878SOL    HW172676   9.157   4.520   0.384  1.6065 -0.1358 -0.2299
22878SOL    HW272677   9.006   4.524   0.399  1.7390  0.9311  0.9472
22879SOL     OW72678  10.228   2.839   1.660 -0.4989  0.6788 -0.1201
22879SOL    HW172679  10.311   2.791   1.664 -1.5012 -1.1135  0.2866
22879SOL    HW272680  10.214   2.870   1.750  0.7900  3.0114 -0.6334
22880SOL     OW72681   5.376   2.662   2.749  0.3340  0.5921 -0.1083
22880SOL    HW172682   5.347   2.637   2.837  0.8308  2.0577  0.5038
22880SOL    HW272683   5.345   2.592   2.693  0.7575 -0.8208  1.3533
22881SOL     OW72684   7.366   0.597   7.688 -0.0605  0.1785 -0.2341
22881SOL    HW172685   7.336   0.593   7.597 -1.8112 -0.1019  0.3379
22881SOL    HW272686   7.340   0.513   7.726  0.2033  0.5029  0.6785
22882SOL     OW72687   5.262   4.751   3.222 -0.6918 -0.1364  0.0811
22882SOL    HW172688   5.172   4.776   3.244 -0.8683 -0.1698 -0.5795
22882SOL    HW272689   5.272   4.663   3.257 -1.2498 -0.5190 -0.7002
22883SOL     OW72690   0.394   7.551   9.582  0.0038  0.6976 -0.2166
22883SOL    HW172691   0.487   7.549   9.600 -0.1119  0.9092  0.4159
22883SOL    HW272692   0.366   7.460   9.586  0.1073  0.6752 -0.0108
22884SOL     OW72693   4.797   8.680   3.937 -0.0286  0.3982  0.1097
22884SOL    HW172694   4.830   8.711   4.021 -1.3975  0.2464  0.7325
22884SOL    HW272695   4.787   8.585   3.948  0.5785  0.2468 -0.5266
22885SOL     OW72696   9.060   5.859   0.916  0.2916  0.6082  0.4190
22885SOL    HW172697   9.074   5.952   0.895  0.8299  0.5641  0.5618
22885SOL    HW272698   9.105   5.847   1.000 -1.2214  0.6179  1.2718
22886SOL     OW72699   2.829   4.562   1.240  0.1419 -0.2275 -0.2575
22886SOL    HW172700   2.764   4.623   1.205 -1.4715 -2.4708 -1.4099
22886SOL    HW272701   2.913   4.595   1.208 -0.3048  2.8324  1.3804
22887SOL     OW72702   1.215   8.060   4.955 -0.0244  0.2006  0.0654
22887SOL    HW172703   1.244   8.142   4.994  1.9262  0.2459 -1.3409
22887SOL    HW272704   1.130   8.043   4.996 -0.5405  2.9333  0.3378
22888SOL     OW72705   3.496   2.041   1.507 -0.0347 -0.3720 -0.0460
22888SOL    HW172706   3.496   2.114   1.569 -0.0059  0.2005 -0.7140
22888SOL    HW272707   3.404   2.018   1.497 -0.3950  1.6348 -2.2011
22889SOL     OW72708   5.301   7.390  10.281 -0.2277  0.3090  0.0928
22889SOL    HW172709   5.227   7.354  10.329  0.5004  0.4580  1.3572
22889SOL    HW272710   5.261   7.433  10.205 -1.4190  0.3051  0.6954
22890SOL     OW72711   0.048   4.111   2.198 -0.5282 -0.6823 -0.2722
22890SOL    HW172712   0.116   4.079   2.256  0.8330 -0.4662 -1.6844
22890SOL    HW272713  -0.026   4.130   2.256  1.3163  1.1726  1.6456
22891SOL     OW72714   5.996   7.510   2.159  0.2173 -0.1167 -0.2154
22891SOL    HW172715   5.994   7.417   2.180 -1.1133  0.4825  2.8472
22891SOL    HW272716   6.071   7.545   2.208 -1.1468  0.8602  1.2868
22892SOL     OW72717   3.839   6.661   6.553 -0.1999  0.2146  0.2313
22892SOL    HW172718   3.891   6.740   6.567 -0.8609  0.2243  3.4645
22892SOL    HW272719   3.754   6.693   6.523  0.2368  0.5279 -0.6938
22893SOL     OW72720   0.040   7.908   5.048 -0.2852 -0.6185  0.9348
22893SOL    HW172721   0.053   7.998   5.020 -0.3978  0.3138  3.5902
22893SOL    HW272722   0.113   7.860   5.009  0.7675  0.9508  0.8792
22894SOL     OW72723   4.796   3.690   9.636 -0.1129  1.1257 -0.8121
22894SOL    HW172724   4.732   3.619   9.643  0.2682  0.7550 -1.0325
22894SOL    HW272725   4.877   3.646   9.610 -0.0366  1.7237 -1.6290
22895SOL     OW72726   5.438   0.124   6.856 -0.2758 -0.2458 -0.0048
22895SOL    HW172727   5.477   0.045   6.817  0.6676 -0.1802  0.7685
22895SOL    HW272728   5.459   0.193   6.793 -1.4885 -0.6691 -0.9033
22896SOL     OW72729   4.009   3.555   1.067 -0.3803  0.5152  0.5645
22896SOL    HW172730   4.035   3.645   1.087  1.0095  0.1201  0.6023
22896SOL    HW272731   3.976   3.520   1.150  0.0072  0.6720  0.7828
22897SOL     OW72732   9.042   5.089   9.198  0.1253  0.0395  0.2218
22897SOL    HW172733   9.066   5.059   9.285  0.4845 -1.8251 -0.4639
22897SOL    HW272734   8.946   5.082   9.196  0.2031 -1.3619  0.0274
22898SOL     OW72735   6.907   0.218   3.386 -0.1744 -0.3700 -0.2736
22898SOL    HW172736   6.931   0.246   3.474 -0.6996  1.0967 -0.5664
22898SOL    HW272737   6.825   0.169   3.398 -2.3702  2.9974 -0.2330
22899SOL     OW72738   4.628   3.396   1.360  0.5198 -0.2573 -0.0248
22899SOL    HW172739   4.586   3.328   1.306 -1.1685  0.7072 -0.0051
22899SOL    HW272740   4.617   3.477   1.310  1.7398  0.1537  0.3457
22900SOL     OW72741   3.103   0.201   4.874  0.0738  0.0124 -0.3673
22900SOL    HW172742   3.015   0.179   4.845  0.2003 -1.7776  0.4950
22900SOL    HW272743   3.157   0.126   4.850  1.5045  1.2768 -1.3188
22901SOL     OW72744   2.243   6.114   8.933  0.2196 -0.2564 -0.5492
22901SOL    HW172745   2.303   6.175   8.976 -0.8001 -0.6414  1.5018
22901SOL    HW272746   2.268   6.028   8.967 -0.9388 -0.5143 -0.3186
22902SOL     OW72747   1.146   7.267   3.720 -0.1154  0.0914 -0.2621
22902SOL    HW172748   1.082   7.272   3.649 -0.0501 -2.5954 -0.6055
22902SOL    HW272749   1.230   7.255   3.675  0.4827  2.0171  0.2354
22903SOL     OW72750   3.987   5.611   9.861 -0.6361 -0.0230  0.2220
22903SOL    HW172751   3.975   5.656   9.777 -0.3607 -1.1594 -0.4598
22903SOL    HW272752   3.905   5.564   9.875 -0.7804  0.3706  0.7373
22904SOL     OW72753   9.271   7.537   8.816  0.2698  0.2713 -0.7419
22904SOL    HW172754   9.207   7.569   8.753  0.2129  0.8213 -0.4103
22904SOL    HW272755   9.219   7.510   8.892  0.2782 -1.0474 -1.1879
22905SOL     OW72756   2.177   9.308   4.494 -0.3845  0.0563 -0.6063
22905SOL    HW172757   2.250   9.321   4.434 -0.1763  0.8804 -0.1802
22905SOL    HW272758   2.122   9.243   4.451  0.4693 -0.3954 -1.0451
22906SOL     OW72759   1.252   7.858   4.100  0.0808 -0.4764  0.6904
22906SOL    HW172760   1.216   7.891   4.017  0.9658 -0.3759  0.3358
22906SOL    HW272761   1.232   7.927   4.163  2.0218  0.8628 -0.0650
22907SOL     OW72762   0.898   6.330   4.752  0.1401  0.3162 -0.3363
22907SOL    HW172763   0.862   6.311   4.665  1.0837 -0.0243 -0.6669
22907SOL    HW272764   0.838   6.287   4.813 -1.1117  1.4083 -0.7426
22908SOL     OW72765   3.607   8.905   8.391  0.0085  0.2646 -0.0605
22908SOL    HW172766   3.630   8.984   8.343 -0.0032  0.5408  0.3796
22908SOL    HW272767   3.567   8.937   8.472 -0.6300 -0.1931 -0.1851
22909SOL     OW72768   5.953   2.582   3.024 -0.5238 -0.0306 -0.9391
22909SOL    HW172769   5.997   2.536   2.951  0.3468  2.1037 -1.8570
22909SOL    HW272770   5.873   2.616   2.985 -0.4796  0.3897 -0.6596
22910SOL     OW72771   0.727   3.587   7.911  0.4228  0.3561 -0.4083
22910SOL    HW172772   0.787   3.523   7.873  1.3387  0.8775  0.1162
22910SOL    HW272773   0.718   3.561   8.002  0.9885  1.0923 -0.1335
22911SOL     OW72774   7.762   7.235   5.821  0.0920 -0.3589  0.2028
22911SOL    HW172775   7.759   7.241   5.916  0.2879 -0.0109  0.1896
22911SOL    HW272776   7.790   7.145   5.804 -1.2746 -0.8487  0.4378
22912SOL     OW72777   3.923   1.872   5.099 -0.7480  0.0914 -0.4781
22912SOL    HW172778   4.013   1.861   5.131 -0.2985  0.9328 -1.3952
22912SOL    HW272779   3.900   1.962   5.122 -1.5234 -0.2611  0.1394
22913SOL     OW72780   5.151   5.233   3.773 -0.5691  0.5710 -0.1372
22913SOL    HW172781   5.162   5.211   3.680  0.9161 -0.0482  0.1478
22913SOL    HW272782   5.141   5.148   3.816 -1.6248  0.8757  0.2434
22914SOL     OW72783   1.861   9.289   3.548 -0.5308  0.0175 -0.1125
22914SOL    HW172784   1.831   9.212   3.596  0.9406 -1.4705 -1.4704
22914SOL    HW272785   1.800   9.298   3.476 -0.6577  0.0665  0.0017
22915SOL     OW72786   2.713   0.293   4.676 -0.2698  0.4738  0.4576
22915SOL    HW172787   2.637   0.236   4.664 -1.2021  0.9961  3.2055
22915SOL    HW272788   2.779   0.257   4.617 -2.1210 -0.9290 -0.8949
22916SOL     OW72789   4.467   6.412   9.598 -0.1749 -0.0635  0.4948
22916SOL    HW172790   4.459   6.323   9.565  2.0063  0.5780 -2.1036
22916SOL    HW272791   4.385   6.455   9.572 -0.0327 -0.5719 -0.8675
22917SOL     OW72792   8.139   8.766   2.511  0.7249 -0.0123  0.0898
22917SOL    HW172793   8.181   8.779   2.426 -1.2449  2.8485 -0.5885
22917SOL    HW272794   8.193   8.816   2.573  0.2356  0.8263 -0.1514
22918SOL     OW72795   0.157   8.148   1.355  0.1692 -0.2330 -0.2052
22918SOL    HW172796   0.169   8.126   1.448  1.0692 -0.3837 -0.3562
22918SOL    HW272797   0.167   8.065   1.309 -0.0700 -0.1209 -0.4671
22919SOL     OW72798   7.378   4.631   7.452 -0.0565 -0.7830  0.6479
22919SOL    HW172799   7.317   4.696   7.417 -0.9315 -0.4804  2.6112
22919SOL    HW272800   7.462   4.676   7.456 -0.3239 -0.2679  0.5658
22920SOL     OW72801   8.139   5.918   6.023 -0.4811  0.8106  0.1978
22920SOL    HW172802   8.122   5.925   6.117 -0.2114 -0.2989  0.3473
22920SOL    HW272803   8.231   5.894   6.017 -0.7216 -0.0337 -0.3002
22921SOL     OW72804   7.892  10.088   7.318  0.4716 -0.4366  0.0236
22921SOL    HW172805   7.829  10.147   7.359  0.6493 -0.5646  0.4814
22921SOL    HW272806   7.874  10.096   7.224  0.0329 -0.1825  0.1259
22922SOL     OW72807   8.013   3.249   9.341 -0.9392 -0.2750  0.1333
22922SOL    HW172808   8.001   3.198   9.421 -0.6186 -1.6247 -0.6540
22922SOL    HW272809   8.060   3.328   9.369  1.9373 -2.0869  0.8965
22923SOL     OW72810   9.280   5.062   2.381 -0.4909  0.3996  0.1521
22923SOL    HW172811   9.283   5.084   2.288 -0.2404 -0.1481  0.0282
22923SOL    HW272812   9.367   5.027   2.400  0.4634  3.0387  1.2346
22924SOL     OW72813   1.766   6.576   9.357  0.1960  0.0044 -0.4805
22924SOL    HW172814   1.804   6.663   9.370  1.1842 -0.4778  0.0313
22924SOL    HW272815   1.841   6.516   9.364 -0.8467 -1.1540  2.4346
22925SOL     OW72816   2.736   7.598   3.974  0.1850  0.4781  0.4321
22925SOL    HW172817   2.682   7.669   3.940 -0.7206  0.3602  1.5511
22925SOL    HW272818   2.684   7.559   4.044  0.3293 -1.8023 -0.6314
22926SOL     OW72819   1.142   6.644   9.385 -0.6660 -0.5152  0.2459
22926SOL    HW172820   1.210   6.578   9.374 -0.7147 -0.3561 -1.2083
22926SOL    HW272821   1.064   6.605   9.347 -0.9611 -0.0402  0.3548
22927SOL     OW72822   2.992   0.844   1.617  0.0665 -0.3332  0.2288
22927SOL    HW172823   3.018   0.929   1.652 -0.8536 -0.1909  0.5937
22927SOL    HW272824   3.023   0.781   1.682  1.2749 -0.3496 -0.3251
22928SOL     OW72825   9.855  10.206   2.671 -0.0169  0.8090 -0.2097
22928SOL    HW172826   9.891  10.272   2.612 -1.3480 -0.0599 -2.1093
22928SOL    HW272827   9.844  10.251   2.755  0.2215  2.6452 -1.1274
22929SOL     OW72828   0.744   2.490   9.374  0.0610 -0.0866 -0.2254
22929SOL    HW172829   0.760   2.576   9.413 -2.8610  0.9615 -1.1380
22929SOL    HW272830   0.665   2.458   9.416  1.3569 -2.6828  0.4978
22930SOL     OW72831   4.014   6.468   4.925  0.4224 -0.4313  0.6276
22930SOL    HW172832   3.938   6.454   4.982 -0.3270 -1.3566 -0.5514
22930SOL    HW272833   4.050   6.552   4.953 -0.9224 -0.0664  1.3430
22931SOL     OW72834   3.455   2.206   4.711  0.3244 -0.0732 -0.5304
22931SOL    HW172835   3.414   2.159   4.785 -1.1559  0.5710 -0.8950
22931SOL    HW272836   3.382   2.254   4.671  0.8252 -1.3494 -3.1666
22932SOL     OW72837   3.228   7.529   8.579 -0.3258 -0.3625 -0.2633
22932SOL    HW172838   3.306   7.478   8.561  0.5573  0.4751  1.0058
22932SOL    HW272839   3.187   7.543   8.494  0.4969 -1.4432 -0.8490
22933SOL     OW72840   5.356   1.776   7.018 -0.5132  0.3764  0.4373
22933SOL    HW172841   5.444   1.814   7.029 -1.0992  1.3093  2.6265
22933SOL    HW272842   5.333   1.794   6.927  1.2022  0.9035  0.0616
22934SOL     OW72843   7.687   9.858   4.895  0.0766 -0.4300  0.0883
22934SOL    HW172844   7.753   9.789   4.898 -0.3607 -0.9473 -1.2710
22934SOL    HW272845   7.606   9.814   4.920 -0.1860 -0.4126 -0.6967
22935SOL     OW72846   8.809   1.462   2.566 -0.3387  0.6440 -0.1521
22935SOL    HW172847   8.808   1.540   2.511  2.1209  1.1853  0.4582
22935SOL    HW272848   8.789   1.390   2.506  0.5495  1.4131 -1.4193
22936SOL     OW72849   5.794   8.706   8.082  0.1046 -0.4630  0.2031
22936SOL    HW172850   5.826   8.794   8.061 -3.1997  1.0190  0.8149
22936SOL    HW272851   5.763   8.670   7.999 -1.0043  0.0764  0.3724
22937SOL     OW72852   1.875   8.768   1.725 -0.4227  0.1087  0.4913
22937SOL    HW172853   1.956   8.802   1.687 -0.3128  1.5993  1.9548
22937SOL    HW272854   1.895   8.756   1.817 -1.3307 -1.3335  0.5322
22938SOL     OW72855   8.935   3.066   9.441 -0.6750 -0.0466  0.0982
22938SOL    HW172856   8.950   2.972   9.432 -2.0852 -0.1438 -1.8245
22938SOL    HW272857   8.840   3.076   9.444 -0.5720  1.3718 -0.4105
22939SOL     OW72858   9.116   0.647   8.424 -0.1746  0.1223 -0.2172
22939SOL    HW172859   9.121   0.585   8.351 -0.9982 -1.6608  1.1604
22939SOL    HW272860   9.205   0.650   8.459 -0.4964 -2.0423  1.0046
22940SOL     OW72861   9.145   9.136   2.188 -0.3606  0.1170 -0.2150
22940SOL    HW172862   9.092   9.121   2.266 -0.3510  2.2450  0.2677
22940SOL    HW272863   9.084   9.126   2.114 -0.8717  0.2216  0.1913
22941SOL     OW72864   9.676   2.917   6.322  0.3390 -0.3072  0.2229
22941SOL    HW172865   9.629   2.884   6.398 -0.0445 -0.4320 -0.0662
22941SOL    HW272866   9.609   2.960   6.269  0.7524  0.5464  0.3746
22942SOL     OW72867   7.139   6.574   9.617 -0.1020  0.4272 -0.0217
22942SOL    HW172868   7.109   6.502   9.673  1.1351 -1.2820 -1.4373
22942SOL    HW272869   7.177   6.637   9.678 -1.9348  0.3062  1.3312
22943SOL     OW72870   0.964   8.167   3.319  0.4631 -0.3448  0.1444
22943SOL    HW172871   1.053   8.139   3.340  0.1734 -1.3760  0.0627
22943SOL    HW272872   0.957   8.254   3.358  1.1084 -0.7454  1.2188
22944SOL     OW72873   3.869   8.999   4.761  0.2186 -0.3930  0.0184
22944SOL    HW172874   3.884   8.942   4.686  1.1871  0.4506 -0.4644
22944SOL    HW272875   3.819   9.073   4.725 -1.1480 -0.9781  0.6641
22945SOL     OW72876   0.419   7.204   8.347 -0.1756 -0.2944  0.9552
22945SOL    HW172877   0.435   7.268   8.416 -0.1547  0.1754  0.5243
22945SOL    HW272878   0.503   7.158   8.336  0.0316  0.1265  0.7467
22946SOL     OW72879   1.381   8.288   1.516  0.0652 -0.4160  0.1961
22946SOL    HW172880   1.291   8.312   1.494  0.1366  1.1830  1.4930
22946SOL    HW272881   1.372   8.227   1.589  0.0205 -1.5369 -0.7068
22947SOL     OW72882   8.622   0.259   4.631 -0.2455  0.5127  0.2799
22947SOL    HW172883   8.537   0.250   4.589  0.2271  0.0917 -0.6020
22947SOL    HW272884   8.602   0.292   4.719 -1.6546 -3.0339  1.4949
22948SOL     OW72885   4.999   1.600   5.662 -0.1593  0.0952 -0.5493
22948SOL    HW172886   5.078   1.590   5.609 -1.9405  0.0643 -3.4461
22948SOL    HW272887   5.024   1.661   5.731  2.1297  0.8458 -1.9068
22949SOL     OW72888   3.243   1.846   0.470 -0.1064  0.1536 -0.1501
22949SOL    HW172889   3.228   1.787   0.396  1.3159  0.4149 -0.6707
22949SOL    HW272890   3.192   1.807   0.542 -2.0724  0.2539 -1.3995
22950SOL     OW72891   3.882   7.449   1.779  0.3941  0.3074 -0.0938
22950SOL    HW172892   3.957   7.408   1.823  0.9465 -0.0897 -1.3706
22950SOL    HW272893   3.890   7.542   1.800  1.2650  0.2737 -0.2421
22951SOL     OW72894   3.666   3.235  10.237 -0.1957  0.0512  0.0098
22951SOL    HW172895   3.749   3.271  10.206  0.4077 -0.6111  0.8086
22951SOL    HW272896   3.604   3.255  10.167  0.6038  0.6774 -0.5428
22952SOL     OW72897   7.623   5.152   5.796  0.0161 -0.0021  0.3823
22952SOL    HW172898   7.595   5.242   5.809  0.5212  0.2845 -0.3890
22952SOL    HW272899   7.703   5.159   5.744  0.1181 -0.8885  0.3958
22953SOL     OW72900   2.496   5.682   3.729  0.0492 -0.1293  0.3395
22953SOL    HW172901   2.483   5.767   3.688 -0.4459  0.0992  0.9491
22953SOL    HW272902   2.477   5.697   3.822  1.4253 -0.5589  0.7113
22954SOL     OW72903   2.401   4.437   8.074 -0.1063  1.2093 -0.0200
22954SOL    HW172904   2.452   4.517   8.067 -2.2444  2.7298  0.8727
22954SOL    HW272905   2.466   4.368   8.086  1.8626  2.6054 -1.9420
22955SOL     OW72906   5.089   6.589   5.381 -0.4162  0.6470  0.0998
22955SOL    HW172907   5.181   6.589   5.355 -0.7885  0.7996 -1.2663
22955SOL    HW272908   5.055   6.505   5.350 -0.4429 -0.0171  1.7950
22956SOL     OW72909   9.536   4.917   4.269 -0.3370 -0.3506 -0.2960
22956SOL    HW172910   9.535   5.002   4.313 -1.2124  0.3626 -1.6310
22956SOL    HW272911   9.614   4.873   4.303 -0.1487  0.7668  0.7984
22957SOL     OW72912  10.063   1.097   0.410  0.2392 -0.4489 -0.6081
22957SOL    HW172913   9.987   1.153   0.394  0.8699 -0.3165 -3.7158
22957SOL    HW272914  10.100   1.131   0.492 -1.7587  0.9344 -0.1997
22958SOL     OW72915   7.279   9.598   2.118  0.1668 -0.0750 -0.0814
22958SOL    HW172916   7.373   9.588   2.106 -0.0093 -1.6056 -0.4684
22958SOL    HW272917   7.253   9.665   2.055  0.9596  0.2126 -0.1094
22959SOL     OW72918   3.766   6.451   3.573  0.1712 -0.6505 -0.1974
22959SOL    HW172919   3.756   6.370   3.623 -1.4555 -1.8441 -2.3331
22959SOL    HW272920   3.847   6.440   3.524  0.7769 -0.2667  0.6791
22960SOL     OW72921   7.555   6.813   0.459 -0.2700  0.7134  0.4709
22960SOL    HW172922   7.563   6.726   0.497  0.8377  1.0851  1.1673
22960SOL    HW272923   7.593   6.805   0.372 -1.6465  0.1498 -0.1018
22961SOL     OW72924   2.891   1.856   4.367 -0.4612 -0.3958 -0.5010
22961SOL    HW172925   2.832   1.824   4.435 -0.0406 -2.2262 -0.9462
22961SOL    HW272926   2.974   1.811   4.383 -0.1654 -0.3771 -1.8321
22962SOL     OW72927  10.289   6.326   4.009  0.3931  0.0213 -0.0821
22962SOL    HW172928  10.221   6.366   3.954  1.3699  0.7208 -0.8134
22962SOL    HW272929  10.273   6.363   4.096  1.2244  2.0377 -0.7221
22963SOL     OW72930   6.011   6.587   5.481 -0.1523 -0.2190  0.2338
22963SOL    HW172931   5.985   6.553   5.567  0.2495  0.4761  0.6350
22963SOL    HW272932   6.102   6.561   5.471 -0.1966 -0.2923  0.0220
22964SOL     OW72933   8.449   7.838   0.299 -0.3583  0.2298 -0.0722
22964SOL    HW172934   8.445   7.916   0.354  2.6646  0.9236 -0.6952
22964SOL    HW272935   8.357   7.821   0.276 -1.2181  2.9412  0.9601
22965SOL     OW72936   7.084   7.232   2.466 -0.6080  0.2312 -0.2678
22965SOL    HW172937   7.143   7.293   2.512 -0.9633  0.5560 -0.2312
22965SOL    HW272938   7.012   7.218   2.528 -0.6011 -0.1120 -0.3374
22966SOL     OW72939   9.632   6.611   1.112 -0.0837  0.5674  0.3503
22966SOL    HW172940   9.640   6.516   1.104  1.8941  0.3467  3.3961
22966SOL    HW272941   9.615   6.641   1.023 -0.0299 -2.5617 -0.8385
22967SOL     OW72942   1.028   3.830   2.345  0.8071  0.5205 -0.2277
22967SOL    HW172943   0.938   3.850   2.372  1.2323 -0.6654  2.2934
22967SOL    HW272944   1.081   3.851   2.421  2.0543 -3.5459  0.2247
22968SOL     OW72945   5.987   8.118   7.708 -0.8488 -0.1637  0.0165
22968SOL    HW172946   5.923   8.102   7.778 -0.9280  1.3750  0.3307
22968SOL    HW272947   5.940   8.097   7.627 -0.6280 -2.3657  0.3943
22969SOL     OW72948   6.666   8.942   7.629  0.3192  0.1614  0.1867
22969SOL    HW172949   6.602   9.013   7.617  1.3151  1.1953  0.8343
22969SOL    HW272950   6.650   8.911   7.718 -0.4207 -0.7693 -0.2505
22970SOL     OW72951   0.196   5.411   2.599 -0.1186  0.8259 -0.4463
22970SOL    HW172952   0.232   5.329   2.565 -1.6751 -0.8996  1.7640
22970SOL    HW272953   0.195   5.470   2.523  0.6361 -1.3195 -2.2395
22971SOL     OW72954   7.657   4.824   5.221 -0.0452 -0.3730  0.1291
22971SOL    HW172955   7.591   4.830   5.291  0.3310 -1.4739  0.5960
22971SOL    HW272956   7.727   4.883   5.249 -0.1038 -0.4548  0.4517
22972SOL     OW72957   2.807   2.076   0.186  0.9719 -0.1397  0.0593
22972SOL    HW172958   2.784   2.036   0.270  0.8434 -1.6381 -0.6614
22972SOL    HW272959   2.893   2.040   0.165  0.7459 -0.2389 -0.7256
22973SOL     OW72960   2.494   4.558   0.881 -0.0702 -0.1502 -0.0559
22973SOL    HW172961   2.403   4.586   0.880  0.0774  0.3139 -0.7333
22973SOL    HW272962   2.510   4.523   0.793  0.9379  1.5187 -0.5718
22974SOL     OW72963   4.584   1.883   2.501 -0.1842  0.0566  0.4573
22974SOL    HW172964   4.541   1.952   2.450  1.6039 -0.2778 -1.6875
22974SOL    HW272965   4.561   1.802   2.455  1.4400 -0.2641  0.1355
22975SOL     OW72966  10.184   9.727   3.572 -0.5046  0.4182  0.4028
22975SOL    HW172967  10.223   9.783   3.505  0.5771  1.9341  2.1885
22975SOL    HW272968  10.105   9.692   3.531  0.3185  0.9537 -1.7708
22976SOL     OW72969   0.968   8.955   1.946 -0.4000  0.3796 -0.1072
22976SOL    HW172970   0.911   8.881   1.969 -0.8573  1.2061  1.5391
22976SOL    HW272971   1.056   8.924   1.963 -0.6786  0.7008  2.1397
22977SOL     OW72972   3.796   2.586   0.243 -0.0918  0.3052 -0.3543
22977SOL    HW172973   3.793   2.507   0.189  0.6382  0.9112 -1.3030
22977SOL    HW272974   3.717   2.635   0.219 -1.0729 -0.5462  0.9422
22978SOL     OW72975   6.413   7.203   6.154  0.1422  0.6161 -0.5659
22978SOL    HW172976   6.420   7.116   6.193 -0.6177  0.8497  0.1151
22978SOL    HW272977   6.446   7.192   6.065  1.2001 -0.0956 -0.1029
22979SOL     OW72978   4.045   7.494   3.029  0.1652  0.8179 -0.3411
22979SOL    HW172979   4.111   7.556   3.061  1.7006 -0.5330 -0.7747
22979SOL    HW272980   4.050   7.500   2.934 -0.1867  0.5415 -0.3805
22980SOL     OW72981   5.137   8.097   4.854  0.1460 -0.2105  0.1845
22980SOL    HW172982   5.174   8.016   4.816  0.6425 -0.6611  1.5604
22980SOL    HW272983   5.193   8.115   4.929  0.8378  2.1713 -0.8260
22981SOL     OW72984   4.089   8.152   9.256 -0.5698 -0.5925 -0.2373
22981SOL    HW172985   4.088   8.122   9.165 -0.8460  2.1384 -1.2175
22981SOL    HW272986   4.167   8.112   9.294 -0.2341 -1.4718 -1.7923
22982SOL     OW72987   0.864   4.276   1.096  0.5421  0.3979  0.0552
22982SOL    HW172988   0.827   4.327   1.024 -0.4817 -1.6879 -0.9580
22982SOL    HW272989   0.938   4.230   1.057 -0.4182 -1.2590  0.1127
22983SOL     OW72990   6.044  10.021   5.261  0.1865 -0.2330  0.4243
22983SOL    HW172991   6.052  10.112   5.289  3.9036 -0.5759  0.9610
22983SOL    HW272992   6.025   9.972   5.341 -2.5285  0.0239  0.0314
22984SOL     OW72993   5.652   5.101   8.274 -0.3065  0.1539 -0.3104
22984SOL    HW172994   5.719   5.051   8.320  0.8590  0.3485 -1.7178
22984SOL    HW272995   5.669   5.085   8.181 -0.7579  2.0332 -0.7779
22985SOL     OW72996   1.625   8.625   9.944  0.0842 -0.1655 -0.0930
22985SOL    HW172997   1.641   8.532   9.929  2.7499  0.0326  0.9955
22985SOL    HW272998   1.554   8.628  10.007 -0.2033 -1.4428 -0.3420
22986SOL     OW72999   2.898   9.832   2.718 -0.0367  0.3555 -0.4171
22986SOL    HW173000   2.901   9.895   2.646  0.4904  0.8931  0.0691
22986SOL    HW273001   2.839   9.764   2.687 -1.6653  1.7138 -0.4648
22987SOL     OW73002   5.073   1.095   7.649 -0.5024 -0.5504  0.2383
22987SOL    HW173003   5.067   1.073   7.742  0.6203 -2.2751 -0.0467
22987SOL    HW273004   5.152   1.147   7.641 -1.2770  0.6975  0.3967
22988SOL     OW73005   3.554   7.816   4.207 -0.2183 -0.2533  0.3004
22988SOL    HW173006   3.566   7.866   4.287  1.1863  0.3324 -0.2479
22988SOL    HW273007   3.605   7.736   4.220  2.1912  0.9700 -0.9349
22989SOL     OW73008   4.364   7.366   4.756 -0.4785  0.2697  0.2358
22989SOL    HW173009   4.271   7.389   4.751 -0.8403 -0.6272  1.9397
22989SOL    HW273010   4.379   7.350   4.849  0.6946 -2.3433 -0.3141
22990SOL     OW73011   1.282   5.760   4.854 -0.5267 -0.2327 -0.6230
22990SOL    HW173012   1.339   5.768   4.777 -0.9510 -0.0121 -0.9201
22990SOL    HW273013   1.298   5.840   4.904 -1.4596  0.4104 -1.3218
22991SOL     OW73014   7.161   3.033   9.806  0.0490 -0.2708 -0.1236
22991SOL    HW173015   7.236   2.974   9.810  1.2488  1.2374  0.4905
22991SOL    HW273016   7.169   3.076   9.721 -1.0614 -1.2529 -0.7529
22992SOL     OW73017   8.619   4.040   2.275 -0.0208 -0.8499 -0.0335
22992SOL    HW173018   8.593   3.949   2.263 -4.6274  0.2099  0.0850
22992SOL    HW273019   8.602   4.081   2.190  1.5071  0.0468  0.0584
22993SOL     OW73020   0.472   7.679   3.677 -0.4862  0.2358  0.6796
22993SOL    HW173021   0.395   7.648   3.725 -0.1005 -0.4915  0.8420
22993SOL    HW273022   0.473   7.627   3.596 -0.1775  0.2538  0.6695
22994SOL     OW73023   8.973   0.419   7.659  0.5203 -0.6577 -0.0291
22994SOL    HW173024   8.904   0.357   7.633  0.8512 -0.4785 -1.4398
22994SOL    HW273025   9.010   0.382   7.739 -2.0702 -0.0747  1.5710
22995SOL     OW73026   0.530   2.245   4.534 -0.6218  0.1003  0.7287
22995SOL    HW173027   0.503   2.336   4.545  0.2485  0.3338  0.9765
22995SOL    HW273028   0.625   2.249   4.524 -0.6865 -0.6786 -0.4367
22996SOL     OW73029   8.783   6.446   6.412  0.1145  0.4324 -0.2830
22996SOL    HW173030   8.785   6.498   6.333 -1.0260 -0.3444 -0.8417
22996SOL    HW273031   8.690   6.433   6.432  0.3682 -0.3068  0.5499
22997SOL     OW73032   5.635   8.200   6.724  0.6015  0.2167  0.1857
22997SOL    HW173033   5.572   8.173   6.656  0.1213  0.5294  0.4998
22997SOL    HW273034   5.636   8.296   6.718  1.1914  0.2064  0.0609
22998SOL     OW73035   1.181   0.545   9.254  0.1092  0.1409  0.4726
22998SOL    HW173036   1.181   0.452   9.277 -2.2581 -0.1052 -0.3043
22998SOL    HW273037   1.153   0.548   9.163  3.5169  1.4911 -0.7129
22999SOL     OW73038   5.576   7.963   2.588  0.6273  0.0016  0.0327
22999SOL    HW173039   5.650   7.990   2.642 -0.1358  1.7416  0.2747
22999SOL    HW273040   5.509   7.937   2.651  0.1395  0.9338 -0.0839
23000SOL     OW73041   7.306   6.932   1.674 -0.4666 -0.1486  0.0309
23000SOL    HW173042   7.394   6.897   1.663 -0.9363 -0.6070 -3.4188
23000SOL    HW273043   7.256   6.859   1.712  0.0935 -0.7898 -0.4433
23001SOL     OW73044   9.927   6.999  10.202 -0.0150 -0.8165  0.3535
23001SOL    HW173045   9.977   7.031  10.277  1.1915  0.9574 -1.1118
23001SOL    HW273046   9.925   6.904  10.213  0.0059 -0.5874  2.6666
23002SOL     OW73047   5.717   7.987   8.364 -0.0863  0.4344 -0.2654
23002SOL    HW173048   5.657   8.005   8.292 -0.9918  0.4362  0.4634
23002SOL    HW273049   5.668   8.011   8.443 -1.9285 -5.7300  1.0328
23003SOL     OW73050   7.568   3.113   9.236  0.1017 -0.2408 -0.5698
23003SOL    HW173051   7.655   3.112   9.196  0.7500  0.6542  0.7274
23003SOL    HW273052   7.567   3.035   9.293 -0.0411 -0.3871 -0.7720
23004SOL     OW73053   5.609   2.115   6.605  0.4536  0.4363 -0.3213
23004SOL    HW173054   5.595   2.130   6.511  2.5919  0.5402 -0.6798
23004SOL    HW273055   5.675   2.180   6.630  1.1337 -0.6428  0.8500
23005SOL     OW73056   3.119   2.894   8.658  0.1724  0.2368 -0.2297
23005SOL    HW173057   3.075   2.887   8.573 -2.4727 -0.3906  1.0812
23005SOL    HW273058   3.171   2.814   8.664  0.5585  0.3963 -1.3478
23006SOL     OW73059   4.246   6.932   4.748 -0.1502 -0.2825  0.2879
23006SOL    HW173060   4.164   6.932   4.699  0.8987  2.2707 -1.7218
23006SOL    HW273061   4.314   6.931   4.680  1.5105 -1.2236  1.8626
23007SOL     OW73062   0.474   6.169   5.460 -0.0958  0.6652 -0.2493
23007SOL    HW173063   0.459   6.081   5.494 -0.3457  0.5083 -0.7676
23007SOL    HW273064   0.482   6.223   5.539  0.0376  0.1865  0.0703
23008SOL     OW73065   5.921   7.398   6.877 -0.3229  0.1356  0.7112
23008SOL    HW173066   6.004   7.439   6.900 -0.1769  0.4308 -0.2661
23008SOL    HW273067   5.899   7.436   6.791 -1.2819 -0.2071  0.7902
23009SOL     OW73068   5.103   4.223   1.137 -0.1408  0.6694  0.1639
23009SOL    HW173069   5.142   4.141   1.167 -0.6799 -0.0311 -0.9662
23009SOL    HW273070   5.166   4.291   1.161  0.4499 -0.1131  0.8584
23010SOL     OW73071   2.440  10.064   1.907 -0.0734  1.2888  0.1426
23010SOL    HW173072   2.422  10.137   1.848  0.5707  0.9097 -0.5511
23010SOL    HW273073   2.535  10.054   1.903 -0.2368 -0.3000 -0.6694
23011SOL     OW73074   0.963   3.414   9.813  0.3967  0.2734 -0.0676
23011SOL    HW173075   1.018   3.466   9.755 -0.1677 -0.8639 -1.7081
23011SOL    HW273076   0.896   3.376   9.755  0.4657 -1.8270  1.1176
23012SOL     OW73077   6.848   9.365   1.889 -0.2735 -0.0616  0.4047
23012SOL    HW173078   6.936   9.387   1.918  0.1489  0.4330 -1.1349
23012SOL    HW273079   6.819   9.442   1.840 -0.0514 -1.5804 -2.3201
23013SOL     OW73080   8.730   0.862   3.002 -0.3418  0.7238  0.1063
23013SOL    HW173081   8.778   0.945   3.005 -0.5646  0.8197  1.1370
23013SOL    HW273082   8.779   0.809   2.940 -0.4289  1.7660 -0.9003
23014SOL     OW73083   8.785   0.154   5.597 -0.2582 -0.1837 -0.0281
23014SOL    HW173084   8.709   0.103   5.625 -1.9465  0.1935 -3.4057
23014SOL    HW273085   8.842   0.091   5.553  1.3234 -0.3993  2.2006
23015SOL     OW73086   1.666   9.859   2.561  0.9739 -0.4240 -0.0736
23015SOL    HW173087   1.653   9.824   2.473 -0.0655 -0.4062  0.0603
23015SOL    HW273088   1.577   9.875   2.594  1.3877  0.9642  0.4163
23016SOL     OW73089   0.744   0.049   3.021  0.0498  0.0431 -0.2656
23016SOL    HW173090   0.820   0.012   2.975 -0.6394 -0.0520 -1.3768
23016SOL    HW273091   0.779   0.079   3.104  1.5879  1.1979 -1.2638
23017SOL     OW73092   3.929   5.140  10.092 -0.0994  0.8748 -0.2663
23017SOL    HW173093   3.870   5.067  10.114 -0.0477  1.1400  0.8126
23017SOL    HW273094   3.933   5.192  10.172 -0.0523  2.0150 -0.9843
23018SOL     OW73095   3.164   9.292   7.712  0.4985  0.1235  0.7095
23018SOL    HW173096   3.089   9.233   7.702  0.1176  0.8953 -1.5930
23018SOL    HW273097   3.175   9.301   7.807 -1.2210 -1.3591  1.1097
23019SOL     OW73098   6.536   2.408   3.357 -0.6313 -0.6066 -0.2741
23019SOL    HW173099   6.583   2.384   3.277  0.3536 -0.7713  0.3494
23019SOL    HW273100   6.574   2.354   3.425 -0.9590  0.0649  0.4603
23020SOL     OW73101   9.443   9.021   0.165  0.0466  0.1538 -0.4392
23020SOL    HW173102   9.497   8.990   0.092  0.5247  1.9264 -0.8825
23020SOL    HW273103   9.498   9.083   0.212 -1.1489  1.0249 -0.1268
23021SOL     OW73104   7.024   7.598   3.427  0.4836  0.0139  0.1475
23021SOL    HW173105   7.010   7.517   3.476  0.5830 -0.2211 -0.2018
23021SOL    HW273106   7.086   7.648   3.480 -0.5104  0.4100  0.9672
23022SOL     OW73107   4.516   4.136   5.266 -0.3351  0.1844  0.1434
23022SOL    HW173108   4.557   4.075   5.205 -0.1353  0.6377 -0.1814
23022SOL    HW273109   4.551   4.221   5.242  1.3299  0.1551  2.1704
23023SOL     OW73110   7.910   9.581   8.058  0.4545  0.5731 -0.0758
23023SOL    HW173111   7.992   9.531   8.063 -0.5211 -1.0396  0.5746
23023SOL    HW273112   7.938   9.672   8.051  2.3513 -0.1067 -3.0313
23024SOL     OW73113   4.515   7.778   3.316  0.1013  0.4288 -0.1119
23024SOL    HW173114   4.548   7.690   3.298  0.0626  0.5600 -0.8656
23024SOL    HW273115   4.580   7.815   3.376  0.3765  0.0575 -0.1712
23025SOL     OW73116  10.102   6.834   9.302 -0.3442 -0.3313  0.3378
23025SOL    HW173117  10.039   6.838   9.231  0.3420  0.3426 -0.2483
23025SOL    HW273118  10.101   6.743   9.331 -1.2424 -0.4229  0.0303
23026SOL     OW73119   5.705   0.551   8.554  0.1947  0.2184  0.3859
23026SOL    HW173120   5.690   0.484   8.488 -1.0643 -0.6084  1.4549
23026SOL    HW273121   5.708   0.633   8.505  0.2744 -0.4640 -0.7897
23027SOL     OW73122   0.421   9.915   2.784  0.0478  0.0507  0.0291
23027SOL    HW173123   0.474   9.841   2.814  0.3444  1.2985  2.9233
23027SOL    HW273124   0.333   9.878   2.773 -0.1138 -0.5766  2.7222
23028SOL     OW73125   8.979   6.447   1.897 -0.5860  0.0204 -0.3138
23028SOL    HW173126   8.970   6.539   1.870 -0.0275 -0.2717 -1.5983
23028SOL    HW273127   8.967   6.448   1.992  2.1388  1.8243  0.1255
23029SOL     OW73128   7.874   8.257   0.094  0.6388  0.1704 -0.1949
23029SOL    HW173129   7.845   8.169   0.068 -3.1902  1.3380 -0.4997
23029SOL    HW273130   7.897   8.300   0.011 -1.5097  0.6453 -0.6103
23030SOL     OW73131   7.956   7.295   4.570 -0.1035  0.1239  0.6469
23030SOL    HW173132   7.935   7.210   4.531  1.9335 -0.0646 -0.1232
23030SOL    HW273133   8.008   7.273   4.648  0.8245  0.6622  0.1892
23031SOL     OW73134   1.576   7.502   4.361 -0.0021  0.3558 -0.2043
23031SOL    HW173135   1.514   7.527   4.429  0.1670 -0.0190  0.0935
23031SOL    HW273136   1.550   7.413   4.336 -0.0164  0.4626 -0.5794
23032SOL     OW73137   9.294   3.064   3.172 -0.1442 -0.3322  0.5653
23032SOL    HW173138   9.327   3.047   3.261  0.5261 -0.1158  0.3586
23032SOL    HW273139   9.229   3.133   3.184 -0.5764 -0.7946  0.9808
23033SOL     OW73140   3.197   1.075   6.224 -0.7264  0.8155 -0.3157
23033SOL    HW173141   3.109   1.106   6.246 -0.8122  1.1293 -1.0530
23033SOL    HW273142   3.247   1.084   6.305 -1.4474  0.3462  0.1951
23034SOL     OW73143   9.533   2.036   8.554 -0.1974  0.0759 -0.9351
23034SOL    HW173144   9.498   2.109   8.503 -0.2255  1.1751  0.5810
23034SOL    HW273145   9.611   2.071   8.596 -0.6955 -0.4727  0.5073
23035SOL     OW73146   7.493   4.252   8.047  0.0181 -0.0940  1.0607
23035SOL    HW173147   7.431   4.266   7.975  0.4838 -1.1526  0.4252
23035SOL    HW273148   7.441   4.264   8.126 -0.8204 -0.2099  0.5418
23036SOL     OW73149   9.789   6.726   9.938 -0.1285 -0.1938 -0.2443
23036SOL    HW173150   9.744   6.797   9.892  0.5569  0.0530 -0.5472
23036SOL    HW273151   9.732   6.706  10.012 -1.0700 -0.3441 -0.9872
23037SOL     OW73152   0.150   7.669   6.252  0.0038 -0.5607 -0.3373
23037SOL    HW173153   0.057   7.654   6.269  0.0678 -0.4319  0.1321
23037SOL    HW273154   0.191   7.667   6.339  0.7359 -2.5948 -0.6702
23038SOL     OW73155   9.527   2.806   8.347  0.0037  0.3518 -0.5343
23038SOL    HW173156   9.497   2.723   8.309 -1.5890  0.7473 -0.1757
23038SOL    HW273157   9.599   2.833   8.289 -0.0130 -0.8511 -1.1526
23039SOL     OW73158   2.365   8.825   8.611  0.4064 -0.2753  0.7259
23039SOL    HW173159   2.287   8.771   8.620  1.3888 -1.6949  1.1949
23039SOL    HW273160   2.385   8.823   8.517 -0.4781  0.6608  0.5019
23040SOL     OW73161   7.374   0.345   1.653 -0.3479  0.5057 -0.0173
23040SOL    HW173162   7.289   0.378   1.623 -0.1713 -0.3372 -1.5467
23040SOL    HW273163   7.359   0.252   1.669  0.4724  0.1733 -1.1033
23041SOL     OW73164   1.586   8.761   1.694 -0.2508 -0.0381 -0.3606
23041SOL    HW173165   1.678   8.737   1.678 -0.8804 -2.8167 -0.3119
23041SOL    HW273166   1.586   8.798   1.783  0.6428 -1.4311  0.2577
23042SOL     OW73167   3.617   3.222   3.980 -0.2262  0.1320  1.1194
23042SOL    HW173168   3.643   3.236   3.888  2.7490 -1.9357  1.5051
23042SOL    HW273169   3.525   3.196   3.975 -0.9606  2.5908 -0.9640
23043SOL     OW73170   6.289   9.103   1.808 -0.0827  0.2423  0.3884
23043SOL    HW173171   6.356   9.134   1.869  0.3881 -0.2549  0.1318
23043SOL    HW273172   6.278   9.174   1.746  0.7966  0.0197 -0.0387
23044SOL     OW73173   4.423   8.035   2.951 -0.1179  0.0128  0.4037
23044SOL    HW173174   4.329   8.036   2.934 -0.1132  0.9194  0.3837
23044SOL    HW273175   4.440   7.947   2.984 -0.8579 -0.3731 -0.2069
23045SOL     OW73176   8.167   5.280   2.515  0.2853  0.1933  0.1470
23045SOL    HW173177   8.229   5.290   2.443  0.2984  0.6568  0.2184
23045SOL    HW273178   8.220   5.261   2.591  0.5019  2.1507  0.5385
23046SOL     OW73179   2.520   8.595   8.448 -0.0490  0.3244  0.2706
23046SOL    HW173180   2.591   8.655   8.471  0.5352  0.0697 -0.7881
23046SOL    HW273181   2.500   8.615   8.356  0.3854 -1.2903 -0.2120
23047SOL     OW73182   2.356   2.110   7.034  0.4607 -0.2203 -0.3291
23047SOL    HW173183   2.408   2.055   7.092 -0.2606 -0.7984 -0.2163
23047SOL    HW273184   2.335   2.187   7.086 -1.8037 -1.5622  0.9163
23048SOL     OW73185   0.484   2.800   9.348  0.2916  0.1291 -0.1625
23048SOL    HW173186   0.571   2.769   9.374  0.6170  0.6878 -0.5612
23048SOL    HW273187   0.468   2.758   9.264 -0.7282 -1.6161  0.8310
23049SOL     OW73188   9.384   0.950   1.198  0.1863  0.7295 -0.6540
23049SOL    HW173189   9.435   1.000   1.135  0.0111 -0.6397 -1.9346
23049SOL    HW273190   9.443   0.882   1.229 -0.1085  0.6323 -0.2949
23050SOL     OW73191   9.936   1.442   6.962  0.0869  0.2258 -0.5232
23050SOL    HW173192   9.854   1.448   7.010 -0.3263  0.5322 -1.2511
23050SOL    HW273193   9.915   1.388   6.885  1.4682 -3.0566  1.1697
23051SOL     OW73194   2.051   7.989   7.686 -0.9743  1.0511 -0.3181
23051SOL    HW173195   2.055   7.997   7.591  0.9566  0.4103 -0.3375
23051SOL    HW273196   2.084   7.901   7.704  2.0235  2.2932  1.0569
23052SOL     OW73197   9.362   4.816   5.959 -0.0982  0.1370 -0.5613
23052SOL    HW173198   9.379   4.810   5.865 -2.1940 -0.3599 -0.9560
23052SOL    HW273199   9.438   4.773   5.999  0.7186  0.1384 -2.0222
23053SOL     OW73200   2.900   4.682   3.893  0.0884  0.1186  0.1174
23053SOL    HW173201   2.808   4.681   3.867 -0.0752  0.0430  0.6898
23053SOL    HW273202   2.942   4.618   3.835  0.3492  2.1888 -2.1303
23054SOL     OW73203   4.110   4.979   0.117 -0.3850  0.1951 -0.3896
23054SOL    HW173204   4.070   5.065   0.107  0.2696  0.6926  0.9944
23054SOL    HW273205   4.201   4.991   0.088  0.0184  0.2891  0.8296
23055SOL     OW73206   4.808   8.510   8.702  1.1265 -0.1900 -0.1781
23055SOL    HW173207   4.868   8.573   8.741  1.7927 -2.0898  2.0534
23055SOL    HW273208   4.799   8.441   8.767 -2.0047 -0.9436 -1.2302
23056SOL     OW73209   7.338   2.138   3.736  0.7183 -1.1921 -0.2110
23056SOL    HW173210   7.363   2.229   3.754  0.2127 -1.1393  0.2595
23056SOL    HW273211   7.261   2.123   3.792  0.1066 -1.5482 -1.1329
23057SOL     OW73212   2.140  10.110   5.038 -0.2030 -0.5507  0.3257
23057SOL    HW173213   2.114  10.139   5.125 -1.1545  0.8584 -0.3959
23057SOL    HW273214   2.071  10.048   5.012 -0.4415 -0.2298  0.1917
23058SOL     OW73215   0.629   0.225   3.365  0.0690  0.6330  0.4323
23058SOL    HW173216   0.705   0.282   3.376  0.4592  0.4522 -1.0827
23058SOL    HW273217   0.643   0.183   3.280 -0.9761 -0.5593  0.8280
23059SOL     OW73218   2.469   5.467   6.641  0.1455  0.2992  0.1831
23059SOL    HW173219   2.531   5.538   6.626  0.1930  0.2417  0.1106
23059SOL    HW273220   2.468   5.418   6.559  1.2599 -0.6860  0.7360
23060SOL     OW73221   0.118   5.284   7.847  0.3816  0.7494  0.0394
23060SOL    HW173222   0.041   5.233   7.822 -0.3418  1.4973  0.6653
23060SOL    HW273223   0.102   5.371   7.810  0.4404  1.1876  1.0188
23061SOL     OW73224   1.610   4.667   9.404 -0.0875  0.2151 -0.0413
23061SOL    HW173225   1.686   4.716   9.373 -0.1669  1.0579  1.0055
23061SOL    HW273226   1.615   4.583   9.360  0.9954  0.5660 -0.6141
23062SOL     OW73227   3.647   7.239   8.397  0.2676 -0.1329 -0.1187
23062SOL    HW173228   3.628   7.177   8.468  0.5702 -0.1773 -0.0752
23062SOL    HW273229   3.719   7.198   8.349 -0.9037 -0.8230 -1.3451
23063SOL     OW73230   8.404   5.409   7.763  0.7972 -0.4630  0.5701
23063SOL    HW173231   8.373   5.385   7.675  3.4034 -1.5649 -0.1246
23063SOL    HW273232   8.418   5.326   7.808  2.2733 -0.0164  0.9837
23064SOL     OW73233   6.826   1.280   5.092 -0.3112  0.2469  0.5306
23064SOL    HW173234   6.841   1.217   5.021 -0.2073 -0.1339  0.8847
23064SOL    HW273235   6.750   1.246   5.139  0.0356  0.1182  1.0156
23065SOL     OW73236   2.424   3.921   8.199 -0.7086 -0.2210  0.0233
23065SOL    HW173237   2.362   3.902   8.129  0.3034  0.0698 -0.9795
23065SOL    HW273238   2.478   3.843   8.205  0.6312  0.5797 -1.0794
23066SOL     OW73239   4.844   9.131   6.539  0.4827 -0.2045 -1.0751
23066SOL    HW173240   4.791   9.206   6.512 -0.8408 -1.3964 -1.9631
23066SOL    HW273241   4.806   9.104   6.622  1.1229  0.2351 -0.6283
23067SOL     OW73242   0.023   3.421   0.641  0.0819  0.7069 -0.0962
23067SOL    HW173243  -0.034   3.356   0.682  0.9312 -0.7174 -1.0631
23067SOL    HW273244   0.002   3.416   0.548  0.6700  1.3107 -0.2731
23068SOL     OW73245   8.781   0.574   0.142 -0.1269  0.6458  0.4847
23068SOL    HW173246   8.713   0.634   0.112  0.2526 -0.2213 -2.3373
23068SOL    HW273247   8.858   0.630   0.153  0.7771  0.5973 -4.0287
23069SOL     OW73248  10.043   2.961   8.029  0.3584 -0.1621 -0.0091
23069SOL    HW173249   9.957   3.000   8.013 -0.8237 -1.5469  2.3531
23069SOL    HW273250  10.104   3.034   8.026 -1.2843  1.3090  0.7860
23070SOL     OW73251   5.933   6.475   2.522  0.2251  0.1189 -0.3216
23070SOL    HW173252   5.873   6.527   2.470  1.8181 -0.0689 -2.4756
23070SOL    HW273253   6.004   6.536   2.544  0.1593 -0.1263  0.6076
23071SOL     OW73254   2.886   6.522   7.722  0.4022 -0.1198  0.7846
23071SOL    HW173255   2.866   6.516   7.815 -0.7060  1.3173  0.6823
23071SOL    HW273256   2.844   6.603   7.694  1.9818  0.2509 -0.6672
23072SOL     OW73257   5.763   9.216   1.524  0.2784 -0.3688 -0.9697
23072SOL    HW173258   5.775   9.132   1.569  0.7100 -0.8181 -1.8829
23072SOL    HW273259   5.775   9.195   1.431  1.6935  0.9138 -1.1266
23073SOL     OW73260   6.671   9.537   2.418 -0.3183 -0.1051 -0.3322
23073SOL    HW173261   6.721   9.602   2.368 -0.1717  0.2518  0.2613
23073SOL    HW273262   6.588   9.529   2.372 -0.4619  0.7511 -0.2308
23074SOL     OW73263   0.133   1.851   8.099  0.0469 -0.4167 -0.1885
23074SOL    HW173264   0.195   1.806   8.157 -1.3667 -0.0446  1.7272
23074SOL    HW273265   0.119   1.790   8.026 -0.2832 -2.2340  1.3153
23075SOL     OW73266   8.817   2.813   2.985  0.0377  0.2569  0.4009
23075SOL    HW173267   8.858   2.864   2.915 -0.4712 -3.3431 -2.8964
23075SOL    HW273268   8.728   2.849   2.991  0.2452  0.9579 -0.4562
23076SOL     OW73269   6.234   4.442   6.760  0.6916  0.3184 -0.1331
23076SOL    HW173270   6.166   4.510   6.758  0.9516  0.6437  1.3744
23076SOL    HW273271   6.188   4.362   6.784  0.7657  0.4459  0.4358
23077SOL     OW73272   0.277   2.466   1.445 -0.6626 -0.1045 -0.6569
23077SOL    HW173273   0.330   2.543   1.465  0.4428 -0.9892 -0.0463
23077SOL    HW273274   0.289   2.408   1.520 -0.4762 -1.3826 -1.6288
23078SOL     OW73275   9.380   9.587   9.028 -0.2163 -0.3112  0.2556
23078SOL    HW173276   9.304   9.596   8.971  0.9456  0.9761 -1.1682
23078SOL    HW273277   9.359   9.513   9.085 -2.2094 -0.4379 -0.5823
23079SOL     OW73278   0.899   8.778   5.601 -0.6715 -0.0614 -0.0670
23079SOL    HW173279   0.944   8.863   5.600  1.9109 -1.3304  0.3703
23079SOL    HW273280   0.869   8.765   5.511 -1.2616  1.3588 -0.1026
23080SOL     OW73281   8.323   3.133   6.766  0.0310 -0.1902  0.7508
23080SOL    HW173282   8.388   3.126   6.835 -0.7113 -0.3109  1.4508
23080SOL    HW273283   8.260   3.197   6.799  0.4796  0.9442 -0.4850
23081SOL     OW73284   1.324   2.531   1.256 -0.1280 -0.2436 -0.2523
23081SOL    HW173285   1.290   2.574   1.334 -0.6519 -1.7848  0.4029
23081SOL    HW273286   1.325   2.438   1.278  1.0969 -0.5748 -1.5697
23082SOL     OW73287   9.584   8.148   5.834 -0.3348  0.0734 -0.3606
23082SOL    HW173288   9.572   8.158   5.929 -3.6573 -2.3832 -0.3274
23082SOL    HW273289   9.674   8.115   5.825 -0.5598 -1.5772  2.2182
23083SOL     OW73290   7.058   3.645   3.009 -0.6141 -0.3574  0.5220
23083SOL    HW173291   7.004   3.631   3.087 -1.2039 -2.3106 -0.1814
23083SOL    HW273292   6.996   3.642   2.936  0.1213 -0.0074 -0.1290
23084SOL     OW73293   2.415   8.622   1.482  0.0044  0.2586 -0.6391
23084SOL    HW173294   2.436   8.530   1.495  0.6672  0.1412 -2.3053
23084SOL    HW273295   2.500   8.665   1.473 -0.3069  1.0158 -0.1296
23085SOL     OW73296   1.526  10.135   3.729 -0.6026  0.0242  0.3720
23085SOL    HW173297   1.589  10.127   3.658 -1.2469 -0.7790 -0.1297
23085SOL    HW273298   1.533  10.226   3.758  2.4542 -0.6012  1.9418
23086SOL     OW73299   1.449   8.096   3.594  0.3137  0.2796 -0.4877
23086SOL    HW173300   1.506   8.129   3.664  0.1558  0.4751 -0.4507
23086SOL    HW273301   1.373   8.155   3.595  0.3348  0.3156 -0.8580
23087SOL     OW73302   2.627   3.008   9.835 -0.2502  0.2279 -0.4226
23087SOL    HW173303   2.663   2.961   9.759 -0.5607 -0.9672  0.1399
23087SOL    HW273304   2.703   3.046   9.878 -0.1773  2.1982 -2.1055
23088SOL     OW73305   6.589   2.089   2.249 -0.2541 -0.1925 -0.3996
23088SOL    HW173306   6.595   1.995   2.233 -1.8039 -0.4021  0.1699
23088SOL    HW273307   6.526   2.121   2.184 -0.9543  0.1787  0.4518
23089SOL     OW73308   7.208   1.566   7.540  0.1658 -0.4611  0.5431
23089SOL    HW173309   7.150   1.558   7.465  0.6186 -0.3491  0.1808
23089SOL    HW273310   7.296   1.571   7.503  0.2221  3.7467  0.7788
23090SOL     OW73311   3.082   7.059   3.431  0.3284  0.2431  0.1048
23090SOL    HW173312   3.056   7.134   3.485  0.0746  1.0281 -1.0565
23090SOL    HW273313   3.000   7.017   3.406  0.4145  0.1652 -0.0491
23091SOL     OW73314   6.131   1.620   6.995  0.4607  0.2015  0.6162
23091SOL    HW173315   6.224   1.625   6.973 -0.0617 -0.6436 -2.3367
23091SOL    HW273316   6.089   1.674   6.927 -1.1870  1.0479  2.2434
23092SOL     OW73317   6.995   7.100   4.749  0.1979  0.0766 -0.2214
23092SOL    HW173318   7.016   7.182   4.793  2.7157 -0.8898  0.5538
23092SOL    HW273319   7.024   7.031   4.809  1.0100 -1.3309 -2.1013
23093SOL     OW73320   6.507  10.245   3.339 -0.7738  0.1907 -0.3007
23093SOL    HW173321   6.577  10.308   3.356 -1.4839  0.9465 -0.1617
23093SOL    HW273322   6.473  10.270   3.253 -2.2285  1.1288  0.5036
23094SOL     OW73323   4.649   1.036   3.088  0.3349 -0.3224 -0.4419
23094SOL    HW173324   4.656   1.067   2.998  1.1162 -2.5702 -1.2238
23094SOL    HW273325   4.739   1.033   3.120  0.1735 -0.7038 -0.0123
23095SOL     OW73326   2.396   5.950   7.093 -0.2353 -0.1652 -0.0166
23095SOL    HW173327   2.489   5.941   7.111 -0.3355  0.8151  1.0786
23095SOL    HW273328   2.357   5.871   7.132  0.0413 -0.1473  0.3025
23096SOL     OW73329   0.939   0.759   0.049 -0.2681  0.0589  0.4204
23096SOL    HW173330   0.917   0.666   0.041  1.7470 -0.3551 -0.7497
23096SOL    HW273331   0.979   0.766   0.136 -0.3350 -0.1818  0.4741
23097SOL     OW73332   2.492   3.486   5.545 -0.0449 -0.0737  0.5015
23097SOL    HW173333   2.409   3.468   5.589  0.9719  0.1410  2.6825
23097SOL    HW273334   2.547   3.410   5.566 -0.2073 -1.1106 -2.4639
23098SOL     OW73335   1.803   3.389   5.795  0.5905 -0.2540  0.3305
23098SOL    HW173336   1.884   3.342   5.813  0.9909 -0.0749 -0.9480
23098SOL    HW273337   1.804   3.463   5.855 -0.8716 -2.6695  3.7028
23099SOL     OW73338   8.548   0.760   0.136 -0.4225 -0.1545 -0.3310
23099SOL    HW173339   8.495   0.817   0.082 -0.3133  1.3615  1.0723
23099SOL    HW273340   8.520   0.779   0.226 -1.6318 -3.6068  0.1838
23100SOL     OW73341   9.918   2.319   7.253 -0.1718 -0.2634 -0.0729
23100SOL    HW173342   9.951   2.408   7.237 -0.3491 -0.2514 -0.3881
23100SOL    HW273343   9.860   2.302   7.178 -0.9927 -0.2216  0.5365
23101SOL     OW73344   3.540   3.485   4.651  0.6681 -0.0597  0.2632
23101SOL    HW173345   3.570   3.514   4.737  0.0816  1.6466 -0.0745
23101SOL    HW273346   3.466   3.542   4.631  0.5019 -0.7395 -1.1720
23102SOL     OW73347   6.236   1.435   0.457  0.3251 -0.2000  0.4140
23102SOL    HW173348   6.189   1.425   0.374  0.3054  1.0339  0.2538
23102SOL    HW273349   6.318   1.387   0.444  0.6421  0.5676 -0.5919
23103SOL     OW73350   4.977   5.832   4.423 -0.4504  0.5311 -0.4748
23103SOL    HW173351   4.968   5.853   4.330  0.9886 -0.4973 -0.8799
23103SOL    HW273352   5.049   5.769   4.426 -0.5239  0.5008  1.3402
23104SOL     OW73353   4.414   1.905   3.300 -0.0417 -0.1353  0.9671
23104SOL    HW173354   4.456   1.962   3.364 -1.3745 -0.2558  1.9944
23104SOL    HW273355   4.361   1.845   3.352  0.2376 -1.4247 -0.1664
23105SOL     OW73356   6.747   2.806   6.432  0.0939 -0.6862 -0.7733
23105SOL    HW173357   6.757   2.789   6.338  0.8718 -0.8771 -0.6574
23105SOL    HW273358   6.751   2.902   6.440  2.9721 -0.7520 -0.6291
23106SOL     OW73359   1.238   1.299  10.282 -0.2419 -0.0898  0.1143
23106SOL    HW173360   1.164   1.249  10.316 -0.2677 -1.0116 -1.2360
23106SOL    HW273361   1.272   1.246  10.210 -0.0765  1.7295 -1.1956
23107SOL     OW73362   9.284   0.058   2.830  0.6421  0.3270 -0.3747
23107SOL    HW173363   9.197   0.031   2.800  1.3217 -0.9354 -1.3301
23107SOL    HW273364   9.296   0.146   2.795  0.8809 -0.6052 -2.8351
23108SOL     OW73365   4.403   9.287   8.944 -0.1149 -0.4562 -0.1888
23108SOL    HW173366   4.414   9.208   8.892  0.0037 -1.5299  1.4086
23108SOL    HW273367   4.461   9.275   9.019  0.1382  1.2875 -0.0670
23109SOL     OW73368   5.736   7.763   3.228  0.7778 -0.2505  0.6448
23109SOL    HW173369   5.757   7.788   3.318  1.2381 -0.4531  0.5961
23109SOL    HW273370   5.740   7.845   3.178 -0.2486 -0.0009  0.9372
23110SOL     OW73371   3.654   9.426   5.987  0.1097 -0.1731 -0.0362
23110SOL    HW173372   3.626   9.517   5.976  0.7915  0.0007 -0.4282
23110SOL    HW273373   3.744   9.426   5.955  0.4024 -0.8059  0.7903
23111SOL     OW73374   6.042   1.616   3.144 -0.3813 -0.4528 -0.0458
23111SOL    HW173375   5.971   1.664   3.186 -1.0941  1.0240 -2.6916
23111SOL    HW273376   6.016   1.524   3.151 -0.7170 -0.2358  2.1281
23112SOL     OW73377   9.483   4.027   3.719  0.5003  0.0273  0.0706
23112SOL    HW173378   9.507   4.035   3.626  2.4185 -1.7165  0.3470
23112SOL    HW273379   9.560   4.061   3.766  0.6337 -1.4758  1.0047
23113SOL     OW73380   6.002   1.028   4.471  0.5252  0.3809  0.0291
23113SOL    HW173381   6.030   1.104   4.522 -1.6233  1.8789 -0.8628
23113SOL    HW273382   5.927   1.060   4.421 -0.3673 -2.3275 -0.4948
23114SOL     OW73383   0.983   6.558   9.611 -0.0657 -0.0682 -0.2534
23114SOL    HW173384   0.956   6.481   9.661 -1.4078  0.0066 -0.8394
23114SOL    HW273385   1.073   6.539   9.583  0.4682 -0.4097  1.5656
23115SOL     OW73386   9.368   4.274   2.242 -0.3074 -0.4125  0.2878
23115SOL    HW173387   9.373   4.192   2.193 -1.8096  0.8035 -2.1696
23115SOL    HW273388   9.276   4.300   2.235  0.3563  2.1328 -0.3130
23116SOL     OW73389   9.247   9.031   7.163 -0.1431  0.1404 -0.1344
23116SOL    HW173390   9.188   8.960   7.188 -1.2640  0.8690 -0.6252
23116SOL    HW273391   9.234   9.041   7.069  0.3927  0.6593 -0.1587
23117SOL     OW73392   7.218   6.749   6.436  0.7175  0.2523  0.0184
23117SOL    HW173393   7.292   6.807   6.415  0.9899  0.4581  1.4579
23117SOL    HW273394   7.221   6.740   6.531 -1.0415  0.1508  0.0964
23118SOL     OW73395   4.644   7.572   3.215 -0.1429  0.1036 -0.1975
23118SOL    HW173396   4.651   7.478   3.201 -0.6063 -0.0383  0.4402
23118SOL    HW273397   4.734   7.601   3.232  0.2009  0.0233 -1.7197
23119SOL     OW73398   8.224   1.909   9.957 -0.4001  0.2306  0.6705
23119SOL    HW173399   8.319   1.903   9.965 -0.3045 -0.9351 -0.8521
23119SOL    HW273400   8.209   1.991   9.911 -0.0493 -0.0461  0.0436
23120SOL     OW73401   3.452   1.538   4.599  0.2396 -0.2368  0.1996
23120SOL    HW173402   3.378   1.504   4.548 -0.7401  1.0082  0.7324
23120SOL    HW273403   3.490   1.606   4.544  1.3959 -1.2697 -0.3246
23121SOL     OW73404   4.892   5.069   3.613 -0.3683  0.4102  0.2642
23121SOL    HW173405   4.946   5.000   3.573  0.4777  0.5720  1.0901
23121SOL    HW273406   4.803   5.046   3.588 -0.3752 -2.2363  2.2144
23122SOL     OW73407  10.229   8.062   3.084 -0.1099  0.5890 -0.1543
23122SOL    HW173408  10.240   8.044   2.991 -1.1047  0.9818 -0.3651
23122SOL    HW273409  10.304   8.117   3.107 -0.1930  1.0217 -0.8792
23123SOL     OW73410   3.764   6.663   1.258  0.1943  0.4050 -0.5379
23123SOL    HW173411   3.777   6.749   1.297 -0.4876  0.0211  0.5972
23123SOL    HW273412   3.852   6.634   1.232  0.5209  1.1395 -0.2692
23124SOL     OW73413   9.758   8.382   1.735 -0.1129  0.1818  0.2384
23124SOL    HW173414   9.732   8.470   1.763  0.4239  0.2657  0.4807
23124SOL    HW273415   9.698   8.361   1.664 -1.7800 -0.2033  1.7009
23125SOL     OW73416   2.645   3.445   2.240 -0.2528 -0.2634  0.4985
23125SOL    HW173417   2.700   3.372   2.213 -0.1132  0.0141  0.0273
23125SOL    HW273418   2.702   3.501   2.293  0.4807  0.9900 -1.5145
23126SOL     OW73419   2.234   9.724   4.803 -0.4185  0.0273  0.2848
23126SOL    HW173420   2.185   9.806   4.803  2.3801  1.8498  0.0474
23126SOL    HW273421   2.290   9.729   4.726  1.2857 -1.1242  1.3707
23127SOL     OW73422   9.916   8.395   0.962 -0.1498 -0.1304 -0.1124
23127SOL    HW173423  10.008   8.419   0.954 -0.0931 -0.2602  0.1303
23127SOL    HW273424   9.915   8.301   0.942 -0.4432  0.1613 -1.5812
23128SOL     OW73425   2.648   3.559   1.304  0.6520  0.3377  0.2400
23128SOL    HW173426   2.731   3.514   1.290  0.2641 -0.4121  0.3151
23128SOL    HW273427   2.638   3.564   1.399  0.5142  0.2541  0.2300
23129SOL     OW73428   9.142   7.166   2.520  0.5209  0.1843 -0.2226
23129SOL    HW173429   9.095   7.219   2.456 -0.0742 -0.1001 -0.0235
23129SOL    HW273430   9.233   7.165   2.488 -0.0068 -1.0884 -1.8510
23130SOL     OW73431   9.449   3.556   8.735  0.4831  0.0890 -0.3319
23130SOL    HW173432   9.437   3.461   8.741  0.2856  0.1510  0.4096
23130SOL    HW273433   9.543   3.567   8.719  0.1137 -0.3038 -3.2301
23131SOL     OW73434   0.666   2.372   3.005  0.5390  0.3142 -0.6200
23131SOL    HW173435   0.581   2.359   2.963 -0.3981  2.2694  0.4899
23131SOL    HW273436   0.715   2.293   2.986 -0.6586  0.1061 -3.3333
23132SOL     OW73437   6.586   2.770   0.262  0.0959  1.0536  0.3730
23132SOL    HW173438   6.620   2.834   0.324  1.0544  0.1352  0.8158
23132SOL    HW273439   6.659   2.711   0.244 -1.0466 -0.5873  0.8330
23133SOL     OW73440   2.050   3.948   6.628 -0.2532  0.1911 -0.0937
23133SOL    HW173441   2.064   3.856   6.652 -1.1926 -0.3793 -1.5823
23133SOL    HW273442   2.071   3.997   6.707 -1.8697 -1.4669  1.4419
23134SOL     OW73443  10.208   5.147   0.354 -0.1653  0.1081  0.7055
23134SOL    HW173444  10.146   5.086   0.315 -0.3205  1.1403 -0.7818
23134SOL    HW273445  10.153   5.216   0.392  0.0315  0.3156  0.6200
23135SOL     OW73446   9.590   0.199   1.357 -0.4929 -0.3351  0.3929
23135SOL    HW173447   9.519   0.177   1.418 -2.1214 -3.0532 -2.2102
23135SOL    HW273448   9.653   0.127   1.368  0.2405  0.2888  0.3303
23136SOL     OW73449   5.618   4.966   3.410  0.2395  0.3721 -0.2458
23136SOL    HW173450   5.624   5.057   3.437 -0.2548  0.1098  0.8082
23136SOL    HW273451   5.532   4.958   3.368  0.8049  0.6652 -1.5134
23137SOL     OW73452   1.265   6.501   6.735 -0.0597  0.1959 -0.0958
23137SOL    HW173453   1.256   6.585   6.780 -2.0937 -0.6424  1.2239
23137SOL    HW273454   1.199   6.445   6.776  0.9017 -1.9143 -1.2696
23138SOL     OW73455   5.299   7.916   0.271  0.2032  0.0173 -0.0433
23138SOL    HW173456   5.335   8.001   0.247 -1.0038  0.7360  0.6016
23138SOL    HW273457   5.322   7.905   0.364 -1.5612  0.6880  0.5001
23139SOL     OW73458   7.148   3.976   2.297  0.0996  0.4181 -0.2181
23139SOL    HW173459   7.093   3.899   2.309 -0.1970  0.7936  0.9311
23139SOL    HW273460   7.178   3.998   2.385 -0.0463  1.7743 -0.4884
23140SOL     OW73461   1.636   0.512   0.461  0.2390 -0.5284  0.6959
23140SOL    HW173462   1.691   0.434   0.469  0.5663 -0.3865 -0.1108
23140SOL    HW273463   1.698   0.585   0.453 -0.0187 -0.4639 -1.2072
23141SOL     OW73464   2.914   9.545   3.510 -0.4863 -0.0089 -0.1868
23141SOL    HW173465   2.966   9.527   3.432 -0.0497  0.6961 -0.0609
23141SOL    HW273466   2.905   9.459   3.552 -0.9191 -0.4357 -1.1182
23142SOL     OW73467   9.136  10.140   0.582  0.2682  0.1447  0.0451
23142SOL    HW173468   9.050  10.141   0.624 -0.5740 -0.1919 -1.5866
23142SOL    HW273469   9.157  10.047   0.573  0.1579  0.1926 -0.7886
23143SOL     OW73470   0.206   7.923   2.012  0.5318 -0.2047  0.0317
23143SOL    HW173471   0.286   7.976   2.005  0.5729 -0.3228 -0.4331
23143SOL    HW273472   0.235   7.833   1.995  0.8101 -0.6976  2.6708
23144SOL     OW73473   8.296   0.586   3.586  0.2325 -0.2315  0.2477
23144SOL    HW173474   8.263   0.517   3.643  1.7904  0.7677  2.5045
23144SOL    HW273475   8.367   0.544   3.537 -0.1676 -0.7210  0.0695
23145SOL     OW73476   1.793   2.261   1.741  0.0029  0.1790 -0.1870
23145SOL    HW173477   1.862   2.217   1.691  0.1004 -2.7952  2.2868
23145SOL    HW273478   1.712   2.228   1.703  0.0651 -0.7701  0.4587
23146SOL     OW73479   5.646   6.205   3.155 -0.1212 -0.1772  0.6202
23146SOL    HW173480   5.706   6.256   3.208 -0.1551 -1.3519  1.8456
23146SOL    HW273481   5.685   6.205   3.067  1.7738 -1.0156  1.4082
23147SOL     OW73482   2.404  10.000   0.894  0.1878  0.4933 -0.1178
23147SOL    HW173483   2.355   9.919   0.906 -1.1178  1.0868 -1.2257
23147SOL    HW273484   2.432  10.024   0.983 -0.5912 -0.4288  0.3951
23148SOL     OW73485   1.928   8.278   7.138  0.6423  0.5385 -0.0575
23148SOL    HW173486   1.873   8.327   7.077  0.5577  1.5094  0.7721
23148SOL    HW273487   1.910   8.186   7.118  0.9847  0.8031 -1.8137
23149SOL     OW73488   1.418   9.967   5.666 -0.5580 -0.1322  0.1495
23149SOL    HW173489   1.424   9.980   5.571  0.6725 -1.0440  0.0725
23149SOL    HW273490   1.342   9.911   5.677 -0.7880  0.0843 -0.2829
23150SOL     OW73491   0.772   3.057   0.549 -0.1420  0.3787 -0.4715
23150SOL    HW173492   0.745   3.019   0.632  1.2962  0.7025  0.1674
23150SOL    HW273493   0.856   3.016   0.530  0.7142  2.0875 -0.5329
23151SOL     OW73494   5.449   5.756   1.080 -0.3009  0.0610  0.3877
23151SOL    HW173495   5.536   5.722   1.056 -0.0254  1.0537 -0.0990
23151SOL    HW273496   5.388   5.688   1.052  0.3576 -1.0202  1.4939
23152SOL     OW73497   3.759   8.175   2.532 -0.3905  0.1145  0.4867
23152SOL    HW173498   3.805   8.109   2.584  0.9150  0.6858  0.1106
23152SOL    HW273499   3.828   8.216   2.479 -1.6673 -0.5092 -1.7946
23153SOL     OW73500   8.348   7.307   4.166  0.2116 -0.2898 -0.5212
23153SOL    HW173501   8.422   7.319   4.227 -0.5034  0.2991  0.2594
23153SOL    HW273502   8.389   7.303   4.080  1.2129 -0.6464 -0.0519
23154SOL     OW73503   7.888   0.320   3.697 -0.2008 -0.4764  0.1027
23154SOL    HW173504   7.834   0.382   3.648 -1.0760 -1.4926 -0.2620
23154SOL    HW273505   7.875   0.344   3.788 -3.2354 -2.1215  0.2273
23155SOL     OW73506   9.498   2.175   9.830  0.9205  0.3367 -0.0615
23155SOL    HW173507   9.486   2.270   9.820  4.3731  0.9968  0.7360
23155SOL    HW273508   9.553   2.166   9.908  1.5460 -2.2445 -0.7137
23156SOL     OW73509   2.310   4.684   1.987  0.7202  0.2345  0.0740
23156SOL    HW173510   2.358   4.648   1.913  0.5740  1.2641 -0.5363
23156SOL    HW273511   2.266   4.761   1.952 -0.6267 -0.1471  0.8496
23157SOL     OW73512   7.608   3.192   3.221 -0.3999 -0.1523  0.1886
23157SOL    HW173513   7.599   3.196   3.126 -0.7809 -1.2014  0.1608
23157SOL    HW273514   7.531   3.236   3.255 -0.1098  0.4994  0.0237
23158SOL     OW73515   7.725   4.996   1.990 -0.3262 -0.0744  0.7305
23158SOL    HW173516   7.779   4.966   1.916  1.3528 -1.0528  2.2512
23158SOL    HW273517   7.654   4.932   1.995 -2.0918  1.5350 -1.6404
23159SOL     OW73518   7.174   8.815   2.916 -0.2819 -0.1267 -0.1092
23159SOL    HW173519   7.268   8.805   2.933  0.2505  4.0607  0.6232
23159SOL    HW273520   7.159   8.768   2.834  2.6915 -0.1555 -0.7491
23160SOL     OW73521   5.596   6.934   9.855 -0.4300  0.9829 -0.1348
23160SOL    HW173522   5.636   6.976   9.779 -0.7125 -0.8295 -1.3498
23160SOL    HW273523   5.658   6.865   9.880 -0.3344  1.5602  1.3111
23161SOL     OW73524   3.737   7.895   0.380 -0.4125 -0.2807  0.6090
23161SOL    HW173525   3.769   7.983   0.360  0.2918 -0.5781  0.4261
23161SOL    HW273526   3.659   7.885   0.324  0.0629 -0.1392 -0.0912
23162SOL     OW73527   4.363   7.063   2.508  0.3362  0.1916 -0.4108
23162SOL    HW173528   4.346   7.156   2.523 -1.1599  0.1211 -1.3902
23162SOL    HW273529   4.415   7.061   2.427 -1.5704  0.1303 -1.6934
23163SOL     OW73530   7.998  10.026   2.771  0.0003 -0.1842 -0.0575
23163SOL    HW173531   7.907  10.002   2.787 -0.5905  0.6620 -1.8460
23163SOL    HW273532   7.998  10.057   2.680  2.3605 -1.5526 -0.5895
23164SOL     OW73533   6.462   0.694   6.025 -0.1610  0.1718 -0.0956
23164SOL    HW173534   6.398   0.765   6.027 -0.0743  0.2489  1.8332
23164SOL    HW273535   6.543   0.735   5.992 -0.2139  0.8882  0.6443
23165SOL     OW73536   2.220   3.086   3.642 -0.4601  0.4776  0.8290
23165SOL    HW173537   2.225   3.000   3.602 -0.1245  1.3578 -1.1649
23165SOL    HW273538   2.281   3.083   3.715  1.0335 -0.3906 -0.4094
23166SOL     OW73539   3.970   9.074   1.937  0.3725 -0.2015  0.0651
23166SOL    HW173540   4.038   9.075   1.869 -1.7059 -2.8340 -2.3157
23166SOL    HW273541   3.978   8.988   1.977 -0.7816 -0.0768  0.5873
23167SOL     OW73542   2.479   2.995   4.113 -0.2476  0.3678  0.1605
23167SOL    HW173543   2.442   2.919   4.157  1.8225 -0.1394  1.1351
23167SOL    HW273544   2.525   3.043   4.182 -1.3869  2.4769 -0.4565
23168SOL     OW73545   6.292   6.973   0.342  0.5856  0.1570  0.3945
23168SOL    HW173546   6.374   6.973   0.392 -1.1598 -1.3402  3.5440
23168SOL    HW273547   6.299   6.896   0.285  1.2958 -0.1117  0.8248
23169SOL     OW73548   3.423   9.391   2.833  0.4701 -0.7535  0.0725
23169SOL    HW173549   3.444   9.308   2.792  0.4272 -0.2880 -0.9192
23169SOL    HW273550   3.328   9.388   2.846 -0.1080  0.4292 -3.0363
23170SOL     OW73551   4.593   6.168   7.167  0.2991 -0.2222  0.3772
23170SOL    HW173552   4.578   6.151   7.074  0.8613 -0.4016  0.3155
23170SOL    HW273553   4.542   6.101   7.212  1.5321 -1.3509  0.1566
23171SOL     OW73554   0.839   6.843   5.512  0.3627  0.3052 -0.3680
23171SOL    HW173555   0.849   6.938   5.510 -0.4245  0.3908 -1.4368
23171SOL    HW273556   0.746   6.829   5.530  0.2867 -0.2422 -1.1361
23172SOL     OW73557   1.479   5.539   2.525 -0.6545 -1.0345 -0.4748
23172SOL    HW173558   1.404   5.494   2.486  1.0691 -2.0086 -2.9613
23172SOL    HW273559   1.543   5.469   2.539  1.0975  0.1966 -1.8601
23173SOL     OW73560   5.164   4.721   7.327  0.3426 -0.1248  0.2038
23173SOL    HW173561   5.095   4.664   7.362  0.5653 -0.2549  0.4328
23173SOL    HW273562   5.122   4.768   7.255 -0.8772  1.8887  2.0729
23174SOL     OW73563   5.287   5.485   8.682 -0.0360  0.3842 -0.7176
23174SOL    HW173564   5.302   5.394   8.659 -1.6824 -0.2008  0.3631
23174SOL    HW273565   5.370   5.529   8.662 -0.0368 -0.7691 -3.8486
23175SOL     OW73566   6.060   8.631   8.186  0.4664 -0.3643  0.2383
23175SOL    HW173567   6.115   8.633   8.108 -0.0112  1.0402 -0.0869
23175SOL    HW273568   5.972   8.653   8.155  0.0665 -0.8027  1.0230
23176SOL     OW73569   5.411   1.689   2.281  0.3689  0.0092  0.4978
23176SOL    HW173570   5.501   1.660   2.296  0.9145  1.3794  0.0342
23176SOL    HW273571   5.401   1.765   2.338 -0.0956  0.5762 -0.3215
23177SOL     OW73572   0.813   7.465   8.180  0.0837 -0.5169  0.1567
23177SOL    HW173573   0.804   7.505   8.094  1.3801  1.9221  1.0500
23177SOL    HW273574   0.779   7.376   8.169 -0.5013 -0.0444 -2.6407
23178SOL     OW73575   1.990   5.900   9.258 -0.2946 -0.1689 -0.4063
23178SOL    HW173576   1.923   5.930   9.319 -0.1935 -0.9350  0.1007
23178SOL    HW273577   2.068   5.950   9.282 -0.1140 -0.8330  0.4575
23179SOL     OW73578   6.173   0.097   8.310  0.1095  0.0018  0.8402
23179SOL    HW173579   6.242   0.055   8.258  0.1629 -0.0675  0.9666
23179SOL    HW273580   6.217   0.169   8.354  0.0429  0.1188  0.7142
23180SOL     OW73581   6.640   1.472   2.323 -0.6151 -0.2459 -0.2054
23180SOL    HW173582   6.716   1.483   2.381 -1.5337 -0.8164  1.1417
23180SOL    HW273583   6.626   1.559   2.285  1.3780 -0.3653 -1.3735
23181SOL     OW73584   4.597   5.369   5.228  0.1017  0.2237  0.1759
23181SOL    HW173585   4.646   5.339   5.305  0.4663  1.0458  0.2726
23181SOL    HW273586   4.516   5.319   5.230  1.1217 -1.5305 -0.2523
23182SOL     OW73587   0.577   8.440   2.902 -0.3094  0.6632  0.2195
23182SOL    HW173588   0.493   8.394   2.896 -1.0925  1.8946  1.1558
23182SOL    HW273589   0.625   8.391   2.969  0.7703 -1.5120 -1.9824
23183SOL     OW73590   4.428   4.564   9.275 -0.5660  0.0450 -0.0334
23183SOL    HW173591   4.427   4.468   9.279 -0.3876  0.0615  0.4814
23183SOL    HW273592   4.373   4.592   9.348 -1.9486  0.3306 -1.1392
23184SOL     OW73593   0.927   5.571   9.328  0.9188  0.2170 -0.4623
23184SOL    HW173594   0.899   5.481   9.345 -0.5827  0.8742  0.9209
23184SOL    HW273595   0.959   5.571   9.238 -0.5316 -1.3837 -1.0290
23185SOL     OW73596   7.084   7.848   3.270  0.1738 -0.0512  0.0309
23185SOL    HW173597   7.057   7.773   3.216 -0.1978 -1.1884  1.7238
23185SOL    HW273598   7.133   7.809   3.342  1.1165  1.4819  0.2491
23186SOL     OW73599   6.744   1.664   1.583 -0.2308 -0.6317 -0.0851
23186SOL    HW173600   6.836   1.646   1.563 -0.0187 -1.8334  1.7339
23186SOL    HW273601   6.725   1.747   1.538  1.8813 -0.1052 -0.0882
23187SOL     OW73602   9.820  10.039   8.160 -0.1269  0.5065 -0.4560
23187SOL    HW173603   9.754  10.097   8.120  0.0404 -0.3628 -2.0971
23187SOL    HW273604   9.800  10.041   8.253 -2.3727  0.4171 -0.8687
23188SOL     OW73605   9.376   3.414   3.324 -0.3030  0.0776 -0.3334
23188SOL    HW173606   9.456   3.465   3.311  0.3919 -1.1481 -1.1333
23188SOL    HW273607   9.319   3.438   3.251 -0.5346  0.7076  0.0519
23189SOL     OW73608   6.490   2.038   0.531 -0.0625  0.0210  0.1013
23189SOL    HW173609   6.572   2.053   0.483 -0.6804  0.4912 -0.8324
23189SOL    HW273610   6.427   2.012   0.464 -0.5213 -1.0184  0.9072
23190SOL     OW73611   1.390   0.418   2.771 -0.4525 -0.4741  0.5937
23190SOL    HW173612   1.372   0.511   2.782 -2.5029 -0.8925  1.2036
23190SOL    HW273613   1.454   0.398   2.840  1.0933  0.6979 -0.4152
23191SOL     OW73614   0.815  10.044   3.106  0.0715 -0.5833 -0.2524
23191SOL    HW173615   0.909  10.027   3.111  0.1599  0.0645  0.5560
23191SOL    HW273616   0.795  10.095   3.185 -0.8525 -0.2206 -0.6969
23192SOL     OW73617  10.020   8.765   5.181 -0.3148  0.2054 -0.4182
23192SOL    HW173618  10.051   8.803   5.263 -1.1617  0.5116 -0.2254
23192SOL    HW273619   9.989   8.678   5.206 -0.2618  0.1722 -0.4719
23193SOL     OW73620   7.021   2.734   7.638  0.7934 -0.3284  0.3558
23193SOL    HW173621   7.024   2.694   7.551 -1.0693 -1.5623  0.7791
23193SOL    HW273622   7.104   2.780   7.647  1.7650 -1.6250 -1.3925
23194SOL     OW73623   0.498   6.260   1.446 -0.1380  0.3675  0.2217
23194SOL    HW173624   0.490   6.352   1.420  0.6167  0.4925  0.4112
23194SOL    HW273625   0.592   6.243   1.447 -0.2557 -0.3133  0.5346
23195SOL     OW73626   1.511   1.219   8.355 -0.4265 -0.1311  0.2136
23195SOL    HW173627   1.588   1.163   8.366 -0.7235 -0.9154 -1.3466
23195SOL    HW273628   1.494   1.217   8.261  0.4200  3.7817 -0.1818
23196SOL     OW73629   1.322   5.569   2.758  0.4361 -0.0553  0.2643
23196SOL    HW173630   1.365   5.642   2.803 -0.4347  0.5234  0.1945
23196SOL    HW273631   1.376   5.554   2.680  0.2420  1.0104 -0.1015
23197SOL     OW73632   5.983   9.161  10.031 -0.2280  0.3411  0.0433
23197SOL    HW173633   6.041   9.189  10.102 -0.3644 -0.7756  0.6029
23197SOL    HW273634   5.937   9.241  10.005 -0.0340  0.8040  1.0821
23198SOL     OW73635   3.484   6.008   9.324 -0.2228  0.3912  0.6861
23198SOL    HW173636   3.412   5.995   9.262  1.7454 -0.1999 -1.6188
23198SOL    HW273637   3.545   6.066   9.278  0.0004  2.4753  3.3233
23199SOL     OW73638   0.609   0.905   2.018 -0.1399  0.4311  0.5239
23199SOL    HW173639   0.692   0.931   2.059 -0.6988  0.9426  1.3632
23199SOL    HW273640   0.617   0.935   1.927  0.9250 -0.2874  0.3500
23200SOL     OW73641   7.410   5.850   4.454 -0.6941  0.5317 -0.0157
23200SOL    HW173642   7.477   5.854   4.385 -0.4902  1.0067  0.2044
23200SOL    HW273643   7.457   5.876   4.533 -1.0666  0.5385  0.2015
23201SOL     OW73644   5.875   1.955   6.273 -0.1269 -0.1292 -0.0670
23201SOL    HW173645   5.879   2.047   6.297  1.6786  0.0371 -0.8241
23201SOL    HW273646   5.785   1.929   6.292 -0.7554  1.8499 -0.0879
23202SOL     OW73647   0.629   7.736   4.042  0.3036 -0.1018  0.3237
23202SOL    HW173648   0.674   7.653   4.024  2.2718  1.1849 -1.0012
23202SOL    HW273649   0.685   7.781   4.105 -1.5396 -0.3417  2.2614
23203SOL     OW73650   6.637   2.341   6.789  0.0976 -0.0473 -0.2325
23203SOL    HW173651   6.729   2.348   6.814 -0.0231 -0.0726  0.2233
23203SOL    HW273652   6.639   2.311   6.698  0.5449  0.4674 -0.3927
23204SOL     OW73653   9.138  10.162   8.100 -0.4490  0.5095 -0.2456
23204SOL    HW173654   9.193  10.085   8.115  0.5238  1.2957  0.3509
23204SOL    HW273655   9.049  10.127   8.096 -0.2101 -0.4570  1.7281
23205SOL     OW73656   1.837   0.074   0.321 -0.6984 -0.1956 -0.4663
23205SOL    HW173657   1.890   0.064   0.242 -0.6674  0.0514 -0.4764
23205SOL    HW273658   1.825  -0.016   0.353 -3.3288 -0.6958 -2.4749
23206SOL     OW73659   3.739   6.077   7.358  0.3157 -0.1666  0.1552
23206SOL    HW173660   3.701   6.038   7.437  0.4051 -1.5761 -0.4639
23206SOL    HW273661   3.680   6.148   7.335 -0.2002 -0.3130  0.9787
23207SOL     OW73662   3.684   4.279   0.739  0.0545  0.4157  0.0659
23207SOL    HW173663   3.702   4.335   0.814 -0.1020  1.1127 -0.4047
23207SOL    HW273664   3.742   4.312   0.670  1.3787 -1.2346  0.3313
23208SOL     OW73665   1.134   8.986   7.331 -0.7005  0.0728  0.1776
23208SOL    HW173666   1.074   9.051   7.367  1.1213  3.0160 -1.6290
23208SOL    HW273667   1.085   8.944   7.260 -2.1453 -1.1681  1.8346
23209SOL     OW73668   5.322   4.663   3.640  0.3058 -0.3684 -0.0043
23209SOL    HW173669   5.274   4.595   3.592  0.3520 -1.0171  0.8426
23209SOL    HW273670   5.384   4.615   3.695 -0.9446  0.2239  2.0306
23210SOL     OW73671   7.151   2.509   4.566  0.3152 -0.6016 -0.6104
23210SOL    HW173672   7.231   2.545   4.604  0.3240 -0.0402 -1.1350
23210SOL    HW273673   7.088   2.582   4.568  0.7471 -0.0779 -2.9428
23211SOL     OW73674   8.866   6.383   9.268 -0.2455  0.0069  0.5156
23211SOL    HW173675   8.858   6.478   9.252  1.2349  0.0321 -0.2611
23211SOL    HW273676   8.936   6.376   9.333 -0.4611 -0.5412  0.6857
23212SOL     OW73677  10.036   9.539   2.840 -0.4185 -0.2670  0.1373
23212SOL    HW173678  10.050   9.536   2.745  0.1481 -1.4120  0.2313
23212SOL    HW273679  10.028   9.447   2.865 -2.3404  0.0868  0.9737
23213SOL     OW73680   1.225   5.303   2.884 -0.1256  0.5322 -0.0514
23213SOL    HW173681   1.205   5.359   2.959  2.2135  2.1576 -0.5245
23213SOL    HW273682   1.262   5.363   2.818  0.2466 -1.2206 -1.5280
23214SOL     OW73683   2.258   4.914   1.838 -0.6243  0.0133  0.1334
23214SOL    HW173684   2.328   4.913   1.772  0.1391 -0.2452  0.9270
23214SOL    HW273685   2.179   4.936   1.789 -0.3314 -1.5639 -1.1291
23215SOL     OW73686   6.172  10.074   3.569 -0.1879 -0.2560 -0.1163
23215SOL    HW173687   6.155   9.981   3.587  3.5004 -1.1561 -0.4223
23215SOL    HW273688   6.226  10.103   3.643 -2.6068  2.2518  0.8480
23216SOL     OW73689   3.622   6.797   2.747 -0.0717  0.7000  0.7496
23216SOL    HW173690   3.701   6.848   2.764 -1.2130  3.0696 -0.5415
23216SOL    HW273691   3.653   6.707   2.737  2.5329  1.6063 -0.1171
23217SOL     OW73692   9.414   8.346   4.726  0.2396  0.3366  0.3961
23217SOL    HW173693   9.401   8.275   4.788 -3.1849  0.3932 -0.0676
23217SOL    HW273694   9.340   8.405   4.742  1.6192  2.5351 -0.8932
23218SOL     OW73695   8.715   8.492   5.073 -0.0549 -0.6213  0.3181
23218SOL    HW173696   8.717   8.587   5.088  0.1357 -0.7509  1.2012
23218SOL    HW273697   8.624   8.473   5.051  0.1866 -0.0392 -1.3782
23219SOL     OW73698   4.818   7.816   6.002  0.2047  0.2685 -0.2298
23219SOL    HW173699   4.761   7.863   6.063  0.7750  0.1055  0.4344
23219SOL    HW273700   4.807   7.864   5.919  0.3210  1.2151  0.2838
23220SOL     OW73701   8.667   7.408   4.751 -0.0063  0.5597  0.8513
23220SOL    HW173702   8.731   7.340   4.732  1.0112  1.8356 -0.5634
23220SOL    HW273703   8.598   7.395   4.685  0.5670  1.3153  0.0715
23221SOL     OW73704   1.894   5.256   2.598 -0.1243 -0.2482 -0.2409
23221SOL    HW173705   1.962   5.219   2.542  1.3620  1.9015  0.0518
23221SOL    HW273706   1.941   5.307   2.663 -1.9546 -0.2291  1.1498
23222SOL     OW73707   0.637   0.970   1.187 -0.1587 -0.7321  0.0388
23222SOL    HW173708   0.567   0.993   1.126 -0.0814 -1.2118 -0.2333
23222SOL    HW273709   0.631   1.036   1.256  0.6808  0.6823 -1.1985
23223SOL     OW73710   9.340   3.750   2.693 -0.6399  0.7940 -0.0379
23223SOL    HW173711   9.277   3.682   2.716 -0.8650  1.3922  1.1964
23223SOL    HW273712   9.416   3.702   2.660 -1.3193  0.0191 -0.5143
23224SOL     OW73713   4.114   9.262   3.255 -0.1427  0.4423 -0.0975
23224SOL    HW173714   4.021   9.277   3.238 -0.3374 -0.5033  0.0783
23224SOL    HW273715   4.126   9.287   3.346 -0.9706 -2.4226  0.9240
23225SOL     OW73716   4.470   2.672   8.679 -0.1569 -0.2682  0.3092
23225SOL    HW173717   4.530   2.671   8.753  1.3922 -1.7474 -0.8875
23225SOL    HW273718   4.386   2.644   8.715  0.4720 -0.5826  1.5539
23226SOL     OW73719   7.551   9.607   6.393  0.5836  0.6440  0.3304
23226SOL    HW173720   7.628   9.580   6.343  0.2091  2.7797 -1.5836
23226SOL    HW273721   7.483   9.544   6.368  1.4858 -0.9174  1.6070
23227SOL     OW73722   7.051   4.265   0.234 -0.3221  0.6309 -0.0949
23227SOL    HW173723   6.955   4.269   0.242 -0.5137 -2.1195 -0.0254
23227SOL    HW273724   7.083   4.309   0.312 -1.6155 -0.5375  1.1518
23228SOL     OW73725   2.848   6.041   5.214 -0.3685 -0.1059 -0.3702
23228SOL    HW173726   2.897   6.120   5.189  0.4418 -1.2945 -2.9330
23228SOL    HW273727   2.757   6.070   5.213  0.0435  1.6274  2.3835
23229SOL     OW73728   1.145   4.494   4.966 -0.1193  0.4787  0.0645
23229SOL    HW173729   1.079   4.563   4.965 -0.1607  0.4826 -1.9135
23229SOL    HW273730   1.186   4.498   4.879  2.3312  0.3178  1.1144
23230SOL     OW73731   3.546   5.180   9.978  0.4388  0.2068 -0.1443
23230SOL    HW173732   3.606   5.253   9.958  0.9954 -0.0945  0.3901
23230SOL    HW273733   3.529   5.140   9.893  1.6296 -0.1803 -0.2228
23231SOL     OW73734   7.546   8.781   5.567 -0.6113 -0.2690  0.3647
23231SOL    HW173735   7.544   8.713   5.634  2.3680 -1.1435 -0.2735
23231SOL    HW273736   7.521   8.737   5.486 -1.0617  0.0061  0.3493
23232SOL     OW73737   6.914   4.780   0.017 -0.1542 -0.5979  0.3325
23232SOL    HW173738   6.852   4.713   0.045 -0.6580  0.1661  1.1087
23232SOL    HW273739   6.913   4.845   0.088  0.4585  0.1294 -0.3028
23233SOL     OW73740   1.180  10.096   8.143  0.4296 -0.4172  0.5541
23233SOL    HW173741   1.104  10.041   8.157  0.7804 -1.4148 -1.1391
23233SOL    HW273742   1.226  10.096   8.227 -0.5551 -1.1845  1.1095
23234SOL     OW73743   7.651   9.750   3.192 -0.2347 -0.2642 -0.6060
23234SOL    HW173744   7.721   9.707   3.241 -0.9733 -0.9409 -0.1330
23234SOL    HW273745   7.586   9.682   3.177 -0.1154 -0.0309 -2.4013
23235SOL     OW73746   1.315   6.531   3.560  0.1681 -0.2260  0.1205
23235SOL    HW173747   1.304   6.486   3.644 -0.7459  0.4719  0.3887
23235SOL    HW273748   1.382   6.596   3.576 -3.5695  3.6551  1.9834
23236SOL     OW73749   6.814   2.296   7.206 -0.0868 -0.0540 -0.4481
23236SOL    HW173750   6.826   2.282   7.300 -0.6222  1.0301 -0.2042
23236SOL    HW273751   6.728   2.259   7.187  0.2522 -0.7588 -0.6230
23237SOL     OW73752   8.844   6.129   3.204 -0.3055  0.4256 -0.3627
23237SOL    HW173753   8.841   6.042   3.165  3.0673  0.2474 -0.5622
23237SOL    HW273754   8.906   6.121   3.276 -0.8495  2.4141  0.4051
23238SOL     OW73755   1.557   5.422   7.248 -0.6536  0.0726  0.2661
23238SOL    HW173756   1.642   5.460   7.270 -0.1159 -1.5423  1.0997
23238SOL    HW273757   1.553   5.427   7.153 -0.6439  2.2296  0.3336
23239SOL     OW73758   8.039   1.955   6.911  0.7357 -0.6441  0.2252
23239SOL    HW173759   7.992   1.925   6.989  1.3462 -2.5906 -0.1043
23239SOL    HW273760   7.970   1.969   6.846  0.3607 -0.5504  0.6367
23240SOL     OW73761   0.099   0.889   2.846  0.7154  0.0213  0.1398
23240SOL    HW173762   0.035   0.932   2.789  1.4179  0.3449 -0.4188
23240SOL    HW273763   0.070   0.798   2.851 -0.5426  0.4298  0.9722
23241SOL     OW73764   2.526   6.544   6.543  0.1085 -0.2133 -0.1716
23241SOL    HW173765   2.586   6.475   6.570  2.0562  1.6811  0.6049
23241SOL    HW273766   2.534   6.611   6.610  0.9424  2.2618 -2.5579
23242SOL     OW73767   0.826   0.853   9.060  0.0495 -0.1863  0.5462
23242SOL    HW173768   0.875   0.838   9.141 -0.2070 -0.4535  0.6504
23242SOL    HW273769   0.855   0.940   9.030  0.3759 -0.2232  0.7570
23243SOL     OW73770   7.349   7.720   6.067  0.2036 -0.1931  0.1033
23243SOL    HW173771   7.417   7.784   6.087 -0.6508 -0.0877  3.3051
23243SOL    HW273772   7.382   7.638   6.102 -0.9699 -0.2836  1.0734
23244SOL     OW73773   9.641   0.452   7.019  0.8736  0.0473 -0.5439
23244SOL    HW173774   9.567   0.441   6.959 -1.0235 -0.4986  1.7386
23244SOL    HW273775   9.703   0.383   6.994  0.7088  0.5676 -2.5561
23245SOL     OW73776   6.834   3.473   6.046 -0.0946  0.4020  0.2477
23245SOL    HW173777   6.830   3.555   5.996 -0.6000 -0.3853 -1.0449
23245SOL    HW273778   6.924   3.442   6.035  0.0030  0.6125  0.4549
23246SOL     OW73779   0.339   2.447   4.012  0.7578  0.0935 -0.1968
23246SOL    HW173780   0.369   2.524   3.964  1.1221 -1.0474 -1.8676
23246SOL    HW273781   0.253   2.472   4.047  1.8163  2.0020  1.2268
23247SOL     OW73782  10.165   8.265   9.277  0.2814 -0.2945  0.0030
23247SOL    HW173783  10.117   8.308   9.348  1.2265 -0.6320  0.8844
23247SOL    HW273784  10.102   8.205   9.238 -0.0197 -0.7447  1.1372
23248SOL     OW73785   2.655   9.685   2.703 -0.3450  0.0330 -0.1061
23248SOL    HW173786   2.595   9.748   2.664 -1.8431 -1.2377  0.0218
23248SOL    HW273787   2.630   9.683   2.795 -0.2978 -0.6913 -0.1025
23249SOL     OW73788   5.888   2.150   0.954 -0.3151 -0.2477 -0.0760
23249SOL    HW173789   5.902   2.244   0.961 -0.7374 -0.1676 -0.2711
23249SOL    HW273790   5.795   2.141   0.933 -0.0126 -0.6454 -1.3121
23250SOL     OW73791   3.285   4.578   1.517 -0.6925  0.2803 -0.3100
23250SOL    HW173792   3.189   4.571   1.510 -0.8052 -0.3043  1.3937
23250SOL    HW273793   3.300   4.655   1.571 -0.2273 -0.0318  0.0153
23251SOL     OW73794   7.569   9.116   0.495 -0.4279  0.4666  0.1761
23251SOL    HW173795   7.630   9.154   0.432 -0.5102  1.1034  0.4673
23251SOL    HW273796   7.483   9.130   0.456 -0.5704  1.9104  0.9329
23252SOL     OW73797   0.558   5.797   9.119  0.3734  0.2484 -0.4325
23252SOL    HW173798   0.488   5.805   9.184  2.0503  2.6259  1.2518
23252SOL    HW273799   0.540   5.867   9.056  0.8052  0.3948 -0.3973
23253SOL     OW73800   5.163   4.939   6.907 -0.2300  0.3191  0.4887
23253SOL    HW173801   5.089   4.981   6.863 -1.2060  0.4493  2.1284
23253SOL    HW273802   5.240   4.967   6.858 -1.0166  2.4611  0.3667
23254SOL     OW73803   4.345   9.158   0.426 -0.1015 -0.4371 -0.2719
23254SOL    HW173804   4.263   9.115   0.401 -2.1979  1.5406  2.5826
23254SOL    HW273805   4.394   9.090   0.473 -0.8520 -1.1886 -0.5479
23255SOL     OW73806   9.535   0.903   8.200  0.0050  0.1746 -0.6015
23255SOL    HW173807   9.521   0.811   8.222 -1.0876  0.0540 -1.7130
23255SOL    HW273808   9.552   0.903   8.106  0.8077  1.0396 -0.4735
23256SOL     OW73809   4.790   1.663   3.409 -0.1255 -0.5336  0.6804
23256SOL    HW173810   4.727   1.729   3.439 -0.1886  0.0870 -0.7570
23256SOL    HW273811   4.870   1.711   3.392 -0.6858 -0.4057 -2.1514
23257SOL     OW73812   6.700   1.378   7.847 -0.7110  0.5147  0.0029
23257SOL    HW173813   6.628   1.393   7.787 -0.1348  1.3270 -0.5146
23257SOL    HW273814   6.762   1.324   7.797 -0.1924  1.2646 -0.1799
23258SOL     OW73815   0.363   7.553   7.088 -0.1199  0.1914 -0.5736
23258SOL    HW173816   0.330   7.547   7.178  2.1409 -1.6796  0.2252
23258SOL    HW273817   0.408   7.638   7.084 -1.2811  0.8435 -0.3847
23259SOL     OW73818   1.603   0.200   9.704  0.6993  0.4494 -0.4564
23259SOL    HW173819   1.647   0.156   9.777 -1.0885  0.7445  0.8756
23259SOL    HW273820   1.552   0.270   9.745 -2.1777 -0.7784 -1.6707
23260SOL     OW73821   1.746   9.367   7.569 -0.4388  0.2251 -0.4031
23260SOL    HW173822   1.727   9.399   7.657 -0.0575 -0.2105 -0.1573
23260SOL    HW273823   1.812   9.427   7.535  1.3234 -1.0756  0.5884
23261SOL     OW73824   8.800   2.983   5.926  0.6264 -0.6434 -0.7097
23261SOL    HW173825   8.864   2.989   5.855  2.3724 -0.8621  0.7655
23261SOL    HW273826   8.828   3.047   5.990  1.9461 -3.5172  1.8632
23262SOL     OW73827   0.759   4.569   0.393  0.0525  0.4075  0.1122
23262SOL    HW173828   0.839   4.621   0.397 -0.0318  0.5440  0.0120
23262SOL    HW273829   0.789   4.480   0.380  0.2196  0.3650  0.7378
23263SOL     OW73830   4.160   0.802   7.392 -0.5328 -0.8740 -0.1992
23263SOL    HW173831   4.069   0.824   7.415 -0.0255 -0.3920  1.4907
23263SOL    HW273832   4.204   0.792   7.476  1.4381  0.7631 -0.9664
23264SOL     OW73833   8.364   9.497   7.115 -0.5493  0.4328  0.0448
23264SOL    HW173834   8.272   9.514   7.096 -1.3765 -0.7400  2.5887
23264SOL    HW273835   8.383   9.554   7.190 -0.1198 -1.4619  1.4368
23265SOL     OW73836   1.963   6.092   2.984 -0.0668  0.1562 -0.1393
23265SOL    HW173837   1.909   6.030   2.935  0.9912 -0.3085 -0.7322
23265SOL    HW273838   2.049   6.089   2.942  1.3273 -1.2905  2.5530
23266SOL     OW73839   4.447   0.595  10.070 -0.2307 -0.0952 -0.4398
23266SOL    HW173840   4.486   0.518  10.112  1.3079  1.3362  0.8825
23266SOL    HW273841   4.366   0.609  10.118 -0.0990 -0.3926 -0.1261
23267SOL     OW73842   7.700   5.817   0.487 -0.4368  0.2085  0.3867
23267SOL    HW173843   7.748   5.861   0.557 -0.3567  1.2302 -0.2864
23267SOL    HW273844   7.687   5.728   0.519  1.0940  0.1601  0.9709
23268SOL     OW73845   3.374   3.032   9.329  0.2276  0.3529 -0.1332
23268SOL    HW173846   3.429   3.102   9.296  0.4307  0.0539 -0.4341
23268SOL    HW273847   3.423   2.952   9.310  1.2131  0.2406  2.4415
23269SOL     OW73848   1.771   4.775   9.625 -0.4002  0.3495 -0.2011
23269SOL    HW173849   1.692   4.762   9.571 -1.0687  0.2605  0.7687
23269SOL    HW273850   1.750   4.731   9.708  0.4132  0.9194  0.3140
23270SOL     OW73851  10.019   3.302   8.441 -0.4710 -0.4107  0.2043
23270SOL    HW173852  10.012   3.305   8.345 -2.2100 -0.0521  0.3125
23270SOL    HW273853  10.101   3.255   8.457 -1.7657 -3.5234 -1.4566
23271SOL     OW73854   3.020   4.264   0.506  0.4875  0.6993  0.5507
23271SOL    HW173855   3.110   4.240   0.530  0.7186 -0.3592 -1.1785
23271SOL    HW273856   3.009   4.352   0.540  2.4492  1.1302  0.2168
23272SOL     OW73857   5.747   6.239   6.683  0.2456 -0.1569 -0.0645
23272SOL    HW173858   5.839   6.241   6.711 -0.1969  1.8471  1.4234
23272SOL    HW273859   5.723   6.146   6.689  1.7748 -0.5369  0.8712
23273SOL     OW73860   9.407   7.573   7.780  0.1658 -0.2191  0.6183
23273SOL    HW173861   9.432   7.562   7.688 -1.7469  3.6489 -0.5511
23273SOL    HW273862   9.316   7.601   7.777  0.2132  0.6159  3.6709
23274SOL     OW73863   4.405   0.439   4.415 -0.0715  0.5161  0.0251
23274SOL    HW173864   4.322   0.414   4.374  0.8563  0.1212 -1.7491
23274SOL    HW273865   4.402   0.398   4.501 -1.3695 -0.1945 -0.3234
23275SOL     OW73866   8.518   0.457   3.214  0.1541  0.4165 -0.1106
23275SOL    HW173867   8.505   0.420   3.301 -2.9325  0.7092 -0.3269
23275SOL    HW273868   8.491   0.388   3.154  0.2491  0.9278 -0.7548
23276SOL     OW73869   2.584   8.345   1.859 -0.1623 -0.5339 -0.4601
23276SOL    HW173870   2.535   8.288   1.917  0.8556  0.4224  1.4138
23276SOL    HW273871   2.555   8.434   1.882  0.6645 -0.1025 -1.0258
23277SOL     OW73872   1.471   1.816   4.891 -0.4960 -0.1945  0.4036
23277SOL    HW173873   1.489   1.724   4.871  1.0457  0.4286 -1.3814
23277SOL    HW273874   1.485   1.822   4.985  0.8265 -1.5241  0.3473
23278SOL     OW73875   3.345   8.460   8.032 -0.0115  0.0318  0.0801
23278SOL    HW173876   3.258   8.439   8.068 -0.3140  1.7590  0.4175
23278SOL    HW273877   3.400   8.469   8.110  0.4037 -0.7044 -0.1209
23279SOL     OW73878   3.707   1.583   6.805 -0.2516 -0.3039  0.0162
23279SOL    HW173879   3.662   1.616   6.883 -1.8737 -0.1292 -0.9333
23279SOL    HW273880   3.715   1.489   6.819  1.8348  0.0307  1.4983
23280SOL     OW73881   3.351   9.370   9.520 -0.8943  0.3006 -0.2842
23280SOL    HW173882   3.388   9.434   9.460 -2.9889  0.6472 -1.3180
23280SOL    HW273883   3.381   9.398   9.606 -1.1429  2.2596 -0.7834
23281SOL     OW73884   4.475   4.847   9.700 -0.7792  0.0378 -0.4004
23281SOL    HW173885   4.534   4.922   9.692 -0.9373  0.1802 -0.2557
23281SOL    HW273886   4.469   4.831   9.795  0.1823 -0.9021 -0.4740
23282SOL     OW73887   9.633   3.424   0.820  0.5330 -0.6344 -0.1722
23282SOL    HW173888   9.706   3.392   0.874 -0.6094  0.6536  2.2991
23282SOL    HW273889   9.666   3.505   0.781  0.8642 -0.7630 -0.1640
23283SOL     OW73890   8.265   2.743   7.752  0.5183 -0.1531 -0.4629
23283SOL    HW173891   8.277   2.785   7.667  1.7229 -0.6176 -0.5442
23283SOL    HW273892   8.324   2.667   7.750  0.5069 -0.2196  0.7582
23284SOL     OW73893   8.065   6.959   8.055  0.0296  0.1437 -0.1327
23284SOL    HW173894   8.036   6.940   7.966 -1.0612 -1.6169  0.5309
23284SOL    HW273895   8.079   7.053   8.057 -0.4394  0.2873 -2.0083
23285SOL     OW73896   9.382   4.119   8.071  0.2232  0.2517 -0.6803
23285SOL    HW173897   9.380   4.211   8.044  2.6365  0.6844  0.3214
23285SOL    HW273898   9.438   4.077   8.006  0.3251 -0.1880 -0.3065
23286SOL     OW73899   2.683   3.444   7.798  0.2225 -0.5715 -0.4026
23286SOL    HW173900   2.645   3.492   7.725  0.7514 -0.2165 -0.4476
23286SOL    HW273901   2.608   3.411   7.847 -0.1532  0.4586 -0.2644
23287SOL     OW73902   7.713   6.183   2.196  0.0519 -0.6651 -0.2283
23287SOL    HW173903   7.646   6.149   2.138 -3.1233  0.4468  2.4592
23287SOL    HW273904   7.740   6.266   2.156 -2.2624  0.2212 -0.1332
23288SOL     OW73905   7.753   5.995   3.456  0.6300  0.5758  0.0216
23288SOL    HW173906   7.672   6.045   3.453  1.5984  2.1716 -1.8011
23288SOL    HW273907   7.747   5.934   3.382 -0.0016 -1.2266  1.4861
23289SOL     OW73908   0.711   8.744   5.812 -0.1019  0.6142 -0.1697
23289SOL    HW173909   0.744   8.771   5.726 -0.3095 -0.0337 -0.4576
23289SOL    HW273910   0.742   8.812   5.872  0.2434  0.9476 -0.7185
23290SOL     OW73911   9.258   1.672   3.812  0.1856 -0.5219  0.2153
23290SOL    HW173912   9.171   1.676   3.851 -0.3443  0.1966 -1.0132
23290SOL    HW273913   9.304   1.605   3.864 -0.4335  0.4655  2.1483
23291SOL     OW73914   0.412   7.805   8.865 -0.0781 -0.0006  0.3262
23291SOL    HW173915   0.344   7.737   8.861  0.1538 -0.2260  0.1539
23291SOL    HW273916   0.466   7.789   8.787 -1.2225  1.6774 -0.8643
23292SOL     OW73917   7.374   4.285   8.764 -0.1499  0.2499 -0.1318
23292SOL    HW173918   7.327   4.224   8.707 -1.1377  0.5071  0.3792
23292SOL    HW273919   7.405   4.231   8.837  1.9671 -0.2643 -1.3643
23293SOL     OW73920   8.350   1.094   0.391 -0.4503 -0.5697  0.0753
23293SOL    HW173921   8.348   1.188   0.405  0.2339 -0.5540  0.1261
23293SOL    HW273922   8.440   1.076   0.364  0.3161 -1.5702  2.8929
23294SOL     OW73923   1.826   5.491   4.897 -0.0179  0.0212 -0.2055
23294SOL    HW173924   1.740   5.531   4.910  0.3220  0.4630  0.7765
23294SOL    HW273925   1.888   5.563   4.910  0.5847 -0.7163  1.1500
23295SOL     OW73926   6.295   0.937   0.996 -0.4182 -0.6270  0.5460
23295SOL    HW173927   6.204   0.922   0.970 -0.5085  0.5810  0.0787
23295SOL    HW273928   6.343   0.947   0.913  0.3798 -2.3665  0.7535
23296SOL     OW73929   5.860   7.972   1.796 -0.8235 -0.0093  0.4802
23296SOL    HW173930   5.830   7.927   1.875 -1.4030 -0.0756  0.2322
23296SOL    HW273931   5.914   7.908   1.751 -0.7192 -0.0665  0.6839
23297SOL     OW73932   6.269   5.145   2.851  0.0128 -0.0281  0.0680
23297SOL    HW173933   6.320   5.100   2.783  0.1640 -0.7280  0.6313
23297SOL    HW273934   6.220   5.075   2.894  1.6483  0.0036  2.1788
23298SOL     OW73935   3.381   5.742   4.825  0.0618  0.1140 -0.6809
23298SOL    HW173936   3.444   5.807   4.795  1.4276 -1.3159 -1.0258
23298SOL    HW273937   3.368   5.763   4.918  1.8802 -0.2046 -0.3338
23299SOL     OW73938   7.889   6.995   6.056  0.5752  0.1485  0.2210
23299SOL    HW173939   7.870   6.929   6.122  1.3464 -1.1416 -0.8055
23299SOL    HW273940   7.946   7.058   6.100  0.6566 -0.4098  0.9190
23300SOL     OW73941   0.772   4.014   3.625 -0.1235  0.0399 -0.3830
23300SOL    HW173942   0.739   3.996   3.713 -0.9454  1.2186 -0.4235
23300SOL    HW273943   0.853   4.062   3.638  0.1042 -0.3695 -0.2773
23301SOL     OW73944   4.661   7.852   7.943  0.3762 -0.0055 -0.2358
23301SOL    HW173945   4.628   7.903   7.870 -0.6671 -0.9853 -0.4761
23301SOL    HW273946   4.737   7.805   7.908 -0.0759 -0.4115 -0.6790
23302SOL     OW73947   1.396   4.261   6.064 -0.4879  0.0202 -0.1191
23302SOL    HW173948   1.322   4.238   6.008 -0.5344 -2.0460  0.7183
23302SOL    HW273949   1.426   4.177   6.100  1.8230  0.8793  0.1102
23303SOL     OW73950   5.362   2.798  10.175 -0.5816 -0.2239 -0.5734
23303SOL    HW173951   5.292   2.748  10.218 -1.1144  0.6371 -0.4203
23303SOL    HW273952   5.427   2.813  10.243 -0.0791 -1.3091 -0.7960
23304SOL     OW73953   9.729   7.601   2.379 -0.5364 -0.0193  0.6340
23304SOL    HW173954   9.728   7.514   2.339  1.8516  0.4380 -0.5635
23304SOL    HW273955   9.667   7.652   2.327  0.8198 -0.0628 -1.1095
23305SOL     OW73956   4.083   3.003   7.207  0.0307  0.0799  0.0224
23305SOL    HW173957   4.086   3.001   7.303  1.3561 -1.5040 -0.0058
23305SOL    HW273958   4.031   2.927   7.183  0.6514 -0.1735 -0.5347
23306SOL     OW73959   4.566   9.855   8.594  0.1167  0.0746 -0.5776
23306SOL    HW173960   4.475   9.840   8.622  0.8700 -0.9087  1.5704
23306SOL    HW273961   4.594   9.770   8.560 -0.0390  0.6502 -2.2426
23307SOL     OW73962   1.387   2.501   3.380  0.5538  0.0580 -0.4041
23307SOL    HW173963   1.447   2.543   3.441 -0.3160  0.4523  0.1879
23307SOL    HW273964   1.336   2.441   3.434  1.5351 -1.5526 -1.1704
23308SOL     OW73965   9.242   7.624   2.261  0.1163 -0.0912 -0.3463
23308SOL    HW173966   9.228   7.605   2.168  0.0980 -0.5433 -0.2530
23308SOL    HW273967   9.175   7.688   2.283 -0.0307 -0.1620 -0.5860
23309SOL     OW73968   7.647   8.061   9.550  0.4239  0.2208  0.5665
23309SOL    HW173969   7.717   8.077   9.487 -0.3470 -1.1959 -0.7104
23309SOL    HW273970   7.566   8.078   9.501 -0.3050 -3.2778  0.2803
23310SOL     OW73971   0.846   5.574   0.461  0.0069  0.1227  0.2097
23310SOL    HW173972   0.855   5.577   0.557  0.9019  0.7111  0.1280
23310SOL    HW273973   0.902   5.646   0.431  0.7912 -0.8954 -0.8178
23311SOL     OW73974   6.066   6.556   1.844 -0.7273 -0.3495  0.2261
23311SOL    HW173975   6.123   6.560   1.921 -0.7343  1.1068  0.1763
23311SOL    HW273976   5.982   6.526   1.878 -0.2934 -1.2820  0.5074
23312SOL     OW73977   0.341   3.909   3.901 -0.4159  0.0077 -0.1896
23312SOL    HW173978   0.334   3.840   3.836  2.5785 -0.2800 -0.3536
23312SOL    HW273979   0.435   3.918   3.916 -0.6760  3.6708  0.2218
23313SOL     OW73980  10.092  10.203   1.225  0.2074  0.3780 -0.1141
23313SOL    HW173981  10.094  10.264   1.299 -1.2850  2.3971 -1.6286
23313SOL    HW273982  10.153  10.240   1.161 -1.2957  0.7723 -1.3688
23314SOL     OW73983   5.000   0.384   1.105 -0.8207 -0.7325  0.7125
23314SOL    HW173984   4.994   0.422   1.193 -2.2194  1.5410 -0.2790
23314SOL    HW273985   4.914   0.398   1.067 -0.2854 -1.8213 -0.9999
23315SOL     OW73986   5.162   4.089   6.064 -0.1428  0.0441  0.4375
23315SOL    HW173987   5.092   4.044   6.111 -0.9255  0.3015 -0.4650
23315SOL    HW273988   5.129   4.099   5.975  1.1152  0.0157 -0.0487
23316SOL     OW73989   7.375   5.724   3.677  0.0730  0.4905  0.3023
23316SOL    HW173990   7.369   5.817   3.655 -0.1373  0.2515 -0.6682
23316SOL    HW273991   7.285   5.697   3.695 -0.3511 -0.2578 -2.5471
23317SOL     OW73992   0.167   9.835   8.843 -0.3084  0.1392  0.0664
23317SOL    HW173993   0.089   9.819   8.896 -0.1230 -0.3364  0.2014
23317SOL    HW273994   0.203   9.918   8.877 -0.9605  0.5640 -0.2590
23318SOL     OW73995   1.451   0.068   9.168 -0.2101 -0.3046 -0.3915
23318SOL    HW173996   1.381   0.133   9.168 -0.0503 -0.1245  0.5820
23318SOL    HW273997   1.435   0.016   9.089 -0.5221  0.7161 -1.0248
23319SOL     OW73998   8.524   8.013   5.434 -0.0437  0.4478 -0.4087
23319SOL    HW173999   8.607   7.987   5.394  0.2348 -0.4341  0.6860
23319SOL    HW274000   8.522   7.967   5.517 -1.2376  1.1566 -0.0165
23320SOL     OW74001   3.160   5.349   1.813 -0.2215  0.2222 -0.4073
23320SOL    HW174002   3.173   5.433   1.856 -2.9527  0.4830  0.0607
23320SOL    HW274003   3.248   5.322   1.787  1.0472  1.9343  1.7695
23321SOL     OW74004   2.096   2.647   4.225 -0.9290 -0.6831 -0.3125
23321SOL    HW174005   2.011   2.671   4.262 -0.4586 -0.0925  0.4261
23321SOL    HW274006   2.131   2.582   4.286 -0.2137  0.1821  0.2338
23322SOL     OW74007   1.146   8.992   1.650  0.2146  0.2988 -0.6106
23322SOL    HW174008   1.128   9.082   1.677  0.1704  0.0474  0.2279
23322SOL    HW274009   1.237   8.977   1.677 -0.5720 -0.7433  1.6328
23323SOL     OW74010   7.630   5.375   3.544  0.1354  0.2994 -0.1053
23323SOL    HW174011   7.661   5.286   3.532  0.9510  0.6397 -0.6229
23323SOL    HW274012   7.706   5.430   3.523 -0.3689  1.1165  0.1475
23324SOL     OW74013   7.508   7.785   9.996  0.2918  0.6630 -0.1707
23324SOL    HW174014   7.502   7.864   9.942  0.2625  0.2009 -0.8528
23324SOL    HW274015   7.419   7.775  10.032 -0.1253  0.0910 -1.3147
23325SOL     OW74016   8.081   2.720   3.353 -0.2678  0.5182  0.1773
23325SOL    HW174017   8.019   2.763   3.294 -0.7510  1.1263  1.1126
23325SOL    HW274018   8.101   2.637   3.310 -1.2242  0.5993 -0.4526
23326SOL     OW74019   2.484   0.702   6.571  0.3082  0.3171  0.0197
23326SOL    HW174020   2.440   0.711   6.656  1.3689 -0.2422  0.6445
23326SOL    HW274021   2.569   0.745   6.584  0.0814  1.1554 -1.0927
23327SOL     OW74022   9.553   7.200   9.158  0.3572 -0.1125  0.0369
23327SOL    HW174023   9.609   7.263   9.114 -1.1280  0.3914 -1.2065
23327SOL    HW274024   9.610   7.124   9.174  0.7600 -0.8446 -3.9043
23328SOL     OW74025  10.086   3.299   8.161 -0.1193  0.0761 -0.2337
23328SOL    HW174026  10.120   3.371   8.108 -0.0973 -0.9843 -1.7036
23328SOL    HW274027  10.132   3.222   8.130 -0.4273 -0.6600  1.0485
23329SOL     OW74028   9.264   4.021   5.045  0.3826 -0.0684  0.1324
23329SOL    HW174029   9.267   4.098   4.988  0.2530 -0.2718 -0.1523
23329SOL    HW274030   9.340   3.969   5.019 -0.2097 -0.6313 -0.5364
23330SOL     OW74031   0.653   8.063   8.409  0.2198 -0.0199  0.7285
23330SOL    HW174032   0.596   8.061   8.485 -2.0982  0.2980 -0.9081
23330SOL    HW274033   0.639   8.149   8.370 -0.5784 -1.0342 -1.3802
23331SOL     OW74034   7.755   6.840   4.258  0.0691  0.4070  0.2820
23331SOL    HW174035   7.668   6.821   4.222  0.3422 -0.2032 -0.0604
23331SOL    HW274036   7.741   6.846   4.353  0.1358 -2.6667  0.5828
23332SOL     OW74037   0.486   3.283   1.771 -0.0714  0.4439 -0.3792
23332SOL    HW174038   0.398   3.264   1.739  0.4029 -1.7259 -0.5758
23332SOL    HW274039   0.543   3.257   1.699  0.7879  0.0916  0.4068
23333SOL     OW74040   1.721   9.994   0.874 -0.4041  0.0329  0.0806
23333SOL    HW174041   1.709   9.940   0.795  1.8546  0.9246 -0.9420
23333SOL    HW274042   1.816   9.998   0.886 -0.6867 -0.7545  3.3846
23334SOL     OW74043   0.004   9.724   1.217 -0.4499 -0.4163  0.2098
23334SOL    HW174044  -0.055   9.789   1.177  0.3514  1.0102  1.2764
23334SOL    HW274045   0.083   9.729   1.164 -0.4115 -0.5882  0.2519
23335SOL     OW74046   1.936   5.280   4.281 -0.1736  0.9404 -0.2287
23335SOL    HW174047   2.005   5.301   4.219  0.1846 -0.1960 -0.2513
23335SOL    HW274048   1.951   5.187   4.302  1.9273  2.0454  4.2750
23336SOL     OW74049   7.085   9.628   9.527 -0.1518  0.2557  0.5219
23336SOL    HW174050   7.026   9.561   9.492  0.4322  0.5746 -1.1676
23336SOL    HW274051   7.045   9.654   9.610 -0.8712 -1.5244  0.7800
23337SOL     OW74052   3.877   3.795   9.323 -0.6178 -0.2846 -0.2423
23337SOL    HW174053   3.849   3.871   9.271 -1.1489 -1.5921 -1.9821
23337SOL    HW274054   3.835   3.721   9.280 -1.7790 -1.3970  2.6335
23338SOL     OW74055   4.555   0.778   5.611 -0.4936 -0.6829  0.2056
23338SOL    HW174056   4.605   0.844   5.562 -0.1384 -0.9608  0.1905
23338SOL    HW274057   4.612   0.701   5.611  0.4695 -0.0733  2.8508
23339SOL     OW74058   1.248  10.021   3.809 -0.0971 -0.7103  0.5936
23339SOL    HW174059   1.328  10.051   3.765  0.0235 -1.5562  0.2213
23339SOL    HW274060   1.178  10.038   3.746 -0.1611 -0.3429  0.7604
23340SOL     OW74061   2.492   9.663   6.316  0.2990 -0.4248  0.1722
23340SOL    HW174062   2.446   9.707   6.244  2.1277  0.4925 -0.5232
23340SOL    HW274063   2.441   9.684   6.394 -1.6095 -1.2463 -0.7887
23341SOL     OW74064   4.371   8.312   6.521 -0.2981 -0.0232  0.2022
23341SOL    HW174065   4.384   8.405   6.504  0.0401 -0.1438 -0.2309
23341SOL    HW274066   4.277   8.303   6.536 -0.0396  0.7748  2.8180
23342SOL     OW74067   0.031   5.204   4.691 -0.2046 -0.3052 -0.4517
23342SOL    HW174068   0.111   5.158   4.716  0.8860  0.9957 -1.3355
23342SOL    HW274069   0.024   5.276   4.754 -0.2344  0.0495 -0.8572
23343SOL     OW74070   0.811   2.465   1.248  0.2665 -1.0010  0.0838
23343SOL    HW174071   0.785   2.392   1.192  2.1328 -3.0318  1.6919
23343SOL    HW274072   0.771   2.447   1.333  0.2560  0.1860  0.3458
23344SOL     OW74073   2.226   4.811   8.438 -0.4524 -0.8276 -0.2943
23344SOL    HW174074   2.252   4.876   8.373  0.3925 -0.5733  0.2839
23344SOL    HW274075   2.287   4.738   8.425  0.4921 -0.2957  0.9618
23345SOL     OW74076   0.687   3.137   4.977 -1.2123  0.2856 -0.2799
23345SOL    HW174077   0.716   3.066   4.920 -1.5918 -1.5432  1.6667
23345SOL    HW274078   0.624   3.095   5.036  1.8277  1.0508  3.9381
23346SOL     OW74079  10.018   2.185   6.766  0.5285  0.3479 -0.2830
23346SOL    HW174080   9.925   2.171   6.745  0.8568  0.9870 -2.3778
23346SOL    HW274081  10.064   2.117   6.716  1.2053 -0.0309  0.8293
23347SOL     OW74082   6.098   5.411   0.119 -0.4416 -0.0791  0.1981
23347SOL    HW174083   6.059   5.324   0.117 -1.4475  0.3507  0.1499
23347SOL    HW274084   6.132   5.421   0.207 -1.0810 -0.2103  0.4637
23348SOL     OW74085   3.964   2.531   4.058  0.2654 -0.1937 -0.5815
23348SOL    HW174086   3.995   2.513   4.146  0.8778 -0.4584 -0.8411
23348SOL    HW274087   4.045   2.541   4.006 -0.0796 -0.9503 -1.2935
23349SOL     OW74088   6.496   3.585   6.913  0.2997 -0.6515 -0.0380
23349SOL    HW174089   6.573   3.622   6.870  1.9646 -1.9608  1.6359
23349SOL    HW274090   6.531   3.540   6.990 -2.3956  0.7930  2.2172
23350SOL     OW74091   0.083   2.423   8.271 -0.6558 -0.3637  0.4933
23350SOL    HW174092   0.039   2.406   8.354 -1.6724  0.0289  0.0540
23350SOL    HW274093   0.057   2.350   8.214 -0.8682 -0.0470  0.1802
23351SOL     OW74094   7.299   3.624   6.273 -0.0415  0.2359 -0.2467
23351SOL    HW174095   7.362   3.695   6.284  0.2930 -0.0569 -0.2521
23351SOL    HW274096   7.276   3.599   6.362 -0.6141  0.7441 -0.2438
23352SOL     OW74097   6.721   6.630   7.510 -0.2965 -0.8447 -0.1696
23352SOL    HW174098   6.774   6.565   7.557  1.3197 -2.1351 -3.4235
23352SOL    HW274099   6.778   6.707   7.505 -0.2638 -0.8812 -0.3792
23353SOL     OW74100   9.779   7.503   9.505  0.1474 -0.4103  0.5233
23353SOL    HW174101   9.765   7.597   9.493 -2.3271 -0.9832 -2.5116
23353SOL    HW274102   9.869   7.488   9.476  0.4836  0.9670  0.7845
23354SOL     OW74103   7.578   7.754   1.201 -0.1290  0.6275 -0.3115
23354SOL    HW174104   7.504   7.766   1.260  0.1580 -0.9304  0.4122
23354SOL    HW274105   7.539   7.758   1.113 -0.8097  1.3716  0.0103
23355SOL     OW74106   6.287   7.211   8.475  0.2291 -0.1192 -0.0904
23355SOL    HW174107   6.357   7.272   8.500  1.4312 -1.0002 -1.1791
23355SOL    HW274108   6.270   7.231   8.384  0.2723 -1.0465 -0.3117
23356SOL     OW74109   3.966   4.012   1.107 -0.0006  1.1102  0.3862
23356SOL    HW174110   3.944   3.957   1.031  1.5456  2.6533 -1.2532
23356SOL    HW274111   3.883   4.052   1.133 -0.9585 -1.0808  0.9413
23357SOL     OW74112   0.452  10.065   5.456  0.2672  0.7526 -0.3220
23357SOL    HW174113   0.500  10.063   5.373  0.9370  3.3267 -0.1049
23357SOL    HW274114   0.366  10.030   5.435  1.1004 -0.6942 -1.5570
23358SOL     OW74115   1.383   4.669   4.947 -0.3927 -0.2072  0.5886
23358SOL    HW174116   1.475   4.654   4.970 -0.3712  1.1673  1.5150
23358SOL    HW274117   1.337   4.593   4.983  0.0889  0.2576  2.3092
23359SOL     OW74118   6.973   9.255   6.041  0.5017 -0.2844  0.2615
23359SOL    HW174119   6.926   9.311   6.102  1.0385 -0.1748  0.5806
23359SOL    HW274120   6.925   9.264   5.958  1.1813  1.4653  0.0241
23360SOL     OW74121   0.286   6.044   3.516 -0.0035 -0.4365  0.7106
23360SOL    HW174122   0.195   6.018   3.526 -0.8932  0.6286 -2.9911
23360SOL    HW274123   0.282   6.130   3.472  2.7329 -0.7269 -0.3423
23361SOL     OW74124   5.472   2.268   6.953 -0.6982  0.2542  0.0131
23361SOL    HW174125   5.377   2.273   6.950 -0.7456 -0.8223 -0.5703
23361SOL    HW274126   5.496   2.215   6.877  0.3181 -0.1120  0.5706
23362SOL     OW74127   2.689   9.148   4.106  0.4812 -0.1193  0.5567
23362SOL    HW174128   2.616   9.187   4.153 -0.1119 -0.2256 -0.2533
23362SOL    HW274129   2.648   9.087   4.045  1.1650  0.6335 -0.6901
23363SOL     OW74130   1.523   6.513   5.480 -0.0149 -0.0989 -0.0013
23363SOL    HW174131   1.432   6.493   5.498  0.1159 -0.2898  0.4697
23363SOL    HW274132   1.553   6.441   5.425 -0.3307  0.3211 -0.7364
23364SOL     OW74133   6.051   5.645   2.361  0.3038 -0.3293 -0.4342
23364SOL    HW174134   6.143   5.666   2.351  0.6007 -1.7663 -1.0007
23364SOL    HW274135   6.015   5.654   2.272 -0.1384  0.3521 -0.1931
23365SOL     OW74136   9.805   2.059   8.645  0.7255  0.1572 -0.8948
23365SOL    HW174137   9.808   2.147   8.681 -1.6345 -0.1356  0.1804
23365SOL    HW274138   9.897   2.035   8.632  1.5085  1.8348  1.0704
23366SOL     OW74139   0.541   3.348   2.039  0.4229 -0.0758  0.2816
23366SOL    HW174140   0.548   3.329   1.945  2.1973  0.6463  0.2248
23366SOL    HW274141   0.570   3.439   2.047 -0.8630  0.2643  1.4091
23367SOL     OW74142   3.356   2.696   5.835 -0.3717  0.2061 -0.4689
23367SOL    HW174143   3.361   2.790   5.850 -1.0367  0.2387 -0.4246
23367SOL    HW274144   3.389   2.684   5.746 -0.9474  0.5626 -0.7348
23368SOL     OW74145   1.082   6.432   6.511 -0.0840  0.0669 -0.0145
23368SOL    HW174146   1.028   6.437   6.433  0.8668  1.8939 -0.6216
23368SOL    HW274147   1.026   6.463   6.582 -0.3337  0.4026 -0.3546
23369SOL     OW74148   8.448   9.976   8.637 -0.2623 -0.1926 -0.0443
23369SOL    HW174149   8.400   9.962   8.555 -0.6514  0.5915  0.0423
23369SOL    HW274150   8.387  10.025   8.693  0.2277 -0.1685  0.4834
23370SOL     OW74151   6.093   6.174   4.492  0.1149  0.5445 -0.5063
23370SOL    HW174152   6.066   6.096   4.540  1.8704  1.8862  3.0461
23370SOL    HW274153   6.016   6.230   4.492 -0.2570  0.0377 -0.2947
23371SOL     OW74154   4.137   2.274   3.911  0.5406  0.1839 -0.6737
23371SOL    HW174155   4.118   2.243   4.000 -1.3538  1.1968 -0.6937
23371SOL    HW274156   4.193   2.350   3.924 -0.6039  0.9759 -0.2666
23372SOL     OW74157   5.270   5.621   0.224  0.4722  0.4373 -0.1637
23372SOL    HW174158   5.265   5.653   0.314  2.0452  1.3696 -0.3693
23372SOL    HW274159   5.344   5.560   0.225 -0.3355 -0.5860 -0.5547
23373SOL     OW74160   8.029   0.310   8.112 -0.2755 -0.3526  0.3903
23373SOL    HW174161   8.104   0.251   8.110  2.5668  2.9677  0.3555
23373SOL    HW274162   8.032   0.351   8.198 -2.2966 -0.3433  0.5075
23374SOL     OW74163   1.748   2.410   9.405  0.1477 -0.5132 -0.5203
23374SOL    HW174164   1.743   2.481   9.469 -1.7187 -0.7643 -0.3483
23374SOL    HW274165   1.829   2.428   9.357 -0.0005  1.4358 -0.1425
23375SOL     OW74166   2.797   7.102   2.791 -0.7037  0.4356 -0.1207
23375SOL    HW174167   2.767   7.151   2.868 -1.1577  0.4297 -0.2910
23375SOL    HW274168   2.865   7.157   2.752 -0.1134  0.2116  0.5628
23376SOL     OW74169   2.305   2.421   9.003  0.9944  0.5142  0.9094
23376SOL    HW174170   2.253   2.342   9.018 -0.0358  1.3096  1.7724
23376SOL    HW274171   2.309   2.463   9.089  1.2810  1.5362  0.4136
23377SOL     OW74172   4.087   4.658   1.155 -0.0246  0.2567  0.5005
23377SOL    HW174173   4.030   4.591   1.192  0.3170  0.0155  0.5917
23377SOL    HW274174   4.048   4.741   1.184 -2.0609  0.2598 -1.8836
23378SOL     OW74175   9.872   1.452  10.190 -0.1143 -0.5515  0.0211
23378SOL    HW174176   9.939   1.394  10.226 -1.1614 -1.4412  0.5885
23378SOL    HW274177   9.810   1.465  10.262 -0.9776 -0.4176 -0.7265
23379SOL     OW74178   7.191   5.796   5.703 -0.1126  0.2431  0.2974
23379SOL    HW174179   7.128   5.733   5.738  0.1768  0.1523  0.6673
23379SOL    HW274180   7.147   5.835   5.627  0.1804 -1.3178 -0.7237
23380SOL     OW74181  10.057   7.108   0.547  0.0805  0.2633 -0.2671
23380SOL    HW174182  10.022   7.034   0.596  0.5223  1.2683  1.6574
23380SOL    HW274183  10.151   7.109   0.569 -0.1367  2.0888  0.7501
23381SOL     OW74184   1.160   9.851   5.663  0.0889  0.3991 -0.0883
23381SOL    HW174185   1.119   9.880   5.582  2.5476  1.0708 -1.1662
23381SOL    HW274186   1.138   9.758   5.670  1.2728 -0.1134 -2.4819
23382SOL     OW74187   1.614   5.292   6.251 -0.2415  0.1377 -0.1812
23382SOL    HW174188   1.580   5.354   6.316 -1.8662  0.3869 -1.2167
23382SOL    HW274189   1.684   5.246   6.297 -0.3496  1.3293  1.2640
23383SOL     OW74190   3.057   9.294  10.000 -0.2515  0.0852  0.0164
23383SOL    HW174191   2.983   9.346  10.032 -0.6618 -0.5397  0.0914
23383SOL    HW274192   3.054   9.304   9.905 -0.6672 -0.2465 -0.0082
23384SOL     OW74193   8.111   4.412   8.333 -0.7218  0.2070  0.3535
23384SOL    HW174194   8.167   4.337   8.350 -0.9442  0.0840  0.5531
23384SOL    HW274195   8.171   4.482   8.307 -0.6294 -0.3930 -1.0908
23385SOL     OW74196   0.032   7.350   7.212  0.1378  0.1078 -0.2672
23385SOL    HW174197   0.015   7.436   7.174  0.9996  0.3187 -0.1885
23385SOL    HW274198   0.050   7.294   7.137 -0.0180  0.0845 -0.2887
23386SOL     OW74199   9.063   9.413   5.236 -0.2802  0.8556 -0.2937
23386SOL    HW174200   9.020   9.333   5.267 -0.5901  0.8166 -0.8048
23386SOL    HW274201   9.022   9.484   5.286  0.1572  0.6708  0.3235
23387SOL     OW74202   8.912   8.435   9.474 -0.0739 -0.6081 -0.3262
23387SOL    HW174203   8.899   8.445   9.568 -1.6659  0.5387 -0.6491
23387SOL    HW274204   8.966   8.356   9.466  1.7067  0.2999  1.6198
23388SOL     OW74205   2.377   2.310   7.351  0.2786  0.0786 -0.1201
23388SOL    HW174206   2.422   2.230   7.375  0.4260  0.2668  0.2331
23388SOL    HW274207   2.288   2.283   7.329 -0.1631  0.0271  1.6086
23389SOL     OW74208   7.572   9.809   7.011 -0.6077 -0.0348 -0.1055
23389SOL    HW174209   7.620   9.732   6.983 -1.0673 -0.4958  0.3457
23389SOL    HW274210   7.509   9.826   6.941 -0.9424 -0.4633  0.0870
23390SOL     OW74211   3.976   1.228   6.067  0.2449 -0.0147  0.0039
23390SOL    HW174212   4.037   1.296   6.039  1.8779 -1.4821 -0.1617
23390SOL    HW274213   3.955   1.181   5.986  0.0756 -0.4405  0.2914
23391SOL     OW74214   4.832   0.077   3.205 -0.3733  0.2228 -0.5447
23391SOL    HW174215   4.811   0.138   3.276  2.7929  0.3031  0.4626
23391SOL    HW274216   4.909   0.115   3.163 -0.4833 -1.2951 -2.2455
23392SOL     OW74217  10.200   0.831   3.785 -0.0452  0.4715 -0.1037
23392SOL    HW174218  10.288   0.800   3.765 -0.7594 -1.4421 -0.5096
23392SOL    HW274219  10.207   0.926   3.781  1.4044  0.3757 -2.9938
23393SOL     OW74220   2.443   9.162   6.002 -0.1890  1.0336 -0.3004
23393SOL    HW174221   2.350   9.173   5.982 -0.0226  0.3858 -1.5611
23393SOL    HW274222   2.482   9.247   5.981  0.1514  0.1112 -4.1088
23394SOL     OW74223   3.206   9.481   0.045  0.1814  0.3084 -0.1204
23394SOL    HW174224   3.116   9.455   0.025  0.6627 -0.4623 -1.4725
23394SOL    HW274225   3.241   9.509  -0.040  0.2757  3.7049  0.9133
23395SOL     OW74226   9.591   9.945   9.858 -0.0615 -0.1014 -0.2226
23395SOL    HW174227   9.531   9.960   9.785 -0.2252 -1.6608 -0.4326
23395SOL    HW274228   9.669   9.907   9.817 -0.8478 -2.7214  0.5613
23396SOL     OW74229   1.035   0.167   0.527  0.1379  0.4339 -0.7896
23396SOL    HW174230   1.121   0.167   0.567 -0.1808  0.2176 -0.0946
23396SOL    HW274231   1.040   0.101   0.458 -0.2150 -1.4647  0.9160
23397SOL     OW74232   7.451   5.394   9.089  0.6619  0.3106 -0.6090
23397SOL    HW174233   7.448   5.347   9.006  0.3261 -1.4242  0.3275
23397SOL    HW274234   7.492   5.333   9.150  1.1480  1.6393  0.4583
23398SOL     OW74235   9.435   1.202   2.197 -0.0403 -0.4881 -0.2130
23398SOL    HW174236   9.361   1.257   2.223  0.9457  0.1453  1.4249
23398SOL    HW274237   9.440   1.135   2.265  0.2330 -1.1818 -0.9076
23399SOL     OW74238   8.869   8.278   1.382 -0.1908 -0.4488  0.7201
23399SOL    HW174239   8.839   8.344   1.446 -0.4914 -0.5630  0.7012
23399SOL    HW274240   8.788   8.236   1.353  0.1162 -2.0845  2.0740
23400SOL     OW74241   1.695   9.369   3.982 -0.0715  0.1698  0.0571
23400SOL    HW174242   1.725   9.418   3.906  1.1997  2.3335  1.8057
23400SOL    HW274243   1.600   9.383   3.983 -0.1406 -0.1218 -1.2589
23401SOL     OW74244   3.473   4.583   1.305 -0.1054 -0.5991 -0.0506
23401SOL    HW174245   3.402   4.568   1.243  2.3147 -2.3029 -2.6495
23401SOL    HW274246   3.429   4.606   1.387 -3.5336  0.8943 -2.0751
23402SOL     OW74247   6.884   2.191   0.444  0.2043  0.1312 -0.3789
23402SOL    HW174248   6.873   2.097   0.434 -0.0681  0.1355 -0.1235
23402SOL    HW274249   6.926   2.219   0.363 -0.5080 -0.0819 -0.8363
23403SOL     OW74250   7.197   5.887   7.680 -0.0084  0.3846  0.1726
23403SOL    HW174251   7.184   5.892   7.585 -3.0504 -0.0210  0.4768
23403SOL    HW274252   7.130   5.945   7.717  1.8976  1.4912  2.1013
23404SOL     OW74253   9.734   3.545   2.393 -0.1364  0.1950 -0.5307
23404SOL    HW174254   9.733   3.560   2.298  1.3197  0.8763 -0.4756
23404SOL    HW274255   9.825   3.521   2.412 -0.1196  1.1878  0.8303
23405SOL     OW74256   9.122   8.421   6.242  0.1260  0.6668  0.2644
23405SOL    HW174257   9.185   8.358   6.206 -0.5770 -0.0753  0.2999
23405SOL    HW274258   9.105   8.481   6.170  1.9509  1.7617  0.6831
23406SOL     OW74259   9.750   6.648   8.183  0.4357  0.1838 -0.1163
23406SOL    HW174260   9.722   6.626   8.095 -1.1068  2.1045 -0.1545
23406SOL    HW274261   9.703   6.587   8.240 -0.1924  0.3093 -0.4964
23407SOL     OW74262   0.090   3.148   3.672  0.1311  0.0161 -0.3388
23407SOL    HW174263   0.183   3.161   3.693  0.4329 -1.7005 -0.4702
23407SOL    HW274264   0.086   3.152   3.576  0.3191 -1.3082 -0.4099
23408SOL     OW74265   5.416   3.375   1.674  0.5934 -0.6248 -0.2313
23408SOL    HW174266   5.370   3.435   1.616 -1.1822 -2.2296 -0.5580
23408SOL    HW274267   5.432   3.426   1.754  0.6859  0.7769 -1.1169
23409SOL     OW74268   4.771   8.097   9.627  0.5170 -0.3512 -0.4574
23409SOL    HW174269   4.737   8.138   9.548  1.6313  0.8288 -0.3543
23409SOL    HW274270   4.750   8.004   9.617  0.2858 -0.1522 -1.9489
23410SOL     OW74271   0.306   1.644   4.986  0.2330 -0.2428 -0.2367
23410SOL    HW174272   0.253   1.642   5.066 -1.4223  0.3695 -1.2680
23410SOL    HW274273   0.250   1.687   4.922  1.0753 -1.7450 -2.0649
23411SOL     OW74274   7.568   9.035   4.696  0.1694 -0.1840 -0.6344
23411SOL    HW174275   7.654   9.067   4.672  0.8649 -1.4318  0.0964
23411SOL    HW274276   7.576   8.939   4.692 -0.3762 -0.4057  2.0789
23412SOL     OW74277   0.896   2.868   6.076 -0.1419 -0.7605  0.0300
23412SOL    HW174278   0.821   2.915   6.113 -0.3875 -1.4108  0.3680
23412SOL    HW274279   0.877   2.776   6.091  0.4703 -0.9597 -0.3778
23413SOL     OW74280   2.734   5.779   3.527  0.4931 -0.4332  0.0529
23413SOL    HW174281   2.777   5.844   3.583  0.7044  0.8981 -1.5566
23413SOL    HW274282   2.661   5.745   3.580  1.1965  0.1261  1.4181
23414SOL     OW74283   2.982   3.244   2.900 -0.2401  0.5998  0.0989
23414SOL    HW174284   3.032   3.166   2.876  0.8536  1.2594  0.1591
23414SOL    HW274285   2.914   3.212   2.959  2.5745  0.1382  3.3671
23415SOL     OW74286   8.214   5.179   1.010 -0.1971  0.4089 -0.2208
23415SOL    HW174287   8.303   5.193   1.043 -0.2848  1.0081 -0.2343
23415SOL    HW274288   8.196   5.087   1.029  0.7793  0.0315 -1.0580
23416SOL     OW74289   1.807   2.318   6.018 -0.0415 -0.3413 -0.1242
23416SOL    HW174290   1.722   2.275   6.024  0.6509 -1.9262 -1.0279
23416SOL    HW274291   1.823   2.327   5.924  0.4227  0.7204  0.0410
23417SOL     OW74292   4.457   5.302   6.156  0.9128  0.2103  0.0838
23417SOL    HW174293   4.481   5.236   6.090  0.8040 -0.0570  0.3089
23417SOL    HW274294   4.507   5.380   6.132  1.6841 -0.2105  0.3069
23418SOL     OW74295   7.283   9.427   9.554  0.1829  0.1354 -0.1447
23418SOL    HW174296   7.342   9.425   9.478  1.1235  1.1451  0.5302
23418SOL    HW274297   7.244   9.515   9.551 -0.8695 -0.3225 -0.2572
23419SOL     OW74298   1.894   8.221   4.202 -0.0456  0.2642 -0.2922
23419SOL    HW174299   1.933   8.306   4.179  1.2495 -0.3340 -0.4353
23419SOL    HW274300   1.896   8.219   4.297  1.9368 -0.4467 -0.3023
23420SOL     OW74301   6.462   1.248   0.114 -0.2087 -0.2265 -0.1218
23420SOL    HW174302   6.506   1.309   0.174 -1.1026 -0.2679  0.5973
23420SOL    HW274303   6.533   1.212   0.061  0.5631  0.0869  0.6633
23421SOL     OW74304   3.248   1.530   0.667  0.4027  0.4811 -0.7953
23421SOL    HW174305   3.163   1.555   0.703 -0.1036  0.3303 -1.8558
23421SOL    HW274306   3.305   1.604   0.686  0.1137  0.4751  0.1627
23422SOL     OW74307   1.843   5.301  10.145 -0.1859  0.0789 -0.1860
23422SOL    HW174308   1.912   5.352  10.187 -0.1455  1.2424 -1.5778
23422SOL    HW274309   1.887   5.257  10.072 -0.2940 -1.7320  0.7896
23423SOL     OW74310   1.712  10.169   4.400 -0.3193 -0.4796  0.1223
23423SOL    HW174311   1.627  10.173   4.356  0.0613  1.4537 -0.5306
23423SOL    HW274312   1.771  10.215   4.341  0.7522 -0.0007  1.5203
23424SOL     OW74313   9.899   1.304   4.693 -0.2821 -0.1043  0.0385
23424SOL    HW174314   9.857   1.218   4.698 -0.5417  0.0773  1.7289
23424SOL    HW274315   9.937   1.317   4.780  1.3534  0.7177 -0.7467
23425SOL     OW74316   2.942   6.568   3.399  0.1375  0.3340 -0.6618
23425SOL    HW174317   2.911   6.654   3.426 -1.1124 -0.7217  1.4705
23425SOL    HW274318   2.920   6.563   3.306 -3.3661  0.8884 -0.0051
23426SOL     OW74319   8.738   3.162   3.295 -0.2869 -0.4348  0.4159
23426SOL    HW174320   8.804   3.092   3.293  1.2753  0.9454  0.8561
23426SOL    HW274321   8.746   3.205   3.210  0.1428  0.3708  0.8450
23427SOL     OW74322   1.117   0.365   6.623 -0.0207 -0.1566 -0.3314
23427SOL    HW174323   1.106   0.320   6.706  1.8256  0.5643  0.3649
23427SOL    HW274324   1.153   0.451   6.647 -1.8317  1.0791 -1.7197
23428SOL     OW74325   4.895   2.943   6.468  0.7365 -0.3108 -0.1729
23428SOL    HW174326   4.889   2.865   6.522 -3.2495  1.2686  2.1162
23428SOL    HW274327   4.956   3.001   6.514 -0.4177 -0.1037  1.1684
23429SOL     OW74328   8.910   9.390   0.251 -0.2087  0.3874  0.0427
23429SOL    HW174329   8.880   9.309   0.207 -1.7170  0.5190  0.7500
23429SOL    HW274330   8.920   9.365   0.343  0.8594  0.6398  0.0105
23430SOL     OW74331   9.035   0.992   0.482  0.3322 -0.9799 -0.0587
23430SOL    HW174332   9.029   1.010   0.576  2.3640 -0.3379 -0.0130
23430SOL    HW274333   9.103   1.051   0.450  0.7102 -2.2171 -1.6622
23431SOL     OW74334   5.835   4.461   3.817  0.4105 -0.2855  0.2696
23431SOL    HW174335   5.845   4.376   3.774 -0.6283 -1.0302  1.4096
23431SOL    HW274336   5.761   4.502   3.772 -0.5848 -1.0051  1.1778
23432SOL     OW74337   0.130   6.080   2.705  0.3150  0.0655  0.5533
23432SOL    HW174338   0.135   6.174   2.688  0.6693 -0.2923 -1.5054
23432SOL    HW274339   0.221   6.053   2.716  0.2390 -0.1005  0.7825
23433SOL     OW74340   3.292  10.153   0.453  0.2644  0.1323  0.2200
23433SOL    HW174341   3.340  10.180   0.532  2.3945  0.4875 -1.0990
23433SOL    HW274342   3.357  10.158   0.383 -1.1244 -1.7194 -1.3133
23434SOL     OW74343   7.154   0.721   4.656  0.3519 -0.2277 -0.0939
23434SOL    HW174344   7.204   0.647   4.691  0.0238  0.0557  1.0101
23434SOL    HW274345   7.109   0.758   4.732  0.6070  1.1816 -0.5966
23435SOL     OW74346   7.796   9.038   5.407 -0.0137  0.5656  0.1218
23435SOL    HW174347   7.844   8.992   5.476 -2.4799 -0.9151  0.9580
23435SOL    HW274348   7.733   9.093   5.454  0.3342  1.9512 -0.9565
23436SOL     OW74349   5.335  10.013   4.819 -0.3435 -0.6724  0.0068
23436SOL    HW174350   5.272  10.034   4.888  0.9950 -2.3415  1.8571
23436SOL    HW274351   5.312   9.924   4.792  0.8787 -1.1493  0.4205
23437SOL     OW74352   3.552   0.596  10.112 -0.1551 -0.7200  0.5657
23437SOL    HW174353   3.595   0.580  10.028 -0.5353  0.9131  0.0129
23437SOL    HW274354   3.623   0.596  10.176  0.4010 -0.1269 -0.0392
23438SOL     OW74355   9.007   8.068   5.562  0.1057 -0.4076 -0.4638
23438SOL    HW174356   8.979   8.038   5.649 -0.1916  0.3283 -0.3004
23438SOL    HW274357   9.057   7.995   5.527 -0.0563 -0.8461  0.1924
23439SOL     OW74358   3.161   0.466   2.545  0.1136  0.1412  0.1470
23439SOL    HW174359   3.160   0.375   2.574 -0.9000 -0.3652 -1.3389
23439SOL    HW274360   3.068   0.490   2.540  0.3880  1.5669  1.3831
23440SOL     OW74361   9.398   5.027   1.672  0.1469  0.1254  0.1307
23440SOL    HW174362   9.306   5.048   1.658  0.2375  0.6623  0.2930
23440SOL    HW274363   9.428   5.091   1.737  0.9642  0.8366 -0.8923
23441SOL     OW74364   2.920   8.697   8.374  0.1530 -0.3545 -0.0751
23441SOL    HW174365   2.852   8.694   8.442 -0.2563  0.2665 -0.4496
23441SOL    HW274366   2.933   8.790   8.358  0.9351 -0.4740 -0.1755
23442SOL     OW74367   0.519   6.858   0.745 -0.0668 -0.2801 -0.4269
23442SOL    HW174368   0.454   6.834   0.679  0.9743 -1.7734 -0.9587
23442SOL    HW274369   0.480   6.832   0.828 -1.7654  2.3905 -0.2364
23443SOL     OW74370   8.537   1.214   0.711  0.4453  0.2739 -0.0309
23443SOL    HW174371   8.504   1.248   0.628  0.6052  1.0964  0.2390
23443SOL    HW274372   8.631   1.206   0.698  0.5589  1.0547  0.2973
23444SOL     OW74373   4.284   5.728   8.125  0.7571 -0.3991  0.6153
23444SOL    HW174374   4.299   5.809   8.173  0.7170 -1.5871  2.7486
23444SOL    HW274375   4.224   5.752   8.055 -1.6991  0.8759  3.0059
23445SOL     OW74376   4.518   1.161   9.951  0.4202  0.6821 -0.1560
23445SOL    HW174377   4.425   1.152   9.930 -0.1811  2.4386  1.3899
23445SOL    HW274378   4.538   1.086  10.006  0.6882 -1.1581 -2.5986
23446SOL     OW74379   0.692   4.407   4.597  0.0196 -0.0514 -0.1683
23446SOL    HW174380   0.719   4.497   4.579 -1.3698  0.0405 -2.1156
23446SOL    HW274381   0.760   4.353   4.556  1.7983 -0.0182  2.4693
23447SOL     OW74382   2.425   4.368   8.975  0.1950  0.2999  0.4317
23447SOL    HW174383   2.384   4.454   8.970 -1.1486 -0.3526 -0.4199
23447SOL    HW274384   2.357   4.311   9.013 -0.3625 -1.1362 -2.4617
23448SOL     OW74385   6.766   2.542   1.341 -0.3824 -0.4334  0.1757
23448SOL    HW174386   6.808   2.510   1.420  0.3392  2.0833  0.9062
23448SOL    HW274387   6.682   2.578   1.372 -0.1079  0.5382 -0.1631
23449SOL     OW74388   2.039   8.336   5.579 -0.1921 -0.2259 -0.4938
23449SOL    HW174389   1.966   8.297   5.628 -0.2540  0.7723  0.2350
23449SOL    HW274390   1.996   8.393   5.515 -0.0712  1.6855  1.0470
23450SOL     OW74391   7.287   9.468   5.191 -0.0245  0.1829 -0.3335
23450SOL    HW174392   7.218   9.459   5.126 -1.1122  1.3482  0.6212
23450SOL    HW274393   7.364   9.494   5.141 -0.3787 -0.6501 -1.3520
23451SOL     OW74394   7.943   0.788   4.228 -0.0443  0.1390 -0.3193
23451SOL    HW174395   7.920   0.838   4.149 -1.0822  0.2825  0.0623
23451SOL    HW274396   7.980   0.853   4.288 -0.0004  0.1758 -0.3856
23452SOL     OW74397   9.215   5.471   4.018 -0.1203 -0.2837  0.6830
23452SOL    HW174398   9.161   5.462   4.097 -0.8266 -3.3190  0.0060
23452SOL    HW274399   9.289   5.411   4.033  0.2867 -0.1130 -0.5347
23453SOL     OW74400   8.894   2.397   4.158 -0.2555  0.2643 -0.2295
23453SOL    HW174401   8.896   2.322   4.099 -2.0190  0.0391 -0.0448
23453SOL    HW274402   8.986   2.411   4.182  0.7738  1.2792 -4.1111
23454SOL     OW74403   7.970   8.375   2.992  0.3254 -0.6502  0.0900
23454SOL    HW174404   7.967   8.392   2.898  0.7953  0.3395  0.2433
23454SOL    HW274405   8.055   8.409   3.020  0.4576 -1.5126  0.7664
23455SOL     OW74406   1.298   4.816   2.645 -0.1447 -0.4741 -0.0900
23455SOL    HW174407   1.367   4.764   2.687  0.1698  0.4734  0.5821
23455SOL    HW274408   1.254   4.754   2.587 -0.4352 -1.7366  1.4456
23456SOL     OW74409   6.750   5.883   0.134  0.0483  0.4800  0.2401
23456SOL    HW174410   6.766   5.916   0.222  0.8943  3.0335 -0.7633
23456SOL    HW274411   6.711   5.957   0.087 -0.3006 -0.7706 -1.5535
23457SOL     OW74412   5.918   3.242   7.247 -0.2784 -0.2445 -0.3577
23457SOL    HW174413   5.932   3.331   7.214 -0.7254 -0.2066 -0.4523
23457SOL    HW274414   5.982   3.232   7.317 -2.2649  1.2594  1.7987
23458SOL     OW74415   4.046   4.277   6.490 -0.1170  0.2918  0.0185
23458SOL    HW174416   4.122   4.220   6.483 -0.4493 -0.0323 -1.0163
23458SOL    HW274417   3.973   4.218   6.505 -0.2107  0.5915  0.8424
23459SOL     OW74418   6.546   2.097   2.633  0.2795 -0.6480  0.1378
23459SOL    HW174419   6.551   2.158   2.560 -0.1863 -0.7237  0.0379
23459SOL    HW274420   6.561   2.151   2.711 -0.1824 -0.3971  0.0536
23460SOL     OW74421   9.094   6.966   2.926  0.0166  0.1475  0.2360
23460SOL    HW174422   9.001   6.945   2.922  0.2590 -0.9488  0.1213
23460SOL    HW274423   9.103   7.044   2.871 -0.9140  0.6092  0.7031
23461SOL     OW74424   5.196   6.093   4.507 -0.1424 -0.1688  0.1311
23461SOL    HW174425   5.108   6.083   4.543  0.0789 -2.3657  0.2267
23461SOL    HW274426   5.186   6.083   4.413  0.0666 -1.1164  0.2010
23462SOL     OW74427   7.671   7.432   9.091  0.5652 -0.4024  0.2198
23462SOL    HW174428   7.582   7.416   9.061  0.4993 -0.2362  0.3275
23462SOL    HW274429   7.661   7.468   9.179  0.7760 -1.5659  0.7504
23463SOL     OW74430   5.276   9.515   1.971 -0.4772  0.1256  0.9767
23463SOL    HW174431   5.232   9.438   2.006 -0.3504 -0.0103  0.8405
23463SOL    HW274432   5.326   9.482   1.896  0.0290  0.2311  1.2578
23464SOL     OW74433   5.676   1.518   1.415 -0.0344  0.1318 -0.4368
23464SOL    HW174434   5.696   1.582   1.483  0.1573 -0.6618  0.2586
23464SOL    HW274435   5.715   1.556   1.335 -0.4619  1.1695 -0.1721
23465SOL     OW74436   7.590   0.557   0.893 -0.3059 -0.1704  0.1334
23465SOL    HW174437   7.666   0.516   0.936  0.2526  0.7216  0.0317
23465SOL    HW274438   7.629   0.619   0.832 -1.1301 -0.0282 -0.2547
23466SOL     OW74439   8.943   9.988   2.752  0.2760 -0.2641  0.3542
23466SOL    HW174440   8.910   9.917   2.697  1.3648 -0.2522 -0.3291
23466SOL    HW274441   8.964   9.945   2.835 -0.8476 -0.3803  0.6034
23467SOL     OW74442   0.830   1.967   6.205  0.2876  0.5397 -0.5044
23467SOL    HW174443   0.843   1.964   6.299 -1.4333 -0.7770 -0.2522
23467SOL    HW274444   0.786   2.051   6.189  2.2003  1.6038 -0.4259
23468SOL     OW74445   0.430   1.302   2.406 -0.4229 -0.1226 -0.1633
23468SOL    HW174446   0.512   1.332   2.446  0.7042 -2.5784 -0.4024
23468SOL    HW274447   0.397   1.378   2.358  0.3189  1.7067  2.0238
23469SOL     OW74448   4.719   3.791   4.394 -0.2938  0.2807  0.0698
23469SOL    HW174449   4.775   3.855   4.439  1.4517 -2.1300  1.5423
23469SOL    HW274450   4.723   3.817   4.302  0.3851  2.2294  0.5970
23470SOL     OW74451   8.299   6.336   0.905 -0.3704  0.0239 -0.0192
23470SOL    HW174452   8.309   6.251   0.947  1.1892  0.1342 -0.0916
23470SOL    HW274453   8.380   6.383   0.926 -0.9855  1.3115 -0.3860
23471SOL     OW74454   4.169   0.654   9.648  0.2457 -0.6136 -0.1382
23471SOL    HW174455   4.212   0.650   9.563  2.9760 -1.1555  1.1341
23471SOL    HW274456   4.234   0.618   9.709 -0.8907  1.3408  2.4148
23472SOL     OW74457   0.617  10.030  10.043 -0.1634 -0.2780  0.0067
23472SOL    HW174458   0.522  10.020  10.052 -0.0100 -2.1220 -0.1145
23472SOL    HW274459   0.627  10.094   9.973 -1.3092  0.0736  0.1325
23473SOL     OW74460   8.711   8.306   3.041 -0.2767 -0.0359  0.7474
23473SOL    HW174461   8.681   8.324   2.951 -1.7155  0.0924  1.2260
23473SOL    HW274462   8.771   8.378   3.060 -0.1254  0.0622 -0.0333
23474SOL     OW74463   7.252   5.532   9.245  0.3788 -0.3131  0.5425
23474SOL    HW174464   7.325   5.501   9.192  0.6090  0.1700  0.5740
23474SOL    HW274465   7.221   5.454   9.291  0.4705 -0.6412  0.0477
23475SOL     OW74466   7.076   9.943   5.421 -0.0916 -0.0830 -0.6505
23475SOL    HW174467   7.039   9.897   5.346  0.7385  0.8862 -1.6828
23475SOL    HW274468   7.170   9.939   5.408  0.0821 -0.1647  0.5086
23476SOL     OW74469   0.013   6.540   5.505  0.0353 -0.5103 -0.4478
23476SOL    HW174470   0.053   6.490   5.435  1.1395 -1.0664  0.5495
23476SOL    HW274471   0.060   6.624   5.505 -1.5281  0.4339 -1.8407
23477SOL     OW74472   4.655   3.402   8.206 -0.2240  0.3215  0.7158
23477SOL    HW174473   4.629   3.349   8.281  2.3490 -3.4694 -0.7322
23477SOL    HW274474   4.720   3.462   8.240  0.0566 -0.5414  1.7625
23478SOL     OW74475   6.508   8.239  10.296 -0.3636 -0.5986  0.2186
23478SOL    HW174476   6.419   8.211  10.274 -0.6410 -0.1721  0.7799
23478SOL    HW274477   6.564   8.183  10.242 -0.9611 -1.0154  0.0114
23479SOL     OW74478   7.750   8.488   5.670 -0.2519  0.3538 -0.4651
23479SOL    HW174479   7.698   8.513   5.747 -0.5998 -2.3581  0.2875
23479SOL    HW274480   7.813   8.425   5.704  2.2099  1.9802 -1.7681
23480SOL     OW74481   4.275   0.983   2.951  0.1490  0.0030  0.3137
23480SOL    HW174482   4.265   0.920   2.880  0.3915 -0.4733  0.6895
23480SOL    HW274483   4.348   0.948   3.003 -0.7674 -0.2823  1.4416
23481SOL     OW74484   6.714   5.029   2.267  0.1500  0.4661 -0.3290
23481SOL    HW174485   6.691   5.056   2.178  1.0572  0.2157 -0.6557
23481SOL    HW274486   6.758   4.944   2.256  0.3014  0.4472  0.3569
23482SOL     OW74487   0.653   2.527   2.589  0.5596 -0.3104 -0.4496
23482SOL    HW174488   0.650   2.443   2.633 -0.3147 -0.1039 -0.0906
23482SOL    HW274489   0.738   2.564   2.613  0.6906 -0.8271 -0.1125
23483SOL     OW74490   4.988   4.309   6.790  0.2263  0.5594  0.8324
23483SOL    HW174491   4.909   4.304   6.737  0.6034  0.1591  0.2897
23483SOL    HW274492   5.059   4.291   6.728  0.7965  1.5552  1.1736
23484SOL     OW74493   0.330   2.647   5.335 -0.5151 -0.4895 -0.6200
23484SOL    HW174494   0.347   2.735   5.367  1.7138 -0.9881 -0.2499
23484SOL    HW274495   0.255   2.656   5.276 -1.3827  1.3350  0.6779
23485SOL     OW74496   5.043   6.670   1.577 -0.3073  0.4007 -0.2493
23485SOL    HW174497   4.980   6.609   1.616 -3.0542  1.0017 -3.3517
23485SOL    HW274498   5.096   6.616   1.518 -1.1878  0.6275 -1.2601
23486SOL     OW74499   4.167   0.776   1.152  0.2070 -0.2156  0.1569
23486SOL    HW174500   4.132   0.696   1.112 -0.0659 -0.2055  0.3759
23486SOL    HW274501   4.117   0.847   1.111 -0.1275 -0.2099  0.5778
23487SOL     OW74502   5.982   8.607   0.410 -0.1811  0.0864  0.6758
23487SOL    HW174503   5.935   8.689   0.426  1.1458  1.0783 -0.3693
23487SOL    HW274504   5.929   8.562   0.345 -1.0628 -0.0399  1.4558
23488SOL     OW74505   8.571   0.498   5.868  0.3796 -0.3185  0.9542
23488SOL    HW174506   8.601   0.446   5.793 -0.9922  0.2693 -0.0349
23488SOL    HW274507   8.537   0.433   5.929 -0.6685 -0.6625  0.0356
23489SOL     OW74508   1.914   0.702   8.756 -0.1255  0.0416  0.3071
23489SOL    HW174509   1.931   0.608   8.755  0.3155  0.1068  0.9836
23489SOL    HW274510   1.859   0.716   8.833  1.2120  0.5522  1.2079
23490SOL     OW74511   0.130   0.062   1.875  0.4617 -0.2847  0.9506
23490SOL    HW174512   0.139   0.089   1.783  0.5606 -0.2293  0.9770
23490SOL    HW274513   0.064  -0.007   1.872  0.3687 -0.1926  0.8549
23491SOL     OW74514   7.549   0.188   8.975  0.2755 -0.2873 -0.4235
23491SOL    HW174515   7.471   0.139   9.000  0.3403  0.7521  2.1646
23491SOL    HW274516   7.622   0.133   9.005  0.3873  0.4193  0.6895
23492SOL     OW74517   0.647   3.107   3.393  0.1176 -0.4333 -0.5159
23492SOL    HW174518   0.726   3.095   3.341  0.2081 -1.8407 -0.0939
23492SOL    HW274519   0.660   3.049   3.469 -1.4103 -0.8484 -0.5567
23493SOL     OW74520   4.966  10.102   0.989  0.2894 -0.0048  0.7831
23493SOL    HW174521   4.903  10.032   1.009  0.6100  0.3029  3.2422
23493SOL    HW274522   4.917  10.165   0.937 -0.7722 -0.8428  0.7372
23494SOL     OW74523   5.775   2.821   4.734 -0.0288  0.4686  0.8348
23494SOL    HW174524   5.853   2.867   4.703 -0.6496  0.9571 -0.0356
23494SOL    HW274525   5.809   2.740   4.772  0.7913 -0.1638 -1.1231
23495SOL     OW74526   3.764   0.083   8.038  0.6355  0.1012 -0.3272
23495SOL    HW174527   3.785   0.097   8.130  1.0058 -1.0784 -0.2183
23495SOL    HW274528   3.675   0.117   8.029  0.7727  0.6696  0.3442
23496SOL     OW74529   8.125   6.545   0.988 -0.1198  0.6578 -0.3015
23496SOL    HW174530   8.186   6.477   0.962 -1.0792 -1.0601  1.6712
23496SOL    HW274531   8.039   6.503   0.984 -0.7047  1.6042  1.3718
23497SOL     OW74532   9.600   3.304   0.425  0.7480  0.5819 -0.6391
23497SOL    HW174533   9.656   3.291   0.348 -0.1348 -3.2753 -0.8527
23497SOL    HW274534   9.643   3.252   0.494  0.3781  2.2184  0.8860
23498SOL     OW74535   0.831   0.234   4.784  0.0361  0.8149  0.1450
23498SOL    HW174536   0.843   0.268   4.695  2.2345 -0.7994 -0.2434
23498SOL    HW274537   0.902   0.272   4.835  1.3493 -1.4945  0.1632
23499SOL     OW74538   5.209   4.674   9.776 -0.2101  0.5017 -0.3853
23499SOL    HW174539   5.200   4.601   9.838  0.5256  1.1886  0.5704
23499SOL    HW274540   5.212   4.751   9.832  0.0060  1.1890 -1.3307
23500SOL     OW74541  10.057   0.965   2.420  0.4556 -0.0715  0.2032
23500SOL    HW174542   9.973   0.985   2.461  1.0796 -0.1656  1.5908
23500SOL    HW274543  10.038   0.894   2.359 -0.6267  0.5246 -0.1902
23501SOL     OW74544   2.451   2.825   8.965  0.3332  0.0368  0.1227
23501SOL    HW174545   2.470   2.734   8.987 -0.7428  0.0883  1.4338
23501SOL    HW274546   2.512   2.847   8.895  0.5937 -1.6936 -0.2250
23502SOL     OW74547   0.420   8.293   0.672 -0.0780  0.2398  0.4467
23502SOL    HW174548   0.435   8.203   0.701 -0.4737 -0.0783 -0.3133
23502SOL    HW274549   0.441   8.292   0.578  0.4446  1.0702  0.5455
23503SOL     OW74550   6.035   9.444   2.600 -1.0377 -0.3186 -0.2171
23503SOL    HW174551   6.106   9.422   2.659 -1.7341  1.2186  1.2698
23503SOL    HW274552   6.062   9.527   2.560 -1.0750 -0.7888 -1.2553
23504SOL     OW74553   7.239   1.998   5.922  0.4577 -0.1946 -0.1923
23504SOL    HW174554   7.247   1.915   5.968 -0.7508  0.2025  0.7923
23504SOL    HW274555   7.146   2.003   5.897 -0.2360  2.0821  2.3108
23505SOL     OW74556   4.149   2.068   4.575 -0.2546 -0.1655  0.3859
23505SOL    HW174557   4.058   2.088   4.556 -0.7011 -1.7867  0.6488
23505SOL    HW274558   4.172   2.125   4.649 -0.6327  1.1815 -0.5062
23506SOL     OW74559   6.692  10.180   9.624  0.1849  0.1423 -0.5031
23506SOL    HW174560   6.782  10.152   9.642 -0.0603 -1.5263 -1.7014
23506SOL    HW274561   6.697  10.225   9.540  0.2303  2.0659  0.4736
23507SOL     OW74562   2.382   9.618   0.747 -0.7128 -0.0102 -1.0042
23507SOL    HW174563   2.339   9.538   0.717 -1.3327  0.1562 -0.5796
23507SOL    HW274564   2.431   9.649   0.671 -0.1021 -1.0287 -1.0496
23508SOL     OW74565   1.801   2.754   2.687 -0.3292 -0.2032  0.1360
23508SOL    HW174566   1.824   2.704   2.609 -0.1419 -2.1589  1.3654
23508SOL    HW274567   1.726   2.708   2.725 -1.2761  1.4801  0.4396
23509SOL     OW74568   5.415   2.206   8.124 -0.0336  0.6783 -0.4456
23509SOL    HW174569   5.439   2.114   8.109 -0.9712  0.7847 -3.0579
23509SOL    HW274570   5.361   2.203   8.203  1.5794 -0.6973  0.6875
23510SOL     OW74571   6.960   1.045   3.874 -0.0009  0.0257 -0.7825
23510SOL    HW174572   6.979   1.094   3.795  0.2450 -0.1520 -0.8350
23510SOL    HW274573   6.923   0.962   3.843 -0.2371  0.1000 -0.7007
23511SOL     OW74574   9.511   5.464   5.704  0.4331 -0.0657 -0.6910
23511SOL    HW174575   9.498   5.370   5.689  0.9638 -0.3699  0.5644
23511SOL    HW274576   9.423   5.501   5.701  0.1486 -0.7100 -0.6179
23512SOL     OW74577   0.779   3.923   2.365 -0.4844 -0.1469 -0.6770
23512SOL    HW174578   0.687   3.898   2.370 -0.7079  0.2473 -2.3361
23512SOL    HW274579   0.788   3.969   2.281  1.5051 -1.4520 -1.2727
23513SOL     OW74580   5.485   1.169   0.839  0.4995 -0.1431  0.0668
23513SOL    HW174581   5.542   1.177   0.916  0.6054 -2.2341  0.2588
23513SOL    HW274582   5.415   1.233   0.855  0.5861 -0.4345  1.8454
23514SOL     OW74583   0.605   4.589   9.971 -0.6661 -0.3684  0.3811
23514SOL    HW174584   0.562   4.674   9.959 -0.0866 -0.0193  0.7510
23514SOL    HW274585   0.551   4.544  10.037 -0.6746 -0.0740  0.5785
23515SOL     OW74586   3.049   9.076   3.267 -0.2293  0.4455  0.3569
23515SOL    HW174587   3.074   8.983   3.268  0.6714  0.6647 -0.4883
23515SOL    HW274588   3.128   9.122   3.296 -0.7448  0.9412  0.9958
23516SOL     OW74589   2.621   4.401   9.471  0.0283  0.1247  0.0433
23516SOL    HW174590   2.637   4.348   9.549  0.5555  0.4813  0.1833
23516SOL    HW274591   2.568   4.344   9.414 -0.7763  0.0382  0.8503
23517SOL     OW74592   6.588   4.308   2.740 -0.2040 -0.0866 -0.2795
23517SOL    HW174593   6.643   4.342   2.669  0.2583  0.5128  0.3448
23517SOL    HW274594   6.644   4.313   2.818 -1.2783  0.9987  0.4700
23518SOL     OW74595   2.323   6.722   3.251 -0.5768  0.3798  0.9236
23518SOL    HW174596   2.321   6.777   3.330 -0.1352  1.5815  0.1252
23518SOL    HW274597   2.239   6.675   3.252 -0.9171  0.9891  1.6839
23519SOL     OW74598   8.567   4.763   8.196 -0.4739 -0.1784  0.1294
23519SOL    HW174599   8.619   4.756   8.116  0.6694  1.2640  0.6963
23519SOL    HW274600   8.630   4.789   8.264 -1.9050  1.8406  0.7974
23520SOL     OW74601   1.028   9.265   5.312  0.0334  0.2309 -0.6671
23520SOL    HW174602   1.011   9.354   5.341 -0.9429 -0.3757  0.7157
23520SOL    HW274603   1.029   9.271   5.216 -0.8091  1.5880 -0.6139
23521SOL     OW74604   0.908   8.148   9.244  0.4005  0.3207 -0.2773
23521SOL    HW174605   0.981   8.088   9.260  0.8353  0.7855 -0.5105
23521SOL    HW274606   0.838   8.092   9.210  1.1253  0.0938 -1.4280
23522SOL     OW74607   0.482   4.040   8.142 -0.2416 -0.1852  0.5454
23522SOL    HW174608   0.442   3.953   8.148 -0.5371 -0.0530  0.5232
23522SOL    HW274609   0.470   4.077   8.229 -0.8479  0.1472  0.3244
23523SOL     OW74610   3.152   5.292   3.109 -0.1456 -0.0546 -0.2590
23523SOL    HW174611   3.224   5.332   3.059  0.7738  1.1169  1.8904
23523SOL    HW274612   3.158   5.199   3.088  1.2194  0.1800 -1.0705
23524SOL     OW74613   4.954   7.677   6.798  0.1317  0.3703  0.1699
23524SOL    HW174614   4.869   7.691   6.758  1.1546 -0.8240 -2.7084
23524SOL    HW274615   4.978   7.762   6.835 -0.8398  1.7125 -2.0712
23525SOL     OW74616   5.414   6.999   2.039 -0.4137  0.4199  0.3328
23525SOL    HW174617   5.425   6.977   1.947 -0.4402 -0.5579  0.5538
23525SOL    HW274618   5.379   7.089   2.038  0.1790  0.6523 -0.5769
23526SOL     OW74619   1.859   8.268   4.477  0.3776  0.4882 -0.1676
23526SOL    HW174620   1.851   8.359   4.506  1.6194  0.4641  0.3025
23526SOL    HW274621   1.891   8.220   4.554  0.1254 -0.2713 -0.5210
23527SOL     OW74622   1.897  10.164   6.272  0.0582 -0.2782 -0.2305
23527SOL    HW174623   1.820  10.110   6.256 -1.0506  1.1083  0.2393
23527SOL    HW274624   1.867  10.254   6.259  2.4329  0.2236 -3.3843
23528SOL     OW74625   5.091   2.340  10.207  0.5005  0.9657  0.2775
23528SOL    HW174626   5.068   2.271  10.270 -2.3956  0.9887 -0.6181
23528SOL    HW274627   5.160   2.302  10.154 -0.7327 -1.1481  0.0807
23529SOL     OW74628   6.574   4.631   9.074 -0.3527  0.1446 -0.0690
23529SOL    HW174629   6.590   4.563   9.139 -2.0166  0.0686  0.3108
23529SOL    HW274630   6.615   4.709   9.112  0.6649 -0.3982 -0.0193
23530SOL     OW74631   1.314   5.337   8.345 -0.2807  0.5989 -0.0461
23530SOL    HW174632   1.219   5.326   8.346 -0.5613  2.3645 -1.3224
23530SOL    HW274633   1.343   5.297   8.263  0.2238 -0.7459  0.7684
23531SOL     OW74634   3.766   0.931   7.375  0.9713  0.4302  0.6332
23531SOL    HW174635   3.822   0.858   7.401  0.4460  0.1217  0.9216
23531SOL    HW274636   3.766   0.990   7.450 -2.1129 -1.3951  2.2426
23532SOL     OW74637   6.339   9.183   6.988  0.7510  0.3029 -0.3774
23532SOL    HW174638   6.290   9.113   6.945  1.5874 -1.1178  0.8902
23532SOL    HW274639   6.369   9.239   6.916 -0.3652 -0.3405 -1.3800
23533SOL     OW74640   6.535   6.205   4.947  0.0322 -0.9246 -0.0850
23533SOL    HW174641   6.559   6.115   4.970  1.1084 -0.7472 -0.4765
23533SOL    HW274642   6.465   6.194   4.883  0.6251 -1.5144 -0.6575
23534SOL     OW74643   0.354   0.897   8.652 -0.7581  0.7988  0.0609
23534SOL    HW174644   0.348   0.891   8.557  0.1241  0.0443  0.0348
23534SOL    HW274645   0.297   0.827   8.684  0.3071 -0.1131  0.0293
23535SOL     OW74646   5.180   3.048   3.187  0.5088 -0.3463  0.2911
23535SOL    HW174647   5.153   3.139   3.200  1.5595 -0.1226  1.0905
23535SOL    HW274648   5.132   3.000   3.254 -1.0566 -0.6210 -0.9586
23536SOL     OW74649   4.520   2.243   6.393 -0.1777 -0.4093  0.6149
23536SOL    HW174650   4.511   2.184   6.469 -1.0117 -0.4900  0.4676
23536SOL    HW274651   4.480   2.195   6.321 -1.6149  0.6431  0.6645
23537SOL     OW74652   4.287   6.077   4.059  0.1171 -0.2554 -0.2491
23537SOL    HW174653   4.284   6.155   4.114  1.5223 -0.2507 -0.1247
23537SOL    HW274654   4.295   6.111   3.970 -3.8070 -0.2219 -0.7748
23538SOL     OW74655   2.992   8.006   4.334 -0.4502  0.4415  0.2849
23538SOL    HW174656   2.921   7.969   4.386 -0.7917 -2.4072 -1.9358
23538SOL    HW274657   2.964   7.994   4.243  0.9845  3.3274 -0.6713
23539SOL     OW74658   9.468   0.275   5.307 -0.5480 -0.0535  1.0797
23539SOL    HW174659   9.547   0.228   5.281  0.2071  1.3378  0.7357
23539SOL    HW274660   9.396   0.215   5.287  0.3979 -1.2718  1.2254
23540SOL     OW74661   9.399   5.278   1.836 -0.0991  0.6604 -0.0151
23540SOL    HW174662   9.314   5.257   1.874  0.6296  0.0372  1.3500
23540SOL    HW274663   9.398   5.373   1.823 -1.0862  0.6197 -0.2376
23541SOL     OW74664   9.940   0.813   8.179  0.2337  0.3076  0.0947
23541SOL    HW174665   9.941   0.737   8.237  0.0808  0.0500 -0.2435
23541SOL    HW274666   9.999   0.876   8.222  1.2323 -0.4126 -0.1841
23542SOL     OW74667   3.546   7.066   1.874  0.2844  0.2943  0.2752
23542SOL    HW174668   3.517   7.004   1.941  1.3424 -2.2944 -1.5075
23542SOL    HW274669   3.610   7.121   1.919 -1.3602  0.8005  2.1516
23543SOL     OW74670   2.983   2.599   1.659  0.0563 -0.0954  0.3138
23543SOL    HW174671   2.951   2.619   1.747  0.3238  0.2126  0.3425
23543SOL    HW274672   3.077   2.589   1.670 -0.0203 -0.9619  0.2240
23544SOL     OW74673   5.239   0.380   1.362 -0.1496 -0.6528 -0.0484
23544SOL    HW174674   5.272   0.406   1.276 -0.2432  2.5848  0.7511
23544SOL    HW274675   5.318   0.358   1.412  0.2098  0.3498 -0.1435
23545SOL     OW74676   3.247   5.181   2.475 -0.5574 -0.1286  0.3773
23545SOL    HW174677   3.315   5.240   2.443  0.4708 -1.9101 -0.8770
23545SOL    HW274678   3.281   5.148   2.558 -0.0202 -0.7328 -0.0693
23546SOL     OW74679   6.746   5.007   4.335  0.1580 -0.0075 -0.2336
23546SOL    HW174680   6.712   5.042   4.252  1.1405 -0.6656 -0.9363
23546SOL    HW274681   6.820   4.952   4.309  0.7701  0.1444  1.1358
23547SOL     OW74682   3.123   0.707   1.098  0.6490 -0.0385  0.3288
23547SOL    HW174683   3.126   0.623   1.142  2.2823  0.6737  1.6777
23547SOL    HW274684   3.200   0.754   1.130 -1.2477  2.7284  1.1674
23548SOL     OW74685   8.678   8.166   4.086 -0.0044  0.5379  0.4287
23548SOL    HW174686   8.601   8.221   4.071 -0.8359 -0.6055  0.3006
23548SOL    HW274687   8.701   8.133   3.999 -0.2574 -0.2323  0.6429
23549SOL     OW74688   7.665   1.256   4.293 -0.0577  0.5078 -0.1998
23549SOL    HW174689   7.614   1.181   4.262  0.4414  0.3458 -0.6575
23549SOL    HW274690   7.754   1.221   4.302  0.7349  1.5947 -2.7296
23550SOL     OW74691   7.582   4.775   7.737 -0.0123 -0.2200  0.4228
23550SOL    HW174692   7.508   4.778   7.797 -0.3434 -1.9111  0.1688
23550SOL    HW274693   7.655   4.813   7.786 -0.6704 -0.0069  1.2588
23551SOL     OW74694   1.634   7.497   5.407 -0.0048 -0.2421 -0.4584
23551SOL    HW174695   1.544   7.502   5.375  0.1502  1.0159 -0.7184
23551SOL    HW274696   1.641   7.568   5.471  0.7156 -0.5455 -0.1850
23552SOL     OW74697   0.331   2.508  10.231  0.0751 -0.4483 -0.2858
23552SOL    HW174698   0.356   2.528  10.321  0.8478  1.2976 -0.8393
23552SOL    HW274699   0.244   2.544  10.220  0.2349 -0.0925 -0.4065
23553SOL     OW74700   8.099   2.954   5.667 -0.4278  0.2127 -0.0166
23553SOL    HW174701   8.181   2.911   5.643  0.4225  0.2832  2.4599
23553SOL    HW274702   8.101   3.037   5.620  1.1724  0.4058  0.3164
23554SOL     OW74703   9.058   5.501   3.785 -0.3659 -0.2125  0.0531
23554SOL    HW174704   9.119   5.534   3.851  0.6920  1.6884 -1.7657
23554SOL    HW274705   9.107   5.435   3.736 -0.7120 -0.6686  0.3068
23555SOL     OW74706   9.123   3.591   2.719 -0.3379 -0.3735  0.3849
23555SOL    HW174707   9.180   3.539   2.775 -0.1818 -1.6372 -0.8881
23555SOL    HW274708   9.057   3.529   2.687  0.4898 -0.1081 -2.0637
23556SOL     OW74709   1.349   0.685   5.738 -0.0230 -0.6026  0.1066
23556SOL    HW174710   1.258   0.666   5.764 -0.2593 -0.2006 -0.3958
23556SOL    HW274711   1.379   0.750   5.802  0.2295 -1.4196  0.8308
23557SOL     OW74712   0.897   8.721   2.054 -0.1488 -0.5511 -0.0691
23557SOL    HW174713   0.813   8.692   2.088 -0.6540 -1.5633 -2.0806
23557SOL    HW274714   0.961   8.686   2.116 -1.1874  0.9439  1.9563
23558SOL     OW74715  10.253   9.758   2.150 -0.0642  0.3914  0.3861
23558SOL    HW174716  10.286   9.848   2.151  1.0975  0.0027 -0.6337
23558SOL    HW274717  10.160   9.767   2.132  0.4744  1.3333 -2.4396
23559SOL     OW74718   8.366   1.004   7.308 -0.5461  0.4970  0.3239
23559SOL    HW174719   8.398   0.915   7.326 -1.0468  0.1245 -0.5555
23559SOL    HW274720   8.287   1.013   7.360 -1.3428 -0.1480 -0.7287
23560SOL     OW74721   2.965   2.579   9.058 -0.2187 -0.1531 -0.3783
23560SOL    HW174722   2.889   2.615   9.104  1.1411  0.7153  1.3096
23560SOL    HW274723   2.965   2.622   8.973 -1.1267  0.4902 -0.0627
23561SOL     OW74724   2.561   7.628   8.941  0.3043 -0.4001 -0.3450
23561SOL    HW174725   2.601   7.565   9.000 -2.3043 -1.6566  0.2182
23561SOL    HW274726   2.497   7.674   8.994  1.9933  2.7668 -0.7812
23562SOL     OW74727   0.224   7.792   1.457 -0.1264 -0.9080 -0.0630
23562SOL    HW174728   0.160   7.848   1.501  0.2262 -1.2576  0.9064
23562SOL    HW274729   0.215   7.814   1.364  0.6881  1.4890  0.3613
23563SOL     OW74730   7.402   3.792   7.179  0.3436  0.1947 -0.4849
23563SOL    HW174731   7.406   3.736   7.257 -0.3100  1.6687  0.6399
23563SOL    HW274732   7.466   3.753   7.119  1.0681 -0.8257  0.8865
23564SOL     OW74733   0.901   4.871   3.411 -0.3594 -0.0281 -0.6880
23564SOL    HW174734   0.869   4.783   3.391  0.4210 -0.1087 -1.6955
23564SOL    HW274735   0.966   4.859   3.480 -0.5345 -0.1866 -0.5496
23565SOL     OW74736   3.106   5.282   6.811 -0.0778  0.0617  0.5104
23565SOL    HW174737   3.162   5.296   6.735 -0.9992 -1.7938 -0.5460
23565SOL    HW274738   3.167   5.266   6.883  0.7795 -0.1668 -0.2566
23566SOL     OW74739   1.194   9.096   5.950 -0.2428 -0.1964 -0.1519
23566SOL    HW174740   1.126   9.131   5.892 -1.0155  2.2420  2.0657
23566SOL    HW274741   1.149   9.028   6.000 -0.7298  0.4863  0.3659
23567SOL     OW74742   9.636   2.169   9.428 -0.1638  0.2206  0.0086
23567SOL    HW174743   9.719   2.194   9.469  1.3951 -0.2091 -2.6589
23567SOL    HW274744   9.579   2.149   9.502  1.8936  1.0761  1.9852
23568SOL     OW74745   6.541   2.379   9.192  0.2440 -0.0136 -0.0835
23568SOL    HW174746   6.612   2.358   9.252  0.3371  1.6153  0.4090
23568SOL    HW274747   6.582   2.434   9.125 -0.3573  0.1631 -0.3143
23569SOL     OW74748   3.162   0.543   3.095 -0.5281  0.2626 -0.4326
23569SOL    HW174749   3.144   0.613   3.032 -0.3241  0.8401  0.1389
23569SOL    HW274750   3.244   0.504   3.065 -0.4944  0.4534 -0.5916
23570SOL     OW74751   9.091   9.101   5.957  0.1283 -0.1744 -0.0694
23570SOL    HW174752   9.114   9.065   5.871  0.2786  1.2326 -0.6444
23570SOL    HW274753   9.116   9.193   5.952 -0.2043  0.0184  1.3643
23571SOL     OW74754   0.092   2.183   6.827 -0.9698 -0.0529  0.0442
23571SOL    HW174755   0.051   2.117   6.771 -0.0518 -0.2015 -0.4761
23571SOL    HW274756   0.146   2.133   6.888 -0.4421  0.2037 -0.2095
23572SOL     OW74757   0.164   1.602   9.622  0.3953 -0.1814 -0.2180
23572SOL    HW174758   0.070   1.583   9.623  0.3343 -0.0511 -1.5364
23572SOL    HW274759   0.171   1.683   9.571  1.0581  0.9321  1.5350
23573SOL     OW74760   9.429   1.111   0.322  0.3013  0.8912 -0.3593
23573SOL    HW174761   9.349   1.155   0.294 -1.6567 -1.8706  0.4897
23573SOL    HW274762   9.399   1.029   0.362  3.5973 -0.5691 -0.5586
23574SOL     OW74763   0.575   5.745   5.337 -0.0330 -0.7640  0.1898
23574SOL    HW174764   0.623   5.685   5.395 -2.9782 -1.2894  2.3086
23574SOL    HW274765   0.551   5.819   5.394 -1.4856 -0.4061 -0.8444
23575SOL     OW74766   2.105   0.851   0.480 -0.8036 -0.7842 -0.2333
23575SOL    HW174767   2.129   0.764   0.448 -1.5603 -1.0991  0.0335
23575SOL    HW274768   2.186   0.901   0.477 -0.6563 -1.0675 -1.7750
23576SOL     OW74769   7.016   9.877   0.492  0.1022 -0.3633 -0.0970
23576SOL    HW174770   7.009   9.857   0.586  0.7458 -0.4103 -0.0540
23576SOL    HW274771   7.046   9.968   0.490 -0.5289 -0.1565 -0.2670
23577SOL     OW74772   7.414   2.403   1.089 -0.0894  0.2446 -0.0914
23577SOL    HW174773   7.408   2.491   1.051  2.4060 -0.0916 -1.4406
23577SOL    HW274774   7.437   2.347   1.015  0.6057 -1.1829  1.1581
23578SOL     OW74775   3.541   9.519   6.823  0.0503 -0.0699 -0.0335
23578SOL    HW174776   3.552   9.466   6.902 -0.4557 -0.7578 -0.4160
23578SOL    HW274777   3.448   9.544   6.823 -0.0593 -0.4527 -0.6388
23579SOL     OW74778   3.063   4.948   1.097 -0.0352  0.1140 -0.0792
23579SOL    HW174779   3.148   4.970   1.136  0.0242 -0.0074 -0.1391
23579SOL    HW274780   3.006   5.020   1.122 -0.4932 -0.8270  1.8187
23580SOL     OW74781   3.069   8.070   0.652 -0.1804  0.4369  0.4900
23580SOL    HW174782   3.006   8.106   0.714  0.6616 -0.4709  1.9407
23580SOL    HW274783   3.104   8.146   0.606 -1.3822  1.0599  0.5809
23581SOL     OW74784   1.115   3.680   6.120  0.0365 -0.0601  0.6074
23581SOL    HW174785   1.111   3.629   6.039  2.4084 -2.0189  1.5770
23581SOL    HW274786   1.077   3.623   6.187  1.5389 -0.0824  1.4921
23582SOL     OW74787   8.135   7.970   2.889 -0.2179  0.2335  0.6327
23582SOL    HW174788   8.069   8.021   2.936 -0.0974  0.3896  0.6305
23582SOL    HW274789   8.215   7.982   2.939 -0.1965  0.0207  0.6496
23583SOL     OW74790   1.263   8.337   9.802 -0.5349  0.1530  0.4449
23583SOL    HW174791   1.213   8.335   9.720 -1.2744 -3.0416  0.8441
23583SOL    HW274792   1.264   8.430   9.827 -3.3862  0.7870 -1.3226
23584SOL     OW74793   9.076   2.555   8.788  0.0425  0.4596 -0.0705
23584SOL    HW174794   9.101   2.525   8.700 -1.9148 -2.4741  0.2120
23584SOL    HW274795   9.075   2.475   8.841  1.5629  2.1704  2.8235
23585SOL     OW74796   6.610   8.634   7.569  0.0473 -0.2478  0.2997
23585SOL    HW174797   6.647   8.720   7.545 -0.0775 -0.4358 -0.6228
23585SOL    HW274798   6.577   8.646   7.658  0.8059  0.4141  0.5100
23586SOL     OW74799   9.844   6.877   9.497 -0.5656  0.0159  0.3610
23586SOL    HW174800   9.919   6.936   9.488 -1.0758  0.6564  0.2291
23586SOL    HW274801   9.877   6.804   9.549 -0.2689  1.0700  1.7105
23587SOL     OW74802   3.180   6.622  10.157 -0.1184  0.0421 -0.2691
23587SOL    HW174803   3.236   6.611  10.233  0.2410  0.3566 -0.4824
23587SOL    HW274804   3.140   6.536  10.143  3.1384 -1.3413 -2.3499
23588SOL     OW74805   6.022   4.285   4.815  0.6083  0.4008  0.5990
23588SOL    HW174806   5.941   4.311   4.858 -0.6189 -1.4785 -0.4591
23588SOL    HW274807   6.043   4.200   4.853  0.3510 -0.5666 -1.3239
23589SOL     OW74808   5.629   5.581   5.281  0.0771 -0.5598 -0.5910
23589SOL    HW174809   5.572   5.550   5.210  0.1800  2.5294 -2.2118
23589SOL    HW274810   5.598   5.669   5.300  2.5318  0.1691  0.4695
23590SOL     OW74811   6.794   1.990   3.377  0.7532 -0.4771  0.3290
23590SOL    HW174812   6.864   1.950   3.325  1.4227  1.2294 -0.1390
23590SOL    HW274813   6.831   2.073   3.407 -1.2365  0.7450 -0.4166
23591SOL     OW74814   2.051   4.688   4.023 -0.0638 -0.0157  0.0742
23591SOL    HW174815   2.103   4.679   3.943  0.8988 -0.6174  0.7388
23591SOL    HW274816   2.048   4.782   4.040 -1.7444  0.2794 -1.5798
23592SOL     OW74817   0.115   4.827   4.333  0.1003  0.3692  0.0186
23592SOL    HW174818   0.130   4.908   4.382 -0.4028  0.3003  0.2942
23592SOL    HW274819   0.057   4.853   4.261  0.7300  0.4436 -0.4714
23593SOL     OW74820   3.552   7.052   5.106 -0.1924  0.6414  0.2889
23593SOL    HW174821   3.631   6.999   5.097 -0.4123  0.0413  1.6311
23593SOL    HW274822   3.479   6.991   5.090 -0.4062  1.1708 -0.8523
23594SOL     OW74823   8.816   0.195   7.594 -0.1421 -0.1977 -0.0142
23594SOL    HW174824   8.735   0.147   7.613 -0.8589  0.8771 -0.2945
23594SOL    HW274825   8.805   0.226   7.504  0.5669 -0.0023 -0.0361
23595SOL     OW74826   2.585   6.238   1.488  0.1659 -0.1905  0.0665
23595SOL    HW174827   2.509   6.291   1.512  0.9217  1.0780 -0.2430
23595SOL    HW274828   2.551   6.149   1.484 -1.5948  0.4630 -1.2640
23596SOL     OW74829   4.368   6.505   1.250 -0.5852  0.4323 -0.8880
23596SOL    HW174830   4.345   6.413   1.263  0.3019  0.4733  1.6521
23596SOL    HW274831   4.463   6.504   1.239 -0.4302  1.0928  0.2434
23597SOL     OW74832   7.600   9.235   5.494 -0.2823  0.1660  0.1902
23597SOL    HW174833   7.530   9.228   5.429 -0.6931 -0.2263  0.6732
23597SOL    HW274834   7.585   9.319   5.537 -0.4900  0.0589  0.3287
23598SOL     OW74835   7.814   2.344   4.724  0.7369  0.3551 -0.5934
23598SOL    HW174836   7.758   2.316   4.797 -0.3399 -0.5503 -1.7130
23598SOL    HW274837   7.903   2.334   4.757  0.3208 -1.7302  0.0287
23599SOL     OW74838   9.395   7.657   2.486  0.1642 -0.3548 -0.1969
23599SOL    HW174839   9.415   7.564   2.491 -1.0700 -0.6827 -1.0341
23599SOL    HW274840   9.321   7.663   2.425 -1.1449  0.9672  1.4357
23600SOL     OW74841   8.251   3.009  10.194 -0.3027 -0.0296  0.1440
23600SOL    HW174842   8.338   2.978  10.171 -0.0922  0.3161  0.4445
23600SOL    HW274843   8.244   2.994  10.289  0.2468  1.8106  0.5266
23601SOL     OW74844   7.489   0.486   4.311  0.4752  0.0961  0.2077
23601SOL    HW174845   7.567   0.521   4.354  0.3524  0.5191  0.0909
23601SOL    HW274846   7.465   0.553   4.247  0.5012 -0.4076 -0.3362
23602SOL     OW74847   5.659   4.498   2.800  0.2949 -0.2359  0.1006
23602SOL    HW174848   5.688   4.584   2.769 -0.8372 -0.2099 -0.9521
23602SOL    HW274849   5.577   4.515   2.845  1.7315 -0.3300  2.9600
23603SOL     OW74850   6.192   2.060   6.944 -0.0429 -0.0828  0.0456
23603SOL    HW174851   6.122   2.106   6.991  0.8419  2.3997 -0.8771
23603SOL    HW274852   6.149   2.019   6.870 -0.8242 -0.4384  0.6800
23604SOL     OW74853   9.330   3.019   4.111 -0.3964  0.2296  0.6838
23604SOL    HW174854   9.277   3.014   4.191 -0.7039  0.9556  0.5359
23604SOL    HW274855   9.272   3.060   4.047 -0.1366 -0.3120  0.0981
23605SOL     OW74856   2.458   4.633   5.737 -0.8259  0.1144 -0.4512
23605SOL    HW174857   2.429   4.542   5.737 -0.3886 -0.0284 -0.6072
23605SOL    HW274858   2.394   4.679   5.791 -1.5975 -0.1124 -1.1478
23606SOL     OW74859   1.991   0.984   3.751 -0.3641 -0.0733 -0.2852
23606SOL    HW174860   1.949   0.935   3.822  1.3375 -0.1282  0.7350
23606SOL    HW274861   1.993   1.075   3.782  1.4266 -0.2702  0.3368
23607SOL     OW74862   1.169   6.377   4.689 -0.2698  0.0251  0.2585
23607SOL    HW174863   1.082   6.338   4.704 -0.1568 -1.3175 -2.0995
23607SOL    HW274864   1.229   6.303   4.697  1.1537  1.3366  4.5047
23608SOL     OW74865   8.299   4.205   8.354  0.5083  0.1242  0.1103
23608SOL    HW174866   8.377   4.220   8.407  0.7795 -3.1047  0.8272
23608SOL    HW274867   8.323   4.134   8.295 -1.5268 -0.1483 -0.4734
23609SOL     OW74868   0.543   6.929   1.735 -0.4147  0.5624 -0.3148
23609SOL    HW174869   0.480   6.915   1.805  1.2222  0.5424  1.2303
23609SOL    HW274870   0.607   6.990   1.771  0.4227  0.6542 -1.8387
23610SOL     OW74871   9.536   4.304   3.797  0.0936  0.1839  0.1382
23610SOL    HW174872   9.614   4.349   3.764  0.0715 -1.0486 -1.7774
23610SOL    HW274873   9.465   4.332   3.739 -0.1523 -1.3209 -0.3416
23611SOL     OW74874   9.199   9.812   5.971  0.2430  0.5157  0.0252
23611SOL    HW174875   9.115   9.790   6.012  0.2638  0.1596 -0.1178
23611SOL    HW274876   9.237   9.879   6.028  0.3976 -0.1676  0.7574
23612SOL     OW74877   0.933   4.597   1.558 -0.0245  0.5078 -0.2525
23612SOL    HW174878   0.932   4.511   1.515 -0.5769 -0.8060  2.1975
23612SOL    HW274879   0.987   4.652   1.501  0.4857 -1.5040 -1.8249
23613SOL     OW74880   2.345   9.607   8.951  0.0196  0.3120 -0.3168
23613SOL    HW174881   2.409   9.606   8.879 -0.4678 -2.3516 -0.8165
23613SOL    HW274882   2.260   9.599   8.907 -0.3399 -0.5155  0.4919
23614SOL     OW74883   7.061   0.204   7.334 -0.2834  0.3274  0.5105
23614SOL    HW174884   6.968   0.225   7.348 -0.2626  1.1304 -0.4128
23614SOL    HW274885   7.083   0.143   7.404 -1.4001  0.4587  0.9974
23615SOL     OW74886   7.938   1.312   6.960 -0.3264  0.1977  0.3455
23615SOL    HW174887   7.951   1.268   7.044 -0.8946 -0.9687 -0.1426
23615SOL    HW274888   8.008   1.277   6.904  0.4460  1.4546  0.4916
23616SOL     OW74889  10.002   9.376   1.832 -0.6528  0.5158 -0.2970
23616SOL    HW174890  10.048   9.365   1.749 -0.7021  1.0482 -0.3995
23616SOL    HW274891  10.061   9.338   1.897 -1.4497 -1.6865 -0.7763
23617SOL     OW74892   4.135   9.476   1.512 -0.2099 -0.1864 -0.0068
23617SOL    HW174893   4.102   9.541   1.574  0.6293  0.2209  0.0292
23617SOL    HW274894   4.162   9.527   1.435  0.3417 -0.4966 -0.0269
23618SOL     OW74895   8.299   0.941   5.910 -0.6953 -0.2504  0.3151
23618SOL    HW174896   8.211   0.960   5.880  0.2082 -1.3307 -3.5260
23618SOL    HW274897   8.307   0.846   5.903  1.6471  0.0196 -2.7170
23619SOL     OW74898   4.161   9.326   0.675 -0.7153  0.2575 -0.0698
23619SOL    HW174899   4.152   9.231   0.664 -2.9769  0.0882  2.0960
23619SOL    HW274900   4.255   9.342   0.672 -0.1700 -2.2740  0.8589
23620SOL     OW74901   6.578   0.590   3.220  0.2422  0.2686  0.1463
23620SOL    HW174902   6.487   0.600   3.248  0.4653  0.5957  0.7822
23620SOL    HW274903   6.623   0.553   3.296  0.7497  0.6326  0.0300
23621SOL     OW74904   2.021   6.955   5.593  0.3813  0.0273 -0.1586
23621SOL    HW174905   1.946   7.012   5.574  0.2165 -0.7851 -2.2769
23621SOL    HW274906   1.983   6.882   5.642 -0.0750  0.0013 -0.5414
23622SOL     OW74907  10.263   7.444   7.704  0.7415 -0.0184  0.1497
23622SOL    HW174908  10.220   7.417   7.785 -1.8890  1.4022 -0.6576
23622SOL    HW274909  10.234   7.379   7.640  2.3736 -0.8240  0.1852
23623SOL     OW74910   0.680   3.324   3.853  0.4820 -0.1530  0.1172
23623SOL    HW174911   0.712   3.274   3.778  1.8732  0.8791 -0.0139
23623SOL    HW274912   0.718   3.280   3.929  0.9792  0.1735  0.0598
23624SOL     OW74913   1.941   0.900   0.136  0.3293  0.0204 -0.2579
23624SOL    HW174914   1.985   0.817   0.118  0.9646  0.2141  0.3669
23624SOL    HW274915   1.855   0.891   0.094  0.5455 -0.7881 -0.5454
23625SOL     OW74916   5.677   4.713   2.258 -0.1826  0.0907 -0.5765
23625SOL    HW174917   5.610   4.706   2.190  0.7248  1.6695 -1.7102
23625SOL    HW274918   5.628   4.745   2.335 -0.8065  0.9912 -1.3113
23626SOL     OW74919   5.089   9.672   1.164 -0.2422  0.5974  0.5531
23626SOL    HW174920   5.169   9.673   1.111  0.8221  0.2903  2.0814
23626SOL    HW274921   5.119   9.697   1.251 -1.8191  0.3590  1.1812
23627SOL     OW74922   4.439   0.726   4.578  0.0163 -0.6528  0.1972
23627SOL    HW174923   4.384   0.720   4.500  0.9694  1.5479 -0.7105
23627SOL    HW274924   4.519   0.678   4.556 -0.4676 -1.6831  0.5871
23628SOL     OW74925   2.732   9.167   8.941 -0.3563 -0.0025 -0.4406
23628SOL    HW174926   2.737   9.195   9.033 -0.3195  4.1486 -1.5086
23628SOL    HW274927   2.645   9.194   8.913  0.3692  0.7367 -2.1114
23629SOL     OW74928   2.297  10.254   0.414 -0.0646 -0.3156 -0.6161
23629SOL    HW174929   2.386  10.239   0.383  0.4916  0.1227  0.6810
23629SOL    HW274930   2.292  10.204   0.496 -0.7717  0.2447 -0.3082
23630SOL     OW74931   6.947   5.250   7.038  0.2657 -0.0309 -0.2200
23630SOL    HW174932   6.899   5.231   6.957 -0.1954 -1.0111  0.2550
23630SOL    HW274933   7.011   5.179   7.046  0.5474  0.2523  0.0906
23631SOL     OW74934   4.717   4.017   6.649  0.5717 -0.5119 -0.0598
23631SOL    HW174935   4.628   3.985   6.668  0.2158  0.6869  0.4055
23631SOL    HW274936   4.771   3.979   6.718  0.3887 -1.0953 -0.2313
23632SOL     OW74937   3.608   0.260   8.850  0.2891  0.2257 -0.5926
23632SOL    HW174938   3.615   0.164   8.850 -0.5359  0.1494  0.3119
23632SOL    HW274939   3.533   0.278   8.794  0.7261  0.3755 -1.1329
23633SOL     OW74940   5.872   8.686   4.968  0.3521 -0.3544 -0.0668
23633SOL    HW174941   5.864   8.759   4.907  3.0630  0.1549  0.0948
23633SOL    HW274942   5.956   8.646   4.948 -0.9245 -3.3625  0.0233
23634SOL     OW74943   3.501   5.891   6.125  0.7931  0.2194  0.0689
23634SOL    HW174944   3.542   5.919   6.207 -0.5281  0.9885  0.4976
23634SOL    HW274945   3.449   5.967   6.097 -0.1061 -0.6171 -0.5860
23635SOL     OW74946   8.933   9.434   3.241 -0.0433  0.1820  0.5782
23635SOL    HW174947   8.848   9.464   3.273  0.0998 -0.4823  1.6026
23635SOL    HW274948   8.989   9.511   3.249 -0.5505  0.6432 -0.1657
23636SOL     OW74949   9.687   8.381   6.964 -0.1109 -0.6817 -0.2056
23636SOL    HW174950   9.716   8.327   7.038  0.4300  2.4819  2.1058
23636SOL    HW274951   9.593   8.391   6.978  0.3841  2.4472  2.1632
23637SOL     OW74952   2.454   8.177   5.188 -0.2297 -0.2833 -0.5252
23637SOL    HW174953   2.544   8.179   5.156  1.1056 -0.5949  2.7911
23637SOL    HW274954   2.461   8.201   5.280 -3.0159 -3.7399  0.8370
23638SOL     OW74955   3.723   5.349   4.205 -0.3122 -0.2566 -0.3629
23638SOL    HW174956   3.704   5.357   4.112  1.5588  2.2684 -0.6256
23638SOL    HW274957   3.803   5.400   4.218 -1.0138  0.2809  2.7891
23639SOL     OW74958   8.887   1.865   2.554  0.1290  0.0872  0.5322
23639SOL    HW174959   8.846   1.813   2.486 -1.0281 -1.6003  2.4278
23639SOL    HW274960   8.868   1.956   2.530 -2.6349 -0.5561  0.0452
23640SOL     OW74961   3.455   3.809   9.194  0.2419  0.1216  0.2989
23640SOL    HW174962   3.374   3.807   9.143 -0.0072  0.1406  0.6927
23640SOL    HW274963   3.458   3.724   9.238  0.8224 -0.1800 -0.3123
23641SOL     OW74964   7.692  10.270   6.547  0.7147 -0.5888  0.1401
23641SOL    HW174965   7.617  10.274   6.607 -0.4161 -0.9836 -1.1968
23641SOL    HW274966   7.713  10.361   6.529 -1.4733 -0.3960 -1.8593
23642SOL     OW74967   0.803   1.442   7.744 -0.0443  0.4539  0.2366
23642SOL    HW174968   0.715   1.459   7.776  0.4327  1.8603  0.8845
23642SOL    HW274969   0.852   1.414   7.821  0.7568  2.4792  0.5421
23643SOL     OW74970   5.849   4.865   1.874  0.0570 -0.1870 -0.9543
23643SOL    HW174971   5.826   4.815   1.952  0.6067 -0.2711 -0.8375
23643SOL    HW274972   5.768   4.873   1.824 -0.1839 -0.5757 -0.6230
23644SOL     OW74973   9.985   0.424   2.164 -1.1295 -0.4610 -0.6482
23644SOL    HW174974   9.956   0.342   2.204 -1.6214 -0.5000 -1.0675
23644SOL    HW274975   9.946   0.423   2.076  0.1650 -0.5128 -1.2518
23645SOL     OW74976   3.500   7.353   2.067 -0.2531  0.2043 -0.0851
23645SOL    HW174977   3.587   7.315   2.057 -0.4299 -0.1645 -0.2288
23645SOL    HW274978   3.509   7.442   2.034 -0.2446 -0.2348 -1.3135
23646SOL     OW74979   2.651   6.439   8.178 -0.2679 -0.0059  0.4810
23646SOL    HW174980   2.587   6.494   8.223 -2.7893 -1.8778 -0.5590
23646SOL    HW274981   2.695   6.391   8.248 -0.1914  1.0810  1.2040
23647SOL     OW74982   5.476   1.313   7.327  0.1050  0.3711  0.0462
23647SOL    HW174983   5.462   1.402   7.295 -0.5217  0.3580  0.2646
23647SOL    HW274984   5.416   1.259   7.276  1.1417 -0.0798 -0.7389
23648SOL     OW74985   2.787   0.668   4.207 -0.0365 -0.6763  0.2421
23648SOL    HW174986   2.849   0.679   4.135  0.0039 -0.7154  0.2709
23648SOL    HW274987   2.826   0.717   4.279 -1.6478  2.2247 -0.6735
23649SOL     OW74988   4.216   5.515   2.723  0.2053 -0.5969 -0.1061
23649SOL    HW174989   4.223   5.607   2.751  0.3434 -0.8240  0.6111
23649SOL    HW274990   4.122   5.504   2.705  0.2973 -0.1066 -0.9360
23650SOL     OW74991   4.923   6.760   5.501  0.1498  0.2769  0.5759
23650SOL    HW174992   4.968   6.683   5.465 -1.2654 -0.4901  0.3883
23650SOL    HW274993   4.959   6.834   5.452  2.0315 -0.1406  1.2209
23651SOL     OW74994   9.816   1.681   0.319 -0.0668 -0.0017  0.2083
23651SOL    HW174995   9.829   1.741   0.393 -0.8894  0.7703 -0.2514
23651SOL    HW274996   9.758   1.729   0.260 -0.3240 -1.0610 -0.4146
23652SOL     OW74997   8.361   8.632   1.435  0.2467  0.0523  0.0334
23652SOL    HW174998   8.369   8.655   1.343  1.8969  4.7419  1.0746
23652SOL    HW274999   8.272   8.660   1.459  0.3292  0.1931  0.1750
23653SOL     OW75000   0.611   2.471   1.762 -0.1802  0.0153 -0.6070
23653SOL    HW175001   0.622   2.446   1.854 -0.6128 -2.3105 -1.1154
23653SOL    HW275002   0.588   2.564   1.765  1.3527  0.4134  1.5202
23654SOL     OW75003  10.024   8.943   2.630 -0.2576 -0.5183 -0.7931
23654SOL    HW175004  10.034   8.900   2.715  0.7223  0.2037 -0.5250
23654SOL    HW275005   9.930   8.958   2.622 -0.2583  0.4449  0.7031
23655SOL     OW75006   6.939   4.703   5.153  0.0353 -0.3086 -0.0769
23655SOL    HW175007   7.003   4.638   5.123 -0.9188 -0.3799 -2.1126
23655SOL    HW275008   6.992   4.775   5.188  1.1248 -1.7654  1.4545
23656SOL     OW75009   1.266   8.015   1.627  0.4808 -0.1068  0.1352
23656SOL    HW175010   1.186   7.983   1.669 -0.5924  0.3423 -1.4911
23656SOL    HW275011   1.251   8.001   1.534  2.7538 -0.9732 -0.1440
23657SOL     OW75012   6.093   2.815   9.462 -0.3034 -0.0083  0.4354
23657SOL    HW175013   6.041   2.879   9.511 -0.5766  0.5420 -0.5477
23657SOL    HW275014   6.146   2.771   9.529 -0.5987  0.7790  1.2084
23658SOL     OW75015   8.598   4.551   9.127 -0.2871  0.3201  0.4771
23658SOL    HW175016   8.506   4.544   9.102 -0.2518  0.0905  0.4050
23658SOL    HW275017   8.636   4.466   9.103  0.0085  0.5166  0.2287
23659SOL     OW75018   2.960   2.532   5.297 -0.3275  0.3174  0.0658
23659SOL    HW175019   2.970   2.482   5.378  0.4170 -0.1974 -0.3237
23659SOL    HW275020   3.026   2.495   5.238 -1.3746  0.1542 -1.0387
23660SOL     OW75021   0.224   4.896   6.399 -0.1923  0.2829 -0.2829
23660SOL    HW175022   0.274   4.965   6.355  2.3742 -0.1480  1.6821
23660SOL    HW275023   0.186   4.939   6.475 -1.5479  0.2384 -0.9072
23661SOL     OW75024   8.409   7.352   4.677  0.0016 -0.2870  0.6427
23661SOL    HW175025   8.421   7.338   4.771  0.0533  1.1030  0.8606
23661SOL    HW275026   8.344   7.423   4.671  0.7010  0.2969 -0.3519
23662SOL     OW75027   9.369   6.559   4.552  0.6184  0.1204 -0.2432
23662SOL    HW175028   9.290   6.511   4.528  2.0905 -1.6712 -1.7424
23662SOL    HW275029   9.395   6.605   4.472  1.2675  0.4542  0.1506
23663SOL     OW75030   7.519   3.600   3.907  0.0101 -0.2060  0.3794
23663SOL    HW175031   7.559   3.522   3.868  0.3811  0.7324 -1.2093
23663SOL    HW275032   7.580   3.671   3.887 -0.7939  0.6599  0.9208
23664SOL     OW75033   0.047   5.386   0.220  0.2080 -0.6489 -0.0130
23664SOL    HW175034  -0.004   5.317   0.261 -0.5491  0.7860  1.6290
23664SOL    HW275035   0.027   5.380   0.127 -1.4107 -1.3938  0.3464
23665SOL     OW75036   2.926   4.753  10.201 -0.8245  0.2421  0.1984
23665SOL    HW175037   2.875   4.712  10.270 -1.2057  0.3227 -0.0344
23665SOL    HW275038   2.965   4.831  10.242  0.4689 -0.7032  0.8356
23666SOL     OW75039   0.570   7.465   7.598 -0.5002 -0.0432 -0.2542
23666SOL    HW175040   0.665   7.460   7.592 -0.4922  0.7583 -0.7818
23666SOL    HW275041   0.543   7.514   7.521 -1.3514 -0.3477 -0.1580
23667SOL     OW75042   7.500   3.779   0.081  0.4318  0.0522  0.5721
23667SOL    HW175043   7.507   3.778  -0.014  1.0231 -1.5962  0.6023
23667SOL    HW275044   7.508   3.687   0.107 -1.1117  0.2923  2.1253
23668SOL     OW75045   1.834   0.659   7.125  0.3408 -0.1953  0.3042
23668SOL    HW175046   1.871   0.740   7.159  0.5516  0.0215 -0.4377
23668SOL    HW275047   1.753   0.646   7.176 -1.1941  1.9507 -1.4227
23669SOL     OW75048   8.535   6.393   1.849  0.3642  0.0474 -0.5335
23669SOL    HW175049   8.521   6.410   1.755  0.1156 -0.8439 -0.6767
23669SOL    HW275050   8.494   6.467   1.893  1.9112  1.3196 -1.1575
23670SOL     OW75051   6.551   2.592   9.675  0.4864 -0.0690 -0.2502
23670SOL    HW175052   6.529   2.681   9.646  2.0198  0.3275 -0.2695
23670SOL    HW275053   6.531   2.592   9.769 -0.1983  0.0560 -0.3897
23671SOL     OW75054   7.430   6.743   9.519  0.0125  0.1034  0.2189
23671SOL    HW175055   7.461   6.816   9.466 -1.3883 -0.5373 -1.6084
23671SOL    HW275056   7.509   6.706   9.558  1.1028  0.7817 -1.2348
23672SOL     OW75057   4.243   4.662  10.248  0.0903  0.9185 -0.0561
23672SOL    HW175058   4.222   4.680  10.340  4.1791  1.5805  0.9685
23672SOL    HW275059   4.232   4.567  10.239  0.9308  0.6309  1.5882
23673SOL     OW75060   0.479   2.032   7.401  0.5850 -0.1156  0.0959
23673SOL    HW175061   0.409   2.096   7.413 -0.6040 -0.7375 -2.6276
23673SOL    HW275062   0.444   1.970   7.337  2.7959 -1.7982  0.3729
23674SOL     OW75063   7.864   9.180   3.316 -0.2235  0.0394 -0.6189
23674SOL    HW175064   7.774   9.179   3.284 -0.2004  0.4968 -0.7004
23674SOL    HW275065   7.916   9.151   3.241 -0.3172 -0.4575 -0.5016
23675SOL     OW75066   8.557   6.461  10.284  0.0451  0.4205  0.2192
23675SOL    HW175067   8.569   6.407  10.361 -0.9162 -0.0219  0.0712
23675SOL    HW275068   8.632   6.521  10.285  0.8385 -0.5506  0.6670
23676SOL     OW75069   6.803   1.613   6.149 -0.1704  0.3708 -0.3967
23676SOL    HW175070   6.881   1.644   6.103  0.0341  0.0724 -0.2547
23676SOL    HW275071   6.784   1.528   6.109 -0.0405  0.1465  0.0082
23677SOL     OW75072   2.698   9.855   9.620  0.0560  0.7779  0.4939
23677SOL    HW175073   2.780   9.807   9.609  0.3441  1.0641  1.3133
23677SOL    HW275074   2.723   9.947   9.616 -0.1577  0.8714  1.1436
23678SOL     OW75075   9.081   5.086   6.496 -0.2452  0.2388  0.0441
23678SOL    HW175076   9.054   5.077   6.588  0.3308  1.7238  0.3997
23678SOL    HW275077   9.009   5.134   6.455  0.0791  0.7260  0.0417
23679SOL     OW75078   2.378   9.774   4.573  0.0810 -0.0372  0.4583
23679SOL    HW175079   2.420   9.860   4.573  0.0145  0.0227 -1.2274
23679SOL    HW275080   2.438   9.718   4.524  0.5522 -1.2078  2.2769
23680SOL     OW75081   5.656   3.160   8.178  0.2311  0.5252  0.2778
23680SOL    HW175082   5.595   3.223   8.216 -1.6028 -0.3484 -1.0210
23680SOL    HW275083   5.635   3.077   8.222 -1.1665 -0.2654 -1.7140
23681SOL     OW75084   4.934   6.168   0.818  0.0215  0.5066 -0.2136
23681SOL    HW175085   4.929   6.108   0.893 -0.3262 -1.3760 -1.6683
23681SOL    HW275086   4.843   6.191   0.801 -0.1124 -0.6595 -1.2289
23682SOL     OW75087   6.029   8.561   1.294 -0.1837  0.0283 -0.8861
23682SOL    HW175088   6.006   8.583   1.204 -0.5423 -2.1381 -1.3965
23682SOL    HW275089   6.117   8.524   1.287 -0.2173 -0.1592 -0.3486
23683SOL     OW75090   9.616   2.397   6.858 -0.2615 -0.2925  0.1472
23683SOL    HW175091   9.538   2.359   6.818  0.3567 -0.4284 -0.9969
23683SOL    HW275092   9.671   2.421   6.783  0.8044 -0.2393  0.9269
23684SOL     OW75093   4.429   5.849   2.234  0.2206  0.3076  0.5100
23684SOL    HW175094   4.441   5.851   2.139 -0.3201  1.2258  0.4468
23684SOL    HW275095   4.338   5.821   2.246  0.3748 -0.0835  0.7633
23685SOL     OW75096   3.421  10.288   3.462  0.2324 -0.3243 -0.0698
23685SOL    HW175097   3.477  10.224   3.417  0.6957  1.5653 -2.3994
23685SOL    HW275098   3.482  10.356   3.490 -0.5372  0.3227  0.0430
23686SOL     OW75099   7.047   3.773   4.620 -0.5407 -0.3934  0.1076
23686SOL    HW175100   7.068   3.839   4.685 -1.7741 -0.0596  0.1950
23686SOL    HW275101   6.972   3.810   4.572  1.1600 -0.0013 -2.4205
23687SOL     OW75102   0.129   3.119   0.675 -0.1229  0.1938 -0.2872
23687SOL    HW175103   0.139   3.204   0.633 -4.0890  0.1956 -1.6236
23687SOL    HW275104   0.106   3.139   0.766  1.9177  0.3413  0.2625
23688SOL     OW75105   6.805   8.544   7.404  0.5442 -0.0308  0.4177
23688SOL    HW175106   6.808   8.632   7.368  0.6908  0.3964  1.4380
23688SOL    HW275107   6.727   8.543   7.460  0.7600 -0.4299  0.7185
23689SOL     OW75108   3.831   5.903   2.806  0.6778  0.3358 -0.0066
23689SOL    HW175109   3.811   5.953   2.726 -0.4380  0.7130  0.4796
23689SOL    HW275110   3.770   5.939   2.871  0.9440 -0.6011  0.7686
23690SOL     OW75111   7.193   8.084   8.674 -0.2694 -0.1973 -0.3670
23690SOL    HW175112   7.231   7.996   8.670  0.4113  0.0953 -0.3595
23690SOL    HW275113   7.170   8.104   8.584  0.8680  0.1766 -0.5866
23691SOL     OW75114   0.580   8.715   3.656  0.1037 -0.1511  0.4906
23691SOL    HW175115   0.622   8.793   3.621  0.2446 -0.8520 -1.0080
23691SOL    HW275116   0.643   8.645   3.642 -0.7402 -0.8554  0.0883
23692SOL     OW75117   4.238   9.932   7.223  0.2894  0.3756 -0.4780
23692SOL    HW175118   4.160   9.879   7.240 -0.4604  1.7431  0.5579
23692SOL    HW275119   4.312   9.876   7.248 -0.3940 -0.6874 -0.7976
23693SOL     OW75120   8.078   4.861   8.572 -0.1832  0.4047  0.5535
23693SOL    HW175121   8.141   4.872   8.644  0.6179  0.0298 -0.0729
23693SOL    HW275122   8.132   4.861   8.493 -1.1418  1.7786 -0.1319
23694SOL     OW75123   1.155   7.475   2.697 -0.2575  0.1607 -0.6697
23694SOL    HW175124   1.183   7.461   2.788  1.5108 -2.6805 -1.5421
23694SOL    HW275125   1.070   7.431   2.692  0.0493 -0.4538 -0.5879
23695SOL     OW75126   4.306   5.856   8.574 -0.1222  0.1419 -0.4088
23695SOL    HW175127   4.279   5.918   8.506 -0.3745 -0.4908 -0.8925
23695SOL    HW275128   4.233   5.857   8.637  1.3472  2.9821  1.4935
23696SOL     OW75129   8.568   3.204   4.146 -0.6488 -0.5732  0.7611
23696SOL    HW175130   8.655   3.202   4.187 -0.1755 -2.4116 -0.1924
23696SOL    HW275131   8.583   3.244   4.060 -1.0779  0.6172  1.2311
23697SOL     OW75132   9.856   2.328   1.258  0.4651  0.5510 -0.1371
23697SOL    HW175133   9.882   2.249   1.305 -0.4521 -0.2760 -0.9596
23697SOL    HW275134   9.903   2.323   1.175  0.8314  1.1663  0.0260
23698SOL     OW75135   5.048   9.524   9.754  0.2579  0.3255  0.0011
23698SOL    HW175136   5.062   9.488   9.667 -0.3390  0.1385 -0.0194
23698SOL    HW275137   5.135   9.522   9.795  0.6933  1.1227 -0.8510
23699SOL     OW75138   1.483   6.874   4.075  0.5183 -0.2520  0.2711
23699SOL    HW175139   1.421   6.825   4.021  0.1116  0.4107  0.1267
23699SOL    HW275140   1.430   6.911   4.145  0.9994 -0.8809  0.9850
23700SOL     OW75141   3.112   6.884  10.253  0.5506 -0.0406 -0.7237
23700SOL    HW175142   3.155   6.806  10.219  3.3758  0.1909  1.8877
23700SOL    HW275143   3.057   6.852  10.324  0.5866  0.1849 -0.5925
23701SOL     OW75144   6.067   0.695   5.281 -0.3233 -0.2878  0.1924
23701SOL    HW175145   6.134   0.755   5.313 -1.0983 -0.4495  2.2677
23701SOL    HW275146   6.116   0.621   5.246  0.6066 -0.3519  1.5674
23702SOL     OW75147   3.626   7.235   4.158  0.2847 -0.1729 -0.0339
23702SOL    HW175148   3.701   7.268   4.108  1.1084 -1.1338  0.5361
23702SOL    HW275149   3.634   7.277   4.244  0.5062 -0.7135  0.2141
23703SOL     OW75150   1.830   2.616   3.844 -0.1610 -0.8838  0.3320
23703SOL    HW175151   1.767   2.562   3.892 -0.5435 -2.3404 -1.7097
23703SOL    HW275152   1.814   2.596   3.752  1.1811  1.1084 -0.3996
23704SOL     OW75153  10.108   6.049   0.962 -0.1282  0.1588 -0.4160
23704SOL    HW175154  10.027   6.017   1.002  0.8703 -1.2039  0.5857
23704SOL    HW275155  10.145   6.108   1.028  0.4075 -0.3675 -0.2318
23705SOL     OW75156   8.591   2.410   5.031 -0.4269  0.5405  0.3584
23705SOL    HW175157   8.651   2.398   5.105  0.5030  2.2324 -0.0684
23705SOL    HW275158   8.533   2.482   5.058 -0.4796  0.7544 -0.2971
23706SOL     OW75159   2.475   2.199   4.567 -0.3534  0.2951  0.0703
23706SOL    HW175160   2.477   2.113   4.525 -1.9535  1.1235 -1.8374
23706SOL    HW275161   2.529   2.255   4.511  0.7400  0.5681  1.3363
23707SOL     OW75162   2.245   1.850   2.186 -0.7960  0.4963 -0.3048
23707SOL    HW175163   2.235   1.755   2.180  0.5313  0.3935 -1.8114
23707SOL    HW275164   2.281   1.875   2.101 -1.7764  2.4597 -0.2028
23708SOL     OW75165   0.007   4.076   9.414  0.3647  0.8017 -0.1639
23708SOL    HW175166   0.070   4.005   9.403  0.8460  1.0754  0.7152
23708SOL    HW275167  -0.024   4.095   9.325  0.3583 -0.3841 -0.4208
23709SOL     OW75168   7.160   8.899   8.117 -0.3834  0.1361 -0.5217
23709SOL    HW175169   7.255   8.906   8.132 -0.6819  1.3377  1.0409
23709SOL    HW275170   7.151   8.895   8.021  1.1649  1.4993 -0.7660
23710SOL     OW75171   7.193  10.281   3.051  0.0192 -0.1975 -1.0238
23710SOL    HW175172   7.248  10.347   3.093 -0.2428  0.3304 -1.4958
23710SOL    HW275173   7.132  10.253   3.119  0.5934 -0.4821 -0.6150
23711SOL     OW75174   8.519   4.012   6.294 -0.2848 -0.4627  0.1615
23711SOL    HW175175   8.598   4.011   6.349 -1.2788 -0.3002  1.6325
23711SOL    HW275176   8.540   3.952   6.222  1.1723 -0.4454  0.5339
23712SOL     OW75177   3.995   1.042   9.939  0.1507  0.1425 -0.0590
23712SOL    HW175178   3.905   1.009   9.936 -0.2496  1.1520  0.2455
23712SOL    HW275179   4.042   0.991   9.873 -0.3080 -1.3527  0.7312
23713SOL     OW75180   0.417   9.751   8.343 -0.4399  0.4769  0.0439
23713SOL    HW175181   0.462   9.834   8.359  2.0755 -0.8258  0.3438
23713SOL    HW275182   0.443   9.696   8.417 -0.4486 -1.1584 -1.1270
23714SOL     OW75183   5.047   5.923   0.624 -0.2840  0.6528 -0.4298
23714SOL    HW175184   5.072   5.893   0.711  1.1643  1.7455 -0.4451
23714SOL    HW275185   4.954   5.902   0.618 -0.3382  0.2586  1.2509
23715SOL     OW75186   8.832   9.609   6.356 -0.1606 -0.2418 -0.2505
23715SOL    HW175187   8.920   9.580   6.379 -0.2305 -0.2024  0.0771
23715SOL    HW275188   8.839   9.704   6.347  0.1863 -0.3871 -1.8443
23716SOL     OW75189   3.554   7.720   1.326 -0.0086 -1.1582 -0.4217
23716SOL    HW175190   3.610   7.790   1.358 -0.0766 -1.3409  0.1073
23716SOL    HW275191   3.485   7.712   1.392  0.7802 -2.6790  0.2606
23717SOL     OW75192   7.593   5.255   2.611  0.2610 -0.2543 -0.5725
23717SOL    HW175193   7.681   5.219   2.600 -0.3901 -2.3834  0.6831
23717SOL    HW275194   7.583   5.266   2.706  0.2430  3.0018 -0.8309
23718SOL     OW75195   7.169   2.317   9.128  0.4239 -0.3310 -1.1167
23718SOL    HW175196   7.211   2.235   9.103  0.3856 -0.0857 -2.0207
23718SOL    HW275197   7.138   2.355   9.046 -1.6460 -0.5381 -0.5042
23719SOL     OW75198   8.487   3.568   5.765  0.0439 -0.2156 -0.1008
23719SOL    HW175199   8.475   3.659   5.740  0.2011 -0.3852 -0.8131
23719SOL    HW275200   8.475   3.567   5.860 -1.8664  0.2221 -0.3109
23720SOL     OW75201   9.149   1.773   6.457 -0.3210 -0.1960  0.0425
23720SOL    HW175202   9.157   1.848   6.515 -0.3121  0.5966 -0.9394
23720SOL    HW275203   9.173   1.698   6.510 -0.2757  0.5045  1.0375
23721SOL     OW75204   2.155   7.572   8.827  0.0352  0.3132 -0.1997
23721SOL    HW175205   2.105   7.651   8.805 -0.7074 -0.3171 -0.8480
23721SOL    HW275206   2.236   7.580   8.776  1.0822  1.7979  1.5749
23722SOL     OW75207   1.915   3.771   6.197  1.2411  0.5274  0.1617
23722SOL    HW175208   1.988   3.816   6.155  0.5323  1.0352 -0.5765
23722SOL    HW275209   1.855   3.842   6.222  0.7891  0.0961  0.3252
23723SOL     OW75210   6.197   1.756   8.364  0.2226  0.0969 -0.4601
23723SOL    HW175211   6.141   1.707   8.424 -0.3033 -0.6879 -1.5435
23723SOL    HW275212   6.286   1.734   8.391 -0.0037 -0.7923 -0.3777
23724SOL     OW75213   8.582   7.220   9.240 -0.3304 -0.0799 -0.0438
23724SOL    HW175214   8.663   7.232   9.190  0.7387  0.2863  1.6644
23724SOL    HW275215   8.513   7.251   9.182  0.7943  0.0009 -1.3984
23725SOL     OW75216   5.680   9.342   8.819  0.4234 -0.2274 -0.2462
23725SOL    HW175217   5.715   9.425   8.851  4.4612 -1.7396 -0.1578
23725SOL    HW275218   5.630   9.365   8.741 -0.0230  2.4054  0.7201
23726SOL     OW75219   6.599   7.480   9.161  0.0984  0.9724 -0.2176
23726SOL    HW175220   6.603   7.472   9.066 -1.3615  1.0807 -0.3073
23726SOL    HW275221   6.507   7.495   9.180 -0.0410 -1.3861  1.4079
23727SOL     OW75222   8.928   4.544   3.846  0.1121  0.2342 -0.2760
23727SOL    HW175223   9.003   4.603   3.851  1.4867 -1.4849  0.1026
23727SOL    HW275224   8.947   4.486   3.772  0.2985 -1.6704  1.1827
23728SOL     OW75225   0.968   3.354   2.858 -0.4206  0.2118 -0.2552
23728SOL    HW175226   0.908   3.326   2.927  1.4735 -0.6370  1.1663
23728SOL    HW275227   0.914   3.361   2.780 -2.5765  0.6841  1.1796
23729SOL     OW75228   3.947   6.749   3.037 -0.1083 -0.2434 -0.1587
23729SOL    HW175229   4.033   6.723   3.005  0.2806  1.3388 -0.4631
23729SOL    HW275230   3.932   6.692   3.113  1.3403 -0.3507  0.0829
23730SOL     OW75231   3.879   7.950   9.231 -0.0993  0.4246  0.1664
23730SOL    HW175232   3.966   7.961   9.193  0.5527 -1.3734  1.0280
23730SOL    HW275233   3.883   7.996   9.315 -0.2181  0.9227 -0.0962
23731SOL     OW75234   5.999   2.816   3.300 -0.1880  0.1511 -0.4743
23731SOL    HW175235   6.065   2.847   3.237 -0.8339  2.5727 -0.0657
23731SOL    HW275236   6.044   2.818   3.384  0.3136 -1.9479 -0.6316
23732SOL     OW75237   0.109   4.124   3.254  0.0519 -0.4348 -0.3388
23732SOL    HW175238   0.151   4.210   3.262  1.2175 -0.8571 -1.4204
23732SOL    HW275239   0.057   4.131   3.174 -0.3464 -0.5350 -0.0860
23733SOL     OW75240   0.039   7.322   1.800 -0.4426 -0.4369 -0.1065
23733SOL    HW175241  -0.016   7.258   1.756 -0.9838 -0.0966  0.0560
23733SOL    HW275242   0.019   7.311   1.893 -0.7174  0.1173 -0.0929
23734SOL     OW75243   9.880   1.178   2.151 -0.2864 -0.1108  0.2061
23734SOL    HW175244   9.849   1.129   2.226 -2.9423  2.3598  0.9074
23734SOL    HW275245   9.958   1.224   2.182  0.9476 -2.0909  0.1701
23735SOL     OW75246   5.287   7.748   3.770  0.2079  0.0828 -0.7027
23735SOL    HW175247   5.219   7.708   3.716  0.5457 -0.4200 -0.7567
23735SOL    HW275248   5.239   7.793   3.840 -0.1521 -0.7617 -0.4016
23736SOL     OW75249   7.666   4.869   8.115  0.0123  0.7639  0.1922
23736SOL    HW175250   7.651   4.797   8.176 -0.8018  1.7582  1.2304
23736SOL    HW275251   7.729   4.926   8.161 -2.2833  2.6746  1.2263
23737SOL     OW75252   0.943   1.935   3.438  0.6657  0.5771 -0.3268
23737SOL    HW175253   0.912   1.912   3.350  3.1113 -0.2931 -1.0308
23737SOL    HW275254   0.904   1.868   3.495  0.5525  0.0343 -1.0354
23738SOL     OW75255   9.366   3.470   1.647 -0.9660  0.1709 -0.2155
23738SOL    HW175256   9.361   3.401   1.712  0.6610  0.6568  0.4945
23738SOL    HW275257   9.276   3.486   1.620 -1.6610 -0.2094  1.7576
23739SOL     OW75258   0.003   8.666   2.790 -0.4574 -0.2132 -0.1184
23739SOL    HW175259   0.093   8.690   2.816 -0.3376 -0.8346  0.0512
23739SOL    HW275260   0.009   8.649   2.696 -0.1350 -1.3851  0.0921
23740SOL     OW75261   8.803   8.532   7.416 -0.2726 -0.0815  0.3776
23740SOL    HW175262   8.714   8.501   7.402 -0.1007 -2.2812  3.3239
23740SOL    HW275263   8.854   8.453   7.434  1.9565  1.2676  0.4301
23741SOL     OW75264   2.987   0.204   2.573 -0.3840  0.3378 -0.1096
23741SOL    HW175265   2.958   0.155   2.496 -0.8330  1.4600 -0.6779
23741SOL    HW275266   2.913   0.200   2.633 -0.2830  0.0165 -0.0058
23742SOL     OW75267   9.380   6.355   0.065  0.0015 -0.8727  0.7794
23742SOL    HW175268   9.295   6.373   0.104 -0.8823 -0.6000 -1.1397
23742SOL    HW275269   9.443   6.393   0.126 -1.3266  0.2076  1.5385
23743SOL     OW75270   5.991   9.682   6.977  0.4573  0.9954 -0.3148
23743SOL    HW175271   5.973   9.714   6.889 -0.0419 -0.1466 -0.6468
23743SOL    HW275272   5.981   9.759   7.033  1.3428  1.8746 -1.2992
23744SOL     OW75273   2.030   4.241   4.176 -1.1890 -0.2812 -0.0563
23744SOL    HW175274   2.014   4.189   4.255 -0.8472 -0.2106  0.0651
23744SOL    HW275275   2.013   4.331   4.203  0.4047 -0.0782  0.3855
23745SOL     OW75276   2.097   8.060   9.955  0.3924  0.7390  0.7053
23745SOL    HW175277   2.022   8.004   9.973  0.5788 -0.0149 -0.6998
23745SOL    HW275278   2.173   8.005   9.971  0.5909  0.7573 -0.1306
23746SOL     OW75279   3.293   5.602   9.394  0.3417 -0.7295  0.5234
23746SOL    HW175280   3.201   5.577   9.404  0.6239 -1.3080  1.9478
23746SOL    HW275281   3.338   5.554   9.463  1.5635  0.4000  0.5417
23747SOL     OW75282   3.293   7.631   2.738  0.5011  0.0263 -0.4772
23747SOL    HW175283   3.238   7.682   2.679  1.2648  2.4154  0.7381
23747SOL    HW275284   3.378   7.629   2.695  0.0520 -1.8127 -1.3468
23748SOL     OW75285   3.381   5.960   4.512  0.6502  1.0374  0.0921
23748SOL    HW175286   3.451   5.990   4.570  0.1739  0.7913  0.8042
23748SOL    HW275287   3.311   5.933   4.571  0.2751  0.4911 -0.5934
23749SOL     OW75288   0.928   0.301   5.293 -0.0277 -0.1086  0.1716
23749SOL    HW175289   1.006   0.328   5.342  0.8116 -0.2938 -1.0305
23749SOL    HW275290   0.934   0.205   5.290  0.2786 -0.0662 -0.8336
23750SOL     OW75291   2.566   9.892   0.320 -0.3731 -0.8428 -0.6021
23750SOL    HW175292   2.650   9.860   0.355  1.1537  2.9062 -0.3707
23750SOL    HW275293   2.585   9.914   0.229 -1.4778 -1.0814 -0.9054
23751SOL     OW75294   1.317   5.138   1.307 -0.5947  0.2572  0.7392
23751SOL    HW175295   1.399   5.165   1.349  0.7572 -0.1259 -1.4589
23751SOL    HW275296   1.248   5.172   1.364  1.0569 -0.6029  3.4329
23752SOL     OW75297   4.597   4.531   2.519  0.3065 -0.0584 -0.4860
23752SOL    HW175298   4.661   4.564   2.582  0.5898  0.2931 -0.9495
23752SOL    HW275299   4.565   4.610   2.475  1.4769 -0.4347 -2.0856
23753SOL     OW75300   4.613   9.707   9.845  0.4787 -0.7304 -0.3061
23753SOL    HW175301   4.628   9.789   9.798  0.4674 -1.0404 -0.8562
23753SOL    HW275302   4.522   9.712   9.874  0.7532 -0.1307  0.5046
23754SOL     OW75303   2.194   9.815   9.137 -0.0821 -0.1835  0.1814
23754SOL    HW175304   2.224   9.898   9.099 -1.9696 -0.4340 -2.0331
23754SOL    HW275305   2.251   9.749   9.098  0.2608 -0.1257  0.5694
23755SOL     OW75306   2.884   1.950   2.365 -0.2511 -0.5318  0.3007
23755SOL    HW175307   2.960   2.007   2.377 -0.2714 -0.5835  0.7026
23755SOL    HW275308   2.905   1.871   2.415 -1.4301  0.2779  2.1819
23756SOL     OW75309   2.814   1.505   2.673 -0.1710 -0.4144  0.2210
23756SOL    HW175310   2.804   1.512   2.578 -0.5459 -1.2957  0.1859
23756SOL    HW275311   2.727   1.484   2.705 -0.4634  1.7572  0.9829
23757SOL     OW75312   5.774   6.694   2.650  0.4496 -0.0120 -0.3999
23757SOL    HW175313   5.860   6.702   2.610  1.4921 -1.5219  1.4120
23757SOL    HW275314   5.774   6.757   2.721  0.6944 -1.1096  0.6035
23758SOL     OW75315   0.086   9.710   2.822 -0.3081  0.3720  0.0969
23758SOL    HW175316   0.113   9.775   2.758  0.1448  2.5712  2.3445
23758SOL    HW275317  -0.009   9.717   2.826 -0.3523  0.1040 -0.4230
23759SOL     OW75318   0.330   7.601   4.777  0.1147  0.0710  0.4374
23759SOL    HW175319   0.238   7.577   4.789  0.0735  0.0939  0.1755
23759SOL    HW275320   0.350   7.659   4.850 -0.2781  0.6387  0.0960
23760SOL     OW75321   0.242   6.635   6.392  0.6080  0.1766  0.2138
23760SOL    HW175322   0.185   6.668   6.323 -0.3292  0.1192  0.9521
23760SOL    HW275323   0.294   6.566   6.350 -0.4666 -0.3586 -0.2530
23761SOL     OW75324   5.367   1.736   0.158 -0.5530  0.2256  0.3002
23761SOL    HW175325   5.399   1.720   0.070 -0.4731  1.8999 -0.0128
23761SOL    HW275326   5.272   1.748   0.148 -1.2533 -3.5148  1.0557
23762SOL     OW75327   3.443   7.676   3.512  0.1220 -0.4627 -0.0769
23762SOL    HW175328   3.509   7.608   3.521  0.0819 -0.5021 -0.0799
23762SOL    HW275329   3.493   7.757   3.499  0.2401 -0.2047  1.6252
23763SOL     OW75330   2.869   5.613   1.250  0.5294  0.2883 -0.1647
23763SOL    HW175331   2.856   5.707   1.236  1.6328  0.9464  2.5819
23763SOL    HW275332   2.956   5.595   1.216  0.5347  0.3915 -0.2054
23764SOL     OW75333   4.136   9.789   9.685 -0.2418 -0.2589 -0.4287
23764SOL    HW175334   4.201   9.782   9.615 -0.6886  0.3036 -0.9123
23764SOL    HW275335   4.126   9.883   9.699 -0.5510 -0.3550  0.0207
23765SOL     OW75336   1.588   5.934   2.145 -0.3657  0.1911  0.1159
23765SOL    HW175337   1.584   6.016   2.096 -0.8594  0.5539  0.7541
23765SOL    HW275338   1.514   5.883   2.113 -0.5966  0.3646  0.3760
23766SOL     OW75339   6.162   3.707  10.038 -0.5283 -0.2209 -0.0172
23766SOL    HW175340   6.113   3.633  10.002  0.5542 -0.9037 -0.0990
23766SOL    HW275341   6.253   3.678  10.040  0.6661  2.4134 -3.8131
23767SOL     OW75342   5.134   0.794   9.813  0.4269 -0.5394 -0.1967
23767SOL    HW175343   5.178   0.857   9.870  1.2139  1.9027 -3.2447
23767SOL    HW275344   5.041   0.815   9.822  0.5670  0.0399 -0.0877
23768SOL     OW75345   8.512   5.632   3.333  0.4553 -0.5998  0.0252
23768SOL    HW175346   8.590   5.608   3.382  1.4873 -0.3277 -1.4152
23768SOL    HW275347   8.463   5.550   3.324  1.2649 -1.0582 -0.2310
23769SOL     OW75348   7.590   0.550   9.159  0.4432  0.0754 -0.0072
23769SOL    HW175349   7.648   0.606   9.108  0.1321  0.6697  0.2877
23769SOL    HW275350   7.644   0.474   9.181  0.7876  0.1412 -0.6222
23770SOL     OW75351   0.195   4.128   0.317  0.1287 -0.4179 -0.0167
23770SOL    HW175352   0.139   4.059   0.281 -0.6893  0.0175  0.3896
23770SOL    HW275353   0.277   4.084   0.339 -0.2637 -1.1890 -0.0728
23771SOL     OW75354   5.421  10.194   0.475  0.0392  0.2790  0.2753
23771SOL    HW175355   5.404  10.101   0.494 -1.4607  0.7253  1.2620
23771SOL    HW275356   5.390  10.206   0.385 -1.1695  0.1480  0.6592
23772SOL     OW75357   1.480   7.266   0.970  0.1453  0.0484  0.3636
23772SOL    HW175358   1.536   7.274   0.893  0.0563  2.4631  0.4815
23772SOL    HW275359   1.486   7.351   1.013 -0.8605 -0.8034  2.3183
23773SOL     OW75360   8.713   4.814   3.141  0.6843 -0.4091 -0.1649
23773SOL    HW175361   8.700   4.773   3.226 -0.8137 -0.2687 -0.3021
23773SOL    HW275362   8.700   4.908   3.157 -2.5284 -0.5965 -0.9939
23774SOL     OW75363   7.317   8.673   0.039  0.1967 -0.0360  0.5890
23774SOL    HW175364   7.235   8.717   0.060  0.7894  1.6419 -0.3353
23774SOL    HW275365   7.292   8.601  -0.019 -0.6533  0.3604  0.4452
23775SOL     OW75366   4.383   9.546   5.570 -0.0879  0.2072  0.5182
23775SOL    HW175367   4.410   9.638   5.567 -1.6868  0.7735  1.7155
23775SOL    HW275368   4.373   9.527   5.664 -0.3185 -1.0181  0.2641
23776SOL     OW75369   1.755   7.720   0.400 -0.4886  0.2540 -0.0777
23776SOL    HW175370   1.837   7.670   0.390 -0.1541  0.9086 -0.6450
23776SOL    HW275371   1.700   7.664   0.455 -0.1557 -0.7868 -0.7654
23777SOL     OW75372   7.362   7.203   5.684 -0.1895 -0.2037  0.2804
23777SOL    HW175373   7.291   7.143   5.710 -0.1706 -0.5824 -0.4993
23777SOL    HW275374   7.331   7.242   5.602  0.1736  0.2035  0.3355
23778SOL     OW75375   7.872   0.991   3.347  0.0027  0.1879  0.0797
23778SOL    HW175376   7.956   0.984   3.391 -0.0553 -1.9700 -0.0704
23778SOL    HW275377   7.810   1.013   3.417  0.6419  1.8401  0.1816
23779SOL     OW75378   4.956   3.757   5.677 -0.3188  0.3606  0.0536
23779SOL    HW175379   4.941   3.723   5.766  2.1413  0.7989  0.6938
23779SOL    HW275380   4.987   3.847   5.691  1.4449 -0.0277 -1.1459
23780SOL     OW75381   1.343   4.633   8.981 -0.0898 -0.2665  0.6469
23780SOL    HW175382   1.376   4.670   8.899  0.7063 -1.2340  0.5005
23780SOL    HW275383   1.369   4.696   9.048 -0.9762  0.6601  0.1443
23781SOL     OW75384   8.803   2.043   8.824  0.1364 -0.6057 -0.5258
23781SOL    HW175385   8.770   2.111   8.883  1.3032 -0.7471  0.3110
23781SOL    HW275386   8.745   1.968   8.839  0.5130 -0.6889  0.5664
23782SOL     OW75387   0.511   6.853   2.769 -0.2629 -0.0468 -0.6475
23782SOL    HW175388   0.481   6.778   2.820  0.9770 -0.9784 -1.2228
23782SOL    HW275389   0.574   6.816   2.707  0.7212  1.5512 -0.6472
23783SOL     OW75390   4.808   5.024   7.243  0.1724 -0.3440 -0.1477
23783SOL    HW175391   4.787   5.112   7.275 -0.6287 -0.9854  1.1919
23783SOL    HW275392   4.726   4.975   7.251  1.0514 -1.7172  0.9915
23784SOL     OW75393   2.311   6.334   2.484 -0.2420  0.2109  0.3765
23784SOL    HW175394   2.400   6.304   2.504 -0.4239 -0.5547  0.0652
23784SOL    HW275395   2.260   6.314   2.563 -0.9483 -2.7631 -0.7066
23785SOL     OW75396   7.295   7.560   4.771 -0.3676 -0.2828 -0.0245
23785SOL    HW175397   7.364   7.575   4.836  0.2390 -1.4515 -0.3788
23785SOL    HW275398   7.329   7.597   4.690  0.5339 -2.2089 -0.5669
23786SOL     OW75399   7.494   8.428   1.805 -0.9582  0.3415 -0.5897
23786SOL    HW175400   7.515   8.404   1.715  1.3610  2.4420 -0.7172
23786SOL    HW275401   7.489   8.523   1.804 -1.3764  0.3937  1.4222
23787SOL     OW75402   2.287   8.622   2.213  0.3389 -0.4494  0.1110
23787SOL    HW175403   2.288   8.702   2.159  1.1557 -0.3344  0.2861
23787SOL    HW275404   2.237   8.559   2.161 -0.4966  0.2388  0.0626
23788SOL     OW75405   8.601   5.560   7.845  0.6943 -0.0150 -0.1653
23788SOL    HW175406   8.512   5.532   7.822  0.6711 -0.4760  0.4779
23788SOL    HW275407   8.606   5.550   7.940  0.7752  1.9253  0.0755
23789SOL     OW75408   8.739   0.377   2.617 -0.4097  0.0274 -0.1271
23789SOL    HW175409   8.809   0.314   2.595  0.2008  0.1711  1.3022
23789SOL    HW275410   8.678   0.370   2.544  0.0802 -1.6006 -0.4391
23790SOL     OW75411  10.131   3.645   0.446  0.0249  0.3657 -0.1581
23790SOL    HW175412  10.089   3.562   0.465  0.7942  0.1256  0.5809
23790SOL    HW275413  10.080   3.710   0.494 -0.8245  0.3853 -1.0713
23791SOL     OW75414   6.588   8.032   5.647  0.5005 -0.1952  0.5303
23791SOL    HW175415   6.593   7.977   5.569 -0.4340 -3.3122  2.4889
23791SOL    HW275416   6.619   7.975   5.718  1.4876  2.5492  2.4510
23792SOL     OW75417   5.258   9.514   9.943  0.3615  0.2066  0.4040
23792SOL    HW175418   5.242   9.442  10.004  2.7440  0.2243  1.1654
23792SOL    HW275419   5.256   9.593   9.998 -0.4366  0.5586 -0.1083
23793SOL     OW75420   0.804   4.409   3.430 -0.1175 -0.1876 -0.4408
23793SOL    HW175421   0.802   4.419   3.525 -1.0747  0.1314 -0.4794
23793SOL    HW275422   0.773   4.320   3.415  0.4551 -0.3907 -0.4422
23794SOL     OW75423   4.223   2.610   8.382 -0.8194 -0.0696  0.6261
23794SOL    HW175424   4.315   2.597   8.406  0.1645  4.2189  0.0708
23794SOL    HW275425   4.180   2.631   8.464 -0.3966  1.6200  0.4456
23795SOL     OW75426   9.455   6.621   2.761  0.1090 -0.4192 -0.3813
23795SOL    HW175427   9.521   6.636   2.693 -1.2056 -1.0668 -1.8691
23795SOL    HW275428   9.435   6.528   2.755 -0.7943 -0.2750  0.1694
23796SOL     OW75429   8.933   4.732   4.838  0.2278  0.1578 -0.0376
23796SOL    HW175430   9.012   4.780   4.811  0.5128 -0.9100 -1.2144
23796SOL    HW275431   8.967   4.655   4.884 -0.0320 -1.0094 -1.7125
23797SOL     OW75432   5.526   0.205   8.600  0.1837 -0.1336  0.3768
23797SOL    HW175433   5.535   0.283   8.655 -0.9948 -1.3485  2.4268
23797SOL    HW275434   5.480   0.235   8.522 -0.2261  1.2230  1.1108
23798SOL     OW75435   1.841   9.226   6.343  0.5354  0.0990 -0.2196
23798SOL    HW175436   1.772   9.261   6.286  1.0304  0.3406 -0.6774
23798SOL    HW275437   1.798   9.155   6.391 -0.3245  0.9247  0.2811
23799SOL     OW75438   6.987   5.167   7.652  0.0087  0.1574 -0.5352
23799SOL    HW175439   6.963   5.075   7.656  2.0864 -0.4068  0.3284
23799SOL    HW275440   7.054   5.177   7.720  0.0912  2.2305 -0.8560
23800SOL     OW75441   8.121   3.692  10.025 -0.1086  0.6090 -0.1698
23800SOL    HW175442   8.203   3.689  10.074  0.7042 -2.1290 -1.4679
23800SOL    HW275443   8.063   3.632  10.071  0.7980 -2.3155 -2.5394
23801SOL     OW75444   3.732   3.288   1.863 -0.6662  0.3549 -0.0919
23801SOL    HW175445   3.812   3.280   1.915 -0.7673 -1.2878 -0.1385
23801SOL    HW275446   3.741   3.223   1.793 -2.7211 -1.0372  0.8405
23802SOL     OW75447   5.557   0.377   2.609  0.1790 -0.3021 -0.0794
23802SOL    HW175448   5.506   0.361   2.688 -0.2471  1.0247 -0.0520
23802SOL    HW275449   5.648   0.374   2.638  0.0077  1.5282  0.7931
23803SOL     OW75450   2.268   2.021   6.422 -0.5751  0.0564 -0.2112
23803SOL    HW175451   2.203   2.038   6.490  0.1903  0.4611  0.4479
23803SOL    HW275452   2.287   2.107   6.385  1.4567  0.3808  1.3889
23804SOL     OW75453   5.176   6.967   2.711  0.0568 -0.0350  0.1304
23804SOL    HW175454   5.212   6.891   2.666 -0.7048 -0.1648 -0.2667
23804SOL    HW275455   5.239   6.985   2.781  0.3537 -0.8998  0.0987
23805SOL     OW75456   2.293   6.095   6.305 -0.7700 -0.2270  0.1096
23805SOL    HW175457   2.228   6.034   6.340  2.0688 -3.3875  0.3824
23805SOL    HW275458   2.313   6.062   6.217 -0.1880  1.2067 -0.3305
23806SOL     OW75459   0.627   4.642   7.310 -0.2164  0.2885  0.5576
23806SOL    HW175460   0.639   4.550   7.286 -0.6300  0.3925 -0.0562
23806SOL    HW275461   0.541   4.645   7.351 -1.8614  1.0053 -2.6941
23807SOL     OW75462   9.090  10.135   1.416 -0.4241  0.2575  0.0354
23807SOL    HW175463   9.120  10.059   1.467 -1.2377  0.4397  0.8102
23807SOL    HW275464   9.015  10.168   1.464  0.1810  1.8399 -0.0357
23808SOL     OW75465   2.462   1.027   4.039  0.4670 -0.0238  0.1420
23808SOL    HW175466   2.530   1.075   4.086  1.8318 -2.1033  0.4177
23808SOL    HW275467   2.508   0.956   3.994 -1.6468 -2.9934  2.2392
23809SOL     OW75468   7.800   6.007   5.932  0.1303  0.1195  0.5850
23809SOL    HW175469   7.805   5.924   5.979 -0.9631 -0.2575  0.0817
23809SOL    HW275470   7.875   6.006   5.873 -0.2164 -0.8050  0.1414
23810SOL     OW75471   8.995   5.457   7.767  0.3331  0.3960  0.1122
23810SOL    HW175472   8.908   5.423   7.786  1.6775 -3.4011  0.4929
23810SOL    HW275473   9.003   5.449   7.671  0.8190 -1.0754  0.2457
23811SOL     OW75474   0.934   8.212   1.975 -0.4361 -0.1851  0.3604
23811SOL    HW175475   0.969   8.173   2.055 -0.6529  0.4602  0.7776
23811SOL    HW275476   1.011   8.247   1.930 -0.3709 -0.0745  0.5540
23812SOL     OW75477   9.780   4.644   5.690  0.3599  0.6172 -0.3566
23812SOL    HW175478   9.734   4.589   5.754  0.5851  0.4111 -0.3714
23812SOL    HW275479   9.713   4.668   5.626 -0.1204  1.6910  0.5086
23813SOL     OW75480   8.907   7.670   5.001  0.3718 -0.0426 -0.4210
23813SOL    HW175481   8.814   7.690   5.003  0.1565 -0.8766  2.3738
23813SOL    HW275482   8.911   7.574   4.992  0.8487 -0.2373  1.5164
23814SOL     OW75483   4.034   8.879   7.011 -0.0475 -0.2770  0.1266
23814SOL    HW175484   3.969   8.820   7.048 -0.1200 -1.2748 -1.4903
23814SOL    HW275485   4.022   8.871   6.916  1.6295  0.4338 -0.1836
23815SOL     OW75486   5.013   8.146   5.420  0.9593 -0.0623  0.3744
23815SOL    HW175487   4.933   8.103   5.447  0.0565  1.6799  0.6219
23815SOL    HW275488   5.075   8.131   5.492  1.1199 -1.9995 -0.1285
23816SOL     OW75489   0.129   8.651   4.714  0.4513  0.1115  0.3785
23816SOL    HW175490   0.218   8.639   4.749 -0.0400  1.7715  2.4466
23816SOL    HW275491   0.082   8.694   4.785 -1.7520  0.2032 -1.0562
23817SOL     OW75492   3.539   8.250   8.453 -0.2998 -0.0166  0.8113
23817SOL    HW175493   3.570   8.299   8.529  0.1390  0.3366  0.4121
23817SOL    HW275494   3.460   8.205   8.484 -0.6474  0.8518  1.2165
23818SOL     OW75495   5.497   2.484   2.066  0.0078 -0.2663  0.0472
23818SOL    HW175496   5.564   2.512   2.003  0.1604 -1.6334 -0.4278
23818SOL    HW275497   5.506   2.545   2.139 -0.9868  2.1910 -1.7071
23819SOL     OW75498   7.977   4.826   6.645 -0.0821  0.1794  0.4450
23819SOL    HW175499   8.063   4.783   6.648  0.4047  1.1592  0.9536
23819SOL    HW275500   7.940   4.800   6.560  0.6460 -0.3876  0.2911
23820SOL     OW75501   1.296   1.148   9.475 -0.2762  0.4379 -0.3765
23820SOL    HW175502   1.219   1.178   9.427 -0.6093 -0.4272 -0.3998
23820SOL    HW275503   1.264   1.131   9.563 -0.4657 -1.3028 -0.7404
23821SOL     OW75504   0.923   8.223   0.213 -0.0372  0.0023  0.1035
23821SOL    HW175505   0.903   8.306   0.172 -0.1768 -1.0452 -2.1151
23821SOL    HW275506   1.003   8.239   0.263  0.4759  1.2361 -1.0742
23822SOL     OW75507  10.217   0.950   9.889 -0.2483  0.2576 -0.0652
23822SOL    HW175508  10.303   0.941   9.929 -0.4173 -1.9677 -0.0501
23822SOL    HW275509  10.156   0.917   9.955 -0.6625 -2.1345 -1.5136
23823SOL     OW75510   4.936   6.326   9.074 -0.4344  0.5292 -0.4018
23823SOL    HW175511   4.887   6.246   9.092  0.9174  0.1972  2.5224
23823SOL    HW275512   5.007   6.299   9.017 -2.2394  0.5665 -2.8031
23824SOL     OW75513   0.971   5.935   1.402 -0.0570  0.0698  0.3759
23824SOL    HW175514   0.893   5.936   1.457 -0.4244 -0.9661 -0.1005
23824SOL    HW275515   1.042   5.957   1.462 -0.1634 -2.9543  1.8294
23825SOL     OW75516   5.167   6.527   6.020  0.2424 -0.4378 -0.1723
23825SOL    HW175517   5.239   6.521   5.956 -0.2622 -0.4120 -0.7498
23825SOL    HW275518   5.190   6.464   6.088  1.4334  0.4302  0.2782
23826SOL     OW75519   2.317   6.468   3.469 -0.1063  0.1910 -0.5344
23826SOL    HW175520   2.241   6.525   3.464 -0.5979 -0.4623 -0.6409
23826SOL    HW275521   2.284   6.388   3.511  1.0520  0.8018  1.7028
23827SOL     OW75522   0.529   7.160   3.182  0.1351  0.6068 -0.4405
23827SOL    HW175523   0.516   7.073   3.221  0.3296  1.7861  2.4585
23827SOL    HW275524   0.621   7.160   3.155  1.0699  0.8409  2.3722
23828SOL     OW75525   1.861   1.950   6.754 -0.1072 -0.6794 -0.4120
23828SOL    HW175526   1.826   1.890   6.689 -1.8162 -0.0670 -0.0987
23828SOL    HW275527   1.794   2.017   6.764  0.7500  0.0269  0.9323
23829SOL     OW75528   0.135   6.616   4.384 -0.6781  0.5458  0.4960
23829SOL    HW175529   0.041   6.618   4.401 -0.6301  0.2602  0.8079
23829SOL    HW275530   0.146   6.666   4.303 -1.0938  0.6045  0.4743
23830SOL     OW75531   9.183   1.162   5.680  0.3496 -0.3059  0.0496
23830SOL    HW175532   9.126   1.228   5.642 -0.5768 -0.7270  0.6800
23830SOL    HW275533   9.177   1.087   5.621  0.4045 -0.2865  0.0185
23831SOL     OW75534   0.859   9.806   5.514  0.8645 -0.1594  0.2583
23831SOL    HW175535   0.765   9.815   5.500  0.7324  0.4374  1.4136
23831SOL    HW275536   0.886   9.736   5.454 -0.1664  0.2008 -0.6405
23832SOL     OW75537   8.390   4.281   3.453  0.1488  0.3178 -0.0797
23832SOL    HW175538   8.360   4.208   3.507  2.6719 -0.5469  0.2932
23832SOL    HW275539   8.337   4.356   3.482  0.8975 -0.2591  3.1723
23833SOL     OW75540   8.083   9.073   7.257 -0.0018 -0.1710 -0.4521
23833SOL    HW175541   8.146   9.105   7.193 -0.2673  1.0431 -0.1240
23833SOL    HW275542   8.036   9.151   7.286 -0.0811 -0.7249  1.0092
23834SOL     OW75543   9.403   7.543  10.205  0.1487 -0.5601  0.4206
23834SOL    HW175544   9.317   7.549  10.162  0.3569  0.0056  0.0585
23834SOL    HW275545   9.395   7.469  10.265  0.5534 -2.9072 -2.2212
23835SOL     OW75546   7.309   4.568   7.064  0.3339 -0.4880  0.2103
23835SOL    HW175547   7.387   4.596   7.016 -0.8678  0.1142 -1.4582
23835SOL    HW275548   7.299   4.633   7.133 -0.1068  0.9021 -1.1218
23836SOL     OW75549   1.248   9.745   7.773 -0.2807 -0.0495 -0.6629
23836SOL    HW175550   1.228   9.684   7.844  0.2758 -0.3049 -0.7242
23836SOL    HW275551   1.181   9.814   7.782 -1.3299 -0.9972 -1.0150
23837SOL     OW75552   4.177   9.540   2.143 -0.1540  0.4247  0.1221
23837SOL    HW175553   4.208   9.451   2.159 -0.6985  0.2922  0.4636
23837SOL    HW275554   4.250   9.584   2.099  0.2019 -0.1203  0.1684
23838SOL     OW75555   8.733   3.243   6.658 -0.2009 -0.0895  0.7424
23838SOL    HW175556   8.688   3.325   6.679  0.6921  1.4457 -2.5756
23838SOL    HW275557   8.826   3.266   6.657  0.2644 -1.7681  1.9975
23839SOL     OW75558   6.523   5.844   4.698 -0.5954  0.3095  0.1586
23839SOL    HW175559   6.472   5.871   4.621 -2.0562 -1.7477  0.3130
23839SOL    HW275560   6.554   5.756   4.676  1.6332  0.9089  0.7183
23840SOL     OW75561   6.936   9.625   8.630 -0.2287 -0.2134  0.3033
23840SOL    HW175562   6.890   9.707   8.650 -0.1288 -0.4325  1.4620
23840SOL    HW275563   7.025   9.652   8.610 -0.3417  0.0156  0.1016
23841SOL     OW75564   0.050   0.486   0.190  0.1699 -0.1903 -0.3221
23841SOL    HW175565   0.022   0.532   0.111 -0.4716  0.1722  0.1030
23841SOL    HW275566   0.043   0.393   0.168  2.6903 -0.1502 -1.6130
23842SOL     OW75567   0.775   3.301   3.063 -0.0745 -0.3583 -0.3495
23842SOL    HW175568   0.759   3.208   3.049 -0.7577 -0.5901  1.7076
23842SOL    HW275569   0.687   3.339   3.073  0.1152  0.7562 -2.2369
23843SOL     OW75570   1.368   1.122   3.472  0.2614 -0.3685 -0.1894
23843SOL    HW175571   1.425   1.050   3.502 -0.3756 -0.6632  0.3462
23843SOL    HW275572   1.379   1.189   3.539 -1.7736 -1.3367  1.2140
23844SOL     OW75573   6.088   2.852   9.204  0.1018 -0.0279  0.1281
23844SOL    HW175574   6.035   2.784   9.163  0.1216 -0.0403  0.1227
23844SOL    HW275575   6.098   2.824   9.295 -1.3933  0.8736  0.5963
23845SOL     OW75576   6.154   5.005   4.638  0.0015  0.3701 -0.5049
23845SOL    HW175577   6.173   5.050   4.720  1.5179  0.4448 -0.8586
23845SOL    HW275578   6.189   5.063   4.570 -0.4444 -0.0958 -1.1478
23846SOL     OW75579   5.866   0.958   5.482 -0.4727 -0.2831 -0.4088
23846SOL    HW175580   5.821   0.960   5.567  0.1191  0.2364 -0.1028
23846SOL    HW275581   5.941   1.016   5.493  0.7229 -1.7076 -0.6564
23847SOL     OW75582   5.924   8.591   7.645  0.3987 -0.1556 -0.3084
23847SOL    HW175583   5.912   8.548   7.560  0.9719  2.5185 -1.8551
23847SOL    HW275584   5.836   8.596   7.682 -0.0478 -0.2346 -1.3220
23848SOL     OW75585   1.893   0.636   2.765  0.5205 -0.5847 -0.2218
23848SOL    HW175586   1.937   0.581   2.831 -0.6901 -0.1398  1.0017
23848SOL    HW275587   1.800   0.621   2.780  0.1622  1.5848 -0.0396
23849SOL     OW75588   0.179   0.361   0.382  0.2080 -0.1119 -0.4757
23849SOL    HW175589   0.258   0.389   0.337 -0.3173 -1.3554 -2.2733
23849SOL    HW275590   0.113   0.426   0.359  0.1681 -0.2676 -0.8149
23850SOL     OW75591   8.218   5.547   9.146  0.5551 -0.6868  0.0272
23850SOL    HW175592   8.224   5.453   9.131  3.5560 -0.6107  0.2188
23850SOL    HW275593   8.187   5.555   9.237  3.6428 -1.6661  1.2955
23851SOL     OW75594   5.073   9.251   2.980  0.3891  0.1663 -0.4966
23851SOL    HW175595   5.156   9.295   2.994 -0.4077  2.5522 -2.4980
23851SOL    HW275596   5.020   9.275   3.057  0.3011  2.0050 -1.0804
23852SOL     OW75597   3.849   4.505   0.057 -0.3628 -0.2901 -0.0940
23852SOL    HW175598   3.783   4.574   0.062 -0.1144 -0.0984  0.7035
23852SOL    HW275599   3.911   4.526   0.127  1.4529  0.4462 -1.8472
23853SOL     OW75600   1.237   1.761   2.225  0.5773  0.2339  0.0186
23853SOL    HW175601   1.186   1.821   2.170 -1.5039 -0.3126  1.2625
23853SOL    HW275602   1.285   1.707   2.163  0.9592  1.8618 -1.1656
23854SOL     OW75603   8.401   2.437   4.432  0.0754  0.3937  0.0031
23854SOL    HW175604   8.491   2.452   4.458  0.4742  0.8091 -1.4894
23854SOL    HW275605   8.388   2.496   4.357 -0.6017 -1.5450 -1.4771
23855SOL     OW75606   8.610   4.004   8.584  0.1030 -0.6976  0.6095
23855SOL    HW175607   8.593   4.013   8.490 -1.2266 -3.5606  0.4578
23855SOL    HW275608   8.702   3.975   8.589 -0.2935 -2.1741 -0.0106
23856SOL     OW75609   9.811   5.800   0.539 -0.0097  0.5027 -0.3981
23856SOL    HW175610   9.873   5.737   0.504  1.3079  0.1681  2.2857
23856SOL    HW275611   9.814   5.787   0.634 -3.2690  1.3505 -0.0400
23857SOL     OW75612   9.067   0.089   0.480 -0.0395  0.0419 -0.4384
23857SOL    HW175613   9.089   0.172   0.521 -2.7327  0.5170  0.2716
23857SOL    HW275614   9.139   0.031   0.502  2.2190  2.2809 -1.4532
23858SOL     OW75615   6.252   5.100   1.633  0.6122 -0.4157  0.9775
23858SOL    HW175616   6.269   5.147   1.551  1.5552 -0.7878  0.9523
23858SOL    HW275617   6.172   5.050   1.615  0.8757 -0.5873  0.2327
23859SOL     OW75618   8.757   2.812   4.610 -0.1986 -0.0829  0.0826
23859SOL    HW175619   8.796   2.845   4.691  1.2196  1.4921 -1.1722
23859SOL    HW275620   8.823   2.753   4.573 -0.5149 -0.2041 -0.2958
23860SOL     OW75621   9.652   7.290   6.412  0.1299 -0.2032  0.2836
23860SOL    HW175622   9.635   7.381   6.386  1.6311 -0.2817 -1.0783
23860SOL    HW275623   9.649   7.292   6.508  0.8176  1.4266  0.2990
23861SOL     OW75624   2.659   4.298   7.391  0.7073  0.1799 -0.0940
23861SOL    HW175625   2.575   4.282   7.436  1.2840  0.1965  1.0202
23861SOL    HW275626   2.723   4.249   7.443  1.3028 -0.3552 -1.3139
23862SOL     OW75627   6.900   1.368   6.230 -0.4397 -0.2543 -0.1435
23862SOL    HW175628   6.883   1.410   6.315 -1.0164  0.1806 -0.4637
23862SOL    HW275629   6.981   1.408   6.199  0.0983 -0.8500  0.4709
23863SOL     OW75630   2.484   6.721   8.623 -0.1704 -0.3300  0.3463
23863SOL    HW175631   2.556   6.743   8.683  0.7565  0.8952 -1.1357
23863SOL    HW275632   2.421   6.792   8.633  0.4000  0.3501 -0.7282
23864SOL     OW75633   8.676   4.999   7.950  0.2158 -0.2215 -0.2457
23864SOL    HW175634   8.708   4.920   7.906 -0.4859 -1.3339  1.1511
23864SOL    HW275635   8.705   4.990   8.040 -3.1509 -0.9289  0.9288
23865SOL     OW75636   0.631   9.728   3.421 -0.0168  0.1200  0.8547
23865SOL    HW175637   0.652   9.732   3.328 -0.6051 -2.5534  0.5473
23865SOL    HW275638   0.536   9.728   3.424 -0.0207 -1.1168  1.3303
23866SOL     OW75639   5.725   7.848  10.281  0.7294  0.2497  0.4186
23866SOL    HW175640   5.654   7.864  10.344 -0.4689  2.2172 -1.3024
23866SOL    HW275641   5.748   7.757  10.294  0.0042  0.3702  3.1572
23867SOL     OW75642   8.028   9.765   5.341 -0.1319  0.7110  0.4137
23867SOL    HW175643   7.943   9.738   5.308 -0.0338  0.6314  0.2234
23867SOL    HW275644   8.056   9.834   5.280  0.5709 -0.2403 -0.3667
23868SOL     OW75645   4.586   3.513   6.070  0.0640 -0.2328  0.3607
23868SOL    HW175646   4.600   3.595   6.118  0.4774  0.8282 -1.4832
23868SOL    HW275647   4.644   3.451   6.113 -0.2602  0.4124  1.8100
23869SOL     OW75648   7.532  10.109   7.822 -0.4033 -0.0651 -0.0778
23869SOL    HW175649   7.538  10.028   7.874 -1.9038 -0.4705 -0.4991
23869SOL    HW275650   7.507  10.176   7.885 -1.7861 -0.4698 -0.1759
23870SOL     OW75651   4.071   6.472   6.950 -1.2910  0.3375 -0.3587
23870SOL    HW175652   4.025   6.400   6.906  0.4826 -2.0145  1.4197
23870SOL    HW275653   4.019   6.490   7.028  1.1826 -3.3913  2.5083
23871SOL     OW75654   2.282   5.797   4.255  0.0243  0.1449 -0.1824
23871SOL    HW175655   2.368   5.816   4.293 -0.8453  2.8194  0.7074
23871SOL    HW275656   2.300   5.732   4.187  2.8199  0.9243 -0.3384
23872SOL     OW75657   9.687   7.505   5.131  0.1265  0.6968  0.0509
23872SOL    HW175658   9.620   7.481   5.066 -2.3664 -1.3660  3.0800
23872SOL    HW275659   9.770   7.480   5.090 -1.2796 -0.4151 -2.3575
23873SOL     OW75660   5.935   9.590   6.320 -0.0006  0.1265 -0.5222
23873SOL    HW175661   6.031   9.594   6.321  0.1522 -1.6864 -2.4327
23873SOL    HW275662   5.908   9.659   6.381  2.5185 -0.0906  0.9793
23874SOL     OW75663   2.166   1.799   4.993 -0.3307  0.7734 -0.8562
23874SOL    HW175664   2.259   1.777   4.992 -0.0953  1.6222 -0.0643
23874SOL    HW275665   2.163   1.885   5.036 -1.5866  0.2382  0.1764
23875SOL     OW75666   4.435   6.627   8.021  0.0217  0.1686  0.0913
23875SOL    HW175667   4.353   6.577   8.024 -0.3021  0.3748 -2.4235
23875SOL    HW275668   4.490   6.587   8.088 -1.8281 -0.5267  1.2817
23876SOL     OW75669   2.398   5.621   0.669 -0.8780 -0.0405 -0.0408
23876SOL    HW175670   2.308   5.613   0.638 -1.0970  1.0915  0.2412
23876SOL    HW275671   2.445   5.657   0.594 -1.0948  1.2653  0.4198
23877SOL     OW75672   7.691   0.149   1.751  0.6500  0.4284 -0.8375
23877SOL    HW175673   7.622   0.157   1.818 -0.7146 -1.0751 -1.9831
23877SOL    HW275674   7.769   0.125   1.801 -0.2483 -0.3316  0.2833
23878SOL     OW75675   9.474   3.975   0.972  0.6045 -0.1303 -0.7594
23878SOL    HW175676   9.527   4.045   0.935  0.2102  0.5923  0.0073
23878SOL    HW275677   9.527   3.939   1.042  0.3518  0.1624 -0.4140
23879SOL     OW75678   8.115   0.942   9.885 -0.2026 -0.1133 -0.3869
23879SOL    HW175679   8.022   0.959   9.877  0.2236  3.0739 -0.0008
23879SOL    HW275680   8.148   0.946   9.795 -0.1757  0.8737 -0.3413
23880SOL     OW75681   7.597   7.686   5.609  0.1631 -0.5730  0.1899
23880SOL    HW175682   7.636   7.715   5.691 -0.3334 -0.3600  0.3577
23880SOL    HW275683   7.607   7.761   5.550  1.2597 -1.0216 -0.2056
23881SOL     OW75684   7.449   8.620   2.776  0.1661  0.2717 -0.3598
23881SOL    HW175685   7.493   8.656   2.700  1.5652  0.0476  0.3122
23881SOL    HW275686   7.479   8.675   2.849 -1.0026  0.3682  0.0688
23882SOL     OW75687   5.072   4.859   5.011  0.1934 -0.0389  0.5278
23882SOL    HW175688   5.088   4.932   5.069 -2.6842  1.2892 -0.1475
23882SOL    HW275689   5.037   4.790   5.067 -0.0514  0.2718  0.7600
23883SOL     OW75690   5.100   6.937   5.722  0.1739  0.4034 -0.1908
23883SOL    HW175691   5.047   6.897   5.653  0.8895  0.2154 -0.6421
23883SOL    HW275692   5.174   6.877   5.733  1.2296  1.5457 -0.8146
23884SOL     OW75693   2.305   4.436   2.261 -0.2924  0.5466  0.0194
23884SOL    HW175694   2.291   4.384   2.182 -0.3650  0.4408  0.1029
23884SOL    HW275695   2.217   4.466   2.286  0.0095  3.6908 -2.0658
23885SOL     OW75696   1.949   2.869   8.874  0.1386  0.2696 -0.3510
23885SOL    HW175697   1.929   2.776   8.874  0.7277  0.1309 -1.4822
23885SOL    HW275698   1.908   2.903   8.794 -2.3567  1.5265  1.3343
23886SOL     OW75699   9.212   9.882   4.728 -0.1800  0.2092  0.0274
23886SOL    HW175700   9.127   9.851   4.697 -1.3795  2.1272  1.2080
23886SOL    HW275701   9.236   9.952   4.667  0.8679 -0.6540 -0.6102
23887SOL     OW75702   9.887   3.517   6.991  0.2039  0.0128  0.8062
23887SOL    HW175703   9.897   3.425   7.016 -0.0282  0.3824  2.3522
23887SOL    HW275704   9.811   3.518   6.931 -0.9870 -0.5752  2.2505
23888SOL     OW75705   9.360   9.906   6.414  0.6760  0.1134  0.5521
23888SOL    HW175706   9.406   9.833   6.373 -0.3297  0.0898 -0.5804
23888SOL    HW275707   9.299   9.865   6.475  1.6236  0.1211  1.5460
23889SOL     OW75708   3.932   8.716   2.250 -0.3524  0.1290  0.3605
23889SOL    HW175709   3.964   8.633   2.286  0.2426  0.7001  1.2028
23889SOL    HW275710   3.983   8.728   2.170 -2.6399 -1.8305 -1.5699
23890SOL     OW75711   3.463   4.273   5.553 -0.2048  0.0452  0.2913
23890SOL    HW175712   3.435   4.365   5.554 -0.9265 -0.1501 -0.3607
23890SOL    HW275713   3.407   4.231   5.618 -0.6448 -0.1363 -0.2025
23891SOL     OW75714   2.081   6.933   8.028  0.1684 -0.6233  0.1839
23891SOL    HW175715   2.021   6.999   8.064 -3.4081 -2.3010 -2.1155
23891SOL    HW275716   2.112   6.971   7.946  0.4572 -0.6779  0.2649
23892SOL     OW75717   4.746   9.809   6.613  0.2626  0.1110  0.3815
23892SOL    HW175718   4.827   9.832   6.659 -0.8138 -0.3872  2.6689
23892SOL    HW275719   4.748   9.714   6.608  0.0677  0.1276 -0.0617
23893SOL     OW75720   7.469   6.181   2.389  0.0221 -0.4695 -0.6487
23893SOL    HW175721   7.553   6.165   2.346 -0.0575 -0.1198 -0.9395
23893SOL    HW275722   7.493   6.211   2.476  0.2206  0.2566 -0.9416
23894SOL     OW75723   5.465   3.190   5.368 -0.0836 -0.9704 -0.6006
23894SOL    HW175724   5.413   3.150   5.298 -0.7294  1.0160 -1.3405
23894SOL    HW275725   5.525   3.248   5.322 -0.8182  0.7101  0.4742
23895SOL     OW75726   0.804   9.856   7.587 -0.5486  0.4845  0.1166
23895SOL    HW175727   0.759   9.900   7.515 -2.3515  0.0729  0.9173
23895SOL    HW275728   0.831   9.771   7.551  1.2592  1.4412 -0.8851
23896SOL     OW75729   1.907   6.393   4.005  0.2509 -0.2082 -0.1284
23896SOL    HW175730   1.898   6.397   4.100  3.1083 -2.0142  0.3485
23896SOL    HW275731   1.937   6.480   3.980 -2.0576  0.7996  0.2872
23897SOL     OW75732   2.569   4.442   2.762  0.0248  0.0205  0.1003
23897SOL    HW175733   2.501   4.507   2.778  2.0519  2.6281 -1.1219
23897SOL    HW275734   2.567   4.426   2.668  0.3437 -0.7922  0.2148
23898SOL     OW75735   5.587   8.470   2.954 -0.1511 -0.3296 -0.2916
23898SOL    HW175736   5.606   8.558   2.985  1.4198 -0.6362 -0.2987
23898SOL    HW275737   5.560   8.422   3.032  1.4477 -0.4741  0.2113
23899SOL     OW75738   4.249   5.432   0.261 -0.6629 -0.0947  0.4833
23899SOL    HW175739   4.242   5.376   0.338 -0.0923 -1.5798 -0.5175
23899SOL    HW275740   4.168   5.416   0.212  0.3654 -1.6612 -0.8191
23900SOL     OW75741   2.404   0.994  10.157  0.2734  0.3413 -0.2326
23900SOL    HW175742   2.445   0.992  10.243 -0.6459 -0.8991  0.2069
23900SOL    HW275743   2.317   1.032  10.172 -0.2937 -0.8321 -0.3890
23901SOL     OW75744   8.343   9.187   9.741 -0.1813  0.1550 -0.1802
23901SOL    HW175745   8.381   9.202   9.654  0.5735 -1.4831 -0.1698
23901SOL    HW275746   8.326   9.093   9.743  3.3672 -0.6643  2.7780
23902SOL     OW75747   3.751   0.505   1.436  0.4185 -0.1652  0.1368
23902SOL    HW175748   3.788   0.583   1.477  1.8578  0.8175 -2.7722
23902SOL    HW275749   3.824   0.443   1.432  0.8253  0.3957 -2.3294
23903SOL     OW75750   8.173   9.821   8.694  0.3038  0.2208 -0.1017
23903SOL    HW175751   8.152   9.899   8.746  0.4067  1.1881 -1.4796
23903SOL    HW275752   8.196   9.855   8.608  0.7366 -1.3198 -0.6155
23904SOL     OW75753   1.883   6.831   9.429 -0.6461  0.2828  0.0454
23904SOL    HW175754   1.883   6.909   9.484  1.8574  0.0576  0.4517
23904SOL    HW275755   1.953   6.845   9.366 -1.9393 -0.4874 -1.6600
23905SOL     OW75756   3.790   4.618   2.131  0.4884  0.5943  0.2890
23905SOL    HW175757   3.839   4.551   2.084 -0.2700  1.2400 -1.5166
23905SOL    HW275758   3.800   4.595   2.224  1.7046 -0.9649 -0.1877
23906SOL     OW75759   7.740   5.911   9.200 -0.1235  0.0867 -0.4519
23906SOL    HW175760   7.737   5.831   9.252 -1.3239 -0.0825 -0.7400
23906SOL    HW275761   7.702   5.978   9.258  0.7428  0.4198 -0.2634
23907SOL     OW75762   6.279   9.229   0.569  0.3198  0.5305 -0.2994
23907SOL    HW175763   6.197   9.214   0.522  0.4341  1.6156 -0.8933
23907SOL    HW275764   6.345   9.183   0.517  0.1307 -0.0932  0.0117
23908SOL     OW75765   9.514   3.198   1.410 -0.2700 -0.6130  0.1711
23908SOL    HW175766   9.574   3.233   1.476 -1.8196 -2.0011  2.4313
23908SOL    HW275767   9.469   3.275   1.376  0.9321  0.1823  0.2900
23909SOL     OW75768   6.946   1.944   9.836  0.4650 -0.0359  0.1784
23909SOL    HW175769   6.897   2.024   9.856  0.4493  0.3287 -1.2627
23909SOL    HW275770   7.000   1.929   9.914 -0.2946  0.7937  0.8838
23910SOL     OW75771   7.779   3.402   5.812  0.4803 -0.8313  0.5783
23910SOL    HW175772   7.835   3.425   5.738  1.6863 -0.8899  1.4435
23910SOL    HW275773   7.822   3.441   5.888 -2.2897  1.8650  0.9759
23911SOL     OW75774   1.456   2.937   5.040  0.0785  0.1090  0.0951
23911SOL    HW175775   1.389   2.870   5.051  0.1893  0.1396  1.0329
23911SOL    HW275776   1.409   3.020   5.048  0.2521  0.1306  0.9948
23912SOL     OW75777   8.330   8.175   4.860 -0.2849 -0.4130  0.0373
23912SOL    HW175778   8.386   8.097   4.864 -0.2612 -0.4018 -0.1037
23912SOL    HW275779   8.260   8.157   4.923 -0.0515 -0.3712  0.3144
23913SOL     OW75780   8.914   2.802   0.475  0.0855 -0.2862 -0.2915
23913SOL    HW175781   8.997   2.796   0.522  0.6967  2.7827 -0.8190
23913SOL    HW275782   8.939   2.808   0.383 -0.8880 -1.6578 -0.6775
23914SOL     OW75783   7.713   0.002   0.190 -0.2220 -0.2734 -0.1292
23914SOL    HW175784   7.709   0.061   0.115  1.7091  1.1097  0.7577
23914SOL    HW275785   7.670  -0.079   0.160 -3.0913  1.5439 -1.3525
23915SOL     OW75786   9.806   7.506   1.547  0.2220 -0.0054  0.3166
23915SOL    HW175787   9.887   7.545   1.578  0.8567  0.3282 -1.5951
23915SOL    HW275788   9.818   7.412   1.555  0.7914  0.0468  0.0778
23916SOL     OW75789   2.820   3.538   2.435  0.2756  0.5360 -0.1606
23916SOL    HW175790   2.888   3.563   2.372  2.1304 -2.1245  0.6288
23916SOL    HW275791   2.802   3.618   2.484  1.4667  1.7645 -1.6174
23917SOL     OW75792   3.520   2.843   4.521 -0.3320 -0.1991 -0.6249
23917SOL    HW175793   3.610   2.812   4.530  0.2302  0.5953 -2.9189
23917SOL    HW275794   3.487   2.846   4.611  1.5103 -1.6509  0.1718
23918SOL     OW75795   6.334   0.682   9.933  0.1551  0.1505  0.0821
23918SOL    HW175796   6.300   0.757   9.981 -0.7129 -0.1477 -0.0424
23918SOL    HW275797   6.426   0.677   9.957 -0.0526  0.5565  0.9857
23919SOL     OW75798   9.327   7.022   6.316  0.7838  0.1828 -0.4399
23919SOL    HW175799   9.283   7.095   6.271 -0.5177 -0.9099 -1.0141
23919SOL    HW275800   9.402   7.063   6.360  0.0828  1.8649 -0.7167
23920SOL     OW75801   2.670   7.026   4.559  0.1991 -0.0380 -0.0626
23920SOL    HW175802   2.620   7.078   4.621 -0.0618 -0.5651  0.1726
23920SOL    HW275803   2.646   7.061   4.473  0.1319  0.3213  0.1030
23921SOL     OW75804   8.360   1.148   1.515 -0.6833 -0.0564  0.5123
23921SOL    HW175805   8.430   1.159   1.579 -1.1389  0.5465  0.9220
23921SOL    HW275806   8.363   1.230   1.464 -0.5674 -0.3734  0.0024
23922SOL     OW75807   8.250   7.361   8.797  0.4314  0.0339 -0.1819
23922SOL    HW175808   8.335   7.405   8.793  0.4657  0.2313  1.8698
23922SOL    HW275809   8.267   7.279   8.843 -0.4638  0.0120  0.1328
23923SOL     OW75810   5.872   1.102   4.757  0.1412 -0.1792  0.0449
23923SOL    HW175811   5.823   1.164   4.703 -1.4212 -1.3660  0.0173
23923SOL    HW275812   5.914   1.156   4.824 -0.4781  0.9888 -0.4757
23924SOL     OW75813   1.712   8.381   9.175  0.1841 -1.1996  0.4490
23924SOL    HW175814   1.714   8.450   9.240  0.4082 -0.7998  0.0213
23924SOL    HW275815   1.742   8.303   9.222 -1.9282 -1.4653  1.4495
23925SOL     OW75816   5.200   2.195   8.313  0.1742 -0.7262  0.3670
23925SOL    HW175817   5.167   2.146   8.389 -2.3045  2.1207  1.3018
23925SOL    HW275818   5.126   2.199   8.253  0.3448  1.5733  0.2251
23926SOL     OW75819   1.037   4.260   4.699  0.0376 -0.0757  0.9480
23926SOL    HW175820   1.063   4.352   4.690 -0.3029  0.2029  2.4850
23926SOL    HW275821   1.058   4.238   4.790  0.2219 -1.5679  0.5712
23927SOL     OW75822   6.438   3.158  10.244  0.8080  0.4484  0.1270
23927SOL    HW175823   6.513   3.215  10.261 -0.4499  1.4119  2.8985
23927SOL    HW275824   6.470   3.070  10.266  1.6764  0.5228 -0.7173
23928SOL     OW75825   5.736   7.320   4.293  0.1882 -0.1611 -0.3789
23928SOL    HW175826   5.773   7.393   4.343 -0.4666 -0.7249  0.9499
23928SOL    HW275827   5.797   7.248   4.308  0.3489 -0.1503 -0.9566
23929SOL     OW75828   1.500   1.681   3.525 -0.4745 -0.0105  0.2152
23929SOL    HW175829   1.517   1.658   3.616 -0.6022 -2.2588 -0.2687
23929SOL    HW275830   1.581   1.721   3.495 -0.3758  0.6007  1.2714
23930SOL     OW75831   5.724   2.733   3.022 -0.0957  0.4014  0.7179
23930SOL    HW175832   5.750   2.708   3.111  2.6272 -3.4231 -0.8588
23930SOL    HW275833   5.668   2.661   2.994  0.5444  0.6055 -1.2085
23931SOL     OW75834   3.298   3.537   1.352 -0.3001  0.1716 -0.4070
23931SOL    HW175835   3.372   3.486   1.319 -0.3494  1.0313 -1.9385
23931SOL    HW275836   3.321   3.556   1.443  0.9091 -0.3900 -0.5707
23932SOL     OW75837   5.913   5.735   2.139  0.3813 -0.1229 -0.6849
23932SOL    HW175838   5.888   5.822   2.171 -0.3963 -0.2668 -0.8888
23932SOL    HW275839   5.947   5.751   2.051 -0.6665 -0.1374 -1.0974
23933SOL     OW75840   1.704   5.852   5.980  0.7158  0.1568  0.5135
23933SOL    HW175841   1.619   5.810   5.990  0.6892 -0.0665 -0.5369
23933SOL    HW275842   1.688   5.922   5.916  1.2043  0.4495  0.7084
23934SOL     OW75843   3.763   7.458   8.251  0.4612 -0.3527 -0.1864
23934SOL    HW175844   3.711   7.386   8.286  2.1453 -0.7706  1.6747
23934SOL    HW275845   3.801   7.423   8.170 -0.1762 -0.9034 -0.2586
23935SOL     OW75846   5.972   4.407   8.110 -0.4441 -0.1821  0.0232
23935SOL    HW175847   5.906   4.467   8.146  0.4521  0.1818  1.1143
23935SOL    HW275848   5.979   4.337   8.174  1.5037  0.7067  0.8749
23936SOL     OW75849   6.657   6.673   3.745  0.2441 -0.0329 -0.2799
23936SOL    HW175850   6.582   6.667   3.687  0.2464 -1.0324 -0.1994
23936SOL    HW275851   6.733   6.673   3.687  0.1863  1.6392 -0.3976
23937SOL     OW75852   0.620   3.667   4.145  0.0571  0.3274  0.1118
23937SOL    HW175853   0.657   3.657   4.058  1.6660  0.1744  0.7873
23937SOL    HW275854   0.555   3.597   4.152 -0.5517  0.7277 -1.1622
23938SOL     OW75855   9.407  10.198   2.034  0.3633  0.2500 -0.0221
23938SOL    HW175856   9.440  10.268   2.091  0.6188  2.9315 -3.1391
23938SOL    HW275857   9.477  10.133   2.032  1.2858  1.1798  0.9423
23939SOL     OW75858   3.495   0.880   9.016 -0.2134 -0.2793  0.3216
23939SOL    HW175859   3.574   0.869   8.964  0.6753  3.9075  0.4310
23939SOL    HW275860   3.440   0.939   8.965 -1.9347 -0.6665  1.6137
23940SOL     OW75861   0.118   0.345   2.120 -0.0909  0.3331 -0.0229
23940SOL    HW175862   0.205   0.366   2.084  0.5362 -1.9794  0.0089
23940SOL    HW275863   0.134   0.332   2.214  0.0442 -2.4175 -0.3711
23941SOL     OW75864   6.961   6.648   9.955  0.1631  0.7266  0.2727
23941SOL    HW175865   6.945   6.577   9.892 -0.1198  2.0194 -1.1988
23941SOL    HW275866   6.942   6.728   9.905 -1.7385  1.7835  2.5111
23942SOL     OW75867   3.852   8.230   2.960  0.2992  0.0602  0.5535
23942SOL    HW175868   3.939   8.257   2.930  0.5312 -0.5955  0.6251
23942SOL    HW275869   3.830   8.155   2.905 -0.1107  0.0587  0.7181
23943SOL     OW75870   9.807   2.573   4.507  0.0060 -0.3818  0.1404
23943SOL    HW175871   9.771   2.490   4.539  2.7819 -1.9937 -0.5495
23943SOL    HW275872   9.845   2.614   4.585  1.6768 -1.5229 -0.0058
23944SOL     OW75873   5.820   1.372   2.063  0.5443 -0.2867 -0.8006
23944SOL    HW175874   5.841   1.324   1.982 -0.4760 -0.6505 -0.8584
23944SOL    HW275875   5.754   1.435   2.037 -0.5267 -1.0770 -0.0618
23945SOL     OW75876   8.974   2.907   1.921  0.1655  0.0062  0.0324
23945SOL    HW175877   8.992   2.843   1.990 -0.7818 -1.4491 -1.0362
23945SOL    HW275878   8.881   2.898   1.902  0.5169 -0.0748 -1.8618
23946SOL     OW75879   1.872   8.511   0.500 -0.7224  0.5622  0.0412
23946SOL    HW175880   1.947   8.554   0.543  0.0634 -0.4470 -0.2745
23946SOL    HW275881   1.883   8.418   0.522  0.1752 -0.1425 -2.9393
23947SOL     OW75882   0.291   0.520   9.917 -0.1079 -0.4645 -0.7027
23947SOL    HW175883   0.352   0.477   9.858  0.5947 -0.3005 -0.1068
23947SOL    HW275884   0.311   0.483  10.003 -0.6636 -0.2082 -0.4584
23948SOL     OW75885   9.066   6.484   3.425  0.0491  0.0645 -0.3391
23948SOL    HW175886   9.152   6.524   3.423 -0.1465  0.4922 -0.3326
23948SOL    HW275887   9.055   6.445   3.338  0.7849 -1.1572  0.0893
23949SOL     OW75888  10.027   1.266   0.620 -0.2051  0.1268 -0.8475
23949SOL    HW175889   9.986   1.188   0.658 -0.5940 -0.8599 -3.0715
23949SOL    HW275890   9.953   1.324   0.602 -0.1763  0.0677 -1.1648
23950SOL     OW75891   7.878   0.217   0.875  0.2054  0.3669 -0.1712
23950SOL    HW175892   7.972   0.231   0.885  0.3754 -1.0147  0.3196
23950SOL    HW275893   7.840   0.304   0.885  1.3099  0.7226  1.2432
23951SOL     OW75894   2.386  10.079   6.063 -0.3949 -0.2470  0.4916
23951SOL    HW175895   2.370  10.174   6.064 -2.3718 -0.5368  0.5850
23951SOL    HW275896   2.452  10.067   5.994  0.8872  1.2957  1.3716
23952SOL     OW75897   1.540   8.440   5.362 -0.4372 -0.1416  0.3342
23952SOL    HW175898   1.458   8.488   5.373 -0.6159 -0.6278  1.1542
23952SOL    HW275899   1.599   8.503   5.319 -0.0970  1.4391  2.9102
23953SOL     OW75900   9.016   0.737   5.981 -0.2653  0.1489 -0.0917
23953SOL    HW175901   8.940   0.687   6.011 -0.8052  1.4118  0.8001
23953SOL    HW275902   9.082   0.672   5.960 -1.4429 -0.9670 -0.4276
23954SOL     OW75903   6.014   4.011   8.485  0.2284  0.4287  0.0114
23954SOL    HW175904   5.962   3.945   8.439  0.2095  1.3510 -1.3651
23954SOL    HW275905   6.017   3.981   8.576 -1.3950 -0.4675 -0.1907
23955SOL     OW75906   3.814   8.024  10.161  0.7266 -0.3858  0.1498
23955SOL    HW175907   3.898   7.993  10.126  1.6194 -0.2682  2.0622
23955SOL    HW275908   3.749   7.966  10.120  1.7984 -1.0099 -0.7548
23956SOL     OW75909   0.135   1.124   5.635 -0.1297  0.0841  0.0836
23956SOL    HW175910   0.176   1.040   5.612 -0.2069  0.4794 -1.5996
23956SOL    HW275911   0.154   1.181   5.561 -1.2702  1.1458  0.5758
23957SOL     OW75912   1.777   4.226   7.561  0.0255 -0.8029  0.4016
23957SOL    HW175913   1.766   4.211   7.467  0.0671 -0.7878  0.3943
23957SOL    HW275914   1.839   4.158   7.589 -0.9820 -1.6338  0.6683
23958SOL     OW75915   0.439   5.012   6.792  0.0721  0.3300 -0.0773
23958SOL    HW175916   0.386   4.934   6.773 -1.3408  1.8207 -2.9328
23958SOL    HW275917   0.400   5.049   6.871 -0.0194 -1.1349  0.6078
23959SOL     OW75918   6.539   7.191   0.069 -0.0791  0.3810  0.1813
23959SOL    HW175919   6.605   7.124   0.051  0.8435  0.6591  2.2205
23959SOL    HW275920   6.464   7.143   0.104 -1.1160  0.0466 -2.2870
23960SOL     OW75921   3.771  10.092   3.135 -0.1010 -0.3411  0.1938
23960SOL    HW175922   3.807  10.151   3.202 -1.2130 -0.1822  0.6792
23960SOL    HW275923   3.736  10.151   3.068 -0.5909 -0.4568  0.3432
23961SOL     OW75924   7.104   5.364   0.377  0.3786  0.0876 -0.2198
23961SOL    HW175925   7.046   5.421   0.327 -0.8670 -1.5946 -0.7789
23961SOL    HW275926   7.045   5.307   0.426  1.5820 -0.7575  0.2836
23962SOL     OW75927   4.152   9.952   3.687 -0.4465 -0.2079  0.1438
23962SOL    HW175928   4.185   9.882   3.744 -1.1802 -0.5238  0.1956
23962SOL    HW275929   4.176   9.924   3.599  1.2945  0.6145  0.3268
23963SOL     OW75930   3.176   9.843   3.181 -0.1902  0.0514 -0.4733
23963SOL    HW175931   3.121   9.789   3.123 -0.3045  1.2178 -1.4843
23963SOL    HW275932   3.113   9.890   3.236 -0.1434 -4.0378  3.6810
23964SOL     OW75933   8.711   4.661   9.630  0.3881  0.0226 -1.5455
23964SOL    HW175934   8.667   4.634   9.549  0.6489  1.1571 -2.0800
23964SOL    HW275935   8.737   4.579   9.671 -1.4504 -0.6440 -1.6446
23965SOL     OW75936   7.427   4.993   9.573  0.1406  0.4925 -0.3646
23965SOL    HW175937   7.471   5.022   9.653 -1.4323  1.1092  0.3118
23965SOL    HW275938   7.378   5.070   9.543 -1.4240 -0.4702 -0.3974
23966SOL     OW75939   3.588   7.900   4.471  0.3341 -0.6604  0.0356
23966SOL    HW175940   3.671   7.903   4.519 -0.5729 -1.4486  1.7529
23966SOL    HW275941   3.546   7.984   4.489  0.8221 -0.2003 -0.9607
23967SOL     OW75942   0.810   1.705   2.234 -0.0313 -0.5738  0.2007
23967SOL    HW175943   0.726   1.718   2.279 -0.6927 -1.0874 -0.8451
23967SOL    HW275944   0.840   1.793   2.213  1.3414 -0.1521  3.4325
23968SOL     OW75945   2.874   7.465   6.941 -0.1125 -0.2380 -0.1968
23968SOL    HW175946   2.913   7.507   6.864  0.7220 -1.9213 -0.7499
23968SOL    HW275947   2.780   7.463   6.923 -0.1391  1.0383 -0.2991
23969SOL     OW75948   6.527   9.514   4.465  0.6356  0.0733  0.1584
23969SOL    HW175949   6.571   9.575   4.524  3.1639 -0.7824 -0.6690
23969SOL    HW275950   6.547   9.428   4.502 -0.8577 -0.3498  0.0185
23970SOL     OW75951   0.884   4.418   5.455  1.0080 -0.1155  0.1555
23970SOL    HW175952   0.917   4.361   5.525  1.0646  0.2265  0.4092
23970SOL    HW275953   0.947   4.490   5.451  0.1949  0.6688  0.8051
23971SOL     OW75954   3.884   3.594   6.566  0.0301  0.2751  0.4768
23971SOL    HW175955   3.937   3.607   6.645  0.5810 -2.0841  0.5716
23971SOL    HW275956   3.801   3.560   6.598  0.5065 -1.3728  0.0515
23972SOL     OW75957   9.647   1.706   7.721  0.2413  0.3065 -0.0026
23972SOL    HW175958   9.685   1.621   7.741 -0.8460 -0.2555 -0.2297
23972SOL    HW275959   9.694   1.768   7.777  1.4477 -0.3495 -0.2739
23973SOL     OW75960   8.121   3.911   9.006  0.3118 -0.1072  0.4548
23973SOL    HW175961   8.056   3.914   8.936 -0.3444 -1.5377  0.9567
23973SOL    HW275962   8.069   3.911   9.087  1.0428  1.1593  0.9602
23974SOL     OW75963   1.180   4.359   1.597  0.5147 -0.1082  0.0252
23974SOL    HW175964   1.134   4.302   1.535 -1.8548  1.1116  0.5018
23974SOL    HW275965   1.203   4.436   1.546 -2.1991  1.2772  0.6554
23975SOL     OW75966   3.010   0.361   9.164 -0.2714  0.3996 -0.3994
23975SOL    HW175967   2.957   0.289   9.199 -0.5104  0.6468 -0.2589
23975SOL    HW275968   2.999   0.355   9.069  1.5012 -1.1698 -0.5755
23976SOL     OW75969   6.132   9.511   5.420  0.0017  0.4456 -0.0184
23976SOL    HW175970   6.203   9.569   5.391 -1.9999  3.6319  0.9692
23976SOL    HW275971   6.137   9.512   5.515 -2.0025  1.7000  0.1276
23977SOL     OW75972   2.522   2.368   5.029  0.5168 -0.1834 -0.5615
23977SOL    HW175973   2.546   2.349   5.120 -0.3840  1.1421 -0.0121
23977SOL    HW275974   2.585   2.318   4.977  0.2917 -1.9341  0.7668
23978SOL     OW75975   9.996   5.965   1.929 -0.4506 -0.0766 -0.5252
23978SOL    HW175976  10.019   6.048   1.971  0.2697 -0.3209 -0.4383
23978SOL    HW275977   9.981   5.904   2.001  0.4474 -0.4045 -0.6101
23979SOL     OW75978   5.898   4.933   6.813  0.4641 -0.5951 -0.1850
23979SOL    HW175979   5.973   4.962   6.763 -0.2551  2.6069  0.4089
23979SOL    HW275980   5.827   4.925   6.749  0.5637 -0.6689 -0.2858
23980SOL     OW75981   6.595   0.207   8.170 -0.4125  0.1812  0.0301
23980SOL    HW175982   6.610   0.285   8.117  0.6364  0.7041  1.0431
23980SOL    HW275983   6.508   0.220   8.208 -0.2729  0.8327  0.1422
23981SOL     OW75984   0.133   3.727   5.587 -0.8265  0.0171 -0.0023
23981SOL    HW175985   0.221   3.710   5.554 -0.5880  1.1068  0.0418
23981SOL    HW275986   0.105   3.644   5.624  0.9814  0.1496  1.8177
23982SOL     OW75987   2.469   7.202   5.012 -0.0167 -0.4087 -0.1717
23982SOL    HW175988   2.520   7.238   5.085 -1.5353 -1.2608  1.3797
23982SOL    HW275989   2.397   7.264   5.001  0.8886  0.3974 -1.8534
23983SOL     OW75990   4.210   1.044   7.234  0.9443 -0.2132  0.1914
23983SOL    HW175991   4.191   0.979   7.301  1.8168  1.6692  2.4384
23983SOL    HW275992   4.159   1.017   7.158 -0.8533 -1.9808  1.9105
23984SOL     OW75993   4.645   9.517   2.041  0.5776 -0.1632  0.2384
23984SOL    HW175994   4.588   9.552   2.110 -0.0572  1.1589 -0.9069
23984SOL    HW275995   4.680   9.436   2.078 -0.8327 -0.2104  1.5761
23985SOL     OW75996   6.389   9.461   2.578  0.1043  0.1054 -0.0152
23985SOL    HW175997   6.330   9.479   2.651 -0.8100  0.6746 -0.8492
23985SOL    HW275998   6.459   9.408   2.615  0.3325  1.4135  1.5308
23986SOL     OW75999   2.796   6.345   5.493  0.2931  0.1681  0.3588
23986SOL    HW176000   2.807   6.389   5.577  0.3826 -1.3294  1.1661
23986SOL    HW276001   2.703   6.352   5.473  0.0858 -0.3587  1.1066
23987SOL     OW76002   0.182   5.946   0.366  0.2409  0.2241  0.2633
23987SOL    HW176003   0.239   5.869   0.371  1.2039  0.8068 -1.0143
23987SOL    HW276004   0.211   6.001   0.438  0.4241 -0.0547  0.4069
23988SOL     OW76005   1.115   7.268   1.469 -0.1832  0.1813 -0.2183
23988SOL    HW176006   1.165   7.300   1.545 -0.7382  1.2718 -0.2836
23988SOL    HW276007   1.083   7.182   1.496 -0.2442  0.4903  0.7375
23989SOL     OW76008   1.317   6.856   2.535 -0.2144 -0.4225  0.2201
23989SOL    HW176009   1.376   6.853   2.459 -0.0687 -1.2177  0.3615
23989SOL    HW276010   1.310   6.949   2.556  1.9113 -0.3548  0.9017
23990SOL     OW76011   8.315   1.322   4.422 -0.4689 -0.1788 -0.0609
23990SOL    HW176012   8.381   1.384   4.394 -0.6103 -0.1011 -0.2189
23990SOL    HW276013   8.287   1.277   4.342  0.0420 -0.8499  0.1214
23991SOL     OW76014   9.944   9.936   4.033 -0.0800  0.9176 -0.2728
23991SOL    HW176015   9.923   9.843   4.041 -0.0725  0.8522 -0.9881
23991SOL    HW276016   9.863   9.977   4.005  0.0930  1.0239 -0.6267
23992SOL     OW76017   6.509   9.695   8.037 -0.3247  0.5523  0.0515
23992SOL    HW176018   6.519   9.780   8.079 -0.9821  0.0364  1.2816
23992SOL    HW276019   6.423   9.698   7.996 -1.9005 -0.6983  3.0194
23993SOL     OW76020   3.779   5.274   4.652  0.2052 -0.1525  0.2614
23993SOL    HW176021   3.789   5.261   4.746  0.0132 -0.1235  0.2865
23993SOL    HW276022   3.864   5.252   4.615 -0.0091 -1.1512  0.3406
23994SOL     OW76023   6.771   9.323   6.242  0.2531 -0.0658 -0.3943
23994SOL    HW176024   6.824   9.381   6.296  0.9438 -0.6602 -0.4163
23994SOL    HW276025   6.683   9.328   6.281  0.8381 -0.8609  1.1219
23995SOL     OW76026   3.141   4.144  10.211  0.3542 -0.2889 -0.2355
23995SOL    HW176027   3.071   4.132  10.147  0.6296 -0.6850 -0.4664
23995SOL    HW276028   3.167   4.055  10.235  0.8672 -0.1430 -0.2468
23996SOL     OW76029   2.291   4.573   6.310 -0.3341  0.1914 -1.0786
23996SOL    HW176030   2.215   4.531   6.269  0.4106 -0.5312 -1.7662
23996SOL    HW276031   2.277   4.560   6.404 -1.4531  0.7775 -1.1489
23997SOL     OW76032   0.828   9.903   6.475 -0.4437  0.0004  0.4183
23997SOL    HW176033   0.765   9.908   6.548  0.3427 -3.0629  1.4644
23997SOL    HW276034   0.910   9.934   6.513 -0.4448  0.2380  0.2294
23998SOL     OW76035   3.865  10.010   7.657  0.0663  0.8178 -0.9983
23998SOL    HW176036   3.820   9.933   7.622  1.7492 -1.5684  1.6708
23998SOL    HW276037   3.939  10.023   7.598  0.1927 -0.0853 -1.0487
23999SOL     OW76038   5.129   3.466   7.728  0.4995  0.0053 -0.3689
23999SOL    HW176039   5.094   3.414   7.655  1.6490 -0.3479 -0.6883
23999SOL    HW276040   5.199   3.412   7.764 -0.0644  0.1637  1.0338
24000SOL     OW76041   0.871   0.495   5.622 -0.2367 -0.6553  0.0268
24000SOL    HW176042   0.856   0.427   5.687 -1.2652  0.5212  1.0722
24000SOL    HW276043   0.812   0.473   5.549 -0.1711 -1.1552  0.1218
24001SOL     OW76044   2.018   2.350   0.293 -0.0797  0.3813 -0.8581
24001SOL    HW176045   2.106   2.316   0.275  0.5372  2.3031 -1.8274
24001SOL    HW276046   2.013   2.357   0.388  1.1467  0.9923 -0.8196
24002SOL     OW76047   1.624   6.662   7.742 -0.2434  0.3010  0.4201
24002SOL    HW176048   1.572   6.636   7.818 -1.9375 -0.3888 -0.8923
24002SOL    HW276049   1.670   6.582   7.715 -1.7601 -0.2203 -0.8116
24003SOL     OW76050   8.618   1.561   6.362  0.3207 -0.3393 -0.5375
24003SOL    HW176051   8.674   1.484   6.371 -0.2465 -0.7320 -0.2850
24003SOL    HW276052   8.655   1.609   6.289  0.9340 -0.6354 -0.4318
24004SOL     OW76053  10.297   3.872   6.914  0.3172  0.2010  0.0246
24004SOL    HW176054  10.217   3.822   6.924  0.9434 -0.7104  0.6593
24004SOL    HW276055  10.302   3.926   6.993  0.1704  0.4977 -0.1669
24005SOL     OW76056   1.577   1.083   0.133  0.1379 -0.0215 -0.0287
24005SOL    HW176057   1.487   1.052   0.136 -0.1157  0.7300  0.7913
24005SOL    HW276058   1.607   1.079   0.224  1.3389 -1.3734 -0.4591
24006SOL     OW76059   2.156   6.104   9.338 -0.5008 -0.3112 -0.1477
24006SOL    HW176060   2.240   6.148   9.350  1.4792 -3.3948 -1.3852
24006SOL    HW276061   2.117   6.103   9.425  1.1252  0.5210  0.6425
24007SOL     OW76062   5.762   1.243   1.490  0.3052  0.8773  0.0214
24007SOL    HW176063   5.730   1.177   1.429 -0.7321  1.0123  0.4015
24007SOL    HW276064   5.739   1.327   1.449 -2.7947  0.9949  1.7271
24008SOL     OW76065   6.387   0.191   5.383 -0.3714  0.3683 -0.1217
24008SOL    HW176066   6.295   0.199   5.405 -0.5455 -0.1198 -0.6543
24008SOL    HW276067   6.412   0.105   5.419 -0.5560 -0.2571 -1.4200
24009SOL     OW76068  10.187   8.155   3.751  0.2227 -0.4124 -0.1355
24009SOL    HW176069  10.115   8.168   3.690  0.8898 -0.0082 -0.8626
24009SOL    HW276070  10.255   8.112   3.699  1.0210  0.4581  0.1576
24010SOL     OW76071   9.317   6.854   0.771 -0.5639  0.2891  0.4857
24010SOL    HW176072   9.352   6.908   0.842 -1.1034 -0.9501  1.7389
24010SOL    HW276073   9.380   6.783   0.761 -0.5571  0.3823 -0.2041
24011SOL     OW76074   1.546   3.523   9.113  0.0587  0.0579  0.1535
24011SOL    HW176075   1.582   3.436   9.129 -0.9464 -0.4468 -0.2981
24011SOL    HW276076   1.451   3.513   9.122 -0.0287  1.2989  1.0081
24012SOL     OW76077   1.259   8.011   0.192 -0.2458 -0.6375 -0.2895
24012SOL    HW176078   1.168   8.022   0.162 -0.3022 -2.3883 -0.8426
24012SOL    HW276079   1.283   7.923   0.163  0.5124 -1.5259  2.7258
24013SOL     OW76080   2.690   0.201   1.293 -0.2664 -0.1354 -0.2017
24013SOL    HW176081   2.647   0.119   1.270 -1.1358  0.1045  0.5135
24013SOL    HW276082   2.781   0.189   1.266 -0.5180 -1.1019 -0.6540
24014SOL     OW76083   2.008   0.737   7.942  0.0536  0.2090  0.9204
24014SOL    HW176084   2.073   0.670   7.919 -0.6461 -0.4186  0.7287
24014SOL    HW276085   2.049   0.786   8.013  1.0501  0.3189  0.2891
24015SOL     OW76086   5.484   4.900   6.087  0.2622  0.0006  0.7361
24015SOL    HW176087   5.431   4.956   6.145 -0.6315  1.5632 -1.4514
24015SOL    HW276088   5.464   4.931   5.999  2.4648 -1.4985 -0.3858
24016SOL     OW76089  10.144   8.383   6.024  0.0022 -0.5628 -0.2099
24016SOL    HW176090  10.146   8.463   6.077  1.7122  0.9969 -2.4260
24016SOL    HW276091  10.212   8.327   6.062  0.4197  0.0444 -0.0473
24017SOL     OW76092   7.040   5.184   2.690  0.0278 -0.1046 -0.6675
24017SOL    HW176093   7.012   5.271   2.719 -0.3716 -0.1023 -1.0483
24017SOL    HW276094   7.104   5.202   2.621  0.8322 -0.1113  0.0607
24018SOL     OW76095   0.751   2.315   8.840  0.2354 -0.0651 -0.0808
24018SOL    HW176096   0.718   2.330   8.929 -0.0046 -0.8273 -0.0418
24018SOL    HW276097   0.780   2.224   8.840 -0.3165 -0.2445 -0.9638
24019SOL     OW76098   4.861   9.457   8.586 -0.3216  0.0593 -0.2777
24019SOL    HW176099   4.857   9.545   8.548 -1.1721  0.7124  1.2401
24019SOL    HW276100   4.795   9.407   8.539  1.1212 -0.2259 -2.1356
24020SOL     OW76101   2.511   3.909   7.549  0.5287  0.2348 -0.4804
24020SOL    HW176102   2.579   3.864   7.499  1.4308  0.4206  0.5541
24020SOL    HW276103   2.429   3.871   7.517  1.2272 -1.7594 -0.0310
24021SOL     OW76104   4.574   2.930   9.072 -0.1295  0.1310 -0.1835
24021SOL    HW176105   4.611   2.974   9.149 -1.3410 -0.3052  0.6781
24021SOL    HW276106   4.619   2.846   9.069 -2.0749 -1.1226  1.8684
24022SOL     OW76107   3.355   6.773   2.731  0.5501  0.2243  0.0571
24022SOL    HW176108   3.444   6.804   2.749  1.0456 -0.9551 -0.2614
24022SOL    HW276109   3.364   6.719   2.652  0.0509 -1.9903  1.4159
24023SOL     OW76110   7.349   1.124   7.268  0.2873 -0.4453  0.0388
24023SOL    HW176111   7.343   1.192   7.200  0.4392  0.0829  0.5429
24023SOL    HW276112   7.441   1.124   7.293  0.1423 -0.3071  0.5757
24024SOL     OW76113   0.202   3.715   7.787 -0.1414  1.0989 -0.1711
24024SOL    HW176114   0.175   3.741   7.699 -1.6329 -1.0115 -0.4406
24024SOL    HW276115   0.268   3.779   7.812  0.6434  1.5418 -2.9764
24025SOL     OW76116   1.066   1.956   4.394 -0.2908  0.2086 -0.4141
24025SOL    HW176117   1.019   1.908   4.327 -0.9135 -0.2035  0.2999
24025SOL    HW276118   1.055   2.048   4.370 -0.8880  0.0830 -0.6271
24026SOL     OW76119   0.143   2.956   7.891 -0.0378  0.0635  0.5520
24026SOL    HW176120   0.209   3.007   7.939 -0.9590  2.7982 -0.8533
24026SOL    HW276121   0.158   2.978   7.799 -0.3822 -2.4778 -0.1852
24027SOL     OW76122   4.277   0.759   2.800  0.1011 -0.7009  0.5561
24027SOL    HW176123   4.307   0.669   2.798  3.0159  0.1657  0.4221
24027SOL    HW276124   4.273   0.785   2.708  1.8082  0.0024  0.6473
24028SOL     OW76125   2.720   3.979   2.383 -0.5431  0.2957 -0.3797
24028SOL    HW176126   2.684   4.067   2.397  1.9164  1.9785 -3.3851
24028SOL    HW276127   2.814   3.992   2.377 -0.1062 -2.5187 -1.3271
24029SOL     OW76128   5.413   5.672   3.272 -0.3395 -0.4007 -0.5298
24029SOL    HW176129   5.431   5.628   3.189 -0.2380 -0.5054 -0.4541
24029SOL    HW276130   5.439   5.608   3.339  0.3963  0.0047 -0.4168
24030SOL     OW76131   6.673   9.098   0.911  0.3646  0.0328 -0.5501
24030SOL    HW176132   6.723   9.034   0.961 -0.3371 -0.0250  0.1080
24030SOL    HW276133   6.582   9.069   0.918 -0.3655  2.3662  1.9382
24031SOL     OW76134   3.853   3.247   9.857 -0.4930  0.5366 -0.1249
24031SOL    HW176135   3.937   3.204   9.845 -0.4338  0.9941 -1.4567
24031SOL    HW276136   3.842   3.252   9.952  3.0216  4.3076  0.3546
24032SOL     OW76137   0.690   1.752   5.563  0.0677 -0.3263 -0.3937
24032SOL    HW176138   0.698   1.775   5.470  0.6507  0.7538 -0.0985
24032SOL    HW276139   0.615   1.693   5.567  1.3319 -2.1604 -1.8503
24033SOL     OW76140   7.950   3.378   4.164 -0.2137 -0.4938 -0.0936
24033SOL    HW176141   7.946   3.410   4.254 -0.9613 -0.8018 -0.0098
24033SOL    HW276142   7.963   3.457   4.111  2.0069 -0.4655  0.3852
24034SOL     OW76143   6.560   8.182   2.455  0.1184 -0.0580 -0.8688
24034SOL    HW176144   6.554   8.216   2.366  0.6058  0.8097 -0.5830
24034SOL    HW276145   6.478   8.210   2.497  0.4853  0.7288 -0.6558
24035SOL     OW76146   9.205   5.647   0.171 -0.5405 -0.2851 -0.0831
24035SOL    HW176147   9.184   5.568   0.219  0.0056  0.7045  1.8843
24035SOL    HW276148   9.229   5.711   0.238 -0.9984  1.5733 -1.5903
24036SOL     OW76149   6.191   0.439   4.267 -0.3923 -0.4444  0.5859
24036SOL    HW176150   6.166   0.370   4.206  1.1735 -0.1462 -0.4603
24036SOL    HW276151   6.166   0.406   4.353  0.8865 -2.6259  0.1893
24037SOL     OW76152   5.221   2.740   9.650  0.5137 -0.0341  0.2075
24037SOL    HW176153   5.302   2.746   9.598  1.4271 -0.7561  1.4974
24037SOL    HW276154   5.249   2.757   9.740 -0.7457 -0.5126  0.7044
24038SOL     OW76155   8.995   6.906   5.893 -0.1985 -0.3958  0.2419
24038SOL    HW176156   9.050   6.894   5.816 -0.1310 -0.2335  0.2664
24038SOL    HW276157   8.922   6.845   5.880  1.3822 -2.7103  1.5309
24039SOL     OW76158   9.794   1.918   4.024  0.2662  0.2448 -0.5479
24039SOL    HW176159   9.720   1.875   3.980  0.0899 -1.5187  1.3161
24039SOL    HW276160   9.764   2.008   4.038 -1.1366 -0.1655 -0.7526
24040SOL     OW76161   0.580   0.352   0.373  0.0172 -0.8472 -0.5037
24040SOL    HW176162   0.549   0.441   0.357  0.2817 -0.6457  0.0764
24040SOL    HW276163   0.589   0.346   0.468  0.0792 -1.4672 -0.5415
24041SOL     OW76164   1.053   5.244   8.360 -0.0743 -0.0927 -0.2363
24041SOL    HW176165   1.058   5.150   8.342  1.2124 -0.3515  1.3126
24041SOL    HW276166   0.990   5.252   8.431  2.0131 -0.1615  1.7175
24042SOL     OW76167   7.267   3.991   3.622 -0.2831 -0.4468  0.0782
24042SOL    HW176168   7.325   4.064   3.600 -0.8868 -0.0745 -0.3273
24042SOL    HW276169   7.285   3.973   3.714 -0.1346  0.2347  0.1887
24043SOL     OW76170   6.854   0.092   3.094  0.0247 -0.0141 -0.0009
24043SOL    HW176171   6.897   0.010   3.121  3.1359  1.2039 -0.7486
24043SOL    HW276172   6.877   0.154   3.164 -0.5967  0.6881 -0.4150
24044SOL     OW76173   7.763   4.438   9.605 -0.1411  0.3512 -0.3246
24044SOL    HW176174   7.830   4.441   9.537 -0.9727  0.9120 -1.1519
24044SOL    HW276175   7.753   4.529   9.633  1.4203 -0.0652  1.8307
24045SOL     OW76176   6.972  10.241   6.962  0.3568 -0.4118 -0.1932
24045SOL    HW176177   6.877  10.249   6.960  0.4685  2.2464  0.6644
24045SOL    HW276178   7.000  10.260   6.872  0.1374  1.0878  0.0302
24046SOL     OW76179   1.600   1.453   8.489  0.0442  0.0423  0.3142
24046SOL    HW176180   1.542   1.450   8.565 -1.4412 -2.0822 -0.7874
24046SOL    HW276181   1.575   1.377   8.437  1.9152  0.6709 -1.6629
24047SOL     OW76182   2.340   9.636   2.876  0.0224 -0.2857 -0.6010
24047SOL    HW176183   2.300   9.634   2.789 -0.0595  0.3259 -0.5813
24047SOL    HW276184   2.268   9.662   2.935  0.2644  0.0810 -0.4624
24048SOL     OW76185   9.223   8.521   4.866 -0.4262 -0.3831 -0.0406
24048SOL    HW176186   9.174   8.505   4.947  1.2958  0.2228  1.1945
24048SOL    HW276187   9.288   8.587   4.890 -0.6794  0.7737 -2.2819
24049SOL     OW76188   5.022   8.981   7.680  0.0036 -0.1790  0.7103
24049SOL    HW176189   5.082   9.039   7.727  2.6914 -1.9032 -0.3910
24049SOL    HW276190   4.946   8.974   7.739  1.6458  0.6211  3.0981
24050SOL     OW76191   9.598   0.327   8.738 -0.6320  0.0752  0.3840
24050SOL    HW176192   9.545   0.279   8.675 -1.9847  1.9199  0.0150
24050SOL    HW276193   9.585   0.280   8.820 -1.1532 -0.7251 -0.1382
24051SOL     OW76194   9.915   4.840   6.198  0.1182  0.2697 -0.1861
24051SOL    HW176195   9.956   4.787   6.265  1.5687  1.6629  0.0759
24051SOL    HW276196   9.849   4.892   6.244 -0.0980 -0.0281 -0.1555
24052SOL     OW76197   6.898   9.455   7.810  0.2137 -0.2305 -0.1163
24052SOL    HW176198   6.858   9.495   7.887  2.3204  2.0342 -0.0769
24052SOL    HW276199   6.824   9.432   7.754 -1.2647  0.2611  1.5214
24053SOL     OW76200   3.717   2.041   8.330 -0.2923 -0.1318  0.1502
24053SOL    HW176201   3.755   2.065   8.415  0.8079 -1.7218  0.1416
24053SOL    HW276202   3.635   1.997   8.353 -0.4954  0.3404  0.3373
24054SOL     OW76203   0.328   9.006   8.447 -0.6511 -0.0663  0.2822
24054SOL    HW176204   0.309   9.084   8.498  2.0265 -0.0880  1.4862
24054SOL    HW276205   0.298   8.933   8.501  1.6263 -0.0560  1.6881
24055SOL     OW76206   5.452   4.717   8.484  0.1239  0.0651  0.5950
24055SOL    HW176207   5.534   4.689   8.442  1.1832  3.2125  0.3011
24055SOL    HW276208   5.383   4.690   8.423  1.3474  1.3065 -1.4441
24056SOL     OW76209   4.957   1.285   4.144 -0.3399 -0.3068 -0.0470
24056SOL    HW176210   4.921   1.336   4.217 -0.0148 -0.4569  0.2197
24056SOL    HW276211   4.925   1.196   4.159 -2.2327  0.0933 -1.3758
24057SOL     OW76212   2.760   3.460   6.965 -0.3271  0.0036 -0.1492
24057SOL    HW176213   2.819   3.447   7.039 -0.7657  1.3182  0.4652
24057SOL    HW276214   2.734   3.372   6.939  2.1335 -0.6517 -0.6672
24058SOL     OW76215   2.936   1.058   0.335 -0.2405  0.0243 -0.3652
24058SOL    HW176216   3.003   1.044   0.402 -1.6423 -0.9082  0.9077
24058SOL    HW276217   2.945   0.983   0.276 -1.8060 -1.5714  1.2986
24059SOL     OW76218   6.111   7.603   7.543  0.1556 -0.1173  0.4755
24059SOL    HW176219   6.040   7.578   7.484 -0.7539 -0.1297  1.5477
24059SOL    HW276220   6.184   7.547   7.518 -0.2822 -0.2882 -0.4682
24060SOL     OW76221   5.407   7.448   0.780 -0.2430 -0.4924  0.2675
24060SOL    HW176222   5.463   7.513   0.738 -2.7784  0.6490 -1.6084
24060SOL    HW276223   5.373   7.395   0.708 -1.9535 -0.7745  1.2162
24061SOL     OW76224   2.918   7.394  10.254  0.2137  0.0625  0.3066
24061SOL    HW176225   3.009   7.409  10.228 -0.0893  0.5011 -0.5466
24061SOL    HW276226   2.923   7.373  10.347  0.9745  2.5735  0.9141
24062SOL     OW76227   3.346   3.937   3.735 -0.1745  0.7107 -1.1025
24062SOL    HW176228   3.298   3.861   3.703 -1.2207  1.5544 -1.5899
24062SOL    HW276229   3.432   3.931   3.692  0.0060 -0.5156 -0.6388
24063SOL     OW76230   9.440   3.756   9.495  0.2973 -0.1566 -0.1584
24063SOL    HW176231   9.452   3.817   9.422  1.7289  0.7278  0.7762
24063SOL    HW276232   9.487   3.677   9.468  0.1912 -0.1060 -0.5013
24064SOL     OW76233   4.063  10.083   9.733  0.0268  0.2062 -0.4843
24064SOL    HW176234   4.039  10.045   9.817  0.1836  0.7693 -0.1853
24064SOL    HW276235   4.013  10.164   9.727 -0.4019 -0.0937 -1.1811
24065SOL     OW76236   6.951   3.687   8.063  0.2649  0.2945 -0.6827
24065SOL    HW176237   7.021   3.733   8.108 -0.9556  2.7931 -1.1428
24065SOL    HW276238   6.876   3.692   8.122 -0.1408 -0.3049 -1.1316
24066SOL     OW76239   5.228   0.689   3.992 -0.6997 -0.0949  0.2822
24066SOL    HW176240   5.216   0.780   4.019  0.2007  0.0942  0.0925
24066SOL    HW276241   5.299   0.657   4.048  1.1680  0.2811 -1.7276
24067SOL     OW76242   4.763   5.498   9.734 -0.2585  0.1576  0.7504
24067SOL    HW176243   4.812   5.521   9.813  2.4784 -2.0145 -0.1593
24067SOL    HW276244   4.720   5.416   9.755  0.5449 -0.4716  0.0216
24068SOL     OW76245   4.589   5.716   7.654 -0.0497 -0.1173  0.2330
24068SOL    HW176246   4.667   5.719   7.599 -0.1931  0.2513  0.0470
24068SOL    HW276247   4.549   5.631   7.634 -0.1473  0.0508 -0.2958
24069SOL     OW76248   9.728   9.890   4.512 -0.6207  0.3639  0.3670
24069SOL    HW176249   9.776   9.970   4.537  0.7416 -0.9073  2.0781
24069SOL    HW276250   9.697   9.908   4.423  1.9213  1.7866 -0.3352
24070SOL     OW76251   3.794   3.266   3.747 -0.2569 -0.2164  0.3786
24070SOL    HW176252   3.801   3.181   3.703  1.3198  0.5817 -1.0148
24070SOL    HW276253   3.779   3.329   3.677  0.6801  0.9008  1.1323
24071SOL     OW76254   7.034   2.178   1.923  0.0659 -0.3848  0.2650
24071SOL    HW176255   7.014   2.141   2.009 -1.7916 -0.0899  0.0216
24071SOL    HW276256   6.960   2.151   1.868  0.7336  0.2323 -0.9880
24072SOL     OW76257   5.682   5.950   2.337 -0.0286 -0.5910  0.3739
24072SOL    HW176258   5.701   5.949   2.243 -0.4604  0.7225  0.2498
24072SOL    HW276259   5.768   5.958   2.378  0.0472  1.0487 -0.0200
24073SOL     OW76260   3.547   4.844   7.041  0.1575  0.5991  0.0074
24073SOL    HW176261   3.607   4.793   7.094  0.5372  0.9174 -0.1126
24073SOL    HW276262   3.575   4.828   6.951  0.4338  1.2093 -0.0180
24074SOL     OW76263   8.385   8.516   2.176 -0.0119 -0.4234 -0.3611
24074SOL    HW176264   8.455   8.541   2.115  1.0340  0.9879  1.3466
24074SOL    HW276265   8.358   8.429   2.147  0.1948  0.3147 -3.0374
24075SOL     OW76266   1.707   9.629   9.166  0.4409  0.1965  0.0831
24075SOL    HW176267   1.801   9.645   9.156  0.4233  0.5383  0.4602
24075SOL    HW276268   1.680   9.686   9.237 -0.2427  0.8285 -0.6610
24076SOL     OW76269   0.397   4.394   4.602  0.1901 -0.3908  0.2552
24076SOL    HW176270   0.489   4.420   4.596 -0.2041  0.9089 -0.5926
24076SOL    HW276271   0.364   4.404   4.513 -0.7552 -0.9437  0.5352
24077SOL     OW76272   4.633   5.795   8.818  0.6197  0.1994 -0.0850
24077SOL    HW176273   4.554   5.832   8.779 -0.3295 -2.2991 -0.7458
24077SOL    HW276274   4.633   5.704   8.788  2.1226 -0.6924  2.4007
24078SOL     OW76275   6.357   3.578   6.457  0.4056  0.2845  0.0384
24078SOL    HW176276   6.391   3.546   6.540 -1.4434 -2.2266 -0.0576
24078SOL    HW276277   6.264   3.596   6.474  0.3131  1.0761 -1.1518
24079SOL     OW76278   8.707   5.187   2.077  0.1779 -0.6919 -0.5720
24079SOL    HW176279   8.733   5.263   2.025  0.0764 -1.0033 -1.0749
24079SOL    HW276280   8.769   5.118   2.052  0.1490 -0.8350 -0.2573
24080SOL     OW76281   1.986   2.280   4.207 -0.0132  0.6029 -0.1651
24080SOL    HW176282   1.902   2.293   4.163 -0.2718  0.3184  0.2241
24080SOL    HW276283   1.962   2.271   4.300  0.4139  0.1901 -0.0925
24081SOL     OW76284   0.486   7.921   5.769 -0.3230 -0.3749 -0.0030
24081SOL    HW176285   0.438   7.873   5.836  0.3967 -1.1190 -0.0021
24081SOL    HW276286   0.427   7.925   5.694 -0.7376 -0.4390  0.3195
24082SOL     OW76287   9.321   5.839   2.972 -0.3195 -0.0180  0.5834
24082SOL    HW176288   9.337   5.755   2.929  0.0246 -0.4245  1.4819
24082SOL    HW276289   9.398   5.854   3.026  0.3165  1.6173 -0.6856
24083SOL     OW76290   4.724   7.489   1.860 -0.0561 -0.5344  0.1136
24083SOL    HW176291   4.803   7.524   1.902 -0.3076 -1.4186  1.3912
24083SOL    HW276292   4.666   7.564   1.850  1.6213  0.5398 -2.6099
24084SOL     OW76293   8.460   3.464   8.827  0.3240 -0.1514  0.6510
24084SOL    HW176294   8.538   3.504   8.788 -0.5475  0.7281 -0.2840
24084SOL    HW276295   8.442   3.388   8.772  0.7014 -0.5489  1.0697
24085SOL     OW76296   9.232   1.018   3.510  0.2074  0.5099  0.2949
24085SOL    HW176297   9.311   1.001   3.561  0.7576  2.7906  0.2807
24085SOL    HW276298   9.261   1.068   3.435 -1.1757  0.9605  0.0178
24086SOL     OW76299   3.046   9.168   1.007  0.1116  0.8312 -0.1205
24086SOL    HW176300   3.032   9.228   1.079 -1.5690 -0.2248  0.4854
24086SOL    HW276301   3.116   9.110   1.038 -0.0101  0.9091  0.3090
24087SOL     OW76302   8.353   3.779   7.031 -0.2348  0.1290 -0.0050
24087SOL    HW176303   8.348   3.840   6.957  0.5609 -0.7196 -0.8067
24087SOL    HW276304   8.435   3.801   7.075  0.9859 -1.4065 -1.3406
24088SOL     OW76305  10.197   7.792   2.856  0.5478  0.3120 -0.2659
24088SOL    HW176306  10.133   7.835   2.800 -1.2257  0.2079  1.5614
24088SOL    HW276307  10.188   7.699   2.836 -0.7021  0.1901  0.7150
24089SOL     OW76308   5.525   3.517   2.217  0.2219  0.1762 -0.1434
24089SOL    HW176309   5.496   3.474   2.137  1.4076  2.3008 -1.8112
24089SOL    HW276310   5.590   3.457   2.254 -0.1306 -0.7090 -0.9073
24090SOL     OW76311   6.511   8.068   7.197 -0.3457  0.2060  0.1051
24090SOL    HW176312   6.535   8.013   7.123  2.2131 -0.6417  1.4564
24090SOL    HW276313   6.573   8.141   7.195 -0.3876  0.3013  1.2622
24091SOL     OW76314   5.464   1.808   7.869 -0.3385 -0.0823 -0.6120
24091SOL    HW176315   5.535   1.746   7.884 -0.4223 -0.4074 -1.4983
24091SOL    HW276316   5.491   1.857   7.791 -1.2545 -0.4733 -1.1919
24092SOL     OW76317   2.430   8.328   1.576  0.1530  0.2198  0.0404
24092SOL    HW176318   2.398   8.310   1.664 -3.1922 -1.3589 -1.3167
24092SOL    HW276319   2.468   8.245   1.547 -1.2604 -0.1493 -0.8717
24093SOL     OW76320   5.733   3.930   1.087 -0.1581  0.3178 -0.0626
24093SOL    HW176321   5.772   3.850   1.051  2.3745  0.9373  1.0957
24093SOL    HW276322   5.721   3.987   1.011  0.0732 -0.3384 -0.5971
24094SOL     OW76323   5.610   6.495   2.195 -0.0839  0.0755  0.3418
24094SOL    HW176324   5.558   6.549   2.136 -0.9820 -0.0706  0.9871
24094SOL    HW276325   5.655   6.558   2.252 -0.6424  0.1684  0.6852
24095SOL     OW76326   5.127   4.808   4.372 -0.3742 -0.1482 -0.2426
24095SOL    HW176327   5.064   4.740   4.345  0.0997 -1.2388  1.3074
24095SOL    HW276328   5.079   4.890   4.360 -1.7564 -0.8894 -0.0244
24096SOL     OW76329   4.426   4.644   3.672  0.5205 -0.7678  0.5599
24096SOL    HW176330   4.435   4.640   3.767 -0.4751 -0.8399  0.6648
24096SOL    HW276331   4.344   4.599   3.654  1.5847 -2.4188 -0.5002
24097SOL     OW76332   0.628   7.573   2.471  0.4204  0.2761  0.1849
24097SOL    HW176333   0.569   7.559   2.545  0.9586  1.3501  0.8625
24097SOL    HW276334   0.571   7.589   2.396 -0.1535  0.8743  0.7374
24098SOL     OW76335   3.669   7.582   4.280 -0.3315  0.0194 -0.0470
24098SOL    HW176336   3.706   7.575   4.367  0.4480 -2.4381 -0.5120
24098SOL    HW276337   3.590   7.528   4.282 -1.5792  1.7090 -0.3076
24099SOL     OW76338   8.508   1.558   3.177  0.4160  0.2491 -0.0982
24099SOL    HW176339   8.456   1.628   3.136  1.5224  0.8908 -0.4517
24099SOL    HW276340   8.552   1.601   3.250  0.8654 -0.1473 -0.1333
24100SOL     OW76341   7.168   1.348   3.941 -0.3759  0.2287 -0.0250
24100SOL    HW176342   7.089   1.310   3.979 -1.4989  1.1139 -1.3494
24100SOL    HW276343   7.177   1.433   3.984  0.1769 -0.0969  0.5114
24101SOL     OW76344   4.708   5.955   7.879 -0.0716  0.2433  0.3449
24101SOL    HW176345   4.692   6.018   7.950 -0.9482 -0.3629  0.7115
24101SOL    HW276346   4.740   6.009   7.807 -1.0151  1.1539  0.5736
24102SOL     OW76347   6.743   7.676   3.367  0.0815  0.1821  0.4337
24102SOL    HW176348   6.761   7.760   3.410 -0.3553  1.0043 -0.9285
24102SOL    HW276349   6.827   7.651   3.328  0.8105 -1.2012  2.7442
24103SOL     OW76350   6.876   0.018   4.557 -0.8203 -0.4181  0.0128
24103SOL    HW176351   6.879   0.031   4.652  0.8654  1.4484 -0.2331
24103SOL    HW276352   6.946   0.074   4.522 -1.0001 -1.5046 -2.3007
24104SOL     OW76353   8.654   2.312   0.348  0.2966 -0.0573  0.1237
24104SOL    HW176354   8.666   2.220   0.370  1.5909  0.2885  0.9292
24104SOL    HW276355   8.714   2.328   0.276 -0.8661 -0.1310 -0.9063
24105SOL     OW76356   4.914   1.364   0.077 -0.4758  0.6920  0.1513
24105SOL    HW176357   4.925   1.450   0.118  0.2392  1.2199 -1.0791
24105SOL    HW276358   4.955   1.374  -0.009  0.6897 -1.2629  0.4412
24106SOL     OW76359   8.374   6.436   9.615  0.8209 -0.3286 -0.0675
24106SOL    HW176360   8.385   6.449   9.709 -1.1585  0.4748  0.1166
24106SOL    HW276361   8.461   6.413   9.583  1.4508 -1.0619  2.0169
24107SOL     OW76362   7.624   3.162   2.921 -0.6338  0.1602  0.2769
24107SOL    HW176363   7.571   3.232   2.882 -2.3077 -0.9465  0.4291
24107SOL    HW276364   7.560   3.093   2.940  1.0262 -1.6257 -0.3789
24108SOL     OW76365   7.948   8.389   6.227  0.0809  0.0143 -0.1144
24108SOL    HW176366   7.894   8.426   6.296  0.0234 -0.7109  0.2402
24108SOL    HW276367   8.007   8.328   6.273  0.5297  0.0658 -0.6132
24109SOL     OW76368   0.575   3.405   7.601  0.3425  0.2424  0.2039
24109SOL    HW176369   0.523   3.410   7.521  0.9007  0.7881 -0.1298
24109SOL    HW276370   0.541   3.327   7.647 -0.0590 -0.0036 -0.4975
24110SOL     OW76371   8.285   2.351   0.549  0.2357  0.1349 -0.1785
24110SOL    HW176372   8.351   2.326   0.613  0.5163  0.3701 -0.3761
24110SOL    HW276373   8.211   2.382   0.601 -1.6963 -4.4488  0.3718
24111SOL     OW76374   1.430   2.971   6.895 -0.5196 -0.2995  0.3902
24111SOL    HW176375   1.364   2.912   6.859  0.3763 -1.1163  0.0432
24111SOL    HW276376   1.393   3.000   6.978 -0.0245 -3.2716  1.8137
24112SOL     OW76377   6.879   4.705   4.544 -0.2603  0.3510  0.4976
24112SOL    HW176378   6.875   4.730   4.451  0.2214  0.5202  0.5195
24112SOL    HW276379   6.886   4.610   4.543  1.6020  0.4422  0.2809
24113SOL     OW76380   2.663   4.853   1.845  0.4310 -0.1557 -0.5691
24113SOL    HW176381   2.600   4.786   1.873  1.0201 -0.0847  1.0356
24113SOL    HW276382   2.690   4.826   1.757  1.6760 -2.8317  0.5159
24114SOL     OW76383   5.821   8.330   2.360 -0.0175 -0.3424  0.4286
24114SOL    HW176384   5.897   8.388   2.362 -0.4278  0.1754  1.9319
24114SOL    HW276385   5.794   8.329   2.268 -0.4351  2.4223  0.4486
24115SOL     OW76386   6.877   4.002   0.450 -0.4410  0.2599 -0.1119
24115SOL    HW176387   6.890   4.089   0.488  0.5474  0.3313 -0.5717
24115SOL    HW276388   6.921   3.942   0.510  0.9666  0.3533 -0.9874
24116SOL     OW76389   8.891   4.018   7.579  0.0956  0.2783 -0.3212
24116SOL    HW176390   8.957   4.088   7.578  1.5132 -0.9709 -2.4713
24116SOL    HW276391   8.811   4.061   7.550  0.7514  1.1870 -0.8474
24117SOL     OW76392   2.129  10.262   1.816 -0.0539 -0.0950 -0.1141
24117SOL    HW176393   2.202  10.249   1.755  1.1106 -0.1778  1.2573
24117SOL    HW276394   2.119  10.178   1.860 -1.4155 -0.2778 -0.7027
24118SOL     OW76395   5.805   3.463   1.939 -0.2808 -0.2374 -0.2467
24118SOL    HW176396   5.804   3.480   2.033  0.8427 -2.6851  0.2779
24118SOL    HW276397   5.845   3.541   1.901 -1.8030  1.2998  1.1239
24119SOL     OW76398   1.967   5.047   7.733  0.5378 -0.1400  0.2845
24119SOL    HW176399   1.887   5.031   7.682  0.0683 -1.0246  1.2498
24119SOL    HW276400   1.966   4.978   7.800  1.1236  0.9913  1.4854
24120SOL     OW76401   1.769   3.645   2.334  0.6265 -0.0433  0.6593
24120SOL    HW176402   1.680   3.623   2.308  0.9384  1.8165 -2.4191
24120SOL    HW276403   1.778   3.739   2.315  2.8273  0.1815  2.2914
24121SOL     OW76404   0.209   0.551   1.039  0.1674  0.2601  0.3362
24121SOL    HW176405   0.122   0.511   1.046  0.3771 -0.2604 -0.0273
24121SOL    HW276406   0.270   0.478   1.039  0.4786  0.4547 -1.8323
24122SOL     OW76407   0.051   4.114   8.641 -0.1678  0.5176 -0.6447
24122SOL    HW176408   0.098   4.036   8.611  0.1519  0.6084 -0.3763
24122SOL    HW276409  -0.001   4.083   8.715  1.2843  0.9260  0.5789
24123SOL     OW76410   8.093   4.525   2.269  0.1657  0.7849 -0.4604
24123SOL    HW176411   8.102   4.615   2.238 -4.2093  1.3196 -0.7659
24123SOL    HW276412   8.101   4.471   2.190  0.5876  1.0966 -0.6319
24124SOL     OW76413   9.876   5.821   2.409 -0.3881  0.3001 -0.0553
24124SOL    HW176414   9.919   5.885   2.353  0.0426  0.3335  0.3089
24124SOL    HW276415   9.939   5.804   2.480 -0.9227  0.2656  0.4226
24125SOL     OW76416   8.203   7.606   6.381 -0.5606  0.2125 -0.2600
24125SOL    HW176417   8.158   7.649   6.454  0.5951  0.2736  0.4404
24125SOL    HW276418   8.285   7.573   6.419  0.3179  0.7145 -1.6447
24126SOL     OW76419   4.776   0.354   8.443 -0.9518 -0.1037  0.9250
24126SOL    HW176420   4.828   0.432   8.424 -0.4835 -1.1010 -2.6652
24126SOL    HW276421   4.691   0.372   8.402 -0.5532 -1.7092 -0.7636
24127SOL     OW76422   1.702   0.203   4.572  0.4398 -0.3128  0.2640
24127SOL    HW176423   1.657   0.122   4.552  0.7861 -0.6302  0.7385
24127SOL    HW276424   1.792   0.177   4.592  1.6046  0.5493 -3.2071
24128SOL     OW76425   2.979   3.955   3.381  0.5942  0.3193  0.1477
24128SOL    HW176426   2.899   3.937   3.429  0.8877  0.4646  0.7021
24128SOL    HW276427   2.990   4.050   3.385  1.0044  0.2638  0.4244
24129SOL     OW76428   6.112   2.026   8.310 -0.5220  0.5825  0.2070
24129SOL    HW176429   6.064   2.048   8.390  2.3700  0.7036  2.0444
24129SOL    HW276430   6.135   1.934   8.321  1.3552  1.0341  0.4054
24130SOL     OW76431   1.223   1.289   6.432  0.5915 -0.1904 -0.2950
24130SOL    HW176432   1.184   1.352   6.493 -0.3403 -0.5595 -0.4935
24130SOL    HW276433   1.151   1.263   6.375  1.0075 -1.2640 -0.3648
24131SOL     OW76434   6.993   4.767   8.144 -0.0063 -0.0760 -0.4109
24131SOL    HW176435   6.943   4.706   8.198  0.1241  0.8434  0.8068
24131SOL    HW276436   6.984   4.734   8.055 -1.6380 -0.7030 -0.0455
24132SOL     OW76437   7.184   3.954   2.946  0.2699 -0.7562  0.2626
24132SOL    HW176438   7.218   3.927   2.860 -1.4074 -0.9020 -0.3909
24132SOL    HW276439   7.259   3.948   3.004  1.4638 -0.6297 -1.2014
24133SOL     OW76440   6.489   7.793   6.526  0.3250  0.1037  0.4581
24133SOL    HW176441   6.575   7.824   6.497  0.8600 -2.3997 -0.9437
24133SOL    HW276442   6.435   7.872   6.530  2.1422  1.4902 -0.5879
24134SOL     OW76443   5.255   4.765   2.943  0.3179  0.3930  0.2038
24134SOL    HW176444   5.277   4.761   3.036  1.8599  0.9136 -0.1173
24134SOL    HW276445   5.278   4.854   2.916  2.3373 -0.4952 -1.2377
24135SOL     OW76446   1.418   9.018   2.610 -0.2970  0.1835  0.1226
24135SOL    HW176447   1.424   9.111   2.587 -0.7832  1.3262  3.9321
24135SOL    HW276448   1.502   8.981   2.582 -0.5073  1.4002 -2.4701
24136SOL     OW76449   6.234   9.288   2.149  0.1209 -0.2944  0.1817
24136SOL    HW176450   6.177   9.217   2.121  1.0481 -1.3595  0.8837
24136SOL    HW276451   6.175   9.353   2.187 -0.7346 -0.7261 -0.3842
24137SOL     OW76452   3.330   3.167   3.962 -0.4201  0.0172 -0.1601
24137SOL    HW176453   3.320   3.073   3.945 -0.0209 -0.0748  0.0804
24137SOL    HW276454   3.241   3.199   3.974 -0.5984 -0.2127 -0.8436
24138SOL     OW76455   0.870   3.305   1.169 -0.2032 -0.4937  0.2430
24138SOL    HW176456   0.902   3.353   1.093 -0.9896 -0.5486 -0.1312
24138SOL    HW276457   0.800   3.250   1.135 -1.0357  0.0027  1.1211
24139SOL     OW76458   0.176   6.417   3.686  0.0611 -0.5924  0.1639
24139SOL    HW176459   0.136   6.365   3.616  1.1800  0.2356 -1.1421
24139SOL    HW276460   0.119   6.493   3.695 -0.3581 -0.9444  0.5156
24140SOL     OW76461   7.833   3.612   6.823  0.0462  0.0649  0.7107
24140SOL    HW176462   7.851   3.631   6.915 -0.0868  0.7638  0.6016
24140SOL    HW276463   7.907   3.559   6.794  0.1224 -0.0965  1.2032
24141SOL     OW76464   8.473   0.607   1.511  0.0400 -0.5686  0.3133
24141SOL    HW176465   8.551   0.629   1.461 -1.0922 -0.8243 -1.6500
24141SOL    HW276466   8.414   0.566   1.448 -2.5107  1.4444  1.1867
24142SOL     OW76467   9.269   5.348   7.585 -0.1707  0.1344 -0.3828
24142SOL    HW176468   9.278   5.283   7.654 -2.0665 -0.9392 -1.0881
24142SOL    HW276469   9.212   5.415   7.622 -0.0854  0.2529 -0.4613
24143SOL     OW76470   3.537   2.658   0.155 -0.1084  0.0370  0.0096
24143SOL    HW176471   3.506   2.571   0.179 -0.3242  0.1475  0.1319
24143SOL    HW276472   3.497   2.716   0.219  1.0696  0.0785  0.7365
24144SOL     OW76473   6.570   3.243   3.794 -0.3098 -0.2529 -0.8182
24144SOL    HW176474   6.538   3.162   3.754 -1.0608  0.5797 -1.9602
24144SOL    HW276475   6.631   3.279   3.729  1.0920 -0.5559  0.2673
24145SOL     OW76476   9.925   8.272   8.736 -0.2421 -0.1256 -0.6232
24145SOL    HW176477   9.835   8.262   8.705 -0.0818 -0.0927 -1.0963
24145SOL    HW276478   9.932   8.366   8.756 -0.1555 -0.0383 -1.0652
24146SOL     OW76479   1.566  10.215   1.044 -0.2571 -0.0111  0.6556
24146SOL    HW176480   1.478  10.181   1.061  0.0815 -1.6151 -0.5760
24146SOL    HW276481   1.613  10.141   1.005  1.5752  0.8855  1.0666
24147SOL     OW76482   7.557   9.079   6.167 -0.6811  0.0006  0.2598
24147SOL    HW176483   7.550   8.989   6.197  2.1962 -0.0400  1.1187
24147SOL    HW276484   7.583   9.128   6.245 -0.3365  1.2245 -0.6031
24148SOL     OW76485   8.212   4.251   7.918  0.4284 -0.0751  0.2063
24148SOL    HW176486   8.289   4.267   7.973  0.9443 -0.3539 -0.4304
24148SOL    HW276487   8.176   4.168   7.952  0.5067 -0.0351  0.3912
24149SOL     OW76488   3.855   8.540   2.815 -0.6453  0.3314 -0.0442
24149SOL    HW176489   3.879   8.626   2.779 -1.7224  0.9477  0.6501
24149SOL    HW276490   3.805   8.498   2.746  3.5025 -1.6569 -2.1911
24150SOL     OW76491   7.770   5.021   3.776 -0.4927  0.6147  0.5077
24150SOL    HW176492   7.821   5.078   3.833  0.0478  0.2100  0.4345
24150SOL    HW276493   7.679   5.035   3.803 -0.1966 -0.1403  2.0099
24151SOL     OW76494   0.786   1.590   4.446 -0.6882 -0.6980 -0.0324
24151SOL    HW176495   0.878   1.587   4.474  0.4009  0.2300 -3.1409
24151SOL    HW276496   0.770   1.682   4.426 -2.1932 -0.9191  0.0680
24152SOL     OW76497   6.306  10.024   3.227 -0.4791 -0.4683 -0.4352
24152SOL    HW176498   6.357  10.057   3.153  0.5635 -1.5143 -0.2303
24152SOL    HW276499   6.303  10.097   3.289 -1.0973  0.3146 -1.3498
24153SOL     OW76500   5.357   6.959   6.063 -0.2934  0.2827 -0.1400
24153SOL    HW176501   5.350   6.867   6.087  2.6082 -0.0420 -0.2537
24153SOL    HW276502   5.448   6.971   6.038 -0.9691  2.8307 -1.7649
24154SOL     OW76503   2.528   7.885   2.005 -0.2172 -0.1570  0.2605
24154SOL    HW176504   2.480   7.948   1.953 -0.6999 -0.0940  0.7829
24154SOL    HW276505   2.540   7.810   1.947 -0.2222  0.1507 -0.1374
24155SOL     OW76506  10.280   4.517   0.118  0.3054  0.7428  0.5640
24155SOL    HW176507  10.319   4.464   0.049 -1.3455  0.1004  0.1046
24155SOL    HW276508  10.295   4.466   0.198 -2.2153 -1.0422 -0.0031
24156SOL     OW76509   0.529   6.733   2.155  0.3391  0.1642 -0.3128
24156SOL    HW176510   0.485   6.790   2.219 -0.1227 -1.0056  0.4369
24156SOL    HW276511   0.470   6.732   2.080  1.2068  2.0957 -1.0839
24157SOL     OW76512   8.083   9.625   6.511 -0.8647 -0.0010 -0.6134
24157SOL    HW176513   8.136   9.665   6.441 -1.2542 -0.8277 -1.3951
24157SOL    HW276514   8.080   9.532   6.490 -0.6524 -0.3366  0.7448
24158SOL     OW76515   6.516   4.285   9.720  0.8015 -0.2639 -0.2518
24158SOL    HW176516   6.486   4.292   9.811 -0.1713 -0.8268 -0.5177
24158SOL    HW276517   6.608   4.259   9.728  1.1930  1.2447  0.5734
24159SOL     OW76518   8.119   8.141   9.411 -0.1650 -0.7652 -0.4429
24159SOL    HW176519   8.173   8.208   9.369  0.5367 -0.6104  0.6812
24159SOL    HW276520   8.177   8.065   9.417  0.3708 -0.2448  1.8273
24160SOL     OW76521   8.689   0.501   7.900  0.2330  0.3694 -0.1104
24160SOL    HW176522   8.630   0.554   7.846 -1.2344  1.0072  1.9756
24160SOL    HW276523   8.763   0.559   7.919  0.1173  0.5965 -0.3375
24161SOL     OW76524   5.495   3.687   0.477 -0.7225 -0.0967  0.5589
24161SOL    HW176525   5.567   3.749   0.475 -1.6013  0.9358 -0.8585
24161SOL    HW276526   5.503   3.637   0.396 -0.3590 -1.4772  1.4136
24162SOL     OW76527  10.055   2.740   4.613 -0.0207 -0.6515 -0.0912
24162SOL    HW176528  10.135   2.688   4.600  0.1309 -0.0101 -2.1105
24162SOL    HW276529  10.060   2.809   4.547 -1.3273  0.5776  1.0209
24163SOL     OW76530   4.590   0.599   9.221  0.0145 -0.4491 -0.1686
24163SOL    HW176531   4.626   0.684   9.246 -0.4828  0.0191 -0.9927
24163SOL    HW276532   4.666   0.546   9.196  0.3676 -0.4114  0.8116
24164SOL     OW76533   9.071   8.394   3.762 -0.1386  0.1124 -0.4954
24164SOL    HW176534   9.083   8.370   3.670  0.2604 -0.4284 -0.3127
24164SOL    HW276535   8.991   8.446   3.763 -0.6568 -0.6413 -1.0282
24165SOL     OW76536   7.542   5.148   9.775  0.4265  0.3009 -0.2542
24165SOL    HW176537   7.552   5.101   9.857  0.8196  1.8432  0.6353
24165SOL    HW276538   7.499   5.230   9.800 -1.9191 -0.2795 -1.9864
24166SOL     OW76539  10.296   8.799   6.489 -0.1350 -0.2291  0.0465
24166SOL    HW176540  10.321   8.825   6.401 -0.7491  0.5552  0.0894
24166SOL    HW276541  10.296   8.881   6.539 -0.0871 -0.6209  0.7011
24167SOL     OW76542   3.319   4.985   6.634 -0.0901  0.2963  0.0299
24167SOL    HW176543   3.397   4.981   6.579  0.2072 -0.1606  0.4734
24167SOL    HW276544   3.250   5.018   6.576  0.8475  2.5792  0.1199
24168SOL     OW76545   3.786   3.219   0.674 -0.4189 -0.5865 -0.0960
24168SOL    HW176546   3.743   3.137   0.696 -1.0326  0.1961  1.8536
24168SOL    HW276547   3.715   3.279   0.650  0.0092 -0.5666 -1.3857
24169SOL     OW76548   7.532   9.379   4.041 -0.1291  0.1687 -0.5320
24169SOL    HW176549   7.481   9.300   4.024 -0.2686 -0.0798  0.9059
24169SOL    HW276550   7.621   9.356   4.018  0.4934 -1.6314  2.9472
24170SOL     OW76551   4.761   2.408   1.285  0.5060 -0.8829 -0.0241
24170SOL    HW176552   4.819   2.350   1.333  0.0147 -1.1964  0.1933
24170SOL    HW276553   4.684   2.355   1.264 -0.7302  0.1317  1.6808
24171SOL     OW76554   4.372   3.111   4.372 -0.1373 -0.5137  0.7412
24171SOL    HW176555   4.459   3.076   4.355 -0.5075 -0.0307 -3.0238
24171SOL    HW276556   4.324   3.038   4.411  0.7351 -2.3784 -1.4636
24172SOL     OW76557   3.266   9.688   1.425  0.6974  0.5077 -0.1295
24172SOL    HW176558   3.269   9.743   1.347  2.5075  2.1255  0.9821
24172SOL    HW276559   3.351   9.644   1.426  0.7063  0.5190  0.9216
24173SOL     OW76560   8.596   1.741   1.364  0.1873  0.0180  0.7426
24173SOL    HW176561   8.591   1.678   1.435 -0.8464  0.1529  0.8088
24173SOL    HW276562   8.504   1.759   1.342  0.4396 -1.6112 -2.0472
24174SOL     OW76563   4.031   1.247   4.828 -0.5221 -0.0626  0.0164
24174SOL    HW176564   4.025   1.276   4.919  0.1024 -1.3283  0.4823
24174SOL    HW276565   3.971   1.173   4.823 -1.9862  1.1316 -1.1160
24175SOL     OW76566   6.890   2.606   8.421 -0.5363  0.1599 -0.2212
24175SOL    HW176567   6.864   2.684   8.470 -1.3230  0.5642 -1.2309
24175SOL    HW276568   6.859   2.533   8.473 -1.0826  0.5695  0.0442
24176SOL     OW76569   2.196   0.223   8.635 -0.1341 -0.0400  0.3273
24176SOL    HW176570   2.265   0.164   8.603  1.0764  1.5792 -0.1816
24176SOL    HW276571   2.115   0.181   8.606  0.6033 -1.9444  0.8385
24177SOL     OW76572   4.615   0.339   1.344 -0.1539  0.8010 -0.1159
24177SOL    HW176573   4.615   0.316   1.437 -0.1643  0.3676 -0.2217
24177SOL    HW276574   4.707   0.352   1.322  0.0178 -0.7486 -0.4408
24178SOL     OW76575   5.422   8.741   2.318  0.4049  0.1522  0.0930
24178SOL    HW176576   5.413   8.761   2.411  0.4239  0.2958  0.0658
24178SOL    HW276577   5.494   8.678   2.313  0.8269  0.6190  0.1235
24179SOL     OW76578   5.176   4.508   2.383  0.1745 -0.3630 -0.4947
24179SOL    HW176579   5.113   4.529   2.315 -0.6833 -1.6013 -0.0969
24179SOL    HW276580   5.260   4.500   2.337  0.2999  2.2271 -0.9019
24180SOL     OW76581   4.379   8.107   6.088  0.2573 -0.2652  0.3242
24180SOL    HW176582   4.327   8.187   6.092  0.2978 -0.2812  1.5559
24180SOL    HW276583   4.314   8.037   6.082  0.2185 -0.1642 -0.6085
24181SOL     OW76584   1.705   2.445   5.579  0.0305  0.2293  0.3409
24181SOL    HW176585   1.657   2.405   5.505  0.1628  0.4618  0.1272
24181SOL    HW276586   1.795   2.414   5.568 -0.1727 -0.6579  1.0606
24182SOL     OW76587   0.133   0.719   2.038 -0.0873  0.3190  0.0860
24182SOL    HW176588   0.043   0.697   2.016 -0.0537  1.4305 -1.3523
24182SOL    HW276589   0.186   0.673   1.973  0.2036  1.4753 -0.5328
24183SOL     OW76590   3.055  10.121   7.122  0.4072 -0.0800  0.1343
24183SOL    HW176591   3.077  10.131   7.214  0.1166  0.8955  0.1043
24183SOL    HW276592   2.964  10.150   7.115  0.7104  0.7184 -0.6116
24184SOL     OW76593   1.827   1.087   7.893  0.0292 -0.1124 -0.5748
24184SOL    HW176594   1.868   1.008   7.857  1.8760  0.9454 -0.8668
24184SOL    HW276595   1.774   1.121   7.821  1.5970  0.5229 -1.4645
24185SOL     OW76596   8.020   8.615   6.477  0.9259  0.2573 -0.0378
24185SOL    HW176597   7.936   8.623   6.523  0.8528 -1.9254  0.3504
24185SOL    HW276598   8.061   8.537   6.516  2.4511  0.3964 -1.2683
24186SOL     OW76599   3.728   2.416   4.261 -0.0176  0.3013  0.6514
24186SOL    HW176600   3.718   2.511   4.275  0.8803  0.3541  1.0157
24186SOL    HW276601   3.696   2.377   4.342 -0.4218  0.2936  0.4869
24187SOL     OW76602   1.083   5.522   3.521 -0.8938  0.2514 -0.3361
24187SOL    HW176603   1.119   5.548   3.605 -1.5488 -1.2534  0.4443
24187SOL    HW276604   0.990   5.504   3.538 -0.8013 -1.1367 -1.1183
24188SOL     OW76605   8.871   7.702   0.285  0.2638 -0.4482  0.0286
24188SOL    HW176606   8.871   7.658   0.371 -0.1191  0.9795  0.7816
24188SOL    HW276607   8.941   7.767   0.292  0.1351 -0.2234 -0.7137
24189SOL     OW76608   3.997   7.872   0.504  0.2574  0.3334  0.1196
24189SOL    HW176609   3.909   7.883   0.466 -0.3719  0.3320  1.5068
24189SOL    HW276610   3.991   7.792   0.556  0.8590  0.7251  0.8070
24190SOL     OW76611   6.173   8.353   4.191  0.0919  0.1845 -0.1411
24190SOL    HW176612   6.161   8.290   4.120 -0.1963 -2.2339  1.9129
24190SOL    HW276613   6.111   8.423   4.172 -1.5120 -1.4488 -1.1768
24191SOL     OW76614   7.964   5.219   8.259 -0.4105 -0.2044 -0.3894
24191SOL    HW176615   8.023   5.197   8.187  1.0365  0.4273  0.5551
24191SOL    HW276616   8.021   5.225   8.335 -1.7564  0.1489  0.6203
24192SOL     OW76617   5.612   1.887   7.621  0.3131 -0.3063 -0.3635
24192SOL    HW176618   5.656   1.900   7.538  1.6790  3.4567  0.7729
24192SOL    HW276619   5.677   1.843   7.676  0.2759 -0.6272 -0.5732
24193SOL     OW76620   8.451   6.834   1.492  0.5020  0.2591 -0.3419
24193SOL    HW176621   8.390   6.861   1.423 -0.6593 -1.8860 -0.2596
24193SOL    HW276622   8.403   6.851   1.573 -0.4761 -2.2204 -0.2961
24194SOL     OW76623   1.730   4.564   5.944  0.0876  0.2239  0.0659
24194SOL    HW176624   1.740   4.490   5.884 -2.8118  0.0082 -0.2908
24194SOL    HW276625   1.708   4.524   6.028 -2.9623  0.5483 -0.4469
24195SOL     OW76626   1.269   0.046   3.568  0.2161 -0.0488 -0.4255
24195SOL    HW176627   1.355   0.081   3.544  0.3694 -1.3372 -1.8666
24195SOL    HW276628   1.248   0.090   3.650  0.9798  2.4243 -1.4521
24196SOL     OW76629   6.179   4.931   6.266  1.1524  0.4489  0.0549
24196SOL    HW176630   6.180   5.021   6.232  3.1341  0.8003  0.8824
24196SOL    HW276631   6.128   4.882   6.203  0.1910  2.1175 -0.5320
24197SOL     OW76632   9.028   3.770   0.411  0.4704 -0.3024 -0.0293
24197SOL    HW176633   9.119   3.753   0.390  0.9607  0.8140  1.0580
24197SOL    HW276634   8.999   3.691   0.457  0.0698 -1.7636 -2.5894
24198SOL     OW76635   1.757   5.371   2.337  0.4027  0.2134 -0.0856
24198SOL    HW176636   1.712   5.395   2.256  0.4743 -0.0391 -0.2014
24198SOL    HW276637   1.689   5.375   2.405  0.4341  0.8282 -0.0889
24199SOL     OW76638   8.152   1.059   9.630 -0.3489  0.3965  0.0216
24199SOL    HW176639   8.066   1.088   9.600 -0.9133 -2.4826 -1.5049
24199SOL    HW276640   8.214   1.118   9.586 -1.4265  0.0147 -2.1381
24200SOL     OW76641   5.383   7.955   3.612  0.1702  0.6819 -0.2147
24200SOL    HW176642   5.355   7.922   3.526 -0.1190 -1.7554  0.7301
24200SOL    HW276643   5.363   7.884   3.673  0.8486  2.1272  1.8206
24201SOL     OW76644   1.336   0.476   4.169 -0.0964 -0.2960  0.7409
24201SOL    HW176645   1.369   0.528   4.243  1.6304  0.5298 -0.5488
24201SOL    HW276646   1.408   0.475   4.106 -1.3045 -1.4877 -0.6954
24202SOL     OW76647   3.527   8.496   9.211 -0.4926 -0.4939  0.5376
24202SOL    HW176648   3.572   8.528   9.289  0.3553 -0.8814  0.2223
24202SOL    HW276649   3.589   8.436   9.171 -0.3117  0.7901 -1.2256
24203SOL     OW76650   9.655   9.194   6.861  0.0940  0.0971  0.1115
24203SOL    HW176651   9.614   9.164   6.942  1.1619 -2.6549 -0.2567
24203SOL    HW276652   9.584   9.193   6.796  0.1991 -2.7344 -0.0821
24204SOL     OW76653   5.141   4.245   4.511 -0.4617 -0.1746  0.0387
24204SOL    HW176654   5.086   4.168   4.526 -0.4668 -0.1351  0.2269
24204SOL    HW276655   5.084   4.320   4.528 -0.5173 -0.1225 -0.3527
24205SOL     OW76656   1.749   4.847   1.504 -0.2060 -0.0788  0.0651
24205SOL    HW176657   1.779   4.842   1.413  0.2086  0.5261  0.1662
24205SOL    HW276658   1.686   4.775   1.512  0.2269 -0.5294 -0.5199
24206SOL     OW76659   3.061   1.087   6.930 -0.4402 -0.0732 -0.6141
24206SOL    HW176660   3.142   1.085   6.879 -0.0523  1.2205 -0.0777
24206SOL    HW276661   3.088   1.070   7.020 -0.7618  0.2819 -0.4439
24207SOL     OW76662   1.110   1.005   2.226 -0.0141  0.2916  0.1477
24207SOL    HW176663   1.138   1.082   2.275  1.8312  0.4769 -1.0901
24207SOL    HW276664   1.181   0.942   2.238 -0.5107 -0.4282 -0.5804
24208SOL     OW76665   2.386   7.644   5.140  0.7536  0.3053  0.2810
24208SOL    HW176666   2.395   7.569   5.199 -0.0414 -0.2663 -0.3036
24208SOL    HW276667   2.405   7.720   5.195 -1.0750 -0.1076  1.6136
24209SOL     OW76668   4.496   7.902   6.539  0.1715  0.3730  0.6357
24209SOL    HW176669   4.490   7.979   6.483  0.9788  0.3692  0.5274
24209SOL    HW276670   4.409   7.863   6.536 -0.0789  0.9443  0.2129
24210SOL     OW76671   7.250   6.222   6.979  0.4319  0.1441  0.1966
24210SOL    HW176672   7.332   6.180   7.003  0.2790 -1.4250 -1.7622
24210SOL    HW276673   7.261   6.243   6.886 -0.7423  1.5562  0.3357
24211SOL     OW76674   9.951   3.144  10.291  0.1191  0.2362  0.1931
24211SOL    HW176675  10.004   3.066  10.303  0.4105  0.7106  2.2582
24211SOL    HW276676   9.953   3.160  10.196  1.6865 -1.0948 -0.0338
24212SOL     OW76677   9.434   2.669   0.876  0.0550  0.4254 -0.1008
24212SOL    HW176678   9.464   2.646   0.788  0.8831  1.5227 -0.1197
24212SOL    HW276679   9.510   2.654   0.932 -1.0435 -2.3049  0.8280
24213SOL     OW76680   0.488   0.722   2.187 -0.0706  0.0533 -0.0761
24213SOL    HW176681   0.528   0.641   2.155  1.0041  0.1919  0.8684
24213SOL    HW276682   0.520   0.790   2.127 -0.7129 -0.1504 -0.6711
24214SOL     OW76683   7.626   5.658   3.829  0.0905  0.3049  1.0044
24214SOL    HW176684   7.592   5.589   3.885  1.1919 -0.4873  0.7350
24214SOL    HW276685   7.578   5.648   3.747  1.2163 -1.0997  0.4658
24215SOL     OW76686   1.062   9.752   8.971  0.2837  0.3176  0.2197
24215SOL    HW176687   1.028   9.673   9.013  1.6753  0.5778  1.9594
24215SOL    HW276688   1.019   9.824   9.015  1.3191  0.5851  0.8203
24216SOL     OW76689   1.429   0.799   5.150 -0.2371  0.0092  0.4223
24216SOL    HW176690   1.409   0.726   5.092  0.5006  0.0584  0.1090
24216SOL    HW276691   1.514   0.777   5.189 -0.6351  0.0580  1.3560
24217SOL     OW76692   2.436  10.115   7.774 -0.1868  0.0164  0.5113
24217SOL    HW176693   2.361  10.119   7.714  0.1345  1.0901  0.1738
24217SOL    HW276694   2.497  10.181   7.741 -0.4572  1.4151  2.6523
24218SOL     OW76695   7.802   7.088   7.532 -0.1669 -0.0976 -0.3019
24218SOL    HW176696   7.822   7.169   7.579 -0.0958  0.4967 -1.3273
24218SOL    HW276697   7.855   7.092   7.453 -1.4081 -0.3494 -1.1720
24219SOL     OW76698  10.122   2.934   5.452  1.0495  0.3841  0.2119
24219SOL    HW176699  10.074   3.012   5.423  1.2296  0.9837  1.4682
24219SOL    HW276700  10.091   2.918   5.541  1.3863 -0.7024  0.1525
24220SOL     OW76701   5.825   0.236   2.608 -0.4597 -0.1572 -0.6256
24220SOL    HW176702   5.861   0.265   2.524  2.9971  1.3125  1.1685
24220SOL    HW276703   5.870   0.154   2.626  1.8644  1.4166  1.3990
24221SOL     OW76704   1.368   4.140   0.857  0.0583 -0.6258  0.4398
24221SOL    HW176705   1.312   4.073   0.896 -0.1405  0.1930  1.6254
24221SOL    HW276706   1.457   4.110   0.876 -0.0030 -1.1585 -0.1015
24222SOL     OW76707   2.516   6.327   9.909 -0.0932 -0.4424  0.7016
24222SOL    HW176708   2.469   6.410   9.919  0.1650 -0.1339 -0.5056
24222SOL    HW276709   2.457   6.272   9.857  0.6273 -0.2343 -0.3798
24223SOL     OW76710   7.943   3.451   4.467 -0.1460 -0.4974  0.3320
24223SOL    HW176711   7.979   3.538   4.485 -1.5354  0.1927 -0.1000
24223SOL    HW276712   7.981   3.395   4.534 -0.4057  0.7572  1.5617
24224SOL     OW76713   4.265   0.683   4.323  0.3424 -0.3289  0.2248
24224SOL    HW176714   4.241   0.765   4.281 -3.3303 -1.9402 -1.2112
24224SOL    HW276715   4.322   0.639   4.260  0.8212  0.3173  0.2031
24225SOL     OW76716   2.946   7.360   4.272  0.0109 -0.3200 -0.0332
24225SOL    HW176717   2.887   7.414   4.325 -0.7933 -2.0125  0.8851
24225SOL    HW276718   3.011   7.329   4.334  1.4276  0.8353 -0.8749
24226SOL     OW76719   1.025   6.946   4.825  0.5133  0.5544  0.0355
24226SOL    HW176720   0.980   7.028   4.807 -1.0135  0.3189  2.2930
24226SOL    HW276721   0.992   6.885   4.758 -0.2880  1.1453 -0.1169
24227SOL     OW76722   0.533   6.833   8.157 -0.4085  0.3069 -0.5242
24227SOL    HW176723   0.467   6.855   8.223 -0.9317 -0.2953 -0.8470
24227SOL    HW276724   0.594   6.776   8.203  0.8198  2.1397  0.2497
24228SOL     OW76725   8.455   4.101   2.562  0.8320 -0.2528  0.7814
24228SOL    HW176726   8.489   4.188   2.541 -1.8206  0.6948 -0.0596
24228SOL    HW276727   8.499   4.043   2.500 -0.0238  1.1178 -1.2223
24229SOL     OW76728   8.145   6.307   7.742 -0.1134  0.5375  0.1422
24229SOL    HW176729   8.084   6.249   7.787 -0.9437  2.1893  1.2198
24229SOL    HW276730   8.095   6.386   7.723  0.5852  0.4635 -2.5104
24230SOL     OW76731   3.381   6.567   0.038  0.1861  0.6380  0.6359
24230SOL    HW176732   3.359   6.475   0.049  0.2764  0.6760  1.1979
24230SOL    HW276733   3.475   6.572   0.056  0.3991  0.6781 -0.4493
24231SOL     OW76734   6.413  10.268   1.227  0.3881 -0.1426  0.0792
24231SOL    HW176735   6.326  10.257   1.188 -0.0524  1.8285  0.4179
24231SOL    HW276736   6.469  10.294   1.153  0.4105 -0.1188  0.1048
24232SOL     OW76737   3.193   1.825   3.841  0.3613 -0.3329  0.5320
24232SOL    HW176738   3.131   1.763   3.879  0.7768 -1.2638 -0.2927
24232SOL    HW276739   3.262   1.771   3.803 -0.8096  0.4161 -3.0117
24233SOL     OW76740   6.080   8.818   1.761  0.7293 -0.8380 -0.2572
24233SOL    HW176741   6.065   8.905   1.799  2.5380 -0.1118 -1.0579
24233SOL    HW276742   5.996   8.773   1.769 -0.4613  1.2178 -0.4166
24234SOL     OW76743   4.932   1.541   1.451  0.7020  0.0856  0.2714
24234SOL    HW176744   5.017   1.496   1.446  0.5135 -0.2915  0.3810
24234SOL    HW276745   4.876   1.493   1.390  0.4637  0.1000  0.4785
24235SOL     OW76746   6.287   3.017   7.601  0.2048  0.8618  0.3501
24235SOL    HW176747   6.235   2.949   7.645  0.5570  0.0256 -0.4797
24235SOL    HW276748   6.222   3.078   7.566 -0.1152  1.0045  1.1762
24236SOL     OW76749   2.788   2.289   2.815  0.4575 -0.1407 -0.3183
24236SOL    HW176750   2.739   2.211   2.789  0.9202  0.0715 -1.9658
24236SOL    HW276751   2.859   2.255   2.870  1.1613 -1.0400 -1.7010
24237SOL     OW76752   5.844   4.010   3.082  0.4146  0.4931  0.3384
24237SOL    HW176753   5.940   4.013   3.073  0.4837 -1.6909 -0.1210
24237SOL    HW276754   5.812   3.999   2.993 -0.2073  0.2978  0.5803
24238SOL     OW76755   7.317   0.096   0.499  0.3370  0.0416 -0.0254
24238SOL    HW176756   7.375   0.172   0.508 -0.7378  0.8752 -0.0510
24238SOL    HW276757   7.314   0.079   0.405 -1.4775  1.6379 -0.3226
24239SOL     OW76758   7.689   4.821   2.248 -0.0581 -0.2712  0.1849
24239SOL    HW176759   7.629   4.773   2.191 -0.0724 -0.0476  0.0161
24239SOL    HW276760   7.773   4.777   2.236 -0.5159 -1.7216  1.7124
24240SOL     OW76761   7.938   6.665   7.110  0.2142 -0.0657 -0.0668
24240SOL    HW176762   7.968   6.596   7.169 -0.0059 -0.5518 -0.5175
24240SOL    HW276763   7.850   6.638   7.084 -0.6812  1.3894  1.3054
24241SOL     OW76764   5.481   1.508   7.724  0.4505  0.0733 -0.2275
24241SOL    HW176765   5.536   1.534   7.798 -1.2191  2.0411  0.4379
24241SOL    HW276766   5.392   1.532   7.751 -0.6442 -2.0440 -1.6418
24242SOL     OW76767   7.117   2.049   3.897  0.3687  0.4459 -0.0643
24242SOL    HW176768   7.022   2.058   3.908  0.2815 -0.1843 -0.2387
24242SOL    HW276769   7.146   2.007   3.978  0.4230  0.1994 -0.2093
24243SOL     OW76770   1.838   2.592   4.365 -0.7163 -0.3482 -0.1375
24243SOL    HW176771   1.867   2.579   4.455 -0.6790 -1.1093 -0.2498
24243SOL    HW276772   1.805   2.506   4.338 -1.0701 -0.0355 -0.7255
24244SOL     OW76773   2.559   7.800   3.890  0.0541 -0.2996  0.0370
24244SOL    HW176774   2.529   7.856   3.962  0.1563 -1.0122  0.6469
24244SOL    HW276775   2.502   7.822   3.817  0.0339  0.5308  0.2956
24245SOL     OW76776   3.983   1.830   0.352 -0.1178 -0.0221 -0.3919
24245SOL    HW176777   3.997   1.738   0.372 -0.0068  0.2361  0.8662
24245SOL    HW276778   3.902   1.852   0.399 -0.3637  0.4313 -1.0112
24246SOL     OW76779   4.717   1.501   8.826 -0.4508 -0.2092  0.0094
24246SOL    HW176780   4.709   1.408   8.848 -0.3632 -0.3660 -0.5848
24246SOL    HW276781   4.790   1.504   8.763  0.0248  0.3619  0.5841
24247SOL     OW76782   4.729   7.182   8.201  0.3477  0.0539 -0.3395
24247SOL    HW176783   4.741   7.148   8.290 -0.3629  0.1521 -0.1997
24247SOL    HW276784   4.773   7.267   8.202  0.1283  0.1646 -0.0104
24248SOL     OW76785   9.235   2.645   0.217 -0.1542  0.4376 -0.6924
24248SOL    HW176786   9.291   2.622   0.142  0.1130 -0.3366 -0.2667
24248SOL    HW276787   9.292   2.636   0.293 -0.7110  0.1869 -0.2999
24249SOL     OW76788   9.029   0.652   4.969 -0.2088  0.0166  0.1144
24249SOL    HW176789   9.042   0.663   5.063  0.4785  1.9891 -0.1637
24249SOL    HW276790   8.969   0.723   4.945  1.3931  0.9823 -1.2691
24250SOL     OW76791   1.306   4.120  10.042  0.0393  0.2171 -0.2241
24250SOL    HW176792   1.388   4.161  10.016  0.5134 -1.1366 -0.9785
24250SOL    HW276793   1.305   4.126  10.138  0.7433  0.7462 -0.2454
24251SOL     OW76794   2.103   2.135   9.920 -0.5115  0.0239  0.0890
24251SOL    HW176795   2.128   2.201   9.856 -0.5338  0.0035  0.0592
24251SOL    HW276796   2.076   2.060   9.866 -3.1152  0.9060  0.0568
24252SOL     OW76797   9.709   8.668  10.161 -0.1815 -0.0616 -0.2861
24252SOL    HW176798   9.645   8.690  10.094  0.7152  0.0447 -1.1321
24252SOL    HW276799   9.670   8.595  10.209 -0.8439 -0.1337 -0.9186
24253SOL     OW76800   2.423   1.499   9.663 -0.7185 -0.2398  0.0004
24253SOL    HW176801   2.359   1.569   9.656 -0.7200 -0.4260 -2.6139
24253SOL    HW276802   2.409   1.445   9.585 -0.5923 -3.0802  1.7878
24254SOL     OW76803   5.444   6.279   8.436 -0.0410  0.2157 -0.1627
24254SOL    HW176804   5.426   6.188   8.458  3.1982  0.0745  2.6803
24254SOL    HW276805   5.394   6.330   8.500  0.0725  0.3297 -0.1638
24255SOL     OW76806   6.068   9.064   2.111 -0.2510  0.3502  0.0339
24255SOL    HW176807   6.013   9.046   2.035 -0.4045  1.4296 -0.1236
24255SOL    HW276808   6.008   9.065   2.185  0.0834 -2.1380  0.4345
24256SOL     OW76809   2.762   9.420   1.063  0.3793  0.2246 -0.3348
24256SOL    HW176810   2.703   9.492   1.039  0.2793  0.2772  0.0632
24256SOL    HW276811   2.847   9.444   1.025 -0.2669 -0.7879 -2.6445
24257SOL     OW76812   4.619   8.567   1.843 -1.0005  0.1422  0.2127
24257SOL    HW176813   4.532   8.563   1.804 -1.0148 -0.1680  0.2747
24257SOL    HW276814   4.608   8.528   1.930 -0.4743 -1.3922 -0.3681
24258SOL     OW76815   1.879   8.606   6.237 -0.4475 -0.1342 -0.0094
24258SOL    HW176816   1.847   8.574   6.153 -1.1902 -1.9998  0.9069
24258SOL    HW276817   1.903   8.527   6.285  0.0112  0.8762  1.5152
24259SOL     OW76818   3.986   5.949   6.008 -0.3479 -0.5055 -0.0382
24259SOL    HW176819   4.050   5.926   6.076 -0.5608  0.2922  0.4528
24259SOL    HW276820   3.901   5.945   6.053 -0.4364  0.6132 -0.0909
24260SOL     OW76821   7.146   5.602   9.903 -0.1875 -0.0696 -0.0007
24260SOL    HW176822   7.221   5.575   9.957 -0.0728  1.7697  0.8414
24260SOL    HW276823   7.163   5.695   9.885 -2.0835  0.2900 -0.0992
24261SOL     OW76824   6.649   2.042   3.881  0.4462 -0.2524  0.4951
24261SOL    HW176825   6.690   1.958   3.864  0.1328 -0.0535 -1.4295
24261SOL    HW276826   6.711   2.088   3.938  2.4648 -0.3249 -1.5360
24262SOL     OW76827   4.446   2.421   3.465 -0.2175 -0.3803  0.1676
24262SOL    HW176828   4.510   2.404   3.534  0.4496  2.8814  0.4988
24262SOL    HW276829   4.492   2.398   3.384  0.1335 -1.1871  0.5807
24263SOL     OW76830   5.928   4.315   2.516 -0.0435  0.5888  0.0579
24263SOL    HW176831   5.994   4.373   2.479  0.2070 -0.0103 -0.4558
24263SOL    HW276832   5.844   4.358   2.500  0.1504  0.8716 -0.1918
24264SOL     OW76833   9.821   1.355   9.612 -0.2198  0.4156  1.1095
24264SOL    HW176834   9.791   1.265   9.629 -0.3015  0.4074  0.9234
24264SOL    HW276835   9.828   1.394   9.699 -2.7720  1.0618  1.0912
24265SOL     OW76836   4.843   9.807   0.621  0.0523  0.2654 -0.6342
24265SOL    HW176837   4.906   9.739   0.598 -0.8753 -0.5915 -0.7289
24265SOL    HW276838   4.826   9.794   0.714 -1.3168 -0.6884 -0.9858
24266SOL     OW76839   4.208   7.608  10.029 -0.4288  0.1241 -0.1533
24266SOL    HW176840   4.120   7.619   9.994 -0.4962  1.2535  0.3315
24266SOL    HW276841   4.204   7.646  10.117  0.7305  0.8989 -0.4118
24267SOL     OW76842   4.285   7.627   1.047  0.1205 -0.4377  0.0522
24267SOL    HW176843   4.225   7.641   1.119  1.1769  1.1006  0.6881
24267SOL    HW276844   4.364   7.677   1.071  0.7591 -0.4570 -1.8190
24268SOL     OW76845   7.254   6.312   6.723 -0.6429 -0.8547  0.4296
24268SOL    HW176846   7.316   6.372   6.682  0.4777 -2.3729 -0.1885
24268SOL    HW276847   7.172   6.361   6.726  0.2208  0.6897 -0.0492
24269SOL     OW76848   9.434   2.759   0.460  0.2368  0.6143  0.7658
24269SOL    HW176849   9.495   2.740   0.388  0.7803  1.3752  1.0157
24269SOL    HW276850   9.401   2.847   0.440  0.6797  0.9887  1.6335
24270SOL     OW76851   2.687  10.112   8.977  0.2328  0.1511  0.2819
24270SOL    HW176852   2.782  10.124   8.973  0.0960  0.9616 -1.0758
24270SOL    HW276853   2.651  10.197   8.952 -0.8518 -0.3025  0.2471
24271SOL     OW76854   2.664   8.260   9.919  0.5884 -0.2469  0.3145
24271SOL    HW176855   2.708   8.178   9.942  2.5301  0.9367  1.1092
24271SOL    HW276856   2.736   8.321   9.901 -0.7238  1.8138  1.6250
24272SOL     OW76857   1.601   3.976   6.956 -0.2933  0.5650  0.2486
24272SOL    HW176858   1.604   4.055   6.902 -1.3512  1.8563  1.9591
24272SOL    HW276859   1.558   4.004   7.037  0.6021 -1.4347  1.5004
24273SOL     OW76860  10.142   7.541   2.730  0.3654 -0.2964 -0.0043
24273SOL    HW176861  10.098   7.457   2.746 -1.1024  0.5629  0.6389
24273SOL    HW276862  10.229   7.529   2.767 -0.0400 -1.3155  0.6702
24274SOL     OW76863   9.973   7.195   2.336 -0.4827 -0.1344  0.0460
24274SOL    HW176864  10.056   7.217   2.379 -0.5361 -0.8370  0.5128
24274SOL    HW276865   9.934   7.128   2.391 -2.2056  1.3802  0.7818
24275SOL     OW76866   8.323   2.619   0.833 -0.1711  0.5346  0.0407
24275SOL    HW176867   8.304   2.710   0.856  0.8607  0.7332  0.1658
24275SOL    HW276868   8.407   2.623   0.787 -1.4698 -0.0125 -2.5725
24276SOL     OW76869   6.603   9.786   9.893  0.4112  0.2234  0.1840
24276SOL    HW176870   6.630   9.818   9.807 -0.1688 -0.3946 -0.2471
24276SOL    HW276871   6.668   9.719   9.915  0.8491  0.7371  0.4619
24277SOL     OW76872   6.321   8.834  10.204  0.3337  0.4305  0.0406
24277SOL    HW176873   6.259   8.849  10.133  0.2526 -0.1837 -0.0188
24277SOL    HW276874   6.360   8.920  10.220 -0.4867  0.8127  0.0381
24278SOL     OW76875   6.946   3.719   2.316  0.3018  0.0396  0.1206
24278SOL    HW176876   7.009   3.671   2.369 -0.2334 -0.7422  0.0639
24278SOL    HW276877   6.944   3.672   2.232 -2.6491 -1.9338  1.1298
24279SOL     OW76878   6.117   8.429   2.354  0.1449  0.2971  0.7651
24279SOL    HW176879   6.122   8.367   2.281 -0.1955  0.9398  0.1889
24279SOL    HW276880   6.162   8.384   2.426 -0.0631 -0.6039  0.3497
24280SOL     OW76881   7.073   9.949   8.550  0.0081  0.1697  0.2199
24280SOL    HW176882   7.136  10.020   8.539 -1.4718  1.4873 -0.3443
24280SOL    HW276883   7.010   9.983   8.614 -0.3045 -0.9678  0.5458
24281SOL     OW76884   1.059   2.361   4.537  0.2493 -0.3926  0.5511
24281SOL    HW176885   1.080   2.442   4.583  1.7593  0.3806 -1.3666
24281SOL    HW276886   1.100   2.370   4.451 -3.1537 -1.3337 -1.3849
24282SOL     OW76887   9.886   8.855   9.888  0.4341  0.0599  0.2587
24282SOL    HW176888   9.980   8.845   9.873  0.2983  1.2874 -1.7487
24282SOL    HW276889   9.878   8.869   9.983  2.4597  1.4937  0.2875
24283SOL     OW76890   8.593   7.608   0.345  0.2887  0.3247  0.0277
24283SOL    HW176891   8.530   7.679   0.336  1.7965  1.6629 -0.4690
24283SOL    HW276892   8.674   7.643   0.307  1.2647 -1.4237  0.3903
24284SOL     OW76893   0.270   1.040   3.268  0.0483 -0.6281 -0.1605
24284SOL    HW176894   0.244   0.990   3.346 -0.9041  1.6398  1.1027
24284SOL    HW276895   0.265   0.978   3.196 -1.3981 -2.2372  1.2439
24285SOL     OW76896   9.906   0.832   5.738 -0.0919 -0.3606  0.6468
24285SOL    HW176897   9.930   0.887   5.662  0.6774 -0.3696  0.8683
24285SOL    HW276898   9.990   0.803   5.773 -0.5013 -2.3439  0.0711
24286SOL     OW76899   9.600   6.873   0.782  0.3531 -0.8072 -0.1185
24286SOL    HW176900   9.576   6.868   0.690  0.9867 -0.2728 -0.3259
24286SOL    HW276901   9.578   6.787   0.818 -0.9295 -0.6584 -0.5012
24287SOL     OW76902   8.773   9.283   7.131  0.3464 -0.0947 -0.2663
24287SOL    HW176903   8.687   9.279   7.091 -0.0981 -0.8732  0.7322
24287SOL    HW276904   8.781   9.201   7.180  1.5587  0.0651 -0.1587
24288SOL     OW76905   6.119   7.512  10.262 -0.2436  0.1018  0.1519
24288SOL    HW176906   6.132   7.435  10.206  1.3227  0.9959 -0.7929
24288SOL    HW276907   6.196   7.513  10.319 -0.1417  1.0678  0.0166
24289SOL     OW76908   6.819   2.512   8.716 -0.6419  0.4257 -0.1363
24289SOL    HW176909   6.839   2.545   8.803 -0.8015 -0.3760  0.2120
24289SOL    HW276910   6.731   2.545   8.698 -0.7856  0.2234  0.1904
24290SOL     OW76911   8.787   6.106   7.768  0.0781 -0.3628 -0.3426
24290SOL    HW176912   8.707   6.054   7.764  0.4923 -1.0467  0.0116
24290SOL    HW276913   8.766   6.177   7.828 -1.6429  2.0002 -3.4482
24291SOL     OW76914   1.749   8.441   3.112  0.3063 -0.8124  0.5496
24291SOL    HW176915   1.658   8.420   3.090  0.0295 -0.3166  1.1440
24291SOL    HW276916   1.747   8.536   3.128  1.0320 -0.7190  0.1014
24292SOL     OW76917   1.938   9.716   2.555 -0.5837 -0.4329  0.4102
24292SOL    HW176918   1.965   9.701   2.464  0.6396 -0.4290  0.7588
24292SOL    HW276919   1.876   9.789   2.550 -0.6725 -0.5557 -0.4380
24293SOL     OW76920   1.922   7.394   1.004 -0.8102  0.2183  0.6651
24293SOL    HW176921   1.960   7.353   0.927 -1.0809 -0.6546  0.9807
24293SOL    HW276922   1.846   7.442   0.971 -0.2130  0.8738  0.2243
24294SOL     OW76923   0.443   2.840   7.777  0.1768 -0.2366  0.5175
24294SOL    HW176924   0.437   2.758   7.727  0.2588 -0.6255  1.1386
24294SOL    HW276925   0.376   2.831   7.845  0.2499  0.1772  0.6431
24295SOL     OW76926   3.045   1.163   4.110 -0.3784  0.0854 -0.3165
24295SOL    HW176927   3.133   1.169   4.073 -0.0902 -0.5756  0.2441
24295SOL    HW276928   3.059   1.149   4.203 -1.0679 -0.7917 -0.3306
24296SOL     OW76929   0.146   0.953   2.497  0.0736  0.0763  0.3116
24296SOL    HW176930   0.192   0.870   2.505 -1.3038 -0.5242  3.0616
24296SOL    HW276931   0.211   1.020   2.520  0.9277 -0.2529 -1.0215
24297SOL     OW76932   4.361   5.453   2.514  0.6136 -0.4206  0.0796
24297SOL    HW176933   4.442   5.418   2.477  1.7444  1.8050  0.2906
24297SOL    HW276934   4.360   5.421   2.604  1.4932 -0.1034  0.2088
24298SOL     OW76935   8.280   4.611   4.139  0.3987 -0.0781 -0.2149
24298SOL    HW176936   8.272   4.536   4.080  1.1360  0.4129 -0.9593
24298SOL    HW276937   8.373   4.615   4.161  0.2804  0.3145  0.2452
24299SOL     OW76938   8.778   6.682   6.626  0.3259  0.5681  0.1423
24299SOL    HW176939   8.864   6.652   6.655  0.0891  0.3598  0.6254
24299SOL    HW276940   8.755   6.621   6.555  0.2012  0.0907  0.5839
24300SOL     OW76941   2.514   6.916   0.184  0.4765  0.5262  0.1529
24300SOL    HW176942   2.562   6.905   0.266  1.3801  0.8818 -0.3146
24300SOL    HW276943   2.422   6.913   0.209  0.6630 -2.1281  0.8544
24301SOL     OW76944   7.987   4.114   0.366  0.4208  0.1479  0.3517
24301SOL    HW176945   7.901   4.087   0.399 -0.7305  2.3061 -0.6863
24301SOL    HW276946   8.000   4.062   0.287 -0.0485 -0.0099  0.3767
24302SOL     OW76947   1.011   9.142   9.368  0.1141  0.3792  0.7299
24302SOL    HW176948   1.073   9.107   9.432  0.2221 -0.7110  0.0480
24302SOL    HW276949   0.926   9.107   9.395  0.4640 -1.9802 -0.9741
24303SOL     OW76950   1.183   4.985  10.280  0.3000 -1.0067  0.1024
24303SOL    HW176951   1.214   5.074  10.265 -1.8847 -0.1611  0.2460
24303SOL    HW276952   1.205   4.938  10.199  1.7799 -0.4791  0.1596
24304SOL     OW76953   5.764   1.284   6.644 -0.3425 -0.3698 -0.1427
24304SOL    HW176954   5.786   1.342   6.717  2.0903 -0.8773 -0.3841
24304SOL    HW276955   5.731   1.343   6.576  0.3015  0.5190  0.2867
24305SOL     OW76956   7.106   9.382   2.339  0.1729 -0.2092  0.5211
24305SOL    HW176957   7.181   9.414   2.289  1.3082 -2.0503  0.9539
24305SOL    HW276958   7.088   9.452   2.402 -0.8582  1.8705 -1.8718
24306SOL     OW76959   8.881   0.387   7.201 -0.3450 -0.9035 -0.2954
24306SOL    HW176960   8.903   0.474   7.169 -0.6455 -0.4065  0.7885
24306SOL    HW276961   8.786   0.388   7.211 -0.1595 -0.5414  1.8868
24307SOL     OW76962   3.366   8.788   1.490  0.5440 -0.0121 -0.0469
24307SOL    HW176963   3.370   8.732   1.567 -1.2025 -1.3901 -0.8851
24307SOL    HW276964   3.290   8.844   1.504  0.6088  0.1903 -0.4687
24308SOL     OW76965   5.752   0.242   0.829  0.0619 -0.0110  0.4135
24308SOL    HW176966   5.771   0.223   0.921  0.9464  0.3998  0.3209
24308SOL    HW276967   5.693   0.171   0.802 -0.3466 -0.0447  1.3369
24309SOL     OW76968   0.198   8.455   6.804  0.1141  0.7016 -0.4391
24309SOL    HW176969   0.106   8.431   6.788  0.0998 -0.1135  0.7202
24309SOL    HW276970   0.248   8.379   6.775  0.2486  0.2461  0.8928
24310SOL     OW76971   7.661   9.785   3.691 -0.7465  0.6262  0.6077
24310SOL    HW176972   7.637   9.741   3.610 -0.3059 -0.2219  0.9251
24310SOL    HW276973   7.719   9.856   3.664 -1.6551  1.1773  0.0670
24311SOL     OW76974   3.235   1.927   9.632  0.1054  0.1384 -0.1851
24311SOL    HW176975   3.257   1.836   9.611  0.0079  0.2359 -0.7150
24311SOL    HW276976   3.268   1.977   9.558  1.1036  0.6587  0.5807
24312SOL     OW76977   6.596   6.881   1.422  0.1787  0.6060 -0.3402
24312SOL    HW176978   6.546   6.841   1.492  1.0630  0.1376  0.0422
24312SOL    HW276979   6.591   6.975   1.439 -1.3862  0.6468 -0.8874
24313SOL     OW76980   0.693   3.757   8.175 -0.1072 -0.1805 -0.1953
24313SOL    HW176981   0.745   3.690   8.220  0.2688  0.3148  0.1118
24313SOL    HW276982   0.678   3.824   8.242 -2.2635 -0.9107  0.1187
24314SOL     OW76983   4.913   7.084   3.388 -0.3536  0.3817 -0.0520
24314SOL    HW176984   4.879   7.138   3.459  0.2971 -0.1981  0.7190
24314SOL    HW276985   4.980   7.138   3.347 -0.3401  0.5096  0.1348
24315SOL     OW76986   0.497   0.537   6.514  0.0540  1.3170  0.3485
24315SOL    HW176987   0.462   0.464   6.564  0.9120  1.1683  0.7400
24315SOL    HW276988   0.430   0.555   6.447 -0.6320  0.8645  0.9080
24316SOL     OW76989   9.091   3.774   5.637 -0.2611  0.1099 -0.0636
24316SOL    HW176990   9.102   3.839   5.567 -2.4494  0.1678 -0.4212
24316SOL    HW276991   9.001   3.786   5.667 -0.7895 -2.7767 -0.1863
24317SOL     OW76992   6.724   0.028   9.409  0.1914 -0.1589 -0.2917
24317SOL    HW176993   6.783   0.103   9.419 -0.8610  1.0122 -2.1882
24317SOL    HW276994   6.746  -0.007   9.322  0.2493 -1.7041  0.3176
24318SOL     OW76995   4.599   4.355   4.908 -0.0980  0.6072 -0.1514
24318SOL    HW176996   4.517   4.380   4.951  0.4858  2.7947 -0.2119
24318SOL    HW276997   4.646   4.305   4.975 -0.1021  2.1627  1.0755
24319SOL     OW76998   6.538   3.821   9.042  0.2030 -0.4914 -0.2307
24319SOL    HW176999   6.558   3.898   8.987 -1.0177  0.2526  0.3126
24319SOL    HW277000   6.451   3.840   9.078  1.4305 -0.3860  2.9353
24320SOL     OW77001   4.121   9.725   0.618  0.5114 -0.6614  0.3051
24320SOL    HW177002   4.053   9.747   0.555  1.3163  1.9093  0.2043
24320SOL    HW277003   4.201   9.765   0.583  1.7441 -2.1600  1.2485
24321SOL     OW77004   7.366   5.756   6.260 -0.7383  0.1384 -0.2894
24321SOL    HW177005   7.410   5.715   6.335 -3.1006 -1.3925  0.3553
24321SOL    HW277006   7.429   5.821   6.228  1.9144 -1.8270  0.6069
24322SOL     OW77007   2.296   3.089   7.695  0.0110  0.1615  0.2895
24322SOL    HW177008   2.379   3.101   7.649  0.6157  0.2133  1.3402
24322SOL    HW277009   2.242   3.038   7.635  1.5297 -1.6309  0.3348
24323SOL     OW77010   9.007   4.030   2.708  0.1936 -0.2305 -0.3080
24323SOL    HW177011   9.002   3.970   2.782 -0.1457 -1.2457 -1.1190
24323SOL    HW277012   8.949   4.103   2.731  1.7934  0.5767  1.3617
24324SOL     OW77013   7.033   0.258   6.084  0.1177  0.8476 -0.1438
24324SOL    HW177014   6.999   0.168   6.088 -0.6111  1.1401  0.4361
24324SOL    HW277015   6.990   0.296   6.007 -0.4660  1.0445  0.2691
24325SOL     OW77016   1.609   4.016   7.842 -0.0462  0.5325 -0.4815
24325SOL    HW177017   1.705   4.021   7.841  0.0254 -0.7262 -1.1992
24325SOL    HW277018   1.581   4.104   7.816  0.8647  1.3321  1.0832
24326SOL     OW77019   0.351   8.597   4.278  0.2133  0.9107 -0.2851
24326SOL    HW177020   0.312   8.565   4.197  0.6152 -0.9126  0.2017
24326SOL    HW277021   0.424   8.652   4.249  1.1310 -0.7103 -1.1996
24327SOL     OW77022   0.831   7.662   2.895  0.3104 -0.3105  0.4383
24327SOL    HW177023   0.766   7.717   2.851 -0.0961 -1.6599 -0.7101
24327SOL    HW277024   0.911   7.677   2.845  0.6958  0.6659  1.3062
24328SOL     OW77025  10.087   0.833   9.014 -0.3318  0.1766  0.0556
24328SOL    HW177026  10.124   0.919   8.997  0.9897 -0.1179  1.3046
24328SOL    HW277027  10.155   0.771   8.986 -1.1994 -0.4896 -0.6843
24329SOL     OW77028   9.901   1.095   0.791 -0.1743 -0.2333  0.4279
24329SOL    HW177029   9.828   1.108   0.731  0.3744  2.4187  0.1840
24329SOL    HW277030   9.907   1.178   0.839  2.7947 -0.2357  0.2384
24330SOL     OW77031   1.881   4.326   1.200 -0.0621  0.1729 -0.0877
24330SOL    HW177032   1.911   4.237   1.180  2.1885  0.9759 -0.5625
24330SOL    HW277033   1.827   4.316   1.278  0.3205 -1.5752 -0.0073
24331SOL     OW77034   2.126   7.581   7.005 -0.3736 -0.0209 -0.3489
24331SOL    HW177035   2.056   7.518   7.023  0.3305 -0.9426 -0.7672
24331SOL    HW277036   2.179   7.540   6.937  0.0891  1.0482 -0.6636
24332SOL     OW77037   4.992   1.161   2.611 -0.2851 -0.3220 -0.5426
24332SOL    HW177038   4.955   1.073   2.606 -0.8196 -0.1198 -0.3346
24332SOL    HW277039   4.916   1.217   2.631  0.4466 -0.1520  2.2766
24333SOL     OW77040   3.309   9.389   1.102 -0.2569  0.1896 -0.0191
24333SOL    HW177041   3.229   9.404   1.152 -0.3649 -1.1091  0.2487
24333SOL    HW277042   3.349   9.475   1.093 -1.7482  0.8886 -0.2774
24334SOL     OW77043   6.503   5.134   8.649 -0.0481 -0.4829  0.3588
24334SOL    HW177044   6.455   5.153   8.569 -0.5269  0.2835  0.8224
24334SOL    HW277045   6.494   5.213   8.703  2.1053 -0.0967  0.2776
24335SOL     OW77046   4.680   8.568   4.400  0.4824  0.5280 -0.1377
24335SOL    HW177047   4.702   8.661   4.413  0.6118  0.5014 -0.1640
24335SOL    HW277048   4.753   8.521   4.439  0.8095  0.4473 -0.8396
24336SOL     OW77049   7.913   6.110   6.916  0.4497  0.2701  0.0889
24336SOL    HW177050   7.954   6.144   6.836  2.5587 -1.5237  0.3345
24336SOL    HW277051   7.872   6.187   6.956  2.2602  1.8903 -0.9915
24337SOL     OW77052   9.679   2.532   7.407  0.4193  0.0793 -0.1533
24337SOL    HW177053   9.625   2.489   7.340  2.4004 -3.4867  0.3094
24337SOL    HW277054   9.686   2.468   7.477 -0.4605  3.1628  3.0596
24338SOL     OW77055   9.388   3.963   9.708 -0.0273 -0.2008 -0.2519
24338SOL    HW177056   9.401   3.879   9.664 -0.4371 -0.6280  0.4230
24338SOL    HW277057   9.371   3.939   9.799 -3.2783  0.4109 -0.5874
24339SOL     OW77058   6.926   5.433   1.504 -0.5351 -0.0695  0.1679
24339SOL    HW177059   7.003   5.435   1.448 -1.5106  1.3280 -1.2183
24339SOL    HW277060   6.950   5.485   1.581  0.3218 -0.7370  0.3584
24340SOL     OW77061   5.104   6.824   7.277  0.6590  0.0346 -0.5208
24340SOL    HW177062   5.181   6.875   7.251  0.8101 -0.5983 -1.3610
24340SOL    HW277063   5.098   6.755   7.211 -0.9812  0.4124 -0.8263
24341SOL     OW77064   8.621   3.684   0.779  0.0370  0.4203  0.8824
24341SOL    HW177065   8.668   3.759   0.743 -1.4892  0.5281 -1.0451
24341SOL    HW277066   8.552   3.723   0.833 -1.5221  0.5343 -1.0850
24342SOL     OW77067   9.956   3.953   6.876 -0.4151 -0.3111  0.0992
24342SOL    HW177068  10.032   4.010   6.864  0.0866 -1.3382 -2.1927
24342SOL    HW277069   9.993   3.869   6.904 -0.5200 -1.1076 -1.9526
24343SOL     OW77070   9.236   6.998   6.727 -0.2895 -0.4239 -0.0071
24343SOL    HW177071   9.262   7.077   6.774 -0.6962 -1.1957  1.5768
24343SOL    HW277072   9.146   7.015   6.699 -1.2446 -1.1631  2.3858
24344SOL     OW77073   7.987   6.355   4.255 -0.5139 -0.2171  0.1579
24344SOL    HW177074   8.074   6.390   4.238 -0.7037 -0.3245 -1.1619
24344SOL    HW277075   7.985   6.340   4.350  1.1812 -0.9742  0.1131
24345SOL     OW77076   1.309   3.449   5.916 -0.2423 -0.3823  0.6567
24345SOL    HW177077   1.355   3.378   5.871  0.5414 -0.5708  1.7291
24345SOL    HW277078   1.375   3.518   5.926 -0.3015 -0.4755  1.8044
24346SOL     OW77079   4.666   4.630   2.189  0.2889  0.2093 -0.1013
24346SOL    HW177080   4.586   4.589   2.223  1.4122 -2.4140 -0.3842
24346SOL    HW277081   4.719   4.646   2.266  1.0287 -1.6729 -0.1665
24347SOL     OW77082   3.912   6.724   5.546 -0.5939  0.2642 -0.3907
24347SOL    HW177083   3.841   6.679   5.592  1.1963 -0.1935  2.1508
24347SOL    HW277084   3.899   6.701   5.454 -3.4585 -0.1097  0.0074
24348SOL     OW77085   5.356   0.837   1.874 -0.4579 -0.2538  0.7406
24348SOL    HW177086   5.272   0.871   1.844 -0.3310 -0.4203  0.1912
24348SOL    HW277087   5.336   0.797   1.959 -0.7781  0.4037  0.9840
24349SOL     OW77088   9.017   1.009   4.433  1.2382  0.6446 -0.2222
24349SOL    HW177089   9.071   0.975   4.361  0.6001 -0.6771 -0.1118
24349SOL    HW277090   9.053   0.968   4.511  1.1039  1.0471  0.0526
24350SOL     OW77091   7.640   3.851   5.339  0.4099 -0.1412 -0.2909
24350SOL    HW177092   7.562   3.811   5.301 -0.0735 -1.2051  1.7106
24350SOL    HW277093   7.607   3.928   5.386  0.7079 -0.0131 -0.2876
24351SOL     OW77094   7.152   3.169   1.022  0.1715 -0.2869 -0.1247
24351SOL    HW177095   7.122   3.138   1.108  0.4096  0.3332  0.1882
24351SOL    HW277096   7.119   3.258   1.016  0.4666 -0.2036 -0.5268
24352SOL     OW77097   9.137   8.033   5.003 -0.1751  0.2550  0.4280
24352SOL    HW177098   9.177   8.058   4.919 -0.2124  0.3453  0.4370
24352SOL    HW277099   9.085   8.109   5.028  0.0397  0.3245  0.6598
24353SOL     OW77100   0.499   7.067   0.183 -0.2058 -0.3825  0.6542
24353SOL    HW177101   0.439   7.119   0.130  3.1277  1.1520 -1.9746
24353SOL    HW277102   0.442   7.008   0.232 -3.8227  1.1689 -1.2658
24354SOL     OW77103   9.535   7.228   3.300  0.1531  0.3221 -0.3901
24354SOL    HW177104   9.518   7.146   3.254  1.9823 -0.0647 -0.4616
24354SOL    HW277105   9.586   7.280   3.238 -1.7811  1.9621 -0.7184
24355SOL     OW77106   0.164   4.825   8.442  0.0121  0.4579 -0.4281
24355SOL    HW177107   0.210   4.802   8.523 -0.3902 -0.9997 -0.5828
24355SOL    HW277108   0.234   4.833   8.377  0.2631  0.7761 -0.1219
24356SOL     OW77109   6.339   9.822   3.982 -0.0260  0.2925  0.4891
24356SOL    HW177110   6.301   9.905   4.009  0.4820  0.6229  0.1891
24356SOL    HW277111   6.431   9.829   4.006 -0.2526 -0.7727  1.8569
24357SOL     OW77112   5.044   2.705   7.828  0.4575 -0.5659  0.3226
24357SOL    HW177113   5.098   2.766   7.777  0.1129 -0.4829  0.0542
24357SOL    HW277114   5.074   2.715   7.918  0.5053 -0.1110  0.2552
24358SOL     OW77115   4.402   7.742   6.789  0.1341  0.2031  0.0199
24358SOL    HW177116   4.359   7.687   6.854 -0.6501  0.9627  0.1651
24358SOL    HW277117   4.344   7.738   6.713 -0.1881  1.1907  0.1993
24359SOL     OW77118   4.762   1.698   0.364 -0.1917  0.3337  0.0920
24359SOL    HW177119   4.678   1.653   0.373 -0.5011  0.8255 -0.2841
24359SOL    HW277120   4.768   1.754   0.441  0.0722 -0.1451  0.4252
24360SOL     OW77121   1.649   2.981   1.182  0.7930  0.2235 -0.2025
24360SOL    HW177122   1.634   3.075   1.193  2.5182  0.5090  0.0183
24360SOL    HW277123   1.653   2.946   1.271  1.3415  0.1680 -0.2427
24361SOL     OW77124   5.261   5.123   0.331  0.0824 -0.0218 -0.2466
24361SOL    HW177125   5.179   5.170   0.346 -0.4083 -0.5554 -1.2277
24361SOL    HW277126   5.235   5.034   0.310  1.0140 -0.8624  1.8577
24362SOL     OW77127   2.487   8.301   3.482  0.1650 -0.2456 -0.1956
24362SOL    HW177128   2.572   8.265   3.460  0.5924 -0.5478  1.7562
24362SOL    HW277129   2.499   8.396   3.480  0.1433 -0.2636 -1.3498
24363SOL     OW77130   7.978   4.794   1.846  0.9820 -0.3819 -0.0757
24363SOL    HW177131   7.975   4.806   1.751  0.0490  2.3804  0.1987
24363SOL    HW277132   7.907   4.733   1.865  0.5989 -0.2757 -1.0869
24364SOL     OW77133   7.974   8.683   9.997  0.0981 -0.1416 -0.1177
24364SOL    HW177134   8.055   8.731  10.009 -0.9180  1.1837  1.9674
24364SOL    HW277135   7.907   8.735  10.043 -1.5079 -2.3111  0.1864
24365SOL     OW77136   4.551   9.999   8.314 -0.4612 -0.3126  0.1500
24365SOL    HW177137   4.536   9.949   8.395 -1.0544 -1.0608 -0.3975
24365SOL    HW277138   4.466   9.998   8.270 -0.1841  0.2289 -0.4075
24366SOL     OW77139   1.052   9.849   9.944 -0.5189 -0.0791 -0.1027
24366SOL    HW177140   1.053   9.926  10.001  1.0399  0.2295 -0.5229
24366SOL    HW277141   1.113   9.870   9.873 -1.1679 -1.1309 -1.0090
24367SOL     OW77142   8.692   0.653   4.087 -0.1991  0.3212 -0.5950
24367SOL    HW177143   8.786   0.669   4.099 -0.4916  1.6085  0.1726
24367SOL    HW277144   8.667   0.595   4.159  0.0057 -0.0538 -0.8222
24368SOL     OW77145   6.117   1.632   8.843  0.1528 -0.1812  0.1672
24368SOL    HW177146   6.116   1.720   8.880  1.2035 -0.2268  0.3612
24368SOL    HW277147   6.059   1.636   8.768  1.7202  1.2402 -1.0415
24369SOL     OW77148   1.840   0.999   5.908 -0.7195  0.0877  0.6861
24369SOL    HW177149   1.912   1.050   5.870  0.6109 -1.2201  1.3676
24369SOL    HW277150   1.860   0.995   6.001 -0.7146 -1.7308  0.6420
24370SOL     OW77151   9.953   2.370   3.336  0.1960  0.3627  0.0697
24370SOL    HW177152  10.000   2.434   3.389  0.1398 -0.3351  0.9846
24370SOL    HW277153  10.019   2.304   3.314  0.3347  0.8753 -1.1454
24371SOL     OW77154   1.906   6.754   1.306  0.6507 -0.0241  0.1153
24371SOL    HW177155   1.997   6.727   1.315  0.5308 -0.8242 -0.8821
24371SOL    HW277156   1.863   6.682   1.260 -0.8034 -0.2518  1.7105
24372SOL     OW77157   8.434   3.992   7.497  0.0032  0.3276 -0.3533
24372SOL    HW177158   8.354   3.981   7.447 -0.4261  0.6177  0.2633
24372SOL    HW277159   8.410   4.048   7.570  0.7409  0.3320 -0.1018
24373SOL     OW77160   5.097   2.261   2.063 -0.1438 -0.5106  0.4764
24373SOL    HW177161   5.012   2.290   2.095 -0.6731 -1.3006 -0.1842
24373SOL    HW277162   5.159   2.324   2.101 -0.7016 -1.3850  3.0698
24374SOL     OW77163   1.414   8.587   4.277  0.1416  0.0563 -0.0980
24374SOL    HW177164   1.343   8.559   4.219  0.1654 -0.5871  0.1803
24374SOL    HW277165   1.412   8.525   4.350 -1.6496  2.4190  2.0407
24375SOL     OW77166   9.374   9.779   6.799  0.2453 -0.4391 -0.6947
24375SOL    HW177167   9.431   9.830   6.856 -0.6677 -1.1884  0.9565
24375SOL    HW277168   9.432   9.744   6.732  1.3606  0.4479 -0.2161
24376SOL     OW77169   3.255   8.608   4.509  0.3407  0.6400  0.2761
24376SOL    HW177170   3.242   8.636   4.600  0.4531  0.3510  0.3834
24376SOL    HW277171   3.321   8.668   4.474 -0.2290  1.2091  0.1645
24377SOL     OW77172   6.847   9.539   3.497 -0.4714  0.3028 -0.2058
24377SOL    HW177173   6.775   9.538   3.559 -0.1846 -0.7429  0.1334
24377SOL    HW277174   6.907   9.471   3.528  0.5618  1.0084 -0.5971
24378SOL     OW77175   2.278   8.437   6.871  0.0308 -0.4159 -0.1781
24378SOL    HW177176   2.259   8.394   6.955  0.4751  0.2843  0.2923
24378SOL    HW277177   2.372   8.420   6.857 -0.2728 -1.4799 -1.1010
24379SOL     OW77178   4.444   8.876   0.142 -0.5115 -0.1958  0.2890
24379SOL    HW177179   4.371   8.815   0.132 -0.0417 -1.3007  2.7706
24379SOL    HW277180   4.509   8.827   0.194  1.4098  1.2248 -0.6574
24380SOL     OW77181   1.458   6.907   2.295  0.3862  0.0988  0.3900
24380SOL    HW177182   1.452   6.924   2.201  0.8973  0.2836  0.3893
24380SOL    HW277183   1.514   6.977   2.328  0.9956 -0.5240  0.6803
24381SOL     OW77184   9.013   7.199   6.722  0.1553 -0.8075  0.3167
24381SOL    HW177185   8.983   7.243   6.801  1.8538  0.0168  0.5636
24381SOL    HW277186   9.055   7.269   6.671  1.5322 -1.8483 -0.0225
24382SOL     OW77187   0.234   9.645   0.791 -0.0620 -0.0150  0.1767
24382SOL    HW177188   0.225   9.599   0.707 -0.2443 -1.4828  0.9708
24382SOL    HW277189   0.308   9.602   0.834 -0.9119 -0.3269  1.3928
24383SOL     OW77190   8.219   6.182   0.153  0.0777  0.0380 -0.2967
24383SOL    HW177191   8.264   6.215   0.075 -0.0908  0.6122 -0.1583
24383SOL    HW277192   8.127   6.202   0.137 -0.4033 -2.5031 -1.2804
24384SOL     OW77193   6.633   4.273   3.840  0.5147 -0.7479 -0.7406
24384SOL    HW177194   6.571   4.314   3.901  1.1860  1.0529 -1.1824
24384SOL    HW277195   6.626   4.180   3.857  0.2335 -0.3510  1.6531
24385SOL     OW77196   3.649   6.504   2.467 -0.0376  0.5842  0.6152
24385SOL    HW177197   3.588   6.577   2.481 -0.7563  0.1045  0.0861
24385SOL    HW277198   3.660   6.465   2.553 -0.8861  0.3720  0.6367
24386SOL     OW77199   7.689   0.729   6.481 -0.1742 -0.4518  0.0930
24386SOL    HW177200   7.633   0.739   6.404  0.4373  0.2364 -0.2806
24386SOL    HW277201   7.629   0.732   6.555 -0.7550 -0.9754 -0.3473
24387SOL     OW77202   1.672   2.471   7.701  0.7247 -0.1526  0.5044
24387SOL    HW177203   1.585   2.482   7.740 -0.4420  0.8978 -2.1620
24387SOL    HW277204   1.726   2.536   7.746 -0.2102  0.1369  1.2563
24388SOL     OW77205   2.187   0.844   9.127  0.4549 -0.3397 -0.0219
24388SOL    HW177206   2.175   0.906   9.199 -1.0664 -0.2196 -0.3458
24388SOL    HW277207   2.282   0.842   9.113  0.8941 -0.9848  2.5060
24389SOL     OW77208   1.573   5.256   8.542  0.0470  0.0720  0.6501
24389SOL    HW177209   1.637   5.326   8.559 -1.2849  2.2427 -2.4104
24389SOL    HW277210   1.619   5.195   8.485  0.1566  0.3367  0.4498
24390SOL     OW77211   1.842   9.684   4.876  0.7441 -0.1700 -0.6525
24390SOL    HW177212   1.762   9.726   4.907  0.8407 -0.7625  0.4570
24390SOL    HW277213   1.862   9.619   4.943  0.8192 -1.7209 -2.1176
24391SOL     OW77214   6.644   4.870   9.939 -0.7137  0.1072 -0.1243
24391SOL    HW177215   6.639   4.891  10.033  0.0202  1.3591 -0.3300
24391SOL    HW277216   6.737   4.883   9.918 -0.7187 -0.9837 -0.8525
24392SOL     OW77217   9.483   4.678   9.618  0.2953  0.2814 -0.1933
24392SOL    HW177218   9.577   4.670   9.630  0.6652  1.8276 -1.7180
24392SOL    HW277219   9.465   4.772   9.622 -1.3115 -0.0174  0.7603
24393SOL     OW77220   5.931   6.386   1.571 -0.0037 -0.5294 -0.2289
24393SOL    HW177221   5.838   6.381   1.552 -0.4144 -1.9657  1.9022
24393SOL    HW277222   5.936   6.421   1.660  1.4132 -1.9438  0.2923
24394SOL     OW77223   8.153   4.403   2.917 -0.1195  0.0090 -0.6887
24394SOL    HW177224   8.097   4.325   2.926  0.5308 -0.3362  0.6359
24394SOL    HW277225   8.204   4.386   2.838  0.3454 -1.1452 -0.1639
24395SOL     OW77226   6.491   6.500   1.242  0.3197 -0.1492  0.1350
24395SOL    HW177227   6.477   6.423   1.188 -0.3951 -0.2572  0.4547
24395SOL    HW277228   6.428   6.564   1.209  0.6337  0.1586  0.1300
24396SOL     OW77229   4.033   2.462   9.146 -0.3226  0.4162 -0.7110
24396SOL    HW177230   4.001   2.512   9.221  2.0103  0.3642  0.4006
24396SOL    HW277231   3.955   2.450   9.091 -2.5405 -0.9338  2.4133
24397SOL     OW77232  10.182   1.615   0.385  0.3564  0.5732  0.1091
24397SOL    HW177233  10.255   1.582   0.437  0.6723 -0.4929 -0.9812
24397SOL    HW277234  10.186   1.710   0.396  0.6943  0.4098  1.6398
24398SOL     OW77235   6.465   7.674   1.057 -0.1450  0.0756  0.1373
24398SOL    HW177236   6.375   7.684   1.089 -0.5419 -1.4861 -0.3744
24398SOL    HW277237   6.516   7.652   1.134 -0.0394  1.7286  0.5593
24399SOL     OW77238   9.819   3.080   4.761  0.5405 -0.0156  0.3138
24399SOL    HW177239   9.781   3.167   4.773  0.5316  0.1200 -0.6736
24399SOL    HW277240   9.794   3.054   4.673  0.9072 -0.8471  0.4414
24400SOL     OW77241   1.770   7.533   9.851  0.1431 -0.4950 -0.1426
24400SOL    HW177242   1.714   7.456   9.857  0.1062 -0.4546  0.0245
24400SOL    HW277243   1.824   7.530   9.930  0.2975 -0.4718 -0.2468
24401SOL     OW77244   9.783   7.838   3.343  0.2133 -0.4241  0.2667
24401SOL    HW177245   9.813   7.772   3.405  2.2426  0.3473  0.1681
24401SOL    HW277246   9.821   7.812   3.259  1.6463  1.2044  0.3600
24402SOL     OW77247   5.587   2.143   1.138 -0.3137  0.5736 -0.1748
24402SOL    HW177248   5.632   2.101   1.065 -0.2772  1.0966 -0.4615
24402SOL    HW277249   5.550   2.071   1.189  1.2048  0.1159  0.3084
24403SOL     OW77250   9.969   7.135   6.806  0.4786  0.2029  0.0780
24403SOL    HW177251  10.008   7.056   6.843 -0.4778 -0.4546 -0.3011
24403SOL    HW277252  10.045   7.187   6.779  1.1377 -0.2099  1.0596
24404SOL     OW77253   3.666   5.615   0.899  0.1302  0.2896  0.1301
24404SOL    HW177254   3.706   5.631   0.813 -0.3315 -0.9987 -0.3441
24404SOL    HW277255   3.676   5.698   0.945  0.8901  0.8368 -0.9646
24405SOL     OW77256   7.695   0.372   6.802 -0.4088  0.0477  0.3324
24405SOL    HW177257   7.623   0.379   6.740  0.2148 -0.8668 -0.5433
24405SOL    HW277258   7.655   0.340   6.883 -1.0053 -0.3874 -0.1226
24406SOL     OW77259   2.999   0.444   5.802 -0.5283  0.0033  0.0990
24406SOL    HW177260   3.074   0.501   5.820 -0.1129 -0.7176  0.7394
24406SOL    HW277261   2.993   0.388   5.880  0.2230 -2.0736 -1.2413
24407SOL     OW77262   5.083   3.990   4.108  0.0874  0.5339 -0.2685
24407SOL    HW177263   4.999   4.024   4.076  0.6592  2.6685  0.3286
24407SOL    HW277264   5.147   4.022   4.044  0.7190  1.0763  0.6144
24408SOL     OW77265   8.196   9.938   8.451  0.3812 -0.1303  0.4463
24408SOL    HW177266   8.121   9.918   8.396  0.1219 -0.3843  0.8889
24408SOL    HW277267   8.211  10.032   8.439  1.0669 -0.3985 -0.9701
24409SOL     OW77268   3.513   2.036   5.101 -0.0296  0.3477 -0.2536
24409SOL    HW177269   3.557   1.959   5.065 -0.4550 -0.0595  0.0928
24409SOL    HW277270   3.428   2.037   5.057  0.5507  1.5097 -1.4220
24410SOL     OW77271   6.766   5.808   9.663  0.2001 -0.6812 -0.1054
24410SOL    HW177272   6.809   5.804   9.578  0.5614 -0.0966  0.0441
24410SOL    HW277273   6.770   5.718   9.696  0.3170 -0.8508 -0.5792
24411SOL     OW77274   4.325   2.490   1.476  0.0342  0.3030 -0.0683
24411SOL    HW177275   4.233   2.516   1.477  0.0038  0.4834 -2.3274
24411SOL    HW277276   4.331   2.419   1.540 -1.3495  1.2252  1.1401
24412SOL     OW77277   2.162   0.528   7.879 -0.0215  0.4444  0.3497
24412SOL    HW177278   2.211   0.451   7.910  1.0394  0.5884 -0.8864
24412SOL    HW277279   2.088   0.491   7.831  0.0952  0.1969  0.3551
24413SOL     OW77280   1.733   2.739   0.059  0.2545  0.8101 -0.2596
24413SOL    HW177281   1.643   2.764   0.037 -0.4080 -0.6958  0.5713
24413SOL    HW277282   1.723   2.666   0.121  2.0507  1.0886  0.4228
24414SOL     OW77283   0.301   9.450   1.193  0.1375  0.5677 -0.2395
24414SOL    HW177284   0.267   9.431   1.281 -1.6407  0.4108 -0.9279
24414SOL    HW277285   0.223   9.459   1.138  1.2276 -0.5879 -2.0760
24415SOL     OW77286   5.655   5.177   0.162  0.6449  0.5344  0.8955
24415SOL    HW177287   5.750   5.169   0.162  0.8461  2.4613  1.7550
24415SOL    HW277288   5.626   5.120   0.234  0.9846 -1.1719 -0.2623
24416SOL     OW77289   9.954   4.427   5.956 -0.1399  0.3798 -0.2023
24416SOL    HW177290  10.013   4.462   5.890 -0.4830  0.2032 -0.6051
24416SOL    HW277291   9.984   4.337   5.969  0.8802  0.8608  0.9914
24417SOL     OW77292   7.375   0.994   2.468  0.4821 -0.3493  0.8480
24417SOL    HW177293   7.441   0.979   2.536 -0.6766 -0.5726  1.9462
24417SOL    HW277294   7.412   1.066   2.415  1.0698  0.3444  2.1496
24418SOL     OW77295   0.953   0.073   6.490  0.3593  0.5381 -0.1029
24418SOL    HW177296   1.003   0.029   6.559  1.4094 -1.5666 -2.0591
24418SOL    HW277297   0.862   0.055   6.512  0.4953  1.9526  1.9476
24419SOL     OW77298   3.029   4.058   6.635  0.1856 -0.4164  0.1048
24419SOL    HW177299   3.081   4.026   6.561  1.0992  0.2474  0.4416
24419SOL    HW277300   3.010   3.980   6.687  1.2873 -0.6054  0.2420
24420SOL     OW77301   1.264   5.722   7.988 -0.2667 -0.2325  0.6089
24420SOL    HW177302   1.286   5.672   8.067 -0.0041 -0.2988  0.4964
24420SOL    HW277303   1.319   5.800   7.994 -0.4013 -0.1374  0.5960
24421SOL     OW77304   8.509   9.990   0.058  0.6659 -0.5886  0.2382
24421SOL    HW177305   8.483   9.960  -0.029 -0.6464  0.1586  0.3562
24421SOL    HW277306   8.604   9.997   0.053  0.5022  1.3528 -1.7901
24422SOL     OW77307   8.529   5.705   5.225  0.1124 -0.3673  0.0615
24422SOL    HW177308   8.615   5.671   5.250 -0.3723 -3.0238 -1.5127
24422SOL    HW277309   8.523   5.689   5.131 -2.1982 -0.5006  0.1694
24423SOL     OW77310   2.444   5.439   6.347 -0.2318  0.9467 -0.3246
24423SOL    HW177311   2.517   5.457   6.288 -1.1622  0.1720 -1.7692
24423SOL    HW277312   2.377   5.504   6.324 -1.0891 -0.1501 -1.0554
24424SOL     OW77313   9.296   1.051   2.822 -0.0478  0.8408  0.2187
24424SOL    HW177314   9.270   1.138   2.790  0.6368  0.5617 -1.1108
24424SOL    HW277315   9.375   1.029   2.774 -1.5026 -1.5596 -1.2700
24425SOL     OW77316   7.937   7.054   0.404 -0.0497  0.1013  0.1552
24425SOL    HW177317   7.862   7.089   0.453 -0.3733 -0.3164 -0.0326
24425SOL    HW277318   7.989   7.007   0.469 -0.7144 -0.8341  0.0268
24426SOL     OW77319   1.797   1.330   5.731 -0.1694 -0.2360  0.2775
24426SOL    HW177320   1.804   1.276   5.652  1.0257  1.0292 -0.5277
24426SOL    HW277321   1.852   1.285   5.796 -0.5422 -0.8761  0.1547
24427SOL     OW77322   3.163   0.469   8.413 -0.1099  0.3995 -0.5626
24427SOL    HW177323   3.071   0.467   8.388  0.2409  0.6199 -1.9633
24427SOL    HW277324   3.204   0.400   8.360  0.4037 -0.2436  0.6363
24428SOL     OW77325   1.777   3.101   7.394  0.0077 -0.2336 -0.1728
24428SOL    HW177326   1.750   3.161   7.324  1.0272 -0.3199 -0.6550
24428SOL    HW277327   1.803   3.158   7.466  0.1795 -0.1169 -0.3278
24429SOL     OW77328   4.261   2.190   8.550  0.0143 -0.0884 -0.2220
24429SOL    HW177329   4.179   2.185   8.598  0.2449  0.0702  0.1948
24429SOL    HW277330   4.264   2.279   8.515  0.4847  0.2390  0.6311
24430SOL     OW77331   0.979   7.383   6.347 -0.3213 -0.4123 -0.0153
24430SOL    HW177332   0.949   7.352   6.261 -0.0990 -0.4452 -0.0831
24430SOL    HW277333   1.036   7.457   6.327 -1.6161  0.6716  0.2023
24431SOL     OW77334   6.783   3.173   7.372 -0.1694  0.5817  0.0271
24431SOL    HW177335   6.763   3.086   7.409 -1.1909  1.6024  2.0644
24431SOL    HW277336   6.841   3.155   7.299  0.5466 -1.7612  1.0603
24432SOL     OW77337   5.813   3.004   4.475  0.6200 -0.1064 -0.4830
24432SOL    HW177338   5.772   3.006   4.389  2.1158  1.9756 -1.2026
24432SOL    HW277339   5.867   2.925   4.474 -0.0944 -0.5973 -1.0941
24433SOL     OW77340   4.278   3.659   9.722 -0.3489 -0.3658 -0.2354
24433SOL    HW177341   4.206   3.701   9.769 -1.6144 -0.9007 -1.6023
24433SOL    HW277342   4.312   3.727   9.664 -1.9057 -0.9015 -1.9001
24434SOL     OW77343   0.632   2.227   4.821 -0.6005 -0.8668  0.0267
24434SOL    HW177344   0.587   2.151   4.784 -2.3519 -0.0087  0.2833
24434SOL    HW277345   0.613   2.298   4.760  1.7637 -0.7580 -0.6943
24435SOL     OW77346   1.867   8.446   6.490  0.3206  0.0392  0.4931
24435SOL    HW177347   1.774   8.463   6.477  0.3949  1.2547  1.3784
24435SOL    HW277348   1.878   8.442   6.585  1.2363  0.2953  0.4095
24436SOL     OW77349   8.723   2.628   7.435 -0.0852 -0.4337  0.4125
24436SOL    HW177350   8.781   2.557   7.408 -1.2441 -0.8360 -1.1915
24436SOL    HW277351   8.698   2.670   7.352 -0.6927  0.8291  1.2168
24437SOL     OW77352   6.246   8.735   2.618  0.0865 -0.1955 -0.1731
24437SOL    HW177353   6.258   8.829   2.635 -0.6259 -0.2085  0.4721
24437SOL    HW277354   6.271   8.724   2.527 -0.2739  0.7158 -0.3949
24438SOL     OW77355   6.957   1.279   5.899 -0.1720 -0.4028  0.0236
24438SOL    HW177356   7.001   1.331   5.832  1.1528 -2.0081 -0.4147
24438SOL    HW277357   7.028   1.242   5.951 -1.0665 -1.6992  0.3611
24439SOL     OW77358   6.426   8.770   8.596  0.1555  0.2444  0.2387
24439SOL    HW177359   6.375   8.783   8.516  0.7932 -0.2606 -0.2604
24439SOL    HW277360   6.365   8.731   8.658  0.1213 -1.0585 -0.5896
24440SOL     OW77361  10.187   9.551   6.743  0.0042 -0.0150 -0.0394
24440SOL    HW177362  10.229   9.598   6.815  1.7918 -2.6157  0.7416
24440SOL    HW277363  10.233   9.468   6.738 -0.7726 -0.4027 -3.5315
24441SOL     OW77364   1.966   4.024   7.183  0.2430  0.3195 -0.4461
24441SOL    HW177365   1.980   4.051   7.092  1.5981  0.8253 -0.1039
24441SOL    HW277366   2.051   3.993   7.212  0.0572  1.0574  0.9453
24442SOL     OW77367   5.725   0.239   5.162 -0.1410 -0.2133 -0.1487
24442SOL    HW177368   5.798   0.264   5.219  1.0217 -1.0891 -1.1905
24442SOL    HW277369   5.649   0.284   5.199  0.7799  0.1386  1.4056
24443SOL     OW77370   4.802   8.307   8.864 -0.1967 -0.6012 -0.2286
24443SOL    HW177371   4.850   8.224   8.854  0.4000 -0.5669  1.9938
24443SOL    HW277372   4.766   8.304   8.952  0.6912  1.9289  0.3009
24444SOL     OW77373   2.266   9.100   3.916 -0.2337  0.2102 -0.0858
24444SOL    HW177374   2.192   9.063   3.869  1.1213 -1.5231 -0.9780
24444SOL    HW277375   2.334   9.112   3.849  0.3066  1.7986  0.6884
24445SOL     OW77376   9.449   1.029  10.106 -0.0831 -0.8688 -0.2062
24445SOL    HW177377   9.539   1.018  10.137 -0.0728 -0.4824 -0.0938
24445SOL    HW277378   9.411   1.092  10.166 -0.0363 -0.0346 -1.0298
24446SOL     OW77379   3.472   0.148   6.673  0.3212  0.0932 -0.4107
24446SOL    HW177380   3.445   0.204   6.746 -0.3131 -0.4214 -0.2383
24446SOL    HW277381   3.453   0.059   6.703  1.6037 -0.2421 -0.5630
24447SOL     OW77382   3.913   1.294   9.520  0.0728  0.0621 -0.2216
24447SOL    HW177383   3.920   1.261   9.610 -1.4652  1.2115  0.3572
24447SOL    HW277384   3.944   1.384   9.526 -0.0035  0.1288 -0.8566
24448SOL     OW77385   0.825   2.288   0.930  0.5171 -0.1017 -1.1320
24448SOL    HW177386   0.852   2.235   1.004 -1.5537 -0.9639 -0.9352
24448SOL    HW277387   0.907   2.319   0.892  1.6523 -0.1566  1.1063
24449SOL     OW77388   5.065   2.764   2.478  0.3396  1.0208  0.5348
24449SOL    HW177389   4.978   2.725   2.473  0.4839  0.3095  2.4989
24449SOL    HW277390   5.125   2.689   2.474  0.8211  1.4149  0.1731
24450SOL     OW77391   0.945   0.734   8.097 -0.0519  0.3009  0.2923
24450SOL    HW177392   0.870   0.711   8.152 -0.2875  1.9956  0.7535
24450SOL    HW277393   0.948   0.666   8.030 -2.3686  0.4492 -0.0557
24451SOL     OW77394   1.328   3.332   1.495  0.5082  0.1454 -0.1747
24451SOL    HW177395   1.281   3.402   1.450 -0.6036 -0.0318  0.6738
24451SOL    HW277396   1.325   3.356   1.588  2.1672  0.1591 -0.0902
24452SOL     OW77397   5.218   1.168   4.187  0.1028 -0.4926  0.1379
24452SOL    HW177398   5.257   1.254   4.195 -0.3971 -0.2045 -0.4104
24452SOL    HW277399   5.124   1.183   4.196  0.1276 -1.2927  2.4376
24453SOL     OW77400   9.633   3.811   7.972  0.2003  0.1198 -0.2827
24453SOL    HW177401   9.623   3.833   8.065 -3.4759 -1.3944 -0.1612
24453SOL    HW277402   9.617   3.894   7.926 -0.3866  0.3936  0.3999
24454SOL     OW77403   4.905   1.658   9.320 -0.3674  0.1296  0.7688
24454SOL    HW177404   4.978   1.650   9.258 -1.0792 -1.1363  0.0595
24454SOL    HW277405   4.900   1.752   9.339 -1.2306  0.8614 -2.4422
24455SOL     OW77406   3.811   6.281   3.087  0.7506  0.0215 -0.1614
24455SOL    HW177407   3.759   6.285   3.007 -0.8007  0.3661  0.8193
24455SOL    HW277408   3.899   6.306   3.060  0.3170 -0.0955 -1.7914
24456SOL     OW77409   2.835   0.115   5.431 -0.0023  0.2627  0.4581
24456SOL    HW177410   2.878   0.196   5.404  0.3887  0.0609  0.4781
24456SOL    HW277411   2.743   0.139   5.440 -0.0844  0.4445 -0.6411
24457SOL     OW77412   3.222   1.493   1.132 -0.3040  0.4538  0.1366
24457SOL    HW177413   3.228   1.492   1.228 -0.9318 -0.0294  0.1770
24457SOL    HW277414   3.296   1.439   1.103 -0.8857 -0.5128  0.4076
24458SOL     OW77415   5.447   8.692   3.393 -0.6860  0.1783  0.3047
24458SOL    HW177416   5.351   8.696   3.385 -0.7663 -3.0257 -1.9352
24458SOL    HW277417   5.471   8.607   3.358  3.0596  0.8518  0.8101
24459SOL     OW77418   3.129   6.688   4.173 -0.2618  0.4396  0.3146
24459SOL    HW177419   3.215   6.724   4.152 -0.7771  1.6798  0.2069
24459SOL    HW277420   3.110   6.723   4.261 -0.4600 -0.2068  0.5344
24460SOL     OW77421   5.169   8.878   1.031  0.2111 -0.3016 -0.2066
24460SOL    HW177422   5.234   8.864   1.100 -0.9145 -1.6257  0.6684
24460SOL    HW277423   5.110   8.803   1.040 -0.7213  0.2060 -1.7756
24461SOL     OW77424   8.788   5.632   5.377  0.3734 -0.2946  0.0659
24461SOL    HW177425   8.867   5.614   5.326 -0.6831  0.7154 -2.1036
24461SOL    HW277426   8.820   5.655   5.464  2.2949 -2.1302 -0.0761
24462SOL     OW77427   0.542   2.878   9.889 -0.8675 -0.1234  0.4411
24462SOL    HW177428   0.532   2.847   9.799 -1.8074 -0.2568  0.5770
24462SOL    HW277429   0.513   2.804   9.943 -2.4509  0.7066  0.7870
24463SOL     OW77430   0.316   0.980   8.954 -0.4591  0.0204  0.0823
24463SOL    HW177431   0.385   0.916   8.967  0.0499  0.0251 -2.2762
24463SOL    HW277432   0.235   0.928   8.950 -0.0525 -0.5308 -1.8102
24464SOL     OW77433   7.628   0.324   1.490  0.4498 -0.0660  0.2187
24464SOL    HW177434   7.711   0.327   1.538  0.0336  0.3426  0.9325
24464SOL    HW277435   7.562   0.347   1.555 -0.2311 -0.4044 -0.3368
24465SOL     OW77436   5.145   8.290   1.225  0.4930 -0.2690  0.5952
24465SOL    HW177437   5.221   8.258   1.177  2.0331 -1.0662  3.3788
24465SOL    HW277438   5.092   8.212   1.241 -0.5638  0.1592 -0.6270
24466SOL     OW77439   1.936   5.686   3.371 -0.0709 -0.0432  0.2408
24466SOL    HW177440   1.967   5.722   3.454 -0.3009 -2.0674  1.2722
24466SOL    HW277441   1.901   5.762   3.324 -1.2435  0.9894  2.5841
24467SOL     OW77442   3.597   6.899   8.804  0.3372 -0.1538  0.0980
24467SOL    HW177443   3.514   6.935   8.836 -0.2158 -2.4379  1.4717
24467SOL    HW277444   3.662   6.927   8.869  0.4290  0.5319 -0.2741
24468SOL     OW77445   6.773   8.450   9.965  0.4184 -0.1864 -0.1979
24468SOL    HW177446   6.800   8.535   9.999 -0.1742  0.2168 -0.7351
24468SOL    HW277447   6.805   8.387  10.030 -0.3663  0.5383  0.9169
24469SOL     OW77448   4.409   1.550   7.693 -0.4718  0.3775  0.4824
24469SOL    HW177449   4.417   1.602   7.774 -0.8991 -0.5758  1.1552
24469SOL    HW277450   4.334   1.589   7.647 -1.8252 -0.5820  1.7474
24470SOL     OW77451   3.560   8.430   3.211 -0.4489 -0.0612  0.3578
24470SOL    HW177452   3.648   8.392   3.213 -0.3131  0.2821  1.9969
24470SOL    HW277453   3.563   8.492   3.138  0.5423 -0.3431  0.1362
24471SOL     OW77454   6.577   5.518   9.486 -0.4150  0.0626 -0.2648
24471SOL    HW177455   6.618   5.518   9.573  1.0915  1.2427 -0.9148
24471SOL    HW277456   6.551   5.427   9.471 -0.0940 -0.2782  1.1437
24472SOL     OW77457   2.533   3.388   8.031  0.2583 -0.4863  0.3961
24472SOL    HW177458   2.576   3.464   8.070 -0.8759  0.1715  0.4257
24472SOL    HW277459   2.455   3.425   7.988  0.3753 -1.4727 -0.6926
24473SOL     OW77460   5.125   6.389   2.743 -0.2616 -0.5529 -0.1817
24473SOL    HW177461   5.156   6.405   2.654 -2.1557 -1.8031 -1.1353
24473SOL    HW277462   5.092   6.473   2.773  0.3058 -0.1400 -0.7027
24474SOL     OW77463   7.452   8.089   2.294  0.5609 -0.1572 -0.2166
24474SOL    HW177464   7.486   8.028   2.360 -0.7263  0.6694  1.2679
24474SOL    HW277465   7.444   8.037   2.214  0.1836 -1.7399  0.8248
24475SOL     OW77466   9.716   9.390   5.481  0.2555  0.1549  0.4288
24475SOL    HW177467   9.641   9.407   5.424  0.1754 -1.3280  0.0433
24475SOL    HW277468   9.747   9.477   5.507 -1.0469  0.8092 -0.1117
24476SOL     OW77469   6.840   6.857   7.776  0.1371  0.4675 -0.2328
24476SOL    HW177470   6.831   6.799   7.851  5.3697  0.9002  1.0950
24476SOL    HW277471   6.792   6.936   7.801 -0.4465 -0.3766  1.4782
24477SOL     OW77472   9.621   6.938   1.942 -0.0781 -1.0367 -0.3440
24477SOL    HW177473   9.695   6.914   1.998  0.4781  1.3347  0.0367
24477SOL    HW277474   9.564   6.861   1.944  1.5391 -2.2768  0.7486
24478SOL     OW77475   9.929   9.172   8.071 -0.5165 -0.3369 -0.5680
24478SOL    HW177476   9.982   9.092   8.067  0.2210  0.0503  0.5746
24478SOL    HW277477   9.983   9.239   8.028  0.4606  0.2907  1.4743
24479SOL     OW77478   7.285   5.935   7.956  0.3531  0.2672 -0.1378
24479SOL    HW177479   7.264   5.931   7.863  1.5043 -0.0997 -0.4034
24479SOL    HW277480   7.312   6.026   7.971  1.8018 -0.0567 -0.5717
24480SOL     OW77481   6.177   0.252   0.450  0.0174  0.0408 -0.2778
24480SOL    HW177482   6.171   0.157   0.463  2.0230 -0.3432 -1.7000
24480SOL    HW277483   6.139   0.290   0.530 -4.0311 -1.8316 -1.0645
24481SOL     OW77484   5.158   0.335   6.194  0.0656  0.0672 -0.6851
24481SOL    HW177485   5.138   0.355   6.102 -1.5791  0.6071 -0.2461
24481SOL    HW277486   5.228   0.397   6.217 -0.0931  0.5014 -1.3392
24482SOL     OW77487   6.982   0.861   7.457 -0.1881  0.0343  0.4785
24482SOL    HW177488   6.978   0.819   7.371  1.8263 -0.9715  0.8239
24482SOL    HW277489   7.018   0.948   7.440 -1.3723  0.4855  0.1458
24483SOL     OW77490   2.427   2.683   0.942 -0.2550 -0.0655  0.4625
24483SOL    HW177491   2.521   2.668   0.935 -0.3191  0.0007 -0.7403
24483SOL    HW277492   2.412   2.765   0.895 -0.6840  0.9185  2.1998
24484SOL     OW77493   4.093   5.452   6.996  0.2573  0.3061  0.4406
24484SOL    HW177494   4.127   5.368   6.966  0.6634  0.2710  0.9739
24484SOL    HW277495   4.103   5.449   7.091 -0.5050  0.6220  0.5378
24485SOL     OW77496   3.958   6.563   2.605 -0.0814  0.1064 -0.0408
24485SOL    HW177497   4.039   6.519   2.628  0.1599 -0.1798 -1.3673
24485SOL    HW277498   3.892   6.524   2.662  0.4486 -0.7027  0.0309
24486SOL     OW77499   3.938   8.202   4.340 -0.4243 -0.3972  0.3450
24486SOL    HW177500   3.969   8.274   4.395  0.9536 -1.6391  1.2646
24486SOL    HW277501   3.953   8.124   4.392 -2.2529 -1.3632 -0.4773
24487SOL     OW77502   2.522   2.426   7.540  0.6362 -0.3699 -0.5345
24487SOL    HW177503   2.462   2.396   7.472  0.6313 -2.2329  0.2362
24487SOL    HW277504   2.471   2.487   7.592 -0.3129 -1.2276 -0.4338
24488SOL     OW77505   3.485   9.404   5.622 -0.3445  0.4123 -0.2436
24488SOL    HW177506   3.523   9.371   5.541  0.8058 -0.5461  0.6356
24488SOL    HW277507   3.395   9.371   5.621  0.2055 -1.1918 -0.2968
24489SOL     OW77508   3.767   4.950   0.181 -0.5464 -0.7038 -0.0760
24489SOL    HW177509   3.800   4.924   0.095 -1.0464 -0.7584 -0.2587
24489SOL    HW277510   3.776   4.871   0.235  2.3158  0.0566  0.7407
24490SOL     OW77511   3.947   8.213   3.534 -0.0834  0.0594  0.3254
24490SOL    HW177512   3.856   8.214   3.503  0.6676  2.8799 -2.2424
24490SOL    HW277513   3.983   8.131   3.500 -1.2851 -0.4652  0.2451
24491SOL     OW77514   4.291   6.348   4.143  1.0535 -0.3416  0.1325
24491SOL    HW177515   4.286   6.397   4.225 -0.4650  1.0204 -0.7004
24491SOL    HW277516   4.286   6.415   4.075 -1.5724 -1.5966 -1.0707
24492SOL     OW77517   1.397   7.218   3.527  0.0553  0.4505  0.5140
24492SOL    HW177518   1.319   7.184   3.482  1.4065 -0.9632 -0.8615
24492SOL    HW277519   1.433   7.283   3.467 -0.1970  1.3172  1.2808
24493SOL     OW77520   3.529  10.102   3.296  0.2873 -0.4889  0.2185
24493SOL    HW177521   3.593  10.112   3.226  1.9175 -1.0519  1.5410
24493SOL    HW277522   3.444  10.114   3.254  1.2841  1.1199 -1.4604
24494SOL     OW77523   8.407   6.260   4.894  0.4168  0.1424 -0.6718
24494SOL    HW177524   8.423   6.314   4.817  0.1830  0.6731 -0.3576
24494SOL    HW277525   8.368   6.320   4.958  1.6051 -0.0348  0.2521
24495SOL     OW77526   6.045   4.923   1.647 -1.0417  0.2503  1.0342
24495SOL    HW177527   5.990   4.923   1.725 -0.6369 -0.0587  1.3228
24495SOL    HW277528   5.998   4.978   1.584 -0.9277  1.2578  1.8065
24496SOL     OW77529   8.952   1.384   0.482 -0.4612  0.3182  0.3231
24496SOL    HW177530   8.989   1.471   0.495  0.9940 -0.1994 -0.0751
24496SOL    HW277531   9.008   1.344   0.415 -2.1225 -0.3355 -0.7248
24497SOL     OW77532   1.191  10.204   9.775  0.6068  0.0817  0.2596
24497SOL    HW177533   1.263  10.249   9.819  0.9869 -0.9397  0.7082
24497SOL    HW277534   1.134  10.274   9.744  2.2648  0.9553 -0.9435
24498SOL     OW77535   0.824   4.897  10.136 -0.4147 -0.3916  0.2863
24498SOL    HW177536   0.895   4.960  10.127 -0.5186  0.0768  2.3504
24498SOL    HW277537   0.796   4.879  10.046  0.9375  0.9678 -0.4416
24499SOL     OW77538   7.373   9.072   3.077  0.3519 -0.0166  0.0756
24499SOL    HW177539   7.423   8.991   3.072  2.1553  1.0542 -0.4207
24499SOL    HW277540   7.358   9.097   2.985 -1.8545 -0.7072  0.1975
24500SOL     OW77541   9.589   9.901   6.949  0.1217  0.5562  0.1847
24500SOL    HW177542   9.676   9.936   6.930  0.9238 -1.6915 -0.6316
24500SOL    HW277543   9.605   9.829   7.010 -1.0801 -0.2067 -0.3534
24501SOL     OW77544   1.127   0.891   0.479 -0.1391 -0.5065 -0.5170
24501SOL    HW177545   1.097   0.945   0.406 -0.6646  0.5043  0.4261
24501SOL    HW277546   1.197   0.838   0.442 -0.5831 -0.2178 -1.8259
24502SOL     OW77547   8.981   3.852   0.025 -0.3487 -0.1971  0.1497
24502SOL    HW177548   8.998   3.939  -0.012 -0.1241 -1.3139 -2.6768
24502SOL    HW277549   9.043   3.843   0.097  2.6203  0.4969 -2.1228
24503SOL     OW77550   3.100   8.168   1.515  0.3938 -0.4463  0.4892
24503SOL    HW177551   3.068   8.149   1.603  1.1290 -0.1100  0.8418
24503SOL    HW277552   3.184   8.211   1.529 -0.4295  1.5323 -0.3208
24504SOL     OW77553   7.234   7.494   7.818 -0.0002  0.3269  0.5619
24504SOL    HW177554   7.323   7.462   7.806 -1.0108 -3.1612  1.1533
24504SOL    HW277555   7.207   7.524   7.731  0.9227 -0.9790 -0.1987
24505SOL     OW77556   3.895   6.354   8.314 -0.5342  0.2039 -0.2538
24505SOL    HW177557   3.853   6.416   8.372 -3.1060 -1.7809  0.1925
24505SOL    HW277558   3.968   6.318   8.365 -0.5350  1.0496  0.3643
24506SOL     OW77559   3.890   0.208   9.004  0.1117 -0.0868  0.2242
24506SOL    HW177560   3.845   0.152   8.940  0.8429  0.7750 -1.0999
24506SOL    HW277561   3.911   0.288   8.955  0.5513  0.6723  1.6080
24507SOL     OW77562   6.001   9.257   8.010  0.3150  0.2665 -1.0131
24507SOL    HW177563   5.969   9.306   8.086 -1.1155 -0.1623 -1.3011
24507SOL    HW277564   6.095   9.251   8.024 -0.0283 -0.9826  1.4751
24508SOL     OW77565   5.696   3.201   1.975  0.0777 -0.3856 -0.7606
24508SOL    HW177566   5.686   3.146   1.897  1.4449  0.5723 -1.6586
24508SOL    HW277567   5.750   3.274   1.945  0.8203 -0.1051  1.1450
24509SOL     OW77568   0.072   0.161   7.533 -0.2324 -1.2618 -0.1232
24509SOL    HW177569   0.067   0.169   7.628  1.3533  1.1321 -0.1501
24509SOL    HW277570   0.138   0.093   7.519  0.3127 -0.8940  0.5382
24510SOL     OW77571   9.295   8.078   8.200 -0.5654  0.1204  0.0029
24510SOL    HW177572   9.306   8.011   8.268  0.7967  0.0910 -0.2401
24510SOL    HW277573   9.376   8.076   8.150 -0.4466  2.0390  0.0692
24511SOL     OW77574   7.191  10.155   1.338 -0.1221 -0.5706 -0.3529
24511SOL    HW177575   7.134  10.121   1.406 -0.2667 -0.7556 -0.5650
24511SOL    HW277576   7.133  10.175   1.265 -0.0853  0.4615 -0.1121
24512SOL     OW77577   5.107   5.124   9.394  0.5036  0.0820 -0.0848
24512SOL    HW177578   5.153   5.089   9.470  0.8517 -0.1778 -0.4111
24512SOL    HW277579   5.148   5.209   9.378  0.1811  0.2986  0.2418
24513SOL     OW77580   7.840   4.217   3.682  0.2015  0.3356  0.4475
24513SOL    HW177581   7.787   4.173   3.749 -0.1449  1.0195  0.6352
24513SOL    HW277582   7.889   4.284   3.731  1.0680 -0.1279  0.2363
24514SOL     OW77583   8.836   6.399   2.868 -0.1467  0.3796  0.0127
24514SOL    HW177584   8.926   6.369   2.854 -0.2437  0.2895 -0.4365
24514SOL    HW277585   8.804   6.345   2.939 -0.8812 -1.8208 -1.8566
24515SOL     OW77586   9.846   6.885   0.888 -0.3614 -0.2672  0.4084
24515SOL    HW177587   9.806   6.825   0.952 -0.1259 -0.5912  0.2580
24515SOL    HW277588   9.772   6.932   0.849 -0.9163 -2.6449 -1.6917
24516SOL     OW77589   8.087   4.732   9.964 -0.7658  0.1507 -0.4438
24516SOL    HW177590   8.131   4.770   9.888 -2.1879  0.7141 -1.0156
24516SOL    HW277591   8.154   4.677  10.006  0.0721 -0.0916 -2.0401
24517SOL     OW77592   6.563   9.751   1.427  0.0104 -0.4398  0.1464
24517SOL    HW177593   6.576   9.785   1.515 -0.7216 -1.6079  0.7313
24517SOL    HW277594   6.592   9.660   1.431  0.6495 -0.3084 -1.0165
24518SOL     OW77595   5.623   5.601   3.753  0.0714  0.2860 -0.1590
24518SOL    HW177596   5.684   5.526   3.751 -1.2258 -0.7974 -0.6142
24518SOL    HW277597   5.613   5.622   3.845 -0.6527 -1.0715  0.1009
24519SOL     OW77598   7.039   6.423   5.326  0.0057 -0.3331 -0.1653
24519SOL    HW177599   6.985   6.469   5.261  0.3839  0.1435 -0.1538
24519SOL    HW277600   7.001   6.448   5.410  0.1548 -0.1050 -0.1632
24520SOL     OW77601  10.033   5.464   3.311 -0.0739  0.2518 -0.0413
24520SOL    HW177602  10.124   5.485   3.334 -0.4227  0.8265  0.8638
24520SOL    HW277603  10.029   5.368   3.317 -0.0939  0.3532  2.2133
24521SOL     OW77604   6.488   5.338   1.910 -0.2063 -0.5316 -0.1932
24521SOL    HW177605   6.410   5.342   1.964  0.6454 -2.1804  1.2634
24521SOL    HW277606   6.557   5.377   1.963  0.3148 -0.6959 -0.7279
24522SOL     OW77607   9.870   1.184   5.315  0.4514 -0.2093  0.2063
24522SOL    HW177608   9.875   1.206   5.222  0.8937  1.7611  0.6473
24522SOL    HW277609   9.789   1.133   5.323 -1.1730  2.0148 -0.8673
24523SOL     OW77610   3.737   3.330   8.252  0.3182 -0.6437  0.4543
24523SOL    HW177611   3.743   3.248   8.300 -0.0539  0.2227  2.0524
24523SOL    HW277612   3.721   3.397   8.319 -2.3086  0.3939 -1.0042
24524SOL     OW77613   5.406   4.341   6.019 -0.3720  0.5950 -0.5092
24524SOL    HW177614   5.437   4.378   6.101 -0.0253  1.3336 -0.9669
24524SOL    HW277615   5.448   4.254   6.015 -1.9453 -0.2975  1.0182
24525SOL     OW77616   0.876   1.523   6.781  0.3203 -0.8628  0.4133
24525SOL    HW177617   0.818   1.597   6.765  0.3774 -0.7878  0.5452
24525SOL    HW277618   0.936   1.522   6.707 -2.0092 -3.0930 -1.6246
24526SOL     OW77619   8.625   2.503   6.766 -0.0294  0.9962 -0.3865
24526SOL    HW177620   8.545   2.493   6.714 -0.5637  0.9042  0.4308
24526SOL    HW277621   8.622   2.431   6.829 -0.2774  2.0842  0.8876
24527SOL     OW77622   3.287   6.873   9.550 -0.4037  0.2218  0.0124
24527SOL    HW177623   3.223   6.812   9.514  1.0486 -0.1585 -2.0968
24527SOL    HW277624   3.235   6.936   9.600 -2.6641  0.8829 -2.9106
24528SOL     OW77625   6.200   8.600  10.271 -0.2884 -0.3700  0.0232
24528SOL    HW177626   6.224   8.692  10.268 -2.5584  0.3062  0.5977
24528SOL    HW277627   6.185   8.575  10.180 -1.0024  0.2521 -0.0406
24529SOL     OW77628   0.646   5.407   1.898 -0.7395 -0.1884 -0.1701
24529SOL    HW177629   0.610   5.476   1.954 -0.0162  0.1671 -0.1338
24529SOL    HW277630   0.581   5.395   1.830 -0.8232  0.6043 -0.2312
24530SOL     OW77631   7.750   6.189   5.163  0.6607 -0.3803  0.1706
24530SOL    HW177632   7.722   6.208   5.252  2.0049  0.3338  0.4692
24530SOL    HW277633   7.786   6.100   5.168  1.5070 -0.0331  0.5598
24531SOL     OW77634   2.819   3.744   5.598  0.4794 -0.1419 -0.3275
24531SOL    HW177635   2.895   3.798   5.615  0.6726 -1.0029  1.9470
24531SOL    HW277636   2.753   3.804   5.562  2.2077  0.5788 -2.4792
24532SOL     OW77637   1.780   8.053   4.038  0.1706  0.2616 -0.0619
24532SOL    HW177638   1.830   8.111   4.096 -2.4991  0.8745  1.8323
24532SOL    HW277639   1.772   7.971   4.087  2.2588 -1.1477 -1.8926
24533SOL     OW77640   1.254   5.092   3.814 -0.1105  0.3484  0.5977
24533SOL    HW177641   1.310   5.163   3.848  0.2791 -0.2741  1.2873
24533SOL    HW277642   1.247   5.031   3.887 -0.2228 -0.4533 -0.0757
24534SOL     OW77643   6.343   4.488   1.426 -0.2262  0.2274  0.2374
24534SOL    HW177644   6.315   4.553   1.361  0.3993 -0.5145 -0.8015
24534SOL    HW277645   6.285   4.502   1.500 -1.5944  0.4816 -0.8409
24535SOL     OW77646   8.881   9.142   2.297  0.1039  0.0225  0.3994
24535SOL    HW177647   8.786   9.129   2.307  0.2971 -0.8885  1.1986
24535SOL    HW277648   8.889   9.230   2.261 -1.0701 -0.0519 -0.1135
24536SOL     OW77649   9.240   9.426   8.014 -0.7605 -0.1638  0.5372
24536SOL    HW177650   9.193   9.345   7.996  0.9466 -1.3479  1.1337
24536SOL    HW277651   9.322   9.417   7.966 -0.3081  0.9722  1.0629
24537SOL     OW77652   5.183   2.365   4.254  0.3443  0.1167  0.4183
24537SOL    HW177653   5.152   2.454   4.234 -0.4649 -0.1277  0.5366
24537SOL    HW277654   5.194   2.364   4.349  2.7729  0.8318  0.1964
24538SOL     OW77655   8.433   4.255   7.019 -0.8395  0.2024 -0.5182
24538SOL    HW177656   8.387   4.290   7.095  1.6740  1.4469  0.5590
24538SOL    HW277657   8.507   4.207   7.055  0.2237  0.5319 -2.1350
24539SOL     OW77658   6.053   6.345   0.653 -0.5012 -0.4619  0.0222
24539SOL    HW177659   6.125   6.402   0.625 -0.7902 -0.1157 -0.0162
24539SOL    HW277660   6.047   6.278   0.584 -0.2651 -0.4520 -0.0094
24540SOL     OW77661   1.637   2.893   9.064  0.3816  0.9360  0.3573
24540SOL    HW177662   1.602   2.873   8.977 -0.6062  2.9097  0.2546
24540SOL    HW277663   1.617   2.815   9.116 -2.0844  1.0129 -0.3360
24541SOL     OW77664   8.720   2.442   3.501 -0.1322 -0.2852  0.4415
24541SOL    HW177665   8.650   2.472   3.558 -0.5601  1.9438 -1.1169
24541SOL    HW277666   8.677   2.385   3.437 -0.4839  0.6607 -0.1938
24542SOL     OW77667   0.971   3.299   2.424  0.0444  0.2388  1.0536
24542SOL    HW177668   1.046   3.350   2.393 -0.1905  0.5352  0.9646
24542SOL    HW277669   1.008   3.216   2.453  0.3174  0.1004  0.3306
24543SOL     OW77670   9.062   4.929   6.285  0.0543  0.4141  0.2161
24543SOL    HW177671   9.099   4.972   6.362 -0.6158 -0.0073  0.7770
24543SOL    HW277672   9.120   4.855   6.269  1.2648  1.5203 -0.8026
24544SOL     OW77673   3.454   7.459   5.461 -0.0226  0.2616  0.4099
24544SOL    HW177674   3.409   7.402   5.400  0.2063 -1.4450  1.7511
24544SOL    HW277675   3.404   7.540   5.461 -0.4020  0.0613 -1.4971
24545SOL     OW77676   8.328   1.372   6.721  0.2370  0.4083  0.9123
24545SOL    HW177677   8.411   1.330   6.744  0.1525 -0.3545 -0.1217
24545SOL    HW277678   8.343   1.407   6.633 -1.4173 -2.3243 -0.5777
24546SOL     OW77679   4.423   8.422   5.048  0.1073  0.6301  0.2210
24546SOL    HW177680   4.431   8.493   5.112  1.9694  0.2528  0.4630
24546SOL    HW277681   4.509   8.381   5.047  0.1250  0.5443 -2.4758
24547SOL     OW77682   8.678   7.203   9.888  0.4790 -0.4270 -0.8501
24547SOL    HW177683   8.700   7.284   9.843  0.5854 -0.5363 -0.9954
24547SOL    HW277684   8.727   7.135   9.841  2.6600 -0.2471  1.0225
24548SOL     OW77685   0.136   9.334  10.091  0.1688 -0.6250  0.1699
24548SOL    HW177686   0.140   9.406  10.154  1.1425 -0.8670  0.4069
24548SOL    HW277687   0.064   9.280  10.121  0.0368 -0.2508  0.5444
24549SOL     OW77688   4.042   9.626   5.107 -0.1899  0.1278 -0.1085
24549SOL    HW177689   4.004   9.699   5.058 -0.1626  0.2345  0.0278
24549SOL    HW277690   4.033   9.652   5.199 -3.0389 -1.3862  0.1378
24550SOL     OW77691   1.471   4.455   0.821 -0.5719 -0.0460  0.0416
24550SOL    HW177692   1.383   4.420   0.829 -1.3001  1.6717 -0.0351
24550SOL    HW277693   1.459   4.550   0.813  1.2879  0.2527  0.2513
24551SOL     OW77694   8.279   1.760   6.847 -0.4793 -0.0841  0.0349
24551SOL    HW177695   8.243   1.828   6.905 -0.6629  1.0265 -1.3146
24551SOL    HW277696   8.202   1.711   6.818 -0.2117 -1.8653  2.1431
24552SOL     OW77697   4.182  10.116  10.218  0.4694 -0.3181  0.5509
24552SOL    HW177698   4.226  10.053  10.277 -2.1327 -0.0199  3.0537
24552SOL    HW277699   4.095  10.078  10.204  0.5153  0.3893 -2.0038
24553SOL     OW77700   8.215   6.707   8.844 -0.3240 -0.4486 -0.1185
24553SOL    HW177701   8.155   6.668   8.780 -0.6432 -0.3165  0.0958
24553SOL    HW277702   8.217   6.800   8.823 -1.1415 -0.2479  0.6151
24554SOL     OW77703   7.307   8.626   6.446 -0.4144  0.2241 -0.1375
24554SOL    HW177704   7.284   8.598   6.358 -0.9244 -0.7162  0.2796
24554SOL    HW277705   7.359   8.554   6.482  0.9679  1.1722 -0.1248
24555SOL     OW77706   7.892   5.743   3.763  0.3938 -0.5641  0.0585
24555SOL    HW177707   7.942   5.735   3.844 -1.0769 -0.9553  0.9736
24555SOL    HW277708   7.837   5.664   3.762 -0.2924 -0.0858 -0.8390
24556SOL     OW77709   3.147   7.866   8.589  0.5674 -0.0290  0.3125
24556SOL    HW177710   3.095   7.859   8.669  0.2613  2.4004  0.4129
24556SOL    HW277711   3.089   7.835   8.520  0.1862 -0.4769  0.8217
24557SOL     OW77712   0.229  10.256   9.748 -0.1106  0.5389  0.0420
24557SOL    HW177713   0.214  10.164   9.726 -0.5082  0.1750  1.7083
24557SOL    HW277714   0.176  10.304   9.685 -1.7990 -0.4694  0.6288
24558SOL     OW77715   0.656   7.631   0.052  0.1076 -0.5059  0.0840
24558SOL    HW177716   0.578   7.686   0.046 -0.7157 -1.4540  1.4128
24558SOL    HW277717   0.640   7.575   0.128  2.2736 -0.4635  0.6346
24559SOL     OW77718   8.498   9.751   9.612 -0.1141 -0.2202 -0.0034
24559SOL    HW177719   8.411   9.785   9.593  0.0558 -0.7834 -2.1253
24559SOL    HW277720   8.526   9.711   9.529  2.8359  1.4014  0.0656
24560SOL     OW77721   0.228   3.997   1.991  0.4042  0.2491  0.0569
24560SOL    HW177722   0.195   3.913   1.959  0.9213 -0.1479  0.5468
24560SOL    HW277723   0.158   4.030   2.047  0.4316 -0.1366  0.3260
24561SOL     OW77724   3.851   2.502   5.842 -0.2628  0.1324  0.0175
24561SOL    HW177725   3.793   2.550   5.901  0.3817  0.0751  0.7233
24561SOL    HW277726   3.908   2.452   5.901 -1.8556 -2.6923 -0.7077
24562SOL     OW77727   3.843   6.782  10.058 -0.4623  0.0250  0.0536
24562SOL    HW177728   3.936   6.759  10.052 -0.2653  0.8880 -0.3681
24562SOL    HW277729   3.803   6.707  10.102  0.5402 -0.0891  0.8178
24563SOL     OW77730   6.429   1.714   3.838 -0.0235 -0.8618 -0.6283
24563SOL    HW177731   6.433   1.701   3.743  0.7840 -1.3254 -0.5427
24563SOL    HW277732   6.475   1.638   3.874 -0.7456 -0.9416  0.1561
24564SOL     OW77733   1.251   7.079   2.978  0.2409 -0.5304  0.0338
24564SOL    HW177734   1.211   7.043   2.898  2.0152  0.3694 -1.3014
24564SOL    HW277735   1.176   7.112   3.028 -0.7683  1.2086 -2.4252
24565SOL     OW77736   1.667   5.890   0.603 -0.3053 -0.2721 -0.1541
24565SOL    HW177737   1.696   5.980   0.621 -0.5512 -0.3398  0.6419
24565SOL    HW277738   1.735   5.835   0.642 -0.0228 -0.4351 -0.8710
24566SOL     OW77739   7.483   8.046   8.453  0.6722 -0.2883  0.5050
24566SOL    HW177740   7.449   8.136   8.455  0.6406 -0.2971  0.3255
24566SOL    HW277741   7.570   8.053   8.494  0.0938 -0.4236  1.8127
24567SOL     OW77742   7.690   4.078  10.055  0.2356  0.0979 -0.5097
24567SOL    HW177743   7.627   4.099  10.124 -1.1733 -0.3214 -1.6141
24567SOL    HW277744   7.775   4.099  10.093 -0.6076  1.3739  0.7928
24568SOL     OW77745  10.199   8.456   4.721  0.2731  0.0379 -0.3644
24568SOL    HW177746  10.152   8.494   4.795 -0.8008  0.2406 -1.1366
24568SOL    HW277747  10.267   8.521   4.700 -0.6148  0.8804 -0.7372
24569SOL     OW77748   6.264   5.247   9.940  0.1815 -0.0926  0.4155
24569SOL    HW177749   6.306   5.161   9.944 -1.9899 -1.3529 -1.2497
24569SOL    HW277750   6.247   5.270  10.032 -2.1820 -3.1047  0.8733
24570SOL     OW77751   0.267   1.083   6.044  0.2853  0.4007 -0.0741
24570SOL    HW177752   0.270   1.014   5.977 -2.3403 -0.7912  0.8655
24570SOL    HW277753   0.318   1.155   6.007  2.8441 -1.8447 -1.2724
24571SOL     OW77754   2.560   3.584   6.806 -0.2192 -0.8725  0.0239
24571SOL    HW177755   2.611   3.550   6.880  1.1141  0.5875 -0.1784
24571SOL    HW277756   2.614   3.566   6.729  0.1840  0.9084 -0.1676
24572SOL     OW77757   4.031   9.468   0.057  0.2139  0.2059  0.2048
24572SOL    HW177758   4.107   9.506   0.014  0.6737 -0.7456  0.1564
24572SOL    HW277759   4.012   9.527   0.130  1.5911 -0.0586  0.7990
24573SOL     OW77760   3.411   7.369   8.460 -0.9979 -0.8670 -0.1823
24573SOL    HW177761   3.484   7.321   8.419 -0.8959  0.3021 -1.4460
24573SOL    HW277762   3.347   7.378   8.390  0.1093  3.1356 -0.9162
24574SOL     OW77763   7.555   4.801   6.474 -0.3278 -0.1403 -0.5105
24574SOL    HW177764   7.618   4.757   6.417  0.6495  1.8553 -1.0863
24574SOL    HW277765   7.605   4.822   6.553 -0.7355  0.0417 -0.2974
24575SOL     OW77766   3.121   3.905   5.248  0.0598  0.4535 -0.6108
24575SOL    HW177767   3.144   3.885   5.157 -0.8956 -3.4854 -0.1713
24575SOL    HW277768   3.202   3.893   5.297 -0.0271 -0.1801 -0.6219
24576SOL     OW77769   6.523   0.191   6.001 -0.0001  0.5839 -0.2683
24576SOL    HW177770   6.553   0.135   6.073  0.0170  1.5655  0.5013
24576SOL    HW277771   6.441   0.150   5.973  0.9392 -0.9018 -0.9873
24577SOL     OW77772   0.117   5.358   1.071  0.5109 -0.2394 -0.1503
24577SOL    HW177773   0.166   5.327   0.994  1.4507 -1.3273  0.8489
24577SOL    HW277774   0.046   5.295   1.081  1.2783 -0.9848  0.7429
24578SOL     OW77775   1.874   9.186   8.604 -0.9310  0.1908  0.3142
24578SOL    HW177776   1.937   9.116   8.618 -0.7225  0.4928  0.8780
24578SOL    HW277777   1.798   9.141   8.566 -0.9981 -0.4307  1.1412
24579SOL     OW77778   3.696   5.351   7.612 -0.2563 -0.0480  0.0407
24579SOL    HW177779   3.637   5.372   7.539 -0.9029 -0.9164  0.2905
24579SOL    HW277780   3.717   5.259   7.600 -0.1465 -0.1275  0.7943
24580SOL     OW77781   2.587   1.902   9.357 -0.1913 -0.2537  0.2699
24580SOL    HW177782   2.511   1.844   9.363 -0.0672 -0.6503 -1.4349
24580SOL    HW277783   2.558   1.973   9.300  0.0765  0.7185  1.3073
24581SOL     OW77784   8.768   7.366   7.150  0.5479 -0.4139  0.8395
24581SOL    HW177785   8.838   7.300   7.142  0.0583 -1.0280  1.4282
24581SOL    HW277786   8.696   7.318   7.191 -0.3331  0.1322 -0.0356
24582SOL     OW77787   3.199   4.701   2.502  0.0923 -0.3222 -0.1251
24582SOL    HW177788   3.123   4.652   2.469  0.4296 -0.8049 -0.2002
24582SOL    HW277789   3.212   4.771   2.438  0.1381 -0.6604 -0.4935
24583SOL     OW77790   7.779  10.132   2.338  0.6779  0.1624  0.5898
24583SOL    HW177791   7.789  10.118   2.244  1.8727 -0.6771  0.8180
24583SOL    HW277792   7.867  10.153   2.369  0.2133  0.9052  1.4585
24584SOL     OW77793   2.581   3.146   4.313 -0.2526 -0.1066  0.1264
24584SOL    HW177794   2.517   3.103   4.370 -0.8535  1.1566  0.4387
24584SOL    HW277795   2.647   3.181   4.372  1.1922 -2.0575 -0.2417
24585SOL     OW77796   8.493   0.497   0.351  0.3005  0.3944 -0.1827
24585SOL    HW177797   8.526   0.556   0.282  0.7066  0.0225 -0.3096
24585SOL    HW277798   8.416   0.456   0.312 -0.1549  1.0423  0.0064
24586SOL     OW77799   2.351   1.107   6.937  0.2430 -0.8087  0.5077
24586SOL    HW177800   2.257   1.091   6.940  0.1137 -0.0139  0.7384
24586SOL    HW277801   2.381   1.096   7.027  0.6681 -2.7330  0.1744
24587SOL     OW77802   5.143   0.231   7.447 -0.0763  0.0255  0.2706
24587SOL    HW177803   5.225   0.232   7.398  0.7755 -1.7588  1.5515
24587SOL    HW277804   5.077   0.204   7.384  0.6683 -0.4266 -0.3193
24588SOL     OW77805   0.430   6.315   6.613 -0.3233  0.2817  0.3271
24588SOL    HW177806   0.511   6.325   6.664  0.4312  1.1620 -0.9989
24588SOL    HW277807   0.371   6.380   6.650 -0.8600 -1.0762  2.0189
24589SOL     OW77808   8.972   4.321   0.763  0.0822  0.1114  0.0878
24589SOL    HW177809   8.927   4.236   0.764  1.1801 -0.5097  1.7049
24589SOL    HW277810   9.028   4.318   0.686 -2.0718  0.6367 -1.5900
24590SOL     OW77811   9.749   9.051   6.051  0.4632  0.5823  0.3398
24590SOL    HW177812   9.726   8.971   6.098  3.1634  0.2301  1.2380
24590SOL    HW277813   9.718   9.122   6.107  1.5563  0.1410  1.5636
24591SOL     OW77814   0.668   0.165   7.930 -0.4371 -0.3247  0.2160
24591SOL    HW177815   0.618   0.121   7.998 -1.1966  1.2442  0.7356
24591SOL    HW277816   0.639   0.125   7.848 -1.6788 -0.2678  0.6119
24592SOL     OW77817   4.510   1.308   5.642 -0.3854  0.5190  0.4638
24592SOL    HW177818   4.438   1.282   5.699 -0.2883 -1.9567 -0.4097
24592SOL    HW277819   4.589   1.298   5.696 -0.4817  0.4089  0.5840
24593SOL     OW77820   4.010   1.246   0.099 -0.1328  0.1636 -0.1301
24593SOL    HW177821   3.981   1.174   0.042 -0.7836 -0.1791  0.6225
24593SOL    HW277822   3.944   1.249   0.169  0.0093  1.3459 -0.0316
24594SOL     OW77823   2.252   5.918   9.919  0.0463 -0.0050  0.0582
24594SOL    HW177824   2.272   5.992   9.977 -1.5306  0.1571  0.4405
24594SOL    HW277825   2.289   5.943   9.834  1.8557  0.0221  0.7989
24595SOL     OW77826   1.053   0.110   9.673  0.1353 -0.9025  0.4310
24595SOL    HW177827   0.983   0.128   9.610  1.2899 -0.8177 -0.8826
24595SOL    HW277828   1.039   0.174   9.743  1.1793  1.8725 -1.7037
24596SOL     OW77829   3.835   6.683   4.215 -0.1076  0.7435  0.4089
24596SOL    HW177830   3.840   6.772   4.179  0.8047  0.6193  0.1849
24596SOL    HW277831   3.903   6.681   4.283 -0.5337  0.3978  0.8307
24597SOL     OW77832   6.176   2.363   3.031 -0.0694  0.4069  0.0677
24597SOL    HW177833   6.199   2.275   3.004 -0.9174  1.0859 -3.3715
24597SOL    HW277834   6.108   2.351   3.098  0.4256 -1.5197  0.2592
24598SOL     OW77835   8.866   7.273   9.554  0.3352  0.1601 -0.0728
24598SOL    HW177836   8.902   7.297   9.468  1.6740 -2.0529 -0.2152
24598SOL    HW277837   8.874   7.178   9.557 -1.7385 -0.0276  1.6528
24599SOL     OW77838   5.032   0.018   0.455  0.0951 -0.2935  0.6831
24599SOL    HW177839   5.119   0.057   0.444 -0.8848  1.6989 -0.4943
24599SOL    HW277840   5.026  -0.002   0.548  1.4329  0.4560  0.9535
24600SOL     OW77841   6.563   2.738   4.295  0.0636 -1.0101  0.1903
24600SOL    HW177842   6.622   2.793   4.348 -1.4902  0.0730  0.8684
24600SOL    HW277843   6.622   2.683   4.244  1.7951  1.8561 -1.1849
24601SOL     OW77844   1.785   2.283   6.609  0.0010  0.3952 -0.1650
24601SOL    HW177845   1.757   2.238   6.689 -1.8034 -0.1057 -1.0346
24601SOL    HW277846   1.842   2.219   6.565  2.1343  1.1746  1.3024
24602SOL     OW77847   7.905   4.715   5.504  0.6404  0.6328  0.2498
24602SOL    HW177848   7.857   4.640   5.541 -2.0889  1.9953 -0.2748
24602SOL    HW277849   7.921   4.772   5.580 -0.8130  1.2702  0.1239
24603SOL     OW77850   9.150   4.722   8.182  0.3684  0.4083 -0.4108
24603SOL    HW177851   9.181   4.657   8.119  0.9219  1.0986 -0.8675
24603SOL    HW277852   9.115   4.793   8.128  0.7099  0.9422  0.0580
24604SOL     OW77853   7.181  10.138   3.477 -0.2731  0.5388 -0.2641
24604SOL    HW177854   7.268  10.175   3.464  0.5869 -0.6801  1.5925
24604SOL    HW277855   7.163  10.151   3.570 -0.1965 -2.9725  0.3677
24605SOL     OW77856   2.793   2.530   9.833 -0.1214 -0.7656 -0.2624
24605SOL    HW177857   2.702   2.555   9.846 -0.2755 -1.2480 -0.3617
24605SOL    HW277858   2.809   2.462   9.898  0.7794  0.6961  1.0957
24606SOL     OW77859   6.913   6.713   6.645 -0.1926 -0.2870  0.2724
24606SOL    HW177860   6.899   6.764   6.565  1.1424  0.2929  0.3819
24606SOL    HW277861   6.888   6.773   6.715  3.3100  1.1001  0.5253
24607SOL     OW77862   7.929   2.666   6.189  0.0587  0.5039  0.2190
24607SOL    HW177863   7.877   2.634   6.262  0.3228 -0.0437  0.1722
24607SOL    HW277864   7.882   2.635   6.111  0.5152 -0.1044  0.1780
24608SOL     OW77865   3.145   3.964   6.382  0.2003  0.1929 -0.6145
24608SOL    HW177866   3.150   4.059   6.371 -1.2403  0.3563 -0.0706
24608SOL    HW277867   3.230   3.940   6.418  0.8844  1.1557 -1.5054
24609SOL     OW77868   7.005   1.929   5.828 -0.1464  0.4050 -0.0878
24609SOL    HW177869   6.992   1.903   5.737 -2.1370  0.4666  0.1265
24609SOL    HW277870   6.947   2.005   5.840  1.5599  1.6566  0.7260
24610SOL     OW77871   5.766   9.510   7.968  0.3047  0.8699 -0.2648
24610SOL    HW177872   5.817   9.499   7.888 -0.9098  2.8388 -1.3879
24610SOL    HW277873   5.786   9.598   7.998 -1.7011  1.3983 -0.2804
24611SOL     OW77874   2.018   2.157   6.034 -0.0046  0.2861 -0.2588
24611SOL    HW177875   2.030   2.156   5.939 -1.3029 -0.8985 -0.4358
24611SOL    HW277876   1.938   2.209   6.047  0.2147  0.5172  0.2092
24612SOL     OW77877   6.363   7.952   0.162 -0.0038 -0.4325  0.0263
24612SOL    HW177878   6.438   7.921   0.211  1.5010  0.2361 -1.7464
24612SOL    HW277879   6.365   7.903   0.080 -1.0955  0.0880 -0.3400
24613SOL     OW77880   5.224   7.161   7.727  0.0323  0.4436 -0.0472
24613SOL    HW177881   5.282   7.233   7.754 -0.1858 -0.0190  1.7969
24613SOL    HW277882   5.166   7.200   7.661 -0.1968  2.0312  1.0413
24614SOL     OW77883   7.200   8.056   0.766  0.1752  0.0520 -0.0814
24614SOL    HW177884   7.284   8.102   0.767 -0.4580  1.2424  1.3046
24614SOL    HW277885   7.145   8.107   0.707 -1.5038  3.1015  3.7142
24615SOL     OW77886   3.064   7.738  10.090 -0.1243  0.1002  0.4668
24615SOL    HW177887   2.976   7.775  10.099 -0.5026 -0.4675 -0.6733
24615SOL    HW277888   3.108   7.761  10.171 -1.0101  1.2449  0.6521
24616SOL     OW77889   7.782   9.748   7.813  0.1213  0.1708 -0.5691
24616SOL    HW177890   7.749   9.676   7.759 -0.9037  0.0331  0.2137
24616SOL    HW277891   7.831   9.803   7.752 -0.6614 -0.1972 -1.5513
24617SOL     OW77892   3.376   0.845   1.123 -0.5565  0.5345  0.3351
24617SOL    HW177893   3.421   0.876   1.201  1.4474  1.4510 -1.1060
24617SOL    HW277894   3.420   0.890   1.051 -1.3897 -1.3564 -1.4301
24618SOL     OW77895   9.383   5.118   7.466 -0.1652  0.2340  0.7412
24618SOL    HW177896   9.357   5.184   7.531 -1.8144  0.7604 -0.3848
24618SOL    HW277897   9.300   5.079   7.438  0.5360 -0.2556 -0.7453
24619SOL     OW77898  10.295   5.180  10.281 -0.2529  0.5858 -0.0533
24619SOL    HW177899  10.369   5.229  10.245 -1.4524  1.3041 -1.6540
24619SOL    HW277900  10.333   5.098  10.312  1.2477  1.0318 -0.6378
24620SOL     OW77901   5.454   8.466   8.174  0.3212 -0.2125 -0.4706
24620SOL    HW177902   5.536   8.417   8.178 -0.4474 -1.6295 -1.4168
24620SOL    HW277903   5.426   8.475   8.266  0.5429 -1.4288 -0.2789
24621SOL     OW77904   4.319   0.433   5.513  0.0202  0.2475 -0.1983
24621SOL    HW177905   4.293   0.400   5.427 -0.4012 -0.3508  0.1429
24621SOL    HW277906   4.355   0.519   5.496  0.2381  0.0077 -1.0146
24622SOL     OW77907   0.931   3.203   6.471  0.7445 -0.3424  0.4991
24622SOL    HW177908   0.996   3.240   6.530  2.2657 -1.4889 -0.3869
24622SOL    HW277909   0.895   3.278   6.423  0.8416  0.3828  1.5385
24623SOL     OW77910   9.758   7.763   9.403  0.4204 -0.2487 -0.9923
24623SOL    HW177911   9.720   7.789   9.319  0.7422 -0.1334 -1.1037
24623SOL    HW277912   9.834   7.820   9.413 -0.0957  0.3321 -0.2236
24624SOL     OW77913   8.790   6.672   9.020 -0.2618 -0.0855 -0.0933
24624SOL    HW177914   8.873   6.704   9.054  0.2731 -0.9121 -0.5828
24624SOL    HW277915   8.814   6.608   8.954 -1.2935 -0.3730 -0.2118
24625SOL     OW77916   8.903   3.907   3.530 -0.0289  0.4055  0.0066
24625SOL    HW177917   8.830   3.959   3.562  0.6596  2.1577 -1.0908
24625SOL    HW277918   8.873   3.871   3.446 -0.5219 -1.0977  0.7834
24626SOL     OW77919   5.495   4.681   6.801 -0.2540 -0.1240  0.2610
24626SOL    HW177920   5.423   4.731   6.762  0.5985  2.2668  1.5279
24626SOL    HW277921   5.507   4.720   6.888  1.9334 -1.0980  0.4608
24627SOL     OW77922   8.456   6.163   8.195 -0.1953 -0.2739 -0.0017
24627SOL    HW177923   8.385   6.216   8.157  0.7318 -0.0398 -1.4594
24627SOL    HW277924   8.434   6.158   8.288 -0.8802  1.7803 -0.0032
24628SOL     OW77925   9.764   9.392   5.834  0.1431 -0.1291 -0.0521
24628SOL    HW177926   9.718   9.322   5.788  1.5799 -0.4498 -1.0977
24628SOL    HW277927   9.824   9.428   5.768  1.7664 -0.1017  1.3501
24629SOL     OW77928   7.795   9.838   6.714  0.0161  0.1628  0.1135
24629SOL    HW177929   7.738   9.769   6.680  1.6300 -0.1288 -2.2676
24629SOL    HW277930   7.795   9.905   6.645  0.7570  1.1892  1.0848
24630SOL     OW77931   0.503   1.359   7.092  0.4166 -0.1648  0.4414
24630SOL    HW177932   0.447   1.378   7.016 -1.0355  1.7158  1.8749
24630SOL    HW277933   0.449   1.303   7.148  0.4243  0.6327  1.2696
24631SOL     OW77934   7.404   7.172   0.393  0.0669  0.5341 -0.2741
24631SOL    HW177935   7.357   7.089   0.380 -0.0693  0.6085 -0.2584
24631SOL    HW277936   7.361   7.234   0.335 -2.8859  1.7818  2.8740
24632SOL     OW77937   0.166   7.921   1.189 -0.3923  0.1224  0.2299
24632SOL    HW177938   0.128   7.915   1.102  0.3061 -0.1493 -0.0621
24632SOL    HW277939   0.237   7.984   1.180 -0.9631  0.8742  0.8472
24633SOL     OW77940   7.600   8.760   3.837  0.6050 -0.2199  0.3180
24633SOL    HW177941   7.660   8.834   3.823  0.9713 -0.5328  0.2174
24633SOL    HW277942   7.519   8.786   3.793  1.1618 -0.4325 -0.8872
24634SOL     OW77943   5.087   3.813   3.112  0.0252 -0.1698  0.4021
24634SOL    HW177944   5.151   3.801   3.042 -0.2912 -0.0584  0.0921
24634SOL    HW277945   5.062   3.906   3.107  0.5980  0.0440  1.1807
24635SOL     OW77946   5.851   8.159   9.632  0.5502  0.2238 -0.4711
24635SOL    HW177947   5.883   8.151   9.542  1.4629  0.9568 -0.2319
24635SOL    HW277948   5.920   8.119   9.685 -0.0874 -0.4120 -0.1006
24636SOL     OW77949   3.365   8.790   7.560  0.3313 -0.3330 -0.8174
24636SOL    HW177950   3.434   8.853   7.583 -1.9618  1.4894  1.7154
24636SOL    HW277951   3.404   8.705   7.578  1.7182  0.6665  1.5099
24637SOL     OW77952   6.800   8.472   6.735 -0.0911 -0.4524 -0.4381
24637SOL    HW177953   6.818   8.503   6.824 -2.1804  2.9432 -1.0321
24637SOL    HW277954   6.719   8.422   6.743  0.2573 -1.0124 -0.3271
24638SOL     OW77955   3.427   3.479   0.279 -0.5853 -0.4284  0.6852
24638SOL    HW177956   3.377   3.398   0.271 -2.0184  0.4598  0.0133
24638SOL    HW277957   3.370   3.545   0.238  1.3535  0.5828 -0.4942
24639SOL     OW77958   6.705   4.891   9.103 -0.4431  0.6809  0.2830
24639SOL    HW177959   6.707   4.908   9.009 -1.3371 -0.7504 -0.0246
24639SOL    HW277960   6.787   4.928   9.135  0.7572 -0.3917 -1.3605
24640SOL     OW77961   6.842   4.397   8.133  0.2322  0.2825 -0.6070
24640SOL    HW177962   6.878   4.308   8.132  0.7961  0.4817 -2.6651
24640SOL    HW277963   6.875   4.435   8.214  0.3064 -1.2551  0.1080
24641SOL     OW77964   8.667   1.279   9.207 -0.2150 -0.4851 -0.3200
24641SOL    HW177965   8.672   1.195   9.253  1.9283 -1.5947 -2.3214
24641SOL    HW277966   8.612   1.262   9.130  1.0140 -0.3964 -1.2574
24642SOL     OW77967   8.205   6.959   3.398 -0.1646 -0.1939  0.2633
24642SOL    HW177968   8.198   6.881   3.344  1.0503 -0.3342  0.2664
24642SOL    HW277969   8.195   7.032   3.338 -0.6933 -0.3449  0.1634
24643SOL     OW77970   7.048   1.322   4.408 -0.3789 -0.1414  0.1281
24643SOL    HW177971   7.075   1.250   4.465 -0.8750 -1.8621 -1.7174
24643SOL    HW277972   6.960   1.299   4.380  0.1679  0.1645 -2.0308
24644SOL     OW77973   9.481   8.705   1.933 -0.0423 -0.3086  0.3693
24644SOL    HW177974   9.425   8.649   1.986  1.0950 -1.7417  0.1266
24644SOL    HW277975   9.570   8.674   1.950  0.5454  0.7678 -0.5503
24645SOL     OW77976   0.536   8.291   4.909 -0.0533  0.2636 -0.6798
24645SOL    HW177977   0.441   8.284   4.916  0.0111 -1.5337 -0.9716
24645SOL    HW277978   0.565   8.313   4.998 -0.5711 -2.2572  0.1914
24646SOL     OW77979   7.065   4.325   4.302  0.1851  0.5470 -0.7693
24646SOL    HW177980   6.978   4.291   4.279  0.2006  0.9935 -1.5420
24646SOL    HW277981   7.126   4.271   4.252  0.3024  0.7379 -0.8343
24647SOL     OW77982   3.075   5.941   1.732 -0.3502  0.3631  0.0718
24647SOL    HW177983   3.023   5.860   1.731  1.2228 -0.6986  0.2380
24647SOL    HW277984   3.051   5.986   1.651  1.3614 -2.0782 -1.9724
24648SOL     OW77985   2.710   0.089   3.145  0.1904  0.1600  0.0135
24648SOL    HW177986   2.708   0.007   3.095  0.8796  1.1667 -1.7896
24648SOL    HW277987   2.743   0.154   3.082 -0.6386  1.8901  1.2801
24649SOL     OW77988   4.050   5.242   0.014 -0.4668 -0.8317  0.0994
24649SOL    HW177989   4.035   5.330  -0.019  0.1699 -0.3587  1.0238
24649SOL    HW277990   4.141   5.222  -0.011  0.2935 -0.1641  2.1378
24650SOL     OW77991   3.779   8.616   0.834  0.4467  0.0762  0.3890
24650SOL    HW177992   3.735   8.694   0.868  1.2699  0.6056  0.2529
24650SOL    HW277993   3.740   8.543   0.884 -1.0067  0.4529 -0.1435
24651SOL     OW77994   8.396   4.618   5.750 -0.0901  0.0042 -0.0232
24651SOL    HW177995   8.456   4.662   5.812  0.1938 -0.9276  0.3747
24651SOL    HW277996   8.319   4.596   5.802 -0.3707  0.3152 -0.3022
24652SOL     OW77997   6.450   8.374   7.409  0.3031  0.5277 -0.3586
24652SOL    HW177998   6.385   8.316   7.371 -0.9215 -0.3733  2.7621
24652SOL    HW277999   6.404   8.417   7.482  2.8005  0.8775  1.1322
24653SOL     OW78000   3.803   0.819   5.129 -0.1534 -0.5123  0.8112
24653SOL    HW178001   3.771   0.839   5.217  0.1508  0.9034  0.6158
24653SOL    HW278002   3.802   0.903   5.083  0.5553 -1.0668 -0.2623
24654SOL     OW78003   7.825   8.887   4.314 -0.0971  0.2113 -0.0984
24654SOL    HW178004   7.917   8.878   4.287 -0.6272 -1.8056 -1.4241
24654SOL    HW278005   7.787   8.947   4.251 -0.5857 -2.0786 -2.1061
24655SOL     OW78006   0.838   7.505   3.663  0.0782 -0.3448  0.3662
24655SOL    HW178007   0.747   7.485   3.640 -0.3743  1.0373  0.8890
24655SOL    HW278008   0.890   7.461   3.595 -1.0459  0.3521 -0.9857
24656SOL     OW78009   2.005   2.949   5.317  0.2964  0.0042  0.3975
24656SOL    HW178010   1.988   2.876   5.257  1.5610  1.2058 -1.5373
24656SOL    HW278011   2.091   2.930   5.354  1.0616  0.9311 -0.8435
24657SOL     OW78012   3.647   0.745   1.984  0.2615  0.3892 -0.1906
24657SOL    HW178013   3.600   0.777   1.907  1.1773  1.1797 -0.4464
24657SOL    HW278014   3.680   0.659   1.958 -1.5523 -0.4807  0.2258
24658SOL     OW78015   4.365   9.555   5.039  0.2870 -0.1721 -0.0252
24658SOL    HW178016   4.278   9.571   5.076  0.3126  1.7992 -0.6735
24658SOL    HW278017   4.425   9.570   5.112  0.1170 -1.3963  0.3869
24659SOL     OW78018   3.265   4.457   7.765  0.1142 -0.6286 -0.1327
24659SOL    HW178019   3.317   4.432   7.689  0.2700  0.6061 -0.4472
24659SOL    HW278020   3.306   4.410   7.838 -0.7354 -2.7370 -0.9297
24660SOL     OW78021   4.044   1.793   3.067 -0.6469 -0.2402  0.5076
24660SOL    HW178022   4.092   1.742   3.132  0.5194 -0.7661 -0.7080
24660SOL    HW278023   3.999   1.728   3.014  1.1632 -0.1258 -1.3018
24661SOL     OW78024   4.974   7.200   6.221 -0.9249 -0.1479  0.4423
24661SOL    HW178025   4.949   7.284   6.184  0.2861 -0.0836 -0.2708
24661SOL    HW278026   5.051   7.174   6.171  0.3836 -0.3736  2.4941
24662SOL     OW78027   8.849   4.801   9.893  0.8078  0.0174  0.2100
24662SOL    HW178028   8.808   4.725   9.851  0.9423  0.5984 -1.0187
24662SOL    HW278029   8.784   4.832   9.956  0.4358 -0.6521  0.1654
24663SOL     OW78030   1.836   8.083   2.262 -0.1980 -0.0085  0.5086
24663SOL    HW178031   1.884   8.088   2.180 -0.1880 -2.1262  0.3236
24663SOL    HW278032   1.749   8.116   2.242 -0.4519 -1.2884 -0.5970
24664SOL     OW78033   6.795   9.460   7.056  0.2782  0.2445  0.3465
24664SOL    HW178034   6.879   9.472   7.100  0.3611 -1.1297  0.6267
24664SOL    HW278035   6.769   9.370   7.079 -1.8393  1.0071  1.2622
24665SOL     OW78036   4.392   8.684   0.601 -0.1683 -0.2023 -0.6030
24665SOL    HW178037   4.382   8.631   0.521 -1.1244  0.7556 -1.1502
24665SOL    HW278038   4.313   8.739   0.603  0.0886  0.1473  0.7416
24666SOL     OW78039   1.897   4.754   9.327  0.3968  0.2499 -0.0744
24666SOL    HW178040   1.960   4.785   9.392  2.1042 -0.9202 -1.0787
24666SOL    HW278041   1.930   4.668   9.301 -0.9260  0.1509 -1.6027
24667SOL     OW78042   7.160   9.829   4.293 -0.4954  0.0861  0.2874
24667SOL    HW178043   7.118   9.825   4.379 -4.0257 -1.0328 -1.3015
24667SOL    HW278044   7.110   9.895   4.245  1.7752  1.1247 -0.8127
24668SOL     OW78045   3.207   1.285   2.970 -0.3056 -0.6594 -0.0496
24668SOL    HW178046   3.209   1.261   3.063  0.5034 -2.0268 -0.3952
24668SOL    HW278047   3.213   1.202   2.924  1.8221  0.1194 -1.3251
24669SOL     OW78048   4.750   3.179   5.784  0.3428  0.0809  0.0469
24669SOL    HW178049   4.812   3.118   5.825  0.4421  0.8554  1.1128
24669SOL    HW278050   4.668   3.130   5.777  0.2895 -0.0468  1.3170
24670SOL     OW78051   2.967   5.090   8.625 -0.7230 -0.0323 -0.1596
24670SOL    HW178052   2.953   5.069   8.533  2.2308 -0.9911 -0.5062
24670SOL    HW278053   2.925   5.020   8.674 -0.1777 -0.8908 -0.9026
24671SOL     OW78054   9.361   7.480   3.123 -0.4983 -0.2179  0.8561
24671SOL    HW178055   9.389   7.570   3.102 -1.2001  0.1077  1.2677
24671SOL    HW278056   9.386   7.429   3.046 -1.7919  0.6940 -0.2102
24672SOL     OW78057   1.371   1.616   9.294 -0.3464 -0.1343 -0.1660
24672SOL    HW178058   1.309   1.563   9.343 -1.0448 -0.4024 -1.3053
24672SOL    HW278059   1.432   1.650   9.360 -1.5046 -0.1337  0.9252
24673SOL     OW78060   7.026   4.798   6.705 -0.0940  0.0119 -0.3144
24673SOL    HW178061   6.955   4.783   6.643 -0.6386  0.3400  0.2110
24673SOL    HW278062   7.102   4.815   6.651 -0.1063 -1.6566 -0.9022
24674SOL     OW78063   3.911   7.070   4.896 -0.1475 -0.6171  0.0170
24674SOL    HW178064   3.872   6.995   4.939  0.7300 -0.7913  0.5329
24674SOL    HW278065   4.002   7.071   4.926  0.0529  0.2123 -0.5612
24675SOL     OW78066   5.673   3.800   1.773 -0.4510 -0.0395 -0.1121
24675SOL    HW178067   5.637   3.882   1.740  1.2636  0.4196 -0.9507
24675SOL    HW278068   5.653   3.736   1.704 -1.4087 -0.2406  0.3449
24676SOL     OW78069   3.742   8.655   4.441 -0.4691 -0.0551  0.4572
24676SOL    HW178070   3.775   8.698   4.520 -1.8524  0.9765  0.5059
24676SOL    HW278071   3.815   8.659   4.379  0.3934 -0.2409  1.4203
24677SOL     OW78072   2.091   8.373  10.013 -0.2859  0.3137 -0.0857
24677SOL    HW178073   2.082   8.292   9.964  1.2313  0.4987 -0.7029
24677SOL    HW278074   2.185   8.388  10.019 -0.5228  2.4641 -0.7266
24678SOL     OW78075   6.028   0.775   6.967 -0.2762 -0.5368 -0.5575
24678SOL    HW178076   5.944   0.791   7.011  0.2082 -0.8140  0.4885
24678SOL    HW278077   6.009   0.788   6.874 -0.4067  4.3857 -0.1169
24679SOL     OW78078   4.546   1.693   8.754 -0.2683 -0.1049  0.0415
24679SOL    HW178079   4.568   1.744   8.676 -1.3461 -1.3635 -1.1527
24679SOL    HW278080   4.621   1.635   8.767  0.7828  1.4554  1.1669
24680SOL     OW78081   3.262   7.132   3.784 -0.3539  0.0165  0.1520
24680SOL    HW178082   3.200   7.200   3.810 -1.5508 -1.3059  0.8960
24680SOL    HW278083   3.325   7.128   3.856 -0.4550  0.1496  0.2487
24681SOL     OW78084   7.175   2.285   9.835  0.1533  0.0707 -0.4842
24681SOL    HW178085   7.199   2.339   9.911 -1.2443  0.3119 -0.1868
24681SOL    HW278086   7.110   2.336   9.788 -2.4275 -1.9172  0.6581
24682SOL     OW78087   5.569   8.985   1.128 -0.5424 -0.1595  0.3979
24682SOL    HW178088   5.509   9.024   1.064 -2.1590 -0.1455  1.8621
24682SOL    HW278089   5.541   8.894   1.135  0.7585 -0.6225 -0.1845
24683SOL     OW78090   0.022   4.894   2.416  0.5232  0.3573  0.0732
24683SOL    HW178091   0.010   4.833   2.489  1.1696 -0.6542 -0.6363
24683SOL    HW278092  -0.037   4.967   2.436  0.5907  0.0525  1.5330
24684SOL     OW78093   6.853   3.015   7.624  0.3515 -0.4934  0.5235
24684SOL    HW178094   6.811   2.954   7.563 -0.3315 -0.5608  1.0520
24684SOL    HW278095   6.927   3.051   7.575  0.8219 -1.7987  0.2235
24685SOL     OW78096   0.151   1.693   1.384  0.4928 -0.7699  0.2553
24685SOL    HW178097   0.083   1.683   1.451 -0.6250  0.0716 -0.7289
24685SOL    HW278098   0.202   1.612   1.391 -2.2803 -2.7834 -0.8115
24686SOL     OW78099   0.465   2.700   8.336  0.2685  0.4156 -0.4034
24686SOL    HW178100   0.402   2.770   8.322 -0.5734 -0.0267  0.9791
24686SOL    HW278101   0.470   2.691   8.431 -0.3706 -2.0259 -0.5405
24687SOL     OW78102   7.902   2.207   9.382  0.1022 -1.0854  0.2878
24687SOL    HW178103   7.897   2.168   9.470  0.4494  0.3666  0.9891
24687SOL    HW278104   7.962   2.281   9.392 -1.1276  0.1208 -0.7747
24688SOL     OW78105   4.322   3.833   0.990 -0.3085  0.4322 -0.1753
24688SOL    HW178106   4.417   3.821   0.994 -0.5656 -2.7306 -1.0090
24688SOL    HW278107   4.299   3.819   0.898 -1.6174  0.8930  0.0554
24689SOL     OW78108   3.950   9.456   8.571  0.6617  0.4273 -0.1580
24689SOL    HW178109   3.998   9.499   8.500  1.2771 -1.3528 -0.8768
24689SOL    HW278110   3.999   9.376   8.588 -1.4636 -0.9504 -0.1792
24690SOL     OW78111   6.048   9.955   5.730  0.5443 -0.2643 -0.1948
24690SOL    HW178112   5.999  10.029   5.767 -1.9257 -1.9909  0.2716
24690SOL    HW278113   6.048   9.889   5.799  0.1204 -1.7565 -1.5450
24691SOL     OW78114   3.788   8.383   4.156  0.2086  0.0129  0.2881
24691SOL    HW178115   3.831   8.307   4.195 -0.7573  0.0913  1.5691
24691SOL    HW278116   3.798   8.371   4.062  2.0104 -0.5465  0.5110
24692SOL     OW78117   1.824   7.268   5.000  0.0263 -0.2509 -0.1474
24692SOL    HW178118   1.819   7.261   5.095  0.5645 -3.9232 -0.2285
24692SOL    HW278119   1.895   7.331   4.984 -0.0627  0.4154  1.8466
24693SOL     OW78120   4.357   0.171  10.022  0.2023 -0.8988 -0.4488
24693SOL    HW178121   4.413   0.093  10.015  1.4491 -0.1612  0.7594
24693SOL    HW278122   4.268   0.138  10.013  0.6710 -2.5411  0.4770
24694SOL     OW78123   3.144   5.257   8.312 -0.3226  0.1688 -0.2666
24694SOL    HW178124   3.129   5.317   8.385  1.7494  1.6683 -0.9992
24694SOL    HW278125   3.148   5.313   8.235  0.8045 -1.0007 -1.0970
24695SOL     OW78126   4.938   5.345   9.993 -0.3321 -0.0662  0.1806
24695SOL    HW178127   4.910   5.258  10.022  1.9144 -0.2933  1.9057
24695SOL    HW278128   5.027   5.354  10.026 -0.9715  3.4690  1.3855
24696SOL     OW78129   6.822   7.912   8.384 -0.1290 -0.1995 -0.0944
24696SOL    HW178130   6.787   7.962   8.310  1.4855  0.9392 -0.1545
24696SOL    HW278131   6.854   7.831   8.346 -0.5710 -0.2233 -0.4156
24697SOL     OW78132   1.130  10.284   3.183  0.3947  0.3196 -0.1850
24697SOL    HW178133   1.164  10.297   3.095 -0.2848  0.5367 -0.4240
24697SOL    HW278134   1.178  10.208   3.217 -0.0759 -0.4206 -1.1377
24698SOL     OW78135   3.118   9.511   0.544  0.1505 -0.2233  0.0650
24698SOL    HW178136   3.141   9.576   0.478 -0.5294 -0.9860 -0.9575
24698SOL    HW278137   3.086   9.563   0.619 -2.7963  0.6522 -1.6271
24699SOL     OW78138   6.027   0.910   4.047  0.3947  0.1613  0.6931
24699SOL    HW178139   5.966   0.962   4.100  0.2420 -1.0610  1.7699
24699SOL    HW278140   6.009   0.819   4.071 -0.9761 -0.6530 -2.8488
24700SOL     OW78141   6.434   6.662   0.807  0.0506  0.4567  0.1590
24700SOL    HW178142   6.417   6.604   0.733 -0.5668  1.7146 -0.7273
24700SOL    HW278143   6.526   6.688   0.797 -0.0315  0.6213 -0.1668
24701SOL     OW78144   5.512   4.369   4.011 -0.1111 -0.2465 -0.5698
24701SOL    HW178145   5.504   4.337   4.101  0.2582  0.4233 -0.2940
24701SOL    HW278146   5.556   4.453   4.019  0.8698 -0.6500 -1.4607
24702SOL     OW78147   1.337   2.813  10.054 -0.1984  0.1260  0.5591
24702SOL    HW178148   1.287   2.894  10.042  1.2690  0.9528 -0.2819
24702SOL    HW278149   1.336   2.772   9.967  1.8516  0.9689  0.0719
24703SOL     OW78150   7.549   3.740   1.444  0.2232  0.2664  0.1693
24703SOL    HW178151   7.512   3.695   1.520 -0.9913  0.9977  0.0415
24703SOL    HW278152   7.548   3.675   1.374 -2.5555  0.7204 -0.3243
24704SOL     OW78153   1.396   9.561   4.871 -0.1560 -0.2905 -0.0568
24704SOL    HW178154   1.314   9.605   4.850  0.9635  0.8998 -2.2906
24704SOL    HW278155   1.446   9.625   4.921  0.0170 -0.4456 -0.0287
24705SOL     OW78156   3.128   8.116   6.662 -0.0566 -0.0015  0.3793
24705SOL    HW178157   3.167   8.195   6.623  0.4151 -0.8586 -0.9475
24705SOL    HW278158   3.039   8.114   6.628 -0.3911  0.4592  1.1923
24706SOL     OW78159   7.242   9.262   8.077  0.3273 -0.3507  0.5147
24706SOL    HW178160   7.229   9.197   8.146 -1.0028 -1.6299 -0.8746
24706SOL    HW278161   7.202   9.342   8.112  2.6060  0.0322  2.5355
24707SOL     OW78162   4.266   3.661   3.102 -0.3237 -0.6229  0.4019
24707SOL    HW178163   4.355   3.648   3.069 -0.0208  1.4622  0.2445
24707SOL    HW278164   4.277   3.721   3.176 -1.4927 -1.3350  1.1871
24708SOL     OW78165   6.451   0.195   6.570 -0.9173 -0.1787  0.2228
24708SOL    HW178166   6.524   0.246   6.534 -1.3282  0.6196  0.4983
24708SOL    HW278167   6.373   0.242   6.540 -1.2815  0.3625  1.9402
24709SOL     OW78168   8.777   1.115   3.159 -0.3207 -0.5666 -0.2943
24709SOL    HW178169   8.817   1.039   3.202 -0.3823  0.4713  1.6957
24709SOL    HW278170   8.841   1.185   3.170 -1.4498  0.3816  0.3847
24710SOL     OW78171   8.125   9.673   2.718 -0.5166  0.2254  0.5066
24710SOL    HW178172   8.036   9.691   2.748 -1.3463 -0.3681 -1.4267
24710SOL    HW278173   8.126   9.578   2.704  0.3364  0.2638  0.2785
24711SOL     OW78174  10.220   3.915   6.137  0.2176  0.7609  0.1629
24711SOL    HW178175  10.213   3.983   6.204 -0.1223 -1.4481  2.5045
24711SOL    HW278176  10.171   3.841   6.172 -0.1022 -0.4878 -2.6405
24712SOL     OW78177   6.421   1.688   0.429 -0.1913 -0.0225 -0.4104
24712SOL    HW178178   6.357   1.757   0.409 -0.5679 -0.0108  0.7731
24712SOL    HW278179   6.373   1.606   0.413  0.2737 -0.0480 -1.8729
24713SOL     OW78180   8.285   0.594   8.108  0.1761 -0.1246  0.0959
24713SOL    HW178181   8.313   0.531   8.175 -0.5110  1.1425  1.6573
24713SOL    HW278182   8.189   0.594   8.114  0.1693  1.2877  0.3934
24714SOL     OW78183   2.068   9.837   0.251 -0.0728 -0.3375  0.3209
24714SOL    HW178184   2.121   9.916   0.242  0.1610 -0.6131 -1.0701
24714SOL    HW278185   2.118   9.769   0.206  0.3297 -1.6147  2.5767
24715SOL     OW78186   3.342   8.361   2.961  0.4255 -0.1051  0.1471
24715SOL    HW178187   3.349   8.456   2.972  0.0331  0.2453 -2.1278
24715SOL    HW278188   3.313   8.349   2.870  0.8390 -2.4250  0.2511
24716SOL     OW78189   0.655   5.618   4.140 -0.7854 -0.0938  0.1739
24716SOL    HW178190   0.702   5.566   4.205 -1.0974  0.5067  0.8820
24716SOL    HW278191   0.680   5.708   4.157 -1.9050  0.2041  0.3293
24717SOL     OW78192   9.596   7.768   6.518 -0.4551  0.1114 -0.0808
24717SOL    HW178193   9.528   7.803   6.574  0.6348  1.9585  0.1820
24717SOL    HW278194   9.654   7.720   6.576  0.0520  1.0673  0.2360
24718SOL     OW78195   3.308   8.050   0.922 -0.4973 -0.4160 -0.2952
24718SOL    HW178196   3.369   8.038   0.850 -0.0586  0.0947 -0.0211
24718SOL    HW278197   3.253   7.972   0.922  1.6933 -2.0712  0.9366
24719SOL     OW78198   7.351   9.652   7.899  0.1631 -0.3087  0.3933
24719SOL    HW178199   7.367   9.590   7.970  3.1568 -0.4095 -0.2151
24719SOL    HW278200   7.370   9.603   7.819  0.2841  0.7409 -0.2453
24720SOL     OW78201   2.277   2.038   6.067  0.1176 -0.4567  0.6727
24720SOL    HW178202   2.183   2.050   6.052  0.4406  0.7366 -0.6214
24720SOL    HW278203   2.295   2.087   6.147 -0.1681  0.3498  0.2586
24721SOL     OW78204   4.157   8.355   3.381 -0.1094  0.6633  0.1245
24721SOL    HW178205   4.095   8.314   3.440 -0.2039  0.5775 -0.0358
24721SOL    HW278206   4.243   8.339   3.421 -0.2244  1.1926  0.5959
24722SOL     OW78207   8.043   6.409   4.867 -0.1202 -0.1742 -0.3140
24722SOL    HW178208   7.963   6.356   4.868 -1.3434  1.3647 -2.9716
24722SOL    HW278209   8.107   6.358   4.917 -1.7760 -3.1439 -0.9717
24723SOL     OW78210   8.533   2.125   8.414 -0.0124 -0.2370  0.4233
24723SOL    HW178211   8.497   2.172   8.339  1.0906 -1.7045 -1.1084
24723SOL    HW278212   8.480   2.046   8.421  1.6985 -1.5569 -0.7432
24724SOL     OW78213   2.508   8.059   6.776 -0.0057  0.1577  0.5276
24724SOL    HW178214   2.565   8.014   6.713  1.1432  0.8465  1.0355
24724SOL    HW278215   2.467   7.989   6.825 -0.1450 -0.3729 -0.3210
24725SOL     OW78216   6.424   4.269   7.842 -0.3417 -0.1112  0.1309
24725SOL    HW178217   6.411   4.298   7.933 -3.7270 -1.0620  0.0822
24725SOL    HW278218   6.478   4.190   7.849 -0.3063 -0.0006  1.2737
24726SOL     OW78219   2.726   7.973   8.010 -0.0833 -0.5248 -0.2694
24726SOL    HW178220   2.767   8.038   8.067 -1.5999 -0.9512  1.4138
24726SOL    HW278221   2.718   8.017   7.926 -0.7751  1.3907  0.7366
24727SOL     OW78222   4.028   8.804   6.425  0.1946 -0.2542 -0.1695
24727SOL    HW178223   4.121   8.828   6.434  0.1704  0.0775 -0.7650
24727SOL    HW278224   4.030   8.710   6.407  0.3340 -0.5577  1.2496
24728SOL     OW78225   8.495   1.247   3.729  0.1152  0.0344 -0.5244
24728SOL    HW178226   8.511   1.341   3.738 -4.9406  1.1882 -0.5118
24728SOL    HW278227   8.426   1.228   3.792 -0.2076 -3.3416 -1.6848
24729SOL     OW78228   9.160  10.121   2.570  0.2931  0.4014 -0.3222
24729SOL    HW178229   9.091  10.154   2.628  1.2881  0.0533  1.1148
24729SOL    HW278230   9.213  10.064   2.625  1.0665 -0.2626 -1.6896
24730SOL     OW78231   0.587   6.028   3.110  0.1955 -0.2405  0.3432
24730SOL    HW178232   0.537   6.001   3.188 -1.6994  1.8138 -0.0428
24730SOL    HW278233   0.631   6.109   3.137  1.4640 -0.7877 -0.0382
24731SOL     OW78234   8.364   1.790   3.164 -0.0955 -0.3436  0.8051
24731SOL    HW178235   8.404   1.862   3.212 -0.3780  0.2626  0.1417
24731SOL    HW278236   8.346   1.826   3.077  0.9499 -1.5794  0.0244
24732SOL     OW78237   0.239   1.158   8.718 -0.0954  0.0119  0.4487
24732SOL    HW178238   0.262   1.071   8.750  1.8704  0.7875  1.3456
24732SOL    HW278239   0.284   1.166   8.634 -1.4318 -0.3156 -0.3253
24733SOL     OW78240   1.272   3.938   1.069  0.2781  0.0813 -0.3541
24733SOL    HW178241   1.244   3.847   1.056  2.6461 -0.7516 -0.2101
24733SOL    HW278242   1.244   3.958   1.158 -1.4330  0.0015 -0.8345
24734SOL     OW78243   4.300   7.909   0.111  0.6425 -0.7160  0.3636
24734SOL    HW178244   4.314   7.883   0.020  0.5021  0.1300  0.0922
24734SOL    HW278245   4.209   7.887   0.129  0.1970  0.5696 -0.2163
24735SOL     OW78246   0.817  10.165   8.204 -0.1463  0.2581  0.1196
24735SOL    HW178247   0.860  10.225   8.265 -1.6824  0.8877  0.6236
24735SOL    HW278248   0.793  10.089   8.257  0.7248 -0.3068 -0.2644
24736SOL     OW78249   6.464   5.630   8.906  0.1896 -0.3026  0.1943
24736SOL    HW178250   6.427   5.669   8.827  1.1949  0.8303  0.2575
24736SOL    HW278251   6.419   5.672   8.978 -0.7249 -1.3348  0.2572
24737SOL     OW78252   8.494   4.184   5.252  0.1404  0.1688 -0.2877
24737SOL    HW178253   8.490   4.159   5.160 -0.8964  1.0311 -0.4926
24737SOL    HW278254   8.490   4.279   5.251 -0.4310  0.1680  0.6702
24738SOL     OW78255   1.186   9.399   4.742  0.3462 -0.2447  0.2370
24738SOL    HW178256   1.268   9.449   4.741 -0.9953  2.1447 -0.6053
24738SOL    HW278257   1.183   9.359   4.829  2.1243  0.0860  0.4865
24739SOL     OW78258   2.836   9.465  10.024 -0.4713  0.1893  0.3464
24739SOL    HW178259   2.797   9.391   9.977  2.8195 -2.0529  0.8091
24739SOL    HW278260   2.764   9.526  10.037 -2.6712 -1.4064 -2.9981
24740SOL     OW78261   0.211   4.422   8.155 -0.4504 -0.3126  0.1265
24740SOL    HW178262   0.281   4.446   8.216  0.2568 -0.7575 -0.4840
24740SOL    HW278263   0.132   4.463   8.191  0.7744  3.8711 -1.3332
24741SOL     OW78264   0.381   5.561   4.173  0.6508  0.1406 -0.1497
24741SOL    HW178265   0.349   5.606   4.095 -0.8066 -0.4914  0.0471
24741SOL    HW278266   0.476   5.558   4.162  0.4498 -0.3404 -2.1335
24742SOL     OW78267   4.096   5.422   4.527 -0.1248  0.0508 -0.7273
24742SOL    HW178268   4.126   5.378   4.607  1.1237  1.3447 -0.4355
24742SOL    HW278269   4.163   5.489   4.511 -2.3905  2.5282 -0.5599
24743SOL     OW78270   0.603   6.901   1.379 -0.1803  0.6913 -0.6055
24743SOL    HW178271   0.621   6.905   1.285  0.9984 -1.9286 -0.5814
24743SOL    HW278272   0.641   6.981   1.414 -0.3637  1.5798 -2.2985
24744SOL     OW78273   9.010   7.399   3.561 -0.4839  0.5159 -0.1261
24744SOL    HW178274   9.009   7.427   3.653 -1.7619  1.6795 -0.4652
24744SOL    HW278275   8.925   7.358   3.547  0.1019 -0.5957 -0.5324
24745SOL     OW78276   4.859   2.399   7.313 -0.2506  0.0625  0.3559
24745SOL    HW178277   4.857   2.405   7.408 -3.8918 -0.7006  0.4870
24745SOL    HW278278   4.845   2.488   7.283 -2.5415 -0.1235  0.7157
24746SOL     OW78279   7.394   0.463   3.518 -0.0556  0.1406 -0.2231
24746SOL    HW178280   7.391   0.559   3.524 -0.6590  0.0567  1.3884
24746SOL    HW278281   7.303   0.437   3.508 -0.0577 -0.3319  0.9412
24747SOL     OW78282   8.425   3.221   8.707 -0.2185  0.0871  0.3882
24747SOL    HW178283   8.354   3.172   8.749 -0.3120  0.3307  0.5109
24747SOL    HW278284   8.493   3.155   8.694  0.6161  0.3889  2.7453
24748SOL     OW78285   5.570   8.429   1.115 -0.1859 -0.2478  0.3319
24748SOL    HW178286   5.611   8.495   1.170  1.8230  0.0044 -1.3476
24748SOL    HW278287   5.554   8.474   1.032 -0.4523 -1.3768 -0.2563
24749SOL     OW78288   0.407   4.783   4.978  0.0183 -0.6182 -0.4971
24749SOL    HW178289   0.331   4.734   4.946  0.2140 -2.3029  1.4333
24749SOL    HW278290   0.396   4.787   5.073  1.7629  0.1256 -0.2733
24750SOL     OW78291   9.167   7.586   9.472  0.1991 -0.2594  0.6066
24750SOL    HW178292   9.126   7.668   9.445  0.7683  0.6092  2.2714
24750SOL    HW278293   9.181   7.595   9.566  3.4632 -0.7940  0.2995
24751SOL     OW78294   5.247   6.975   8.710  0.0332 -0.1943  0.2159
24751SOL    HW178295   5.327   7.019   8.683 -0.2082  0.2923  0.2738
24751SOL    HW278296   5.227   7.013   8.796  0.1461 -0.8569  0.5468
24752SOL     OW78297   2.437   0.190   7.107 -0.1534 -0.3084  0.3004
24752SOL    HW178298   2.422   0.275   7.066 -1.5636 -0.2746  0.8599
24752SOL    HW278299   2.500   0.208   7.177 -0.3461  0.2563  0.3345
24753SOL     OW78300   4.881   0.152   9.691 -0.1083  0.2462 -0.4665
24753SOL    HW178301   4.790   0.167   9.714 -0.3309  0.3884 -1.4144
24753SOL    HW278302   4.879   0.129   9.598  0.9594  1.7429 -0.8970
24754SOL     OW78303   6.643   8.823   7.893 -0.0088  0.0743  0.1828
24754SOL    HW178304   6.623   8.896   7.953  2.9249  0.5743  0.7221
24754SOL    HW278305   6.682   8.757   7.949  0.6799 -0.4077 -0.8387
24755SOL     OW78306   8.624   6.931   4.815 -0.5659 -0.5256 -0.2280
24755SOL    HW178307   8.654   6.988   4.885  0.5569 -1.0188 -0.2786
24755SOL    HW278308   8.693   6.937   4.748 -0.8195 -1.3004 -0.5757
24756SOL     OW78309   6.803   5.347   0.142  0.2755 -0.5444 -0.3970
24756SOL    HW178310   6.789   5.432   0.100 -0.7327 -1.2058 -1.4582
24756SOL    HW278311   6.798   5.366   0.236  0.4274  0.6207 -0.6058
24757SOL     OW78312   4.408   5.130   8.186  0.3547 -0.4358 -0.3786
24757SOL    HW178313   4.383   5.142   8.278 -0.6617 -1.7330 -0.4615
24757SOL    HW278314   4.326   5.115   8.140  0.8446  0.2482 -1.5369
24758SOL     OW78315   2.182   1.436   3.224  0.6284 -0.3898 -0.1043
24758SOL    HW178316   2.140   1.407   3.305  0.0461 -0.9189 -0.5952
24758SOL    HW278317   2.201   1.356   3.176 -1.1776  0.0056 -1.5625
24759SOL     OW78318   2.063   6.236   0.482  0.0408  0.2556 -0.1263
24759SOL    HW178319   2.091   6.314   0.530  0.6495  0.9704 -1.5898
24759SOL    HW278320   1.968   6.242   0.481  0.0708  0.8428 -0.0009
24760SOL     OW78321   1.433   3.248   5.753  0.0067 -0.0742  0.6111
24760SOL    HW178322   1.494   3.313   5.721  1.1217 -1.8654 -1.1509
24760SOL    HW278323   1.358   3.253   5.693 -0.9298  1.0171  1.8014
24761SOL     OW78324   8.123   8.594   7.050  0.2437 -0.0005 -1.2011
24761SOL    HW178325   8.125   8.532   7.123 -1.4463 -0.4049 -1.4477
24761SOL    HW278326   8.054   8.561   6.993 -0.8733  2.2283 -1.2391
24762SOL     OW78327   9.519   5.057   3.509  0.3470  0.9082 -0.4262
24762SOL    HW178328   9.445   5.084   3.562  0.7434  1.1616  0.0106
24762SOL    HW278329   9.582   5.129   3.518  1.1255  0.1679  0.1627
24763SOL     OW78330   9.121   3.935   6.801 -0.3527  0.2601  0.2463
24763SOL    HW178331   9.095   3.895   6.884  1.5051 -1.5326  0.0450
24763SOL    HW278332   9.187   4.000   6.825  0.2732 -0.3422  0.2060
24764SOL     OW78333   5.176   9.279   2.058 -0.0918  0.2869  0.1229
24764SOL    HW178334   5.085   9.266   2.085 -0.5010  0.4746 -1.1411
24764SOL    HW278335   5.208   9.190   2.040  0.4347  0.0676  1.8988
24765SOL     OW78336   1.670   0.212   8.553 -0.0470  0.1401 -0.4719
24765SOL    HW178337   1.748   0.266   8.535  0.0995 -0.5819 -2.1982
24765SOL    HW278338   1.694   0.125   8.522 -0.5969 -0.7727  1.5015
24766SOL     OW78339   1.184   9.128   8.634  0.1918  1.3127  1.2883
24766SOL    HW178340   1.242   9.127   8.558 -0.3032  2.0118  0.8991
24766SOL    HW278341   1.241   9.154   8.707  0.7342  0.3391  1.2273
24767SOL     OW78342   1.967   1.128   3.026 -0.7486  0.3681 -0.3351
24767SOL    HW178343   1.961   1.039   3.060 -0.2331 -0.0736 -1.3496
24767SOL    HW278344   1.907   1.179   3.081 -0.8634 -0.5486  0.4160
24768SOL     OW78345   1.534   7.794   7.036 -0.2858 -0.1222 -0.1091
24768SOL    HW178346   1.465   7.826   7.094  0.9720  2.1698  0.2444
24768SOL    HW278347   1.603   7.765   7.095  0.6856  1.4931 -0.3991
24769SOL     OW78348   7.244   0.960   1.189 -0.4746 -0.1272 -0.8207
24769SOL    HW178349   7.326   0.952   1.141 -1.2500  0.4944 -2.3055
24769SOL    HW278350   7.200   0.877   1.174 -1.1496  0.4235 -2.0874
24770SOL     OW78351   9.999   8.993   5.030  0.4165  0.4752 -0.3093
24770SOL    HW178352  10.020   8.923   5.092  2.2205  0.1349 -1.2425
24770SOL    HW278353  10.007   8.952   4.944  3.9681  2.2848 -1.0341
24771SOL     OW78354   3.653   7.650   6.986 -0.1669 -0.2287 -0.4967
24771SOL    HW178355   3.746   7.657   7.007 -0.4767  2.0485  0.4117
24771SOL    HW278356   3.632   7.732   6.940 -1.9238 -0.2274  0.2273
24772SOL     OW78357   9.866   3.983   9.945 -0.2625  0.1118  0.7793
24772SOL    HW178358   9.874   3.984   9.850  1.2642  1.0966  0.8721
24772SOL    HW278359   9.952   3.951   9.975 -0.5370  0.3377  1.8322
24773SOL     OW78360   5.682   9.582   7.429  0.0854  0.0414 -0.8669
24773SOL    HW178361   5.761   9.529   7.443  0.3704  0.2601 -1.5934
24773SOL    HW278362   5.621   9.551   7.495  0.7963 -0.1053 -0.2644
24774SOL     OW78363   9.053   1.764   8.131  0.5585 -0.1860  0.4239
24774SOL    HW178364   9.049   1.857   8.151  0.4912 -0.0499 -0.2065
24774SOL    HW278365   9.096   1.759   8.046  0.8000 -0.7480  0.5757
24775SOL     OW78366  10.028   0.069   1.417 -0.1211  0.0529  0.6951
24775SOL    HW178367  10.108   0.088   1.468  0.0574  0.4445  0.2765
24775SOL    HW278368   9.970   0.143   1.436 -0.0702  0.1776  0.3636
24776SOL     OW78369   2.096   0.711   2.203  0.4138 -0.2824  0.1525
24776SOL    HW178370   2.165   0.696   2.267 -0.0604 -0.4086  0.6365
24776SOL    HW278371   2.058   0.624   2.187  1.2187 -0.4349 -1.1024
24777SOL     OW78372   8.950   7.488   4.322  0.4782 -0.2272 -0.1201
24777SOL    HW178373   8.890   7.559   4.300 -0.3203 -0.1992  1.8950
24777SOL    HW278374   9.037   7.524   4.305  0.0139  0.6269 -0.7425
24778SOL     OW78375   4.506   8.117   6.363 -0.3221  0.0783 -0.1842
24778SOL    HW178376   4.443   8.165   6.417 -0.1855 -0.4759  0.4855
24778SOL    HW278377   4.467   8.116   6.275 -0.8276  0.4873  0.0292
24779SOL     OW78378   8.686   7.568   9.948  0.3995 -0.0012 -0.7487
24779SOL    HW178379   8.636   7.605   9.876  0.8930  1.0972 -0.5433
24779SOL    HW278380   8.742   7.502   9.906 -0.0440 -0.1022 -1.2035
24780SOL     OW78381   8.870   6.119   0.729  0.0971  0.0062  0.4787
24780SOL    HW178382   8.794   6.073   0.765 -0.0500 -0.7184 -0.7117
24780SOL    HW278383   8.834   6.178   0.663  0.6023 -0.8221 -0.5689
24781SOL     OW78384   9.305   4.571   0.487  0.0245 -0.4832  0.2840
24781SOL    HW178385   9.333   4.597   0.574  1.5304 -0.1210 -0.2760
24781SOL    HW278386   9.343   4.484   0.474  0.9150 -0.0035 -0.4752
24782SOL     OW78387   2.918   1.032   5.396 -0.1013  0.8092  0.7027
24782SOL    HW178388   2.884   0.944   5.411  1.1259  0.2969  0.5842
24782SOL    HW278389   2.853   1.073   5.338 -0.3111 -0.2837  0.1361
24783SOL     OW78390   1.363   5.625   6.664 -0.4723  0.3240 -0.3762
24783SOL    HW178391   1.379   5.633   6.758 -1.0121  1.8989 -0.3852
24783SOL    HW278392   1.386   5.534   6.643  0.9900  0.3292  0.9996
24784SOL     OW78393   6.710   1.187   7.370 -0.0457  0.5975  0.2671
24784SOL    HW178394   6.739   1.103   7.334  0.7781  1.2220 -0.5931
24784SOL    HW278395   6.622   1.170   7.402  0.2478 -0.6961  0.4667
24785SOL     OW78396   2.669   9.153  10.296  0.2439  0.8893  0.6020
24785SOL    HW178397   2.581   9.186  10.274 -0.2816 -1.4028 -1.1412
24785SOL    HW278398   2.673   9.067  10.255  2.4593 -0.1325  2.7387
24786SOL     OW78399   6.822   5.716   1.430 -0.3805  0.1088  0.0147
24786SOL    HW178400   6.902   5.663   1.439 -0.7133 -0.2000  1.3545
24786SOL    HW278401   6.751   5.652   1.431 -0.7264  0.5004  0.4477
24787SOL     OW78402   3.530   9.257   0.991  0.1557  0.2949 -0.2562
24787SOL    HW178403   3.501   9.265   0.900 -0.1799  0.5775 -0.1235
24787SOL    HW278404   3.459   9.294   1.042  0.4075  0.2634  0.1164
24788SOL     OW78405   7.854   2.617   7.177  0.1097  0.0270  0.5297
24788SOL    HW178406   7.893   2.539   7.218 -0.9036 -0.7050  0.1256
24788SOL    HW278407   7.859   2.684   7.245  0.1309 -0.6508  1.2145
24789SOL     OW78408   3.903   7.221   0.014 -0.2636  0.4086  0.3232
24789SOL    HW178409   3.946   7.265  -0.059 -0.1918  0.3507  0.3302
24789SOL    HW278410   3.911   7.128  -0.007  2.1279  0.2110  1.6650
24790SOL     OW78411   1.631   3.706   6.495  0.5850  0.1277 -0.3946
24790SOL    HW178412   1.686   3.773   6.535  0.3431 -0.1698  0.4607
24790SOL    HW278413   1.546   3.749   6.482  0.2419 -0.1851  0.7359
24791SOL     OW78414   2.241   8.979   9.738 -0.6025 -0.3756 -0.2305
24791SOL    HW178415   2.334   8.965   9.720 -0.7154 -0.7133 -0.5714
24791SOL    HW278416   2.229   8.949   9.828  0.0058  1.4853  0.5234
24792SOL     OW78417   0.441   4.428  10.143  0.0311  0.1194  0.3796
24792SOL    HW178418   0.393   4.442  10.225  0.9741 -1.7963  1.3219
24792SOL    HW278419   0.458   4.334  10.140  2.3211  0.4816 -0.6830
24793SOL     OW78420   6.865   1.032   8.643  0.7154 -0.1526  0.1586
24793SOL    HW178421   6.955   1.062   8.637 -0.0733  2.4064  0.1166
24793SOL    HW278422   6.863   0.978   8.723  1.9779  0.9004  0.9428
24794SOL     OW78423  10.068   3.226   0.753 -0.0133 -0.3213  0.1213
24794SOL    HW178424  10.029   3.141   0.777  0.3146 -0.0906  1.5234
24794SOL    HW278425  10.143   3.236   0.811  1.2037  0.0055 -1.4339
24795SOL     OW78426   6.578   7.561   5.760  0.4171  0.0433 -0.3497
24795SOL    HW178427   6.593   7.520   5.845 -0.3770 -2.5780 -1.3681
24795SOL    HW278428   6.591   7.654   5.775 -0.2042 -0.2792  2.7480
24796SOL     OW78429   5.288   5.683   4.137 -0.1034  0.0313  0.4293
24796SOL    HW178430   5.198   5.692   4.170 -0.8435 -1.4594 -1.0163
24796SOL    HW278431   5.334   5.632   4.202 -0.4053  0.4606  0.9885
24797SOL     OW78432   7.431   7.317   8.924  0.3645 -0.2277 -0.2714
24797SOL    HW178433   7.438   7.222   8.933  2.6624 -0.1340 -0.4888
24797SOL    HW278434   7.461   7.334   8.834 -1.5226  0.6002 -0.7826
24798SOL     OW78435   1.908   4.255   1.583 -0.3612 -0.1135 -0.1349
24798SOL    HW178436   1.982   4.314   1.601 -2.0248  1.9553  0.3000
24798SOL    HW278437   1.940   4.169   1.610  2.3204  0.4580 -1.1696
24799SOL     OW78438   0.629   5.197   2.420  0.3159  0.5748  0.5401
24799SOL    HW178439   0.585   5.120   2.382  0.6937  0.8950 -0.5540
24799SOL    HW278440   0.679   5.234   2.348  1.4521  0.9077  1.4837
24800SOL     OW78441   3.150   1.838   7.236  0.2610 -0.0097  0.2809
24800SOL    HW178442   3.122   1.892   7.310  0.0710 -0.9099  0.8885
24800SOL    HW278443   3.195   1.764   7.277  1.4269  0.1980 -0.5771
24801SOL     OW78444   2.020   3.656   8.755  0.0787 -0.7290  0.0835
24801SOL    HW178445   2.002   3.725   8.691  0.3092 -0.0809  0.7129
24801SOL    HW278446   1.935   3.615   8.770  0.1370 -1.3720 -1.1724
24802SOL     OW78447   2.530   0.523   9.593 -0.0132  0.1153  0.4739
24802SOL    HW178448   2.598   0.465   9.628 -0.2986 -0.9652 -0.7025
24802SOL    HW278449   2.541   0.604   9.643  0.7795 -0.7321  1.7597
24803SOL     OW78450   8.958   3.737   3.764  0.3134  0.0219 -0.2135
24803SOL    HW178451   9.049   3.718   3.744  0.6966  0.4504  0.9924
24803SOL    HW278452   8.928   3.793   3.693  1.3668  0.8781 -0.0019
24804SOL     OW78453   4.987   7.792   8.631  0.1624  0.6110 -0.1802
24804SOL    HW178454   5.018   7.877   8.601  1.6856 -0.1323 -0.7930
24804SOL    HW278455   5.034   7.776   8.713  0.2452  0.1316 -0.3203
24805SOL     OW78456   1.711   5.945   7.777  0.1658 -0.0082  0.8014
24805SOL    HW178457   1.699   5.850   7.782  2.9177 -0.3938  2.3749
24805SOL    HW278458   1.689   5.977   7.864  2.4217  0.2450  1.3540
24806SOL     OW78459   2.374   8.971   8.874 -0.1688 -0.4918 -0.1435
24806SOL    HW178460   2.396   8.919   8.798  0.6155 -0.0946 -0.1975
24806SOL    HW278461   2.310   9.035   8.842  1.0962  0.5022 -0.7995
24807SOL     OW78462   4.925   0.316   4.189  0.1159  0.1440 -0.1643
24807SOL    HW178463   4.956   0.357   4.108 -0.7846 -1.5835 -1.4212
24807SOL    HW278464   4.832   0.302   4.176 -0.0346 -0.2569  1.1512
24808SOL     OW78465   4.996   8.271   9.572 -0.0046 -0.3807  0.4267
24808SOL    HW178466   4.961   8.252   9.485  0.0759 -0.3000  0.3772
24808SOL    HW278467   4.971   8.195   9.625 -0.4890 -0.2103  0.4566
24809SOL     OW78468   6.630   0.301   5.444  0.1334  0.3777 -0.2018
24809SOL    HW178469   6.648   0.241   5.515  0.6750  2.2210  1.3031
24809SOL    HW278470   6.537   0.289   5.424  0.0797 -0.4593  0.5345
24810SOL     OW78471   4.465   1.036   6.451  0.2363 -0.2307  0.2154
24810SOL    HW178472   4.445   0.944   6.435 -1.3690  0.0237  0.5972
24810SOL    HW278473   4.432   1.081   6.373 -1.1905  0.2503  1.0598
24811SOL     OW78474   6.879   4.887   4.751  0.6883 -0.7399 -0.1351
24811SOL    HW178475   6.808   4.948   4.738  1.7853  1.0852  1.7796
24811SOL    HW278476   6.872   4.825   4.678 -0.9528  1.1774 -1.7143
24812SOL     OW78477   5.366   2.607   8.697 -0.0575  0.5103  0.3784
24812SOL    HW178478   5.348   2.560   8.779  0.2484  0.1006  0.2097
24812SOL    HW278479   5.434   2.670   8.720 -1.0513  1.4631  0.8078
24813SOL     OW78480   1.021   4.052   8.282  0.9909  0.2135 -0.2798
24813SOL    HW178481   0.954   4.082   8.220  1.2329  0.5818 -0.3726
24813SOL    HW278482   1.060   4.133   8.315  0.6138  0.0238  0.6314
24814SOL     OW78483   3.168   3.017   2.766  0.6764  0.3656  0.5182
24814SOL    HW178484   3.147   2.982   2.853 -0.7388  0.3166  0.1841
24814SOL    HW278485   3.094   2.991   2.712  0.7081  1.9046 -0.2950
24815SOL     OW78486   3.575   2.682   3.186  0.3842 -1.0108  0.1033
24815SOL    HW178487   3.589   2.644   3.099 -0.8055 -0.6960 -0.2418
24815SOL    HW278488   3.611   2.770   3.180  0.2573 -0.9703 -0.1003
24816SOL     OW78489   5.555   1.902   4.312 -0.3087 -0.6192  0.3793
24816SOL    HW178490   5.632   1.959   4.319  0.8437 -2.0383 -0.1920
24816SOL    HW278491   5.513   1.910   4.398 -0.4166  1.3507  0.2011
24817SOL     OW78492   4.020  10.287   8.006  0.3380 -0.0187 -0.4825
24817SOL    HW178493   4.089  10.353   7.999  0.6956 -0.5873 -3.3592
24817SOL    HW278494   3.938  10.337   8.004  0.6145  0.4137 -2.1397
24818SOL     OW78495   2.237   6.952   4.201 -0.1001  0.1046 -0.4503
24818SOL    HW178496   2.290   7.000   4.264 -0.8780  2.0842 -1.2389
24818SOL    HW278497   2.300   6.914   4.139  0.4714  1.6268 -0.8301
24819SOL     OW78498   2.266   1.061   2.826 -0.4253  0.0349 -0.2440
24819SOL    HW178499   2.337   1.116   2.792  0.5344 -1.6673 -1.0893
24819SOL    HW278500   2.222   1.027   2.749 -1.8838  0.6641  0.2776
24820SOL     OW78501   8.054   7.153   4.260 -0.0006  0.2513  0.3503
24820SOL    HW178502   8.079   7.182   4.348  0.2675 -1.5228  0.8909
24820SOL    HW278503   8.110   7.203   4.201  0.3018  0.9602  1.2188
24821SOL     OW78504   4.975   7.353   1.167 -0.1361 -0.4481 -0.1563
24821SOL    HW178505   5.066   7.379   1.178 -0.3735 -0.3955  2.2215
24821SOL    HW278506   4.952   7.380   1.078  2.2557 -0.8395 -0.9673
24822SOL     OW78507   8.084   5.867   9.348  0.0827 -0.1348  0.2374
24822SOL    HW178508   8.141   5.839   9.276 -0.2066 -1.4726  0.4958
24822SOL    HW278509   8.007   5.810   9.341 -0.0961 -0.0673  1.4012
24823SOL     OW78510   0.290   1.575   7.362 -0.5142 -0.1884 -0.7495
24823SOL    HW178511   0.384   1.564   7.353 -0.3671  1.4132 -1.7001
24823SOL    HW278512   0.262   1.503   7.418  1.0373 -1.5844 -1.6771
24824SOL     OW78513   9.315   9.410   5.159 -0.1384 -0.0844  0.1174
24824SOL    HW178514   9.234   9.417   5.210 -1.7970 -0.7338 -2.2394
24824SOL    HW278515   9.285   9.389   5.070  2.6370 -0.1457 -0.8906
24825SOL     OW78516  10.154   2.389   8.470  0.7213  0.3945 -0.0517
24825SOL    HW178517  10.124   2.300   8.448 -2.8716  0.9732  1.7151
24825SOL    HW278518  10.165   2.388   8.565  0.1216  1.9520  0.0593
24826SOL     OW78519   0.800   3.402   6.322 -0.3246  0.3069  0.9478
24826SOL    HW178520   0.752   3.443   6.394  0.4458  1.0803  1.0319
24826SOL    HW278521   0.782   3.457   6.246 -1.5116 -0.7639  0.4101
24827SOL     OW78522   4.633   5.288   4.971  0.2329 -0.3189  0.5054
24827SOL    HW178523   4.646   5.336   5.053  0.5392  2.0441 -0.8315
24827SOL    HW278524   4.698   5.218   4.974  2.4126  1.6004  0.9963
24828SOL     OW78525   3.296   7.711   4.287  0.6750 -0.3057 -0.0205
24828SOL    HW178526   3.359   7.708   4.215  0.8138  0.2626  0.0730
24828SOL    HW278527   3.349   7.707   4.366  0.4655 -2.0073  0.0664
24829SOL     OW78528   8.578   2.944   3.057  0.3264 -0.4847  0.3313
24829SOL    HW178529   8.497   2.991   3.038  0.2702 -1.0509 -0.9696
24829SOL    HW278530   8.554   2.882   3.126 -0.4121 -0.7495 -0.1445
24830SOL     OW78531   6.970   0.010   1.303  0.3213  0.1649 -0.2275
24830SOL    HW178532   6.995  -0.028   1.219  0.2145  1.5399 -0.9178
24830SOL    HW278533   7.052   0.014   1.353  0.1246 -2.0431  0.3494
24831SOL     OW78534   3.404   6.223   4.751 -0.1777  0.0816  0.0331
24831SOL    HW178535   3.374   6.299   4.701 -0.3496 -0.2876 -0.4351
24831SOL    HW278536   3.328   6.198   4.804 -0.1187  0.2364  0.1928
24832SOL     OW78537   5.914   3.969   4.693 -0.3411  0.4607  0.7054
24832SOL    HW178538   5.822   3.952   4.710  0.0339 -1.0795  1.3603
24832SOL    HW278539   5.953   3.979   4.780  0.2506  0.2783  0.4666
24833SOL     OW78540   8.959   9.550   4.774 -0.1440  0.2606 -0.1780
24833SOL    HW178541   9.018   9.493   4.724 -0.3372  0.3512 -0.5109
24833SOL    HW278542   8.875   9.505   4.771 -0.4274  0.8213 -0.8945
24834SOL     OW78543   8.825   6.098   7.068  0.1060 -0.1011 -0.0023
24834SOL    HW178544   8.810   6.007   7.044  0.8228 -0.0640 -0.6343
24834SOL    HW278545   8.920   6.105   7.077  0.0636  0.6037 -0.0444
24835SOL     OW78546   3.901   7.360   1.039 -0.3046 -0.3847 -0.1284
24835SOL    HW178547   3.940   7.445   1.059 -0.3088  0.0873 -1.9461
24835SOL    HW278548   3.894   7.316   1.124  0.4873  1.0823  0.7357
24836SOL     OW78549   6.849   6.499   0.469 -0.1677 -0.2019 -1.4647
24836SOL    HW178550   6.783   6.553   0.512 -0.5522 -0.5074 -1.6662
24836SOL    HW278551   6.849   6.417   0.518  0.5348  0.0317 -1.0543
24837SOL     OW78552   3.386   8.915   3.402 -0.0177 -0.3070 -0.0201
24837SOL    HW178553   3.452   8.846   3.403 -0.6101 -0.9576 -1.7236
24837SOL    HW278554   3.436   8.995   3.386  0.3626 -0.9109 -2.3222
24838SOL     OW78555   5.580   7.101   7.408  0.1899 -0.1529  0.0802
24838SOL    HW178556   5.520   7.176   7.407 -0.5372 -0.7266 -0.4910
24838SOL    HW278557   5.602   7.087   7.317 -1.7642 -2.2278 -0.1756
24839SOL     OW78558   0.031  10.050   0.217  0.1112  0.4607 -0.1579
24839SOL    HW178559   0.048  10.090   0.302  2.2772  1.6235 -1.0678
24839SOL    HW278560  -0.062  10.067   0.201  0.0927  1.8123  1.1703
24840SOL     OW78561   1.017   5.313   7.352 -0.4161 -0.3356  0.4460
24840SOL    HW178562   1.094   5.357   7.389 -0.1309  0.0569 -0.5900
24840SOL    HW278563   0.970   5.382   7.305 -0.1138 -1.0546 -0.9637
24841SOL     OW78564   3.265   9.637   2.229  0.7352 -0.2235 -0.0438
24841SOL    HW178565   3.334   9.641   2.163 -0.1070  0.4520 -0.9148
24841SOL    HW278566   3.199   9.699   2.199  0.0405 -0.3613  1.1177
24842SOL     OW78567   0.472   1.595   5.295 -0.2961 -0.7669  0.2665
24842SOL    HW178568   0.486   1.559   5.383 -2.0108  0.8417  1.2441
24842SOL    HW278569   0.526   1.539   5.239  1.0358 -1.7134  2.3360
24843SOL     OW78570   5.854  10.102  10.049 -0.1720 -1.2066  0.0130
24843SOL    HW178571   5.835  10.037  10.116  0.7983 -0.3398  1.1666
24843SOL    HW278572   5.789  10.171  10.064  0.4871 -0.6948  0.5042
24844SOL     OW78573   3.435   0.335   9.749  0.2830  0.6728 -0.7345
24844SOL    HW178574   3.450   0.429   9.754  0.6878  0.6067 -0.6921
24844SOL    HW278575   3.481   0.307   9.671  0.0286  0.5336 -0.8345
24845SOL     OW78576   9.117   2.371   8.289 -0.5203  0.1861  0.0611
24845SOL    HW178577   9.039   2.373   8.234  0.7336  1.3112 -1.7767
24845SOL    HW278578   9.187   2.344   8.230  0.6521 -0.0284  1.4859
24846SOL     OW78579   8.033   5.542   9.794 -0.0050  0.2501  0.0249
24846SOL    HW178580   8.020   5.456   9.834  0.1375 -0.5128 -1.5037
24846SOL    HW278581   8.113   5.533   9.743  1.4728  2.0905  1.8271
24847SOL     OW78582   0.122   6.162   7.224 -0.1547 -0.2522  0.1374
24847SOL    HW178583   0.048   6.102   7.237 -0.3420 -0.0707 -0.0788
24847SOL    HW278584   0.194   6.123   7.274 -0.6934  0.1237  1.2412
24848SOL     OW78585   8.182   0.025   2.018 -0.5477  0.4375  0.3365
24848SOL    HW178586   8.099   0.040   1.973  0.0163  1.1162 -0.5065
24848SOL    HW278587   8.248   0.030   1.949  0.1249 -1.1274  0.8163
24849SOL     OW78588   9.214   4.769   8.963  0.5044 -0.0074  0.0957
24849SOL    HW178589   9.154   4.759   8.889  0.4939 -1.3354  0.2490
24849SOL    HW278590   9.172   4.720   9.034  1.4660 -0.4370  0.3820
24850SOL     OW78591   1.735   9.375   2.237 -0.1994 -0.3334 -0.5473
24850SOL    HW178592   1.709   9.431   2.163  0.6206  0.0532 -0.5595
24850SOL    HW278593   1.664   9.385   2.301 -1.5074 -1.6082 -1.7507
24851SOL     OW78594   6.330   5.102   3.402 -0.4158 -0.3041  0.3953
24851SOL    HW178595   6.415   5.087   3.360 -0.1902  1.3956  0.1901
24851SOL    HW278596   6.275   5.030   3.370  0.6068 -0.7628 -0.4035
24852SOL     OW78597   7.846   4.392   1.963 -0.0886 -0.3718 -0.2793
24852SOL    HW178598   7.768   4.350   1.925 -1.8690 -0.2462  2.8899
24852SOL    HW278599   7.836   4.484   1.941  0.3147 -0.6130 -1.6038
24853SOL     OW78600   8.506   7.793   9.479  0.0013  0.5674 -0.0992
24853SOL    HW178601   8.598   7.813   9.459  0.8491 -0.5273  2.3789
24853SOL    HW278602   8.498   7.699   9.464 -0.5756  0.5634  0.2064
24854SOL     OW78603   0.913   7.015   8.953 -0.6072  0.4685  0.0540
24854SOL    HW178604   0.863   7.094   8.974  0.2710  1.4262 -1.2490
24854SOL    HW278605   1.004   7.038   8.971 -0.1746  0.2902 -1.6586
24855SOL     OW78606   8.828   9.179   4.960 -0.3782 -0.4058  0.5098
24855SOL    HW178607   8.874   9.116   5.015 -1.5988 -1.2390  0.5888
24855SOL    HW278608   8.764   9.128   4.912  1.1943  0.1163 -2.4133
24856SOL     OW78609   9.058   2.688   7.264  0.2013  0.3815  0.2673
24856SOL    HW178610   8.989   2.734   7.217  0.2810 -1.0092 -1.3054
24856SOL    HW278611   9.011   2.629   7.323  0.1019  2.0407  1.9411
24857SOL     OW78612   6.081   6.587   5.889 -0.2218  0.2000 -0.1039
24857SOL    HW178613   5.985   6.584   5.888 -0.2394 -0.2123 -2.3394
24857SOL    HW278614   6.108   6.496   5.896  0.0421  0.3319  0.7621
24858SOL     OW78615   0.234   9.718   6.699 -0.1633 -0.3043  0.2231
24858SOL    HW178616   0.244   9.640   6.754  1.4339  0.0196  0.4419
24858SOL    HW278617   0.252   9.687   6.611 -1.0375 -0.4783  0.0987
24859SOL     OW78618   2.454   1.777   0.776 -0.2151 -0.3154 -0.1788
24859SOL    HW178619   2.430   1.715   0.707  0.9433  0.2977 -1.1762
24859SOL    HW278620   2.439   1.730   0.857 -0.8719 -1.3344 -0.8682
24860SOL     OW78621   2.725   9.651   4.191  0.2150 -0.1147 -0.3363
24860SOL    HW178622   2.792   9.645   4.259 -1.2119 -0.0061  1.1352
24860SOL    HW278623   2.758   9.595   4.120  1.6781 -0.3281  0.4720
24861SOL     OW78624   7.598   5.493   4.928 -0.0406  0.7557  0.1525
24861SOL    HW178625   7.518   5.439   4.933 -1.4337  2.6073 -1.0321
24861SOL    HW278626   7.566   5.582   4.914  2.2526  1.6236  0.0571
24862SOL     OW78627   8.826   0.115   1.787 -0.7320  0.6728  0.1539
24862SOL    HW178628   8.911   0.110   1.743 -0.5884  0.4360  0.4523
24862SOL    HW278629   8.826   0.201   1.829 -1.1082  1.1437 -0.7798
24863SOL     OW78630   7.493   6.021   3.275  0.0407 -0.5780 -0.0506
24863SOL    HW178631   7.495   5.925   3.266  0.8720 -0.6703  0.9375
24863SOL    HW278632   7.402   6.041   3.298 -0.3355 -1.0368 -1.0718
24864SOL     OW78633   3.465   6.818   2.019  0.8092 -0.0769 -0.3003
24864SOL    HW178634   3.410   6.825   2.098 -0.2368  2.9124 -1.1669
24864SOL    HW278635   3.432   6.740   1.974 -1.4389  0.5034  0.2120
24865SOL     OW78636   6.164   9.585   6.616  0.3704 -0.2029  0.3392
24865SOL    HW178637   6.160   9.656   6.680  2.4485  0.1008  0.1745
24865SOL    HW278638   6.213   9.621   6.542 -0.4239 -1.1366 -0.6760
24866SOL     OW78639   5.129   2.462   1.244  0.0173 -0.3504 -0.3820
24866SOL    HW178640   5.216   2.500   1.234  0.2363 -1.0052 -1.0575
24866SOL    HW278641   5.112   2.464   1.339  0.1699  1.0569 -0.3737
24867SOL     OW78642   7.057   7.644   3.808  0.9245 -0.1846 -0.0163
24867SOL    HW178643   7.070   7.549   3.803  0.3249 -0.3684  1.4718
24867SOL    HW278644   7.132   7.676   3.858 -0.4039 -0.2921  2.1180
24868SOL     OW78645   9.533   4.224   8.272 -0.2561 -0.3023 -0.0635
24868SOL    HW178646   9.620   4.235   8.233 -0.5705  0.9097 -0.4847
24868SOL    HW278647   9.482   4.181   8.204 -0.0400 -0.8642  0.1221
24869SOL     OW78648   0.310   7.800   6.074 -0.4588 -0.1371 -0.1888
24869SOL    HW178649   0.249   7.760   6.136 -0.8788 -1.9057 -1.6600
24869SOL    HW278650   0.290   7.759   5.990 -0.2757  2.5618 -1.6621
24870SOL     OW78651   2.818   7.121   2.392 -0.1973 -0.3089 -0.2941
24870SOL    HW178652   2.732   7.121   2.433 -0.9328 -1.6850 -1.7430
24870SOL    HW278653   2.803   7.157   2.304  0.4454 -1.7332 -1.0152
24871SOL     OW78654   7.466   4.740   8.503 -0.6312 -0.8313 -0.7462
24871SOL    HW178655   7.549   4.722   8.458 -0.2434 -1.0492  0.0298
24871SOL    HW278656   7.428   4.654   8.518 -1.0542 -0.7235 -1.1978
24872SOL     OW78657   8.010   1.424  10.226  0.0175 -0.3588 -0.0255
24872SOL    HW178658   7.945   1.494  10.221 -1.2838 -1.5105 -0.0754
24872SOL    HW278659   8.018   1.393  10.135 -0.3995 -1.1019  0.1823
24873SOL     OW78660   6.166  10.263   8.696 -0.2810  0.4048  0.0526
24873SOL    HW178661   6.138  10.195   8.634 -0.4635  0.0593  0.5127
24873SOL    HW278662   6.089  10.319   8.706 -0.1325  0.6841 -0.3213
24874SOL     OW78663   5.181   3.851   0.974 -0.7385 -0.2760 -0.3827
24874SOL    HW178664   5.266   3.806   0.975  0.5679  2.0077 -0.6383
24874SOL    HW278665   5.179   3.900   1.056 -2.1163 -0.7885 -0.0957
24875SOL     OW78666   2.827   3.970   8.196  0.0925 -0.0976 -0.0172
24875SOL    HW178667   2.833   3.918   8.116 -0.9776  1.1589 -0.9559
24875SOL    HW278668   2.783   4.051   8.169  1.0544  0.9957  1.5407
24876SOL     OW78669   0.079   4.620   1.591 -0.1508  0.5344  0.1525
24876SOL    HW178670   0.018   4.547   1.581 -0.2261  0.3884  1.5078
24876SOL    HW278671   0.157   4.593   1.543 -0.4897 -0.0620 -0.0708
24877SOL     OW78672   1.664   4.824   4.056 -0.1751 -0.1248 -0.4644
24877SOL    HW178673   1.683   4.906   4.101 -0.4329  0.8643 -2.0959
24877SOL    HW278674   1.643   4.763   4.126  1.6500  0.7326  0.9038
24878SOL     OW78675   3.864   0.552   2.892 -0.4394  0.4886 -0.5712
24878SOL    HW178676   3.887   0.645   2.882  0.6783  0.1039 -1.9479
24878SOL    HW278677   3.937   0.505   2.852 -1.1449 -0.9837 -0.1911
24879SOL     OW78678   9.220   3.278   8.492 -0.3659  0.0197 -0.7541
24879SOL    HW178679   9.239   3.320   8.408 -2.2348  0.2544 -1.1137
24879SOL    HW278680   9.192   3.189   8.468  1.6475 -0.8254 -0.1439
24880SOL     OW78681   4.651   5.589   4.696  0.5183  0.6809 -1.4254
24880SOL    HW178682   4.615   5.503   4.675 -1.0811  1.1146 -0.6321
24880SOL    HW278683   4.693   5.618   4.615 -0.1208 -0.2820 -2.1166
24881SOL     OW78684   8.728   2.724   0.125 -0.3588  0.2903 -0.2520
24881SOL    HW178685   8.813   2.714   0.167  0.7081  1.0455 -2.1057
24881SOL    HW278686   8.664   2.707   0.195  1.2823  1.1112  1.5483
24882SOL     OW78687   7.443   3.148   0.314  0.2720  0.0980  0.2125
24882SOL    HW178688   7.537   3.148   0.332  0.2342 -1.4598  0.5511
24882SOL    HW278689   7.436   3.186   0.226  1.1405  0.9291  0.4847
24883SOL     OW78690   8.070   0.969   2.705  0.3127 -0.1075 -0.1601
24883SOL    HW178691   8.125   0.896   2.675  0.1423 -0.5162  0.5110
24883SOL    HW278692   7.983   0.931   2.714  0.8013 -0.6700  3.2238
24884SOL     OW78693   5.580   0.447   9.261 -0.0902  0.2080 -0.4842
24884SOL    HW178694   5.550   0.445   9.170  1.5233 -0.0110 -1.0483
24884SOL    HW278695   5.644   0.518   9.263  2.0616 -1.6275 -0.2765
24885SOL     OW78696   4.672   1.430   5.136  0.1639 -0.1000 -0.0871
24885SOL    HW178697   4.642   1.521   5.140  1.4378  0.2903  1.2867
24885SOL    HW278698   4.751   1.427   5.190 -0.0196 -2.0985  0.1778
24886SOL     OW78699   5.236   5.900   8.041 -0.1239  0.4838  0.1319
24886SOL    HW178700   5.307   5.946   8.084  0.4546  0.1563 -0.4620
24886SOL    HW278701   5.168   5.966   8.030  0.0959  0.8095  0.6567
24887SOL     OW78702   8.917   5.844   4.772 -0.1970 -0.3720  0.1678
24887SOL    HW178703   8.923   5.786   4.696 -0.2162 -1.9621  1.3217
24887SOL    HW278704   8.886   5.788   4.842 -1.1085  1.2811  1.1424
24888SOL     OW78705  10.225   5.207   6.468  0.1435  0.1996  0.2761
24888SOL    HW178706  10.234   5.193   6.374 -0.9085 -1.9424  0.4322
24888SOL    HW278707  10.131   5.220   6.481  0.3403  0.9548  0.9876
24889SOL     OW78708   2.078   7.487   4.405 -0.7577 -0.1282 -0.0798
24889SOL    HW178709   1.994   7.448   4.430 -0.6824 -0.0022  0.3901
24889SOL    HW278710   2.068   7.509   4.313 -1.3442  0.1387  0.0405
24890SOL     OW78711   3.248   6.663   8.780 -0.9139  0.4631 -0.0978
24890SOL    HW178712   3.327   6.609   8.788 -1.0300  0.3563  0.3525
24890SOL    HW278713   3.179   6.610   8.820 -1.1019  0.7948  0.0185
24891SOL     OW78714   0.998   9.407   3.984  0.4672 -0.3009  0.7473
24891SOL    HW178715   1.055   9.462   3.931  0.8948 -1.7053 -0.3182
24891SOL    HW278716   0.910   9.423   3.950  0.7197 -1.0594 -0.2964
24892SOL     OW78717   6.818   5.809   7.690 -0.2750 -0.5566  0.1730
24892SOL    HW178718   6.911   5.834   7.698 -0.5684  0.3428  0.9336
24892SOL    HW278719   6.770   5.885   7.722 -1.2942 -0.9251 -0.4325
24893SOL     OW78720   5.346   9.006   8.756  0.3841  0.3756  0.2821
24893SOL    HW178721   5.408   9.034   8.824  1.8491 -0.3619 -0.6772
24893SOL    HW278722   5.402   8.985   8.681 -1.1737  1.0641 -1.1244
24894SOL     OW78723   8.563   2.623   9.300 -0.1914  0.2790  0.5966
24894SOL    HW178724   8.578   2.715   9.280  1.0624  0.2615  1.3766
24894SOL    HW278725   8.561   2.619   9.395  0.9496 -0.6509  0.6033
24895SOL     OW78726   6.158   8.564   7.355 -0.2721 -0.1240 -0.3735
24895SOL    HW178727   6.073   8.533   7.386 -0.4342  1.5024  0.9813
24895SOL    HW278728   6.210   8.574   7.435  0.5171  0.8096 -0.9864
24896SOL     OW78729   7.980   9.697   8.859 -0.2733 -0.1612  0.0947
24896SOL    HW178730   7.893   9.731   8.840 -0.7257 -1.9845 -1.3060
24896SOL    HW278731   8.022   9.687   8.774  1.5903  1.2674  0.7731
24897SOL     OW78732   4.803   3.431   5.862 -0.0381 -0.1469 -0.0311
24897SOL    HW178733   4.719   3.463   5.897 -1.8040 -2.3564 -1.8843
24897SOL    HW278734   4.784   3.342   5.832  2.7064 -0.3383 -1.5402
24898SOL     OW78735   4.754   5.719   6.678 -0.1714  0.8076 -0.0647
24898SOL    HW178736   4.700   5.642   6.661  1.0330  0.3087 -1.9258
24898SOL    HW278737   4.769   5.717   6.772 -0.6091 -0.9356  0.0057
24899SOL     OW78738   0.106   8.555   4.433 -0.3463  0.1579 -0.1276
24899SOL    HW178739   0.137   8.568   4.523 -2.0022 -2.1066  0.8995
24899SOL    HW278740   0.184   8.561   4.379  0.6360  2.0414  1.3769
24900SOL     OW78741   7.832   4.376   2.573 -0.6269 -0.3760  0.2510
24900SOL    HW178742   7.818   4.283   2.589  0.2362 -0.6909 -0.6649
24900SOL    HW278743   7.913   4.379   2.521 -1.6946  0.7290 -1.4547
24901SOL     OW78744   7.328   9.166   5.890  0.3526  0.1439 -0.1219
24901SOL    HW178745   7.307   9.191   5.980 -1.0702  2.3526 -0.9877
24901SOL    HW278746   7.419   9.193   5.878  0.5137 -0.0624  0.6177
24902SOL     OW78747   1.795  10.271   7.724 -0.3683 -0.0025  0.4760
24902SOL    HW178748   1.880  10.300   7.689 -0.9396 -0.8422 -1.7172
24902SOL    HW278749   1.735  10.343   7.704 -0.9192 -0.9117 -1.3145
24903SOL     OW78750   0.049   6.316   4.660 -0.6046  0.4800 -0.2319
24903SOL    HW178751  -0.011   6.242   4.651  0.3827 -0.1657 -1.9382
24903SOL    HW278752   0.136   6.279   4.646  0.1396  1.5656  1.2515
24904SOL     OW78753   5.293   8.586  10.093 -0.2512  0.4558  0.0757
24904SOL    HW178754   5.271   8.648  10.024  1.6868  1.0505 -0.0790
24904SOL    HW278755   5.349   8.636  10.153 -0.9470 -0.3719  1.4612
24905SOL     OW78756   3.165   5.616   4.080 -0.0198 -0.2811  0.0083
24905SOL    HW178757   3.217   5.642   4.156 -0.1028 -2.1229  0.7468
24905SOL    HW278758   3.230   5.601   4.011  0.1567  0.2852  0.0472
24906SOL     OW78759   3.606   5.784   9.261 -0.5177  0.5454 -0.5141
24906SOL    HW178760   3.695   5.811   9.285 -0.4775 -1.2749  1.7569
24906SOL    HW278761   3.551   5.859   9.283  0.5482  2.5484 -3.9289
24907SOL     OW78762   5.451   8.345   9.280  0.2809  0.3834  0.6098
24907SOL    HW178763   5.411   8.336   9.366 -0.8542 -2.0976 -0.0927
24907SOL    HW278764   5.545   8.352   9.298  0.1966 -1.4839  2.0318
24908SOL     OW78765   8.994   8.951   2.439 -0.4103 -0.4336  0.9332
24908SOL    HW178766   8.935   9.022   2.414 -1.1145 -1.2698  0.1552
24908SOL    HW278767   9.020   8.911   2.356  2.2082  0.6282  1.1393
24909SOL     OW78768   0.083   2.937   3.892  0.6094  0.0082 -0.5934
24909SOL    HW178769   0.060   2.946   3.800  1.2861  0.5420 -0.7105
24909SOL    HW278770   0.095   3.026   3.924  0.2969 -0.1641  0.0408
24910SOL     OW78771   9.854  10.140   1.045  0.3212 -0.4575 -0.4736
24910SOL    HW178772   9.835  10.065   1.102 -0.4993 -0.2640 -0.4814
24910SOL    HW278773   9.939  10.172   1.075 -0.4007  0.0729  1.1221
24911SOL     OW78774   2.374   6.797   1.338 -0.1908 -0.4741 -0.3480
24911SOL    HW178775   2.284   6.770   1.320 -0.5070 -0.1617  0.6794
24911SOL    HW278776   2.423   6.714   1.348 -0.5306 -0.6464 -0.1163
24912SOL     OW78777   6.674   0.335   9.172 -0.3681 -0.1863  0.1479
24912SOL    HW178778   6.584   0.332   9.139 -0.2139  0.5418 -0.3700
24912SOL    HW278779   6.665   0.353   9.266 -0.7598 -0.1175  0.0984
24913SOL     OW78780   2.061   3.027   7.308 -0.7598  0.5426  0.0857
24913SOL    HW178781   2.106   2.986   7.381  0.4667 -0.0094 -0.9581
24913SOL    HW278782   1.968   3.021   7.331 -0.4157  0.1122  1.4457
24914SOL     OW78783   4.222   3.684   6.212  0.0566 -0.2306  0.4262
24914SOL    HW178784   4.209   3.716   6.301 -1.0637 -1.1070  0.6006
24914SOL    HW278785   4.228   3.763   6.158  2.2114  0.3654  1.4148
24915SOL     OW78786   6.616   3.563   0.670 -0.0784  0.0377  0.2894
24915SOL    HW178787   6.678   3.586   0.600 -0.0614 -0.4370  0.1481
24915SOL    HW278788   6.562   3.642   0.680  2.1498  1.4605  2.1935
24916SOL     OW78789   7.442   8.333   8.449  0.1091  0.6139  0.2395
24916SOL    HW178790   7.472   8.373   8.530  0.7248 -3.4884  2.2577
24916SOL    HW278791   7.347   8.328   8.458  0.2929 -1.3565  1.6190
24917SOL     OW78792   2.813   4.863   9.221  0.1792 -0.5767 -0.2654
24917SOL    HW178793   2.762   4.865   9.141 -0.7505  2.8317  0.2635
24917SOL    HW278794   2.755   4.899   9.288  1.4864 -1.7529  1.6219
24918SOL     OW78795   4.278   2.768   9.274 -0.2326 -0.2998  0.3116
24918SOL    HW178796   4.319   2.794   9.192  0.1271 -0.8954  0.2952
24918SOL    HW278797   4.266   2.850   9.322 -0.6606  0.0824 -0.4257
24919SOL     OW78798   1.543   9.079   1.094 -0.4553 -0.1400  0.0271
24919SOL    HW178799   1.615   9.019   1.075 -1.2613 -1.3153  0.5190
24919SOL    HW278800   1.471   9.049   1.037 -0.1831  1.8978 -1.5369
24920SOL     OW78801   0.956   1.894   4.621 -0.2466 -0.1623  0.4583
24920SOL    HW178802   1.003   1.925   4.544 -0.9319 -0.2697 -0.0095
24920SOL    HW278803   0.965   1.799   4.617  0.0691 -0.1471  0.7437
24921SOL     OW78804   6.815   0.406   7.094 -0.4155 -0.0323 -0.5847
24921SOL    HW178805   6.744   0.467   7.076 -0.7054 -0.4721 -0.9573
24921SOL    HW278806   6.782   0.348   7.163 -0.4693 -0.3156 -0.8456
24922SOL     OW78807   4.779   5.248   1.910 -0.9330 -0.7090 -0.3809
24922SOL    HW178808   4.735   5.206   1.836 -0.8922 -0.1345 -0.7368
24922SOL    HW278809   4.868   5.263   1.880 -1.0223 -0.1227 -0.3551
24923SOL     OW78810   2.546   1.713  10.106 -0.1035 -0.6153  0.0351
24923SOL    HW178811   2.519   1.686  10.019  1.5936  0.0282 -0.7482
24923SOL    HW278812   2.633   1.674  10.118 -0.4701 -1.0348  1.6226
24924SOL     OW78813   3.561   0.881   3.840 -0.1723 -0.4539  0.7241
24924SOL    HW178814   3.578   0.930   3.921 -0.0219  0.2988  0.2484
24924SOL    HW278815   3.640   0.829   3.826  0.3528  0.4155  0.3714
24925SOL     OW78816   6.794   0.203   6.502  0.3406 -0.5300  0.1172
24925SOL    HW178817   6.730   0.275   6.504  1.3979  0.4463 -0.0605
24925SOL    HW278818   6.788   0.168   6.413 -0.7298 -1.1994  0.4324
24926SOL     OW78819   2.989   3.987   2.339  0.0725  0.5522 -0.1092
24926SOL    HW178820   3.047   3.998   2.414  1.0760  0.2675 -0.8200
24926SOL    HW278821   3.043   4.012   2.264 -0.7040  0.1921 -0.7981
24927SOL     OW78822   3.110   3.591   1.174 -0.3237  0.0195 -0.3834
24927SOL    HW178823   3.170   3.563   1.243 -1.0055 -0.9971 -0.1653
24927SOL    HW278824   3.023   3.571   1.209 -0.7680  1.0578 -0.8617
24928SOL     OW78825   8.151   1.890   9.314  0.4339 -0.3337  0.3890
24928SOL    HW178826   8.133   1.904   9.407  0.5381 -0.0492  0.3657
24928SOL    HW278827   8.234   1.933   9.298  0.2734 -0.1295  0.0974
24929SOL     OW78828   6.400   0.206   0.168 -0.1363  0.0121  0.1998
24929SOL    HW178829   6.307   0.229   0.170 -0.3132 -0.6457 -0.1820
24929SOL    HW278830   6.432   0.232   0.255 -0.9446 -0.8088  0.7722
24930SOL     OW78831   9.885   8.394   9.435  0.2189 -0.3660 -0.2983
24930SOL    HW178832   9.901   8.448   9.358 -1.4796 -0.5371 -0.8124
24930SOL    HW278833   9.947   8.426   9.500  0.7690  0.6804 -1.3052
24931SOL     OW78834   3.806   7.354   4.686  0.2183 -0.1777  0.7223
24931SOL    HW178835   3.831   7.295   4.615 -0.2952 -1.5190  1.6162
24931SOL    HW278836   3.877   7.347   4.750  1.0813  1.6490  0.0210
24932SOL     OW78837   4.675   2.362   1.721 -0.0681  0.0361 -0.1870
24932SOL    HW178838   4.726   2.308   1.782 -2.0640  0.1005  1.6838
24932SOL    HW278839   4.715   2.347   1.636  2.3299 -0.7566  0.9875
24933SOL     OW78840   1.145   5.614  10.128 -0.4226  0.7889  0.6108
24933SOL    HW178841   1.193   5.539  10.094 -0.6270  1.8076 -2.1441
24933SOL    HW278842   1.214   5.672  10.161 -0.1055  0.3356  0.7585
24934SOL     OW78843   3.189  10.084   0.798 -0.4365 -0.0222 -0.0026
24934SOL    HW178844   3.136  10.065   0.721 -0.2478  1.3230 -0.4937
24934SOL    HW278845   3.262  10.136   0.765  0.3956 -0.5823  0.8868
24935SOL     OW78846  10.150   7.044   3.316 -0.6030 -0.2455 -0.0526
24935SOL    HW178847  10.115   7.112   3.258 -1.1761 -1.0925 -0.7285
24935SOL    HW278848  10.238   7.028   3.283 -0.6797 -0.2477 -0.2563
24936SOL     OW78849   9.394   1.767   1.276  0.2154  0.3409 -0.5607
24936SOL    HW178850   9.339   1.807   1.342  0.5225 -0.4162  0.1728
24936SOL    HW278851   9.441   1.697   1.322 -0.4370 -0.9844 -1.8154
24937SOL     OW78852   5.355   5.255   4.316 -0.0351  0.0632 -0.2645
24937SOL    HW178853   5.353   5.202   4.396 -0.5636  0.4838  0.0108
24937SOL    HW278854   5.401   5.335   4.342 -0.3397  0.2635 -0.3438
24938SOL     OW78855   5.808   7.638   1.068  0.2020 -0.1172  0.0342
24938SOL    HW178856   5.771   7.711   1.019 -2.1104 -2.3608 -1.9140
24938SOL    HW278857   5.897   7.629   1.036 -0.2415  0.4611 -1.4478
24939SOL     OW78858   9.710   3.663   4.626  0.0640 -0.0020 -0.2493
24939SOL    HW178859   9.660   3.670   4.707  2.9693 -1.8580  1.9144
24939SOL    HW278860   9.739   3.752   4.607  0.1479  0.3226  1.3275
24940SOL     OW78861   6.063   7.391   0.315  0.0818 -0.3269 -0.1130
24940SOL    HW178862   6.123   7.334   0.267  1.0496 -1.7214  2.5456
24940SOL    HW278863   6.107   7.408   0.398 -1.4556  2.0191  0.3170
24941SOL     OW78864   1.674   3.266   4.217  0.2366  0.9469  0.2560
24941SOL    HW178865   1.680   3.278   4.123  1.2705 -0.5387  0.0999
24941SOL    HW278866   1.764   3.276   4.248  0.1969 -0.2669  0.8396
24942SOL     OW78867  10.276   3.487   8.060 -0.5627  0.4940  0.2908
24942SOL    HW178868  10.333   3.416   8.087 -1.0210 -0.3178 -0.7828
24942SOL    HW278869  10.309   3.564   8.106  0.1532 -0.3403  1.2093
24943SOL     OW78870   9.026   3.857   7.050 -0.5003 -0.4335 -0.2403
24943SOL    HW178871   8.984   3.776   7.078 -2.0478  1.0273  2.0895
24943SOL    HW278872   8.955   3.922   7.054  0.4241  0.8845 -3.0434
24944SOL     OW78873   1.789   9.785   6.318  0.0750 -0.7743 -0.3694
24944SOL    HW178874   1.770   9.862   6.264  1.2002 -1.4259 -1.7801
24944SOL    HW278875   1.866   9.810   6.368  0.4052 -0.9574 -0.7837
24945SOL     OW78876   8.912   3.306   1.277  0.0491 -0.4040 -0.6135
24945SOL    HW178877   8.896   3.365   1.204  0.8100  0.2515 -0.2640
24945SOL    HW278878   9.006   3.315   1.295 -0.4666  0.9996  1.7562
24946SOL     OW78879   0.644   0.466   6.826  0.0517 -0.1251 -0.3160
24946SOL    HW178880   0.685   0.398   6.772 -0.6985  0.2495 -1.3961
24946SOL    HW278881   0.550   0.446   6.822 -0.1567  0.8236 -0.4608
24947SOL     OW78882   2.519   5.146  10.116 -0.1509  0.0167 -0.1456
24947SOL    HW178883   2.471   5.223  10.145 -0.8668 -0.8876  1.1870
24947SOL    HW278884   2.458   5.100  10.059  0.1599  0.2567 -0.6807
24948SOL     OW78885   8.138   4.922   7.436 -0.0000 -0.4076  0.0466
24948SOL    HW178886   8.121   4.868   7.513 -1.6722 -0.0282 -0.0138
24948SOL    HW278887   8.092   4.878   7.365  0.9524 -0.3794 -0.6015
24949SOL     OW78888   5.691   9.526   7.169  0.0042  0.3908  0.5117
24949SOL    HW178889   5.692   9.553   7.261 -1.7224  0.2385  0.6124
24949SOL    HW278890   5.677   9.607   7.121  1.9424  0.6317  0.2557
24950SOL     OW78891   7.387   8.779   0.544  0.5895  0.3156 -0.6090
24950SOL    HW178892   7.399   8.728   0.464  0.6158  0.1403 -0.4939
24950SOL    HW278893   7.428   8.864   0.525  0.3305  0.3800 -0.8842
24951SOL     OW78894   9.468   3.902   4.377  0.6078 -0.5835  0.1879
24951SOL    HW178895   9.431   3.970   4.320  1.5713  0.4121  0.7059
24951SOL    HW278896   9.538   3.862   4.325  0.4219 -0.7889  0.0938
24952SOL     OW78897   1.073   6.812   0.488 -0.0685 -0.2272  0.0240
24952SOL    HW178898   1.110   6.855   0.565  0.5671 -0.4836 -0.1342
24952SOL    HW278899   1.109   6.723   0.491 -0.6799 -0.4839 -0.1294
24953SOL     OW78900   4.637   7.427   6.266  0.2511 -0.2205 -0.1479
24953SOL    HW178901   4.636   7.487   6.192  0.3183  0.1073  0.1160
24953SOL    HW278902   4.584   7.470   6.333 -0.9263 -1.1174 -0.4714
24954SOL     OW78903   7.615   4.271   0.233 -0.4506 -0.0278 -0.2143
24954SOL    HW178904   7.553   4.334   0.197 -0.4710 -0.1408 -0.3779
24954SOL    HW278905   7.676   4.324   0.284  2.0145  0.7445 -3.5713
24955SOL     OW78906   5.989   6.076   0.063 -0.3043 -0.1415  0.6169
24955SOL    HW178907   5.950   6.115   0.141  1.0760  2.0622  0.2957
24955SOL    HW278908   6.054   6.015   0.096 -1.4412 -1.1032  1.1481
24956SOL     OW78909  10.254   8.108   0.257  0.1041  0.5289  0.1807
24956SOL    HW178910  10.328   8.166   0.239 -2.0147  2.9490 -1.4753
24956SOL    HW278911  10.202   8.155   0.323 -0.2936 -0.8327  0.8836
24957SOL     OW78912   0.369   3.837   4.265 -0.5225 -0.1599 -0.5948
24957SOL    HW178913   0.351   3.783   4.188 -2.7739  0.9178 -0.8887
24957SOL    HW278914   0.382   3.773   4.336 -0.8553 -1.1352 -1.3906
24958SOL     OW78915   2.639   7.601   4.955 -0.0817 -0.3656  0.2386
24958SOL    HW178916   2.589   7.679   4.980  0.5380 -0.2285  1.0604
24958SOL    HW278917   2.664   7.618   4.864 -0.7602 -0.0352  0.1060
24959SOL     OW78918  10.064   3.483   8.809  0.2655  0.3153 -0.1548
24959SOL    HW178919  10.136   3.524   8.857 -0.9337 -0.9500  3.0368
24959SOL    HW278920  10.027   3.552   8.755  1.9649  1.7914  0.4976
24960SOL     OW78921   4.796   2.349   6.410 -0.2469 -0.7136 -0.2310
24960SOL    HW178922   4.794   2.433   6.363 -0.3087 -1.3099 -1.3360
24960SOL    HW278923   4.712   2.308   6.388  0.4158 -1.7150 -0.9744
24961SOL     OW78924   4.387   2.867   2.086 -0.4279 -0.6810  0.5570
24961SOL    HW178925   4.404   2.949   2.039  0.1241 -0.1665  1.6054
24961SOL    HW278926   4.308   2.885   2.137 -0.8177 -1.1104  0.1063
24962SOL     OW78927   9.376   0.235   8.975 -0.1451 -0.2004 -0.1003
24962SOL    HW178928   9.362   0.186   8.894 -0.5316  0.3128 -0.3478
24962SOL    HW278929   9.325   0.315   8.964 -0.0430 -0.0365  0.5705
24963SOL     OW78930   3.136   2.447   3.008  0.0415 -0.0541  0.5738
24963SOL    HW178931   3.107   2.365   2.968  0.2211 -0.3007  0.9467
24963SOL    HW278932   3.099   2.446   3.096 -1.1042  0.9056  0.1401
24964SOL     OW78933   4.081   3.324   0.643 -0.6980  0.6559 -0.1349
24964SOL    HW178934   4.169   3.289   0.635 -0.7762  0.8209 -2.4635
24964SOL    HW278935   4.029   3.252   0.679  0.5161  0.8943  2.2907
24965SOL     OW78936   9.927   7.220   3.465  0.3532 -0.2098 -0.6470
24965SOL    HW178937   9.914   7.244   3.373  2.4672  1.1338 -0.6706
24965SOL    HW278938  10.006   7.166   3.465  0.9939  0.6930  0.4800
24966SOL     OW78939   4.968   4.205   4.883 -0.2396  0.0397  0.4054
24966SOL    HW178940   4.934   4.125   4.922  0.8127 -1.3822 -1.4321
24966SOL    HW278941   5.055   4.181   4.851  0.2495  2.0266  0.1009
24967SOL     OW78942  10.175   1.692   2.750  0.8117  0.1573  0.2642
24967SOL    HW178943  10.133   1.724   2.670  0.1540 -1.6019 -0.1378
24967SOL    HW278944  10.204   1.603   2.729  0.7466 -0.3063  1.9341
24968SOL     OW78945   5.445   2.496   0.955  0.3794  0.1063 -0.2815
24968SOL    HW178946   5.445   2.460   1.044 -4.2066 -0.3524 -0.2387
24968SOL    HW278947   5.450   2.590   0.967  2.1599 -0.0168  0.2367
24969SOL     OW78948   0.890   5.527   1.816 -0.1672  0.0556  0.1290
24969SOL    HW178949   0.800   5.497   1.830 -0.4825  1.0003  0.2017
24969SOL    HW278950   0.945   5.459   1.855 -0.8826  0.0820  1.2093
24970SOL     OW78951   3.324   6.186   5.171 -0.4135  0.4475  0.3288
24970SOL    HW178952   3.374   6.115   5.213 -0.3762  0.5325  0.4280
24970SOL    HW278953   3.389   6.233   5.119 -0.5163  0.1579 -0.0718
24971SOL     OW78954   7.655   4.189   6.702 -0.3037 -0.1105  0.5520
24971SOL    HW178955   7.650   4.230   6.788 -0.5854 -0.7605  0.8523
24971SOL    HW278956   7.630   4.258   6.641  2.0296  1.0192  0.7657
24972SOL     OW78957   3.990   3.079   8.195  0.2268 -0.0811 -0.1709
24972SOL    HW178958   3.950   3.072   8.281  0.0766 -1.5796 -0.3292
24972SOL    HW278959   3.922   3.047   8.135  0.7891 -0.3022 -0.6977
24973SOL     OW78960   9.836   9.113   1.460  0.5184 -0.3967 -0.0975
24973SOL    HW178961   9.920   9.117   1.415 -0.9745 -1.3196 -3.2928
24973SOL    HW278962   9.847   9.046   1.527  2.8008  0.8608  0.9032
24974SOL     OW78963   5.612   5.877   6.296  0.2617 -0.2753  0.4164
24974SOL    HW178964   5.524   5.840   6.303  0.4982 -0.9486 -0.1051
24974SOL    HW278965   5.612   5.926   6.214  0.0986  0.5050  0.8685
24975SOL     OW78966   7.136   5.107   7.144 -0.1929  0.2765  0.5382
24975SOL    HW178967   7.223   5.100   7.183 -0.0681  2.6249  0.8032
24975SOL    HW278968   7.076   5.094   7.218 -0.0150  0.9245  0.8042
24976SOL     OW78969   0.375   4.168   2.566  0.2795  0.0857 -0.0273
24976SOL    HW178970   0.419   4.084   2.582 -0.5435 -0.0670  1.7043
24976SOL    HW278971   0.348   4.198   2.653 -1.1903  1.1973 -0.8130
24977SOL     OW78972   1.770   9.155   2.912  0.5840  0.1993  0.0006
24977SOL    HW178973   1.768   9.175   2.819 -0.8269 -0.2954 -0.1007
24977SOL    HW278974   1.831   9.219   2.949 -0.7602  2.0816 -0.8789
24978SOL     OW78975   1.983   1.353   6.959  0.0778 -0.0811 -0.2414
24978SOL    HW178976   2.043   1.347   6.885  0.9966 -0.8087  0.5425
24978SOL    HW278977   2.019   1.423   7.014  0.2160 -0.5098  0.2233
24979SOL     OW78978   1.044   6.691   7.492 -0.3440 -0.1712  0.1680
24979SOL    HW178979   1.091   6.763   7.450 -1.4306  0.7740  0.4968
24979SOL    HW278980   0.952   6.705   7.468 -0.7381 -0.7367  1.2402
24980SOL     OW78981   3.170   4.967   6.119 -0.4007  0.2208 -0.1506
24980SOL    HW178982   3.258   4.999   6.102 -0.9134  1.9210  0.1704
24980SOL    HW278983   3.181   4.876   6.147  1.1614  0.1657 -0.8770
24981SOL     OW78984   2.152   3.277   9.640  0.2577  0.6571 -0.8132
24981SOL    HW178985   2.176   3.254   9.730 -0.9392 -1.2610 -0.9273
24981SOL    HW278986   2.156   3.194   9.592  1.1787  1.7003 -2.6297
24982SOL     OW78987   7.222   4.324   4.886 -0.7759 -0.0767  0.1947
24982SOL    HW178988   7.210   4.230   4.875 -0.1015 -0.1710  0.2547
24982SOL    HW278989   7.313   4.334   4.914 -0.4741  0.6803 -0.9819
24983SOL     OW78990   6.467   0.633   0.285 -0.0969  0.2323 -0.4270
24983SOL    HW178991   6.496   0.622   0.376  1.5318  0.2255 -0.9165
24983SOL    HW278992   6.417   0.714   0.285  0.9528  0.8992  0.2450
24984SOL     OW78993   9.852   0.080   5.770  0.1679 -0.0167 -0.1118
24984SOL    HW178994   9.909   0.003   5.769  1.1391  0.6665 -1.7319
24984SOL    HW278995   9.853   0.110   5.861  0.0312 -1.7019  0.4750
24985SOL     OW78996   0.096   2.598   4.122 -0.2116  0.0888  0.0091
24985SOL    HW178997   0.021   2.561   4.167 -0.2052  1.1107  0.9064
24985SOL    HW278998   0.078   2.692   4.119 -1.1069 -0.0417 -3.7932
24986SOL     OW78999   9.790   0.781   0.545  0.8162 -0.9583 -0.4627
24986SOL    HW179000   9.877   0.746   0.528  0.4094 -1.5473 -1.4777
24986SOL    HW279001   9.753   0.723   0.613  1.2504 -0.6333  0.0541
24987SOL     OW79002   6.453   5.376   4.060 -0.6779 -0.2492 -0.2614
24987SOL    HW179003   6.498   5.321   4.124 -2.0808 -1.3992 -0.2048
24987SOL    HW279004   6.494   5.353   3.976  0.9029  0.9857  0.1335
24988SOL     OW79005   2.053   8.444   3.121 -0.3188  0.0929 -0.4137
24988SOL    HW179006   2.045   8.357   3.161 -1.7151  0.9748  1.4104
24988SOL    HW279007   1.964   8.464   3.091  0.1135  0.6565 -1.3328
24989SOL     OW79008   0.302   4.466   8.744 -0.2816 -0.0706 -0.1278
24989SOL    HW179009   0.332   4.376   8.754  1.6544  0.6167  0.7527
24989SOL    HW279010   0.235   4.477   8.811 -0.3172 -0.7864 -0.0450
24990SOL     OW79011   8.661   0.399   1.079  0.1114 -0.2953  0.0890
24990SOL    HW179012   8.676   0.493   1.074 -0.3561 -0.2669 -1.1091
24990SOL    HW279013   8.666   0.378   1.172  0.3715  0.8846  0.3462
24991SOL     OW79014   8.680   9.722   3.789  0.3699  0.1342  0.1519
24991SOL    HW179015   8.636   9.801   3.819 -2.6055 -1.8036  1.2983
24991SOL    HW279016   8.754   9.712   3.849  0.1423  1.4252  0.6884
24992SOL     OW79017   3.115   0.622   3.664  0.2855  0.2937  0.2390
24992SOL    HW179018   3.176   0.598   3.734 -0.1713 -0.5133  0.3640
24992SOL    HW279019   3.164   0.685   3.611  0.6273  0.9519  1.2976
24993SOL     OW79020   2.383   9.761   1.170  0.7140  0.1394  0.1917
24993SOL    HW179021   2.345   9.846   1.149  0.4993  0.3827  1.5035
24993SOL    HW279022   2.343   9.736   1.253  0.4157 -1.4780 -0.3978
24994SOL     OW79023   0.526   6.943   3.355  0.1356  0.5657 -0.1474
24994SOL    HW179024   0.536   6.928   3.450  1.0625 -0.5272 -0.3901
24994SOL    HW279025   0.570   6.868   3.315 -1.6788  0.1324 -1.4558
24995SOL     OW79026   8.849  10.080   4.443 -0.0476  0.9117  0.2093
24995SOL    HW179027   8.840  10.021   4.368 -0.5105  1.4676 -0.1760
24995SOL    HW279028   8.813  10.163   4.413 -0.0896  1.1843  0.9962
24996SOL     OW79029   2.714   6.535   0.206 -0.6398 -0.3985  0.2546
24996SOL    HW179030   2.652   6.606   0.190  0.1317  0.3595  0.5814
24996SOL    HW279031   2.678   6.461   0.157 -1.3836  0.2480 -0.2044
24997SOL     OW79032   7.307   9.131   3.672  0.1211 -0.0744 -0.3290
24997SOL    HW179033   7.356   9.129   3.754  0.4241  2.4057 -0.3812
24997SOL    HW279034   7.217   9.153   3.698  0.0507 -0.0541 -0.5892
24998SOL     OW79035   9.040   8.472   0.343 -0.1093  0.1156 -0.1909
24998SOL    HW179036   9.130   8.445   0.361  0.6883  2.5514 -0.2217
24998SOL    HW279037   9.025   8.447   0.252 -0.8275 -3.5525  0.7386
24999SOL     OW79038   3.763   7.514   5.057 -0.5453  0.4732 -0.0067
24999SOL    HW179039   3.788   7.428   5.022 -1.0056  0.1777  0.3818
24999SOL    HW279040   3.821   7.526   5.133 -1.9562 -0.4970  1.2817
25000SOL     OW79041   6.065   1.584   7.686 -0.6219  0.0555 -0.0518
25000SOL    HW179042   6.065   1.493   7.717 -2.0562 -0.4252 -1.3736
25000SOL    HW279043   6.000   1.586   7.616  1.7607  1.3261 -2.4066
25001SOL     OW79044   0.823   3.079   7.442  0.4563 -0.1662  0.4833
25001SOL    HW179045   0.761   3.018   7.481  0.6444 -0.5330  0.2153
25001SOL    HW279046   0.864   3.030   7.371  2.1631 -0.4204  1.6040
25002SOL     OW79047   5.916   3.685   1.807  0.1900 -0.3849  0.4035
25002SOL    HW179048   5.838   3.721   1.765 -0.3348 -0.5438  1.2147
25002SOL    HW279049   5.970   3.762   1.825 -0.0647 -0.2009  0.4023
25003SOL     OW79050   7.691   7.162   4.321  0.3363  0.0750 -0.6247
25003SOL    HW179051   7.760   7.100   4.298  1.1623  0.3941  0.8272
25003SOL    HW279052   7.704   7.236   4.261  0.7132 -0.2362 -0.9289
25004SOL     OW79053   0.624   5.324   0.047  0.1507 -0.6474  0.3658
25004SOL    HW179054   0.716   5.301   0.061  0.7889  1.1995 -0.5325
25004SOL    HW279055   0.587   5.247   0.004  1.3113 -1.3565  0.5783
25005SOL     OW79056   6.333   2.660   4.571 -0.5487  0.2532  0.8440
25005SOL    HW179057   6.425   2.637   4.575 -0.5085  0.5736  2.2398
25005SOL    HW279058   6.314   2.702   4.655 -1.8138  0.7691  0.3426
25006SOL     OW79059   3.378   8.573   6.211 -0.1591 -0.0933  0.4053
25006SOL    HW179060   3.375   8.611   6.123  1.0605  0.6907  0.6726
25006SOL    HW279061   3.377   8.479   6.196  1.4168  0.0076 -0.5530
25007SOL     OW79062   7.484   3.592   9.066 -0.4981 -0.0449  0.0677
25007SOL    HW179063   7.475   3.627   8.978 -1.7890 -0.4120  0.0269
25007SOL    HW279064   7.573   3.614   9.092 -0.7944  2.0237 -0.4929
25008SOL     OW79065   7.009   8.226   7.744  0.4341  0.2541  0.0623
25008SOL    HW179066   7.089   8.199   7.699 -0.3681  0.3842 -1.5116
25008SOL    HW279067   6.994   8.316   7.713  0.3976  0.7356  1.4072
25009SOL     OW79068   6.457   3.193   0.256 -0.1193 -0.0812 -0.2347
25009SOL    HW179069   6.544   3.152   0.249 -0.5809 -0.8056 -2.8377
25009SOL    HW279070   6.474   3.286   0.235 -0.0121 -0.3379 -1.3813
25010SOL     OW79071   9.967   9.579   0.948 -0.1830  0.0915 -0.5182
25010SOL    HW179072   9.954   9.674   0.955 -0.5939 -0.0017  0.0528
25010SOL    HW279073  10.026   9.568   0.873 -0.3338  0.7799 -0.7417
25011SOL     OW79074   1.710   3.622   1.555  0.5672 -0.1727 -0.4103
25011SOL    HW179075   1.640   3.625   1.490  1.1956 -1.0882 -1.1540
25011SOL    HW279076   1.669   3.583   1.632 -0.5111  2.0228  0.2150
25012SOL     OW79077   0.084   2.987  10.249  0.0204 -0.1308 -0.1542
25012SOL    HW179078   0.093   3.062  10.308  0.5960  0.7566 -1.3163
25012SOL    HW279079   0.144   3.006  10.178 -1.5228 -0.5523 -1.6431
25013SOL     OW79080   0.687   0.747   5.917  0.2702  0.2380  0.3800
25013SOL    HW179081   0.736   0.821   5.952  0.0422 -0.0704  1.3688
25013SOL    HW279082   0.674   0.769   5.824  1.4202  0.7739  0.3270
25014SOL     OW79083   3.799   6.988   4.660 -0.4947 -0.2479 -0.3884
25014SOL    HW179084   3.843   7.027   4.736  1.6158  0.1917 -1.7665
25014SOL    HW279085   3.819   6.895   4.666  2.1277  0.1304 -1.8321
25015SOL     OW79086   9.045   9.088   5.538 -0.3821  0.0279 -0.5946
25015SOL    HW179087   9.064   9.062   5.448  1.4807 -0.0453 -0.2183
25015SOL    HW279088   9.007   9.175   5.530  0.2440  0.2380 -1.4458
25016SOL     OW79089   0.696   5.095   9.475 -0.2775 -0.4987 -0.5370
25016SOL    HW179090   0.784   5.119   9.502 -1.0523  1.7427  0.1908
25016SOL    HW279091   0.652   5.178   9.458 -2.2764 -1.5456 -0.8447
25017SOL     OW79092   1.146   3.098   6.762 -0.3689 -0.3229  0.2664
25017SOL    HW179093   1.156   3.191   6.743 -0.1966 -0.2641  0.6279
25017SOL    HW279094   1.157   3.092   6.857  0.9916 -0.8809  0.1005
25018SOL     OW79095   3.804   6.424   6.137 -0.1935 -0.1255 -0.0482
25018SOL    HW179096   3.726   6.448   6.187 -0.0053  0.1877  0.0992
25018SOL    HW279097   3.791   6.465   6.052 -0.6829 -0.9581 -0.3887
25019SOL     OW79098   5.780   6.586   8.884 -0.1892  0.1902  0.5354
25019SOL    HW179099   5.828   6.658   8.845  0.1695 -0.0786  0.4727
25019SOL    HW279100   5.690   6.618   8.892 -0.2387  0.2870 -0.3872
25020SOL     OW79101   2.586   6.433   2.384 -0.0970 -0.1987  0.3559
25020SOL    HW179102   2.506   6.457   2.336 -1.7947 -0.5598  2.8381
25020SOL    HW279103   2.568   6.345   2.418  0.8003  0.2317  2.0465
25021SOL     OW79104   2.390   1.916   1.974  0.5635  0.4589 -0.0187
25021SOL    HW179105   2.377   1.929   1.880  1.6561  1.0409 -0.1014
25021SOL    HW279106   2.461   1.975   1.997  1.5244 -0.9684  0.8391
25022SOL     OW79107   5.996   1.120   0.773 -0.2267 -0.1412 -0.6314
25022SOL    HW179108   6.087   1.091   0.774  0.0066  0.0897  3.7149
25022SOL    HW279109   5.945   1.040   0.785 -0.4444 -0.0041 -0.6474
25023SOL     OW79110   4.925   8.388   5.286 -0.2902  0.5889 -0.1782
25023SOL    HW179111   5.021   8.391   5.290 -0.2263  0.5581 -1.4513
25023SOL    HW279112   4.903   8.300   5.319  0.0452  0.9070  0.9525
25024SOL     OW79113   5.758   7.460   6.649  0.1468 -0.6263 -0.2278
25024SOL    HW179114   5.692   7.525   6.674 -2.0802 -2.2337 -1.4981
25024SOL    HW279115   5.713   7.404   6.586  3.1563 -1.1341 -2.1074
25025SOL     OW79116   9.542   0.576   1.951  0.1170  0.4156  0.1594
25025SOL    HW179117   9.599   0.645   1.987 -0.2570  0.7596  0.0974
25025SOL    HW279118   9.455   0.597   1.985 -0.0081 -0.0050  0.1029
25026SOL     OW79119   4.704   9.813   4.983  0.2491 -0.3238 -0.4602
25026SOL    HW179120   4.795   9.834   4.964  0.0987  0.3438 -0.4598
25026SOL    HW279121   4.705   9.720   5.005  0.7414 -0.6041 -1.6192
25027SOL     OW79122   5.920   1.565   0.493 -0.1489  0.0373  0.7186
25027SOL    HW179123   5.939   1.491   0.551  0.5719  0.0120  0.4623
25027SOL    HW279124   5.859   1.531   0.429 -2.4560  0.5453  2.5115
25028SOL     OW79125   1.962   4.310   2.469 -0.0039  0.1863  0.9285
25028SOL    HW179126   1.874   4.346   2.459  1.0552  2.3553 -2.0185
25028SOL    HW279127   1.948   4.215   2.479 -2.6616  0.5705  1.5681
25029SOL     OW79128   3.620   3.132   1.257 -0.6226  0.5395  0.1804
25029SOL    HW179129   3.700   3.131   1.310 -1.4353  2.6385  1.5657
25029SOL    HW279130   3.646   3.092   1.174  1.2341 -0.9798  1.4004
25030SOL     OW79131   6.444   5.358   8.815 -0.3221  0.2333 -0.1313
25030SOL    HW179132   6.475   5.430   8.870 -0.5999 -0.6946  1.2798
25030SOL    HW279133   6.351   5.350   8.836 -0.1740 -0.8919  0.1714
25031SOL     OW79134   6.203   7.335   0.532  0.4029  0.1962  0.6689
25031SOL    HW179135   6.137   7.271   0.558  1.4428 -0.8849  0.7047
25031SOL    HW279136   6.283   7.307   0.577  1.7473 -0.4905 -1.9330
25032SOL     OW79137   6.270   3.007   0.248 -0.3230  0.2659  0.1481
25032SOL    HW179138   6.342   3.070   0.239 -1.1971  1.1295 -1.1562
25032SOL    HW279139   6.191   3.061   0.243 -1.0867 -0.8511 -0.1562
25033SOL     OW79140   9.795   7.235   3.899 -0.0495  0.0379 -0.3301
25033SOL    HW179141   9.853   7.288   3.844 -0.2208  1.1016  0.4846
25033SOL    HW279142   9.805   7.271   3.987  0.4301 -1.8158  0.4304
25034SOL     OW79143   3.710   9.508   8.400 -0.0250  0.2003  0.3008
25034SOL    HW179144   3.796   9.477   8.429 -0.4482 -0.2534  1.1004
25034SOL    HW279145   3.715   9.507   8.304 -0.1155 -2.6789  0.2475
25035SOL     OW79146   6.619   0.867   3.152  0.6541 -0.5652 -0.5987
25035SOL    HW179147   6.625   0.772   3.162 -0.4403 -0.6743 -0.9353
25035SOL    HW279148   6.526   0.886   3.153  0.8160  0.3845 -1.7526
25036SOL     OW79149   8.058   1.341   9.981 -0.2859 -0.1838  0.1913
25036SOL    HW179150   8.128   1.285  10.014 -1.1506 -0.7187  1.1852
25036SOL    HW279151   8.031   1.300   9.899  0.0845 -0.3713  0.1617
25037SOL     OW79152   9.625   5.287   9.540 -0.2602 -0.8754  0.0882
25037SOL    HW179153   9.549   5.260   9.489 -0.7716  0.5982  0.0239
25037SOL    HW279154   9.688   5.316   9.475 -0.9313  1.0519  0.2359
25038SOL     OW79155   3.035   9.712   8.433 -0.1687 -0.6540 -0.3632
25038SOL    HW179156   2.989   9.747   8.356  0.9179  0.7997 -0.3821
25038SOL    HW279157   2.969   9.658   8.477 -1.5651  0.4642 -0.9907
25039SOL     OW79158   7.214   5.004   0.290  0.3733  0.3853  0.0190
25039SOL    HW179159   7.149   5.006   0.360  2.0081 -0.0926  1.6230
25039SOL    HW279160   7.194   5.081   0.236 -0.6191  1.0497  1.2882
25040SOL     OW79161   4.290   3.282   3.206 -0.1550  0.2895 -0.1667
25040SOL    HW179162   4.378   3.278   3.243 -0.3270 -0.2958  0.1823
25040SOL    HW279163   4.273   3.194   3.175 -1.1942  0.0232  1.1043
25041SOL     OW79164   7.825   2.525   9.824  0.4155  0.6442  0.1361
25041SOL    HW179165   7.850   2.599   9.769 -2.6961  0.0710 -2.3349
25041SOL    HW279166   7.871   2.450   9.786  1.5795  0.8791  1.0442
25042SOL     OW79167   0.369   2.571   4.280 -0.3353  0.0234  0.2252
25042SOL    HW179168   0.412   2.528   4.205 -2.3813 -0.2677 -0.8477
25042SOL    HW279169   0.381   2.664   4.264 -1.4657  0.0017 -0.9865
25043SOL     OW79170   2.111   7.302   2.593  0.2027 -0.2297  0.1231
25043SOL    HW179171   2.151   7.216   2.576  0.0620  0.0641 -2.0257
25043SOL    HW279172   2.181   7.354   2.632  0.3455 -1.2506  1.2673
25044SOL     OW79173   7.118   2.725   2.516 -0.1515 -0.1985  0.2828
25044SOL    HW179174   7.058   2.651   2.503 -2.1844  1.6411 -1.5846
25044SOL    HW279175   7.089   2.763   2.599  2.1567 -2.4483  2.2956
25045SOL     OW79176   7.293   6.597   6.928 -0.0033 -0.4010 -0.3345
25045SOL    HW179177   7.218   6.550   6.892  0.8481 -1.3502 -0.9019
25045SOL    HW279178   7.321   6.655   6.857 -1.0223  0.9714  0.3469
25046SOL     OW79179   8.459   5.008   5.841  0.1799  0.1372 -0.2803
25046SOL    HW179180   8.448   5.054   5.758 -0.6940 -0.0868 -0.2988
25046SOL    HW279181   8.470   4.916   5.815  0.9375  0.1899 -0.1895
25047SOL     OW79182   3.287   6.414   4.604 -0.4173 -0.3654 -0.3691
25047SOL    HW179183   3.270   6.507   4.615  0.0267 -0.1666 -1.2389
25047SOL    HW279184   3.255   6.394   4.516  1.8510 -0.4293 -1.2458
25048SOL     OW79185   0.866   0.192   3.618  0.1456 -0.2532  0.1598
25048SOL    HW179186   0.820   0.116   3.652  0.7261 -0.8750 -0.4265
25048SOL    HW279187   0.915   0.160   3.542  0.8133  0.5842  0.2105
25049SOL     OW79188   9.293   6.676   8.367 -0.0454  0.6041 -0.0451
25049SOL    HW179189   9.293   6.580   8.368  2.1444  0.5581  0.3156
25049SOL    HW279190   9.315   6.700   8.277  1.2780  0.7085  0.2925
25050SOL     OW79191   1.266   1.955   7.954  0.3050  0.1081  0.4948
25050SOL    HW179192   1.197   1.943   8.020 -1.1788  0.8801 -0.8483
25050SOL    HW279193   1.300   1.867   7.940 -1.9788 -0.7198 -0.3918
25051SOL     OW79194   4.917   1.223   6.678 -0.3693  0.3063  0.1857
25051SOL    HW179195   4.830   1.235   6.640  0.1980  2.2862 -0.6134
25051SOL    HW279196   4.924   1.129   6.693 -1.8983 -0.1317 -1.5206
25052SOL     OW79197   2.879   5.064   6.849  0.3439 -0.8763 -0.2498
25052SOL    HW179198   2.910   5.154   6.843  0.4925 -0.6342  2.5180
25052SOL    HW279199   2.958   5.011   6.849  0.6172 -0.6073  2.1874
25053SOL     OW79200   3.688   8.091   7.436 -0.0403  0.4341  0.4530
25053SOL    HW179201   3.607   8.141   7.436 -0.5344 -0.3311  1.2075
25053SOL    HW279202   3.702   8.067   7.528  1.3571  1.0413  0.4355
25054SOL     OW79203   0.330   3.607   4.657 -0.0514 -0.0117 -0.1316
25054SOL    HW179204   0.363   3.603   4.567 -1.2774 -2.0320 -0.5589
25054SOL    HW279205   0.325   3.701   4.676  1.8808  0.4504 -1.5046
25055SOL     OW79206   3.748   8.627   1.262  0.2772 -0.3897 -0.4049
25055SOL    HW179207   3.835   8.666   1.256  0.0176 -0.0076 -2.3830
25055SOL    HW279208   3.765   8.535   1.285  1.0809  0.0439  0.8344
25056SOL     OW79209   6.914   0.189   9.137 -0.7694  0.0542 -0.0637
25056SOL    HW179210   6.833   0.225   9.173 -0.8778  0.0986 -0.3474
25056SOL    HW279211   6.975   0.262   9.138 -0.9145  0.1832 -0.4070
25057SOL     OW79212   3.513   6.036   2.571  0.5222  0.1142 -0.0332
25057SOL    HW179213   3.467   6.097   2.628  1.8974  1.5874 -0.3995
25057SOL    HW279214   3.458   6.030   2.493 -0.9535 -1.2657  1.0425
25058SOL     OW79215   9.515   8.070   6.347  1.0015 -0.1626  0.6177
25058SOL    HW179216   9.606   8.089   6.322  1.0621  1.5306  1.9811
25058SOL    HW279217   9.514   8.079   6.442 -0.5337 -0.5619  0.6612
25059SOL     OW79218  10.065   2.923   4.417 -0.1155  0.5306  0.6980
25059SOL    HW179219  10.071   2.964   4.331 -0.7831 -0.5634  0.0980
25059SOL    HW279220   9.977   2.943   4.447 -0.0237  0.5683  0.9395
25060SOL     OW79221   8.005   0.003   5.872 -0.1253  0.3207  0.2378
25060SOL    HW179222   7.998   0.064   5.945 -1.1759  0.7610 -0.2134
25060SOL    HW279223   8.076  -0.056   5.897  0.0637  0.9512  1.2475
25061SOL     OW79224   4.883   5.447   8.487 -0.1215 -0.3495  0.5704
25061SOL    HW179225   4.976   5.451   8.507 -0.1928  0.0615  0.8233
25061SOL    HW279226   4.853   5.367   8.532  0.0152 -0.2318  0.8766
25062SOL     OW79227   2.538   8.022   3.248 -0.0160  0.4596 -0.1861
25062SOL    HW179228   2.604   8.090   3.237  0.8813 -0.1940  0.8746
25062SOL    HW279229   2.535   7.977   3.163  0.2922  1.0227 -0.4981
25063SOL     OW79230   7.928   3.775   7.924  0.4417 -0.2242 -0.5383
25063SOL    HW179231   7.833   3.758   7.926  0.7127 -1.9625 -0.5568
25063SOL    HW279232   7.959   3.749   8.011  0.9650 -0.0116 -0.6574
25064SOL     OW79233   5.533   0.752   9.560  0.1575  0.4526 -0.3192
25064SOL    HW179234   5.485   0.835   9.556  1.1152  0.9851 -1.3429
25064SOL    HW279235   5.481   0.692   9.507 -0.6668  0.3134  0.6199
25065SOL     OW79236   8.987   0.839   8.696 -0.4117 -0.0015  0.2723
25065SOL    HW179237   9.038   0.917   8.671  1.0130 -1.0193 -0.1265
25065SOL    HW279238   8.937   0.867   8.772  0.4447  1.1806  0.4350
25066SOL     OW79239   1.300   1.456   4.737  0.1504 -0.5827 -0.5901
25066SOL    HW179240   1.384   1.434   4.777  0.0113 -1.0537 -0.5510
25066SOL    HW279241   1.257   1.372   4.723 -0.2650 -0.3530 -0.7212
25067SOL     OW79242   2.896   3.123   9.707  0.6570 -0.2422 -0.2578
25067SOL    HW179243   2.849   3.042   9.685 -0.4044  0.6968 -1.6025
25067SOL    HW279244   2.950   3.141   9.630 -0.1296  1.0090 -0.5584
25068SOL     OW79245   0.150   9.219   7.678  0.0919 -0.3690  0.2334
25068SOL    HW179246   0.169   9.202   7.771  0.6557 -0.3420  0.1260
25068SOL    HW279247   0.188   9.144   7.632  0.9734  0.2625 -0.0837
25069SOL     OW79248   9.458   9.072   2.638  0.0162 -0.5134 -0.5307
25069SOL    HW179249   9.381   9.057   2.583 -1.1409 -0.8026  1.0807
25069SOL    HW279250   9.514   8.996   2.621 -0.2783 -0.5666 -1.3354
25070SOL     OW79251   0.059   6.279   9.056 -0.1824 -0.2163 -0.2097
25070SOL    HW179252  -0.033   6.275   9.085 -0.0353  0.2891  0.3650
25070SOL    HW279253   0.053   6.302   8.963 -0.6629 -1.6850 -0.5587
25071SOL     OW79254   1.569   2.557   7.339 -0.0400 -0.1519 -0.0876
25071SOL    HW179255   1.524   2.521   7.263 -0.7396  0.6790 -0.0877
25071SOL    HW279256   1.550   2.496   7.410 -1.9379  0.6191  0.1251
25072SOL     OW79257   2.976   9.444   8.262 -0.2252  0.5186  0.3854
25072SOL    HW179258   3.063   9.410   8.283  0.0598 -0.1232 -1.5618
25072SOL    HW279259   2.990   9.538   8.247 -0.1587  0.6891  1.4779
25073SOL     OW79260   5.626   8.827   0.848 -0.2697  0.3602  0.0561
25073SOL    HW179261   5.565   8.808   0.776 -0.4557  2.0364 -0.2720
25073SOL    HW279262   5.577   8.805   0.927 -0.0751 -1.4812 -0.2837
25074SOL     OW79263   6.336   1.064   7.828 -0.1977  0.3547 -0.1255
25074SOL    HW179264   6.273   1.044   7.760  0.6418 -0.8658 -0.5762
25074SOL    HW279265   6.391   0.986   7.834  0.5992  0.9657  1.0005
25075SOL     OW79266   9.109   6.375   2.602  0.2853  0.1277  0.2265
25075SOL    HW179267   9.137   6.379   2.693  0.2652 -1.5467  0.3421
25075SOL    HW279268   9.037   6.312   2.602 -0.3891  0.8628 -0.8041
25076SOL     OW79269   3.213   9.848   2.435 -0.0655  0.4440  0.5835
25076SOL    HW179270   3.291   9.794   2.450  0.0619  0.3847 -0.2750
25076SOL    HW279271   3.191   9.835   2.343 -1.6090 -0.2119  1.0174
25077SOL     OW79272   5.241   8.188   2.671 -0.5404  0.1312  0.4410
25077SOL    HW179273   5.208   8.112   2.719 -0.4708 -0.0220  0.2498
25077SOL    HW279274   5.292   8.237   2.736  0.6250 -0.7489  0.2231
25078SOL     OW79275   1.577   7.201   3.735 -0.0212 -0.6468 -0.2940
25078SOL    HW179276   1.520   7.242   3.671 -0.3334  0.0924  0.4401
25078SOL    HW279277   1.523   7.192   3.814 -0.0059 -2.5955 -0.4453
25079SOL     OW79278   0.363   7.486   9.223 -0.0211 -0.3610  0.4913
25079SOL    HW179279   0.282   7.521   9.186  0.7334 -0.8103 -1.7489
25079SOL    HW279280   0.428   7.555   9.209  0.3070 -0.5678  0.9583
25080SOL     OW79281   8.168   0.458   6.907 -0.5044  0.0350 -0.5657
25080SOL    HW179282   8.078   0.436   6.930 -0.1336  0.0498  0.9907
25080SOL    HW279283   8.201   0.379   6.864 -1.1129 -0.1229 -0.7604
25081SOL     OW79284   5.113   9.835   9.846 -0.4598 -0.5032 -0.5298
25081SOL    HW179285   5.085   9.770   9.911 -1.0827  2.3687  2.3298
25081SOL    HW279286   5.181   9.885   9.890 -0.3393  1.0930 -2.4137
25082SOL     OW79287   8.282   7.217   6.314  0.1106  0.0242  0.4528
25082SOL    HW179288   8.318   7.136   6.350  2.0434  0.4549 -0.4069
25082SOL    HW279289   8.301   7.284   6.381  0.5699  0.1784  0.1713
25083SOL     OW79290   1.680   7.400   0.828 -0.1051  0.5046 -0.5940
25083SOL    HW179291   1.644   7.450   0.755  0.6593  1.7001 -0.1934
25083SOL    HW279292   1.746   7.343   0.789  1.4497  2.2850 -0.7041
25084SOL     OW79293   5.760   1.618   3.029  0.0937  0.4799  0.4490
25084SOL    HW179294   5.684   1.568   3.059  0.9495 -0.8482  0.4708
25084SOL    HW279295   5.778   1.679   3.101  0.6050 -0.9785  1.6006
25085SOL     OW79296   6.102   9.719   3.875 -0.2675  0.0596  0.0604
25085SOL    HW179297   6.190   9.715   3.911 -1.0224 -0.0300  2.0359
25085SOL    HW279298   6.049   9.666   3.935 -1.4495 -0.9992 -1.8226
25086SOL     OW79299   9.628   9.780  10.279 -0.0500  0.8859 -0.6363
25086SOL    HW179300   9.693   9.789  10.349  0.3149 -0.8238 -0.7113
25086SOL    HW279301   9.666   9.826  10.204  1.0921 -0.0865 -0.6745
25087SOL     OW79302   6.673  10.000   6.258  0.0357 -0.3552 -0.6649
25087SOL    HW179303   6.620   9.933   6.215 -0.9567  1.2597 -2.0715
25087SOL    HW279304   6.739  10.024   6.193  1.3941 -1.0500  0.4097
25088SOL     OW79305   2.839   1.154   2.510  0.1719 -0.7696  0.4415
25088SOL    HW179306   2.892   1.142   2.432 -1.7650 -0.1405 -1.0321
25088SOL    HW279307   2.890   1.214   2.565  0.9219 -0.0441 -1.0048
25089SOL     OW79308   2.243   0.216   2.182 -0.3329 -0.0952 -0.0541
25089SOL    HW179309   2.165   0.175   2.145  0.1772 -0.6907 -0.5042
25089SOL    HW279310   2.307   0.214   2.111 -0.2688  1.4781 -0.0950
25090SOL     OW79311   4.080  10.077   5.081  0.3555  0.1865 -0.0775
25090SOL    HW179312   4.054  10.165   5.110  2.4159  0.8624 -0.0718
25090SOL    HW279313   4.176  10.079   5.083  0.4606 -1.8442 -0.7932
25091SOL     OW79314   3.083   1.693   5.148 -0.3511 -0.6937  0.1309
25091SOL    HW179315   3.164   1.641   5.149  0.8073  1.0092  2.3171
25091SOL    HW279316   3.041   1.673   5.231 -2.2188 -1.4865 -0.9403
25092SOL     OW79317   9.896   2.018  10.092 -0.5511  0.3435 -0.6213
25092SOL    HW179318   9.972   2.049  10.141 -0.1929  2.9022 -2.5865
25092SOL    HW279319   9.924   1.936  10.053  0.3363  0.0328  0.6252
25093SOL     OW79320   4.334   9.610   0.859 -0.1055  0.5479 -0.0089
25093SOL    HW179321   4.355   9.544   0.793 -2.4126  0.9758 -1.2762
25093SOL    HW279322   4.296   9.561   0.932  0.1348  0.3045 -0.0467
25094SOL     OW79323   6.234   8.772   9.016  0.4119  0.3070 -0.3520
25094SOL    HW179324   6.143   8.784   9.043  0.7104 -0.8495  1.3451
25094SOL    HW279325   6.284   8.827   9.077  0.9108  0.0217 -0.4999
25095SOL     OW79326   6.622   1.502   9.838  0.2298 -0.0814 -0.0731
25095SOL    HW179327   6.658   1.441   9.774 -0.0114  0.5942 -0.8739
25095SOL    HW279328   6.691   1.567   9.852 -0.4553  0.9246 -1.2213
25096SOL     OW79329   7.297   2.739   0.447 -0.2813  0.4575  0.3947
25096SOL    HW179330   7.351   2.661   0.434 -1.7222 -0.2030 -2.7561
25096SOL    HW279331   7.218   2.708   0.490  0.0832  0.6293  1.1977
25097SOL     OW79332   3.767   5.336   3.648  0.0341 -0.3809  0.2040
25097SOL    HW179333   3.720   5.359   3.728 -0.1772  1.1392 -0.3149
25097SOL    HW279334   3.834   5.404   3.639 -0.6422  0.1365 -1.4519
25098SOL     OW79335   6.352   7.940   9.132 -0.0196  0.3001 -0.0754
25098SOL    HW179336   6.258   7.950   9.148 -0.0751  1.6469 -1.1325
25098SOL    HW279337   6.363   7.847   9.111 -1.4087  0.4532 -1.6679
25099SOL     OW79338   9.515   3.885   9.268 -0.3126 -0.2142  0.4189
25099SOL    HW179339   9.593   3.874   9.214 -0.7291 -1.0904 -0.0145
25099SOL    HW279340   9.472   3.963   9.232 -0.4538 -0.6425 -0.3578
25100SOL     OW79341   5.829   5.072   0.572 -0.9683 -0.3425  0.5947
25100SOL    HW179342   5.813   5.066   0.666 -0.8897 -1.4940  0.5509
25100SOL    HW279343   5.872   4.989   0.550  0.2805  0.4945 -0.2126
25101SOL     OW79344   4.926   6.655   4.838  0.3253 -0.3351  0.5173
25101SOL    HW179345   4.891   6.744   4.836  1.1802 -0.0078  0.0332
25101SOL    HW279346   5.012   6.663   4.877  1.4333 -0.5670 -1.7166
25102SOL     OW79347  10.187   6.590   0.385 -0.2750  0.4701  0.4100
25102SOL    HW179348  10.150   6.674   0.413 -0.6487  0.4134  0.1063
25102SOL    HW279349  10.147   6.525   0.444  0.3118  0.5444  0.8973
25103SOL     OW79350   9.040   2.932   6.762  0.0450  0.6748  0.1681
25103SOL    HW179351   9.014   2.841   6.776 -0.2180  0.5169 -1.1815
25103SOL    HW279352   8.964   2.983   6.791  0.1633  0.4692  0.8549
25104SOL     OW79353   5.709   1.070   9.347 -0.1982  0.1875  0.2434
25104SOL    HW179354   5.804   1.076   9.339  0.0568 -1.9620  1.0026
25104SOL    HW279355   5.675   1.099   9.262  1.1199  0.7856 -0.1021
25105SOL     OW79356   8.407   3.197   4.908 -0.5406 -0.6903  0.2535
25105SOL    HW179357   8.366   3.126   4.858 -1.2009 -0.2052  0.1009
25105SOL    HW279358   8.482   3.223   4.854 -1.1903 -0.2358 -0.4601
25106SOL     OW79359   8.838   4.877   5.991  0.1915  0.0736 -0.1025
25106SOL    HW179360   8.847   4.965   6.027 -0.9070  0.3436 -0.4329
25106SOL    HW279361   8.914   4.867   5.933  1.3470  0.0603  1.3662
25107SOL     OW79362   5.507   3.365   4.902 -0.0663 -0.3034  0.5916
25107SOL    HW179363   5.433   3.423   4.887  0.4000  0.6314  1.7400
25107SOL    HW279364   5.538   3.343   4.814 -1.0063  0.2026  0.1158
25108SOL     OW79365   8.488   5.673   4.341 -0.0002  0.0731 -0.2137
25108SOL    HW179366   8.510   5.604   4.405  1.8786 -0.8489 -1.7379
25108SOL    HW279367   8.530   5.644   4.260 -0.4496  2.2929 -1.3053
25109SOL     OW79368   7.212   8.076   0.282  0.5617  0.2537 -0.5231
25109SOL    HW179369   7.232   8.093   0.190  1.6512 -0.7596 -0.5035
25109SOL    HW279370   7.198   8.162   0.321 -0.9600  0.6455 -1.8484
25110SOL     OW79371   2.077   4.421   6.193  0.6594 -0.1196  0.6886
25110SOL    HW179372   2.073   4.384   6.280  2.3186 -0.9133  0.4673
25110SOL    HW279373   2.007   4.486   6.191  0.4122 -0.2905  2.4986
25111SOL     OW79374   1.429   6.390   6.188 -0.3718 -0.4604  0.6241
25111SOL    HW179375   1.479   6.470   6.206 -1.0620  0.4007 -1.0231
25111SOL    HW279376   1.366   6.384   6.260 -1.1951  1.2579  0.0933
25112SOL     OW79377   2.706   8.539   0.766 -0.0315  0.0991 -0.1438
25112SOL    HW179378   2.789   8.539   0.815  0.2011  0.0216 -0.5297
25112SOL    HW279379   2.695   8.629   0.737  0.5051 -0.1261 -1.0625
25113SOL     OW79380   6.119   0.761   7.871 -0.5041 -0.6169  0.2948
25113SOL    HW179381   6.195   0.733   7.921 -0.4614 -2.0271 -0.4735
25113SOL    HW279382   6.044   0.737   7.925 -0.4301  1.1230  1.2220
25114SOL     OW79383   2.575   1.643   1.863  0.2766  0.1450 -0.4026
25114SOL    HW179384   2.620   1.725   1.885 -0.5273  0.2118  1.1752
25114SOL    HW279385   2.637   1.574   1.889  0.7858  0.2407 -1.3416
25115SOL     OW79386   2.568   4.396   6.134  0.2423  0.4295 -0.0739
25115SOL    HW179387   2.509   4.347   6.077  0.1106  0.5679 -0.0566
25115SOL    HW279388   2.639   4.425   6.076 -0.1017  0.9275 -0.2607
25116SOL     OW79389   4.018   7.320  10.075  0.4308 -0.0659 -0.6220
25116SOL    HW179390   3.998   7.413  10.067 -0.3713  0.0214  1.5962
25116SOL    HW279391   3.974   7.279  10.000 -0.8488  1.1503 -0.5776
25117SOL     OW79392   9.976   9.967   1.469 -0.3232  1.1256  0.7083
25117SOL    HW179393   9.934  10.039   1.516 -0.4465  2.0470 -0.7634
25117SOL    HW279394  10.069   9.981   1.482 -0.2654 -1.5511  4.9290
25118SOL     OW79395   0.505   1.200   4.304 -0.3252 -0.3982 -0.2527
25118SOL    HW179396   0.561   1.244   4.367  0.4629 -1.8869  0.1164
25118SOL    HW279397   0.416   1.225   4.329  0.0076 -0.5287  1.0945
25119SOL     OW79398   5.599   5.243   2.315 -0.1260 -0.2896 -0.2356
25119SOL    HW179399   5.638   5.313   2.263  1.6955 -1.6081 -0.7447
25119SOL    HW279400   5.505   5.257   2.308  0.1680  2.3464  0.0616
25120SOL     OW79401   5.306  10.056   2.754 -0.2325  0.4127  0.0431
25120SOL    HW179402   5.356  10.011   2.822  1.3101 -0.6694 -1.7335
25120SOL    HW279403   5.218  10.063   2.790 -0.5196 -3.8253  0.5813
25121SOL     OW79404   2.790   2.696   2.517 -0.2856 -0.8402  0.5754
25121SOL    HW179405   2.709   2.708   2.467 -0.5802 -0.3605  1.1636
25121SOL    HW279406   2.769   2.628   2.581 -0.3329 -0.4751  0.9529
25122SOL     OW79407   2.962   1.059   9.498 -0.0214 -0.5546 -0.3688
25122SOL    HW179408   2.940   1.043   9.590  0.5982  0.8749  0.0487
25122SOL    HW279409   2.997   0.975   9.468 -2.8743 -1.9451 -0.1614
25123SOL     OW79410   3.122   1.631   6.063 -0.2525  0.0636  0.3018
25123SOL    HW179411   3.088   1.715   6.093 -0.0881 -0.3388  1.6870
25123SOL    HW279412   3.144   1.645   5.971  1.2403  1.9909  0.8893
25124SOL     OW79413   1.151   5.184   5.134  0.1219  0.0242  0.0784
25124SOL    HW179414   1.072   5.236   5.150  0.8818  0.6788  1.9801
25124SOL    HW279415   1.172   5.201   5.042 -1.3505  0.6645 -0.1700
25125SOL     OW79416   4.536   5.210   9.402 -0.4568 -0.1064  0.3304
25125SOL    HW179417   4.520   5.185   9.493  0.2143 -1.8690  0.0157
25125SOL    HW279418   4.614   5.266   9.406  0.8551 -1.8601  0.7058
25126SOL     OW79419   8.990   5.659   3.369  0.4619  0.5765 -0.4932
25126SOL    HW179420   9.052   5.661   3.297 -0.1172  0.4691 -1.0035
25126SOL    HW279421   8.931   5.586   3.348  1.3851 -0.6804  1.0204
25127SOL     OW79422   4.748   0.112   3.584  0.0826 -0.5285  0.4512
25127SOL    HW179423   4.726   0.186   3.528  0.6589 -0.0257  0.8782
25127SOL    HW279424   4.799   0.150   3.655  1.6895 -1.5400 -0.1164
25128SOL     OW79425   0.861   4.036   3.100 -0.8271  0.7788 -0.1499
25128SOL    HW179426   0.779   3.995   3.071 -0.4349  0.7262 -1.2274
25128SOL    HW279427   0.879   4.102   3.033 -0.6530  1.6824  0.7668
25129SOL     OW79428   7.177   0.908   9.222 -0.5061 -0.1801 -0.7284
25129SOL    HW179429   7.206   0.929   9.311 -1.0809  0.3451 -0.6640
25129SOL    HW279430   7.081   0.911   9.226 -0.5480 -0.5908 -1.2614
25130SOL     OW79431   8.738   0.009   1.342  0.3764 -0.1226 -0.1838
25130SOL    HW179432   8.763   0.027   1.252  0.4148 -2.9507 -0.8334
25130SOL    HW279433   8.711  -0.083   1.342 -2.5752  0.5627  2.0586
25131SOL     OW79434   6.843   1.051   8.102  0.0286 -0.6021  0.1320
25131SOL    HW179435   6.862   1.042   8.195  0.1613  1.0305  0.2971
25131SOL    HW279436   6.902   0.988   8.060  0.4935 -0.8479  1.1073
25132SOL     OW79437   3.771   0.828   9.245 -0.3844  0.0511 -0.4335
25132SOL    HW179438   3.731   0.887   9.180 -0.8861 -0.0276 -0.1982
25132SOL    HW279439   3.810   0.887   9.309 -1.9128  0.1583  0.4409
25133SOL     OW79440   8.976   9.860  10.224  0.5951 -0.0220 -0.1301
25133SOL    HW179441   9.023   9.781  10.197 -0.6095 -0.6009 -0.6125
25133SOL    HW279442   8.953   9.903  10.141  0.5775  0.4346  0.1128
25134SOL     OW79443   0.507   7.596   7.870 -0.2929 -0.0078 -0.0759
25134SOL    HW179444   0.540   7.537   7.803  0.1464  1.2803 -1.0441
25134SOL    HW279445   0.480   7.674   7.822 -1.5284  0.3151  1.0800
25135SOL     OW79446   2.488   9.698   3.102  0.1340 -0.3517 -0.2117
25135SOL    HW179447   2.440   9.658   3.029  0.9169  0.2125 -1.0666
25135SOL    HW279448   2.461   9.790   3.101  1.0971 -0.0610 -0.6111
25136SOL     OW79449   4.238   1.460   1.610  0.3034  0.4538 -0.1612
25136SOL    HW179450   4.271   1.431   1.525  0.1625  1.0116 -0.4112
25136SOL    HW279451   4.263   1.552   1.615 -1.6365  1.0387 -0.5744
25137SOL     OW79452   5.785   3.711   9.789  0.3941 -0.1830  0.2110
25137SOL    HW179453   5.697   3.719   9.828 -0.7982 -0.7436 -2.1586
25137SOL    HW279454   5.824   3.636   9.834 -0.3281  0.0592  1.3013
25138SOL     OW79455   5.649   5.555   0.971 -0.3302 -0.3469 -0.6350
25138SOL    HW179456   5.674   5.474   1.016 -0.5634 -0.2083 -0.2425
25138SOL    HW279457   5.625   5.528   0.883  0.8852 -0.5248 -0.9264
25139SOL     OW79458   0.162   6.748   5.544  0.2156  0.4886 -0.0952
25139SOL    HW179459   0.194   6.772   5.457  2.0940 -1.0256  0.1242
25139SOL    HW279460   0.236   6.762   5.602 -0.4613 -0.2372  0.9822
25140SOL     OW79461   2.621   8.895   1.819 -0.0892  0.0407 -0.9759
25140SOL    HW179462   2.607   8.983   1.854  1.0371 -0.0150 -0.3259
25140SOL    HW279463   2.660   8.910   1.733  3.1267  0.2671  0.3869
25141SOL     OW79464   9.620   3.529   7.495 -0.1333  0.5039 -0.2511
25141SOL    HW179465   9.636   3.606   7.440 -3.3002  2.1610  0.9139
25141SOL    HW279466   9.679   3.540   7.570 -0.7956  2.0237  0.0698
25142SOL     OW79467   2.450   2.726   5.580  0.2219 -0.1945  0.5557
25142SOL    HW179468   2.477   2.645   5.538  1.6874 -0.5851  2.1350
25142SOL    HW279469   2.531   2.770   5.604 -0.5434  0.9289  1.2236
25143SOL     OW79470   1.890   8.404   5.349  0.5996 -0.3467 -0.5509
25143SOL    HW179471   1.812   8.448   5.315  0.9074 -0.8902 -2.0109
25143SOL    HW279472   1.963   8.455   5.316  0.9028 -0.5677 -0.2291
25144SOL     OW79473  10.120   4.176   6.921 -0.4272  0.2126 -0.4174
25144SOL    HW179474  10.171   4.222   6.853 -0.6109 -1.6364 -1.9029
25144SOL    HW279475  10.076   4.246   6.969  1.5422  1.7448 -0.6791
25145SOL     OW79476   1.876   7.870   9.961 -0.3506 -0.2838  0.4652
25145SOL    HW179477   1.890   7.783   9.924  0.8607  0.6202 -1.3403
25145SOL    HW279478   1.893   7.859  10.055 -1.5435 -2.2310  0.5136
25146SOL     OW79479   6.354   9.653   5.340 -0.5655  0.5015 -0.4630
25146SOL    HW179480   6.392   9.676   5.255  1.3735  0.9396  0.4654
25146SOL    HW279481   6.401   9.574   5.367 -1.4857  0.1022  0.0198
25147SOL     OW79482   2.595   8.460   2.815  0.1351  0.1887  0.1932
25147SOL    HW179483   2.583   8.554   2.804 -0.2433  0.2414  0.9999
25147SOL    HW279484   2.509   8.427   2.838  0.3967 -0.2603  0.5372
25148SOL     OW79485   5.174   5.116   2.387  0.3137  0.2455 -0.3686
25148SOL    HW179486   5.096   5.154   2.429  0.4686  1.1090 -0.8365
25148SOL    HW279487   5.248   5.162   2.429  0.4861  0.7681 -1.2256
25149SOL     OW79488   4.301   2.152   3.697 -0.4497  0.5202  0.2963
25149SOL    HW179489   4.347   2.112   3.771 -1.1061 -2.7547 -0.8870
25149SOL    HW279490   4.214   2.175   3.732  0.7253  3.4478  1.6212
25150SOL     OW79491   4.456   7.912   0.361  0.1525  0.1560 -0.1460
25150SOL    HW179492   4.368   7.912   0.323 -0.5735 -2.8136  1.2022
25150SOL    HW279493   4.513   7.937   0.288 -1.7418  2.1418 -1.0587
25151SOL     OW79494   3.726   7.207   2.047  0.5908 -0.8403  0.2327
25151SOL    HW179495   3.794   7.274   2.039 -0.3014  0.0367 -0.2065
25151SOL    HW279496   3.773   7.124   2.039  1.5667 -0.2489 -0.3899
25152SOL     OW79497   5.198   1.715   1.530 -0.4806  0.7590  0.2557
25152SOL    HW179498   5.175   1.626   1.556  2.3778  0.0063  0.5228
25152SOL    HW279499   5.191   1.714   1.434  1.1145 -0.3250  0.1063
25153SOL     OW79500   8.466   6.451   4.709 -0.2700  0.3193 -0.2007
25153SOL    HW179501   8.483   6.517   4.776 -2.6319  0.0320  0.7678
25153SOL    HW279502   8.547   6.448   4.658  0.8224  2.1067  1.2847
25154SOL     OW79503   2.909   3.432   1.250  0.5791 -0.0236  0.3978
25154SOL    HW179504   2.920   3.345   1.211 -0.3080  0.6740 -1.5556
25154SOL    HW279505   2.910   3.417   1.344  0.0269 -2.2114  0.1067
25155SOL     OW79506   9.013   5.512   1.486  0.1001  0.1166 -0.2939
25155SOL    HW179507   9.064   5.566   1.547  0.2547  0.5220 -0.7788
25155SOL    HW279508   9.039   5.422   1.507  0.0435  0.2455  0.3361
25156SOL     OW79509   5.851   3.060   1.481  0.3538  0.0411  0.3952
25156SOL    HW179510   5.776   3.081   1.536  0.7439 -2.3767  2.0169
25156SOL    HW279511   5.903   3.141   1.479 -1.9043  1.5612 -0.2520
25157SOL     OW79512   1.072   5.693   4.676 -0.1895  0.0168  0.1691
25157SOL    HW179513   1.028   5.775   4.652  0.0252  0.0661 -0.0557
25157SOL    HW279514   1.161   5.720   4.699 -0.5814  0.0800  1.7333
25158SOL     OW79515   5.409   5.337   6.067 -0.6799  0.4064  0.6372
25158SOL    HW179516   5.365   5.266   6.114  0.7771 -0.2687  1.0685
25158SOL    HW279517   5.473   5.292   6.012 -0.1783  1.3542  0.4197
25159SOL     OW79518   5.404   2.212   0.128  0.1478 -0.3429 -0.4391
25159SOL    HW179519   5.478   2.239   0.073 -1.0251  0.2234 -1.7999
25159SOL    HW279520   5.410   2.269   0.205  0.3082  0.7192 -1.2037
25160SOL     OW79521   0.122   8.018   2.867 -0.0983  0.4043 -0.6240
25160SOL    HW179522   0.174   7.941   2.843 -1.5189 -1.2022  1.1766
25160SOL    HW279523   0.173   8.060   2.937  0.2558  0.6458 -1.0166
25161SOL     OW79524   4.464   9.480   9.177  0.4013  0.3646  0.4878
25161SOL    HW179525   4.476   9.388   9.201 -0.4231  0.6434  2.1888
25161SOL    HW279526   4.486   9.485   9.084 -0.6581 -1.7798  0.0665
25162SOL     OW79527   9.463   3.989   5.810 -0.1700  0.5373  0.1866
25162SOL    HW179528   9.556   3.975   5.827 -0.4820 -0.3452  1.2769
25162SOL    HW279529   9.438   3.917   5.751 -0.0149  1.2099 -0.7299
25163SOL     OW79530   3.804   6.570   8.467  0.6335  0.0983  0.6174
25163SOL    HW179531   3.793   6.586   8.560 -1.3974 -1.5250  0.7224
25163SOL    HW279532   3.853   6.646   8.435 -0.8143  1.9428  2.5330
25164SOL     OW79533   7.756   8.838   0.396 -0.2321 -0.1792 -0.0400
25164SOL    HW179534   7.779   8.904   0.461 -0.9063  1.4163 -1.3511
25164SOL    HW279535   7.816   8.766   0.413  0.5488  0.7662  1.4278
25165SOL     OW79536   7.028   9.033   3.287  0.2611  0.6116 -0.1210
25165SOL    HW179537   6.992   9.089   3.356  0.8375  1.3520 -0.3989
25165SOL    HW279538   7.121   9.055   3.286  0.5146 -0.4086 -0.2041
25166SOL     OW79539   0.069   5.954   3.885 -0.2696 -0.3657 -0.5630
25166SOL    HW179540   0.061   5.944   3.790  0.1926 -0.3969 -0.6001
25166SOL    HW279541   0.037   6.042   3.903 -1.2842 -0.7023 -0.6268
25167SOL     OW79542   2.334   9.801   1.440 -0.1932  0.3121 -0.3481
25167SOL    HW179543   2.372   9.761   1.518 -0.9539 -1.7379 -0.9497
25167SOL    HW279544   2.383   9.882   1.427  0.1440  0.5581  2.0624
25168SOL     OW79545   3.576   6.183   5.011  0.4048 -0.1562  0.0991
25168SOL    HW179546   3.579   6.100   5.059  2.5680 -0.0334  0.2682
25168SOL    HW279547   3.613   6.163   4.925 -0.6392  0.2938 -0.4773
25169SOL     OW79548   5.215   0.144   1.940  0.0134 -0.2668  0.8207
25169SOL    HW179549   5.296   0.168   1.986 -0.3694  0.3569  1.1704
25169SOL    HW279550   5.145   0.173   1.998 -0.5066  1.4862 -0.6007
25170SOL     OW79551   4.713   9.956   1.341  0.0415  0.1266  0.1112
25170SOL    HW179552   4.731   9.875   1.389  1.5157  0.0684 -0.4743
25170SOL    HW279553   4.621   9.975   1.360  0.1082 -0.7969  1.5711
25171SOL     OW79554   4.654   6.444   0.058  0.1696  0.3594  0.5945
25171SOL    HW179555   4.731   6.403   0.018 -0.1365 -0.2059  0.5830
25171SOL    HW279556   4.609   6.485  -0.016  1.1776  1.8981  0.7824
25172SOL     OW79557   6.138   3.386   8.675  0.6231 -0.0835  0.4841
25172SOL    HW179558   6.210   3.339   8.635  0.3358  0.6105 -0.9312
25172SOL    HW279559   6.059   3.340   8.644  0.4241 -1.1173  2.3764
25173SOL     OW79560   9.538   6.307   7.786  0.1774 -0.3047  0.1870
25173SOL    HW179561   9.601   6.339   7.721  1.2296  0.5735  1.5945
25173SOL    HW279562   9.589   6.251   7.844 -0.6094 -0.5609  0.6387
25174SOL     OW79563   9.392   0.929   7.694 -0.3454  0.6997  0.1866
25174SOL    HW179564   9.433   0.882   7.621  0.7257 -0.2190  1.3373
25174SOL    HW279565   9.298   0.916   7.680 -0.1210 -0.4530 -0.3947
25175SOL     OW79566   6.101   2.551   3.410 -0.1117 -0.3262 -0.0049
25175SOL    HW179567   6.158   2.487   3.453  1.9450  1.4555  0.1180
25175SOL    HW279568   6.144   2.568   3.326 -1.0368  0.3152 -0.3629
25176SOL     OW79569   7.868   7.786   5.158  0.3724 -0.4491  0.0215
25176SOL    HW179570   7.917   7.715   5.198 -0.8576 -1.3246  0.0173
25176SOL    HW279571   7.867   7.765   5.065 -0.3940 -0.6988  0.0769
25177SOL     OW79572   0.965   4.355   2.527 -0.6249 -0.0360 -0.5409
25177SOL    HW179573   0.876   4.390   2.535 -0.6916 -0.3628  0.2060
25177SOL    HW279574   1.002   4.401   2.451 -0.8419  1.3676  0.1778
25178SOL     OW79575   7.250   5.127   9.242 -0.0047  0.2335  0.2586
25178SOL    HW179576   7.311   5.099   9.174 -0.6876  0.5062 -0.4880
25178SOL    HW279577   7.250   5.055   9.306 -0.8855 -1.0041 -1.0672
25179SOL     OW79578   1.455   2.457   0.482  0.3273  0.4094  0.2282
25179SOL    HW179579   1.537   2.425   0.519  0.5527  1.4689  0.6820
25179SOL    HW279580   1.409   2.495   0.557  0.1250  1.2472 -0.3147
25180SOL     OW79581   3.951   8.009   7.883  0.1288  0.3642  0.5735
25180SOL    HW179582   4.003   8.011   7.963  0.3338 -2.0933  0.5476
25180SOL    HW279583   4.002   7.956   7.822 -1.1481  0.1649 -0.3560
25181SOL     OW79584   2.860   5.254   4.340  0.5818  0.2692 -0.3623
25181SOL    HW179585   2.908   5.220   4.266  0.0757  0.5591 -0.8323
25181SOL    HW279586   2.904   5.337   4.361  0.5474  0.3290 -0.5240
25182SOL     OW79587   2.061   2.464   8.072  0.4320 -0.1347 -0.0054
25182SOL    HW179588   2.155   2.447   8.071  0.2748 -1.3113 -2.2204
25182SOL    HW279589   2.053   2.558   8.056  1.2393 -0.1157 -0.3259
25183SOL     OW79590   8.029   0.020   2.360  0.5754  0.4497  0.1574
25183SOL    HW179591   8.063  -0.044   2.422  0.7119  1.5115  1.2133
25183SOL    HW279592   8.101   0.034   2.298  1.6592  1.7187  1.6242
25184SOL     OW79593   8.551   0.124   2.071  0.4016  0.5373  0.2408
25184SOL    HW179594   8.596   0.204   2.097 -0.7113  0.9932  0.8457
25184SOL    HW279595   8.604   0.053   2.109  1.6579  0.9335 -0.7108
25185SOL     OW79596   9.852   8.081   4.926  0.3855 -0.4898 -0.7120
25185SOL    HW179597   9.940   8.072   4.890  1.6016  2.6820  1.0703
25185SOL    HW279598   9.810   8.147   4.871 -0.1857 -0.6162 -0.4358
25186SOL     OW79599   1.281   9.675   1.200  0.1801 -0.3763  0.2996
25186SOL    HW179600   1.270   9.746   1.136  1.3020  1.0765  1.6551
25186SOL    HW279601   1.193   9.654   1.228 -0.2977 -0.6977 -1.3294
25187SOL     OW79602   1.700   3.171   3.904 -0.4224  0.2624 -0.1698
25187SOL    HW179603   1.617   3.215   3.887 -1.4113 -0.6057  2.0531
25187SOL    HW279604   1.681   3.077   3.893  0.7886  0.1214 -1.4820
25188SOL     OW79605   5.986   4.876   6.077 -0.2501 -0.2007 -0.3665
25188SOL    HW179606   5.957   4.799   6.126  0.1355 -0.6554 -0.8504
25188SOL    HW279607   5.908   4.932   6.074 -0.2427 -0.0938  0.8854
25189SOL     OW79608   9.818   1.793   9.146 -0.5188  0.4698  0.1520
25189SOL    HW179609   9.860   1.841   9.218  0.2666  0.2178 -0.1281
25189SOL    HW279610   9.854   1.833   9.067  0.5268 -0.8805 -0.0848
25190SOL     OW79611   4.494   0.363  10.188  0.2978  0.6517 -0.4313
25190SOL    HW179612   4.579   0.320  10.190 -1.2029 -2.5895 -0.7983
25190SOL    HW279613   4.446   0.319  10.118 -1.7270  2.3864 -0.2609
25191SOL     OW79614   3.502   6.795   4.928 -0.5231 -0.4546 -0.3367
25191SOL    HW179615   3.497   6.702   4.904 -0.5511 -0.7709  0.8214
25191SOL    HW279616   3.440   6.805   5.000  0.6554  0.0792  0.6543
25192SOL     OW79617   4.159   5.260   3.590 -0.3913  0.2400  0.4632
25192SOL    HW179618   4.235   5.273   3.534 -0.9847  0.0969 -0.4035
25192SOL    HW279619   4.112   5.343   3.588 -1.1711 -0.1989 -0.4431
25193SOL     OW79620   6.428   2.304   3.906 -0.2054  0.5648 -0.4077
25193SOL    HW179621   6.493   2.299   3.975  0.8574 -3.7587 -1.4299
25193SOL    HW279622   6.365   2.369   3.937  2.2293  1.7008  2.6751
25194SOL     OW79623   6.813   8.443   4.730  0.3461  0.3642  0.0234
25194SOL    HW179624   6.800   8.401   4.645 -0.8762  0.0619  0.3282
25194SOL    HW279625   6.890   8.399   4.766  2.6152  2.3944 -2.0143
25195SOL     OW79626   6.786   5.354   9.579 -0.3278 -0.0100 -0.4859
25195SOL    HW179627   6.765   5.272   9.536 -1.1101  0.6567 -1.4271
25195SOL    HW279628   6.881   5.352   9.589 -0.1255 -0.2570 -2.1585
25196SOL     OW79629   6.216   3.781   5.037  0.1553 -0.0061  0.4928
25196SOL    HW179630   6.121   3.787   5.045  0.2476  2.1437  0.6130
25196SOL    HW279631   6.247   3.871   5.052  2.2819 -0.8166  1.3870
25197SOL     OW79632   0.675   6.394   0.834  0.3204 -0.3627 -0.0462
25197SOL    HW179633   0.695   6.486   0.814  2.8183 -1.2606 -2.3501
25197SOL    HW279634   0.666   6.353   0.748 -1.4145 -2.1915  0.9464
25198SOL     OW79635   7.244   9.844   0.747  0.2997 -0.4222  0.4526
25198SOL    HW179636   7.156   9.810   0.733  0.1543 -0.1296  0.6478
25198SOL    HW279637   7.300   9.766   0.752 -0.0984 -0.6656  1.3914
25199SOL     OW79638   9.373   6.383   3.270 -0.1413 -0.0354  0.5653
25199SOL    HW179639   9.332   6.316   3.215  1.6508  0.5485 -1.6593
25199SOL    HW279640   9.420   6.334   3.337 -1.3446 -0.8310  0.8653
25200SOL     OW79641   7.460   1.907   8.421 -0.2480 -0.7058 -0.4904
25200SOL    HW179642   7.538   1.954   8.452 -0.3319 -0.9608  0.1237
25200SOL    HW279643   7.493   1.823   8.391 -0.2445 -0.6897 -0.5318
25201SOL     OW79644   5.564   4.120   6.026  0.0815  0.7467 -0.0480
25201SOL    HW179645   5.496   4.073   6.074  0.6239  0.9541  0.9565
25201SOL    HW279646   5.644   4.071   6.044  0.1114  0.0369 -1.8668
25202SOL     OW79647   4.686   4.725   2.702 -0.6284  0.4085  0.0164
25202SOL    HW179648   4.675   4.769   2.787 -0.3469  2.2013 -0.8265
25202SOL    HW279649   4.720   4.793   2.645  1.4832 -1.3653 -0.9662
25203SOL     OW79650   0.411   3.657   2.588 -0.0973  0.3128  0.7487
25203SOL    HW179651   0.425   3.564   2.607  1.6227  0.7290  1.6537
25203SOL    HW279652   0.329   3.658   2.537 -0.1699 -1.6793  0.7284
25204SOL     OW79653   6.530   1.592   8.183  0.3227 -0.3285  0.5553
25204SOL    HW179654   6.487   1.517   8.222 -1.0403  0.1181 -0.0442
25204SOL    HW279655   6.607   1.556   8.140 -0.3483 -1.3823  0.2183
25205SOL     OW79656   2.415   3.889   1.092  0.2311 -0.1005  0.3169
25205SOL    HW179657   2.466   3.811   1.072  0.2783 -0.1998  0.8022
25205SOL    HW279658   2.325   3.857   1.102  0.1553 -0.0039 -0.0319
25206SOL     OW79659   6.691   5.971   5.885  0.2099  0.3932 -0.1026
25206SOL    HW179660   6.749   6.044   5.904 -0.1564  0.1691  2.1835
25206SOL    HW279661   6.733   5.925   5.812  0.8629  2.3854 -1.0335
25207SOL     OW79662   1.000   5.487   4.874 -0.3040  0.2044 -0.0395
25207SOL    HW179663   0.973   5.534   4.954  1.7439 -0.5737  1.2009
25207SOL    HW279664   1.011   5.556   4.809 -2.0843  0.8587  0.3043
25208SOL     OW79665  10.027   3.570   7.265 -0.3654  0.0534  0.2425
25208SOL    HW179666   9.964   3.616   7.211  0.6446  0.0350 -0.9844
25208SOL    HW279667  10.074   3.513   7.205  1.0149  0.2756  1.0610
25209SOL     OW79668   9.553   3.812   8.384 -0.4383  0.1261  0.0323
25209SOL    HW179669   9.646   3.832   8.395 -0.7643  1.8815 -0.0863
25209SOL    HW279670   9.550   3.717   8.379  0.8928 -0.3440  4.2688
25210SOL     OW79671   6.515   7.118   2.502 -0.1017 -0.2459  0.2012
25210SOL    HW179672   6.451   7.106   2.572 -3.2061 -0.4927 -2.4349
25210SOL    HW279673   6.513   7.212   2.483 -0.6088 -0.4175 -0.6518
25211SOL     OW79674   4.623   8.803   1.559  0.0709  0.3599  0.2993
25211SOL    HW179675   4.717   8.805   1.578  0.4995 -0.2666 -1.5767
25211SOL    HW279676   4.603   8.711   1.546 -0.4963  0.6071 -0.6885
25212SOL     OW79677   3.236   2.397   3.609 -0.3358  0.0819  0.0531
25212SOL    HW179678   3.297   2.368   3.677 -0.5605  0.8352  0.5886
25212SOL    HW279679   3.229   2.323   3.549  0.3096 -0.3809  0.5444
25213SOL     OW79680   0.440   4.169  10.097  0.1736 -0.4064 -0.5699
25213SOL    HW179681   0.469   4.081  10.076 -0.9444 -0.7576 -0.7218
25213SOL    HW279682   0.415   4.207  10.013  2.0375  0.6109 -0.7171
25214SOL     OW79683   7.583   1.897   4.892  0.5937 -0.5220  0.3235
25214SOL    HW179684   7.525   1.933   4.959  1.2722 -0.2805  0.7879
25214SOL    HW279685   7.573   1.956   4.817 -0.8101 -1.2732 -0.1137
25215SOL     OW79686   0.213   0.044   3.985 -0.3032  0.3216 -0.2755
25215SOL    HW179687   0.261  -0.019   3.931 -1.9422 -1.5447  0.3376
25215SOL    HW279688   0.273   0.064   4.057  0.6280  0.3099 -1.0111
25216SOL     OW79689   4.643   6.514   8.193  0.8402 -0.2532 -0.0113
25216SOL    HW179690   4.703   6.457   8.145  2.5755  0.4870  1.1681
25216SOL    HW279691   4.699   6.560   8.256 -0.6178  2.1282 -0.3356
25217SOL     OW79692   4.769   8.088   8.506  0.1953 -0.1706 -0.0867
25217SOL    HW179693   4.716   8.093   8.585 -0.9894 -0.4715 -0.8291
25217SOL    HW279694   4.860   8.096   8.536 -0.2974  1.3063  1.1481
25218SOL     OW79695   6.660   9.538   2.811 -0.3677 -0.3666 -0.3399
25218SOL    HW179696   6.608   9.534   2.890 -0.4066 -1.4956 -0.4086
25218SOL    HW279697   6.625   9.469   2.755  0.7499 -0.7071 -0.6533
25219SOL     OW79698   3.804   2.929   2.072  0.1679  0.1393  0.4136
25219SOL    HW179699   3.820   2.868   2.000 -1.2439 -1.7033  1.5834
25219SOL    HW279700   3.847   2.889   2.147 -0.4833  0.7616  1.1366
25220SOL     OW79701   2.859   1.060   5.828 -0.4002 -0.7977 -0.3376
25220SOL    HW179702   2.915   1.130   5.794 -0.9190  0.0434  0.4814
25220SOL    HW279703   2.920   0.990   5.851  0.1991 -0.3477 -0.5132
25221SOL     OW79704   2.564   3.068   3.631  0.3645 -0.1152 -0.3830
25221SOL    HW179705   2.657   3.045   3.641  0.0118 -1.7127 -0.5342
25221SOL    HW279706   2.553   3.083   3.537  0.6648  1.0755 -0.2453
25222SOL     OW79707   5.715   2.716   3.955  0.4313  0.1969 -0.3876
25222SOL    HW179708   5.639   2.770   3.974  1.0208  0.6001  0.8967
25222SOL    HW279709   5.695   2.631   3.994  0.1187 -0.1034 -1.1644
25223SOL     OW79710   2.498   6.272   3.983 -0.2580 -1.0456  0.6182
25223SOL    HW179711   2.454   6.335   3.926 -0.4206  0.5219  2.3782
25223SOL    HW279712   2.591   6.285   3.966 -0.2551  0.2684  1.5253
25224SOL     OW79713   3.966  10.027   8.447  0.1211  0.1570 -1.1713
25224SOL    HW179714   3.983  10.051   8.356  0.8358  0.1576 -1.0447
25224SOL    HW279715   3.872  10.039   8.458  0.2660  1.6830 -1.4639
25225SOL     OW79716   1.560   2.678   9.222 -0.0713 -0.1935 -0.1306
25225SOL    HW179717   1.537   2.680   9.315 -0.0387  1.1074 -0.1322
25225SOL    HW279718   1.486   2.634   9.180  0.7889 -2.5907  0.7114
25226SOL     OW79719   0.071   7.890   9.020 -0.4160  0.1772  0.2597
25226SOL    HW179720   0.076   7.986   9.018 -0.7883  0.1876 -0.1797
25226SOL    HW279721   0.086   7.864   8.929  3.2102 -0.3614  0.8346
25227SOL     OW79722   7.507   6.708   7.207  0.1547  0.0995 -0.2600
25227SOL    HW179723   7.568   6.644   7.170 -1.2115 -0.4761 -1.5915
25227SOL    HW279724   7.484   6.765   7.134 -0.7295  0.4431  0.2660
25228SOL     OW79725   3.444   9.077   9.787 -0.1267  0.4263  0.8380
25228SOL    HW179726   3.420   9.163   9.820 -1.7298  1.2160 -2.0595
25228SOL    HW279727   3.532   9.089   9.750 -0.7103  1.1044 -0.3732
25229SOL     OW79728   6.843   6.341   2.087 -0.2830  0.5556  0.1994
25229SOL    HW179729   6.803   6.315   2.004 -3.0875  0.9738  1.3343
25229SOL    HW279730   6.936   6.352   2.066 -0.1876 -3.0292 -2.0107
25230SOL     OW79731   7.351   3.552   1.638 -0.1847 -0.6222 -0.3606
25230SOL    HW179732   7.388   3.544   1.726 -2.5942 -0.3567  0.7498
25230SOL    HW279733   7.370   3.467   1.597  0.0136 -1.1634  0.8085
25231SOL     OW79734   8.742   2.380   9.193  0.2045 -0.3412 -0.2372
25231SOL    HW179735   8.681   2.450   9.216 -0.5247 -0.0312 -2.8112
25231SOL    HW279736   8.796   2.416   9.123  2.6868 -0.9944  1.2312
25232SOL     OW79737   6.079   3.995   1.628  0.7004  0.5732  0.0595
25232SOL    HW179738   6.122   3.959   1.706  1.4439  0.9182 -0.1774
25232SOL    HW279739   6.152   4.012   1.568  0.0833 -0.3487 -0.9853
25233SOL     OW79740   2.410   4.106   1.244 -0.4417 -0.5133  0.5477
25233SOL    HW179741   2.331   4.076   1.289 -0.1318  0.2103  1.6041
25233SOL    HW279742   2.444   4.027   1.201 -2.6290 -0.5125 -1.3842
25234SOL     OW79743   9.063   4.312   4.146 -0.8523  0.2764  0.1596
25234SOL    HW179744   9.025   4.390   4.187 -0.3303  1.0706 -0.8172
25234SOL    HW279745   9.106   4.345   4.067 -0.2494 -0.9491 -0.0488
25235SOL     OW79746   2.351   9.014   5.163  0.0424 -0.2488 -0.1317
25235SOL    HW179747   2.371   8.969   5.081  0.9530  2.2720 -1.4090
25235SOL    HW279748   2.292   9.085   5.138  0.1882  0.4664  1.4174
25236SOL     OW79749   2.872   8.913   6.900 -0.0135  0.3446 -0.0215
25236SOL    HW179750   2.831   8.987   6.855  0.2401  0.7891  0.4697
25236SOL    HW279751   2.801   8.852   6.916 -0.3945  0.8783  0.3610
25237SOL     OW79752   0.953   8.582   2.800 -0.4034  0.2775 -0.0316
25237SOL    HW179753   0.895   8.628   2.861  1.3599  1.1295  1.0932
25237SOL    HW279754   0.994   8.652   2.749  0.5072 -0.2157  0.0120
25238SOL     OW79755   0.737   6.258   4.513  0.0782 -0.0660 -0.1349
25238SOL    HW179756   0.679   6.296   4.579  0.1174  0.7399 -0.5474
25238SOL    HW279757   0.700   6.286   4.429 -1.2283 -2.8728 -0.6071
25239SOL     OW79758   0.500   9.318   2.596  0.1061  0.0840  0.1620
25239SOL    HW179759   0.580   9.288   2.553  0.4366  1.3620 -0.1667
25239SOL    HW279760   0.437   9.249   2.580  0.7307 -0.2759 -0.8594
25240SOL     OW79761   9.190   7.622   0.179 -0.2771  0.2536  0.2748
25240SOL    HW179762   9.131   7.553   0.148 -0.0049 -0.3421  1.0421
25240SOL    HW279763   9.264   7.620   0.118 -0.4473  0.1223  0.0721
25241SOL     OW79764   8.168   2.854   3.727 -0.8214  0.1073  0.1031
25241SOL    HW179765   8.099   2.873   3.664 -0.8864  0.5184  0.2953
25241SOL    HW279766   8.129   2.876   3.812 -0.0783  1.4351  0.1228
25242SOL     OW79767   4.501   6.040   3.219  0.2073 -0.2850  0.1734
25242SOL    HW179768   4.582   6.044   3.270  0.3554  1.0786 -0.1212
25242SOL    HW279769   4.437   6.000   3.278  0.7931 -0.2466  0.8502
25243SOL     OW79770   0.737   6.695   4.985 -0.3830 -0.0430  0.0063
25243SOL    HW179771   0.754   6.767   4.925 -0.4061  0.0885  0.1573
25243SOL    HW279772   0.657   6.654   4.951 -1.3770  1.0786  0.9106
25244SOL     OW79773   8.649   9.380   9.059  0.5751  0.1449  0.1527
25244SOL    HW179774   8.557   9.363   9.037  1.1282 -0.6922 -1.7220
25244SOL    HW279775   8.659   9.345   9.148 -1.2148  1.4752  0.9277
25245SOL     OW79776   0.545   3.027   3.760  0.2103  0.1832  0.1897
25245SOL    HW179777   0.484   2.993   3.826  0.4105  1.1366  0.8925
25245SOL    HW279778   0.491   3.082   3.703 -0.0960 -1.1903 -0.8903
25246SOL     OW79779   4.142   8.957   5.172  0.0345 -0.9825 -0.6627
25246SOL    HW179780   4.227   9.001   5.175 -0.9612  1.0310 -0.2086
25246SOL    HW279781   4.145   8.893   5.242  1.2075 -0.9753 -0.7002
25247SOL     OW79782   3.207   2.600   8.142  0.1686  0.4526 -0.3340
25247SOL    HW179783   3.224   2.587   8.049  0.2818 -0.8942 -0.1489
25247SOL    HW279784   3.287   2.640   8.176  0.2541  0.6404 -0.7572
25248SOL     OW79785   3.210   4.447   4.078 -0.0283 -0.0566 -0.0308
25248SOL    HW179786   3.224   4.384   4.149  3.1227  2.1707  1.5522
25248SOL    HW279787   3.250   4.406   4.001  0.7614 -0.5588  0.6366
25249SOL     OW79788   0.999   6.771   6.916  0.0800 -0.1361  0.6652
25249SOL    HW179789   0.999   6.739   6.826 -1.2500  2.0676 -0.1822
25249SOL    HW279790   0.951   6.704   6.965  0.0321 -0.9233 -0.4244
25250SOL     OW79791   7.819   1.796   6.067  0.2284 -0.1237  0.5012
25250SOL    HW179792   7.810   1.891   6.059  2.1933  0.0259 -0.7733
25250SOL    HW279793   7.875   1.771   5.993 -0.3814 -2.3063  0.7105
25251SOL     OW79794   3.535   2.025   7.851 -0.2076 -0.3046  0.6014
25251SOL    HW179795   3.579   2.030   7.766 -2.2373 -0.0519 -0.5063
25251SOL    HW279796   3.578   1.953   7.897 -1.5207 -3.1489 -2.2148
25252SOL     OW79797   7.048   5.159   0.609 -0.8482 -0.6558 -0.1801
25252SOL    HW179798   7.040   5.140   0.702  0.3304 -2.4577 -0.3938
25252SOL    HW279799   7.122   5.106   0.580 -1.4738 -0.4943 -2.2525
25253SOL     OW79800  10.150   8.632   8.170  0.2602 -0.2024  0.3080
25253SOL    HW179801  10.156   8.546   8.211 -1.6142 -0.5352 -0.0484
25253SOL    HW279802  10.187   8.692   8.235 -0.5080 -0.9966  1.5105
25254SOL     OW79803   9.825   5.640   6.917 -0.0520 -0.0321  0.4523
25254SOL    HW179804   9.838   5.717   6.862 -0.4486  0.2109  0.6923
25254SOL    HW279805   9.877   5.658   6.996  1.9546 -1.1528 -0.5387
25255SOL     OW79806   9.916   1.326   0.934 -0.2365  0.1811 -0.2180
25255SOL    HW179807   9.989   1.380   0.963  0.8280 -0.2637 -1.9095
25255SOL    HW279808   9.863   1.312   1.013  1.6713  0.2408  1.1309
25256SOL     OW79809   6.973   9.048   8.263 -0.0502 -0.6423 -0.1079
25256SOL    HW179810   6.959   9.017   8.353  1.0029 -0.3666  0.1732
25256SOL    HW279811   7.040   8.989   8.228  2.0663  1.2479  0.4696
25257SOL     OW79812   2.981   3.900   2.986 -0.2082  0.1354  0.0291
25257SOL    HW179813   3.034   3.837   3.036 -0.9044 -1.9466 -1.6785
25257SOL    HW279814   2.937   3.846   2.920  0.6482  2.7051 -2.8484
25258SOL     OW79815   5.501   9.863   5.176  0.3610  0.3387 -0.1427
25258SOL    HW179816   5.534   9.948   5.146 -1.4900  0.5900 -1.6605
25258SOL    HW279817   5.550   9.845   5.256  2.0232  2.0128 -0.7115
25259SOL     OW79818   1.406   8.953   6.976  0.1699  0.2372 -0.3017
25259SOL    HW179819   1.339   9.013   6.945  0.3948  0.8157  0.3164
25259SOL    HW279820   1.432   8.987   7.062  1.2010 -0.0121 -0.4984
25260SOL     OW79821   1.729   9.066   4.340  0.3406 -0.1057 -0.2573
25260SOL    HW179822   1.651   9.010   4.347  0.2825 -0.1988 -1.5133
25260SOL    HW279823   1.750   9.066   4.247  1.6731  0.1703  0.0343
25261SOL     OW79824   0.046   2.869   0.545  0.3610  0.1502 -0.5668
25261SOL    HW179825   0.107   2.796   0.556  0.2752  0.2564  0.7467
25261SOL    HW279826   0.090   2.943   0.586  1.1759  1.2963 -3.3117
25262SOL     OW79827   1.484   0.397   3.258 -0.6221 -0.2990 -0.6161
25262SOL    HW179828   1.414   0.436   3.311 -0.1252 -0.7804  0.4433
25262SOL    HW279829   1.466   0.303   3.260 -0.3511 -0.3616 -0.9462
25263SOL     OW79830   3.167   3.136   1.707  0.1650  0.1771  0.4284
25263SOL    HW179831   3.109   3.192   1.758  0.5708  0.2007  0.8777
25263SOL    HW279832   3.162   3.050   1.750  0.5142  0.1983  0.5197
25264SOL     OW79833   9.285  10.175   9.381  0.7171  0.2291 -0.1437
25264SOL    HW179834   9.277  10.213   9.294 -1.0573  0.6549  0.1629
25264SOL    HW279835   9.255  10.245   9.440 -0.9863 -1.0004  0.5529
25265SOL     OW79836   3.361   3.981   0.219  0.5270 -0.0962 -0.2763
25265SOL    HW179837   3.316   4.059   0.188  0.4329 -0.4089 -0.9334
25265SOL    HW279838   3.454   3.998   0.205  0.4775 -0.2825 -0.8415
25266SOL     OW79839   4.952   0.671   1.985 -0.3329  0.1892  0.0961
25266SOL    HW179840   4.980   0.591   1.941 -0.6713  0.6801 -1.0320
25266SOL    HW279841   4.990   0.664   2.073  0.7790 -0.5684 -0.4180
25267SOL     OW79842   0.146   8.571  10.039  0.3403 -0.4771 -0.0761
25267SOL    HW179843   0.070   8.513  10.039 -0.2241  0.2616 -0.0261
25267SOL    HW279844   0.221   8.511  10.047 -0.2033 -1.2375 -0.5380
25268SOL     OW79845   8.437   4.890   3.602  0.0904 -0.6361 -0.0469
25268SOL    HW179846   8.345   4.868   3.612 -0.0513  0.0253  0.1399
25268SOL    HW279847   8.478   4.861   3.684 -0.2390  0.5032  0.5402
25269SOL     OW79848   1.467   0.429   6.957  0.3549 -0.7746  0.1109
25269SOL    HW179849   1.515   0.511   6.956  0.5006 -0.8529  0.4605
25269SOL    HW279850   1.407   0.438   7.031  1.3398 -1.5289  1.0332
25270SOL     OW79851   7.453   9.380   2.648  0.0703  0.5729  0.0434
25270SOL    HW179852   7.532   9.327   2.659  0.0856  0.5259 -0.2699
25270SOL    HW279853   7.483   9.470   2.662 -0.1452  0.4312  1.5136
25271SOL     OW79854   5.536   5.608   7.267  0.7790 -0.1403  0.2356
25271SOL    HW179855   5.559   5.630   7.177 -0.7676  2.6220  0.4018
25271SOL    HW279856   5.459   5.552   7.259  0.3267  0.5297 -0.1776
25272SOL     OW79857   9.552   8.785   5.724  0.1571  0.1426  0.4243
25272SOL    HW179858   9.530   8.733   5.801 -0.5661  0.9965  0.8191
25272SOL    HW279859   9.648   8.784   5.721  0.1894 -0.0623  1.2357
25273SOL     OW79860   4.528   7.333   9.978 -0.4059 -0.5722 -0.2297
25273SOL    HW179861   4.438   7.341  10.010  0.0492  1.2872  0.7042
25273SOL    HW279862   4.546   7.239   9.981 -1.0953 -0.7328  3.1822
25274SOL     OW79863  10.177   4.016   3.492 -0.3094  0.1615 -0.8502
25274SOL    HW179864  10.121   4.091   3.510 -0.6025  0.0063 -1.1003
25274SOL    HW279865  10.253   4.052   3.447  0.3395  0.5310  0.4888
25275SOL     OW79866   5.713   1.944   9.332 -0.7403  0.3962 -0.7044
25275SOL    HW179867   5.686   1.975   9.418 -1.1114  1.4471 -1.1796
25275SOL    HW279868   5.808   1.929   9.340 -0.6314  1.2411 -0.3296
25276SOL     OW79869   8.899   3.517   1.054 -0.5811  0.0044 -0.0572
25276SOL    HW179870   8.846   3.596   1.046 -0.2647  0.2282  0.0265
25276SOL    HW279871   8.965   3.526   0.985 -1.3085 -0.7975 -0.8923
25277SOL     OW79872   8.977   0.464   4.512 -0.3087 -0.0824 -0.2789
25277SOL    HW179873   8.974   0.404   4.437 -1.7379 -0.4017  0.0174
25277SOL    HW279874   8.918   0.536   4.488  1.1470  1.0934 -0.4996
25278SOL     OW79875   5.337   3.077   5.608 -0.4090  0.0505 -0.2619
25278SOL    HW179876   5.294   3.160   5.630 -0.3565  0.1776 -0.6239
25278SOL    HW279877   5.393   3.099   5.534 -0.2705 -0.2748 -0.2531
25279SOL     OW79878   7.928   0.489   0.380 -0.0850 -0.7751 -0.1848
25279SOL    HW179879   7.911   0.567   0.432  0.2696 -2.0514  1.9573
25279SOL    HW279880   8.019   0.498   0.351  0.0190 -0.4864  0.2256
25280SOL     OW79881   9.401   0.721   6.231  0.6064 -0.1295  0.5442
25280SOL    HW179882   9.482   0.672   6.242  1.3545  0.5983 -1.3968
25280SOL    HW279883   9.402   0.785   6.303  1.1356 -0.9243  1.2552
25281SOL     OW79884   8.050   6.114   2.124  0.3749 -0.2898  0.3703
25281SOL    HW179885   7.990   6.070   2.064 -1.5838  0.3583  1.7613
25281SOL    HW279886   8.006   6.111   2.209  1.1644  2.4192  0.9660
25282SOL     OW79887   1.178   2.768   7.495  0.0990  0.1017  0.2985
25282SOL    HW179888   1.142   2.840   7.546  0.0852  1.3578 -1.3719
25282SOL    HW279889   1.273   2.779   7.501  0.2150  2.8271 -3.0876
25283SOL     OW79890   0.293   7.814   9.172 -0.1012 -0.4501  0.9691
25283SOL    HW179891   0.212   7.843   9.130  0.4657 -0.2396 -0.0227
25283SOL    HW279892   0.266   7.779   9.256 -1.1651  0.0800  0.8595
25284SOL     OW79893   5.703   5.101   1.590  0.2059 -0.1424 -0.5868
25284SOL    HW179894   5.625   5.156   1.583 -0.0888 -0.2598  1.1960
25284SOL    HW279895   5.773   5.161   1.614  0.2886 -0.2807 -0.4766
25285SOL     OW79896   2.875   8.774   6.339 -0.3948 -0.8694  0.8262
25285SOL    HW179897   2.818   8.702   6.366 -0.9952 -1.1339 -1.0178
25285SOL    HW279898   2.953   8.731   6.304 -0.4029 -0.6024  0.4767
25286SOL     OW79899   0.175  10.258   0.761  0.2156  0.5518 -0.3455
25286SOL    HW179900   0.232  10.335   0.765 -0.3665  1.0096 -0.5231
25286SOL    HW279901   0.200  10.213   0.681  0.8718  0.2984 -0.0073
25287SOL     OW79902   3.315   6.955   0.889  0.7923  0.3755  0.4470
25287SOL    HW179903   3.407   6.981   0.887  0.5188  1.3123 -1.1352
25287SOL    HW279904   3.266   7.037   0.882 -0.1660 -0.1365  0.9166
25288SOL     OW79905   6.308   9.331   0.946 -0.2913 -0.4490 -0.3900
25288SOL    HW179906   6.262   9.328   1.030 -1.0521  0.2026 -0.7649
25288SOL    HW279907   6.247   9.292   0.883  0.1850 -0.7423 -0.6733
25289SOL     OW79908   7.603   6.764   8.762 -0.2595  0.3187  0.1684
25289SOL    HW179909   7.670   6.812   8.811  0.6583 -2.1240  1.4343
25289SOL    HW279910   7.537   6.741   8.827  0.2156 -1.6423 -0.0016
25290SOL     OW79911   7.542   8.650   0.748  0.1938 -0.0255 -0.0081
25290SOL    HW179912   7.499   8.675   0.666 -1.3598 -0.7511  0.5635
25290SOL    HW279913   7.608   8.718   0.761 -0.8028  1.1594 -0.8830
25291SOL     OW79914   5.279   0.769   8.012  0.7296  0.7866  0.9238
25291SOL    HW179915   5.279   0.836   8.081  0.8609  1.8217 -0.0502
25291SOL    HW279916   5.186   0.752   7.995  0.6130  2.6831 -0.6319
25292SOL     OW79917   7.354   3.438   4.053  0.2111  0.2820  0.2460
25292SOL    HW179918   7.385   3.507   3.995  0.4196 -0.9803 -1.2304
25292SOL    HW279919   7.304   3.380   3.996  1.9563 -2.0079  0.8896
25293SOL     OW79920   7.271   0.162   8.505  0.2112  0.4585 -0.0275
25293SOL    HW179921   7.225   0.214   8.438 -1.3789 -0.2447  0.4700
25293SOL    HW279922   7.241   0.199   8.588 -0.7568 -1.0443  0.3345
25294SOL     OW79923   6.469   4.084   5.384  0.5338  0.2364 -0.5765
25294SOL    HW179924   6.514   4.089   5.468 -1.9217  3.0472  0.7559
25294SOL    HW279925   6.430   4.170   5.372 -0.5218 -0.5385 -3.8894
25295SOL     OW79926   8.131   4.316   6.729  0.5264 -0.4466  0.5809
25295SOL    HW179927   8.216   4.344   6.760  0.2366  1.1604  0.0268
25295SOL    HW279928   8.072   4.328   6.803  0.3151  0.9674  0.2185
25296SOL     OW79929   7.801   4.869   7.871 -0.5519 -0.6416  0.9331
25296SOL    HW179930   7.862   4.795   7.872 -0.6814 -0.7482  2.3264
25296SOL    HW279931   7.773   4.878   7.962  0.7774  2.2113  1.1575
25297SOL     OW79932   1.515   8.353   7.833  0.1038 -0.2072  0.0688
25297SOL    HW179933   1.563   8.410   7.893 -0.6621  0.0219  0.4658
25297SOL    HW279934   1.424   8.362   7.858 -0.1029 -1.0691 -0.3235
25298SOL     OW79935   5.835   3.942   4.153 -0.5582 -0.3380 -0.1356
25298SOL    HW179936   5.785   3.912   4.077  0.8035 -1.2396 -0.7245
25298SOL    HW279937   5.769   3.959   4.220 -1.6166 -2.5567 -0.5060
25299SOL     OW79938   9.686   1.330   4.387  0.1711 -0.0576 -0.1304
25299SOL    HW179939   9.613   1.385   4.417 -0.1594 -0.3465 -0.4052
25299SOL    HW279940   9.658   1.298   4.301  0.9274  0.4071 -0.5644
25300SOL     OW79941   8.775   9.608   6.869 -0.3536 -0.1259 -0.1893
25300SOL    HW179942   8.691   9.654   6.869 -0.3369 -0.0845  0.2764
25300SOL    HW279943   8.826   9.652   6.937 -0.1576 -0.5086 -0.0837
25301SOL     OW79944   0.230   4.386   3.248  0.0838  0.3298  0.2857
25301SOL    HW179945   0.320   4.355   3.246 -0.0479 -0.0370 -0.3427
25301SOL    HW279946   0.233   4.471   3.205  0.3378  0.9266  1.4375
25302SOL     OW79947   5.085   1.908   9.620 -0.2891  0.1185 -0.1699
25302SOL    HW179948   4.994   1.879   9.613 -0.2691 -0.0954  0.4210
25302SOL    HW279949   5.122   1.854   9.690  0.1879  0.4672 -0.1522
25303SOL     OW79950   6.156   2.159   9.660  0.0305  0.0764 -0.6973
25303SOL    HW179951   6.225   2.193   9.718  0.2740 -1.4647 -0.0241
25303SOL    HW279952   6.079   2.212   9.680  0.3755  0.2118  0.3238
25304SOL     OW79953   1.792   9.985   2.903  0.3017  0.1095 -0.1569
25304SOL    HW179954   1.790  10.076   2.933  0.0547 -0.4040  1.4439
25304SOL    HW279955   1.705   9.970   2.868  0.7846  0.9029 -1.8259
25305SOL     OW79956   1.392   8.802   1.494  0.3260 -0.5482  0.2290
25305SOL    HW179957   1.421   8.780   1.583 -2.1455 -0.1772  1.1968
25305SOL    HW279958   1.335   8.729   1.469  2.0464 -1.3371 -1.6768
25306SOL     OW79959   3.488   3.516   7.546  0.1581 -0.5103  0.1063
25306SOL    HW179960   3.546   3.592   7.540  0.7193 -0.9087  0.4407
25306SOL    HW279961   3.460   3.514   7.637 -2.1928  0.9824 -0.4807
25307SOL     OW79962   5.947   3.009   8.738 -0.0079  0.3374  0.4994
25307SOL    HW179963   6.011   2.952   8.781 -0.8921 -0.7488  0.4162
25307SOL    HW279964   5.875   3.016   8.801  0.9218  3.1052  1.4251
25308SOL     OW79965   2.826   3.786   2.561  0.3022  0.2353 -0.1508
25308SOL    HW179966   2.812   3.865   2.509  0.2318  0.4282  0.1598
25308SOL    HW279967   2.919   3.787   2.581  0.4768 -0.2197 -0.8786
25309SOL     OW79968   0.334   4.584   6.240  0.0391  0.5351  0.4374
25309SOL    HW179969   0.239   4.586   6.252 -0.0042  2.0333  0.0292
25309SOL    HW279970   0.347   4.522   6.168 -0.6475  0.5485  0.2912
25310SOL     OW79971   0.812   7.225   3.801  0.3369 -0.2654  0.2440
25310SOL    HW179972   0.821   7.288   3.730  2.8587 -0.0158  0.6704
25310SOL    HW279973   0.848   7.143   3.766 -0.9526 -0.9157  0.3779
25311SOL     OW79974   8.834   0.518   8.257 -0.2854  0.0436  0.4650
25311SOL    HW179975   8.922   0.517   8.220  0.3340 -0.2148  1.8819
25311SOL    HW279976   8.836   0.452   8.326 -1.7420 -0.3072  0.2018
25312SOL     OW79977   6.509   4.714   9.750  0.2236  0.0992  0.0633
25312SOL    HW179978   6.451   4.713   9.826  0.1810  1.1984  0.0551
25312SOL    HW279979   6.573   4.783   9.769 -0.4982  1.2402 -1.4145
25313SOL     OW79980   3.696   4.376   3.973  0.2320  0.4219 -0.2338
25313SOL    HW179981   3.745   4.303   4.011  0.1835 -0.2082 -1.3517
25313SOL    HW279982   3.614   4.378   4.023  0.2224 -0.3074 -0.2098
25314SOL     OW79983   2.276   1.337   5.706  0.5534  0.3225  0.0509
25314SOL    HW179984   2.287   1.396   5.631  2.9464 -0.6834 -0.4621
25314SOL    HW279985   2.274   1.395   5.782  1.6799  1.1683 -0.5276
25315SOL     OW79986   1.873   9.003   2.382  0.0639  0.0223 -0.4517
25315SOL    HW179987   1.797   8.945   2.376  0.7393 -0.8941 -0.4257
25315SOL    HW279988   1.947   8.947   2.361  0.6520  1.1170 -1.4610
25316SOL     OW79989   9.717   9.534   8.310  0.6940  0.1427 -0.3354
25316SOL    HW179990   9.732   9.442   8.333 -0.8792  0.0454  0.4709
25316SOL    HW279991   9.759   9.544   8.225 -0.1807 -1.7079 -1.0660
25317SOL     OW79992   4.578   8.349   8.054 -0.0606 -0.2814  0.3553
25317SOL    HW179993   4.502   8.346   7.995 -0.5589 -0.0065  0.9812
25317SOL    HW279994   4.603   8.257   8.065 -1.7827 -0.5999  2.0400
25318SOL     OW79995   5.433   7.243   0.271  0.8001 -0.0732 -0.4495
25318SOL    HW179996   5.368   7.196   0.220  0.0498  2.2158 -1.7640
25318SOL    HW279997   5.390   7.325   0.297  2.7234  0.9890 -0.3400
25319SOL     OW79998   4.485   0.985   2.027  0.1596 -0.2130 -0.7983
25319SOL    HW179999   4.528   0.945   1.951  0.0355  1.6799 -1.9273
25319SOL    HW280000   4.550   1.047   2.061  0.8332 -2.1132  1.6857
25320SOL     OW80001   9.146  10.141   6.368  0.5145  0.1678 -0.1623
25320SOL    HW180002   9.076  10.166   6.308  1.2595  1.9958 -0.3310
25320SOL    HW280003   9.124  10.051   6.395 -0.6586 -0.1255 -1.9385
25321SOL     OW80004   7.849   2.526   3.208  0.0748  0.2050 -0.5247
25321SOL    HW180005   7.938   2.523   3.243  0.3281  1.0525 -1.0795
25321SOL    HW280006   7.806   2.449   3.246  0.4203  0.9096  1.4013
25322SOL     OW80007   8.140   7.843   5.596  0.1837  0.6289 -0.2180
25322SOL    HW180008   8.049   7.831   5.568  0.6421 -0.6646 -1.2821
25322SOL    HW280009   8.192   7.800   5.528  1.7522  3.3257 -0.8498
25323SOL     OW80010   2.598   4.950   6.825 -0.0361 -0.3592  0.0316
25323SOL    HW180011   2.670   5.000   6.864 -0.2907  0.3472 -0.3722
25323SOL    HW280012   2.629   4.927   6.737 -0.6090  0.7020 -0.4762
25324SOL     OW80013   7.690   0.595   7.526  0.5328 -0.2023 -0.3411
25324SOL    HW180014   7.687   0.602   7.431  0.8523  1.3413 -0.2614
25324SOL    HW280015   7.632   0.665   7.557  0.8671 -0.3249  0.6006
25325SOL     OW80016   3.221   4.379   6.607 -0.4333  0.4870  0.0487
25325SOL    HW180017   3.254   4.299   6.649  0.2966  1.4240  1.3295
25325SOL    HW280018   3.280   4.448   6.638 -0.7027  1.4482 -1.4910
25326SOL     OW80019   5.483   4.164   3.581  0.3297  0.1755  0.0255
25326SOL    HW180020   5.519   4.236   3.530  0.1266 -0.7474 -1.4829
25326SOL    HW280021   5.549   4.095   3.575  0.7542  0.3607  1.8729
25327SOL     OW80022  10.043   1.668  10.133 -0.1987  0.4367 -0.4198
25327SOL    HW180023  10.098   1.638  10.205  0.2580 -0.2652 -1.0432
25327SOL    HW280024   9.975   1.600  10.125  1.6084 -1.2818 -2.7127
25328SOL     OW80025   5.724   2.883   7.749  0.1703 -0.1752  0.1514
25328SOL    HW180026   5.665   2.815   7.716 -0.0177  0.3690 -0.6763
25328SOL    HW280027   5.741   2.858   7.840 -0.1860 -1.1215 -0.0264
25329SOL     OW80028   8.274   0.900   4.068  0.5360  0.3546  0.4836
25329SOL    HW180029   8.199   0.875   4.013  1.2734 -1.4673  0.2403
25329SOL    HW280030   8.349   0.900   4.008  0.9954  0.5743  1.0468
25330SOL     OW80031   9.048   7.915   7.454  0.2433  0.0949 -0.5619
25330SOL    HW180032   9.085   7.881   7.373  1.9880  0.9490 -0.1704
25330SOL    HW280033   9.124   7.942   7.506 -0.8843  0.6390  0.8854
25331SOL     OW80034   6.416   0.005   8.759 -0.6701  0.5044  0.3965
25331SOL    HW180035   6.324  -0.002   8.734 -0.3735  0.8598 -0.9112
25331SOL    HW280036   6.415   0.035   8.849 -1.8468  1.7958 -0.0139
25332SOL     OW80037   7.070   8.011   6.049  0.6888  0.4005 -0.2184
25332SOL    HW180038   7.134   8.022   6.120  0.1067  0.8415  0.2560
25332SOL    HW280039   7.053   7.917   6.046  0.3625  0.4260  0.5591
25333SOL     OW80040   7.535   9.604   9.288 -0.0720  0.5700 -0.5344
25333SOL    HW180041   7.474   9.660   9.337  1.4816  2.4031 -0.5576
25333SOL    HW280042   7.554   9.532   9.347  1.0530  2.2485  1.2784
25334SOL     OW80043   9.883  10.202   0.649 -0.5793 -0.0469  0.1580
25334SOL    HW180044   9.901  10.227   0.558  0.9833  0.7114  0.6436
25334SOL    HW280045   9.842  10.116   0.643 -0.5960  0.0436 -1.2639
25335SOL     OW80046   1.681   2.723   8.481 -0.1524 -0.0715 -0.2323
25335SOL    HW180047   1.680   2.794   8.544  0.0476 -0.4578  0.2150
25335SOL    HW280048   1.590   2.712   8.455  0.0054  1.5529 -1.7054
25336SOL     OW80049   4.907   1.605  10.080 -0.2453  0.1893  0.2893
25336SOL    HW180050   4.896   1.579   9.989 -0.8675 -0.4362  0.5285
25336SOL    HW280051   4.935   1.696  10.076  1.3682 -0.3070 -0.5680
25337SOL     OW80052   7.982   0.306   3.085  0.1441 -0.5051 -0.3102
25337SOL    HW180053   8.040   0.334   3.014 -0.4155  0.8012 -0.2715
25337SOL    HW280054   7.932   0.384   3.108  1.4567 -0.4358  2.6703
25338SOL     OW80055   6.506   3.397   7.888 -0.0034  0.3913  0.1673
25338SOL    HW180056   6.563   3.323   7.867  0.2241  1.0439 -1.7839
25338SOL    HW280057   6.419   3.358   7.899  0.1258 -0.2084 -0.7796
25339SOL     OW80058   3.552   7.679   8.283  0.4960 -0.2973  0.6378
25339SOL    HW180059   3.464   7.649   8.303  0.1428 -0.5101 -1.0385
25339SOL    HW280060   3.609   7.604   8.303  0.1166 -0.6524  0.4037
25340SOL     OW80061   9.986   2.482   8.055  0.0974 -0.0604  0.3077
25340SOL    HW180062   9.900   2.485   8.014  0.9566 -0.6480 -1.6205
25340SOL    HW280063  10.031   2.409   8.012  0.7535 -1.3647  2.9914
25341SOL     OW80064   5.934   0.595  10.140 -0.4632  0.1253 -0.2727
25341SOL    HW180065   5.924   0.574  10.233 -0.7172 -2.8275 -0.8894
25341SOL    HW280066   5.845   0.613  10.109 -0.7153 -1.2794 -0.4200
25342SOL     OW80067   1.771   0.932   0.408 -0.1316  0.3490  0.3044
25342SOL    HW180068   1.792   0.852   0.456 -0.6786 -1.1098 -1.7599
25342SOL    HW280069   1.840   0.994   0.432  0.9269 -1.1021  1.1144
25343SOL     OW80070   7.015   8.682   5.761  0.4105 -0.0937  0.1586
25343SOL    HW180071   7.028   8.777   5.757  0.7459 -0.1598 -0.4864
25343SOL    HW280072   7.032   8.660   5.852 -0.2136  0.5409  0.4342
25344SOL     OW80073   6.287   0.956   1.928  0.1404  0.2844 -0.2156
25344SOL    HW180074   6.367   0.911   1.954  1.6665  2.0596 -1.5908
25344SOL    HW280075   6.269   0.924   1.839 -0.1047  0.6279 -0.2923
25345SOL     OW80076   4.014   4.211   8.543 -0.0120  0.2487 -0.5330
25345SOL    HW180077   4.070   4.190   8.468  0.4292 -0.0132 -0.1397
25345SOL    HW280078   3.932   4.240   8.504 -0.6189 -2.0740 -1.1303
25346SOL     OW80079   0.812   5.019   4.873 -0.5367 -0.1066  0.1069
25346SOL    HW180080   0.788   5.030   4.965 -0.3989  0.2949  0.0954
25346SOL    HW280081   0.866   5.095   4.853 -0.9250  0.0349 -0.4255
25347SOL     OW80082   4.329   7.275   8.409 -0.4251 -0.1488  0.1244
25347SOL    HW180083   4.242   7.235   8.406  0.1310 -1.4881  0.8095
25347SOL    HW280084   4.370   7.249   8.327 -0.4768  0.0169  0.0457
25348SOL     OW80085   3.120   9.724   5.057  0.0122 -0.3715  0.0798
25348SOL    HW180086   3.056   9.687   5.117 -0.7791  0.0460 -0.4801
25348SOL    HW280087   3.204   9.713   5.101 -0.3978 -1.2692  0.6600
25349SOL     OW80088  10.040   1.263   4.951 -0.2876 -0.1427 -0.2050
25349SOL    HW180089  10.111   1.324   4.937  0.4030 -1.2560 -1.7837
25349SOL    HW280090  10.074   1.201   5.016  0.1772 -0.6559 -0.9343
25350SOL     OW80091   8.092   4.165   5.638 -0.6771 -0.2273 -0.2589
25350SOL    HW180092   8.029   4.094   5.632 -1.5205  0.4329  0.5458
25350SOL    HW280093   8.049   4.239   5.596  0.3229 -0.2443 -1.3887
25351SOL     OW80094   7.828   5.580   5.119 -0.2203 -0.3641 -0.1406
25351SOL    HW180095   7.767   5.558   5.049  1.3199 -0.3003 -1.5718
25351SOL    HW280096   7.884   5.503   5.128  1.3205  0.5862 -0.9415
25352SOL     OW80097   0.729   3.841   9.712  0.4770  0.2690  0.4967
25352SOL    HW180098   0.649   3.890   9.695  0.1437  0.1436  1.6312
25352SOL    HW280099   0.782   3.854   9.633  0.2248  2.1154  0.5926
25353SOL     OW80100   1.257   5.866   1.029  0.3063 -0.1899  0.0584
25353SOL    HW180101   1.178   5.901   0.987  1.5550  2.8879  0.0446
25353SOL    HW280102   1.223   5.800   1.091 -2.5271  2.2418  1.3684
25354SOL     OW80103   6.801   9.386   8.547 -0.1634 -0.7138 -0.1440
25354SOL    HW180104   6.877   9.428   8.586 -0.6161  0.8072 -0.8090
25354SOL    HW280105   6.728   9.409   8.605 -0.0656 -2.6449  0.8139
25355SOL     OW80106   0.627   5.397   9.571 -0.2208  0.2444  0.0793
25355SOL    HW180107   0.624   5.438   9.485  1.9128 -0.8006 -0.5716
25355SOL    HW280108   0.688   5.451   9.621 -1.9086  1.2028  1.1878
25356SOL     OW80109   3.741   4.906   8.837 -0.6418  1.2990  0.2431
25356SOL    HW180110   3.713   4.837   8.896 -0.0315  1.5578  0.8395
25356SOL    HW280111   3.761   4.980   8.894  0.0984  1.5058 -0.2741
25357SOL     OW80112   8.959   4.595  10.048 -0.2462 -0.3031  0.6333
25357SOL    HW180113   8.869   4.570  10.069 -1.1278  1.3729 -0.8719
25357SOL    HW280114   8.951   4.676   9.998  2.1076 -0.1683  0.3271
25358SOL     OW80115   3.972   3.014   2.691 -0.3728  0.0414  0.2899
25358SOL    HW180116   4.017   3.085   2.646  0.4210  1.0230  2.5090
25358SOL    HW280117   3.879   3.036   2.683 -0.3116 -0.1531 -1.3336
25359SOL     OW80118   6.545   4.082   3.287  0.2906  0.0467  0.0056
25359SOL    HW180119   6.539   4.032   3.206  0.5679 -0.0068  0.0179
25359SOL    HW280120   6.627   4.129   3.281 -0.8114  1.9513 -0.8237
25360SOL     OW80121   5.951   3.080   4.064  0.4103 -0.1495  0.2242
25360SOL    HW180122   5.966   3.154   4.004  1.8820 -0.2769  0.3908
25360SOL    HW280123   6.006   3.100   4.140  1.4121 -1.7457 -0.0390
25361SOL     OW80124   6.384   8.873   3.977  0.2588  0.4636 -0.2437
25361SOL    HW180125   6.382   8.843   3.887  0.3618  0.6796 -0.3197
25361SOL    HW280126   6.418   8.963   3.972  2.7493 -0.3724  0.2185
25362SOL     OW80127   9.310   0.385   6.799 -0.2343  0.0997 -0.3339
25362SOL    HW180128   9.246   0.370   6.869  0.3909  1.2669  0.5226
25362SOL    HW280129   9.357   0.302   6.791 -0.6023 -0.1815  0.3385
25363SOL     OW80130   0.254   5.043   4.740 -0.0498 -0.1233 -0.0062
25363SOL    HW180131   0.323   4.981   4.719 -0.5472 -0.5810 -0.3144
25363SOL    HW280132   0.204   5.001   4.810  1.0241  0.9716  1.4866
25364SOL     OW80133   2.545   2.120   8.601  0.5934 -0.4145 -0.3207
25364SOL    HW180134   2.608   2.187   8.626  0.2557  0.0734 -0.7802
25364SOL    HW280135   2.478   2.123   8.670  2.3350 -2.7138  1.6578
25365SOL     OW80136   7.659   8.106   4.718  0.4591  0.3794  0.1104
25365SOL    HW180137   7.615   8.098   4.634  1.7595 -0.8748 -0.4826
25365SOL    HW280138   7.593   8.080   4.782 -0.3206  0.6509 -0.5686
25366SOL     OW80139   3.484   8.539   9.844 -0.2148  0.3855  0.1629
25366SOL    HW180140   3.512   8.619   9.801  0.7109  0.5673  1.0695
25366SOL    HW280141   3.562   8.507   9.890 -1.1580  0.2180  1.7087
25367SOL     OW80142   2.613   5.501   6.879 -0.1551 -0.4014  0.0399
25367SOL    HW180143   2.697   5.476   6.840  0.7154  2.6226 -0.2616
25367SOL    HW280144   2.548   5.479   6.811  0.8022  0.3520 -1.1633
25368SOL     OW80145   4.817   5.550   0.437 -0.7402 -0.2520 -0.1661
25368SOL    HW180146   4.761   5.490   0.486  2.2992 -2.2884  1.0902
25368SOL    HW280147   4.857   5.606   0.503  1.7295 -1.5695 -0.4372
25369SOL     OW80148   9.726   0.516   4.319 -0.1194 -0.8961  0.0979
25369SOL    HW180149   9.763   0.476   4.240 -0.6904 -0.8181 -0.2196
25369SOL    HW280150   9.801   0.547   4.368  0.2190 -0.5392 -0.6384
25370SOL     OW80151   6.733   9.983   3.822 -0.0745  0.2696 -0.1981
25370SOL    HW180152   6.646   9.998   3.785  0.6249  0.1619 -1.9920
25370SOL    HW280153   6.763   9.902   3.780  1.7771  1.5066 -1.4120
25371SOL     OW80154   5.343   9.259   9.062 -0.1584 -0.1906 -0.0967
25371SOL    HW180155   5.379   9.277   9.149  0.6132  0.9913 -0.6312
25371SOL    HW280156   5.333   9.164   9.059 -0.5304 -0.2193  1.4094
25372SOL     OW80157   0.243   1.260   1.947  0.3775  0.1937 -0.2033
25372SOL    HW180158   0.279   1.341   1.911  0.0560  0.2121 -0.4849
25372SOL    HW280159   0.300   1.191   1.913 -0.0088  0.1978 -0.8662
25373SOL     OW80160   4.453   1.505   2.860 -0.0148 -0.3302  0.2979
25373SOL    HW180161   4.530   1.459   2.895  0.0504 -0.0991  0.4584
25373SOL    HW280162   4.449   1.477   2.769 -0.2928 -1.0849  0.5298
25374SOL     OW80163   6.014   0.800   3.344  0.1162  0.0969  0.0769
25374SOL    HW180164   6.017   0.727   3.406  0.5199  0.3236  0.3320
25374SOL    HW280165   6.005   0.877   3.399  2.2816  0.4707  0.0086
25375SOL     OW80166   9.794   8.120   6.331  0.3077 -0.3829  0.2315
25375SOL    HW180167   9.857   8.060   6.291  0.3290 -1.2426  1.4874
25375SOL    HW280168   9.847   8.195   6.358 -0.1096  1.7053 -3.8946
25376SOL     OW80169   2.659   6.902   0.429 -0.5424  0.1122 -0.0698
25376SOL    HW180170   2.722   6.857   0.485  1.2057  2.4070 -0.0043
25376SOL    HW280171   2.593   6.935   0.490  0.2551  0.8691  0.4148
25377SOL     OW80172   5.586   9.771   2.195  0.2559 -0.4723 -0.1440
25377SOL    HW180173   5.532   9.810   2.126  0.1101  0.2477  0.3632
25377SOL    HW280174   5.558   9.815   2.275 -0.1031 -1.8222  0.5040
25378SOL     OW80175   0.069   7.427   0.757  0.4510 -0.1544 -0.3426
25378SOL    HW180176   0.159   7.399   0.739 -0.6422 -2.6734 -2.6385
25378SOL    HW280177   0.033   7.448   0.671 -0.9706  1.6609  0.6124
25379SOL     OW80178   8.607   8.324   0.397  0.3143  0.0744 -0.2486
25379SOL    HW180179   8.551   8.334   0.474  0.6201 -2.6084  0.4045
25379SOL    HW280180   8.683   8.380   0.415 -0.9463  1.7478  0.0206
25380SOL     OW80181   7.481   0.857   0.715  0.0095 -0.1899  0.3992
25380SOL    HW180182   7.440   0.857   0.628  0.5565  0.9224  0.1166
25380SOL    HW280183   7.566   0.816   0.701  0.1271  0.0558  0.3924
25381SOL     OW80184   1.378   9.745   4.552  0.1329 -0.6080 -0.0667
25381SOL    HW180185   1.329   9.739   4.634  0.0072  1.0962  0.0282
25381SOL    HW280186   1.391   9.655   4.525  0.9868 -1.2524  2.3018
25382SOL     OW80187   9.236   9.264   8.834  0.4695 -0.3219 -0.7848
25382SOL    HW180188   9.294   9.200   8.874 -0.1974 -2.0147 -2.3453
25382SOL    HW280189   9.289   9.304   8.765  1.5353  2.3992  1.4313
25383SOL     OW80190   3.382   1.498   2.802 -0.2762 -0.6151 -0.1406
25383SOL    HW180191   3.349   1.465   2.718 -2.9557 -0.9754  0.9553
25383SOL    HW280192   3.318   1.467   2.866 -0.2575  2.6193  1.6089
25384SOL     OW80193   0.748   7.053   5.260 -0.4322 -0.5149  0.2883
25384SOL    HW180194   0.725   7.055   5.167  1.5698  0.1877 -0.2309
25384SOL    HW280195   0.818   6.989   5.267 -0.7778 -0.7984  1.3878
25385SOL     OW80196   7.402   8.793   3.434 -0.2116  0.2617  0.8473
25385SOL    HW180197   7.476   8.733   3.422 -0.9621 -0.4841 -0.3213
25385SOL    HW280198   7.332   8.754   3.382 -0.0239  3.4178 -2.0920
25386SOL     OW80199   6.070   2.273   7.288  0.0624  0.6976  0.1703
25386SOL    HW180200   5.985   2.264   7.331  0.4121  0.1524  0.7621
25386SOL    HW280201   6.073   2.365   7.260 -0.7938  0.6710 -0.0242
25387SOL     OW80202   4.099   1.536   8.781  0.3305  0.1210 -0.0471
25387SOL    HW180203   4.145   1.519   8.863 -1.1623  1.6323  1.1533
25387SOL    HW280204   4.163   1.513   8.713  2.0064 -0.0655  1.5151
25388SOL     OW80205   5.113   9.664   0.379 -0.1227  0.0405  0.4168
25388SOL    HW180206   5.163   9.650   0.459 -1.4247  2.5672  1.8216
25388SOL    HW280207   5.022   9.646   0.404 -0.5832  1.1919 -0.3386
25389SOL     OW80208   5.351   5.756   5.783 -0.3156  0.3914 -0.6524
25389SOL    HW180209   5.308   5.671   5.787 -0.3267  0.3856 -0.9407
25389SOL    HW280210   5.361   5.774   5.690  0.2016  0.4454 -0.5887
25390SOL     OW80211   8.939   8.039   3.283  0.6822 -0.3597  0.1773
25390SOL    HW180212   8.905   8.128   3.300 -0.5768 -0.9502  0.9111
25390SOL    HW280213   8.944   8.033   3.188 -2.4458 -0.5897 -0.0735
25391SOL     OW80214   4.729   5.625  10.192  0.2895 -0.1301  0.4193
25391SOL    HW180215   4.674   5.602  10.266  0.9094  0.8057  1.1912
25391SOL    HW280216   4.694   5.709  10.160  1.1932  0.4345  0.8705
25392SOL     OW80217   8.554   0.005   8.848  0.2206 -0.3635 -0.2405
25392SOL    HW180218   8.602   0.078   8.809  0.1538 -0.1879  0.0025
25392SOL    HW280219   8.622  -0.062   8.864  0.4946  0.0925  0.6003
25393SOL     OW80220   6.453   3.613   7.446  0.3078  0.2331 -0.0089
25393SOL    HW180221   6.399   3.588   7.522  0.0290 -0.1722 -0.3310
25393SOL    HW280222   6.424   3.553   7.376  1.9486 -0.7625  0.1123
25394SOL     OW80223   2.442   5.790   1.767 -0.2545  0.4772 -0.4249
25394SOL    HW180224   2.419   5.697   1.763 -0.8255  0.4883  1.3507
25394SOL    HW280225   2.482   5.801   1.854 -0.0750  1.8581 -0.6550
25395SOL     OW80226   2.298   9.451   9.156  0.5195 -0.2684 -0.3198
25395SOL    HW180227   2.338   9.509   9.092  0.7741 -1.1514 -0.9914
25395SOL    HW280228   2.218   9.419   9.113 -1.3697  2.0007  1.2591
25396SOL     OW80229   6.546   4.004   9.943  0.5919  1.0082 -0.7314
25396SOL    HW180230   6.520   4.038  10.028  0.7024 -0.8187  0.0859
25396SOL    HW280231   6.629   4.047   9.924  1.5422  0.0913  1.0151
25397SOL     OW80232   5.813   4.782   3.836  0.5141 -0.1220  0.1293
25397SOL    HW180233   5.860   4.699   3.836 -1.4363 -1.2846 -0.4391
25397SOL    HW280234   5.791   4.797   3.744  0.6739  0.9369  0.2507
25398SOL     OW80235   7.547   0.857   3.480  0.7181 -0.7409 -0.4808
25398SOL    HW180236   7.617   0.913   3.512 -0.3132 -0.0420  0.6144
25398SOL    HW280237   7.502   0.910   3.414 -0.0322 -0.3854  0.2948
25399SOL     OW80238   1.483   3.588   3.744  0.3045  0.3633  0.3911
25399SOL    HW180239   1.506   3.501   3.713 -1.9334 -0.3756  0.6423
25399SOL    HW280240   1.511   3.648   3.675 -0.2006 -0.7826 -0.8273
25400SOL     OW80241   2.307   4.575   9.832 -0.3051 -0.3377  0.7138
25400SOL    HW180242   2.246   4.511   9.795 -0.8829  0.3006  0.5193
25400SOL    HW280243   2.250   4.640   9.874  0.1603  0.9046 -0.4748
25401SOL     OW80244   4.503   3.542   1.634  0.4266 -0.6873 -0.3942
25401SOL    HW180245   4.460   3.493   1.704 -0.9662 -0.0013 -0.7279
25401SOL    HW280246   4.568   3.482   1.599  0.4496 -1.3973  0.8246
25402SOL     OW80247   8.439   8.786   1.185  0.2352  0.0306 -0.0924
25402SOL    HW180248   8.359   8.838   1.196  0.6013  0.3386  1.3090
25402SOL    HW280249   8.504   8.831   1.239  1.2771 -0.3918 -0.9725
25403SOL     OW80250   7.705   2.561   6.948  0.0575  0.1472  0.5348
25403SOL    HW180251   7.747   2.618   6.884 -0.0954  1.5585  1.6559
25403SOL    HW280252   7.755   2.573   7.029 -1.6826  0.9148  1.5629
25404SOL     OW80253   6.052   6.843   0.892 -0.0057  0.0105  0.2835
25404SOL    HW180254   6.086   6.898   0.962  0.4678 -0.4923  0.4551
25404SOL    HW280255   6.108   6.766   0.892 -0.4420 -0.3178 -0.1848
25405SOL     OW80256   2.453   2.539   2.179  0.4241 -0.0099  0.2483
25405SOL    HW180257   2.374   2.487   2.167  0.9048 -0.6092 -0.4519
25405SOL    HW280258   2.431   2.625   2.143 -0.0757 -0.0114  0.5477
25406SOL     OW80259   9.115   5.393   0.615 -0.1876 -0.0508 -0.0994
25406SOL    HW180260   9.169   5.465   0.647 -0.3066 -0.1672  0.3810
25406SOL    HW280261   9.027   5.414   0.644 -0.4779  0.3255 -1.2057
25407SOL     OW80262   0.867   7.076   5.622 -0.5458 -0.1774  0.4061
25407SOL    HW180263   0.830   7.152   5.578 -0.6255 -0.2835  0.2903
25407SOL    HW280264   0.898   7.110   5.706 -0.7707 -0.0578  0.4420
25408SOL     OW80265   6.731   0.407   2.122 -0.4355 -0.2195  0.0348
25408SOL    HW180266   6.785   0.351   2.066  0.5088  0.8407 -0.1510
25408SOL    HW280267   6.656   0.431   2.068 -0.1547 -0.2077 -0.3523
25409SOL     OW80268   0.911   7.554   1.469  0.0436  0.7506 -0.0311
25409SOL    HW180269   0.917   7.629   1.410 -0.6202  0.6698 -0.2104
25409SOL    HW280270   0.962   7.485   1.426 -0.7270  0.5821 -0.6989
25410SOL     OW80271   7.241   3.692   9.867  0.2915  0.2862 -0.1453
25410SOL    HW180272   7.222   3.784   9.848 -0.4149  0.4857  1.3606
25410SOL    HW280273   7.155   3.652   9.880  0.5403 -0.7996 -1.5593
25411SOL     OW80274   6.982   7.355   7.336  0.2893  0.3072  0.3637
25411SOL    HW180275   6.966   7.373   7.429 -1.8979 -0.7431  0.2527
25411SOL    HW280276   7.000   7.260   7.334  2.4833  0.6738 -0.0877
25412SOL     OW80277   9.498   6.060   8.339  0.1237 -0.3347  0.0492
25412SOL    HW180278   9.534   5.989   8.393  1.4222 -0.9516 -1.5291
25412SOL    HW280279   9.436   6.016   8.281  0.9709 -0.2016 -0.9721
25413SOL     OW80280   9.265   0.156   7.081  0.5163 -0.3303  0.1828
25413SOL    HW180281   9.359   0.170   7.068  0.2346  1.9197  0.1907
25413SOL    HW280282   9.259   0.067   7.116  2.7083 -0.2172  1.0265
25414SOL     OW80283   2.392   7.416   9.518  0.0311 -0.2493 -0.1860
25414SOL    HW180284   2.305   7.383   9.494 -0.5889  0.9530  0.3258
25414SOL    HW280285   2.420   7.466   9.441  1.3545 -2.5678 -1.3201
25415SOL     OW80286   6.312   3.479   2.900 -0.3601 -0.2110 -0.7198
25415SOL    HW180287   6.233   3.510   2.856 -1.4357 -0.8563  0.6825
25415SOL    HW280288   6.377   3.547   2.882 -1.8509  1.4761 -0.1021
25416SOL     OW80289  10.281   3.644  10.214 -0.1603 -0.2433  0.5800
25416SOL    HW180290  10.237   3.642  10.299  1.9987 -1.3344  1.7665
25416SOL    HW280291  10.345   3.715  10.223 -0.6239  0.3327 -0.5454
25417SOL     OW80292   2.519   1.863   3.941  0.2746 -0.2877 -0.6188
25417SOL    HW180293   2.555   1.936   3.992 -0.3812  1.8586 -3.0125
25417SOL    HW280294   2.595   1.821   3.902  0.7478 -1.6888  1.6378
25418SOL     OW80295   4.273   5.214   1.027  0.1010  0.0964  0.1825
25418SOL    HW180296   4.304   5.259   0.948  0.0242  0.8862  0.5921
25418SOL    HW280297   4.284   5.278   1.097 -2.6059  0.5012  0.3395
25419SOL     OW80298   6.280   3.900   9.735 -0.0360  0.0171 -0.3649
25419SOL    HW180299   6.364   3.893   9.780 -0.9894  0.0728  1.5262
25419SOL    HW280300   6.242   3.812   9.741  0.2555 -0.2544 -2.0413
25420SOL     OW80301   2.165   8.004   4.798 -0.0146  0.1214  0.3635
25420SOL    HW180302   2.093   7.941   4.798  0.0264  0.0710 -0.1424
25420SOL    HW280303   2.232   7.962   4.852 -0.2305  0.0108  0.5478
25421SOL     OW80304   6.573  10.164   0.793 -0.9033 -0.0680  0.0118
25421SOL    HW180305   6.579  10.169   0.697  0.2263 -0.4539  0.0455
25421SOL    HW280306   6.479  10.165   0.811 -1.1173  1.0781 -1.0319
25422SOL     OW80307   1.498   5.073   2.601  0.1736  0.3518  0.0349
25422SOL    HW180308   1.528   5.059   2.511  0.2618 -0.8378  0.2307
25422SOL    HW280309   1.437   5.001   2.617 -1.3296  1.6213  0.3004
25423SOL     OW80310   7.587   9.074   4.996  0.2750 -0.3808  0.0365
25423SOL    HW180311   7.580   9.043   4.906 -1.8206 -0.6017  0.2340
25423SOL    HW280312   7.501   9.055   5.035 -0.0795  2.7800  1.0685
25424SOL     OW80313   3.283   2.861   5.141  0.0105 -0.5738 -0.9751
25424SOL    HW180314   3.187   2.868   5.146  0.0406 -1.1007  1.8317
25424SOL    HW280315   3.299   2.771   5.112 -0.4259 -1.6293  1.7945
25425SOL     OW80316   5.261   1.096   0.419  0.2106  0.5102  0.6675
25425SOL    HW180317   5.349   1.081   0.384  0.5622  1.6063  1.0703
25425SOL    HW280318   5.257   1.040   0.497  0.3244  0.0030  0.3194
25426SOL     OW80319   6.854   9.226   4.443 -0.1202  0.1004  0.1624
25426SOL    HW180320   6.914   9.273   4.501  0.1354 -0.1372  0.0931
25426SOL    HW280321   6.768   9.265   4.460  0.1097  0.6650  0.0234
25427SOL     OW80322   3.613   0.385   9.089  0.1118  0.1428 -0.2195
25427SOL    HW180323   3.585   0.315   9.030  0.5829 -0.0965 -0.1638
25427SOL    HW280324   3.653   0.340   9.162 -0.5243  0.4382  0.3236
25428SOL     OW80325   7.555   4.911   7.094  0.0609 -0.5948 -0.2889
25428SOL    HW180326   7.552   4.825   7.052  0.7150  0.0183 -1.6947
25428SOL    HW280327   7.644   4.917   7.128 -0.7224 -1.4369  2.0675
25429SOL     OW80328   4.849   1.515   5.331 -0.6073 -0.5332  0.5175
25429SOL    HW180329   4.809   1.565   5.402  0.0515  2.8473 -1.2803
25429SOL    HW280330   4.919   1.465   5.374 -1.4602 -0.1219  2.4932
25430SOL     OW80331   8.422   0.343   3.431 -0.3403 -0.5006 -0.5679
25430SOL    HW180332   8.427   0.283   3.505 -0.0862 -0.7792 -0.8084
25430SOL    HW280333   8.374   0.294   3.364  1.7742 -1.3183 -1.5879
25431SOL     OW80334   3.594   6.677   3.608 -0.3757 -0.6741  0.0056
25431SOL    HW180335   3.649   6.675   3.687  1.9547  1.0025 -1.4571
25431SOL    HW280336   3.636   6.616   3.548  0.6132  1.3928 -1.5105
25432SOL     OW80337  10.111   5.671  10.093  0.6346 -0.4857 -0.0484
25432SOL    HW180338  10.155   5.659  10.177  0.0310 -0.9319  0.2174
25432SOL    HW280339  10.141   5.598  10.039 -1.4856 -2.1753  0.8976
25433SOL     OW80340   2.083   4.308   0.447 -0.4750 -0.6568 -0.1620
25433SOL    HW180341   2.082   4.395   0.407 -0.8160 -0.4294  0.3334
25433SOL    HW280342   2.064   4.249   0.374 -3.5607 -0.0646  0.0215
25434SOL     OW80343   0.359   1.816   7.222  0.9096 -0.3585 -0.0066
25434SOL    HW180344   0.397   1.778   7.143  1.2030 -1.2830  0.5603
25434SOL    HW280345   0.320   1.742   7.267 -0.2758  0.3514  0.1548
25435SOL     OW80346   9.567   0.158   7.111  0.1324 -0.2037 -0.2439
25435SOL    HW180347   9.636   0.217   7.081  0.6596 -0.9000 -0.4316
25435SOL    HW280348   9.595   0.071   7.082  0.6156 -0.9260  2.1196
25436SOL     OW80349   3.584   6.740   9.082 -0.1035  0.0719 -0.2018
25436SOL    HW180350   3.612   6.678   9.015  1.0713 -0.0556  0.3707
25436SOL    HW280351   3.648   6.811   9.076 -0.2906  0.2994  0.4447
25437SOL     OW80352   6.803   1.044   2.354 -0.0363 -0.1095  0.0356
25437SOL    HW180353   6.811   1.105   2.428  0.8941  0.8204 -0.7968
25437SOL    HW280354   6.737   1.084   2.297 -0.7795 -0.8434  0.3543
25438SOL     OW80355   1.018   9.216   9.714  1.0369  0.0141 -0.2051
25438SOL    HW180356   1.099   9.165   9.716  1.0024 -0.0136  0.5005
25438SOL    HW280357   0.960   9.166   9.656  0.6240 -1.3383  1.3234
25439SOL     OW80358   7.728   3.084   2.003  0.6193  0.4107  0.1933
25439SOL    HW180359   7.722   3.042   1.917 -0.4747 -1.2359  1.0227
25439SOL    HW280360   7.667   3.158   1.998  0.2932  0.1119 -0.3285
25440SOL     OW80361   1.542   7.809   4.070  0.3687 -0.8502 -0.1441
25440SOL    HW180362   1.449   7.830   4.060 -0.2508 -3.2390 -0.0380
25440SOL    HW280363   1.567   7.851   4.152 -0.2872  0.7742 -0.7398
25441SOL     OW80364   4.632   9.700   3.092  0.0986 -1.0506  0.0066
25441SOL    HW180365   4.604   9.720   3.003 -0.1950 -0.0428  0.3071
25441SOL    HW280366   4.570   9.748   3.148  0.9070 -0.8111  0.7271
25442SOL     OW80367   4.371   7.898   2.001  0.3583  0.6283  0.1694
25442SOL    HW180368   4.392   7.956   1.928  0.3099  0.5000  0.0544
25442SOL    HW280369   4.456   7.881   2.042  0.6118 -0.5455 -0.7855
25443SOL     OW80370   1.376   4.765   8.718  0.0576 -0.5940 -0.7158
25443SOL    HW180371   1.444   4.803   8.661  0.5514 -0.5563 -0.1141
25443SOL    HW280372   1.383   4.670   8.702  1.2497 -0.7252  0.3941
25444SOL     OW80373   1.111   2.286   0.564 -0.0535 -0.6729 -0.0537
25444SOL    HW180374   1.136   2.359   0.506  0.3430 -1.7365 -1.2773
25444SOL    HW280375   1.185   2.275   0.622  0.2316 -0.6035 -0.3987
25445SOL     OW80376   6.205   0.492   2.570  0.2789  0.4272 -0.1721
25445SOL    HW180377   6.249   0.409   2.549 -0.4663 -0.1155  0.3625
25445SOL    HW280378   6.165   0.520   2.488 -0.3688 -0.3053 -0.1181
25446SOL     OW80379   4.081   4.473   9.949  0.0324 -0.0064 -0.6129
25446SOL    HW180380   4.002   4.526   9.955  1.1666  1.7354 -0.1110
25446SOL    HW280381   4.102   4.450  10.039  1.8497  2.4052 -0.3097
25447SOL     OW80382  10.196   0.650   7.742 -0.0463 -0.6352 -0.0703
25447SOL    HW180383  10.166   0.665   7.653 -2.1586 -2.0788  0.3170
25447SOL    HW280384  10.290   0.637   7.734  0.2706  2.0657 -1.6592
25448SOL     OW80385   3.897   2.293   4.567  1.0880  0.7065 -0.7945
25448SOL    HW180386   3.833   2.305   4.638  1.2760 -1.9140 -0.0919
25448SOL    HW280387   3.970   2.350   4.591  0.1233  1.7694 -0.2445
25449SOL     OW80388   3.778   6.674   4.674  0.0824 -0.2365 -0.6773
25449SOL    HW180389   3.792   6.598   4.618  3.5649 -0.3958  0.1362
25449SOL    HW280390   3.720   6.642   4.743 -0.3842 -1.4611 -1.5962
25450SOL     OW80391   6.912   9.797   7.155  0.4034 -0.3350 -0.1714
25450SOL    HW180392   6.908   9.890   7.178 -1.5417 -0.2897 -0.5252
25450SOL    HW280393   6.910   9.796   7.059  1.2801 -0.7338 -0.1943
25451SOL     OW80394   2.751   8.939   1.579  0.0371  0.1462  0.1358
25451SOL    HW180395   2.715   8.897   1.501 -1.1427 -0.4748  0.9923
25451SOL    HW280396   2.846   8.935   1.567 -0.1236  0.0305 -1.2420
25452SOL     OW80397   4.441   3.465   2.484  0.2548  0.0749  0.5054
25452SOL    HW180398   4.522   3.499   2.446  0.7618 -1.8449 -0.2548
25452SOL    HW280399   4.391   3.433   2.408 -0.7139  0.2053  1.0698
25453SOL     OW80400   4.525   8.985  10.092  0.2287  0.3316  0.4101
25453SOL    HW180401   4.589   9.010  10.159  0.5827  0.0517  0.1836
25453SOL    HW280402   4.491   9.068  10.059 -2.3502  0.5154  3.1397
25454SOL     OW80403   1.711   3.561   7.168 -0.1669  0.0726 -0.1962
25454SOL    HW180404   1.699   3.504   7.244  0.7954 -0.9690 -0.7973
25454SOL    HW280405   1.753   3.640   7.203  2.5349 -1.3766  0.0647
25455SOL     OW80406   4.241   3.058   5.962 -0.0961 -0.1870  0.3463
25455SOL    HW180407   4.286   3.028   6.041  2.7538 -2.1126 -1.8169
25455SOL    HW280408   4.163   3.002   5.957  0.9209 -1.7093  0.6485
25456SOL     OW80409   7.759   1.210   9.857 -0.1132 -0.1843 -0.0102
25456SOL    HW180410   7.762   1.302   9.881 -1.8130 -0.2608  0.6168
25456SOL    HW280411   7.822   1.168   9.915  0.2193  0.4938  0.1198
25457SOL     OW80412   4.741   3.456   3.776  0.1014  0.6045  0.1624
25457SOL    HW180413   4.676   3.464   3.706  2.3265 -0.0114 -2.1324
25457SOL    HW280414   4.766   3.546   3.796 -1.3887  0.8424  1.0592
25458SOL     OW80415   2.053   7.949   9.085 -0.0993  0.1060 -0.9477
25458SOL    HW180416   2.125   7.984   9.137 -0.9691  0.1163  0.2790
25458SOL    HW280417   1.974   7.988   9.123 -0.7979 -0.2926 -1.9435
25459SOL     OW80418   7.436   3.960   4.902  0.5922 -0.1569  0.4421
25459SOL    HW180419   7.514   3.965   4.957  1.0290  1.3490 -0.2715
25459SOL    HW280420   7.446   3.879   4.852  2.3577  0.6307 -0.5665
25460SOL     OW80421   4.309   3.488   5.154  0.0154 -0.1662 -0.5358
25460SOL    HW180422   4.342   3.488   5.244  1.9733  0.0461 -1.2067
25460SOL    HW280423   4.214   3.490   5.164  0.1877  0.9311  1.5287
25461SOL     OW80424   1.692   5.900   9.866  0.3824  0.3663  0.3260
25461SOL    HW180425   1.665   5.973   9.810  0.6055 -1.4157 -2.2839
25461SOL    HW280426   1.774   5.929   9.906  0.2302  1.6993 -0.2978
25462SOL     OW80427   5.196   9.670   5.491  0.2281 -0.1975  0.1575
25462SOL    HW180428   5.291   9.673   5.488  0.6032 -4.7229  0.5684
25462SOL    HW280429   5.168   9.679   5.400  0.7545  3.1287  0.2150
25463SOL     OW80430   7.425   8.993   7.713 -0.6785 -0.5511  0.0705
25463SOL    HW180431   7.457   8.997   7.623  0.8909 -0.5850  0.5976
25463SOL    HW280432   7.443   9.080   7.748 -1.2652 -0.5461  0.3678
25464SOL     OW80433   3.816   2.130   7.294  0.0018  0.1892  0.2763
25464SOL    HW180434   3.904   2.165   7.279 -0.3448  0.7244 -0.6063
25464SOL    HW280435   3.769   2.148   7.212 -0.6936 -0.8085  0.4383
25465SOL     OW80436   5.239   4.784   0.904  0.0013  0.2457 -0.0694
25465SOL    HW180437   5.312   4.828   0.947 -0.0295 -0.1658  0.4147
25465SOL    HW280438   5.199   4.852   0.849 -0.5383  1.0479  1.2765
25466SOL     OW80439   1.487  10.073   0.548  0.1762  0.1998  0.3079
25466SOL    HW180440   1.511   9.985   0.521  1.8068 -0.2688  2.9360
25466SOL    HW280441   1.421  10.061   0.617 -0.3292  1.1050  0.0114
25467SOL     OW80442   2.260   9.570   3.594 -0.1003  0.3142 -0.5050
25467SOL    HW180443   2.209   9.490   3.577 -1.1955  0.9746 -0.3997
25467SOL    HW280444   2.239   9.592   3.685 -0.3592  1.1177 -0.7601
25468SOL     OW80445   3.074   6.417   3.124  0.1936  0.5063  0.3670
25468SOL    HW180446   3.003   6.403   3.062  1.9295 -1.5127 -1.3022
25468SOL    HW280447   3.043   6.378   3.206 -1.1016  0.8380  0.0565
25469SOL     OW80448   0.735   5.546   3.676 -0.2603 -0.0370 -0.1334
25469SOL    HW180449   0.664   5.578   3.621  0.0908 -0.2093 -0.7017
25469SOL    HW280450   0.790   5.623   3.691 -0.3123 -0.0078 -0.0928
25470SOL     OW80451   0.037   4.350   2.034 -0.1889 -0.3222  0.2216
25470SOL    HW180452  -0.031   4.334   1.968  2.3941 -1.2877 -2.4474
25470SOL    HW280453   0.051   4.265   2.075 -0.7337 -0.0653  0.9578
25471SOL     OW80454   4.796   7.456   9.509  0.2901 -0.5835  0.0433
25471SOL    HW180455   4.796   7.360   9.508  1.6856 -0.6110  0.7856
25471SOL    HW280456   4.827   7.480   9.421  0.7868 -0.8413  0.1404
25472SOL     OW80457   0.868   4.213  10.008  0.5376  0.1385  0.6762
25472SOL    HW180458   0.897   4.268  10.081 -0.2409  0.4064  0.7891
25472SOL    HW280459   0.863   4.125  10.046 -0.2429  0.3378  1.0703
25473SOL     OW80460   1.395   9.742   9.776 -0.0211 -0.1217 -0.1295
25473SOL    HW180461   1.336   9.816   9.762 -1.4876 -1.0519  0.8238
25473SOL    HW280462   1.394   9.729   9.871  1.5245 -0.3349 -0.1280
25474SOL     OW80463   3.900   4.900   4.787 -0.3587 -0.8023  0.0152
25474SOL    HW180464   3.886   4.935   4.875  0.1080 -0.4117 -0.0614
25474SOL    HW280465   3.947   4.818   4.801 -0.6077 -0.9257  0.1451
25475SOL     OW80466   2.660   8.288   8.300 -0.1474  0.2651 -0.1962
25475SOL    HW180467   2.566   8.271   8.305  0.1933 -1.4891  1.5927
25475SOL    HW280468   2.684   8.313   8.390  1.2888 -0.5664 -0.3264
25476SOL     OW80469   6.742   7.951   3.962 -0.1791  0.2687  0.1160
25476SOL    HW180470   6.677   8.004   4.009 -0.1402 -0.8299  1.4709
25476SOL    HW280471   6.822   7.961   4.012  0.4504  0.7820 -0.9628
25477SOL     OW80472   8.225   7.147   3.211  0.1131  0.0473  0.2794
25477SOL    HW180473   8.301   7.124   3.158  0.3621 -1.1661  1.1144
25477SOL    HW280474   8.153   7.154   3.149 -0.1682 -3.8149 -0.0574
25478SOL     OW80475   8.819   5.734   5.961 -0.4242  0.1763 -0.7030
25478SOL    HW180476   8.827   5.684   6.042  1.0635  2.9753  1.0386
25478SOL    HW280477   8.725   5.752   5.954 -0.4377  1.0950  1.2495
25479SOL     OW80478   1.403   5.450   5.963 -0.2859  0.2385  0.0748
25479SOL    HW180479   1.437   5.521   6.018  2.4926 -0.4836 -0.5545
25479SOL    HW280480   1.431   5.473   5.875  0.5858 -1.5694 -0.1557
25480SOL     OW80481   1.146   6.922   2.762 -0.4944 -0.2233  0.0601
25480SOL    HW180482   1.203   6.960   2.695 -0.8069  1.0034  0.4644
25480SOL    HW280483   1.078   6.988   2.775  0.7863  0.6620  3.2182
25481SOL     OW80484   2.307   8.237   2.717  0.1869  0.1711  0.0536
25481SOL    HW180485   2.344   8.282   2.640  0.6705 -0.4546 -0.0903
25481SOL    HW280486   2.226   8.199   2.685 -1.9917  3.6090  0.9683
25482SOL     OW80487  10.013   1.863   8.371 -0.5830 -0.2267 -0.4564
25482SOL    HW180488  10.087   1.876   8.312 -0.2966 -1.2596 -0.3580
25482SOL    HW280489  10.046   1.800   8.436 -0.6053  1.5099  1.3220
25483SOL     OW80490   2.682   1.926   8.964 -0.1452 -0.0966 -0.0094
25483SOL    HW180491   2.656   1.839   8.935  0.1991 -0.0438 -0.4827
25483SOL    HW280492   2.603   1.963   9.003 -0.3004 -0.6075  0.1645
25484SOL     OW80493   7.254   3.927   7.866  0.0923  0.0331  0.1416
25484SOL    HW180494   7.307   3.964   7.795 -1.2229  0.3697 -0.6826
25484SOL    HW280495   7.260   3.832   7.852  0.7686  0.0455  0.2848
25485SOL     OW80496   4.528   1.157   5.255 -0.0044  0.2813  0.5528
25485SOL    HW180497   4.563   1.246   5.255  0.1714  0.2237 -0.6273
25485SOL    HW280498   4.434   1.168   5.239 -0.0255  0.2710  0.6705
25486SOL     OW80499   4.473   1.454   6.706 -0.3119 -0.2831  0.4619
25486SOL    HW180500   4.417   1.405   6.766  0.6581  0.5292  2.0854
25486SOL    HW280501   4.511   1.524   6.760 -0.4841  1.3534 -1.4155
25487SOL     OW80502   1.209   1.730   9.789 -0.5613 -0.3754  0.2373
25487SOL    HW180503   1.302   1.754   9.794 -0.6800  0.2910 -0.4965
25487SOL    HW280504   1.176   1.778   9.713 -2.1405  1.5326  2.0116
25488SOL     OW80505   0.406   0.879   2.724 -0.0341 -0.2733 -0.1995
25488SOL    HW180506   0.329   0.904   2.775  0.1032  1.6247 -0.8415
25488SOL    HW280507   0.374   0.812   2.663 -0.4672 -1.6626  1.4707
25489SOL     OW80508   5.072   4.901   5.935 -0.3895  0.5012  0.1874
25489SOL    HW180509   5.036   4.929   6.019 -0.5729  0.3355  0.1671
25489SOL    HW280510   5.082   4.981   5.884  1.4811  0.8302  1.0268
25490SOL     OW80511   4.963  10.232   4.682 -0.2424 -0.3271  0.0765
25490SOL    HW180512   4.905  10.254   4.755  1.0329  0.6779  0.8256
25490SOL    HW280513   4.990  10.142   4.700 -0.3736 -0.2749  0.5460
25491SOL     OW80514  10.010   4.771   7.531 -0.4683  0.8166 -0.5530
25491SOL    HW180515  10.078   4.838   7.525  0.6038 -0.2192 -0.3787
25491SOL    HW280516  10.058   4.688   7.526 -1.9522  0.0188 -3.0492
25492SOL     OW80517   2.865   8.134   3.806  0.2402 -0.2843  0.4282
25492SOL    HW180518   2.839   8.219   3.771 -0.6166 -0.6135  0.2310
25492SOL    HW280519   2.958   8.128   3.787 -0.1340 -0.3348 -1.6267
25493SOL     OW80520   0.350   4.234   1.191  0.1272 -0.3153 -0.5828
25493SOL    HW180521   0.279   4.170   1.182  0.2265 -0.8653  1.7043
25493SOL    HW280522   0.323   4.308   1.138 -2.2400 -0.4809  0.2603
25494SOL     OW80523   3.997   7.776   8.923  0.2235  0.1624 -0.0075
25494SOL    HW180524   4.029   7.865   8.935  1.9884 -0.3043 -0.8871
25494SOL    HW280525   3.962   7.751   9.008  0.9976  1.1977  0.6341
25495SOL     OW80526   3.718   2.610   9.767  0.0740 -0.1595 -0.1795
25495SOL    HW180527   3.711   2.518   9.792 -1.3294 -0.1472 -0.4072
25495SOL    HW280528   3.752   2.654   9.845  1.3513 -0.9485 -0.2773
25496SOL     OW80529   6.158   0.864   8.859  0.5219  0.0638  0.0295
25496SOL    HW180530   6.081   0.873   8.915  0.5243 -2.8250  0.6633
25496SOL    HW280531   6.226   0.831   8.917  1.1055 -1.1008 -1.2554
25497SOL     OW80532   3.382   9.756   5.648  0.3337  0.1489  0.4672
25497SOL    HW180533   3.460   9.809   5.665  0.5553 -0.5728  1.7921
25497SOL    HW280534   3.405   9.704   5.571  0.2827  1.5951 -0.5608
25498SOL     OW80535   8.460   5.559   2.503 -0.2023 -0.2607  0.5973
25498SOL    HW180536   8.405   5.490   2.467 -0.0744  0.1350 -0.3929
25498SOL    HW280537   8.400   5.632   2.517  0.4945  1.5898 -4.1381
25499SOL     OW80538   8.624   6.412   7.554 -0.4675 -0.3854 -0.0063
25499SOL    HW180539   8.536   6.409   7.592 -0.2048  0.2016  0.6623
25499SOL    HW280540   8.673   6.346   7.602 -0.2118  0.1610  0.4994
25500SOL     OW80541   3.246   1.158   9.752  0.2484 -0.2016  0.4602
25500SOL    HW180542   3.239   1.166   9.847 -1.0550 -0.4067  0.4048
25500SOL    HW280543   3.229   1.247   9.720  1.0194 -0.0624  0.4245
25501SOL     OW80544   2.992   8.460   2.360  0.3635 -0.1972  0.2578
25501SOL    HW180545   2.985   8.395   2.289  0.5707 -0.0455  0.0947
25501SOL    HW280546   3.039   8.534   2.320  1.1672 -0.4177  0.7618
25502SOL     OW80547   0.870  10.006   6.892  0.0824  0.4492 -0.2300
25502SOL    HW180548   0.830   9.949   6.826  0.6523 -1.1631  0.7677
25502SOL    HW280549   0.850  10.095   6.861 -1.4674 -0.2574 -1.4502
25503SOL     OW80550   9.078   0.061   7.613 -0.1167 -0.4725  0.3578
25503SOL    HW180551   9.002   0.116   7.593  0.1412  0.1341  1.0043
25503SOL    HW280552   9.078   0.054   7.708  0.6522 -0.4550  0.3609
25504SOL     OW80553   7.897   2.027   9.680 -0.0986 -0.6429  0.2455
25504SOL    HW180554   7.903   1.947   9.627 -1.9870  0.4041 -1.7205
25504SOL    HW280555   7.866   1.996   9.766  0.5084 -2.1210 -0.0248
25505SOL     OW80556   6.996   0.532   6.610  0.0930 -0.1238  0.1443
25505SOL    HW180557   7.012   0.625   6.625 -2.0816  0.2432  0.5907
25505SOL    HW280558   6.996   0.493   6.697  0.5913 -0.4651 -0.0074
25506SOL     OW80559   7.380   0.836   0.407 -0.1011  0.1714  0.2079
25506SOL    HW180560   7.374   0.766   0.342  1.1243 -0.7447  1.0106
25506SOL    HW280561   7.455   0.889   0.379  0.9391 -0.6879  1.2345
25507SOL     OW80562   6.979   1.195   4.799 -0.6011  0.0096 -0.0423
25507SOL    HW180563   6.915   1.128   4.775 -1.9982  0.7058  1.5176
25507SOL    HW280564   7.030   1.154   4.870 -0.2836 -0.0164 -0.2827
25508SOL     OW80565   6.143   1.296   1.034  0.0200 -0.2134  0.7979
25508SOL    HW180566   6.193   1.274   0.955 -0.1157  1.6648  0.1389
25508SOL    HW280567   6.193   1.256   1.105  1.5763  0.1839 -0.0083
25509SOL     OW80568   7.058   4.854   7.001  0.3650  0.3210 -0.5119
25509SOL    HW180569   7.085   4.946   7.003  0.6063  0.2651 -0.9250
25509SOL    HW280570   7.063   4.830   6.908  1.5401 -0.4667 -0.2685
25510SOL     OW80571   7.945   2.349   1.227 -0.0123 -0.4661 -0.0346
25510SOL    HW180572   7.903   2.428   1.196  0.7613  0.0875  0.2907
25510SOL    HW280573   7.897   2.277   1.185 -1.1890  0.1340  0.2326
25511SOL     OW80574   9.468   6.812   3.272  0.7143 -0.1673  0.1301
25511SOL    HW180575   9.470   6.786   3.179  1.6904 -2.4107  0.6962
25511SOL    HW280576   9.550   6.858   3.286  1.0983 -0.8211  0.0995
25512SOL     OW80577   2.813   4.401  10.038  0.3822  0.3956  0.3790
25512SOL    HW180578   2.904   4.408  10.067  0.1030  3.1624  0.8573
25512SOL    HW280579   2.814   4.330   9.974  2.5568 -0.6581  1.4618
25513SOL     OW80580   5.609   3.443   9.801  0.3584 -0.2445  0.1083
25513SOL    HW180581   5.612   3.347   9.797  1.2312 -0.1994 -0.4419
25513SOL    HW280582   5.652   3.466   9.883 -2.0232 -0.3966  1.5132
25514SOL     OW80583   9.320   9.753   5.481 -0.0339 -0.1845 -0.2975
25514SOL    HW180584   9.261   9.801   5.423  1.9392  2.1915 -0.5017
25514SOL    HW280585   9.268   9.738   5.561 -1.3123  0.6331 -0.9338
25515SOL     OW80586   5.094   2.706   8.702 -0.4433 -0.1118 -0.4280
25515SOL    HW180587   5.056   2.618   8.694 -0.7122 -0.1531  1.1076
25515SOL    HW280588   5.183   2.691   8.736 -1.2503  0.2649  2.0608
25516SOL     OW80589   8.007   3.901   6.533  0.6931 -0.1710  0.2317
25516SOL    HW180590   7.965   3.973   6.579  0.7130 -0.0812  0.1120
25516SOL    HW280591   8.066   3.944   6.471  1.6485 -0.2991  1.0281
25517SOL     OW80592   6.053   9.998   1.246 -0.3459 -0.6099  0.3217
25517SOL    HW180593   5.996   9.931   1.282 -0.3682  0.3112  2.0991
25517SOL    HW280594   5.993  10.069   1.220 -0.2022 -0.6604 -0.1623
25518SOL     OW80595   8.784   9.147   1.074 -0.0376  0.0747  0.1485
25518SOL    HW180596   8.873   9.113   1.075  0.3782  0.9819 -1.5243
25518SOL    HW280597   8.791   9.231   1.028 -1.7582  0.1078 -0.1329
25519SOL     OW80598   1.430   0.409   8.253  0.1919  0.1011  0.0597
25519SOL    HW180599   1.343   0.372   8.241  0.3320 -0.0392 -0.5605
25519SOL    HW280600   1.488   0.334   8.258  0.5040  0.2195 -1.4274
25520SOL     OW80601   0.437   9.411   4.201  0.1202 -0.0512  0.0099
25520SOL    HW180602   0.526   9.446   4.198 -0.0212  0.2829 -0.3693
25520SOL    HW280603   0.416   9.391   4.110  0.5371 -2.0158  0.3130
25521SOL     OW80604   0.754  10.184   3.349 -0.0637 -0.3100 -0.4786
25521SOL    HW180605   0.837  10.212   3.388 -0.9312  3.4941 -0.9290
25521SOL    HW280606   0.688  10.205   3.416 -0.8800 -1.0052 -1.0454
25522SOL     OW80607   0.032   2.964   6.537 -0.2161 -0.0775  0.1805
25522SOL    HW180608  -0.038   2.967   6.602 -1.1439  2.8414 -0.7980
25522SOL    HW280609   0.112   2.979   6.587 -0.7598  0.7120  0.8366
25523SOL     OW80610   5.770   6.172   2.919 -0.1638  0.1485  0.5284
25523SOL    HW180611   5.822   6.230   2.863 -0.5614 -0.1623 -0.1764
25523SOL    HW280612   5.749   6.097   2.862 -1.1120  0.1221  0.9014
25524SOL     OW80613   3.721   5.110   9.451 -0.0383 -0.1569 -0.0343
25524SOL    HW180614   3.709   5.192   9.405 -1.9479 -0.6153 -0.4498
25524SOL    HW280615   3.784   5.130   9.521  0.6360  1.2617 -1.0013
25525SOL     OW80616   8.906   9.222   0.729 -0.1665 -0.1254 -0.0844
25525SOL    HW180617   8.888   9.272   0.809 -0.9409 -1.5789  0.6917
25525SOL    HW280618   8.821   9.186   0.704  0.4619 -1.4815 -0.3162
25526SOL     OW80619   0.079   1.317   8.860  0.4456  0.1429  0.4481
25526SOL    HW180620   0.145   1.256   8.828 -0.8883 -1.2123  0.1494
25526SOL    HW280621  -0.004   1.271   8.848 -0.8868  2.8434 -1.8555
25527SOL     OW80622  10.215   5.078   6.205  0.0614  0.1541 -0.1927
25527SOL    HW180623  10.122   5.084   6.183  0.2919  1.3689 -0.9245
25527SOL    HW280624  10.221   5.001   6.262 -1.2589 -0.4462 -0.8134
25528SOL     OW80625   2.510   8.842   3.687  0.3444  0.6487  0.5484
25528SOL    HW180626   2.558   8.920   3.715 -0.3379  0.9464  0.9124
25528SOL    HW280627   2.426   8.876   3.655  0.1083  0.0747  0.5593
25529SOL     OW80628   3.251   4.396   1.895  1.2534 -0.5605  0.3346
25529SOL    HW180629   3.336   4.439   1.882  1.7203 -1.2338  1.0618
25529SOL    HW280630   3.196   4.463   1.936  0.8653  0.4405 -1.6655
25530SOL     OW80631   6.840   2.567   4.400  0.1602 -0.1833  0.2522
25530SOL    HW180632   6.910   2.618   4.361 -0.0029  0.1565  0.4035
25530SOL    HW280633   6.864   2.559   4.492  0.6255 -1.1181  0.0624
25531SOL     OW80634  10.195   6.995   9.806 -0.8190  0.2556 -0.0648
25531SOL    HW180635  10.203   7.089   9.791 -0.9374  0.1156 -1.0811
25531SOL    HW280636  10.268   6.957   9.758 -0.1408 -0.1089  1.2124
25532SOL     OW80637   6.954   2.973   6.234 -0.2600  0.3289 -0.4389
25532SOL    HW180638   6.909   3.004   6.312 -1.4413  1.6084 -1.5657
25532SOL    HW280639   6.887   2.973   6.165  0.9305  0.0793 -1.6587
25533SOL     OW80640   3.512   4.323   2.479 -1.1167 -0.0851 -0.4425
25533SOL    HW180641   3.445   4.308   2.545 -0.5034  2.5236  0.8924
25533SOL    HW280642   3.482   4.399   2.430 -0.0970 -0.1175 -1.1589
25534SOL     OW80643   1.988   5.983   1.323 -0.2431 -0.6332 -0.0875
25534SOL    HW180644   1.996   5.887   1.322 -0.9619 -0.7311 -2.2205
25534SOL    HW280645   2.078   6.014   1.337  0.0518 -1.6088  0.3019
25535SOL     OW80646   9.758   5.679   8.513  0.3747  0.7378  0.1540
25535SOL    HW180647   9.762   5.626   8.433 -0.1640 -2.5156  2.0748
25535SOL    HW280648   9.849   5.684   8.542  0.4964  1.3990 -0.3224
25536SOL     OW80649   7.602   8.077   5.322  0.3834 -0.1649  0.1730
25536SOL    HW180650   7.613   8.001   5.264  1.3985  0.0656  0.0401
25536SOL    HW280651   7.659   8.058   5.397  0.6546  0.4612  0.1305
25537SOL     OW80652   8.865   8.077   0.657 -0.0693 -0.4045  0.3176
25537SOL    HW180653   8.847   8.048   0.567 -1.6767 -1.4247  0.9356
25537SOL    HW280654   8.843   8.170   0.656  1.2268 -0.0771 -0.6649
25538SOL     OW80655   1.816   2.887   9.689 -0.4486 -0.7435 -0.1476
25538SOL    HW180656   1.799   2.981   9.680 -1.4359 -0.7608  1.1311
25538SOL    HW280657   1.884   2.882   9.756 -0.3920 -0.9390 -0.2194
25539SOL     OW80658   8.555   7.769   6.972  0.2351 -0.3120  0.0683
25539SOL    HW180659   8.541   7.855   6.933 -0.6542 -1.0702 -1.3678
25539SOL    HW280660   8.469   7.743   7.004  0.3231 -0.9824 -0.2172
25540SOL     OW80661   0.770   3.900   1.096  0.2554  0.0007  0.8258
25540SOL    HW180662   0.747   3.977   1.148 -1.1353 -1.1144  1.9406
25540SOL    HW280663   0.689   3.876   1.051  0.7046 -0.7274  0.3785
25541SOL     OW80664   1.922   2.794   3.439  0.3207  0.2165 -0.4307
25541SOL    HW180665   1.882   2.715   3.403 -1.3594  0.6604  0.3500
25541SOL    HW280666   1.859   2.825   3.504  2.0955  0.8132  1.1005
25542SOL     OW80667   3.291   2.999   7.402  0.4050 -0.6241 -0.1049
25542SOL    HW180668   3.260   3.083   7.368  1.4380 -0.2918 -0.2696
25542SOL    HW280669   3.260   2.996   7.492  1.5980  0.6231  0.3786
25543SOL     OW80670   6.477   8.218   2.184 -0.2285 -0.0879  0.5361
25543SOL    HW180671   6.509   8.303   2.153  1.1110  0.3138  2.7998
25543SOL    HW280672   6.499   8.157   2.113 -1.3299  1.4187 -1.1820
25544SOL     OW80673   2.755   0.399   5.690 -0.2540 -0.6703 -0.0767
25544SOL    HW180674   2.722   0.326   5.742 -0.4448 -0.4101  0.1756
25544SOL    HW280675   2.850   0.398   5.703 -0.1528 -1.4299 -0.8129
25545SOL     OW80676   3.700  10.013   7.229  0.7617 -0.6816  0.1351
25545SOL    HW180677   3.789  10.044   7.247  1.1362 -0.9731 -1.1368
25545SOL    HW280678   3.702   9.987   7.137  0.0741 -3.1824  0.7562
25546SOL     OW80679   7.542   6.209   8.533  0.0414 -0.1006  0.0384
25546SOL    HW180680   7.604   6.270   8.574 -0.9636  0.5491  0.6294
25546SOL    HW280681   7.480   6.265   8.486 -1.9735 -0.4829  2.0555
25547SOL     OW80682   0.609   3.214   4.362  0.1971 -0.0229  0.2436
25547SOL    HW180683   0.668   3.273   4.409 -0.8754  1.0073  0.3454
25547SOL    HW280684   0.565   3.269   4.298 -0.6847 -0.7512  0.1903
25548SOL     OW80685   7.531   2.080   4.707  0.5293 -0.3478 -0.0630
25548SOL    HW180686   7.465   2.055   4.643  1.1167 -1.0469 -0.3991
25548SOL    HW280687   7.482   2.126   4.775 -0.2680 -0.6486 -0.4287
25549SOL     OW80688   4.229   3.411   8.368 -0.1052 -0.6626  0.3277
25549SOL    HW180689   4.320   3.380   8.361 -0.2246 -0.8988 -0.2509
25549SOL    HW280690   4.195   3.405   8.279  0.1389  2.0215 -0.0445
25550SOL     OW80691   0.322   5.171   6.291  0.2621  0.1542  0.2905
25550SOL    HW180692   0.270   5.232   6.343  1.2210  1.2951 -0.0500
25550SOL    HW280693   0.412   5.185   6.319  0.4854 -1.2979  0.3751
25551SOL     OW80694   4.359   7.007   0.298  0.0220  0.4718 -0.0089
25551SOL    HW180695   4.387   6.960   0.376  0.6892  1.4143  0.3377
25551SOL    HW280696   4.291   6.952   0.260 -0.9762  0.4312  1.7296
25552SOL     OW80697   5.030   0.790   7.069  0.0052 -0.3158 -0.0221
25552SOL    HW180698   4.958   0.731   7.046 -1.4366  0.9792  0.9120
25552SOL    HW280699   5.054   0.765   7.158  0.5338 -0.5697 -0.2339
25553SOL     OW80700   3.644   7.950   2.361 -0.3137 -0.1428 -0.2282
25553SOL    HW180701   3.609   7.882   2.418  1.6438 -0.3042  0.8609
25553SOL    HW280702   3.611   8.032   2.398 -0.3053 -0.3311  0.1941
25554SOL     OW80703   1.889   2.352   9.837 -0.2375  0.4879 -0.0724
25554SOL    HW180704   1.983   2.341   9.826  0.1172  3.2197 -0.4703
25554SOL    HW280705   1.868   2.304   9.917  1.0500 -1.9573 -1.1054
25555SOL     OW80706   6.154   3.701   7.683  0.2636 -0.0315 -0.2417
25555SOL    HW180707   6.207   3.775   7.711  0.1498 -0.3113  0.7845
25555SOL    HW280708   6.209   3.624   7.700  0.5666 -0.1700 -1.7429
25556SOL     OW80709   1.621   7.130   2.429 -0.2459 -0.2664  0.1255
25556SOL    HW180710   1.676   7.068   2.477  2.2423 -0.6275 -2.8692
25556SOL    HW280711   1.651   7.216   2.459 -0.3313 -0.4636  0.8075
25557SOL     OW80712   9.930   9.500   7.633  0.1066  0.4665  0.6192
25557SOL    HW180713   9.949   9.515   7.725 -1.5194  1.5972  0.8118
25557SOL    HW280714   9.950   9.407   7.619  0.0431  0.1899  2.1907
25558SOL     OW80715   4.086   7.097   0.952 -0.3593  0.4360 -0.4472
25558SOL    HW180716   4.003   7.127   0.989  0.4447 -0.1267  1.9994
25558SOL    HW280717   4.143   7.174   0.955 -0.5671  0.6332 -1.4335
25559SOL     OW80718   5.459   7.903   2.836 -0.3028 -0.1852  0.2105
25559SOL    HW180719   5.463   7.874   2.927 -1.6759 -0.2464  0.2658
25559SOL    HW280720   5.370   7.937   2.825 -0.7059 -1.6464 -1.5283
25560SOL     OW80721   0.113   5.938   4.446  0.3734  0.1728 -0.0770
25560SOL    HW180722   0.101   6.028   4.415  2.8971  0.1320 -1.4212
25560SOL    HW280723   0.180   5.902   4.389 -0.8027 -2.7286  0.2086
25561SOL     OW80724   8.933   4.908   7.310 -0.8486 -0.1018  0.1819
25561SOL    HW180725   9.023   4.891   7.336 -0.5819 -0.1499 -0.7281
25561SOL    HW280726   8.935   4.996   7.273 -1.0535 -0.3049 -0.3287
25562SOL     OW80727   2.571   3.844  10.224 -0.2261 -0.1819  0.0488
25562SOL    HW180728   2.644   3.803  10.269  0.4081  0.0171 -0.7703
25562SOL    HW280729   2.500   3.845  10.288  0.7151  0.2960  1.0981
25563SOL     OW80730   8.796   6.150   5.001  0.2327  0.1531  0.5032
25563SOL    HW180731   8.844   6.202   4.936  0.2805 -0.5232 -0.0078
25563SOL    HW280732   8.708   6.141   4.964 -0.9389  2.9088  2.2384
25564SOL     OW80733   1.629   7.735   3.830 -0.0569  0.1151  0.0980
25564SOL    HW180734   1.724   7.744   3.822  0.0736 -0.9692  0.1836
25564SOL    HW280735   1.610   7.759   3.921  0.4100 -1.4330  0.6452
25565SOL     OW80736   1.562   6.076   0.215 -0.0004 -0.1446  0.7697
25565SOL    HW180737   1.532   6.050   0.128  0.2190 -0.0480  0.6628
25565SOL    HW280738   1.657   6.083   0.206  0.2004 -1.6820  1.4277
25566SOL     OW80739   7.352   4.023   3.208  0.4135 -0.5373  0.1600
25566SOL    HW180740   7.406   4.035   3.130  1.1768  1.7333  0.9486
25566SOL    HW280741   7.387   4.086   3.271 -2.3530  0.1086  1.1825
25567SOL     OW80742  10.142   0.970   5.305  0.6197 -0.4966 -0.6103
25567SOL    HW180743  10.082   0.895   5.313  1.7004 -1.3451 -0.3290
25567SOL    HW280744  10.109   1.018   5.228 -1.6365  0.2073  0.6915
25568SOL     OW80745   2.244   9.054   6.325 -0.0642 -0.2535 -0.0223
25568SOL    HW180746   2.172   9.114   6.305  0.9146  0.5238 -1.3961
25568SOL    HW280747   2.200   8.973   6.353 -1.4505  0.4028 -0.1889
25569SOL     OW80748   2.211   2.509   8.586  0.5577  0.2308 -0.0010
25569SOL    HW180749   2.196   2.584   8.644  0.6640  1.0922 -1.0700
25569SOL    HW280750   2.190   2.433   8.641  1.6772  0.9493  1.5137
25570SOL     OW80751   7.584   6.601   1.157 -0.2871 -0.4097 -0.3771
25570SOL    HW180752   7.679   6.603   1.141 -0.1653 -4.4065 -1.1953
25570SOL    HW280753   7.572   6.660   1.231  2.6509  1.0024 -0.8451
25571SOL     OW80754   6.594   0.528   7.013  0.0031  0.2636  0.0789
25571SOL    HW180755   6.509   0.532   7.056  1.1862  0.2923  2.6034
25571SOL    HW280756   6.616   0.620   6.995 -1.5271  0.1386 -2.9563
25572SOL     OW80757   8.847   9.929   5.316  0.3766 -0.1374  0.1377
25572SOL    HW180758   8.753   9.947   5.306  0.2957  0.2216  1.3733
25572SOL    HW280759   8.889   9.993   5.259 -0.0332  2.0908  2.1508
25573SOL     OW80760   1.347   6.529   1.396 -0.3340 -0.5521 -1.0899
25573SOL    HW180761   1.268   6.475   1.386 -0.4791 -0.9258  1.3871
25573SOL    HW280762   1.319   6.618   1.375 -1.7168 -0.5243  0.6772
25574SOL     OW80763   0.385   6.385   8.616  0.3030  0.1468  0.1945
25574SOL    HW180764   0.311   6.441   8.640 -0.5142 -0.6654 -0.3903
25574SOL    HW280765   0.386   6.385   8.521 -0.4150 -1.6897  0.1378
25575SOL     OW80766   7.257   9.259   7.474 -0.4774  0.0512  0.7018
25575SOL    HW180767   7.314   9.307   7.413 -1.1679 -1.8183 -1.5602
25575SOL    HW280768   7.251   9.315   7.551  1.9410  1.7003 -0.2047
25576SOL     OW80769   8.411   4.491   9.697 -0.0996  0.1844 -0.2639
25576SOL    HW180770   8.464   4.456   9.770  0.0733  0.4688 -0.2507
25576SOL    HW280771   8.381   4.576   9.729 -2.3792 -0.8779  0.5899
25577SOL     OW80772   9.776   3.676   5.045 -0.1778  0.4172 -0.1664
25577SOL    HW180773   9.870   3.691   5.033 -0.2094  0.4009 -0.4347
25577SOL    HW280774   9.771   3.592   5.091  0.0140  1.3159  1.6073
25578SOL     OW80775   0.041   7.484   8.756 -0.0576  0.2461 -0.0445
25578SOL    HW180776  -0.012   7.463   8.679  0.3741  0.2868 -0.3555
25578SOL    HW280777   0.045   7.580   8.756 -1.3699  0.3400  0.9280
25579SOL     OW80778   7.373   5.054   0.881  0.6810  0.4583  0.5921
25579SOL    HW180779   7.335   5.007   0.955  1.0945  0.0182  0.5305
25579SOL    HW280780   7.462   5.075   0.908  0.9029  0.1139  0.1450
25580SOL     OW80781   1.613   1.014   1.796 -0.2656  0.0140  0.3492
25580SOL    HW180782   1.650   1.098   1.769  1.5883 -0.1443  2.1525
25580SOL    HW280783   1.523   1.016   1.765 -0.0787  2.4039 -0.1891
25581SOL     OW80784   5.407   5.532   3.040  0.1023  0.0196 -0.1729
25581SOL    HW180785   5.362   5.595   2.985 -0.2594 -0.7925 -0.8169
25581SOL    HW280786   5.450   5.472   2.979  0.4539 -0.3530  0.4262
25582SOL     OW80787   7.571   3.758   4.761 -0.9163  0.1043  0.3472
25582SOL    HW180788   7.538   3.672   4.734 -2.9135 -0.1155  3.1046
25582SOL    HW280789   7.654   3.740   4.805 -2.4935 -0.8452  3.1334
25583SOL     OW80790   1.252   3.910   8.478  0.2907  0.3924 -1.0276
25583SOL    HW180791   1.171   3.859   8.476  0.4291  0.0861  0.2668
25583SOL    HW280792   1.300   3.882   8.400 -0.6051  0.1880 -1.5254
25584SOL     OW80793   3.629   6.581   0.176  0.0726  0.1569  0.2499
25584SOL    HW180794   3.703   6.523   0.160  0.4165  0.1804  1.6102
25584SOL    HW280795   3.651   6.627   0.257 -1.2934  0.3787  0.5301
25585SOL     OW80796   4.812   0.459   3.212 -0.3691  0.0963  0.4611
25585SOL    HW180797   4.879   0.512   3.254  0.3368 -0.8338  0.5332
25585SOL    HW280798   4.756   0.523   3.168  1.0358  0.8705 -0.2987
25586SOL     OW80799   4.878   8.846   5.717 -0.3168  0.4096 -0.0371
25586SOL    HW180800   4.793   8.891   5.724  0.1304  1.1626  0.8006
25586SOL    HW280801   4.926   8.895   5.651  0.5391  1.8283  1.5770
25587SOL     OW80802   1.543   3.168   1.784 -0.1537 -0.0458 -0.0280
25587SOL    HW180803   1.463   3.118   1.801 -0.2446  0.0241 -0.2367
25587SOL    HW280804   1.614   3.114   1.819 -0.4114  0.5643  1.5105
25588SOL     OW80805   3.424   5.323   1.363 -0.5578  0.2356  0.6714
25588SOL    HW180806   3.463   5.409   1.350  0.6884 -0.1804  1.5108
25588SOL    HW280807   3.330   5.339   1.359 -0.3524  1.2710 -1.3348
25589SOL     OW80808   6.031   2.551   1.406 -0.4571 -0.0494 -0.1440
25589SOL    HW180809   6.069   2.580   1.323 -1.0221 -0.8863 -0.7088
25589SOL    HW280810   6.070   2.465   1.423 -2.6379 -1.3247 -1.1744
25590SOL     OW80811   6.869   4.429   4.495 -0.8236 -0.3975 -0.5258
25590SOL    HW180812   6.963   4.438   4.478 -0.3430 -1.3015  1.4011
25590SOL    HW280813   6.860   4.344   4.538 -2.6147 -0.5596 -1.1477
25591SOL     OW80814   3.263   6.526   9.436 -0.4109 -0.5496 -0.1447
25591SOL    HW180815   3.212   6.591   9.485 -0.2592 -0.2491 -0.3783
25591SOL    HW280816   3.202   6.453   9.422 -0.9856  0.0629 -0.9642
25592SOL     OW80817   6.285   0.360   0.789  0.1825 -0.3896  0.1763
25592SOL    HW180818   6.272   0.370   0.883  0.1055 -0.1172  0.1360
25592SOL    HW280819   6.291   0.265   0.776 -3.1629 -0.7234  0.0303
25593SOL     OW80820   6.451   7.413   7.980 -0.4866  0.6012 -0.6612
25593SOL    HW180821   6.415   7.430   7.893 -0.5810  0.6482 -0.6138
25593SOL    HW280822   6.436   7.320   7.995 -2.1330  0.9335  0.0397
25594SOL     OW80823   7.871   8.653   5.927  0.0160  0.7478  0.2329
25594SOL    HW180824   7.924   8.685   5.854  0.9741 -0.0324  0.5521
25594SOL    HW280825   7.884   8.558   5.925 -0.1773  0.6929  1.2298
25595SOL     OW80826   4.260   2.368   2.938 -0.6795 -0.3404 -0.4189
25595SOL    HW180827   4.302   2.323   2.865  1.0009 -1.1069  0.9260
25595SOL    HW280828   4.278   2.461   2.922  0.9824 -0.5949 -0.2763
25596SOL     OW80829   1.902   1.494   2.958 -0.1109 -0.4584 -0.5710
25596SOL    HW180830   1.882   1.418   3.011 -0.9628  1.0935  1.4793
25596SOL    HW280831   1.873   1.471   2.870 -0.4055 -2.4489  0.0084
25597SOL     OW80832   7.092   8.610   1.304 -0.1295 -0.4473 -0.2078
25597SOL    HW180833   7.117   8.638   1.216 -0.2690  1.3331  0.2913
25597SOL    HW280834   7.010   8.656   1.322  1.0964  1.1731  1.7408
25598SOL     OW80835   9.674   6.966   1.401 -0.4983 -0.3312 -0.1719
25598SOL    HW180836   9.743   6.947   1.466 -0.1325 -0.8782 -0.7112
25598SOL    HW280837   9.637   6.881   1.380  0.0526 -0.2851 -1.4138
25599SOL     OW80838   1.376   7.567   4.528  0.5612  0.1863 -0.4232
25599SOL    HW180839   1.348   7.568   4.620  1.2959 -0.2704 -0.1923
25599SOL    HW280840   1.303   7.608   4.481 -0.1882 -0.3349  0.2584
25600SOL     OW80841   1.262   4.804   0.764  0.2100  0.6286 -0.2350
25600SOL    HW180842   1.259   4.886   0.715 -0.7278  0.7213 -0.0304
25600SOL    HW280843   1.185   4.755   0.735 -0.0631  0.4576  0.7488
25601SOL     OW80844   1.437   4.943   9.043 -0.3953 -0.1389 -0.9181
25601SOL    HW180845   1.365   4.969   9.101 -1.1023 -0.7212 -1.5167
25601SOL    HW280846   1.515   4.953   9.097 -0.8925  0.6914 -0.3111
25602SOL     OW80847   6.979   7.458   9.375  0.1554 -0.1144 -0.3675
25602SOL    HW180848   6.921   7.401   9.425  1.1073 -1.3138 -0.5989
25602SOL    HW280849   7.053   7.475   9.433  0.4925 -0.1864 -0.7686
25603SOL     OW80850   7.736   1.305   4.003  0.5308  0.5357 -0.1189
25603SOL    HW180851   7.807   1.245   4.027  2.1617  1.5068 -2.1963
25603SOL    HW280852   7.665   1.284   4.064  1.4142 -2.6919 -0.0421
25604SOL     OW80853   3.925   5.993   0.010 -0.6609  0.1743 -0.4591
25604SOL    HW180854   3.929   5.983   0.105 -0.3692 -1.5951 -0.6242
25604SOL    HW280855   3.975   6.073  -0.008 -2.7911  1.9431  1.0335
25605SOL     OW80856   2.434   5.792   1.384 -0.8227  0.2954  0.1421
25605SOL    HW180857   2.516   5.805   1.336 -0.3271 -0.8621  0.6494
25605SOL    HW280858   2.412   5.879   1.417 -1.6474  1.3355 -2.8463
25606SOL     OW80859   2.021   2.557   5.362  0.5581  0.4708 -0.3030
25606SOL    HW180860   2.026   2.612   5.440  1.3329 -0.7037  0.5202
25606SOL    HW280861   2.107   2.567   5.320  0.3453  0.6656 -0.6890
25607SOL     OW80862   9.031   6.387   6.537  0.3913  0.2526  0.0894
25607SOL    HW180863   8.954   6.410   6.485  0.1291  1.2285  0.8687
25607SOL    HW280864   9.095   6.356   6.473 -0.8952 -1.3364 -0.4957
25608SOL     OW80865   9.663   4.215   3.221 -0.5049 -0.5052 -0.1354
25608SOL    HW180866   9.599   4.190   3.154 -1.1045 -0.4959  0.4226
25608SOL    HW280867   9.728   4.145   3.221  0.3723  0.2536 -1.8176
25609SOL     OW80868   7.019   8.337   6.001 -0.0476 -0.0646 -0.1975
25609SOL    HW180869   7.055   8.255   5.967 -0.5019 -0.4614  0.2593
25609SOL    HW280870   6.951   8.310   6.063 -0.2779  0.6589 -0.1201
25610SOL     OW80871   3.460   0.935   1.388 -0.5009 -0.2835 -0.5157
25610SOL    HW180872   3.511   0.884   1.451 -2.9575 -1.4498  0.6485
25610SOL    HW280873   3.408   0.995   1.441 -1.2703 -0.0058 -1.5442
25611SOL     OW80874   6.928   4.707   6.296 -0.7385 -0.2985  0.1040
25611SOL    HW180875   6.947   4.779   6.236  1.7017 -0.6522  0.3429
25611SOL    HW280876   6.942   4.628   6.244  0.6933 -0.6005  0.9060
25612SOL     OW80877   9.979   3.564  10.110  0.1825 -0.2036 -0.3303
25612SOL    HW180878   9.987   3.657  10.132 -1.9803  0.5754 -2.4491
25612SOL    HW280879  10.069   3.532  10.112  0.7638  1.1637  3.2079
25613SOL     OW80880   5.948   9.316   6.430  0.1983 -0.1338 -0.1886
25613SOL    HW180881   5.954   9.410   6.450  0.7139 -0.3793  0.8663
25613SOL    HW280882   5.855   9.302   6.413  0.1512  0.6131 -0.6064
25614SOL     OW80883   4.245   0.691   0.741  0.2564 -0.3913  0.1215
25614SOL    HW180884   4.251   0.722   0.831 -1.7982 -0.9380  0.4977
25614SOL    HW280885   4.207   0.604   0.748 -0.0532 -0.3911 -1.2769
25615SOL     OW80886   6.913   0.344   7.780  0.0226  0.3764  0.5732
25615SOL    HW180887   6.947   0.255   7.781 -1.0342 -0.0311  0.8130
25615SOL    HW280888   6.898   0.366   7.872 -3.4511 -0.6893  0.3784
25616SOL     OW80889   7.876   9.653   4.884  0.0607  0.2272  0.1006
25616SOL    HW180890   7.943   9.719   4.901 -1.0195  0.9673  1.7752
25616SOL    HW280891   7.909   9.603   4.809  2.8097  0.0535  1.3347
25617SOL     OW80892   0.532   2.738   1.063  0.0605 -0.3755 -0.1906
25617SOL    HW180893   0.610   2.717   1.115  0.1520  0.9467  0.2280
25617SOL    HW280894   0.535   2.676   0.990  1.8461  0.0334 -0.5051
25618SOL     OW80895   7.951   0.512   7.897 -0.2799 -0.3913  0.5606
25618SOL    HW180896   7.895   0.445   7.858  1.4889 -2.5552  1.5312
25618SOL    HW280897   7.957   0.487   7.990 -1.8109  2.7776  1.6825
25619SOL     OW80898  10.026   3.947   7.267  0.3144 -0.1129  0.5629
25619SOL    HW180899   9.992   3.901   7.190  1.6498  0.2988 -0.2984
25619SOL    HW280900  10.109   3.984   7.238 -0.6110  2.7163  1.2816
25620SOL     OW80901   7.984  10.087   8.685 -0.4930  0.1473  0.0042
25620SOL    HW180902   8.075  10.110   8.698 -0.8735  1.7960 -0.0284
25620SOL    HW280903   7.936  10.168   8.701 -2.0178 -0.8452  0.7143
25621SOL     OW80904   7.678   1.881   2.903 -0.0308  0.0761 -0.3910
25621SOL    HW180905   7.768   1.911   2.887 -0.3342  0.3753 -1.6852
25621SOL    HW280906   7.676   1.793   2.865 -0.7525  0.7667 -2.0644
25622SOL     OW80907   7.975   1.449   8.670 -0.1219  0.0194 -0.0307
25622SOL    HW180908   7.962   1.469   8.577  1.4059  0.5252 -0.1680
25622SOL    HW280909   7.892   1.413   8.699 -0.6495 -0.0711 -1.5818
25623SOL     OW80910   6.777   0.593   1.350 -0.0455  0.1521  0.0103
25623SOL    HW180911   6.750   0.663   1.409 -0.9370  1.0309 -1.3958
25623SOL    HW280912   6.790   0.636   1.266  2.4722 -0.8334 -0.1914
25624SOL     OW80913   3.329   1.252   1.196 -0.4777  0.0419 -0.3044
25624SOL    HW180914   3.336   1.174   1.141  0.1984  0.1667 -0.4029
25624SOL    HW280915   3.248   1.238   1.247  0.4566 -1.4951  0.8589
25625SOL     OW80916   2.759   9.470   8.873  0.1572  0.4462 -0.3934
25625SOL    HW180917   2.804   9.437   8.795 -0.5584 -0.0470 -0.6087
25625SOL    HW280918   2.672   9.432   8.867  0.5778 -0.9376  1.5111
25626SOL     OW80919   4.483   8.200   4.731  0.1536 -0.4541 -0.1181
25626SOL    HW180920   4.560   8.180   4.783  0.0119 -0.7600 -0.0239
25626SOL    HW280921   4.495   8.151   4.650 -0.0980 -0.7679  0.0314
25627SOL     OW80922  10.269  10.238   1.019  0.5086 -0.7896 -0.1245
25627SOL    HW180923  10.243  10.301   0.951 -0.3221 -1.0109 -0.0221
25627SOL    HW280924  10.284  10.157   0.971  0.4561 -0.8084 -0.1087
25628SOL     OW80925   9.695   3.947   9.572 -0.2069  0.3384  0.5319
25628SOL    HW180926   9.638   3.914   9.642 -0.9417 -0.4414 -0.4054
25628SOL    HW280927   9.652   3.920   9.491  1.0562  0.4782 -0.2224
25629SOL     OW80928   0.709   1.325   2.531 -0.6880 -0.2869 -0.3373
25629SOL    HW180929   0.742   1.296   2.446  1.0833  0.7865 -0.0735
25629SOL    HW280930   0.761   1.275   2.595  0.4732  1.3679  0.0892
25630SOL     OW80931   5.926   8.122   1.287 -0.4852 -0.5125  0.0041
25630SOL    HW180932   5.905   8.039   1.329 -0.0688 -1.9725 -2.4867
25630SOL    HW280933   5.851   8.140   1.230  0.3255 -0.2737 -1.0190
25631SOL     OW80934   2.807   4.287   6.396 -0.8337 -0.1640 -0.1674
25631SOL    HW180935   2.712   4.297   6.399 -1.0153  0.5814 -3.6907
25631SOL    HW280936   2.821   4.226   6.323  1.3979 -1.4614  1.2468
25632SOL     OW80937   5.942   5.737   0.476  0.1479 -0.1711  0.2167
25632SOL    HW180938   5.875   5.781   0.528 -1.2746 -3.4155  1.3298
25632SOL    HW280939   5.927   5.644   0.489  3.4884 -1.1072 -1.3427
25633SOL     OW80940   5.576   1.187   8.201 -0.5166 -0.3274 -0.3423
25633SOL    HW180941   5.627   1.263   8.228 -1.5919  0.4289 -0.3546
25633SOL    HW280942   5.553   1.204   8.110 -1.3068 -0.3339 -0.1575
25634SOL     OW80943   6.811   7.141   5.365  0.3051 -0.1330  0.5113
25634SOL    HW180944   6.903   7.136   5.391  0.1535 -1.1681  0.9172
25634SOL    HW280945   6.810   7.202   5.291  1.2164  0.3939  0.9172
25635SOL     OW80946   2.957   7.690   8.115 -0.0597 -0.0330 -0.6066
25635SOL    HW180947   2.870   7.729   8.100  0.0398  0.9138  1.0794
25635SOL    HW280948   2.944   7.629   8.187  0.5991 -0.1945 -0.6166
25636SOL     OW80949   1.557   0.446   2.471 -0.3917  0.2449 -0.2462
25636SOL    HW180950   1.603   0.374   2.514  0.1053  0.3251 -0.6309
25636SOL    HW280951   1.490   0.473   2.534 -1.1818 -1.1450 -0.4713
25637SOL     OW80952   7.412   2.060   1.116 -0.5159  0.1644 -0.0421
25637SOL    HW180953   7.323   2.087   1.135 -0.6778 -0.7373  0.5451
25637SOL    HW280954   7.403   1.976   1.071  0.0391 -0.1649  0.4366
25638SOL     OW80955   2.290   4.885   0.385  0.1260  0.1552  0.5843
25638SOL    HW180956   2.221   4.839   0.336 -0.7980  0.5338  1.4805
25638SOL    HW280957   2.242   4.946   0.441  1.2906  1.5883  0.0696
25639SOL     OW80958   8.154   0.374  10.002 -0.0817 -0.5363  0.6927
25639SOL    HW180959   8.243   0.397   9.974  0.1228 -2.1163 -0.0913
25639SOL    HW280960   8.097   0.421   9.942  0.2879 -1.0747 -0.1068
25640SOL     OW80961   9.889   3.567   3.085 -0.1897  0.0865  0.2442
25640SOL    HW180962   9.953   3.635   3.063  0.7370 -0.0773  2.1490
25640SOL    HW280963   9.826   3.569   3.014  1.9915  0.1882 -1.8066
25641SOL     OW80964   0.429   3.753   8.477 -0.2843  0.0034 -0.1781
25641SOL    HW180965   0.457   3.835   8.518 -1.4976  0.0878  0.5278
25641SOL    HW280966   0.461   3.685   8.537 -0.2214  0.0195 -0.1931
25642SOL     OW80967   9.118  10.121   7.518  0.3854 -0.6336  0.2409
25642SOL    HW180968   9.097  10.202   7.564  0.1418 -1.1500  1.0639
25642SOL    HW280969   9.126  10.147   7.426 -1.1912  0.0579  0.2763
25643SOL     OW80970   7.954   4.458   1.673 -0.7052  0.3964 -0.1438
25643SOL    HW180971   7.900   4.385   1.703  0.3347  0.3431  1.7495
25643SOL    HW280972   8.034   4.452   1.726  1.3645  0.2734 -3.0318
25644SOL     OW80973   2.317   7.857   5.340 -0.7621  0.2654 -0.3423
25644SOL    HW180974   2.225   7.872   5.360 -0.4465  2.4913 -0.3299
25644SOL    HW280975   2.350   7.942   5.312  1.3213 -0.4549 -0.2640
25645SOL     OW80976   9.347   9.919   7.488 -0.2627 -0.5310  0.4976
25645SOL    HW180977   9.324   9.832   7.457 -2.1526 -0.1584  0.7324
25645SOL    HW280978   9.265   9.968   7.487  1.0888  2.0107 -1.9375
25646SOL     OW80979   4.569   0.972   3.618 -0.2194 -0.5270 -0.1928
25646SOL    HW180980   4.601   1.053   3.577 -0.0277 -1.3832 -1.8051
25646SOL    HW280981   4.624   0.961   3.696 -0.5452  1.1177  0.3109
25647SOL     OW80982   0.616   1.976   3.048 -0.2014  0.1696  0.2071
25647SOL    HW180983   0.611   1.986   2.953 -0.4706 -1.8310 -0.0193
25647SOL    HW280984   0.526   1.992   3.078  0.0382  1.6070  0.2570
25648SOL     OW80985   5.431   6.112   4.311 -0.1263  0.9990  0.1613
25648SOL    HW180986   5.344   6.092   4.274  0.6828  1.4018 -2.1319
25648SOL    HW280987   5.430   6.070   4.397 -0.9547 -3.0873 -1.5706
25649SOL     OW80988   1.613   1.409   1.383 -0.2113  0.4059 -0.0507
25649SOL    HW180989   1.535   1.456   1.352 -0.7282  0.6418  1.5266
25649SOL    HW280990   1.684   1.472   1.374 -0.2592  0.3246 -1.1281
25650SOL     OW80991   1.619   1.576   7.738  0.2051  0.3376 -0.3777
25650SOL    HW180992   1.671   1.596   7.816  0.1759  0.2618 -0.3386
25650SOL    HW280993   1.660   1.626   7.668  0.6971 -0.1944 -0.4734
25651SOL     OW80994   7.322   0.729   3.923 -0.4948 -0.2693 -0.3889
25651SOL    HW180995   7.367   0.717   4.006 -0.1725 -1.2584 -0.6992
25651SOL    HW280996   7.247   0.786   3.944 -0.7384 -0.9683  0.6848
25652SOL     OW80997   3.370   5.816   2.705 -0.9696 -0.3528 -0.6685
25652SOL    HW180998   3.433   5.881   2.673 -0.7343 -0.0947  0.2994
25652SOL    HW280999   3.414   5.773   2.778 -1.2069 -1.4667 -1.1592
25653SOL     OW81000   7.711   0.461   9.469  0.2995 -0.3107 -0.5393
25653SOL    HW181001   7.783   0.503   9.421  1.6605 -1.2743  0.5978
25653SOL    HW281002   7.693   0.521   9.542  0.0657 -0.1558 -0.7237
25654SOL     OW81003   1.213   5.095   0.412  0.1414 -0.1601  0.2301
25654SOL    HW181004   1.223   5.065   0.503  0.1115  0.9849  0.6202
25654SOL    HW281005   1.257   5.028   0.360  0.3633 -0.7127  1.1061
25655SOL     OW81006   0.386   8.329   3.283  1.3352  0.4534  0.5932
25655SOL    HW181007   0.329   8.404   3.267 -0.5061 -1.2354 -1.3041
25655SOL    HW281008   0.351   8.289   3.363  0.5128  0.0536  0.0460
25656SOL     OW81009   7.384   0.187   7.567  0.1518 -0.0660  0.4354
25656SOL    HW181010   7.400   0.230   7.651 -0.6170 -0.0301  0.5762
25656SOL    HW281011   7.469   0.154   7.540  0.5829  0.7270  0.7802
25657SOL     OW81012   7.589   6.766   6.272 -0.4530 -0.0768 -0.1365
25657SOL    HW181013   7.563   6.792   6.184  0.9621  0.9084 -0.3049
25657SOL    HW281014   7.570   6.841   6.327  0.4878  0.0658  0.0168
25658SOL     OW81015   9.305   8.541   8.857  0.1128  0.1332  0.2412
25658SOL    HW181016   9.340   8.492   8.932 -0.2985 -1.3108 -0.4659
25658SOL    HW281017   9.212   8.553   8.877  0.4913  2.0039  1.0947
25659SOL     OW81018   2.491   4.944   6.520 -0.3408 -0.0924 -0.2172
25659SOL    HW181019   2.398   4.957   6.503  0.2181  3.1047 -1.4809
25659SOL    HW281020   2.512   4.861   6.476 -3.1223 -2.7997  3.0335
25660SOL     OW81021   1.332   9.135   3.935  0.2406 -0.4588  0.5247
25660SOL    HW181022   1.319   9.195   4.009 -0.7703 -0.1591  0.1203
25660SOL    HW281023   1.341   9.192   3.859  0.9249 -0.7774  0.3638
25661SOL     OW81024   2.780   6.543   5.681 -0.2680  0.7109 -0.1236
25661SOL    HW181025   2.690   6.569   5.661 -0.4102 -0.1248 -0.5869
25661SOL    HW281026   2.826   6.626   5.695 -1.3590  1.1248  1.2876
25662SOL     OW81027   0.094   3.136   9.959 -0.1274  0.1052 -0.1804
25662SOL    HW181028   0.157   3.067   9.978 -0.3442 -0.0750 -0.1145
25662SOL    HW281029   0.100   3.149   9.864 -0.1072 -0.0246 -0.1973
25663SOL     OW81030   3.976  10.115   0.572 -0.2298 -0.2713  0.0726
25663SOL    HW181031   3.883  10.136   0.575 -0.0742  0.4245  2.4100
25663SOL    HW281032   3.990  10.057   0.647  1.3608  0.4325  0.3759
25664SOL     OW81033   2.705   7.289   5.538  0.0525 -0.5981 -0.2427
25664SOL    HW181034   2.633   7.270   5.599 -0.3974 -0.7546 -0.8053
25664SOL    HW281035   2.674   7.364   5.488 -0.2952 -1.4609 -1.3702
25665SOL     OW81036   2.846   9.006   3.046 -0.0932  0.2887 -0.1946
25665SOL    HW181037   2.798   8.925   3.063 -0.3158  0.7055  1.3101
25665SOL    HW281038   2.915   9.007   3.112  0.9926  0.5081 -1.2891
25666SOL     OW81039   4.243   1.578   1.005 -0.0586  0.1289  0.0543
25666SOL    HW181040   4.281   1.640   1.068 -2.1410  1.5325  0.0290
25666SOL    HW281041   4.182   1.526   1.056  0.7481 -1.0864 -0.1852
25667SOL     OW81042   1.374   1.288   7.844 -0.7702 -0.0272  0.2611
25667SOL    HW181043   1.394   1.308   7.753 -0.7142  2.2551  0.7110
25667SOL    HW281044   1.281   1.309   7.853 -0.9880 -1.0509  0.5522
25668SOL     OW81045   8.527   2.643   0.284 -0.6316  0.7807 -0.0038
25668SOL    HW181046   8.465   2.654   0.355 -1.6787 -0.5227 -0.6629
25668SOL    HW281047   8.512   2.553   0.253  0.5779  0.9316 -1.1269
25669SOL     OW81048   3.629   4.393   2.044 -0.3460 -0.0698  0.0239
25669SOL    HW181049   3.609   4.473   2.092 -0.6012 -0.4626  0.5785
25669SOL    HW281050   3.724   4.388   2.044 -0.2881  0.6921 -0.7844
25670SOL     OW81051   5.148   8.548   4.584  0.1346  0.5680  0.6036
25670SOL    HW181052   5.226   8.503   4.553 -0.4182  0.4880 -0.7080
25670SOL    HW281053   5.088   8.478   4.612  0.3361  0.6082  1.1402
25671SOL     OW81054   8.834   0.764   3.571 -0.3361 -0.5754  0.5748
25671SOL    HW181055   8.842   0.771   3.476 -0.3421 -2.3423  0.4072
25671SOL    HW281056   8.740   0.764   3.588 -0.4839 -3.3067  0.2261
25672SOL     OW81057   8.749   7.089   7.339 -0.0237  0.4346 -0.3797
25672SOL    HW181058   8.734   7.036   7.260  1.0404 -1.5418  0.6751
25672SOL    HW281059   8.798   7.031   7.398 -1.9500  1.3183  2.3033
25673SOL     OW81060   8.040   1.822   5.843 -0.8307 -0.6727 -0.0078
25673SOL    HW181061   8.097   1.748   5.823  0.4116  0.3510 -0.3740
25673SOL    HW281062   8.013   1.856   5.758 -1.3341 -0.6356  0.1577
25674SOL     OW81063   6.773   3.044   9.058 -0.2490 -0.1543  0.8839
25674SOL    HW181064   6.724   3.125   9.075  0.6219  0.8877 -1.2139
25674SOL    HW281065   6.816   3.024   9.141  0.4219  2.2216  1.1817
25675SOL     OW81066   8.696   0.023   7.279  0.0370 -0.3140  0.1898
25675SOL    HW181067   8.693  -0.060   7.326  1.6291  0.5571  1.9541
25675SOL    HW281068   8.626   0.076   7.318  0.2218 -0.1951  0.3606
25676SOL     OW81069   2.967   1.386   5.812  0.0685  0.2936  0.0405
25676SOL    HW181070   3.049   1.364   5.855  0.4035  2.4597  0.6369
25676SOL    HW281071   2.975   1.350   5.724  1.8354  0.8029 -0.0370
25677SOL     OW81072   0.960   8.436   1.088  0.3642 -0.2888  0.0351
25677SOL    HW181073   0.908   8.516   1.086  0.2137 -0.4019 -1.0901
25677SOL    HW281074   1.046   8.465   1.118  0.5027  0.4135 -1.0025
25678SOL     OW81075   1.207   5.241   4.598  0.3956 -0.1555  0.3165
25678SOL    HW181076   1.167   5.271   4.516  0.3986 -0.9657  0.0039
25678SOL    HW281077   1.301   5.242   4.580  0.5658  1.7716  1.0589
25679SOL     OW81078   5.182   8.637   6.175  0.0446  0.1096 -0.5209
25679SOL    HW181079   5.139   8.674   6.097 -0.2408  1.0752  0.0832
25679SOL    HW281080   5.276   8.653   6.160  0.0221 -0.0251 -0.8228
25680SOL     OW81081   7.554   5.376   8.615  0.0463 -0.3878 -0.1206
25680SOL    HW181082   7.538   5.331   8.698 -0.5251  0.2413  0.1205
25680SOL    HW281083   7.535   5.310   8.548  0.9025 -1.0264  0.2388
25681SOL     OW81084   4.513   1.535   2.082  0.3194 -0.6098  0.2662
25681SOL    HW181085   4.588   1.507   2.135  1.1719 -0.0824 -0.6166
25681SOL    HW281086   4.475   1.608   2.131  1.5205  0.3349 -0.1395
25682SOL     OW81087   1.015   9.367   6.209  0.6231  0.2112  0.3703
25682SOL    HW181088   0.984   9.405   6.126  0.4029 -1.5476 -0.4195
25682SOL    HW281089   0.935   9.338   6.253  0.5668  2.7635  2.1317
25683SOL     OW81090   4.920   3.212   1.619  0.2736  0.1662 -0.2709
25683SOL    HW181091   4.897   3.268   1.693 -0.0303  0.1508 -0.3533
25683SOL    HW281092   4.917   3.270   1.543 -1.4189 -0.2425 -0.5614
25684SOL     OW81093   1.502   8.246   3.358  0.4302 -0.2543 -0.1283
25684SOL    HW181094   1.511   8.341   3.351  0.8363 -0.0704  2.0070
25684SOL    HW281095   1.536   8.226   3.446  1.1261 -2.4740 -0.8459
25685SOL     OW81096   7.936   7.958   6.228 -0.1544  0.2952 -0.3403
25685SOL    HW181097   7.987   8.011   6.290 -0.2723 -1.2447  1.1364
25685SOL    HW281098   7.997   7.941   6.156  1.0787 -0.5503  0.8542
25686SOL     OW81099   5.821   4.011   2.053  0.4128 -0.3329 -0.1093
25686SOL    HW181100   5.822   4.075   1.982  0.5704 -0.3396 -0.1145
25686SOL    HW281101   5.749   3.952   2.032 -1.0094  0.9693  0.8981
25687SOL     OW81102   6.524   8.713   5.319 -0.2069  0.5112 -0.1793
25687SOL    HW181103   6.501   8.727   5.227  0.6673  0.5277 -0.4065
25687SOL    HW281104   6.478   8.633   5.343 -1.7540  1.3543 -0.1428
25688SOL     OW81105   9.599   5.814   0.370  0.2030 -0.1523 -0.4160
25688SOL    HW181106   9.611   5.908   0.356  2.8449 -0.5200 -1.2648
25688SOL    HW281107   9.662   5.793   0.440  0.0555 -1.3755 -0.6321
25689SOL     OW81108   7.395   7.639   4.504  0.2830  0.2253  0.0798
25689SOL    HW181109   7.335   7.714   4.501  0.8473  0.8152  2.1284
25689SOL    HW281110   7.481   7.678   4.519  0.8869 -0.7382 -0.7828
25690SOL     OW81111   4.191   1.258   5.756 -0.0019  0.3157  0.4183
25690SOL    HW181112   4.179   1.319   5.829 -2.1923  0.1600  0.2667
25690SOL    HW281113   4.189   1.171   5.797 -0.9171  0.2394  0.2359
25691SOL     OW81114   4.334   9.870   5.687 -0.0116 -0.5643  0.1011
25691SOL    HW181115   4.319   9.955   5.646 -0.3575 -0.1388  1.0746
25691SOL    HW281116   4.406   9.832   5.637 -0.6080 -0.2010 -1.0798
25692SOL     OW81117   6.818   4.102   0.958  0.0978  0.3000  0.3550
25692SOL    HW181118   6.914   4.098   0.961  0.0746 -1.1273 -0.0885
25692SOL    HW281119   6.796   4.081   0.867 -0.6688 -0.6812  0.7506
25693SOL     OW81120   2.996   2.970   0.509  0.2563  0.4082  0.0175
25693SOL    HW181121   3.026   2.963   0.600  0.2386  0.3609  0.0200
25693SOL    HW281122   2.939   3.047   0.508 -1.3661 -0.7228  0.5038
25694SOL     OW81123   7.943   3.852   7.283  0.1686 -0.0808  0.6989
25694SOL    HW181124   7.927   3.758   7.272  2.3197 -0.3102 -1.4030
25694SOL    HW281125   7.867   3.894   7.242 -0.0611 -0.9347  0.2139
25695SOL     OW81126   8.890   7.027   8.508  0.2641 -0.5630 -0.2803
25695SOL    HW181127   8.879   6.945   8.460  1.7220 -0.5176 -0.7417
25695SOL    HW281128   8.967   7.012   8.563  1.3233  0.8937 -1.2983
25696SOL     OW81129   3.867   4.121   2.114  0.6057  0.6640 -0.0064
25696SOL    HW181130   3.796   4.166   2.160  1.7780  2.2426  0.3737
25696SOL    HW281131   3.838   4.115   2.023 -1.3825 -1.7150  0.6645
25697SOL     OW81132   0.200  10.064   2.437  0.0191 -0.4931 -0.4952
25697SOL    HW181133   0.277  10.122   2.435 -0.2238 -0.0897  0.8294
25697SOL    HW281134   0.143  10.097   2.368  0.0791  0.5903 -0.0459
25698SOL     OW81135   3.736   3.507   3.526  0.5988 -0.2504  0.4453
25698SOL    HW181136   3.673   3.509   3.453  1.1074 -0.1717  0.0052
25698SOL    HW281137   3.716   3.585   3.577 -0.1486 -0.6106  0.7275
25699SOL     OW81138  10.213   7.985   9.794 -0.7675 -0.0969  0.4034
25699SOL    HW181139  10.143   8.027   9.744  0.6003  1.7264 -0.1223
25699SOL    HW281140  10.203   8.019   9.883 -1.1375 -0.5949  0.5481
25700SOL     OW81141   0.075   1.984   4.497  0.0897 -0.1592  0.4898
25700SOL    HW181142   0.004   1.919   4.504  0.2314 -0.5224 -0.9808
25700SOL    HW281143   0.126   1.954   4.421  0.3130  1.5314 -0.0552
25701SOL     OW81144   4.460   5.588   0.658 -0.5553 -0.5479 -0.1691
25701SOL    HW181145   4.519   5.531   0.609 -1.0837 -1.8174  0.6084
25701SOL    HW281146   4.389   5.608   0.597  0.1445  0.1450 -0.7760
25702SOL     OW81147   7.424   6.178   1.560 -0.1962  0.3068  0.1596
25702SOL    HW181148   7.438   6.087   1.534  0.2415  0.9235 -1.9601
25702SOL    HW281149   7.502   6.224   1.527 -1.6001  1.8435 -1.1777
25703SOL     OW81150   4.886   6.767   0.940 -0.2295 -0.5958 -0.7161
25703SOL    HW181151   4.925   6.687   0.975 -0.3449 -0.7754 -0.9908
25703SOL    HW281152   4.792   6.752   0.943 -0.3029 -0.0116  0.2941
25704SOL     OW81153   1.187   4.098   8.006 -0.6133 -0.0609  0.3905
25704SOL    HW181154   1.203   4.179   7.959 -1.1717  0.4856  1.1259
25704SOL    HW281155   1.095   4.101   8.030 -0.5491 -0.7350  0.7534
25705SOL     OW81156   5.972   1.711   5.992 -0.8957  0.0969  0.5625
25705SOL    HW181157   5.947   1.638   6.048  0.6325 -1.1529 -0.2941
25705SOL    HW281158   5.990   1.783   6.053 -2.1365 -0.2949  1.4368
25706SOL     OW81159   6.945   9.823   1.908  0.0785 -0.7131 -0.2564
25706SOL    HW181160   6.902   9.754   1.958 -0.6100 -0.1714 -0.0886
25706SOL    HW281161   6.960   9.784   1.822 -1.7490 -0.5752 -0.6726
25707SOL     OW81162   7.619   3.300   5.388  0.1482 -0.1998  0.0140
25707SOL    HW181163   7.588   3.279   5.477 -0.5392  0.7308  0.0181
25707SOL    HW281164   7.649   3.391   5.395  2.4110 -0.8903 -0.1418
25708SOL     OW81165   9.354   4.014   0.548 -0.3405  0.7218 -0.1961
25708SOL    HW181166   9.431   3.992   0.600 -0.7230 -0.8543 -0.2470
25708SOL    HW281167   9.374   4.099   0.510  3.2629 -1.2786 -3.5548
25709SOL     OW81168   3.980   8.279   2.411 -0.1303 -0.2680  0.2616
25709SOL    HW181169   3.980   8.364   2.368  1.3720  0.1849  1.0720
25709SOL    HW281170   4.020   8.220   2.346 -0.9129 -0.3082 -0.1939
25710SOL     OW81171   6.622   2.316   9.997  0.5502 -0.4810  0.0987
25710SOL    HW181172   6.587   2.292  10.083 -0.7697 -1.6050 -0.6980
25710SOL    HW281173   6.607   2.410   9.990  0.4921 -0.4156  1.0185
25711SOL     OW81174   5.364   2.238   7.587  0.0846 -0.4360  0.2695
25711SOL    HW181175   5.338   2.329   7.602 -0.3325 -0.2076 -1.6300
25711SOL    HW281176   5.388   2.235   7.495  1.5675 -1.9268  0.6722
25712SOL     OW81177  10.011   5.491   9.170  0.0641  0.2472  0.2885
25712SOL    HW181178   9.933   5.513   9.220  0.0257 -0.2152  0.4360
25712SOL    HW281179  10.083   5.535   9.216 -0.1486  0.9463 -0.0397
25713SOL     OW81180   3.879   1.775   8.632  0.0626  0.3064  0.3134
25713SOL    HW181181   3.791   1.802   8.604  0.5324  0.7632 -0.7907
25713SOL    HW281182   3.886   1.684   8.602 -0.0326  0.2761  0.3845
25714SOL     OW81183   2.231   4.183   4.593  0.0932 -0.1535 -0.8799
25714SOL    HW181184   2.304   4.169   4.653 -0.0156 -2.7301 -1.2140
25714SOL    HW281185   2.220   4.098   4.549 -2.6667  0.3313 -1.3116
25715SOL     OW81186   2.092   1.714   0.504  0.5145 -0.2068 -0.0760
25715SOL    HW181187   2.185   1.715   0.481  0.5386 -2.0311 -0.1931
25715SOL    HW281188   2.058   1.635   0.463 -1.0667  0.3401  0.1154
25716SOL     OW81189   2.694   8.901   4.671 -0.1871  0.3195  0.2025
25716SOL    HW181190   2.740   8.962   4.613  0.2456  1.0423  1.2692
25716SOL    HW281191   2.649   8.957   4.735 -3.3924 -0.3186 -1.3223
25717SOL     OW81192   6.450   1.459   0.710 -0.2203 -0.0549  0.4702
25717SOL    HW181193   6.511   1.511   0.763 -1.2546 -0.4860  2.1709
25717SOL    HW281194   6.506   1.395   0.666  0.6243 -0.1405  1.6114
25718SOL     OW81195   2.370   3.338   6.477  0.9834  0.0500  0.5765
25718SOL    HW181196   2.381   3.275   6.548 -1.6054 -0.3974  0.7015
25718SOL    HW281197   2.333   3.415   6.519 -0.1819 -0.0669 -0.1895
25719SOL     OW81198   5.984   5.130   7.410 -0.3117 -0.1485 -0.4247
25719SOL    HW181199   5.900   5.085   7.414 -0.2902 -0.1017  2.5991
25719SOL    HW281200   5.980   5.195   7.480  2.1757 -0.0103 -0.3257
25720SOL     OW81201   2.266   1.118   4.624 -0.3751 -0.2360 -0.1952
25720SOL    HW181202   2.239   1.044   4.678  1.8685 -0.4724  0.7350
25720SOL    HW281203   2.353   1.093   4.592  0.8152  2.2449  0.7806
25721SOL     OW81204   3.766   9.488   9.438  0.1299  0.7699 -0.0490
25721SOL    HW181205   3.851   9.531   9.450  1.5109 -1.8592  0.5117
25721SOL    HW281206   3.743   9.458   9.526 -1.5221  1.6240 -0.1648
25722SOL     OW81207   1.069   4.718   5.801  0.2607 -0.0560 -0.0880
25722SOL    HW181208   1.076   4.670   5.884  1.0308  2.2836  1.2868
25722SOL    HW281209   0.989   4.770   5.811 -1.9755 -2.6920 -2.5687
25723SOL     OW81210   5.735   4.096   0.876 -0.3593 -0.6823 -0.9352
25723SOL    HW181211   5.719   4.091   0.782  0.5832  1.3042 -1.2616
25723SOL    HW281212   5.829   4.116   0.883 -0.5639 -0.0758  0.3773
25724SOL     OW81213   3.389   0.194   5.683  0.3311  0.1380 -0.2361
25724SOL    HW181214   3.297   0.222   5.678 -0.0545 -1.2889 -2.0502
25724SOL    HW281215   3.437   0.262   5.636 -0.1087 -0.2436 -1.2696
25725SOL     OW81216   2.113   0.079   1.343 -0.2712  0.1601 -0.2233
25725SOL    HW181217   2.029   0.108   1.377  0.1994  1.2209  0.0700
25725SOL    HW281218   2.128  -0.006   1.384 -0.6508  0.5018  0.6402
25726SOL     OW81219   6.303   8.071   8.722 -0.0106  0.3548  0.3038
25726SOL    HW181220   6.327   8.007   8.655  2.4451  1.4072  0.0909
25726SOL    HW281221   6.381   8.126   8.733 -1.2208  1.8462  2.1726
25727SOL     OW81222   9.147   2.863   8.591  0.1706 -0.2185  0.0648
25727SOL    HW181223   9.125   2.792   8.530  1.3202 -0.5246 -0.0053
25727SOL    HW281224   9.172   2.936   8.534 -1.6771  0.5175  0.1121
25728SOL     OW81225   5.059   4.395   1.690  0.2089  0.0963 -0.2883
25728SOL    HW181226   5.090   4.459   1.754 -0.2423  0.5113 -0.4855
25728SOL    HW281227   4.970   4.423   1.668 -0.0313 -0.6444 -0.3068
25729SOL     OW81228   7.378   0.324   5.374  0.5752 -0.5910  0.6667
25729SOL    HW181229   7.436   0.389   5.413 -1.7822  1.5486  0.8592
25729SOL    HW281230   7.366   0.258   5.442  1.4034 -0.1439  1.2635
25730SOL     OW81231   2.077  10.268   2.980 -0.1970  0.0610 -0.2484
25730SOL    HW181232   2.034  10.291   2.897  0.6562  1.6655 -0.2828
25730SOL    HW281233   2.125  10.347   3.005  2.5019 -1.5433 -0.0479
25731SOL     OW81234   8.579   0.901   0.390  0.9731  0.3802 -0.1985
25731SOL    HW181235   8.638   0.971   0.360 -0.3697  1.9517  0.6306
25731SOL    HW281236   8.609   0.881   0.479 -0.1905  1.7989  0.5601
25732SOL     OW81237   8.816   3.122   9.998 -0.5449 -0.1075  0.0804
25732SOL    HW181238   8.828   3.058   9.928 -1.2343 -3.1204  2.4721
25732SOL    HW281239   8.899   3.123  10.045 -1.2806 -1.2783  1.5139
25733SOL     OW81240   7.396   7.919   7.441  0.2508 -0.4146  0.4876
25733SOL    HW181241   7.443   7.923   7.358  0.1898 -2.0982  0.3217
25733SOL    HW281242   7.464   7.907   7.507  0.1654 -1.6764  0.3733
25734SOL     OW81243   0.292   7.638   6.516 -0.9141 -0.0511 -0.6076
25734SOL    HW181244   0.219   7.602   6.566 -0.6992  0.8202  0.3769
25734SOL    HW281245   0.316   7.718   6.564 -0.0738  0.2883 -1.5745
25735SOL     OW81246   9.082   2.953   7.679 -0.3584 -0.3093 -0.0722
25735SOL    HW181247   9.171   2.988   7.682 -0.1248 -0.6423 -1.8787
25735SOL    HW281248   9.093   2.860   7.695  0.2710 -1.1754 -4.1878
25736SOL     OW81249   1.451   4.377   9.221 -0.2215 -0.2009 -0.0772
25736SOL    HW181250   1.376   4.437   9.226 -0.1019 -0.1113  0.7687
25736SOL    HW281251   1.439   4.317   9.294 -0.3808 -1.2721 -0.9735
25737SOL     OW81252   0.430   5.992   8.432 -0.2907  0.4644 -0.5187
25737SOL    HW181253   0.394   6.030   8.512 -0.3944  0.0145 -0.3483
25737SOL    HW281254   0.373   6.026   8.362 -0.6513  0.2754 -0.3204
25738SOL     OW81255   8.457   6.719   4.415  0.3746 -0.7824 -0.1087
25738SOL    HW181256   8.419   6.760   4.493  1.1867 -0.3342  0.0564
25738SOL    HW281257   8.547   6.752   4.411  0.7502 -1.8131 -0.5068
25739SOL     OW81258   9.195   6.178   3.271 -0.4866 -0.0130  0.4561
25739SOL    HW181259   9.243   6.095   3.260 -0.9150 -0.3748  1.2239
25739SOL    HW281260   9.137   6.162   3.345 -1.0202  0.7824  0.2173
25740SOL     OW81261   3.153   5.255   3.403  0.0015 -0.0897  0.0033
25740SOL    HW181262   3.215   5.264   3.475 -0.3027 -0.1733  0.2754
25740SOL    HW281263   3.191   5.308   3.332 -0.8124  1.8728  0.9646
25741SOL     OW81264   0.181   0.488   6.897  0.1188  0.1922  0.0300
25741SOL    HW181265   0.111   0.552   6.889 -0.2886 -0.3231 -0.7547
25741SOL    HW281266   0.136   0.405   6.916  0.3923 -0.3337 -1.4070
25742SOL     OW81267   2.525   3.372   4.813  0.6643  0.0881 -0.2823
25742SOL    HW181268   2.586   3.410   4.877 -1.6456 -0.6471  2.5781
25742SOL    HW281269   2.561   3.286   4.794  0.5781 -0.3701  1.4243
25743SOL     OW81270   2.806   3.996   9.234 -0.3540 -0.2519 -0.3066
25743SOL    HW181271   2.794   3.911   9.191 -1.7757 -0.2787  0.1155
25743SOL    HW281272   2.788   4.060   9.165 -0.3425 -0.2882 -0.3437
25744SOL     OW81273   3.584   1.319   2.982  0.6055 -0.0047 -0.6570
25744SOL    HW181274   3.561   1.412   2.981 -1.4803 -0.3913 -3.8980
25744SOL    HW281275   3.658   1.312   2.921  0.5889 -0.5360 -0.6240
25745SOL     OW81276   9.500   7.855   5.583 -0.3450  0.4665 -0.1976
25745SOL    HW181277   9.435   7.900   5.637 -2.1341 -2.2387  0.1071
25745SOL    HW281278   9.559   7.813   5.645 -1.1927 -0.9535 -0.2841
25746SOL     OW81279   1.335   9.202   9.775 -0.1827  0.0508 -0.7377
25746SOL    HW181280   1.321   9.110   9.798  0.0143  0.5304  1.5204
25746SOL    HW281281   1.412   9.228   9.825 -0.6776  1.6446 -0.7555
25747SOL     OW81282   6.386   1.386   2.230 -0.1528  0.2054 -0.5369
25747SOL    HW181283   6.476   1.393   2.262 -0.0760 -3.5145  0.4322
25747SOL    HW281284   6.390   1.421   2.140  2.1853  0.3091 -0.4594
25748SOL     OW81285   8.159   4.897   9.160  0.4371 -0.0844  0.5687
25748SOL    HW181286   8.202   4.853   9.233  1.7877 -0.3891 -0.3731
25748SOL    HW281287   8.231   4.936   9.109 -0.1211 -2.1221 -2.0522
25749SOL     OW81288   0.748   8.892   0.613  0.3708 -0.6029  0.2860
25749SOL    HW181289   0.677   8.873   0.675  0.3690  1.2531  0.9268
25749SOL    HW281290   0.807   8.949   0.662 -1.7435  4.6552 -2.4443
25750SOL     OW81291   0.551   7.504   6.458  0.2914 -0.4318 -0.2005
25750SOL    HW181292   0.466   7.547   6.454  0.6941  0.3014 -2.8058
25750SOL    HW281293   0.531   7.411   6.441 -0.0630 -0.4361  0.2110
25751SOL     OW81294   1.367   0.524   8.680  0.0470 -0.9007  0.3953
25751SOL    HW181295   1.446   0.579   8.676  1.0281 -2.2846 -0.3753
25751SOL    HW281296   1.328   0.544   8.764  1.5159 -0.5201  1.0231
25752SOL     OW81297   1.775   8.650   8.143  1.0168 -0.6272 -0.2284
25752SOL    HW181298   1.772   8.658   8.239 -0.0242  0.4237 -0.3315
25752SOL    HW281299   1.865   8.675   8.120  0.8047  0.7808  0.3522
25753SOL     OW81300   8.465   0.623   7.393  0.3659 -0.9951 -0.0967
25753SOL    HW181301   8.560   0.626   7.387  0.3001 -0.8169 -1.6067
25753SOL    HW281302   8.446   0.545   7.445  1.3300 -1.3883 -0.3210
25754SOL     OW81303   2.278   7.471   2.727 -0.4276  0.1582  0.2727
25754SOL    HW181304   2.353   7.435   2.774 -0.5444 -2.0227 -1.0680
25754SOL    HW281305   2.236   7.529   2.790  1.2169 -0.1495  1.7329
25755SOL     OW81306   7.110   3.272   3.448  0.2850  0.2851 -0.0164
25755SOL    HW181307   7.028   3.242   3.487 -0.4374  1.1175 -0.8587
25755SOL    HW281308   7.113   3.366   3.467  1.0489  0.2641  0.0089
25756SOL     OW81309   4.211   7.049   5.014  0.7122 -0.2671  0.6074
25756SOL    HW181310   4.234   7.023   4.925  0.8333 -0.1274  0.5978
25756SOL    HW281311   4.243   7.139   5.021  0.6094 -0.2429  0.7573
25757SOL     OW81312   7.500   3.975   2.973 -0.6068  1.0799 -0.1714
25757SOL    HW181313   7.578   3.994   3.025 -1.1372 -0.4573  1.3053
25757SOL    HW281314   7.534   3.948   2.888  0.6093 -0.7978  0.8262
25758SOL     OW81315   2.581   7.698   2.655  0.4469  0.2538 -0.2824
25758SOL    HW181316   2.535   7.750   2.590 -0.5084  1.1294  1.0216
25758SOL    HW281317   2.668   7.739   2.661  0.2171  0.7606 -0.3426
25759SOL     OW81318   1.706   5.455   2.893  0.0253 -0.4173 -0.0395
25759SOL    HW181319   1.702   5.427   2.801  0.6567  1.2370 -0.6177
25759SOL    HW281320   1.723   5.549   2.888  3.9197 -0.8438  1.7343
25760SOL     OW81321   7.317   9.120   2.514  0.1153  0.1060  0.2382
25760SOL    HW181322   7.399   9.072   2.520  0.8166  1.0244 -1.2730
25760SOL    HW281323   7.250   9.057   2.540  1.0385 -1.5531 -1.1685
25761SOL     OW81324   2.980   6.276   0.551  0.2287 -0.1985 -0.1949
25761SOL    HW181325   2.943   6.302   0.467  2.4244 -1.0920 -1.5268
25761SOL    HW281326   3.056   6.333   0.562  0.3768 -0.5772  0.8617
25762SOL     OW81327   4.045   9.872   6.103  0.1039  0.1456  0.2472
25762SOL    HW181328   3.952   9.892   6.087  0.2225  1.7549  1.3446
25762SOL    HW281329   4.060   9.790   6.055 -1.5259  0.5569 -1.0781
25763SOL     OW81330   6.226   7.380   2.821 -0.3233  0.0653 -0.4985
25763SOL    HW181331   6.244   7.316   2.890  1.4127 -0.3019 -1.2224
25763SOL    HW281332   6.312   7.417   2.800 -1.0050  1.1228 -1.5332
25764SOL     OW81333   0.528   2.134   4.243  0.6817 -0.5768  0.6928
25764SOL    HW181334   0.457   2.164   4.300  0.3375 -0.2356  0.0866
25764SOL    HW281335   0.561   2.054   4.286 -1.0461 -1.5949  0.2040
25765SOL     OW81336  10.217   6.339   1.538 -0.0505  0.9442  0.4166
25765SOL    HW181337  10.170   6.416   1.568  0.8866  1.7735 -0.1373
25765SOL    HW281338  10.293   6.375   1.490 -1.1444 -0.2350 -2.4516
25766SOL     OW81339   8.624   8.638   9.143  0.5732  0.3116 -0.0100
25766SOL    HW181340   8.689   8.708   9.152 -0.5974  1.1640  3.2337
25766SOL    HW281341   8.565   8.669   9.074  2.6680  0.1889 -1.9873
25767SOL     OW81342   1.437   8.528   9.084  0.0702 -0.4268 -0.3183
25767SOL    HW181343   1.488   8.594   9.132 -0.9237  0.1944 -0.0961
25767SOL    HW281344   1.499   8.493   9.020  0.7519  0.3781 -0.1208
25768SOL     OW81345   8.887   4.136   8.062  0.4483  0.0182 -0.1763
25768SOL    HW181346   8.972   4.112   8.026  1.2640  0.5740  1.2713
25768SOL    HW281347   8.850   4.198   7.999  2.6039  2.3594  0.6521
25769SOL     OW81348   6.596  10.297   4.354  0.1013  0.1117 -0.3631
25769SOL    HW181349   6.586  10.248   4.273  0.8759  0.0447 -0.4272
25769SOL    HW281350   6.690  10.294   4.372 -0.1638 -0.7407  1.0633
25770SOL     OW81351   5.869   7.618  10.286  0.3112 -0.1757  0.1024
25770SOL    HW181352   5.957   7.612  10.247  0.8235 -2.0178  1.3901
25770SOL    HW281353   5.812   7.578  10.220  1.1322 -3.0394  0.9993
25771SOL     OW81354   2.991   5.024  10.215 -0.4101 -0.1672 -0.2566
25771SOL    HW181355   2.996   5.078  10.294 -1.7808  1.7144 -1.3694
25771SOL    HW281356   3.082   5.009  10.190  0.0146  1.7826  0.0207
25772SOL     OW81357   7.541   6.467   8.857  0.0649  0.2741 -0.1203
25772SOL    HW181358   7.485   6.392   8.836 -1.4992  1.0631  0.9705
25772SOL    HW281359   7.623   6.450   8.812 -0.0253 -2.3817  0.5703
25773SOL     OW81360   5.724   2.653   4.282  0.6071 -0.2914  0.0688
25773SOL    HW181361   5.719   2.585   4.215 -0.7441 -0.1153 -0.0425
25773SOL    HW281362   5.818   2.667   4.295  0.9302  0.3569 -2.4850
25774SOL     OW81363   8.797   7.163   7.773  0.0902 -0.2035 -0.0768
25774SOL    HW181364   8.757   7.205   7.698 -0.1014  0.0307  0.1551
25774SOL    HW281365   8.832   7.235   7.825 -0.5340 -0.3029  0.4916
25775SOL     OW81366   2.620   8.957   0.846  0.4624 -0.0532 -0.4095
25775SOL    HW181367   2.590   8.900   0.917  0.3756 -1.4847 -1.5363
25775SOL    HW281368   2.662   9.031   0.890  2.1915 -1.8400  1.1620
25776SOL     OW81369   7.275   4.595   5.686  0.1421 -0.0227  0.5807
25776SOL    HW181370   7.270   4.666   5.750  0.2925  0.1733  0.3725
25776SOL    HW281371   7.329   4.629   5.615 -0.0431 -0.2319  0.3356
25777SOL     OW81372   2.551   9.158   4.552 -0.3627 -0.4383  0.2318
25777SOL    HW181373   2.538   9.214   4.474 -0.8929 -0.0695  0.5770
25777SOL    HW281374   2.646   9.149   4.559 -0.2464  0.6360  0.3022
25778SOL     OW81375   3.342   1.974  10.294  0.0672 -0.2060  0.5310
25778SOL    HW181376   3.385   1.973  10.209  1.4557 -2.8276  1.1833
25778SOL    HW281377   3.409   2.004  10.356 -0.4845  0.2295  0.9393
25779SOL     OW81378   7.179   5.862   4.259 -0.2237 -0.2854  0.4460
25779SOL    HW181379   7.177   5.924   4.332  0.1544  0.4691 -0.1750
25779SOL    HW281380   7.257   5.808   4.276 -0.5429 -0.5972  0.9745
25780SOL     OW81381   9.233   2.531   5.789  0.4409  0.1082  0.2519
25780SOL    HW181382   9.233   2.585   5.710  0.1967 -0.0566  0.1381
25780SOL    HW281383   9.158   2.473   5.778 -0.4357  1.0179  1.2360
25781SOL     OW81384   2.746   9.345   4.766  0.0406  0.5417  0.1625
25781SOL    HW181385   2.785   9.385   4.688  0.5061 -0.3624 -0.0891
25781SOL    HW281386   2.808   9.366   4.837 -1.4882  3.2888  0.8048
25782SOL     OW81387   5.000   9.206   4.519 -0.1934 -0.6133 -0.3693
25782SOL    HW181388   5.039   9.268   4.457  0.6363 -0.7304  0.0255
25782SOL    HW281389   5.004   9.251   4.603 -1.4355 -0.4029 -0.4120
25783SOL     OW81390   6.752   5.122   0.534  0.3056 -0.4057 -0.5131
25783SOL    HW181391   6.786   5.105   0.622 -0.2488  1.3072  0.0627
25783SOL    HW281392   6.668   5.076   0.531  0.0913 -0.0628  0.0451
25784SOL     OW81393   7.099   2.823   2.773  0.4540 -0.4639  0.3552
25784SOL    HW181394   7.188   2.857   2.764  0.9278 -1.7234  0.0356
25784SOL    HW281395   7.065   2.864   2.853  1.1988  0.2878  0.2911
25785SOL     OW81396   0.865   6.626   3.088 -0.4428 -0.0526 -0.6889
25785SOL    HW181397   0.955   6.596   3.075 -0.4290  0.3743 -1.5881
25785SOL    HW281398   0.845   6.678   3.011 -1.3376  0.1734 -0.3167
25786SOL     OW81399   9.830   6.913   0.224  0.3668  0.1596 -0.0208
25786SOL    HW181400   9.840   6.992   0.170  0.4263  0.4570  0.4174
25786SOL    HW281401   9.737   6.891   0.219  0.7723 -1.3296 -2.3317
25787SOL     OW81402   5.742   9.800   1.946 -0.4025  0.0885  0.2761
25787SOL    HW181403   5.721   9.824   2.036 -1.6630  0.4656 -0.0996
25787SOL    HW281404   5.829   9.836   1.930 -0.1919  0.0579  1.3186
25788SOL     OW81405   5.668   3.673   1.531 -0.2679 -0.1551  0.7374
25788SOL    HW181406   5.635   3.661   1.442  1.6065 -2.2245  0.2134
25788SOL    HW281407   5.761   3.692   1.519  0.1344 -1.0213  2.2443
25789SOL     OW81408   9.101   2.447   4.390  0.2891 -0.0333  0.1530
25789SOL    HW181409   9.142   2.448   4.476 -0.0052  1.3088  0.3046
25789SOL    HW281410   9.137   2.523   4.345 -0.2966 -0.1521 -0.5528
25790SOL     OW81411   4.124   9.174   3.520  0.0432 -0.1707 -0.3349
25790SOL    HW181412   4.119   9.090   3.474  0.2141 -0.4629  0.1762
25790SOL    HW281413   4.091   9.156   3.608 -1.1669  0.5973 -0.6069
25791SOL     OW81414   1.369   2.256   0.350  0.6616  0.8257  0.0454
25791SOL    HW181415   1.408   2.333   0.392  1.2511  0.9799 -0.7653
25791SOL    HW281416   1.384   2.269   0.257  0.3935 -0.0705 -0.1342
25792SOL     OW81417   4.329   0.887   5.107  0.2348  0.0936  0.2587
25792SOL    HW181418   4.352   0.900   5.014 -2.0634 -1.6975 -0.6505
25792SOL    HW281419   4.295   0.972   5.135  0.6505  0.5731 -0.6447
25793SOL     OW81420   8.555   1.699   1.786  0.0362 -0.5191 -0.0619
25793SOL    HW181421   8.476   1.703   1.839  0.0871  0.6910 -0.0684
25793SOL    HW281422   8.541   1.624   1.727 -0.4343 -1.2636  0.9712
25794SOL     OW81423   7.799   9.189   8.616 -0.2344  0.1413  0.5340
25794SOL    HW181424   7.814   9.131   8.692 -3.3749 -2.5366 -0.6545
25794SOL    HW281425   7.756   9.266   8.653  1.3095  0.4551  1.8065
25795SOL     OW81426   0.768   7.810   0.952  0.1180 -0.4131  0.1758
25795SOL    HW181427   0.804   7.870   1.017  1.9134  0.3050 -1.3637
25795SOL    HW281428   0.764   7.725   0.996  0.9629  0.1154  1.3035
25796SOL     OW81429   7.333   6.950   2.134 -0.2548 -0.9143  0.1870
25796SOL    HW181430   7.262   7.005   2.166 -0.7383 -1.6081  0.3138
25796SOL    HW281431   7.332   6.962   2.039  0.3592  0.1482  0.2993
25797SOL     OW81432   6.892   8.775   3.355  0.3746 -0.3297  0.1638
25797SOL    HW181433   6.843   8.737   3.283  2.9583 -2.4943 -0.6325
25797SOL    HW281434   6.931   8.855   3.319 -0.2718 -0.0991 -0.0376
25798SOL     OW81435   8.671   8.267   4.868  0.1515  0.1962 -0.3051
25798SOL    HW181436   8.652   8.308   4.951  0.4390  0.5491 -0.4119
25798SOL    HW281437   8.757   8.301   4.843  0.6955 -0.9571 -0.0809
25799SOL     OW81438   1.593   3.795   8.997  0.3421 -0.3372  0.2070
25799SOL    HW181439   1.551   3.712   9.017 -0.3482  0.6775  3.4444
25799SOL    HW281440   1.540   3.832   8.926 -1.4062 -1.1630  1.0266
25800SOL     OW81441   9.475   5.545   1.655 -0.1341  0.1714  0.5024
25800SOL    HW181442   9.382   5.557   1.637  0.2255  2.0996 -0.3080
25800SOL    HW281443   9.517   5.548   1.569  0.7697  0.2734  0.9357
25801SOL     OW81444   5.061   9.857   9.387 -0.2494  0.0467 -0.2886
25801SOL    HW181445   5.152   9.856   9.357 -0.4942  0.3453 -1.0852
25801SOL    HW281446   5.066   9.889   9.477  0.4636 -0.2841 -0.2016
25802SOL     OW81447   3.761   1.766   4.254  0.0596  0.2516 -0.9658
25802SOL    HW181448   3.812   1.697   4.212  1.9942  0.7258  0.4628
25802SOL    HW281449   3.769   1.747   4.348 -3.5398 -0.3911 -0.6337
25803SOL     OW81450   1.458   1.447   2.794  0.1223 -0.4927  0.0764
25803SOL    HW181451   1.416   1.529   2.820 -3.0733 -1.5411 -1.2134
25803SOL    HW281452   1.388   1.382   2.800  1.9941 -2.7524 -0.9316
25804SOL     OW81453   5.409   0.121   2.134  0.4923  0.3187 -0.4182
25804SOL    HW181454   5.441   0.180   2.202  0.3110  0.3349 -0.3456
25804SOL    HW281455   5.409   0.034   2.174 -1.4253  0.5772  0.2587
25805SOL     OW81456   3.347   4.999   0.630 -0.3162 -0.1164 -0.0697
25805SOL    HW181457   3.313   4.989   0.541 -0.5098  2.8336 -0.4368
25805SOL    HW281458   3.269   5.005   0.685 -0.3934  1.9426 -0.2993
25806SOL     OW81459   5.645   2.572   0.015 -0.4676  0.0862 -0.3493
25806SOL    HW181460   5.686   2.492   0.048  0.3228  0.8342  0.5115
25806SOL    HW281461   5.702   2.643   0.044 -1.4008  1.0119 -0.7031
25807SOL     OW81462   1.796   7.093   0.350  0.0019  0.4474 -0.0504
25807SOL    HW181463   1.741   7.140   0.413 -0.9192 -0.2520 -0.3069
25807SOL    HW281464   1.741   7.021   0.320  0.8053  0.1702 -0.8889
25808SOL     OW81465   4.463   7.789   3.023  0.1313  0.3685  0.2325
25808SOL    HW181466   4.500   7.790   3.112 -0.7855  0.7758  0.6202
25808SOL    HW281467   4.512   7.721   2.978  0.9534  0.4946  0.9051
25809SOL     OW81468   5.994   4.452   5.994  0.6612 -0.5666  0.5191
25809SOL    HW181469   5.968   4.375   5.944  2.4524 -1.4469  0.8635
25809SOL    HW281470   6.047   4.504   5.934 -3.1839  2.2529 -0.8570
25810SOL     OW81471   0.061   6.107   1.583 -0.2080  0.6575  0.1434
25810SOL    HW181472   0.011   6.188   1.578 -0.2223  0.6118 -0.6402
25810SOL    HW281473   0.131   6.119   1.519 -0.0503  0.1605  0.2219
25811SOL     OW81474   7.859   8.985   5.047  0.6251  0.1301 -0.0127
25811SOL    HW181475   7.780   9.024   5.010 -0.0680  2.1899  3.2717
25811SOL    HW281476   7.828   8.920   5.110  1.4453  1.0934  1.4627
25812SOL     OW81477   3.491   8.448   2.491 -0.2395 -0.3631  0.7441
25812SOL    HW181478   3.458   8.537   2.500  1.1195  0.4294 -1.3305
25812SOL    HW281479   3.577   8.450   2.533 -1.2097 -1.4334  2.9183
25813SOL     OW81480   4.955   4.138   8.661 -0.0197  0.2073  0.1923
25813SOL    HW181481   5.048   4.159   8.649  0.2237  0.6144  2.4361
25813SOL    HW281482   4.949   4.045   8.638  1.1593 -0.0759  0.9043
25814SOL     OW81483   3.187   8.866   2.106  0.2576 -0.0171 -0.2143
25814SOL    HW181484   3.241   8.790   2.127 -1.2676 -1.1173 -0.0881
25814SOL    HW281485   3.206   8.885   2.014  1.1411 -0.1096 -0.0586
25815SOL     OW81486  10.279   1.228   3.211 -0.3939 -0.0949  0.3515
25815SOL    HW181487  10.271   1.162   3.141  0.2476 -1.6721  1.6895
25815SOL    HW281488  10.234   1.305   3.177 -0.5016 -0.9614 -1.6065
25816SOL     OW81489   8.575   7.486   9.387  0.1157 -0.6164  0.7948
25816SOL    HW181490   8.580   7.416   9.322 -0.6366 -1.2382  1.3861
25816SOL    HW281491   8.609   7.448   9.467  1.6488  0.3490  0.6389
25817SOL     OW81492   3.030   4.479   1.532  0.1878 -0.1271 -0.2992
25817SOL    HW181493   2.967   4.429   1.479  0.4800  0.3817 -1.1597
25817SOL    HW281494   2.992   4.481   1.619  0.0305 -1.6067 -0.2986
25818SOL     OW81495   4.461   7.520   9.790  0.2174 -0.3498 -0.4478
25818SOL    HW181496   4.466   7.479   9.704  0.6164 -0.7708 -0.2309
25818SOL    HW281497   4.490   7.451   9.851  1.2112  0.3400 -0.1126
25819SOL     OW81498   0.515   7.702   3.138  0.4261  0.1631  0.3621
25819SOL    HW181499   0.459   7.760   3.085  1.0875 -0.0571 -0.5883
25819SOL    HW281500   0.492   7.614   3.109  1.6775  0.0936 -0.4721
25820SOL     OW81501   4.766   8.271   3.336  0.4192  0.4743 -0.1913
25820SOL    HW181502   4.849   8.270   3.288  0.1575  1.5770 -0.6990
25820SOL    HW281503   4.720   8.193   3.304  0.5713  0.7650 -1.1695
25821SOL     OW81504   3.658   4.417   8.145  0.1091  0.1848 -0.4291
25821SOL    HW181505   3.594   4.392   8.212 -0.1455  1.8104 -0.0121
25821SOL    HW281506   3.628   4.373   8.065  0.1509 -1.4071  0.4006
25822SOL     OW81507   0.366   5.931   3.779 -1.1908  0.9023  0.1170
25822SOL    HW181508   0.447   5.976   3.803 -2.3591  2.2360  1.8336
25822SOL    HW281509   0.350   5.957   3.689 -0.0064  1.0739 -0.0575
25823SOL     OW81510   7.329   6.923   3.080  0.0440  0.1326 -0.6053
25823SOL    HW181511   7.424   6.932   3.091  0.2558 -1.0667 -1.2925
25823SOL    HW281512   7.318   6.893   2.990 -0.8531 -1.4936  0.0075
25824SOL     OW81513   9.705   7.435   4.648  0.3601  0.4394  0.0211
25824SOL    HW181514   9.771   7.419   4.715  0.2183  0.9247  0.2850
25824SOL    HW281515   9.655   7.510   4.681 -0.2617  0.1359 -0.2195
25825SOL     OW81516  10.297   2.626   6.288 -0.1571  1.0316 -0.2501
25825SOL    HW181517  10.389   2.613   6.266  0.4218  0.6146  2.1290
25825SOL    HW281518  10.249   2.575   6.223  1.2381  1.5589 -1.7673
25826SOL     OW81519   0.782   6.362   2.499 -0.2588  0.5417 -0.3153
25826SOL    HW181520   0.777   6.269   2.476 -1.0841  0.2672  0.8391
25826SOL    HW281521   0.693   6.394   2.487 -1.0967  0.0978  3.2579
25827SOL     OW81522   7.551   4.578   2.201  0.2070 -0.1033  0.1692
25827SOL    HW181523   7.643   4.555   2.213  0.0107 -0.8727  0.2842
25827SOL    HW281524   7.506   4.493   2.199 -0.6058  0.2966  1.0341
25828SOL     OW81525   8.386   2.279   7.903 -0.0044  0.2250 -0.1196
25828SOL    HW181526   8.293   2.263   7.916  0.2664 -0.5023  0.9697
25828SOL    HW281527   8.421   2.196   7.871  0.4569  0.1799  0.4908
25829SOL     OW81528   3.663   6.070   2.280 -0.2893 -0.0390 -0.1465
25829SOL    HW181529   3.733   6.010   2.254 -0.6671 -0.3883 -0.3673
25829SOL    HW281530   3.706   6.155   2.286  0.6239 -0.5754  1.8141
25830SOL     OW81531   8.504   9.264   7.084 -0.0828  0.2839 -0.1583
25830SOL    HW181532   8.464   9.348   7.107 -1.1439 -0.2654  0.0844
25830SOL    HW281533   8.487   9.208   7.160 -0.1858 -0.4088 -0.6843
25831SOL     OW81534   5.802   8.492   2.779 -0.1787  0.3481  0.2213
25831SOL    HW181535   5.727   8.454   2.826  0.5614  0.0654  1.1864
25831SOL    HW281536   5.873   8.493   2.843  1.4696 -1.9714 -1.4099
25832SOL     OW81537   5.387   1.699   9.329 -0.3492 -0.5574 -0.2175
25832SOL    HW181538   5.400   1.761   9.401  1.2730  0.6032 -1.4263
25832SOL    HW281539   5.294   1.706   9.308 -0.4490  0.5510  0.4901
25833SOL     OW81540   9.443   3.726   7.680  0.0899 -0.7421 -0.5185
25833SOL    HW181541   9.479   3.785   7.614  1.8346  0.1326  1.0956
25833SOL    HW281542   9.372   3.777   7.721  0.4738 -0.3979 -0.2656
25834SOL     OW81543   0.129   6.027   0.782 -0.4242  0.3675 -0.2629
25834SOL    HW181544   0.052   6.077   0.753 -1.3408 -1.0227 -0.3270
25834SOL    HW281545   0.165   6.079   0.854 -1.7408  0.7983  0.1183
25835SOL     OW81546   8.515  10.057   7.297 -0.1033 -0.1287 -0.1411
25835SOL    HW181547   8.484  10.072   7.208 -0.4590 -2.5393 -0.4994
25835SOL    HW281548   8.437  10.036   7.347  0.0873  1.2346  0.7962
25836SOL     OW81549   6.447   0.822   9.612  0.4543  0.1079 -0.2586
25836SOL    HW181550   6.491   0.891   9.562  0.3453  1.6465  1.6654
25836SOL    HW281551   6.442   0.856   9.701  0.1048 -2.2845  0.7073
25837SOL     OW81552   7.455   5.681   5.988  0.5430 -0.6329 -0.1442
25837SOL    HW181553   7.405   5.707   6.066  2.7972  0.6814  0.9485
25837SOL    HW281554   7.527   5.628   6.023  1.9399  0.4722 -1.2258
25838SOL     OW81555   9.313   8.593   5.742 -0.1834  0.8585  0.1182
25838SOL    HW181556   9.262   8.587   5.662 -1.9677 -0.7609  1.2749
25838SOL    HW281557   9.403   8.602   5.713 -0.5158 -1.8458 -2.1516
25839SOL     OW81558   2.364   2.702   1.857  0.3876 -0.2035 -0.3032
25839SOL    HW181559   2.391   2.789   1.886 -0.2938  0.0612 -0.4394
25839SOL    HW281560   2.395   2.697   1.766 -1.7686  0.9200 -1.1691
25840SOL     OW81561   8.301   9.549   9.718 -0.1636  0.2311 -0.0286
25840SOL    HW181562   8.260   9.626   9.756 -0.7750  0.5580 -1.2970
25840SOL    HW281563   8.387   9.544   9.759 -0.3151  1.2883  0.4389
25841SOL     OW81564   7.293  10.028   8.269 -0.2746  0.4717 -0.5995
25841SOL    HW181565   7.230  10.099   8.278 -1.2836 -0.5753  1.4547
25841SOL    HW281566   7.338  10.025   8.354 -0.7302 -1.7215 -0.3738
25842SOL     OW81567   1.593   1.428   1.796  0.4331  0.2680  0.1312
25842SOL    HW181568   1.652   1.388   1.860 -0.0276 -0.7747 -0.0778
25842SOL    HW281569   1.505   1.405   1.827  0.2198 -1.1330 -1.4176
25843SOL     OW81570   4.062   1.913   7.624  0.3113 -0.4690  0.2738
25843SOL    HW181571   3.982   1.946   7.582  0.4338 -0.5791 -0.0498
25843SOL    HW281572   4.080   1.831   7.579  1.1468  0.0172 -0.3304
25844SOL     OW81573   8.345   9.004   4.305  0.5999 -0.4414 -0.5591
25844SOL    HW181574   8.418   8.970   4.252  2.1530  0.6743  0.7888
25844SOL    HW281575   8.380   9.010   4.394 -0.6978  1.4303 -0.1215
25845SOL     OW81576   8.079   9.942   4.504  0.2122  0.0973  0.1844
25845SOL    HW181577   8.139  10.016   4.510 -2.2502  2.1959  0.5418
25845SOL    HW281578   8.042   9.948   4.416 -0.6125 -0.1983  0.5045
25846SOL     OW81579   8.881   3.696  10.131  0.1433  0.1752 -0.2602
25846SOL    HW181580   8.846   3.637  10.197 -1.2647  0.0723 -1.0471
25846SOL    HW281581   8.939   3.755  10.179 -1.0341  0.2738  1.1149
25847SOL     OW81582   3.886   0.498   6.358 -0.1868 -0.4607  0.1666
25847SOL    HW181583   3.846   0.579   6.388 -0.7527 -0.7287  0.1405
25847SOL    HW281584   3.910   0.452   6.438  1.5157  0.3912  0.1922
25848SOL     OW81585   1.796   3.513   3.877  0.1613 -0.4474 -0.1141
25848SOL    HW181586   1.802   3.603   3.845 -1.3870 -0.2369  0.0831
25848SOL    HW281587   1.714   3.511   3.927  0.9325 -1.5794  1.1771
25849SOL     OW81588   9.857   4.625   8.060  0.5205 -0.3157 -0.0503
25849SOL    HW181589   9.880   4.672   7.981  0.6070 -0.6311 -0.2145
25849SOL    HW281590   9.774   4.582   8.039  0.8448 -0.8901 -0.1778
25850SOL     OW81591   5.281   0.022   9.095  0.5130  0.2423 -0.6170
25850SOL    HW181592   5.254   0.093   9.154  3.0486  0.3173  0.5766
25850SOL    HW281593   5.343   0.062   9.035  1.6466 -0.8337 -0.2099
25851SOL     OW81594   3.198   6.055   9.576 -0.3185 -0.1403  0.6460
25851SOL    HW181595   3.151   6.059   9.493  0.7097 -0.7888  0.0127
25851SOL    HW281596   3.239   5.968   9.576 -1.2306 -0.6201  2.3574
25852SOL     OW81597   9.937   9.542   6.606  0.6994  0.2297  0.3203
25852SOL    HW181598  10.023   9.554   6.645 -0.0338 -1.4347  2.6836
25852SOL    HW281599   9.875   9.566   6.676 -0.7197 -0.2220 -0.7303
25853SOL     OW81600  10.223   5.672   0.064 -0.3339  0.4792 -0.5664
25853SOL    HW181601  10.132   5.684   0.088 -0.3654  0.6817 -0.7788
25853SOL    HW281602  10.269   5.743   0.109 -0.3287  0.5742 -0.7172
25854SOL     OW81603   7.412   0.130   4.626 -0.0690  0.0550 -0.2693
25854SOL    HW181604   7.504   0.138   4.652 -0.5266 -0.2178  1.6220
25854SOL    HW281605   7.408   0.050   4.574  0.5795 -0.6304  0.7087
25855SOL     OW81606   9.770   8.716   4.189 -0.1399  0.2790  0.2360
25855SOL    HW181607   9.708   8.774   4.233 -0.9778  0.5172 -1.1901
25855SOL    HW281608   9.715   8.652   4.144  0.5631  1.0210 -1.7951
25856SOL     OW81609   8.699   8.794   5.050  0.4698 -0.0617 -0.2609
25856SOL    HW181610   8.786   8.787   5.011  0.4091 -1.2914 -0.2194
25856SOL    HW281611   8.713   8.839   5.133  1.0313  0.0057 -0.3920
25857SOL     OW81612   2.784   8.097   0.791  0.1419  0.6333 -0.2508
25857SOL    HW181613   2.796   8.183   0.830 -2.8750 -0.1176  2.8034
25857SOL    HW281614   2.721   8.110   0.721  0.2790  1.0208 -0.3031
25858SOL     OW81615   7.490   3.260   1.997 -0.2604 -0.1518  0.0279
25858SOL    HW181616   7.504   3.333   2.057  0.5813 -1.5237  1.5686
25858SOL    HW281617   7.415   3.214   2.032  0.3597 -1.0811  0.1715
25859SOL     OW81618   0.013   0.659   8.050  0.0003  0.5214 -0.3570
25859SOL    HW181619  -0.034   0.636   8.130 -0.6778  0.6689 -0.7115
25859SOL    HW281620   0.034   0.752   8.061 -0.1845  0.5679 -0.3981
25860SOL     OW81621   3.703   4.896   8.109  0.1127 -0.1030  0.7501
25860SOL    HW181622   3.720   4.978   8.064  0.0469  0.2929  1.4327
25860SOL    HW281623   3.646   4.920   8.182 -1.4985 -1.0418 -0.1496
25861SOL     OW81624   3.512   2.092   0.201 -0.2293  0.4717  0.0476
25861SOL    HW181625   3.450   2.088   0.274  0.2084  1.3452  0.4808
25861SOL    HW281626   3.595   2.117   0.241  0.2146  0.1293 -0.6374
25862SOL     OW81627   8.464   8.470   0.080 -0.0709 -0.3873 -0.5230
25862SOL    HW181628   8.407   8.533   0.124 -0.3637 -0.1742 -1.1890
25862SOL    HW281629   8.492   8.411   0.149  2.9961  2.4149  0.8778
25863SOL     OW81630   4.106   4.211   9.761 -0.7915  0.6513  0.3801
25863SOL    HW181631   4.131   4.269   9.833 -1.7172  0.9757  0.4543
25863SOL    HW281632   4.071   4.270   9.694  1.0067  0.4703 -0.7921
25864SOL     OW81633   2.263   7.186   9.970  0.2716  0.1122  0.0161
25864SOL    HW181634   2.309   7.111  10.008  0.0018 -0.6469 -1.0885
25864SOL    HW281635   2.333   7.244   9.940  0.4834  0.3706  0.9719
25865SOL     OW81636   4.680   5.101   1.670  0.0918  0.6800 -0.2824
25865SOL    HW181637   4.695   5.023   1.617  2.9485  0.0465  1.2746
25865SOL    HW281638   4.692   5.174   1.610  0.9838 -0.0461 -1.0109
25866SOL     OW81639   8.643   0.249   6.250 -0.2007  0.1707 -0.7046
25866SOL    HW181640   8.636   0.232   6.344  2.5447 -1.4003 -0.6899
25866SOL    HW281641   8.693   0.330   6.245  0.0823 -0.0072 -0.7902
25867SOL     OW81642   6.712   3.128   3.297 -0.4318  0.0099 -0.4502
25867SOL    HW181643   6.737   3.154   3.209  1.6581 -1.8674 -0.4964
25867SOL    HW281644   6.756   3.044   3.311 -1.2185 -0.0596  2.1529
25868SOL     OW81645  10.135   6.970   5.104 -0.2515 -0.3342  0.5518
25868SOL    HW181646  10.185   6.888   5.095 -0.9427 -0.7856  0.7248
25868SOL    HW281647  10.202   7.039   5.106  0.2945 -0.7976 -0.7445
25869SOL     OW81648   3.901   8.683   8.667  0.0153  0.5301  0.1752
25869SOL    HW181649   3.891   8.675   8.762  1.0288 -0.5287  0.2082
25869SOL    HW281650   3.890   8.777   8.650 -3.8954  0.3610  0.8488
25870SOL     OW81651   6.711   8.728   8.734  0.1476 -0.2317 -0.2060
25870SOL    HW181652   6.706   8.747   8.828  0.1937 -0.5738 -0.1326
25870SOL    HW281653   6.620   8.728   8.704  0.2166  1.8940 -0.5799
25871SOL     OW81654   8.065   1.628   9.890 -0.2489 -0.1078  0.5621
25871SOL    HW181655   8.132   1.651   9.825 -1.4922 -3.5428 -2.2778
25871SOL    HW281656   8.106   1.560   9.943 -0.9518 -1.2639 -0.3248
25872SOL     OW81657   0.540   6.906  10.196 -0.2485 -0.6336 -0.1433
25872SOL    HW181658   0.616   6.871  10.149 -0.6830  0.2032 -1.5064
25872SOL    HW281659   0.573   6.986  10.238 -0.6693  0.5021 -1.8807
25873SOL     OW81660   7.239   4.544   2.152  0.0926 -0.4958  0.3058
25873SOL    HW181661   7.263   4.619   2.207  0.9999 -0.9072  0.4964
25873SOL    HW281662   7.153   4.517   2.185  0.5287 -0.6106  1.4094
25874SOL     OW81663   0.864   2.847   4.240 -0.0199  0.4323  0.2163
25874SOL    HW181664   0.769   2.838   4.234  0.1068 -1.3732  0.5265
25874SOL    HW281665   0.899   2.771   4.193  1.2435  0.1286  1.5713
25875SOL     OW81666   9.053   7.609   9.929  0.2437 -0.5935 -0.1167
25875SOL    HW181667   9.061   7.582  10.021  2.4069 -0.3405 -0.1789
25875SOL    HW281668   8.991   7.682   9.931  1.6048  0.6026  1.4501
25876SOL     OW81669   4.782   7.950   6.519  0.2111 -0.0822 -0.3784
25876SOL    HW181670   4.840   7.910   6.454 -0.2299  0.6665 -1.2599
25876SOL    HW281671   4.694   7.935   6.485 -0.1291 -1.1511  0.9212
25877SOL     OW81672   5.269   1.269   7.711 -0.2418 -0.6022  0.2763
25877SOL    HW181673   5.303   1.335   7.651 -0.7306 -0.3404  0.2871
25877SOL    HW281674   5.287   1.304   7.798  0.3841 -0.9392  0.2877
25878SOL     OW81675   8.736   2.019   2.283  0.0808 -0.4715  0.6601
25878SOL    HW181676   8.657   2.024   2.336 -0.6365 -1.0500 -0.3176
25878SOL    HW281677   8.705   1.991   2.196  1.2938 -0.2120  0.1223
25879SOL     OW81678   1.114   7.659   1.107  0.5304 -0.3743  1.0680
25879SOL    HW181679   1.184   7.615   1.155  0.7148 -0.8424  0.3872
25879SOL    HW281680   1.141   7.654   1.015  0.8062  1.5853  0.9877
25880SOL     OW81681   6.285   1.970   0.287  0.2235  0.6003  0.5462
25880SOL    HW181682   6.203   2.019   0.279 -0.2190 -0.0154  1.2276
25880SOL    HW281683   6.262   1.881   0.260  0.6522  0.4075  0.8135
25881SOL     OW81684   7.724   6.859   1.207 -0.0994  0.5977  0.6803
25881SOL    HW181685   7.641   6.883   1.247 -0.7311  0.4118 -0.4921
25881SOL    HW281686   7.785   6.927   1.237 -0.7510  0.9552  1.2337
25882SOL     OW81687   8.916   3.121   7.539  0.2341 -0.2766 -0.3733
25882SOL    HW181688   8.942   3.096   7.450 -3.2078 -0.4086 -1.4971
25882SOL    HW281689   8.954   3.054   7.595  2.2358 -0.3695 -1.7565
25883SOL     OW81690   3.671   7.287   5.847  0.9043 -0.5327  0.2605
25883SOL    HW181691   3.631   7.262   5.930 -0.9385 -0.3290 -0.5226
25883SOL    HW281692   3.666   7.208   5.793  0.4226 -0.1517 -0.2615
25884SOL     OW81693   4.473   5.491   9.359  0.8253  0.1693 -0.1000
25884SOL    HW181694   4.444   5.406   9.392  0.6177  0.0823 -0.4921
25884SOL    HW281695   4.568   5.489   9.366  0.8845 -0.4381 -0.9025
25885SOL     OW81696   9.464   8.334   0.871  0.0043 -0.1733 -0.9463
25885SOL    HW181697   9.516   8.407   0.838 -1.1729 -0.0927 -2.7656
25885SOL    HW281698   9.374   8.368   0.874 -0.3976 -1.2098 -0.7612
25886SOL     OW81699   9.439   5.987   2.550  0.5242 -0.9498  0.4461
25886SOL    HW181700   9.430   6.053   2.482  1.8452 -0.6171  0.5574
25886SOL    HW281701   9.530   5.995   2.579 -0.1462 -0.6939  2.6549
25887SOL     OW81702   2.378   0.303  10.108 -0.2621 -0.0933 -0.1366
25887SOL    HW181703   2.307   0.353  10.149 -0.6862  0.2521 -1.2572
25887SOL    HW281704   2.354   0.211  10.122 -0.6621  0.0233 -0.0451
25888SOL     OW81705   3.822   6.601   7.653 -0.4051  0.1154 -0.4425
25888SOL    HW181706   3.899   6.564   7.696 -0.4236  0.1228 -0.4028
25888SOL    HW281707   3.825   6.694   7.673 -1.0022 -0.0399  0.4645
25889SOL     OW81708   8.712   4.155   9.755  0.1360  0.5468 -0.6898
25889SOL    HW181709   8.676   4.071   9.724 -0.4595  0.2974  0.5986
25889SOL    HW281710   8.796   4.163   9.710 -0.6228  0.1814 -2.2777
25890SOL     OW81711   6.391   6.295   6.671 -0.2938  0.2986 -0.2083
25890SOL    HW181712   6.329   6.368   6.663  0.2733  0.6107 -2.3108
25890SOL    HW281713   6.475   6.331   6.643  0.8194 -0.2391  2.1909
25891SOL     OW81714   3.956   6.075   8.550 -0.8918 -0.2731  0.4324
25891SOL    HW181715   3.954   6.169   8.565  3.2203  0.0721  0.0368
25891SOL    HW281716   3.952   6.065   8.455 -0.5429 -0.4140  0.4296
25892SOL     OW81717   9.563   9.975   3.995  0.4927  0.5276  0.4970
25892SOL    HW181718   9.529   9.955   3.908 -0.6116  1.6628  0.6353
25892SOL    HW281719   9.630  10.041   3.979  0.7415  0.2626  0.4509
25893SOL     OW81720   2.427   2.907   9.989 -0.2306  0.0024  0.2078
25893SOL    HW181721   2.363   2.868   9.929  0.2424 -1.7525  0.7855
25893SOL    HW281722   2.507   2.916   9.937  0.0552 -1.1180  0.4353
25894SOL     OW81723   3.333   5.299   5.361 -0.2817  0.1399  1.1578
25894SOL    HW181724   3.385   5.229   5.321 -0.1732 -0.7205  2.7050
25894SOL    HW281725   3.259   5.310   5.302  1.1307  0.7222 -0.5796
25895SOL     OW81726   5.386   0.510   9.450  0.7164 -0.1024  0.6383
25895SOL    HW181727   5.451   0.507   9.380 -0.3666  0.9308 -0.4663
25895SOL    HW281728   5.302   0.514   9.405  0.0595  3.8983  1.7642
25896SOL     OW81729   0.316   5.564   8.043  0.3849  0.0686  0.1745
25896SOL    HW181730   0.265   5.617   7.981 -1.4855 -1.4206  0.3740
25896SOL    HW281731   0.339   5.485   7.994 -0.9717 -1.0515  1.2700
25897SOL     OW81732  10.253   4.413   4.253 -0.8971  0.5697 -0.1265
25897SOL    HW181733  10.227   4.466   4.329 -1.1176  0.8623 -0.4036
25897SOL    HW281734  10.281   4.478   4.188 -1.6428  0.3765 -0.6496
25898SOL     OW81735   8.248   0.249   1.705 -0.6236  0.1254 -0.2392
25898SOL    HW181736   8.198   0.330   1.698 -1.2651  0.0970  2.6193
25898SOL    HW281737   8.204   0.188   1.646 -1.7171  1.1504 -0.5186
25899SOL     OW81738   7.125   2.293  10.203 -0.2749 -0.3872  0.0009
25899SOL    HW181739   7.061   2.349  10.161 -0.1949 -1.7140 -2.0330
25899SOL    HW281740   7.074   2.219  10.237  0.0943 -1.4468 -1.6247
25900SOL     OW81741   0.192   7.173   2.736 -0.3168 -0.2657 -0.3358
25900SOL    HW181742   0.234   7.167   2.822  0.7644 -1.0543 -0.8930
25900SOL    HW281743   0.229   7.253   2.697  0.6487 -0.9092 -0.7889
25901SOL     OW81744   9.677   8.262   3.546 -0.3351 -0.7684  0.3939
25901SOL    HW181745   9.707   8.205   3.475  0.1688 -0.7839  0.6167
25901SOL    HW281746   9.642   8.202   3.612 -0.6857 -0.7615  0.2151
25902SOL     OW81747   5.022   3.687   8.141 -0.7837 -0.2077 -0.0763
25902SOL    HW181748   4.946   3.638   8.172 -2.1986  2.5535  1.2187
25902SOL    HW281749   4.996   3.779   8.148  2.7238  0.9087  0.6270
25903SOL     OW81750   4.082   3.240   2.314  0.1579  0.5029  0.1189
25903SOL    HW181751   4.162   3.277   2.277  1.4124 -1.4303  0.7393
25903SOL    HW281752   4.106   3.218   2.404 -0.6836 -1.2129 -0.0443
25904SOL     OW81753   4.484   1.356   1.798  0.1000 -0.6528  0.3447
25904SOL    HW181754   4.482   1.318   1.710  0.9557 -0.3613  0.1919
25904SOL    HW281755   4.419   1.426   1.796  1.6874  0.8866 -0.7873
25905SOL     OW81756   5.066   9.847   8.352 -0.3458 -0.3203  0.5392
25905SOL    HW181757   5.028   9.793   8.282 -0.5328  0.1404  0.2855
25905SOL    HW281758   5.013   9.926   8.353  0.2502  0.0795  0.5726
25906SOL     OW81759   0.510   0.775   0.093  0.1912 -0.3170  0.4714
25906SOL    HW181760   0.527   0.762  -0.000 -0.2770 -1.5298  0.5255
25906SOL    HW281761   0.421   0.741   0.106  0.2790 -0.2402  1.3710
25907SOL     OW81762   7.336   4.579   5.341  0.2841 -0.6044 -0.2695
25907SOL    HW181763   7.342   4.674   5.337  0.7201 -0.6653 -2.8640
25907SOL    HW281764   7.299   4.554   5.256 -0.0040 -2.7559  0.4251
25908SOL     OW81765   2.022   1.622   6.559 -0.2077  0.1684  0.5232
25908SOL    HW181766   2.030   1.670   6.476 -0.2682  1.8495  1.4441
25908SOL    HW281767   2.105   1.637   6.603 -0.7161  0.5197  1.3793
25909SOL     OW81768   8.023  10.157   1.610  0.2613 -0.7213 -0.4081
25909SOL    HW181769   8.069  10.104   1.676 -1.0827 -0.8627  0.4795
25909SOL    HW281770   7.996  10.094   1.544 -1.6603 -1.3059  0.8312
25910SOL     OW81771   4.223   3.518   6.480  0.7079  0.2210 -0.0578
25910SOL    HW181772   4.281   3.588   6.450  1.7977 -0.6554 -0.0387
25910SOL    HW281773   4.216   3.532   6.575 -0.7566  1.5158 -0.3147
25911SOL     OW81774   6.687   2.497   7.418  0.0438 -0.4401 -0.3039
25911SOL    HW181775   6.691   2.547   7.336 -1.6803  0.6046  0.1924
25911SOL    HW281776   6.726   2.555   7.483  1.1676 -1.1619 -0.3121
25912SOL     OW81777   3.833   0.675   7.028 -0.3039 -0.4461 -0.0380
25912SOL    HW181778   3.827   0.674   6.932  1.4273  0.5383 -0.2091
25912SOL    HW281779   3.814   0.765   7.052 -0.9985 -0.7530  0.5864
25913SOL     OW81780   1.607   5.440   7.910 -0.4322 -0.6018  0.1130
25913SOL    HW181781   1.659   5.389   7.848 -0.0129 -0.1277  0.0696
25913SOL    HW281782   1.519   5.400   7.906 -0.3487 -0.7290 -0.6043
25914SOL     OW81783   2.933   7.675   0.711 -0.3032 -0.6507 -0.4050
25914SOL    HW181784   2.950   7.592   0.755 -1.1163 -0.7217 -0.2083
25914SOL    HW281785   3.000   7.734   0.746  1.0875 -1.5255 -1.4954
25915SOL     OW81786   5.862   2.260   6.708 -0.1375  0.0973 -0.3545
25915SOL    HW181787   5.917   2.200   6.659 -0.3240 -0.4930  0.1427
25915SOL    HW281788   5.900   2.261   6.796  0.5513  1.5999 -0.6390
25916SOL     OW81789   4.605   7.225   3.741 -0.2568 -0.0969  0.1910
25916SOL    HW181790   4.694   7.218   3.705  0.2439 -1.1351  1.5170
25916SOL    HW281791   4.582   7.317   3.730  1.5594  0.5137  1.0463
25917SOL     OW81792   7.906   1.371   1.527 -0.3559 -0.2882  0.6791
25917SOL    HW181793   7.814   1.377   1.556 -0.8338 -1.7121 -0.4173
25917SOL    HW281794   7.902   1.388   1.432  0.7094  0.8761  0.8151
25918SOL     OW81795   4.592  10.039   6.532 -0.2736 -0.5951  0.6171
25918SOL    HW181796   4.663   9.980   6.557  0.5140  0.9523  2.2941
25918SOL    HW281797   4.612  10.065   6.442  0.3472 -1.4653  0.4962
25919SOL     OW81798   0.743   6.815   7.584 -0.2056 -0.2000  0.4340
25919SOL    HW181799   0.699   6.733   7.606  2.0973 -1.7087 -0.1894
25919SOL    HW281800   0.747   6.815   7.488 -0.9274  1.1016  0.3813
25920SOL     OW81801   8.420   7.350   4.954  1.0796 -0.0794  0.3343
25920SOL    HW181802   8.418   7.256   4.939 -0.0982 -0.1112  0.5353
25920SOL    HW281803   8.444   7.359   5.046  1.8392 -0.1541  0.1443
25921SOL     OW81804   5.292   1.507   8.433 -0.0617 -0.0192  0.0516
25921SOL    HW181805   5.355   1.452   8.480  2.1841  1.9574 -0.4659
25921SOL    HW281806   5.252   1.561   8.501 -0.8645 -0.9067  0.3119
25922SOL     OW81807   5.931   5.754   7.206 -0.1172  0.2702 -0.5489
25922SOL    HW181808   5.924   5.749   7.111  1.7939  2.8206 -0.9314
25922SOL    HW281809   5.859   5.812   7.232  0.1525  0.6321 -0.6063
25923SOL     OW81810   8.669   7.740   7.844 -0.0790 -0.0859  0.1444
25923SOL    HW181811   8.654   7.665   7.786 -1.4571 -0.5805  1.0830
25923SOL    HW281812   8.720   7.705   7.916  2.9593  0.8552 -1.3778
25924SOL     OW81813   2.193   3.050   0.190  0.6015 -0.1719  0.1571
25924SOL    HW181814   2.219   3.142   0.191  0.5140 -0.1476  0.2111
25924SOL    HW281815   2.097   3.052   0.190  0.5995 -0.2634  0.2386
25925SOL     OW81816   3.948   0.152   5.416  0.4024  0.0066 -0.0725
25925SOL    HW181817   3.972   0.158   5.508 -1.7584 -0.2147  0.5662
25925SOL    HW281818   3.855   0.176   5.414  0.1226 -1.0489 -2.0229
25926SOL     OW81819   8.015   7.895   7.794  0.0665  0.3533 -0.4725
25926SOL    HW181820   7.992   7.813   7.836 -1.6687  0.3481 -1.3401
25926SOL    HW281821   8.059   7.946   7.862  0.9373 -1.1800  0.1373
25927SOL     OW81822  10.165   0.872   6.533  0.4425 -0.1759  0.1908
25927SOL    HW181823  10.152   0.895   6.625  1.1869  0.1760  0.2165
25927SOL    HW281824  10.246   0.918   6.508  1.5567 -2.0990  0.0184
25928SOL     OW81825   5.589   9.412   2.388  0.3100 -0.0237 -0.3084
25928SOL    HW181826   5.520   9.395   2.324  0.3058  1.3230 -0.6824
25928SOL    HW281827   5.598   9.329   2.436  0.8733 -1.3544 -2.5656
25929SOL     OW81828   5.161   6.397   7.929 -0.0520  0.1633 -0.3670
25929SOL    HW181829   5.212   6.357   7.999  0.0345 -1.1700 -1.1681
25929SOL    HW281830   5.076   6.415   7.969 -0.1851 -1.0877 -0.0407
25930SOL     OW81831   2.031   5.046   1.379 -0.4256 -0.3829 -0.9047
25930SOL    HW181832   2.018   5.121   1.438 -0.0665 -0.2379 -1.0091
25930SOL    HW281833   1.955   4.990   1.394 -0.0082 -0.6709  0.1745
25931SOL     OW81834   4.391   6.939   5.234  0.1775  1.1448 -0.0358
25931SOL    HW181835   4.328   6.910   5.168  0.9353  0.6393 -0.5590
25931SOL    HW281836   4.416   7.027   5.206  1.6535  0.3758 -1.3610
25932SOL     OW81837   3.727   1.685   3.628  0.2690 -0.1877  0.1586
25932SOL    HW181838   3.768   1.690   3.714  2.8257 -0.6863 -0.9186
25932SOL    HW281839   3.799   1.660   3.569 -1.4659 -0.2797 -2.0540
25933SOL     OW81840   7.839   5.769   1.025 -0.3797 -0.1271  0.5672
25933SOL    HW181841   7.874   5.682   1.006 -1.0974 -0.4063  0.5051
25933SOL    HW281842   7.791   5.794   0.946  0.1658  0.5007  0.4323
25934SOL     OW81843   5.965   3.007   9.630 -0.1038 -0.4213  0.1913
25934SOL    HW181844   5.920   3.080   9.672 -0.9291 -0.0100 -1.3521
25934SOL    HW281845   5.992   2.951   9.703 -0.2792  0.9357  1.3472
25935SOL     OW81846   8.116   1.238   5.139  0.3784 -0.2580  0.1063
25935SOL    HW181847   8.159   1.292   5.205  0.6539  1.2924 -1.2887
25935SOL    HW281848   8.175   1.239   5.064  0.9677 -3.5067  0.3812
25936SOL     OW81849   9.257   9.019   6.873  0.4766  0.0870  0.3768
25936SOL    HW181850   9.316   8.944   6.869  0.2092 -0.0961 -0.4868
25936SOL    HW281851   9.302   9.087   6.822  0.3331  0.2350  0.4473
25937SOL     OW81852   0.903   8.482   5.957 -0.3462  0.1375 -0.4579
25937SOL    HW181853   0.816   8.500   5.922  0.3845  3.4475 -0.8766
25937SOL    HW281854   0.959   8.474   5.880 -0.1778 -1.9129 -0.1911
25938SOL     OW81855   0.799   1.511   9.523 -0.2845  0.0577 -0.7071
25938SOL    HW181856   0.758   1.439   9.474 -1.0009 -0.1238  0.1390
25938SOL    HW281857   0.772   1.497   9.613  0.9290  0.4530 -0.2596
25939SOL     OW81858   6.404   2.335   6.442 -0.5058 -0.1724  0.5140
25939SOL    HW181859   6.446   2.259   6.482 -1.1950  0.0598  1.7621
25939SOL    HW281860   6.444   2.410   6.487  0.4650  0.2418 -0.9940
25940SOL     OW81861   8.759   7.906   9.501  0.2891  1.0265 -0.1658
25940SOL    HW181862   8.827   7.947   9.447  1.8518  0.8513  1.5537
25940SOL    HW281863   8.807   7.848   9.559 -1.6447 -1.3426 -0.7866
25941SOL     OW81864   6.943   0.067   4.015  0.1416  0.3801 -0.3072
25941SOL    HW181865   6.988   0.125   3.954  1.5347 -1.0916 -0.7354
25941SOL    HW281866   6.947  -0.019   3.974 -1.3014 -0.1748  0.6150
25942SOL     OW81867   5.717   6.044   5.666 -0.2527 -0.3480 -0.0254
25942SOL    HW181868   5.728   6.046   5.761 -0.3663 -0.3173 -0.0126
25942SOL    HW281869   5.762   5.965   5.638 -0.4559 -0.5020  0.0850
25943SOL     OW81870   4.635   3.875   0.255 -0.3216 -0.0313 -0.3146
25943SOL    HW181871   4.617   3.818   0.330  1.9546  1.1032  1.1908
25943SOL    HW281872   4.583   3.954   0.271  0.0568  0.1544  0.0074
25944SOL     OW81873   9.870   7.935   2.870  0.1725 -0.0810  0.1457
25944SOL    HW181874   9.912   7.933   2.784  1.4915  0.0853  0.7665
25944SOL    HW281875   9.785   7.977   2.853  1.0312  1.3797 -0.8295
25945SOL     OW81876   4.444   2.848   7.462 -0.2909 -0.1318 -0.0219
25945SOL    HW181877   4.443   2.803   7.546 -0.4683  0.3221  0.2262
25945SOL    HW281878   4.462   2.780   7.397 -0.8624 -0.6037  0.3093
25946SOL     OW81879  10.284   4.237   5.294  0.3385 -1.0126 -0.4966
25946SOL    HW181880  10.297   4.197   5.208 -0.4885 -0.4224 -0.9141
25946SOL    HW281881  10.194   4.268   5.292  0.6657  0.0142  0.1718
25947SOL     OW81882   7.800  10.119   4.993 -0.2149 -0.3355 -0.1893
25947SOL    HW181883   7.796  10.086   5.083  0.4375 -0.4231 -0.1903
25947SOL    HW281884   7.768  10.047   4.939  0.1277 -0.5631 -0.0925
25948SOL     OW81885   1.658   6.996   1.602  0.4352  0.6552  0.3454
25948SOL    HW181886   1.654   6.938   1.527  1.1263  0.1579  0.6847
25948SOL    HW281887   1.605   6.953   1.669 -0.1252  1.0640  0.1676
25949SOL     OW81888   1.173   7.719   0.622  0.0959  1.2468  0.0759
25949SOL    HW181889   1.086   7.747   0.594  0.6999  3.5632  0.2417
25949SOL    HW281890   1.219   7.698   0.541 -0.2179  1.3359 -0.1268
25950SOL     OW81891   0.829   0.320   7.211 -0.2685 -0.6470  0.2975
25950SOL    HW181892   0.847   0.278   7.296  1.1746 -1.5445 -0.4244
25950SOL    HW281893   0.833   0.413   7.229 -2.7568 -0.7134  1.7827
25951SOL     OW81894   7.991   6.354   7.108 -0.1261  0.3800  0.0187
25951SOL    HW181895   8.079   6.348   7.071  0.8405  0.6011  2.1413
25951SOL    HW281896   8.005   6.374   7.200 -2.3415 -2.2478  1.0517
25952SOL     OW81897   9.807   8.982   3.333  0.3536 -0.2701 -0.0444
25952SOL    HW181898   9.789   8.891   3.310  0.4162 -0.1515 -0.5790
25952SOL    HW281899   9.849   8.978   3.419  0.3523 -0.7462 -0.0674
25953SOL     OW81900   3.027   9.552   8.749  0.8004 -0.5142 -0.1553
25953SOL    HW181901   2.990   9.517   8.667  0.4098 -0.7885  0.1316
25953SOL    HW281902   3.108   9.503   8.761  1.0085 -0.2713 -0.5242
25954SOL     OW81903   5.490   8.893   8.557 -0.3390  0.6697 -0.0722
25954SOL    HW181904   5.435   8.946   8.499 -0.7322 -1.0767 -1.3762
25954SOL    HW281905   5.478   8.804   8.526  0.1745 -0.2305  2.1604
25955SOL     OW81906   2.957   0.145   1.217  0.6230  0.1918  0.4934
25955SOL    HW181907   2.981   0.177   1.130 -2.3935 -1.0127 -0.9228
25955SOL    HW281908   3.003   0.062   1.225  0.2495 -0.1213 -0.3903
25956SOL     OW81909   7.829   2.345   6.538 -0.2476 -0.4447  0.1255
25956SOL    HW181910   7.774   2.359   6.614  0.7855  0.4766  0.7401
25956SOL    HW281911   7.905   2.296   6.571 -0.0003 -0.4280 -0.3978
25957SOL     OW81912   6.852   0.962   1.941  0.0664  0.1980 -0.7098
25957SOL    HW181913   6.780   1.024   1.951  0.5330  0.6951 -0.3614
25957SOL    HW281914   6.906   0.998   1.871  0.1747  0.0187 -0.7203
25958SOL     OW81915   2.538   0.259   8.734  0.4164 -0.1723 -0.8087
25958SOL    HW181916   2.583   0.306   8.805 -1.3703 -1.4568  1.3075
25958SOL    HW281917   2.447   0.290   8.739 -0.0108 -1.2346 -1.6870
25959SOL     OW81918   7.002   8.740   4.951 -0.1942 -0.4844 -0.1805
25959SOL    HW181919   7.030   8.699   4.869 -0.8837 -1.4595  0.0537
25959SOL    HW281920   6.977   8.829   4.925 -0.3604 -0.7683 -1.0349
25960SOL     OW81921   2.901   2.977   2.963 -0.1332 -0.2521 -0.0217
25960SOL    HW181922   2.810   2.990   2.937 -0.0482  0.2627 -0.0710
25960SOL    HW281923   2.936   2.913   2.901 -0.4637 -0.4521  0.0005
25961SOL     OW81924   6.990   0.961   7.162 -0.6780 -0.5533  0.1657
25961SOL    HW181925   7.014   1.026   7.228  3.0480  1.2397 -2.5647
25961SOL    HW281926   6.899   0.980   7.141  0.1060  3.7116 -0.1828
25962SOL     OW81927   2.768   6.045   7.642 -0.5170  0.4931  0.5983
25962SOL    HW181928   2.741   6.136   7.625  0.6944  0.5987 -0.9093
25962SOL    HW281929   2.847   6.054   7.696  0.1172  0.3767 -0.2965
25963SOL     OW81930   2.686   1.851   0.897 -0.0467 -0.2626  0.1272
25963SOL    HW181931   2.625   1.883   0.963 -0.2557  0.7421 -0.5347
25963SOL    HW281932   2.631   1.813   0.829 -0.0353  1.5850 -0.9716
25964SOL     OW81933   1.019   3.604   7.141 -0.4992 -0.8415  0.3336
25964SOL    HW181934   0.934   3.587   7.101 -0.6515  0.5667 -0.0210
25964SOL    HW281935   0.998   3.652   7.222 -0.0451  0.9115 -0.5226
25965SOL     OW81936   0.092   9.241   4.845 -0.3266  0.6184 -0.0293
25965SOL    HW181937   0.075   9.309   4.910 -3.0927 -0.1830  0.2013
25965SOL    HW281938   0.156   9.280   4.786 -0.0450  2.5083  1.4216
25966SOL     OW81939   5.388   9.345   8.171 -0.9679  0.5557 -0.2569
25966SOL    HW181940   5.366   9.433   8.141 -1.5465  0.4231 -0.2233
25966SOL    HW281941   5.414   9.357   8.263  0.2653  0.8784 -0.6216
25967SOL     OW81942   6.967   2.723   3.670 -0.0593  0.0644 -0.4866
25967SOL    HW181943   6.998   2.763   3.751  0.9831 -1.4758 -0.0810
25967SOL    HW281944   7.004   2.778   3.601 -1.1183  1.5103  0.0406
25968SOL     OW81945   5.687   8.699   3.091 -0.4669 -0.1991 -0.6409
25968SOL    HW181946   5.630   8.760   3.138 -0.8283 -0.5206 -0.6506
25968SOL    HW281947   5.756   8.754   3.055 -0.9994  0.2685 -0.9765
25969SOL     OW81948   5.417   0.566   7.063 -0.2536  0.4812  0.0079
25969SOL    HW181949   5.329   0.530   7.074  0.4754 -1.7543 -0.8595
25969SOL    HW281950   5.408   0.632   6.995 -1.1699 -0.2114 -0.5644
25970SOL     OW81951   0.689   1.866   4.513  0.2727  0.9806 -0.2509
25970SOL    HW181952   0.623   1.923   4.552  0.6167  0.7302  0.7277
25970SOL    HW281953   0.769   1.885   4.561  1.2136  2.0555 -2.1404
25971SOL     OW81954   0.128   2.824   3.595  0.3362 -0.0508  0.5657
25971SOL    HW181955   0.037   2.797   3.601  0.0471  0.9974  1.0511
25971SOL    HW281956   0.129   2.893   3.529  0.2328  2.0202  2.5949
25972SOL     OW81957   2.727   0.760   0.789 -0.3601  0.4246 -0.1689
25972SOL    HW181958   2.816   0.795   0.794 -0.2455 -0.0249  1.2101
25972SOL    HW281959   2.670   0.835   0.808 -0.2474  0.5332 -0.2569
25973SOL     OW81960   7.131   6.739   1.848  0.3000  0.1003  0.0575
25973SOL    HW181961   7.036   6.732   1.851  0.3786 -0.5676  1.1424
25973SOL    HW281962   7.161   6.652   1.821  0.6701 -0.1678  1.2846
25974SOL     OW81963   5.035   0.354   6.691 -0.6112 -0.0273  0.6713
25974SOL    HW181964   5.020   0.324   6.781 -0.1384  0.4714  0.9188
25974SOL    HW281965   4.950   0.342   6.648 -1.2576  1.1207  1.5844
25975SOL     OW81966   2.155   6.954   5.910  0.5089 -0.2894  0.1677
25975SOL    HW181967   2.066   6.930   5.934  1.2831 -1.6243  1.8971
25975SOL    HW281968   2.191   6.876   5.868  1.0206  0.0663 -0.0704
25976SOL     OW81969   3.940   1.674   8.177  0.1818  0.0369  0.1850
25976SOL    HW181970   3.962   1.766   8.162 -0.8085  0.5237  1.5407
25976SOL    HW281971   3.917   1.640   8.090  1.2919  0.8449 -0.4491
25977SOL     OW81972   4.539   2.639   5.412 -0.1906 -0.0114  0.2664
25977SOL    HW181973   4.491   2.569   5.366 -0.9253  0.7003 -0.0788
25977SOL    HW281974   4.601   2.592   5.468  0.4453 -0.9300 -1.1248
25978SOL     OW81975   4.408   9.473   1.864  0.2489 -0.0944  0.7227
25978SOL    HW181976   4.497   9.463   1.900  0.5124  1.5178  0.5744
25978SOL    HW281977   4.407   9.560   1.825 -0.9508 -0.6803 -0.6380
25979SOL     OW81978   9.146   9.953   7.790  0.0076 -0.1612  0.0961
25979SOL    HW181979   9.161   9.994   7.705 -1.8264  0.1980 -0.1047
25979SOL    HW281980   9.232   9.922   7.818  0.7775  0.4296 -1.5138
25980SOL     OW81981   5.351   2.457   1.667  0.2298  0.4785 -0.2020
25980SOL    HW181982   5.282   2.519   1.644  0.5759  0.6305 -0.8589
25980SOL    HW281983   5.305   2.373   1.679  0.0851  0.2655 -2.0228
25981SOL     OW81984   8.702   1.801   7.917  0.6850  0.0905  0.6615
25981SOL    HW181985   8.758   1.771   7.989  0.5842 -0.4159  0.5354
25981SOL    HW281986   8.633   1.852   7.959  0.9728  0.3118  0.8646
25982SOL     OW81987   7.723   1.062   3.566  0.3050  0.5688  1.0806
25982SOL    HW181988   7.753   1.085   3.654  1.7320  0.9717  0.5265
25982SOL    HW281989   7.649   1.121   3.550 -0.3635  0.0794  2.2059
25983SOL     OW81990   9.449   4.966   9.225  0.4288  0.5154  0.1357
25983SOL    HW181991   9.459   4.958   9.131 -0.5967 -0.3269  0.0814
25983SOL    HW281992   9.378   4.907   9.247 -0.5176  1.9707  1.2007
25984SOL     OW81993   3.322   4.130   3.941 -0.1977 -0.5617 -0.1697
25984SOL    HW181994   3.345   4.196   3.876 -0.5166 -1.3266 -1.0754
25984SOL    HW281995   3.328   4.047   3.894  3.2301 -1.5412  1.6711
25985SOL     OW81996   8.164   9.422   0.676 -0.7038  0.1030  0.6425
25985SOL    HW181997   8.100   9.485   0.708 -0.2130  0.8486  0.1912
25985SOL    HW281998   8.143   9.411   0.584 -0.1131  0.4458  0.4624
25986SOL     OW81999   1.749   7.755   2.168  0.3719  0.6920 -0.3363
25986SOL    HW182000   1.708   7.804   2.240  1.2744  0.4497  0.3692
25986SOL    HW282001   1.842   7.751   2.192  0.2651 -1.8344 -0.0443
25987SOL     OW82002   8.474   5.525   6.722  0.3859  0.0100  0.0911
25987SOL    HW182003   8.453   5.561   6.636  1.2348  0.3377  0.0100
25987SOL    HW282004   8.508   5.600   6.772 -1.4627  0.1532  1.2049
25988SOL     OW82005   3.198   2.266   6.262  0.4299  0.1374  0.0500
25988SOL    HW182006   3.149   2.274   6.343 -0.3963 -1.1477 -0.2894
25988SOL    HW282007   3.215   2.356   6.234 -1.1264  0.6106  0.5532
25989SOL     OW82008   9.120   1.730   0.735  0.1913  0.0068  0.2314
25989SOL    HW182009   9.090   1.820   0.748 -0.6735 -0.0190 -1.3285
25989SOL    HW282010   9.195   1.739   0.675 -0.6830 -0.3791 -0.9469
25990SOL     OW82011   1.673   4.394   3.314  0.4444 -0.1349 -0.1541
25990SOL    HW182012   1.587   4.434   3.303  0.3031 -0.0447  1.1365
25990SOL    HW282013   1.654   4.303   3.337  0.5206  0.5229  3.0585
25991SOL     OW82014   9.217   5.319   1.194 -0.2490 -0.1980 -0.3509
25991SOL    HW182015   9.143   5.364   1.153  0.7690  2.3759  0.4881
25991SOL    HW282016   9.192   5.226   1.191 -3.9826  0.5785  0.8314
25992SOL     OW82017   5.537   1.143   3.790 -0.1017 -0.1119  0.3642
25992SOL    HW182018   5.630   1.122   3.786 -0.4487 -1.6362 -2.3397
25992SOL    HW282019   5.497   1.066   3.831 -0.3152 -0.2311 -0.0569
25993SOL     OW82020   8.626   7.172   6.330  0.3385  0.0187  0.0259
25993SOL    HW182021   8.657   7.197   6.417  0.2939 -0.7273  0.2583
25993SOL    HW282022   8.642   7.250   6.276 -0.0056  0.6334  0.7858
25994SOL     OW82023   8.662   4.016   3.609 -0.4005  0.3588  0.4952
25994SOL    HW182024   8.623   3.938   3.569 -1.3385  1.0874 -0.0689
25994SOL    HW282025   8.635   4.011   3.701 -3.2743  1.6069 -0.1553
25995SOL     OW82026   6.572   8.149   4.078  0.2099 -0.1803  0.2071
25995SOL    HW182027   6.511   8.207   4.033 -2.7666 -2.0887  1.5176
25995SOL    HW282028   6.572   8.178   4.169 -0.0203 -1.1991  0.5442
25996SOL     OW82029   8.711   1.599   0.608  0.1350  0.5425 -0.6559
25996SOL    HW182030   8.618   1.618   0.618 -0.1249 -1.0526  0.2753
25996SOL    HW282031   8.715   1.527   0.546  0.5364 -0.9488  1.0158
25997SOL     OW82032   4.854  10.162   8.522  0.0177  0.1828  0.4252
25997SOL    HW182033   4.801  10.234   8.488 -0.4089  0.5876  1.8968
25997SOL    HW282034   4.807  10.131   8.600  1.1575 -0.4538  0.8870
25998SOL     OW82035   7.539   9.765   7.517 -0.1084 -0.2606  0.4111
25998SOL    HW182036   7.473   9.704   7.552 -0.3466  0.5650  1.4325
25998SOL    HW282037   7.621   9.716   7.521 -0.6843 -1.4825 -1.3195
25999SOL     OW82038   5.460   1.213   6.133  0.7249 -0.2587  0.0818
25999SOL    HW182039   5.435   1.306   6.131  1.6591  0.0288 -2.3808
25999SOL    HW282040   5.538   1.211   6.189 -0.6397 -0.0211  2.1090
26000SOL     OW82041   7.295   4.014   6.838  0.2460  0.4241 -0.3731
26000SOL    HW182042   7.326   4.046   6.754 -0.5863  0.9698 -0.4845
26000SOL    HW282043   7.263   4.092   6.883 -0.1537  0.0069  0.0805
26001SOL     OW82044   2.995   3.491   3.569  0.3399 -0.3364  0.4889
26001SOL    HW182045   2.912   3.537   3.557  0.2044 -1.0913 -2.2726
26001SOL    HW282046   2.978   3.427   3.637 -0.9935  0.2759  0.7690
26002SOL     OW82047   6.800   2.427   0.089 -0.4516  0.3170 -0.4208
26002SOL    HW182048   6.741   2.373   0.141  0.4769 -0.2487  0.0804
26002SOL    HW282049   6.818   2.374   0.011  0.7552 -0.3140  0.2425
26003SOL     OW82050   8.268   0.500   1.336 -0.1825 -0.1197  0.2128
26003SOL    HW182051   8.267   0.452   1.253  0.6709  1.1117 -0.5332
26003SOL    HW282052   8.264   0.592   1.310  1.1005  0.3201  1.4930
26004SOL     OW82053   1.737   2.359   4.288  0.0349  0.1615  0.5151
26004SOL    HW182054   1.647   2.366   4.255  1.0977  1.1749 -2.4969
26004SOL    HW282055   1.729   2.306   4.368 -3.0587 -0.8034 -0.2840
26005SOL     OW82056   2.313   6.751   2.081 -0.1097 -0.5794  0.0848
26005SOL    HW182057   2.392   6.727   2.034  0.0546  0.4254 -0.1651
26005SOL    HW282058   2.343   6.806   2.153 -0.4959 -0.9832  0.5695
26006SOL     OW82059   5.084   2.488   9.529  0.2525 -0.4179 -0.8382
26006SOL    HW182060   5.037   2.449   9.456  0.6959  0.9429 -1.8869
26006SOL    HW282061   5.079   2.582   9.513  1.7937 -0.1671 -0.0193
26007SOL     OW82062   1.387   5.826   1.971 -0.2504 -0.2550 -0.2564
26007SOL    HW182063   1.409   5.863   1.885 -1.0035  2.2937  0.5790
26007SOL    HW282064   1.313   5.878   2.002  0.6263 -0.4233  2.3663
26008SOL     OW82065   9.047   0.247   1.278 -0.4988 -0.3551 -0.1279
26008SOL    HW182066   9.118   0.237   1.214 -0.3920  1.6363 -0.3706
26008SOL    HW282067   8.976   0.193   1.243  0.4960 -1.4879 -0.4662
26009SOL     OW82068   9.920   5.813   6.715 -0.0723 -0.0399  0.3741
26009SOL    HW182069  10.011   5.836   6.732 -0.5686  3.5180 -0.7422
26009SOL    HW282070   9.919   5.781   6.625  0.1189 -0.4229  0.5090
26010SOL     OW82071   0.755   6.677   9.475 -0.1221 -0.0202 -0.0341
26010SOL    HW182072   0.842   6.641   9.458  0.6692  1.5672  0.3554
26010SOL    HW282073   0.747   6.675   9.571 -0.3095  0.2728 -0.0412
26011SOL     OW82074   0.635   5.332   1.284  0.5067  0.1885  0.4357
26011SOL    HW182075   0.704   5.382   1.326  1.7333 -1.5432  0.6016
26011SOL    HW282076   0.681   5.268   1.229 -0.8478 -1.9693  1.6569
26012SOL     OW82077   1.359   9.843   8.654  0.2273  0.1615 -0.4447
26012SOL    HW182078   1.337   9.852   8.561  0.4770 -0.5397 -0.5768
26012SOL    HW282079   1.447   9.806   8.654  0.7737  1.3896  0.0772
26013SOL     OW82080   9.963   6.064   2.272 -0.1192 -0.1071  0.1380
26013SOL    HW182081  10.055   6.048   2.250 -0.2604 -1.4527  0.4387
26013SOL    HW282082   9.921   6.083   2.188 -0.0832 -2.2601 -0.4312
26014SOL     OW82083   7.569   6.399   9.886 -0.3850 -0.6397  0.2474
26014SOL    HW182084   7.500   6.347   9.845 -1.1019 -1.0412  1.8382
26014SOL    HW282085   7.628   6.423   9.815  0.4847 -4.3394 -0.4986
26015SOL     OW82086   9.307   1.731   0.470  0.1131  0.1679  0.0208
26015SOL    HW182087   9.348   1.647   0.451 -0.4001 -0.1425  0.2569
26015SOL    HW282088   9.342   1.790   0.404 -1.9396 -0.9742 -2.2581
26016SOL     OW82089   1.373   2.280   3.803 -0.1479  0.5905  0.2018
26016SOL    HW182090   1.445   2.237   3.757  1.5300  1.8010  1.5773
26016SOL    HW282091   1.389   2.262   3.895 -0.5933  2.3298  0.6630
26017SOL     OW82092   6.295   4.250   8.108  0.1979  0.1782  0.5389
26017SOL    HW182093   6.340   4.330   8.137  1.2717 -0.6545  1.2324
26017SOL    HW282094   6.237   4.228   8.181  0.8372 -0.3737  0.8818
26018SOL     OW82095   3.795   9.719   1.996 -0.2024  0.1647 -0.0983
26018SOL    HW182096   3.704   9.721   1.966 -0.3878  0.4093  0.4628
26018SOL    HW282097   3.799   9.787   2.063  1.0624  2.1384 -2.0227
26019SOL     OW82098   9.782   0.520   8.601  0.3557  0.2514  0.1672
26019SOL    HW182099   9.741   0.440   8.634  3.5636 -1.4789  0.3636
26019SOL    HW282100   9.766   0.584   8.670 -1.9486 -0.2735  0.1928
26020SOL     OW82101   1.643   4.560   8.798 -0.1020 -0.4403 -0.2949
26020SOL    HW182102   1.633   4.630   8.863  2.4981  0.4033 -0.6772
26020SOL    HW282103   1.614   4.481   8.843 -0.7449  0.5108  1.0290
26021SOL     OW82104   0.982   6.109  10.055 -0.5410  0.3013  0.0365
26021SOL    HW182105   0.999   6.203  10.053  0.1434  0.2608  2.0993
26021SOL    HW282106   0.903   6.099  10.107 -0.4672 -0.2948  0.0451
26022SOL     OW82107   8.572   8.334   9.174 -0.5539  0.2911  0.4416
26022SOL    HW182108   8.622   8.415   9.170 -0.8981  0.5015  0.3470
26022SOL    HW282109   8.533   8.325   9.087  0.4334 -0.5999  0.0758
26023SOL     OW82110   0.097   5.048   3.739 -0.3233 -0.4200  0.4679
26023SOL    HW182111   0.137   5.023   3.656  1.3789 -0.6718  1.3189
26023SOL    HW282112   0.035   5.117   3.715  1.6864  1.0755 -0.7909
26024SOL     OW82113   4.196   5.088   1.718 -0.9733 -0.2358 -0.1751
26024SOL    HW182114   4.184   5.051   1.631  0.3776  0.2338 -0.5819
26024SOL    HW282115   4.172   5.180   1.709  1.1879  0.3300 -0.6125
26025SOL     OW82116   1.262   9.679   2.027  0.2961 -0.1030 -0.0384
26025SOL    HW182117   1.352   9.647   2.030  0.5536  0.7013  1.5839
26025SOL    HW282118   1.217   9.619   1.967  1.4959 -1.5591  0.4653
26026SOL     OW82119   9.570   8.702   9.063  0.3765 -0.3962  0.0373
26026SOL    HW182120   9.527   8.774   9.015  0.3304 -1.5641 -1.7820
26026SOL    HW282121   9.590   8.637   8.995  2.0115 -1.3485  1.3597
26027SOL     OW82122   4.461   7.816   4.908  0.0114  0.2185  0.0791
26027SOL    HW182123   4.453   7.768   4.990 -1.3240 -0.1182 -0.2273
26027SOL    HW282124   4.423   7.902   4.927  0.1209  0.3014 -0.0713
26028SOL     OW82125   1.228  10.035   5.167 -0.2088 -0.2874  0.1069
26028SOL    HW182126   1.155  10.094   5.148 -0.5450  0.0314  2.2221
26028SOL    HW282127   1.304  10.092   5.179  0.2682 -0.5703 -1.2693
26029SOL     OW82128   8.481   4.985   4.989  0.2909  0.0569  0.3752
26029SOL    HW182129   8.456   4.892   4.984 -2.2380  0.6082  1.0183
26029SOL    HW282130   8.576   4.985   4.981  0.3442 -2.5665  0.0824
26030SOL     OW82131   7.200   8.697   9.019  0.2568 -0.2018  0.1572
26030SOL    HW182132   7.215   8.755   9.094  0.9961 -1.6894  1.2269
26030SOL    HW282133   7.113   8.661   9.034 -0.1614  0.5403 -0.4529
26031SOL     OW82134   8.637   4.459   8.850  0.2685  0.3341 -0.8330
26031SOL    HW182135   8.588   4.385   8.815 -0.1444  0.5071 -0.6338
26031SOL    HW282136   8.578   4.534   8.839  0.8405  0.7061 -1.3978
26032SOL     OW82137   6.163   4.988   3.989  0.1022  0.0130 -0.4464
26032SOL    HW182138   6.155   4.893   3.994  0.1236  0.0827  1.7964
26032SOL    HW282139   6.256   5.003   3.976  0.3801 -0.2694  1.0475
26033SOL     OW82140   7.528   9.934   2.207  0.3837 -0.3463  0.0862
26033SOL    HW182141   7.596   9.876   2.174  0.6152 -0.9553  1.5889
26033SOL    HW282142   7.515   9.908   2.298 -0.3861  1.1437  0.4384
26034SOL     OW82143   2.683   9.627   4.947 -0.2275 -0.8918 -0.0738
26034SOL    HW182144   2.688   9.722   4.936 -2.1498 -0.8093 -0.6671
26034SOL    HW282145   2.589   9.609   4.949  0.1076 -2.8390 -0.3843
26035SOL     OW82146   3.212   5.489  10.269  0.5350 -0.7970 -0.7154
26035SOL    HW182147   3.197   5.442  10.351  0.1247 -1.2836 -1.0599
26035SOL    HW282148   3.266   5.428  10.218  0.8926 -0.4439 -0.7590
26036SOL     OW82149   1.509   7.098   8.658 -0.0681 -0.6176  0.0222
26036SOL    HW182150   1.519   7.078   8.565  1.0549  1.4056 -0.3494
26036SOL    HW282151   1.420   7.133   8.665  0.1646  0.1080 -0.4955
26037SOL     OW82152   9.617   1.920   3.433  0.4658  0.2454 -0.2347
26037SOL    HW182153   9.667   1.912   3.352 -0.7764 -1.3595 -0.9233
26037SOL    HW282154   9.537   1.965   3.408 -0.4178 -1.2186 -0.1956
26038SOL     OW82155   9.981   4.466   7.616 -0.6052 -0.1400  0.0045
26038SOL    HW182156  10.049   4.467   7.683  0.0363  2.6547 -0.5591
26038SOL    HW282157   9.899   4.459   7.665 -0.0283 -3.8259  0.6719
26039SOL     OW82158   9.696   5.238   5.517  0.3163 -0.4996  0.2073
26039SOL    HW182159   9.601   5.247   5.504  0.1974 -1.3632  0.3962
26039SOL    HW282160   9.704   5.203   5.605  0.8838  0.6674  0.6412
26040SOL     OW82161   5.258   4.286   0.502 -0.2432  0.0910  0.2125
26040SOL    HW182162   5.267   4.380   0.515 -1.8632  0.2364  0.4689
26040SOL    HW282163   5.215   4.255   0.581 -0.5853 -0.7145 -0.2758
26041SOL     OW82164   7.189   0.958   4.003  0.0084  0.0783  0.2540
26041SOL    HW182165   7.125   0.990   3.940  1.5554  1.5903 -0.6320
26041SOL    HW282166   7.156   0.988   4.088 -0.6123  0.5813 -0.1591
26042SOL     OW82167   0.204   4.496   7.561 -0.0429  0.2553  0.4287
26042SOL    HW182168   0.187   4.519   7.653 -1.0387 -2.7339  1.1146
26042SOL    HW282169   0.120   4.510   7.517  0.2530  1.0336  0.0930
26043SOL     OW82170   7.600   1.288   9.204  0.4965  0.2115  0.4558
26043SOL    HW182171   7.575   1.219   9.142 -1.2638 -0.1660  1.5193
26043SOL    HW282172   7.518   1.316   9.243  1.4451  1.2556  1.8009
26044SOL     OW82173   7.182   0.044   7.516  0.3009 -0.5132 -0.7565
26044SOL    HW182174   7.256   0.102   7.531 -0.8740  1.3680 -1.8405
26044SOL    HW282175   7.197  -0.030   7.575  1.1879  1.5087  1.7009
26045SOL     OW82176   7.580   1.443   7.781 -0.5933 -0.9650  0.3849
26045SOL    HW182177   7.593   1.451   7.686 -0.6225 -0.6946  0.4015
26045SOL    HW282178   7.557   1.351   7.794  1.7683 -1.6155  0.4250
26046SOL     OW82179   2.390   1.899   7.980  0.1328  0.0244 -0.0690
26046SOL    HW182180   2.472   1.936   7.948  1.5294 -1.1366  1.9193
26046SOL    HW282181   2.327   1.971   7.976  1.7682  1.5330  0.2292
26047SOL     OW82182   7.524   9.634  10.228 -0.2624  0.1480 -0.0943
26047SOL    HW182183   7.527   9.600  10.318 -0.4803  1.1327  0.2985
26047SOL    HW282184   7.598   9.593  10.184  0.6577  0.6848  0.9139
26048SOL     OW82185   0.210   5.905   2.198  0.3780 -0.1180  0.3352
26048SOL    HW182186   0.167   5.820   2.195 -2.0490  1.0311 -2.0489
26048SOL    HW282187   0.237   5.921   2.108  0.4791  1.7571  0.6619
26049SOL     OW82188   8.939   7.848   1.992 -0.2363  0.2126  0.4860
26049SOL    HW182189   8.967   7.807   1.910 -2.0044  0.9937 -0.5460
26049SOL    HW282190   8.953   7.780   2.058  4.2933  0.5572  0.2336
26050SOL     OW82191   6.346   2.825   6.043  0.2512 -0.2327  0.3245
26050SOL    HW182192   6.341   2.756   5.977  1.5531  0.3770 -0.4678
26050SOL    HW282193   6.313   2.903   5.998  1.2840  0.2174  0.3018
26051SOL     OW82194   5.471   1.838   0.925  0.1716  0.6602  0.3007
26051SOL    HW182195   5.436   1.795   0.847  1.7693  1.0638 -0.6782
26051SOL    HW282196   5.468   1.771   0.993 -2.4552  0.6681  0.3159
26052SOL     OW82197   4.484   4.142   9.441 -0.8253 -0.3860  0.9737
26052SOL    HW182198   4.477   4.114   9.532  0.6458 -2.3157  0.5455
26052SOL    HW282199   4.576   4.165   9.429 -1.1634  0.6638  0.1549
26053SOL     OW82200   7.263   4.196   7.281 -0.3190 -0.0435 -0.2992
26053SOL    HW182201   7.279   4.289   7.298 -3.3156  0.4274  0.5408
26053SOL    HW282202   7.296   4.152   7.360  0.4983  0.3554 -0.4041
26054SOL     OW82203   0.440   6.678   0.247 -0.1730  0.3130  0.3069
26054SOL    HW182204   0.373   6.624   0.206 -0.2152  1.2807 -0.9614
26054SOL    HW282205   0.491   6.616   0.300 -0.0509 -1.0360 -1.2864
26055SOL     OW82206   3.394   9.078   6.699  0.5308  0.2535 -0.4748
26055SOL    HW182207   3.323   9.103   6.640  0.2545  0.1432 -0.1889
26055SOL    HW282208   3.378   8.985   6.718 -1.4698  1.0871  2.6243
26056SOL     OW82209   2.139   2.024   7.979 -0.0635  0.0610  0.0450
26056SOL    HW182210   2.103   2.093   7.924 -0.4544  1.9277  2.4822
26056SOL    HW282211   2.128   2.056   8.069 -1.0848 -3.5340  1.3969
26057SOL     OW82212   9.704   6.671   1.807 -0.1566  0.0967  0.2548
26057SOL    HW182213   9.646   6.618   1.862 -0.2575  0.5649  0.6047
26057SOL    HW282214   9.769   6.707   1.868  0.1581  0.0432 -0.0452
26058SOL     OW82215   3.760   7.771   5.364  0.0415  0.6503 -0.1647
26058SOL    HW182216   3.832   7.708   5.367 -1.8404 -1.5923  0.9889
26058SOL    HW282217   3.749   7.799   5.455 -1.1891  0.1581 -0.1454
26059SOL     OW82218   9.517   6.911   4.644 -0.1452  0.0202  0.3289
26059SOL    HW182219   9.486   6.994   4.679  0.1407  0.7352 -1.0129
26059SOL    HW282220   9.514   6.923   4.549  0.5732 -1.2545  0.1221
26060SOL     OW82221   1.298   6.429   9.338  0.0166  0.0251  0.1331
26060SOL    HW182222   1.383   6.397   9.369 -0.2535 -1.7273 -0.7741
26060SOL    HW282223   1.316   6.467   9.252 -0.0062  0.3118  0.2547
26061SOL     OW82224   5.196   0.113   4.145 -0.1822 -0.2052 -0.0185
26061SOL    HW182225   5.179   0.204   4.123 -0.4766 -0.3484 -0.3924
26061SOL    HW282226   5.286   0.097   4.116  0.3348  0.3286  1.2357
26062SOL     OW82227   9.894   2.819   9.698  0.1996 -0.7336 -0.4119
26062SOL    HW182228   9.929   2.907   9.686  0.7794 -0.8183  0.5295
26062SOL    HW282229   9.803   2.832   9.725 -0.4813 -0.5038 -2.6414
26063SOL     OW82230   8.777   8.568   2.080  0.2772 -0.4286 -0.5920
26063SOL    HW182231   8.701   8.621   2.103  0.0538 -0.9645 -0.0443
26063SOL    HW282232   8.762   8.543   1.989  1.4319  2.1729 -1.5870
26064SOL     OW82233   6.001   0.782   8.283  0.1799 -0.0533  0.5724
26064SOL    HW182234   5.954   0.852   8.238  0.3945 -0.0581  0.3402
26064SOL    HW282235   5.960   0.777   8.370  1.1131  1.3271  1.1168
26065SOL     OW82236   6.672   6.001   2.433 -0.0088  0.3985 -0.4562
26065SOL    HW182237   6.698   6.049   2.512 -0.1841 -0.6022  0.2234
26065SOL    HW282238   6.672   6.068   2.364  1.3265  1.0533  0.1351
26066SOL     OW82239   8.810   1.326   4.966 -0.1487 -0.6187  0.0642
26066SOL    HW182240   8.786   1.355   5.054 -0.5018 -1.9338  0.4207
26066SOL    HW282241   8.807   1.406   4.913 -1.3582 -0.0385  0.9497
26067SOL     OW82242   1.595   7.521   7.694 -0.4834  0.2370 -0.1168
26067SOL    HW182243   1.661   7.582   7.661 -1.4803  2.4833  1.8099
26067SOL    HW282244   1.634   7.482   7.772 -0.6408 -0.0826 -0.1917
26068SOL     OW82245   2.848   1.526   4.181  0.2285 -0.1196  0.0758
26068SOL    HW182246   2.873   1.443   4.140  2.5308  1.7690 -2.7425
26068SOL    HW282247   2.900   1.529   4.262  1.1302 -0.8899 -0.4506
26069SOL     OW82248   8.005   7.807   2.723 -0.4210  0.1520  0.4854
26069SOL    HW182249   8.051   7.726   2.741 -1.7398 -0.8046 -0.2968
26069SOL    HW282250   8.041   7.870   2.785  0.0260 -1.2439  1.6824
26070SOL     OW82251   3.595   9.243   3.356  0.7782 -0.3097 -0.1831
26070SOL    HW182252   3.641   9.245   3.440  0.5052  2.0848 -0.0212
26070SOL    HW282253   3.662   9.266   3.291  0.0965  2.3802 -0.0393
26071SOL     OW82254   8.835   9.550   3.978 -0.1240 -0.1844 -0.2146
26071SOL    HW182255   8.839   9.544   4.073  0.8792 -1.4547 -0.3093
26071SOL    HW282256   8.926   9.560   3.950 -0.2235 -1.4342 -1.0993
26072SOL     OW82257   2.443   0.718   7.593  0.2017 -0.7176 -0.4974
26072SOL    HW182258   2.386   0.642   7.581 -0.0286 -0.8531  1.1861
26072SOL    HW282259   2.532   0.684   7.583  0.0867 -1.1414 -0.1015
26073SOL     OW82260   2.069   3.591   1.990 -0.5092 -0.1755 -0.0165
26073SOL    HW182261   1.988   3.545   2.011 -1.0876  0.6255 -0.4242
26073SOL    HW282262   2.051   3.634   1.907 -0.0211  0.8316  0.3775
26074SOL     OW82263   7.988   4.845   5.717 -0.2479  0.5857 -0.6543
26074SOL    HW182264   8.018   4.931   5.688 -0.7277  0.7722 -0.6129
26074SOL    HW282265   7.954   4.860   5.805  0.2577  0.2238 -0.3950
26075SOL     OW82266   5.781   8.936   5.686 -0.6576 -0.0221  0.1947
26075SOL    HW182267   5.815   8.851   5.659 -0.6746  0.1197 -0.2805
26075SOL    HW282268   5.784   8.934   5.781 -1.8032 -1.0312  0.2338
26076SOL     OW82269   8.687   4.892   4.021  0.8781 -0.4088  0.1854
26076SOL    HW182270   8.644   4.897   4.107  1.1194  0.8446  0.2538
26076SOL    HW282271   8.703   4.983   3.997  0.9021 -0.7440 -1.1567
26077SOL     OW82272   7.324   9.197   2.808  0.3745  0.2949 -0.2168
26077SOL    HW182273   7.318   9.109   2.771  0.6145  0.0935  0.2056
26077SOL    HW282274   7.353   9.252   2.736 -3.0991  0.7125 -1.4534
26078SOL     OW82275   4.579   7.534   1.402  0.6125 -0.6498  0.6366
26078SOL    HW182276   4.605   7.537   1.310 -0.0846 -1.7415  0.3897
26078SOL    HW282277   4.569   7.441   1.421 -0.4732 -0.3819  1.4674
26079SOL     OW82278   4.786   1.444   6.428 -0.2585 -0.4849 -0.1012
26079SOL    HW182279   4.762   1.498   6.353  0.4022  0.9073  0.6533
26079SOL    HW282280   4.702   1.421   6.468 -0.6800 -1.9556 -1.6911
26080SOL     OW82281   9.338   0.082   0.288  0.0924 -0.7039 -0.7997
26080SOL    HW182282   9.337   0.170   0.250 -0.0199 -0.6460 -0.6645
26080SOL    HW282283   9.369   0.026   0.217 -0.5382 -0.6617 -1.1187
26081SOL     OW82284   1.860   0.239   4.892 -0.5464 -0.6832  0.1853
26081SOL    HW182285   1.938   0.252   4.946  0.0564 -0.4212 -0.7392
26081SOL    HW282286   1.890   0.251   4.802 -0.9836 -3.5728 -0.4328
26082SOL     OW82287   2.490   1.936   7.540  0.1595  0.1063 -0.3374
26082SOL    HW182288   2.429   1.905   7.607 -0.6056  1.7470 -0.2447
26082SOL    HW282289   2.538   2.007   7.582  1.7263 -0.7278 -0.6274
26083SOL     OW82290   5.174   1.237   4.542  0.2845 -0.0323  0.1851
26083SOL    HW182291   5.167   1.260   4.635 -1.8486  1.3590 -0.2330
26083SOL    HW282292   5.162   1.142   4.540  1.6214 -0.2607  1.4026
26084SOL     OW82293   5.109   2.974   7.308  0.0021  0.5031 -0.5421
26084SOL    HW182294   5.158   2.900   7.274  0.6077  0.6765 -0.0671
26084SOL    HW282295   5.017   2.946   7.305 -0.0553  0.7563 -2.9087
26085SOL     OW82296   3.410   3.025   4.942 -0.2684 -0.1889 -0.2480
26085SOL    HW182297   3.376   2.994   5.026 -1.3187  0.5791 -0.3768
26085SOL    HW282298   3.386   2.957   4.879  1.8822 -1.5439  0.2827
26086SOL     OW82299   8.157   7.352   7.880 -0.1337 -0.1020 -0.1121
26086SOL    HW182300   8.079   7.382   7.833 -1.0135  0.0185  1.3761
26086SOL    HW282301   8.230   7.394   7.834 -1.1042  1.5937 -0.1923
26087SOL     OW82302   0.529   2.072   6.423  0.1304  0.8384  0.0132
26087SOL    HW182303   0.530   1.978   6.441  0.0296  1.1780  2.0141
26087SOL    HW282304   0.618   2.101   6.443  0.0003  1.2665 -0.0307
26088SOL     OW82305   4.462   3.828   5.354  0.2190  0.3041 -0.3811
26088SOL    HW182306   4.473   3.822   5.449 -0.6642  0.3939 -0.2695
26088SOL    HW282307   4.382   3.779   5.336 -0.6933  1.8848 -0.8398
26089SOL     OW82308   9.225   8.723   4.446 -0.7688  0.0590 -0.2633
26089SOL    HW182309   9.287   8.794   4.462 -1.0921  1.0025 -2.7689
26089SOL    HW282310   9.280   8.644   4.445 -0.1142  0.4802  0.6340
26090SOL     OW82311   8.505   1.391   4.819 -0.4116 -0.2761 -0.5010
26090SOL    HW182312   8.461   1.454   4.762 -0.0557  0.4665  0.0172
26090SOL    HW282313   8.578   1.358   4.766  0.7242  1.3961 -0.0830
26091SOL     OW82314   3.438   8.672   2.220 -0.3187  0.1453 -0.5010
26091SOL    HW182315   3.445   8.584   2.184 -0.9883  0.2282 -0.8440
26091SOL    HW282316   3.475   8.729   2.153  0.4048  0.1066 -0.1487
26092SOL     OW82317   9.832   8.616   7.306  0.3098 -0.3069  0.4966
26092SOL    HW182318   9.841   8.567   7.387  0.6626 -1.1686 -0.0482
26092SOL    HW282319   9.748   8.662   7.315 -0.6009 -1.9045  0.5610
26093SOL     OW82320   6.174   7.488   6.937 -0.0599  0.0698 -0.1589
26093SOL    HW182321   6.232   7.429   6.984 -0.1342 -0.5763 -0.8587
26093SOL    HW282322   6.182   7.572   6.983  1.4141 -0.0090 -0.2381
26094SOL     OW82323   9.560   9.813   3.491 -0.4305 -0.1453 -0.4011
26094SOL    HW182324   9.609   9.775   3.564  0.2082 -0.9149 -1.2141
26094SOL    HW282325   9.627   9.842   3.429 -0.9378 -2.0133 -1.9344
26095SOL     OW82326   7.972   1.858   5.027  0.5009  0.7448  0.2230
26095SOL    HW182327   7.932   1.930   4.979  0.0832  0.3340 -0.0525
26095SOL    HW282328   7.951   1.780   4.976  0.8884  0.4158  0.5535
26096SOL     OW82329   3.533   4.497   6.397 -0.0923 -0.1036  0.2736
26096SOL    HW182330   3.455   4.535   6.437  0.5589  2.3954 -0.6066
26096SOL    HW282331   3.503   4.416   6.357 -1.2917 -1.4524  3.5355
26097SOL     OW82332   7.817   8.845  10.146 -0.5976  0.2655  0.7888
26097SOL    HW182333   7.876   8.862  10.219  1.8114 -1.9290 -0.5061
26097SOL    HW282334   7.745   8.795  10.184 -0.6870  1.2785  2.0334
26098SOL     OW82335   9.288   8.868   2.217  0.4271 -0.6257 -0.2704
26098SOL    HW182336   9.306   8.915   2.135  1.7477 -0.7284 -0.0501
26098SOL    HW282337   9.202   8.828   2.202 -0.9017  2.0208 -0.3739
26099SOL     OW82338   3.372   5.141   2.715  0.2264  0.2056  0.2910
26099SOL    HW182339   3.450   5.197   2.716  0.9285 -0.7266  2.0777
26099SOL    HW282340   3.373   5.098   2.800 -0.1943 -2.6276 -1.0330
26100SOL     OW82341   7.191   3.913   6.446  0.0664  0.4638  0.1039
26100SOL    HW182342   7.273   3.866   6.432  0.1917  0.6873  0.0734
26100SOL    HW282343   7.128   3.845   6.468  0.9486  0.5077  3.2987
26101SOL     OW82344   1.728   6.002   4.792 -0.4218  0.0884 -0.0736
26101SOL    HW182345   1.822   5.988   4.803 -0.3516 -0.2255 -0.9652
26101SOL    HW282346   1.687   5.926   4.834 -0.2476 -0.0877 -0.2188
26102SOL     OW82347   7.164   0.754   3.387 -0.4105 -0.0672 -0.3131
26102SOL    HW182348   7.178   0.848   3.379 -2.4516  0.3417  0.4578
26102SOL    HW282349   7.206   0.730   3.470 -0.7307  0.3553 -0.0265
26103SOL     OW82350  10.146   7.709   8.326 -0.3477  0.0892  0.1299
26103SOL    HW182351  10.194   7.762   8.262 -1.7038  1.5731  0.2839
26103SOL    HW282352  10.087   7.771   8.369 -0.5776 -1.1892  1.7339
26104SOL     OW82353   9.852   0.629   8.885  0.2698  0.4919 -0.1316
26104SOL    HW182354   9.784   0.626   8.952 -1.0434  1.0998 -1.3805
26104SOL    HW282355   9.906   0.705   8.908 -0.9127  1.4467 -0.4368
26105SOL     OW82356   5.706   9.347   8.383  0.2444 -0.5177 -0.4972
26105SOL    HW182357   5.676   9.256   8.386 -1.7299  0.0645 -0.9283
26105SOL    HW282358   5.719   9.370   8.475 -2.1605 -0.3951 -0.1192
26106SOL     OW82359   7.585   9.344   0.876  0.0509  0.4199 -0.1462
26106SOL    HW182360   7.596   9.267   0.820  0.5165 -0.4006  1.0533
26106SOL    HW282361   7.504   9.327   0.925 -1.0035  1.6634 -1.3533
26107SOL     OW82362  10.018   0.698   2.254  0.1239  0.0731 -0.2943
26107SOL    HW182363  10.111   0.714   2.269 -0.1011  0.6215  0.5791
26107SOL    HW282364  10.013   0.606   2.229  1.1946  0.6894 -3.1631
26108SOL     OW82365  10.034   4.700   5.742 -0.1796  0.4952 -0.1602
26108SOL    HW182366   9.942   4.688   5.720  0.2193  0.1961 -1.8095
26108SOL    HW282367  10.040   4.790   5.774 -0.9660  0.6599 -0.4559
26109SOL     OW82368   1.675   7.247   0.538 -0.2206 -0.2136  0.1081
26109SOL    HW182369   1.755   7.259   0.589 -0.3354 -0.8658  0.4477
26109SOL    HW282370   1.605   7.240   0.604 -0.4447 -0.4924 -0.1532
26110SOL     OW82371   7.272   0.400   2.788 -0.0215  0.0667 -0.0314
26110SOL    HW182372   7.268   0.496   2.795  1.6794  0.1151  0.5802
26110SOL    HW282373   7.340   0.384   2.722 -1.4034 -0.7323 -1.3295
26111SOL     OW82374   5.096   8.959   4.803 -0.5150 -0.2858 -0.1380
26111SOL    HW182375   5.034   8.886   4.803 -0.8733  0.0111  0.3998
26111SOL    HW282376   5.055   9.026   4.858  0.0210  0.1402 -0.2424
26112SOL     OW82377   8.829   5.704   4.982 -0.0748 -0.6247  0.0195
26112SOL    HW182378   8.860   5.626   5.029  1.3649  0.1566  0.4169
26112SOL    HW282379   8.735   5.689   4.972  0.0659 -2.1493  0.5880
26113SOL     OW82380   0.649   3.055   0.039  0.0675 -0.0399 -0.2034
26113SOL    HW182381   0.629   3.105   0.118 -1.8286  1.0139 -1.2828
26113SOL    HW282382   0.581   2.988   0.035  1.4171 -1.4860  0.1551
26114SOL     OW82383   9.850   5.838   3.542  0.0977  0.1831  0.1373
26114SOL    HW182384   9.796   5.842   3.621 -1.7276 -2.2084 -0.8672
26114SOL    HW282385   9.787   5.826   3.471  1.7957  0.4984 -1.4790
26115SOL     OW82386   6.678   4.899   5.683 -0.1327 -0.1968 -0.0400
26115SOL    HW182387   6.739   4.961   5.724  0.4027  0.9351 -2.3885
26115SOL    HW282388   6.597   4.910   5.733  0.3028  1.5541  0.3673
26116SOL     OW82389   0.802   8.408   9.193  0.3079 -0.4654  0.0520
26116SOL    HW182390   0.861   8.344   9.232  0.5023  0.3407  1.1048
26116SOL    HW282391   0.764   8.455   9.267 -1.4790 -0.7865 -0.5962
26117SOL     OW82392   7.656  10.068   1.097  0.1741  0.1256 -0.2790
26117SOL    HW182393   7.615  10.127   1.160 -0.6503 -0.4678 -0.2441
26117SOL    HW282394   7.634  10.105   1.011  2.0679  1.4518 -0.2489
26118SOL     OW82395   2.568   8.013   1.753  0.5007  0.0996 -0.4563
26118SOL    HW182396   2.522   8.008   1.669  1.2907 -1.4946 -0.8517
26118SOL    HW282397   2.644   7.956   1.741  0.2853 -0.6949  1.5529
26119SOL     OW82398   8.090   8.476   3.797  0.1187  0.5007  0.6254
26119SOL    HW182399   8.127   8.501   3.882 -1.1251 -1.0137  1.6788
26119SOL    HW282400   8.159   8.426   3.754  0.5055  0.6238  1.0949
26120SOL     OW82401   5.453   4.767   2.038 -0.4195  0.1466  0.1269
26120SOL    HW182402   5.505   4.847   2.048  1.7666 -1.2927  0.9252
26120SOL    HW282403   5.386   4.790   1.973 -0.1566  2.7336  0.6727
26121SOL     OW82404   9.934   7.487   3.755 -0.1559  0.5055 -0.3267
26121SOL    HW182405  10.002   7.555   3.764 -0.1774  0.4508  0.2748
26121SOL    HW282406   9.853   7.530   3.782 -0.4265  0.6667 -1.3584
26122SOL     OW82407   5.832   5.807   5.573  0.3446 -0.2688 -0.3715
26122SOL    HW182408   5.914   5.838   5.613 -0.0523  0.5542 -0.1642
26122SOL    HW282409   5.807   5.732   5.626  1.1222 -0.7147 -0.6250
26123SOL     OW82410   3.745   4.633   5.347 -0.3120  0.1661 -0.4293
26123SOL    HW182411   3.790   4.630   5.263  0.1667  0.4320 -0.1834
26123SOL    HW282412   3.670   4.574   5.336  1.0368 -1.6680 -0.2808
26124SOL     OW82413   5.024   9.064   6.878  0.1910 -0.5459 -0.7648
26124SOL    HW182414   5.008   9.154   6.908  0.9598 -0.0681 -1.7219
26124SOL    HW282415   4.971   9.010   6.936  1.4039  0.3433  1.3333
26125SOL     OW82416   9.925   7.983   5.358 -0.1676  0.1751 -0.4675
26125SOL    HW182417   9.976   8.012   5.282  1.9173 -0.3911  0.6368
26125SOL    HW282418   9.883   8.062   5.391 -1.0594  0.4455 -2.1375
26126SOL     OW82419   4.938   7.993   4.542  0.0421 -0.6083  0.4776
26126SOL    HW182420   4.989   7.943   4.606 -0.3699 -0.9544  0.5391
26126SOL    HW282421   4.964   8.084   4.557 -2.1415 -0.2791  3.1443
26127SOL     OW82422   3.044  10.051  10.055  0.2469  0.3141  0.2751
26127SOL    HW182423   3.071  10.143  10.065  0.3918  0.3325 -0.2268
26127SOL    HW282424   3.124  10.006  10.027  0.1347  0.0682  0.3523
26128SOL     OW82425   8.045   1.322   1.745  0.3285 -0.4606 -0.2148
26128SOL    HW182426   8.096   1.242   1.728  0.5422 -0.4677  0.4654
26128SOL    HW282427   7.986   1.329   1.669 -1.6804 -2.8101  0.9891
26129SOL     OW82428   7.712   0.609   8.403  0.2992 -0.0283 -0.3314
26129SOL    HW182429   7.733   0.690   8.356  1.6097 -0.3159 -0.2521
26129SOL    HW282430   7.776   0.604   8.474  0.1802 -1.0922 -0.2824
26130SOL     OW82431   3.941   4.814   2.510  0.3036 -0.0485  0.4032
26130SOL    HW182432   3.885   4.875   2.463 -1.4803 -1.4714  0.5674
26130SOL    HW282433   4.017   4.866   2.536  0.3990  1.2734 -2.2226
26131SOL     OW82434   4.727   6.011   3.365 -0.5779 -0.1424  0.2921
26131SOL    HW182435   4.779   5.967   3.297 -0.6640 -0.0171  0.1445
26131SOL    HW282436   4.788   6.075   3.402 -0.6151 -0.0168  0.1404
26132SOL     OW82437   1.792   8.505   5.989 -0.4787  0.0328  0.3121
26132SOL    HW182438   1.874   8.503   5.940 -1.4986  1.0185 -1.5450
26132SOL    HW282439   1.754   8.418   5.974 -0.1974 -0.1135  0.4323
26133SOL     OW82440   7.625   3.670   6.603 -0.1290 -0.2757  1.0787
26133SOL    HW182441   7.682   3.711   6.539 -1.4751  0.5293  0.3349
26133SOL    HW282442   7.684   3.627   6.665  1.2345  0.0674  0.0569
26134SOL     OW82443   0.482   1.690   7.019 -0.3788 -0.2914 -0.0130
26134SOL    HW182444   0.505   1.653   7.104  1.3138  2.0414  0.6321
26134SOL    HW282445   0.455   1.615   6.967 -0.8753 -1.8808  2.3676
26135SOL     OW82446   9.419   8.587  10.036  1.1965 -0.1974 -0.4224
26135SOL    HW182447   9.377   8.557   9.955  2.0145  1.4374 -1.5077
26135SOL    HW282448   9.349   8.634  10.083  0.7142 -1.1685 -0.1316
26136SOL     OW82449   1.107   3.264   0.197  0.4002  0.1371 -0.5550
26136SOL    HW182450   1.066   3.322   0.260  0.1626 -0.5291 -0.0792
26136SOL    HW282451   1.148   3.196   0.251  0.2032 -0.4381 -1.1163
26137SOL     OW82452   8.758   9.934   4.235  0.1472  0.2539 -0.2312
26137SOL    HW182453   8.751   9.943   4.140 -1.6546 -1.1058 -0.2848
26137SOL    HW282454   8.807   9.853   4.248 -0.3730 -0.0258 -0.0111
26138SOL     OW82455   8.058   4.009   7.641  0.1696  0.5889 -0.3631
26138SOL    HW182456   8.071   3.972   7.554 -1.6053 -0.5352 -0.2101
26138SOL    HW282457   7.964   4.028   7.645  0.4680  2.0415  0.7914
26139SOL     OW82458   7.036   0.151   9.970  0.2150  0.2328 -0.0703
26139SOL    HW182459   7.068   0.214  10.034 -0.4523 -0.5199  1.0455
26139SOL    HW282460   7.114   0.118   9.926  0.6265  1.2327 -0.1026
26140SOL     OW82461   7.861   3.900   0.931  0.4436 -0.4982 -0.3821
26140SOL    HW182462   7.915   3.838   0.979  0.2732 -1.0679 -0.9095
26140SOL    HW282463   7.829   3.850   0.855 -0.8466 -0.2054 -0.0675
26141SOL     OW82464   8.722   0.071   3.647  0.1361 -0.4128 -0.1798
26141SOL    HW182465   8.786   0.024   3.594  0.0340  0.0243 -0.6986
26141SOL    HW282466   8.772   0.104   3.721  0.3473 -0.7357 -0.1736
26142SOL     OW82467   8.562   1.058   9.371 -0.2503 -0.1473 -0.5027
26142SOL    HW182468   8.596   1.019   9.290 -0.1617 -1.0734 -0.0354
26142SOL    HW282469   8.577   0.991   9.437  1.0493  1.1718  0.5959
26143SOL     OW82470   8.798   1.082   4.262  0.0812  0.0538 -0.3660
26143SOL    HW182471   8.837   1.169   4.259  1.7424 -0.6582 -0.9489
26143SOL    HW282472   8.850   1.035   4.328  0.1109 -0.8786 -1.0335
26144SOL     OW82473   0.023   9.153   9.128 -0.2481  0.2295 -0.4502
26144SOL    HW182474   0.004   9.098   9.052 -0.6592  1.4188 -1.2323
26144SOL    HW282475   0.074   9.096   9.187  0.2151 -0.6655 -1.6787
26145SOL     OW82476   7.073   3.538   8.287 -0.1520  0.0152  0.4029
26145SOL    HW182477   7.147   3.599   8.296 -0.2546  0.5087 -1.5536
26145SOL    HW282478   6.997   3.589   8.316  0.1430 -0.1611  1.4948
26146SOL     OW82479   0.878   6.686   6.569  0.3341  0.0498  0.0768
26146SOL    HW182480   0.832   6.669   6.486  3.5026  1.0926 -2.0774
26146SOL    HW282481   0.887   6.600   6.609 -1.9626 -0.3838 -0.1966
26147SOL     OW82482   1.819   3.418   8.451 -0.0605  0.1188  0.1552
26147SOL    HW182483   1.892   3.459   8.404 -0.9570  1.8264  0.1655
26147SOL    HW282484   1.746   3.422   8.391 -0.5530 -0.1097  0.7300
26148SOL     OW82485   0.033   2.834   7.289  0.2270  0.6555  0.1161
26148SOL    HW182486   0.099   2.791   7.233 -0.7528  0.9737 -1.3444
26148SOL    HW282487  -0.001   2.905   7.235 -2.3964 -0.4132  0.2046
26149SOL     OW82488   8.021   7.214   1.310  0.0321  0.5272  0.0895
26149SOL    HW182489   7.971   7.287   1.347  0.8276  0.3651  1.5416
26149SOL    HW282490   8.106   7.219   1.352  0.6124 -0.3471 -0.9286
26150SOL     OW82491  10.289   2.542   0.053  0.2847 -0.9517  0.0866
26150SOL    HW182492  10.297   2.460   0.005 -1.4649  0.6266 -3.2336
26150SOL    HW282493  10.218   2.525   0.116  0.8145 -2.3059  0.3683
26151SOL     OW82494   6.220   2.547   5.063  0.1770  0.9126  0.0342
26151SOL    HW182495   6.288   2.584   5.119  0.8727  0.4057 -0.4655
26151SOL    HW282496   6.241   2.579   4.975  0.7469 -0.5727 -0.3983
26152SOL     OW82497   2.901   3.382  10.262 -0.4340 -0.8719 -0.4862
26152SOL    HW182498   2.823   3.395  10.315 -0.4078 -0.4044 -0.5590
26152SOL    HW282499   2.869   3.347  10.179 -0.5348 -0.9576 -0.4123
26153SOL     OW82500   2.322   3.425   4.629  0.1002  0.0199  0.1333
26153SOL    HW182501   2.273   3.344   4.620  0.6636 -0.2782 -0.2206
26153SOL    HW282502   2.374   3.413   4.709 -0.2915  0.2817  0.4314
26154SOL     OW82503   5.413   1.365   3.843 -0.0306  0.3299 -0.0259
26154SOL    HW182504   5.495   1.399   3.878  0.3869 -0.8409  0.1821
26154SOL    HW282505   5.436   1.282   3.803 -0.9766  0.3922 -0.7384
26155SOL     OW82506   4.019   4.944   1.902  0.4025 -0.4755  0.4190
26155SOL    HW182507   3.975   4.878   1.848 -2.3627  0.3351  1.4826
26155SOL    HW282508   4.055   5.006   1.840 -0.1607 -1.0838 -0.5432
26156SOL     OW82509   5.332   9.687   1.002  0.4941  0.1131 -0.2072
26156SOL    HW182510   5.316   9.723   0.914  0.6461  0.1507 -0.2192
26156SOL    HW282511   5.372   9.759   1.051  0.8337 -0.0487 -0.2418
26157SOL     OW82512   3.218   7.240   1.293 -0.2576  0.0738 -0.0688
26157SOL    HW182513   3.312   7.233   1.305 -0.3397 -1.2453 -0.1022
26157SOL    HW282514   3.181   7.219   1.379 -0.5676 -1.2241 -0.5013
26158SOL     OW82515   3.025  10.000   0.617  0.4170 -0.1881  0.3417
26158SOL    HW182516   3.045   9.978   0.527  1.5121 -0.6442  0.6838
26158SOL    HW282517   2.938  10.041   0.613  0.8887  0.7577 -1.0399
26159SOL     OW82518   0.464   9.053   8.759 -0.0307 -0.0831 -0.0105
26159SOL    HW182519   0.384   9.004   8.740 -0.2057 -0.3735  1.3830
26159SOL    HW282520   0.445   9.099   8.841  1.6254 -1.0852  0.9723
26160SOL     OW82521   2.177   2.591   9.835 -0.2916 -0.4257 -0.1546
26160SOL    HW182522   2.098   2.625   9.876 -1.5680 -2.1691 -1.0239
26160SOL    HW282523   2.244   2.598   9.903 -1.5327 -0.1831  1.0979
26161SOL     OW82524   9.111   6.028   2.959 -0.2662  0.6191 -0.0622
26161SOL    HW182525   9.167   5.952   2.975 -0.6455  0.0243 -1.4889
26161SOL    HW282526   9.027   6.005   2.998 -0.3141  0.4098 -0.2941
26162SOL     OW82527   9.338   2.699   9.799  0.2017 -0.3693  0.7325
26162SOL    HW182528   9.300   2.664   9.719  0.4542 -0.8076  0.8009
26162SOL    HW282529   9.289   2.779   9.816  1.2588  0.6279 -0.7731
26163SOL     OW82530   0.603   6.099   5.210  0.1452 -0.5081  0.6080
26163SOL    HW182531   0.584   6.137   5.296 -1.1234 -0.9350  0.5408
26163SOL    HW282532   0.541   6.026   5.202  0.6452 -0.8356 -0.4279
26164SOL     OW82533   7.576   2.530   2.653 -0.0721 -0.1368 -0.1393
26164SOL    HW182534   7.523   2.595   2.607  0.4140  0.8627  0.6813
26164SOL    HW282535   7.532   2.519   2.737  0.5335  0.0493  0.2047
26165SOL     OW82536   9.572   4.710   5.498 -0.0840  0.4606  0.0566
26165SOL    HW182537   9.521   4.775   5.449  1.1037  0.1714 -1.6612
26165SOL    HW282538   9.613   4.656   5.430  0.6495 -0.7575  1.4202
26166SOL     OW82539   2.600   3.334   8.888  0.4565 -0.0731  0.1147
26166SOL    HW182540   2.548   3.311   8.965  0.3012 -0.3774 -0.0783
26166SOL    HW282541   2.545   3.309   8.814  0.2659  0.9694 -0.1055
26167SOL     OW82542   4.526   0.126   2.084 -0.1784  0.4248 -0.1253
26167SOL    HW182543   4.502   0.096   2.172  2.9839 -0.1052  0.6759
26167SOL    HW282544   4.618   0.150   2.091 -0.2540  2.0166 -2.9340
26168SOL     OW82545   9.988   4.753   8.336 -0.2117 -0.0619 -0.0523
26168SOL    HW182546   9.939   4.672   8.349 -3.7390  2.0342  1.3111
26168SOL    HW282547  10.038   4.764   8.417 -0.7187 -0.2894  0.2986
26169SOL     OW82548   7.458   5.324   7.776 -0.3543 -0.3702 -0.2893
26169SOL    HW182549   7.455   5.392   7.844  0.9854 -1.5025  0.9785
26169SOL    HW282550   7.407   5.252   7.812 -0.2008 -0.7336 -0.7845
26170SOL     OW82551   3.106   3.574   5.793 -0.3692  0.0254 -0.4821
26170SOL    HW182552   3.033   3.525   5.755 -0.5394 -0.4155  0.3861
26170SOL    HW282553   3.133   3.634   5.724 -1.7128  0.3654 -0.7377
26171SOL     OW82554   1.787   1.839   7.054  0.2024 -0.0845 -0.3196
26171SOL    HW182555   1.802   1.824   6.961  0.4317  2.3739 -0.7436
26171SOL    HW282556   1.796   1.934   7.065 -0.0747 -0.2770  2.1659
26172SOL     OW82557   1.525   4.636   0.074  0.2331  0.2211 -0.5170
26172SOL    HW182558   1.516   4.722   0.032  3.5858  1.5819  1.1734
26172SOL    HW282559   1.537   4.575   0.002 -1.0402  1.3186 -1.7191
26173SOL     OW82560   2.833   0.297   9.990 -0.5200  0.2472 -0.1672
26173SOL    HW182561   2.806   0.385  10.016  1.2761  0.7428  0.1106
26173SOL    HW282562   2.858   0.254  10.072  0.1449  0.0210 -0.4874
26174SOL     OW82563   6.608   1.949   8.995  0.5992  0.4804 -0.1777
26174SOL    HW182564   6.703   1.965   8.991  0.9565 -0.7429  1.9434
26174SOL    HW282565   6.583   1.974   9.084 -1.6284  3.2002 -1.4073
26175SOL     OW82566   5.107   2.734   4.442  0.4051  1.0731 -0.2155
26175SOL    HW182567   5.144   2.822   4.456  1.0555  0.7456  0.1762
26175SOL    HW282568   5.176   2.675   4.471 -0.6518  0.4345  1.1125
26176SOL     OW82569   0.788   7.580   7.913  0.0458 -0.0928 -0.2448
26176SOL    HW182570   0.695   7.599   7.927 -0.4880 -1.1257 -2.0628
26176SOL    HW282571   0.820   7.654   7.861 -0.2162 -0.6048 -1.1429
26177SOL     OW82572   2.448   6.778   2.979 -0.1674  0.3455 -0.1924
26177SOL    HW182573   2.539   6.748   2.974  0.0049  0.7145  0.5541
26177SOL    HW282574   2.425   6.768   3.072 -1.2124 -0.6741 -0.5391
26178SOL     OW82575  10.099   7.515   1.597  0.1232  0.5009  0.1213
26178SOL    HW182576  10.140   7.528   1.683 -0.8542  0.8126  0.5594
26178SOL    HW282577  10.113   7.598   1.551  3.5427 -0.7028 -1.3546
26179SOL     OW82578   3.624   8.219   0.531 -0.0714  0.5893 -0.4489
26179SOL    HW182579   3.618   8.218   0.435 -0.4886  0.1417 -0.4235
26179SOL    HW282580   3.699   8.276   0.550  0.3928  0.1987 -1.0644
26180SOL     OW82581   5.171   8.331   4.196 -0.1116  0.3103  0.0284
26180SOL    HW182582   5.086   8.323   4.240 -0.3020  1.0422 -0.1936
26180SOL    HW282583   5.149   8.355   4.106  0.3091 -0.2643 -0.2296
26181SOL     OW82584   9.408   5.260   4.058 -0.3735 -0.2025 -0.3800
26181SOL    HW182585   9.482   5.199   4.057 -0.2674 -0.0745 -0.4287
26181SOL    HW282586   9.371   5.250   4.146  1.8429  2.2550  0.9648
26182SOL     OW82587   0.213   7.323   6.359 -0.0342  0.0361  0.6006
26182SOL    HW182588   0.250   7.238   6.381 -1.2693 -1.1821 -1.7245
26182SOL    HW282589   0.262   7.352   6.282 -1.0996  0.3303  0.0045
26183SOL     OW82590   5.781   6.847   8.749  0.4291 -0.2572 -0.2739
26183SOL    HW182591   5.782   6.876   8.658 -1.6752 -0.2319 -0.3235
26183SOL    HW282592   5.769   6.927   8.800 -2.3062 -0.6199 -0.2394
26184SOL     OW82593   5.058   2.245   2.637  0.1916  0.0825 -0.0423
26184SOL    HW182594   4.974   2.215   2.672 -0.3069  0.9611 -0.4721
26184SOL    HW282595   5.059   2.213   2.547 -0.1006  0.8845 -0.3306
26185SOL     OW82596   9.212   1.909   3.214 -0.2010  0.3553 -0.6572
26185SOL    HW182597   9.286   1.919   3.154  0.1020 -1.7940 -0.7313
26185SOL    HW282598   9.161   1.989   3.203  0.2200  0.3675 -3.2682
26186SOL     OW82599   8.200   9.816   5.548 -0.3554 -0.2561 -0.1045
26186SOL    HW182600   8.140   9.798   5.476 -0.7045  0.4437  0.0089
26186SOL    HW282601   8.271   9.867   5.508 -0.4057 -0.1119 -0.0086
26187SOL     OW82602   3.870   8.033   0.161  0.0616 -0.5289  0.5337
26187SOL    HW182603   3.948   8.078   0.127 -1.6724  1.8759 -0.5952
26187SOL    HW282604   3.827   7.997   0.083 -0.7240 -0.4753  0.9303
26188SOL     OW82605   4.073   7.186   2.887  0.6649  0.7815  0.0308
26188SOL    HW182606   4.129   7.262   2.896  0.2693  1.0966 -0.1353
26188SOL    HW282607   3.992   7.220   2.848  0.0442  0.4800  1.0274
26189SOL     OW82608   8.261   7.652   7.960 -0.1665 -0.4554  0.0887
26189SOL    HW182609   8.305   7.734   7.937 -2.0541  0.5712 -0.0887
26189SOL    HW282610   8.291   7.589   7.895  0.9875  0.2038 -0.0404
26190SOL     OW82611   3.130   1.181  10.216 -0.1636  0.5316  0.0843
26190SOL    HW182612   3.042   1.168  10.252  0.8390 -1.0974  2.1539
26190SOL    HW282613   3.179   1.220  10.288  0.6905  2.0733 -1.2756
26191SOL     OW82614   3.823   8.265   3.249  0.4932 -0.2400  0.2234
26191SOL    HW182615   3.827   8.253   3.154  0.6665 -4.2369  0.5274
26191SOL    HW282616   3.914   8.278   3.275  0.9996 -2.7882  0.0142
26192SOL     OW82617   6.753   0.499   2.404 -0.9943 -0.4241 -0.4074
26192SOL    HW182618   6.727   0.415   2.367 -1.4977 -0.3347 -0.2724
26192SOL    HW282619   6.786   0.550   2.330 -0.6220 -0.7630 -0.4760
26193SOL     OW82620   3.965   7.070   9.792  0.2831 -0.4853  0.4423
26193SOL    HW182621   3.924   6.985   9.810 -0.2309 -0.2091  0.5892
26193SOL    HW282622   3.893   7.133   9.796  0.3045 -0.2657 -1.5600
26194SOL     OW82623   9.896   5.366   7.355  0.5233  0.0743  0.4185
26194SOL    HW182624   9.962   5.402   7.295 -0.5208 -0.1140 -0.8826
26194SOL    HW282625   9.912   5.411   7.438  1.4521  0.9862 -0.2352
26195SOL     OW82626   8.508   1.639   8.847 -0.7356 -0.5270  0.4797
26195SOL    HW182627   8.569   1.568   8.829  0.5388  0.7463 -0.4930
26195SOL    HW282628   8.422   1.603   8.829  0.0773 -0.8067 -3.7804
26196SOL     OW82629   7.573   1.073   5.984  0.1814 -0.2673 -0.3466
26196SOL    HW182630   7.603   1.103   6.070 -0.1269  1.8681 -0.9433
26196SOL    HW282631   7.484   1.042   5.999 -0.2045  0.9420 -0.0287
26197SOL     OW82632   2.206   1.687   9.117 -0.5184  0.0607  0.3312
26197SOL    HW182633   2.204   1.592   9.132 -2.2134  0.0809  0.4409
26197SOL    HW282634   2.253   1.697   9.034  0.0811 -0.8377  0.5535
26198SOL     OW82635   5.601   9.289   8.011 -0.3338  0.2541  0.2570
26198SOL    HW182636   5.659   9.364   8.000 -0.9076  0.6068 -0.4247
26198SOL    HW282637   5.521   9.325   8.050 -0.9680  0.1647 -0.9347
26199SOL     OW82638   6.630   5.191   4.985 -0.2164 -0.4990 -0.0388
26199SOL    HW182639   6.576   5.121   5.020 -0.8420 -0.4002 -0.7728
26199SOL    HW282640   6.575   5.233   4.918 -0.4504  1.6731  1.4124
26200SOL     OW82641   8.486   5.010   7.193 -0.1934 -0.2972 -0.4116
26200SOL    HW182642   8.515   4.919   7.198 -0.9570 -0.5938 -1.1816
26200SOL    HW282643   8.439   5.025   7.275 -1.6528 -1.1778 -1.0434
26201SOL     OW82644   2.453   2.116   3.250  0.7007  0.1511 -0.7836
26201SOL    HW182645   2.450   2.047   3.183 -0.1233  0.9950 -1.6538
26201SOL    HW282646   2.511   2.081   3.318 -0.6583 -1.9423 -0.5940
26202SOL     OW82647   3.502   7.740   5.753 -0.9328  0.2994 -0.4881
26202SOL    HW182648   3.423   7.687   5.762 -1.0130  0.6123  0.7691
26202SOL    HW282649   3.571   7.677   5.733 -1.2339 -0.1481 -0.1407
26203SOL     OW82650   0.576   1.542   0.608 -0.0316 -0.8932  0.3782
26203SOL    HW182651   0.566   1.579   0.520 -0.6035 -0.5017  0.6027
26203SOL    HW282652   0.632   1.465   0.595 -0.2752 -0.9593 -0.3583
26204SOL     OW82653   6.069   4.567   2.499 -0.1171 -0.5131 -0.2149
26204SOL    HW182654   6.127   4.567   2.575 -1.6832 -1.4843  1.0301
26204SOL    HW282655   6.128   4.557   2.424  1.3549 -1.0394  0.9706
26205SOL     OW82656   5.980   8.338   0.830  0.0599  0.7359 -0.4298
26205SOL    HW182657   5.974   8.362   0.737  1.4912 -1.4684 -1.1976
26205SOL    HW282658   6.049   8.393   0.865  1.4285 -0.2666 -1.4383
26206SOL     OW82659   0.693   4.054   0.711 -0.3427  0.0074  0.6690
26206SOL    HW182660   0.731   3.986   0.767 -0.3465  0.4712  1.2336
26206SOL    HW282661   0.614   4.013   0.675 -0.2430 -0.3540  0.8555
26207SOL     OW82662   4.274   1.304   9.446 -0.6576 -0.0273  0.2284
26207SOL    HW182663   4.250   1.254   9.524  0.0850 -0.5484  0.1380
26207SOL    HW282664   4.275   1.238   9.376 -2.1131  0.5791 -0.3908
26208SOL     OW82665   5.238   7.081   8.333  0.0628  0.1121 -0.3537
26208SOL    HW182666   5.291   7.103   8.409  1.7096 -0.4061 -1.3105
26208SOL    HW282667   5.280   7.126   8.260 -0.6954 -0.4707 -1.1682
26209SOL     OW82668   0.857   5.076   0.813  0.1002 -0.5107  0.2172
26209SOL    HW182669   0.893   5.010   0.873  0.2052 -0.2006  0.5017
26209SOL    HW282670   0.867   5.038   0.726  0.3086 -0.8016  0.3669
26210SOL     OW82671   8.786   7.249   3.193 -0.1396 -0.2960 -0.4978
26210SOL    HW182672   8.869   7.223   3.235 -0.5404 -0.7385  0.0407
26210SOL    HW282673   8.752   7.168   3.156 -1.0977 -0.4396  0.6528
26211SOL     OW82674   7.587   4.483   2.618  0.3343 -0.1999  0.2648
26211SOL    HW182675   7.597   4.519   2.707  1.6603  0.9158 -0.2910
26211SOL    HW282676   7.667   4.433   2.603 -0.6880 -1.9310  0.3306
26212SOL     OW82677   9.347   3.029   7.693 -0.1776  0.0165  0.1790
26212SOL    HW182678   9.369   2.969   7.621  0.8868  0.2255  0.3226
26212SOL    HW282679   9.403   3.105   7.679  0.3464 -0.1096  1.4652
26213SOL     OW82680   9.084   0.824   1.745  0.1477 -0.1485  0.2528
26213SOL    HW182681   9.050   0.739   1.716  2.0279 -0.6884 -0.5500
26213SOL    HW282682   9.122   0.806   1.832  0.8855 -0.2542 -0.0795
26214SOL     OW82683   9.046   8.907   8.521 -0.1657  0.3472 -0.1095
26214SOL    HW182684   9.083   8.867   8.600  1.1824 -1.2925 -1.4781
26214SOL    HW282685   8.957   8.873   8.516  0.3891 -1.1412 -0.3039
26215SOL     OW82686   6.399   1.935   3.981  0.5311 -0.2704 -0.5245
26215SOL    HW182687   6.396   1.850   3.938 -2.0210 -1.0214  0.9378
26215SOL    HW282688   6.461   1.923   4.053 -0.6845 -1.3317  0.3964
26216SOL     OW82689   0.112   8.693   0.285 -0.4676  0.0352 -0.5424
26216SOL    HW182690   0.167   8.749   0.230 -0.5384 -0.3357 -0.9983
26216SOL    HW282691   0.146   8.705   0.374 -0.1258  0.3728 -0.7202
26217SOL     OW82692   8.877   8.615   2.450  0.0103 -0.4017 -0.3385
26217SOL    HW182693   8.954   8.585   2.401 -0.1596  1.9696 -2.2759
26217SOL    HW282694   8.912   8.650   2.531  0.7937 -0.7408 -0.5230
26218SOL     OW82695   5.616   4.154   4.558  0.1891  0.2794  0.0081
26218SOL    HW182696   5.619   4.070   4.513 -0.5518 -0.3108  1.0345
26218SOL    HW282697   5.702   4.163   4.599  0.1569 -0.1275  0.1641
26219SOL     OW82698   4.246   5.022   7.691  0.7869 -0.1418  0.1359
26219SOL    HW182699   4.174   4.960   7.687  0.5995  0.0941 -0.1824
26219SOL    HW282700   4.209   5.104   7.659  1.3115 -0.1315 -0.4659
26220SOL     OW82701   3.839   0.220   2.276 -0.4675 -0.0155 -0.1914
26220SOL    HW182702   3.858   0.268   2.357 -1.5998 -0.4606  0.3597
26220SOL    HW282703   3.767   0.162   2.299 -0.8963 -0.0671 -1.5572
26221SOL     OW82704   6.199  10.185   3.931  0.5073  0.1372 -0.0300
26221SOL    HW182705   6.227  10.223   4.014 -1.1299  0.9432  0.1955
26221SOL    HW282706   6.171  10.261   3.879  0.2663 -0.4838 -0.8249
26222SOL     OW82707   0.006   2.477   0.366  0.7452 -0.6188 -0.0981
26222SOL    HW182708   0.019   2.418   0.292 -0.0192  0.4802 -1.1517
26222SOL    HW282709   0.089   2.475   0.413  1.9053 -0.0020 -1.9935
26223SOL     OW82710   9.631   8.564   8.529 -0.6939  0.1705  0.0347
26223SOL    HW182711   9.546   8.521   8.524  0.0858 -1.4030 -0.7950
26223SOL    HW282712   9.682   8.509   8.589  0.6967 -0.8441 -1.9329
26224SOL     OW82713   7.211   8.480  10.146 -0.3043 -0.2095 -0.6157
26224SOL    HW182714   7.153   8.432  10.205 -1.0743  0.3398 -0.9242
26224SOL    HW282715   7.158   8.499  10.069 -0.7758  3.1279  0.3869
26225SOL     OW82716   0.043   4.799   0.559 -0.2549 -0.8970  0.0902
26225SOL    HW182717   0.138   4.794   0.566  0.0320  2.1870 -0.3509
26225SOL    HW282718   0.026   4.806   0.465 -0.9086 -1.2408  0.1777
26226SOL     OW82719   1.446   3.256   3.822  0.1418 -0.4506  0.6651
26226SOL    HW182720   1.449   3.265   3.727  2.0780 -2.3236  0.4607
26226SOL    HW282721   1.387   3.182   3.837 -0.0692 -0.2333  0.9279
26227SOL     OW82722   9.209   4.124   6.253  0.5255  0.7153 -0.3707
26227SOL    HW182723   9.141   4.157   6.312  1.1817  2.3538 -0.4590
26227SOL    HW282724   9.167   4.054   6.204  0.1816 -1.2844  2.5573
26228SOL     OW82725   7.283   2.982   6.380  0.1864 -0.4363 -0.3180
26228SOL    HW182726   7.236   2.989   6.297  2.1946  0.0152 -1.4956
26228SOL    HW282727   7.375   2.971   6.354  0.9643  0.4449  1.8382
26229SOL     OW82728   4.861   6.015   6.891 -0.1191  0.6871 -0.3279
26229SOL    HW182729   4.833   5.930   6.925  1.1213 -0.2942 -1.6420
26229SOL    HW282730   4.904   5.995   6.808  1.9387  2.3719  0.2330
26230SOL     OW82731   1.955   3.850   7.971  0.2164 -0.3882  0.3218
26230SOL    HW182732   1.880   3.887   8.019  0.5435 -0.1275  0.6392
26230SOL    HW282733   1.943   3.756   7.978  0.3472 -0.3560  1.0681
26231SOL     OW82734   6.503   0.047   0.529 -0.3325  0.4733 -0.2362
26231SOL    HW182735   6.521   0.117   0.467 -2.7266  1.5155  0.1529
26231SOL    HW282736   6.444  -0.012   0.482  0.1814 -0.3089  0.0797
26232SOL     OW82737   1.854   8.104   1.979 -0.1614 -0.1702  0.1965
26232SOL    HW182738   1.880   8.185   1.934  0.0032 -0.6925 -0.6663
26232SOL    HW282739   1.779   8.072   1.930  0.8270 -1.4444 -0.5475
26233SOL     OW82740   0.390   4.109   6.506 -0.3999  0.3162 -0.5639
26233SOL    HW182741   0.337   4.038   6.542  0.5392  0.0679  0.4136
26233SOL    HW282742   0.462   4.065   6.461 -0.0656  0.6307 -0.3510
26234SOL     OW82743   0.238   0.883   4.798 -0.2070  0.1800 -0.3036
26234SOL    HW182744   0.253   0.971   4.832  0.1010  0.2123 -0.5211
26234SOL    HW282745   0.144   0.869   4.808 -0.3394  0.7364 -0.7546
26235SOL     OW82746   9.980   4.721   2.472 -0.0290  0.3508  0.3712
26235SOL    HW182747  10.061   4.697   2.426 -0.0909 -0.8244  0.8378
26235SOL    HW282748   9.912   4.715   2.405 -0.1991 -1.8671  0.6876
26236SOL     OW82749   1.536   2.773   1.391 -0.2277  0.1714 -0.1073
26236SOL    HW182750   1.551   2.854   1.440 -1.9474 -0.0271  0.8096
26236SOL    HW282751   1.557   2.703   1.453  0.6171 -0.1215 -0.6936
26237SOL     OW82752   1.363   8.353   5.709 -0.2660  0.0413 -0.5578
26237SOL    HW182753   1.395   8.266   5.685  0.5408 -0.3603  1.7917
26237SOL    HW282754   1.364   8.402   5.626  0.6778 -1.7239 -1.6567
26238SOL     OW82755   6.013   6.321   6.730 -0.2878  0.6675 -0.0225
26238SOL    HW182756   6.054   6.365   6.805 -0.1304 -1.6046  1.3011
26238SOL    HW282757   6.045   6.231   6.734 -1.5023  0.0887 -1.9312
26239SOL     OW82758   5.760   2.400   1.421 -0.4218 -0.1028 -0.2899
26239SOL    HW182759   5.808   2.376   1.499  0.0470  2.1651  0.1934
26239SOL    HW282760   5.819   2.458   1.373 -1.3384 -0.1065 -1.4852
26240SOL     OW82761   9.689   0.222   4.126 -0.0129  0.7943 -0.1344
26240SOL    HW182762   9.781   0.230   4.153  0.3595 -1.0185 -0.7166
26240SOL    HW282763   9.643   0.197   4.206  0.4270 -0.6157 -0.2858
26241SOL     OW82764   8.906   9.307   3.652  0.3613  0.1175 -0.0542
26241SOL    HW182765   8.913   9.328   3.745  0.5645 -2.2240  0.5107
26241SOL    HW282766   8.829   9.356   3.623 -0.2517  0.1740  1.5629
26242SOL     OW82767   6.739   2.321   2.034 -0.0044 -0.0168  0.2882
26242SOL    HW182768   6.731   2.250   2.098 -1.9337 -1.0929 -1.0637
26242SOL    HW282769   6.690   2.290   1.957  0.4684  2.1107 -0.9380
26243SOL     OW82770   7.651   9.141   9.190 -0.0254  0.3024 -0.5728
26243SOL    HW182771   7.705   9.143   9.111  0.2269  0.2762 -0.4025
26243SOL    HW282772   7.629   9.233   9.206  1.4763  0.5271  0.3779
26244SOL     OW82773   4.264   4.855   2.181 -0.4533  0.2539 -0.0321
26244SOL    HW182774   4.270   4.805   2.263  0.3173  1.5942  0.7608
26244SOL    HW282775   4.186   4.819   2.138 -1.8327  0.5754  2.0243
26245SOL     OW82776   9.796   7.026   7.931 -0.3497  0.1300  0.2776
26245SOL    HW182777   9.881   6.983   7.921  0.4820  1.8078 -0.3380
26245SOL    HW282778   9.736   6.973   7.878  0.1319 -1.4859  1.2840
26246SOL     OW82779   9.097   2.542   0.705 -0.2081  0.4452  0.0032
26246SOL    HW182780   9.005   2.533   0.680  0.0105  1.6180 -1.3351
26246SOL    HW282781   9.146   2.517   0.626  0.7521 -2.2458  1.3012
26247SOL     OW82782   1.401   5.813   2.616 -0.2930  0.7413 -0.4381
26247SOL    HW182783   1.415   5.726   2.578 -1.6205  0.6552 -0.7745
26247SOL    HW282784   1.307   5.819   2.627 -0.1219  1.7487  0.5590
26248SOL     OW82785   7.576   5.346   2.866  0.0656  0.0414 -1.0000
26248SOL    HW182786   7.510   5.398   2.913  1.6414  0.3055  1.0937
26248SOL    HW282787   7.648   5.408   2.852  1.2399 -1.0714 -0.1055
26249SOL     OW82788   3.424   8.687   8.416 -0.2142  0.0241  0.1902
26249SOL    HW182789   3.414   8.678   8.511  1.3726 -1.1924  0.2796
26249SOL    HW282790   3.493   8.753   8.405 -1.0671  0.8947 -0.1787
26250SOL     OW82791   2.411   4.943   9.241 -0.1867  0.8943  0.0373
26250SOL    HW182792   2.350   4.884   9.286  0.9497 -0.0183  0.4162
26250SOL    HW282793   2.393   4.928   9.148 -0.5263  0.6314  0.1409
26251SOL     OW82794   0.011   2.874   4.174  0.2652 -0.1403  0.0298
26251SOL    HW182795   0.051   2.901   4.091 -0.7767  0.2738 -0.3616
26251SOL    HW282796  -0.080   2.902   4.166 -0.9531 -3.6972 -0.4077
26252SOL     OW82797   0.044   9.034   6.275 -0.0670 -0.0722 -0.5153
26252SOL    HW182798   0.025   9.089   6.351  1.1987 -0.1057 -0.1519
26252SOL    HW282799   0.008   9.083   6.201  0.1958  0.7892 -0.0902
26253SOL     OW82800   8.271   6.148   4.205  0.4998 -0.0137 -0.1698
26253SOL    HW182801   8.276   6.233   4.162  1.3291  0.7744  1.3757
26253SOL    HW282802   8.179   6.124   4.200  0.8782 -1.3467 -4.7636
26254SOL     OW82803   3.160   9.235   7.979  0.3054  0.0921 -0.7471
26254SOL    HW182804   3.175   9.304   8.044  0.1983 -1.0098  0.5049
26254SOL    HW282805   3.248   9.202   7.958  0.3246  0.3009 -0.9969
26255SOL     OW82806   6.660   3.656   4.187 -0.3909  0.0587 -0.0309
26255SOL    HW182807   6.713   3.600   4.130 -0.5649  1.0190 -1.1767
26255SOL    HW282808   6.717   3.730   4.208 -1.5388  1.6767 -2.1903
26256SOL     OW82809   1.687   4.823   7.370 -0.3970  0.2920 -0.1292
26256SOL    HW182810   1.676   4.732   7.399 -1.5887  0.4764  0.0392
26256SOL    HW282811   1.649   4.875   7.440 -0.3558  0.8960 -0.5523
26257SOL     OW82812   1.125   4.440   7.217  0.1464 -0.0979 -0.5123
26257SOL    HW182813   1.195   4.456   7.280 -0.0373  0.3722 -0.4240
26257SOL    HW282814   1.051   4.410   7.271  0.8186 -2.4056 -0.7726
26258SOL     OW82815   4.392   8.553   8.698  0.6760  0.1358  0.0718
26258SOL    HW182816   4.425   8.467   8.724  1.6139 -0.5351 -2.8348
26258SOL    HW282817   4.298   8.548   8.709  0.8899 -0.5430  1.7785
26259SOL     OW82818   0.928   2.737   0.267  0.4615 -0.5251 -0.5405
26259SOL    HW182819   0.846   2.770   0.230  0.6895  1.3119  0.4784
26259SOL    HW282820   0.985   2.725   0.191 -0.4247 -0.9240 -1.1653
26260SOL     OW82821   0.269   1.891   2.543  0.0573  0.1422  0.1859
26260SOL    HW182822   0.225   1.840   2.476  0.0906 -0.7617  0.8379
26260SOL    HW282823   0.275   1.833   2.618  0.8967  0.8065  0.6577
26261SOL     OW82824   9.661   1.118   9.922  0.4667  0.0648  0.7650
26261SOL    HW182825   9.667   1.032   9.964  0.5833 -0.2332  0.1442
26261SOL    HW282826   9.568   1.130   9.906  0.5714 -0.6816 -0.6195
26262SOL     OW82827   0.128   2.816   8.668 -0.6548  0.1643  0.1257
26262SOL    HW182828   0.061   2.799   8.602 -0.3341  1.0993 -0.4580
26262SOL    HW282829   0.102   2.762   8.743 -1.2433 -0.6098 -0.6114
26263SOL     OW82830   4.898   9.562   4.502 -0.5857 -0.4585  0.0694
26263SOL    HW182831   4.835   9.506   4.546 -0.1850 -0.6389  0.4252
26263SOL    HW282832   4.874   9.558   4.409 -2.1364  0.8145  0.3754
26264SOL     OW82833   0.513   7.258   2.340 -0.1818  0.5863  0.2378
26264SOL    HW182834   0.464   7.291   2.265 -1.6467  0.0479  0.9282
26264SOL    HW282835   0.597   7.303   2.335  0.5039 -0.7608 -2.7701
26265SOL     OW82836   8.485   8.025   3.377 -0.0933  0.0239 -0.3604
26265SOL    HW182837   8.423   7.955   3.360  1.3566 -1.6913  1.0105
26265SOL    HW282838   8.515   8.010   3.467  0.4860  2.2495 -0.1049
26266SOL     OW82839   2.187   5.571   2.347  0.3425  0.2941 -0.1626
26266SOL    HW182840   2.135   5.514   2.291 -0.0229 -0.5076  0.9472
26266SOL    HW282841   2.134   5.580   2.427  1.4386  0.2949  0.5891
26267SOL     OW82842   8.883   1.621   8.906  0.1755  0.3902 -0.5098
26267SOL    HW182843   8.903   1.712   8.886 -0.0079  1.1425  2.2612
26267SOL    HW282844   8.797   1.624   8.949  0.4664 -0.9773  0.2304
26268SOL     OW82845   8.241   8.955   1.170  0.2538 -0.6091  0.1975
26268SOL    HW182846   8.194   8.996   1.097  0.7383 -0.9467 -0.3128
26268SOL    HW282847   8.255   9.027   1.232  2.5110  0.4554 -1.3959
26269SOL     OW82848   5.855   1.047   6.634  0.4249  0.5937 -0.0446
26269SOL    HW182849   5.790   1.011   6.574  0.7738  1.9816 -1.3008
26269SOL    HW282850   5.831   1.140   6.642  0.2819  0.4443  2.1201
26270SOL     OW82851   9.110   0.040   2.378 -0.0779 -0.5592  0.1062
26270SOL    HW182852   9.117  -0.049   2.414 -2.5609 -0.6084  0.6801
26270SOL    HW282853   9.123   0.029   2.284 -0.0945 -1.4851  0.2028
26271SOL     OW82854   0.907   1.767   7.451  0.8188 -0.4049  0.4862
26271SOL    HW182855   0.931   1.849   7.407  1.1523 -0.7525  0.0080
26271SOL    HW282856   0.977   1.751   7.513  0.1445  0.3003  1.4683
26272SOL     OW82857   5.044   2.345   7.118  0.3722  0.5314 -0.2968
26272SOL    HW182858   4.981   2.349   7.190 -0.3262 -2.1517 -0.6352
26272SOL    HW282859   5.122   2.306   7.158  1.6031  3.0226 -0.0849
26273SOL     OW82860   7.918   8.128   0.466  0.2317  0.0369  0.4646
26273SOL    HW182861   7.938   8.221   0.463  2.1641 -0.3489 -0.9656
26273SOL    HW282862   7.970   8.090   0.395 -1.1425 -2.0287  0.4585
26274SOL     OW82863   3.963   3.648   6.884  0.2189  0.3206 -0.2416
26274SOL    HW182864   4.043   3.688   6.850  1.5262 -2.2087 -0.3546
26274SOL    HW282865   3.971   3.555   6.863 -2.0798 -0.2593  1.0697
26275SOL     OW82866   7.781   3.626   9.370  0.4868  0.7255 -0.0527
26275SOL    HW182867   7.852   3.664   9.421  0.5989  0.9388 -0.3645
26275SOL    HW282868   7.717   3.697   9.361  1.7503  1.6510 -2.6633
26276SOL     OW82869   6.321   7.813   3.246  0.3176 -0.3392  0.3619
26276SOL    HW182870   6.254   7.877   3.222 -1.2678 -1.9132  0.4049
26276SOL    HW282871   6.404   7.859   3.232 -0.7430  1.9766  1.1262
26277SOL     OW82872   2.825   8.229   1.967  0.2110 -0.1328 -0.0283
26277SOL    HW182873   2.746   8.175   1.969  0.2225 -0.1558 -0.1515
26277SOL    HW282874   2.804   8.301   1.908 -0.1552  0.5552  0.9279
26278SOL     OW82875   6.909   7.820   4.522  0.3222  0.5769 -0.0266
26278SOL    HW182876   6.946   7.905   4.497 -0.5870  0.6043 -1.4214
26278SOL    HW282877   6.985   7.764   4.537  0.9302  1.4091  0.0929
26279SOL     OW82878   8.749   9.191   0.173  0.0424 -0.2687  0.0318
26279SOL    HW182879   8.779   9.123   0.113  0.6777 -0.2964  0.3645
26279SOL    HW282880   8.667   9.222   0.136 -0.0119 -0.8861 -0.3816
26280SOL     OW82881   6.343   1.827  10.067 -0.6186 -0.1578 -0.6751
26280SOL    HW182882   6.280   1.887  10.107 -0.8277 -0.9331  0.1852
26280SOL    HW282883   6.427   1.850  10.106 -0.9398 -1.4156  0.8451
26281SOL     OW82884   2.864   0.054   9.875  0.0488 -0.1915  0.8460
26281SOL    HW182885   2.829   0.131   9.922 -0.4289  0.1362 -0.0342
26281SOL    HW282886   2.942   0.030   9.925  0.6296  1.3238  0.7356
26282SOL     OW82887   1.374   6.046   7.801 -0.2462  0.0607  0.3498
26282SOL    HW182888   1.328   6.056   7.718  0.7908  1.8588 -0.0563
26282SOL    HW282889   1.459   6.010   7.777 -0.1222  0.1345  0.6750
26283SOL     OW82890   3.968   0.679   4.962  0.8028 -0.1083  0.0222
26283SOL    HW182891   4.001   0.615   5.025  0.4978 -0.3841 -0.1000
26283SOL    HW282892   3.915   0.739   5.014  1.5440  0.3850  0.2358
26284SOL     OW82893   0.559   0.134   5.981  0.2316  0.1854 -0.0628
26284SOL    HW182894   0.504   0.056   5.976  0.0447  0.3442 -0.4771
26284SOL    HW282895   0.648   0.099   5.983  0.1287 -0.0661  0.4734
26285SOL     OW82896   1.673   8.310   2.742 -0.2064 -0.3967  0.2250
26285SOL    HW182897   1.728   8.357   2.680 -0.2033 -2.0213 -1.0764
26285SOL    HW282898   1.606   8.373   2.768 -0.4510  0.2242 -1.7708
26286SOL     OW82899   2.912   5.494   9.838  0.1111  0.0916  0.0839
26286SOL    HW182900   2.981   5.560   9.846 -0.9863  1.2758  0.1627
26286SOL    HW282901   2.845   5.523   9.900 -0.5448 -0.9179 -0.1408
26287SOL     OW82902   8.114   6.142   3.715 -0.5364  0.6239 -0.6734
26287SOL    HW182903   8.029   6.099   3.702 -0.4895  0.2522  0.1735
26287SOL    HW282904   8.118   6.208   3.646 -1.2779  0.2855 -1.0579
26288SOL     OW82905   7.126   8.677   2.705 -0.3239  0.2524 -0.5217
26288SOL    HW182906   7.168   8.592   2.716 -0.9413  0.0421  0.2926
26288SOL    HW282907   7.062   8.664   2.635 -0.5790 -0.0128 -0.2378
26289SOL     OW82908   3.248   3.458   6.337  0.9132  0.7837  0.4289
26289SOL    HW182909   3.261   3.395   6.408 -2.6878 -0.2563  0.3577
26289SOL    HW282910   3.252   3.543   6.381 -3.8170  0.1477  2.6950
26290SOL     OW82911   9.810   6.777   2.032 -0.4829 -0.0651  0.1931
26290SOL    HW182912   9.765   6.711   2.085 -0.5155 -1.9271 -1.9797
26290SOL    HW282913   9.902   6.768   2.055  0.2216 -4.0616 -2.9033
26291SOL     OW82914   1.715   5.079   1.609  0.0003 -0.0979 -0.4581
26291SOL    HW182915   1.730   4.998   1.560 -0.7214 -0.7412  0.3656
26291SOL    HW282916   1.720   5.053   1.701 -1.4876  0.5405 -0.1742
26292SOL     OW82917   8.450   6.112   7.016 -0.8406  0.1461  0.4070
26292SOL    HW182918   8.508   6.108   7.092 -0.3842  0.0479  0.0546
26292SOL    HW282919   8.453   6.203   6.988 -1.8290  0.4279  1.1275
26293SOL     OW82920   8.990   8.322   5.856 -0.4192 -0.2984  0.5515
26293SOL    HW182921   8.977   8.391   5.921 -2.5078 -1.6601  1.6802
26293SOL    HW282922   8.928   8.342   5.786 -0.6320 -0.7164  0.6160
26294SOL     OW82923   6.096   9.773   0.116 -0.3732  0.4914  0.4238
26294SOL    HW182924   6.102   9.867   0.133  0.1827  1.3157 -3.4107
26294SOL    HW282925   6.180   9.750   0.077 -0.6033 -1.5718  1.0081
26295SOL     OW82926   3.431   5.643   6.256  0.1205  0.3561 -0.0410
26295SOL    HW182927   3.456   5.715   6.197  0.9299  0.0499 -0.0863
26295SOL    HW282928   3.335   5.642   6.253  0.1393  0.5029 -1.1701
26296SOL     OW82929   9.743   6.100   8.238 -0.5875  0.2277  0.2735
26296SOL    HW182930   9.651   6.074   8.235 -0.0682 -1.7003  0.1159
26296SOL    HW282931   9.753   6.143   8.323 -1.3903 -0.5430  0.7727
26297SOL     OW82932   7.645  10.095   0.832  0.5429 -0.7729  0.0367
26297SOL    HW182933   7.699  10.164   0.796 -0.8071  0.2021 -0.2012
26297SOL    HW282934   7.664  10.019   0.777 -0.2176  0.2352 -1.7048
26298SOL     OW82935   7.140   8.666   1.042 -0.1691 -0.4097  0.1955
26298SOL    HW182936   7.109   8.612   0.970  1.1339  0.1438 -0.8329
26298SOL    HW282937   7.132   8.756   1.010 -0.7744 -0.0714  1.2461
26299SOL     OW82938   5.953   5.488   7.333  0.2428  0.0335 -0.3956
26299SOL    HW182939   5.861   5.468   7.349  0.3520  0.2850  0.6325
26299SOL    HW282940   5.952   5.573   7.289 -0.0143  0.0754 -0.3126
26300SOL     OW82941   4.932   6.488   6.679 -0.3613  0.3559 -0.1884
26300SOL    HW182942   4.994   6.441   6.735 -0.8483 -1.2026 -0.8838
26300SOL    HW282943   4.863   6.517   6.738  1.0167  2.2055  0.6158
26301SOL     OW82944   5.017   0.833   4.384 -0.4408  0.5325  0.4093
26301SOL    HW182945   5.012   0.738   4.395  1.2269  0.4629  0.8425
26301SOL    HW282946   5.052   0.865   4.467  0.1831  1.3945 -0.1641
26302SOL     OW82947   3.408   9.959   4.668 -0.4037  0.4753  0.1370
26302SOL    HW182948   3.389   9.900   4.740 -2.5372  1.2805  0.3222
26302SOL    HW282949   3.450  10.035   4.709  0.2903  0.0409  0.2267
26303SOL     OW82950   9.233   3.566  10.243 -0.1425 -0.0601 -0.3292
26303SOL    HW182951   9.264   3.655  10.229 -1.5563  0.2956 -1.3744
26303SOL    HW282952   9.167   3.552  10.176  1.1271 -2.4678 -1.2083
26304SOL     OW82953   5.416   1.512   0.318 -0.7017 -0.0267  0.2209
26304SOL    HW182954   5.400   1.597   0.278 -0.6951 -0.0704  0.1240
26304SOL    HW282955   5.353   1.454   0.276  0.0515 -0.3096 -0.5345
26305SOL     OW82956   0.414   9.227   2.896 -0.1494 -0.2990 -0.3870
26305SOL    HW182957   0.473   9.168   2.850 -0.3873 -1.0407  0.2324
26305SOL    HW282958   0.471   9.288   2.941  0.1658 -1.1629  0.4104
26306SOL     OW82959   2.474   2.433   2.451 -0.6900 -0.0749  0.0279
26306SOL    HW182960   2.493   2.344   2.424  2.1867 -0.1814  1.8964
26306SOL    HW282961   2.497   2.487   2.375 -0.1747 -0.7914 -0.3319
26307SOL     OW82962   1.981   1.245   2.768  0.1956 -0.1062  0.1199
26307SOL    HW182963   1.887   1.260   2.765  0.1043 -0.8483 -0.9854
26307SOL    HW282964   2.000   1.231   2.861 -0.9461 -0.9859  0.2369
26308SOL     OW82965   6.361   1.272   1.241 -0.1734  0.6741  0.1366
26308SOL    HW182966   6.375   1.286   1.334  1.1475 -1.5857  0.3332
26308SOL    HW282967   6.437   1.221   1.212 -0.8713  0.7475 -2.0416
26309SOL     OW82968   9.541   1.528   3.392  0.0015 -0.4931  0.2805
26309SOL    HW182969   9.486   1.604   3.411 -1.5614 -1.3886 -0.4703
26309SOL    HW282970   9.500   1.487   3.316  1.1062 -1.8084  0.3582
26310SOL     OW82971   5.648   4.585   4.067  0.5301  0.1183  0.2418
26310SOL    HW182972   5.717   4.550   4.010  0.7198 -1.2424  1.2590
26310SOL    HW282973   5.696   4.628   4.139  0.2924  1.5585 -0.4261
26311SOL     OW82974   2.010   7.669   2.041  0.3675 -0.4030 -0.0868
26311SOL    HW182975   2.034   7.654   2.133 -0.0381 -1.8039 -0.1875
26311SOL    HW282976   2.050   7.754   2.019  1.8761 -0.8311  0.8918
26312SOL     OW82977  10.276   6.664   2.463 -0.0993  0.1286  0.2259
26312SOL    HW182978  10.341   6.643   2.396  0.1892 -0.4350  0.6728
26312SOL    HW282979  10.327   6.690   2.539 -0.4328  1.3856  0.0545
26313SOL     OW82980   6.989  10.158  10.108  0.1064  0.3400  0.4951
26313SOL    HW182981   7.056  10.180  10.043 -0.2474 -0.8436 -0.3085
26313SOL    HW282982   6.988  10.233  10.168  0.9717  1.1277 -0.4330
26314SOL     OW82983   3.848   3.340   0.977 -0.8737  0.7217  0.5391
26314SOL    HW182984   3.915   3.273   0.961 -2.2989 -0.2197 -2.0830
26314SOL    HW282985   3.898   3.422   0.984  0.6141  0.0183 -0.9654
26315SOL     OW82986   3.456   0.246   1.758 -0.2654  0.1969  0.3547
26315SOL    HW182987   3.362   0.237   1.747 -0.2795 -0.0043  0.6309
26315SOL    HW282988   3.479   0.326   1.710 -0.6469  0.4963  0.6716
26316SOL     OW82989   6.720   2.346   3.720  0.1589 -0.3030  0.4756
26316SOL    HW182990   6.795   2.369   3.665 -1.5091  2.2992 -0.9379
26316SOL    HW282991   6.681   2.270   3.676  0.0293  0.4717 -0.7990
26317SOL     OW82992   7.787   8.097   4.150 -0.1226  0.1964 -0.2613
26317SOL    HW182993   7.818   8.016   4.191 -0.2503 -0.1441 -0.8321
26317SOL    HW282994   7.770   8.156   4.224 -2.9613 -1.3149  0.4547
26318SOL     OW82995   6.565   9.297   8.390 -0.0634 -0.2106 -0.0542
26318SOL    HW182996   6.630   9.341   8.445 -0.7674 -0.4840  1.0437
26318SOL    HW282997   6.616   9.240   8.333  0.8081  1.3005 -0.8583
26319SOL     OW82998   4.309   9.944   1.139  0.1827  0.1901 -0.0344
26319SOL    HW182999   4.263   9.977   1.062 -0.0668 -0.4119 -0.1485
26319SOL    HW283000   4.338   9.856   1.114 -1.1538 -0.6037  1.0252
26320SOL     OW83001   4.591  10.115   4.696  0.1557 -0.0989  0.1939
26320SOL    HW183002   4.516  10.122   4.638 -0.1147  1.6278  0.6880
26320SOL    HW283003   4.562  10.058   4.767  0.0352 -1.1197 -0.6535
26321SOL     OW83004   5.018   5.817   5.765 -0.6161  0.9286  0.0728
26321SOL    HW183005   5.019   5.766   5.684  0.3668 -0.3019  0.8161
26321SOL    HW283006   4.986   5.903   5.739 -1.5318  0.1876 -1.3801
26322SOL     OW83007   3.412   2.200   5.291 -0.2538  0.1660  0.0035
26322SOL    HW183008   3.439   2.277   5.241  1.2482  0.7602  1.6342
26322SOL    HW283009   3.434   2.126   5.234  1.2860  0.8158 -0.3091
26323SOL     OW83010   2.022   4.693   9.735 -0.4945  0.2905  0.7599
26323SOL    HW183011   1.939   4.694   9.687 -0.4240  2.1582  0.6039
26323SOL    HW283012   1.999   4.721   9.823 -0.0638  0.7231  0.7403
26324SOL     OW83013   4.476   0.650   5.359  0.2824 -0.7895  0.1796
26324SOL    HW183014   4.477   0.689   5.446  0.6404  0.1689 -0.2358
26324SOL    HW283015   4.569   0.635   5.338  0.1780 -1.3534  0.1122
26325SOL     OW83016   7.346   1.307   5.940  0.5114  0.1656 -0.3560
26325SOL    HW183017   7.319   1.217   5.955  0.7107 -0.1929 -1.9782
26325SOL    HW283018   7.420   1.320   5.999  0.5276 -0.7486 -0.1637
26326SOL     OW83019   5.142   0.818   9.508 -0.2229  0.5709 -0.3214
26326SOL    HW183020   5.139   0.837   9.601 -1.7852  1.4684 -0.5030
26326SOL    HW283021   5.106   0.730   9.500 -1.7353  1.1460 -0.1823
26327SOL     OW83022   5.887   6.306   6.267  0.7752 -0.3269 -0.4291
26327SOL    HW183023   5.873   6.212   6.269  0.4346 -0.2782  2.0460
26327SOL    HW283024   5.981   6.317   6.282  0.5713 -0.2571  0.8609
26328SOL     OW83025   3.111   8.705   5.237 -0.3167 -0.3229 -0.2649
26328SOL    HW183026   3.051   8.704   5.162 -1.2282 -0.9486  0.4527
26328SOL    HW283027   3.146   8.794   5.238 -0.8446 -0.0956 -1.0035
26329SOL     OW83028   4.103   5.196   9.005  0.1675 -0.3051  0.3540
26329SOL    HW183029   4.114   5.279   8.959 -0.9845 -0.0719  0.4917
26329SOL    HW283030   4.143   5.211   9.091 -0.2013  0.1689  0.4465
26330SOL     OW83031   4.739   7.362   7.593 -0.2210  0.4894  1.3480
26330SOL    HW183032   4.728   7.432   7.529 -0.0060 -0.5038  0.1771
26330SOL    HW283033   4.831   7.366   7.618 -0.1875  0.5716  1.2132
26331SOL     OW83034   1.451   1.807   5.586 -0.2376 -0.0123 -0.4632
26331SOL    HW183035   1.445   1.797   5.681  1.6259  1.4011 -0.1530
26331SOL    HW283036   1.434   1.900   5.571 -1.1986 -0.3500 -1.6124
26332SOL     OW83037   2.357   7.327   0.052  0.3829 -0.1879 -0.1639
26332SOL    HW183038   2.273   7.290   0.024 -0.9640  2.3407  0.2648
26332SOL    HW283039   2.370   7.403  -0.005  1.2157  0.7906  1.2720
26333SOL     OW83040   2.590   1.972   1.149 -0.1930  0.0943  0.5132
26333SOL    HW183041   2.511   1.954   1.199 -0.9000  0.9965 -0.2242
26333SOL    HW283042   2.566   2.048   1.095  0.5998 -0.7094 -1.0141
26334SOL     OW83043   8.131   9.673   3.310 -0.7145  0.0816 -0.0233
26334SOL    HW183044   8.130   9.602   3.246  2.3709 -0.8986  0.8482
26334SOL    HW283045   8.195   9.735   3.276  2.5579 -1.4086  2.8650
26335SOL     OW83046   4.050   1.423   2.717  0.0974 -0.0892  0.1165
26335SOL    HW183047   4.013   1.459   2.636 -0.3702  1.0479  0.8257
26335SOL    HW283048   4.125   1.371   2.687  2.8298  3.9358 -0.8447
26336SOL     OW83049   1.389   6.035   0.004 -0.0866  0.0896  0.3857
26336SOL    HW183050   1.327   6.106   0.017 -1.1426 -0.6999 -0.1550
26336SOL    HW283051   1.344   5.957   0.037 -0.4983 -0.9641 -2.4006
26337SOL     OW83052   9.386   1.259   6.118  0.4658 -0.5420 -0.4370
26337SOL    HW183053   9.403   1.166   6.134  2.5286  0.0737  1.5091
26337SOL    HW283054   9.457   1.305   6.163 -0.5418  2.0089 -1.2321
26338SOL     OW83055   7.612   8.345   6.199  0.0849 -0.2539 -0.0072
26338SOL    HW183056   7.648   8.275   6.144 -0.4029  0.2733 -1.0137
26338SOL    HW283057   7.553   8.300   6.260  0.0389 -0.7566 -0.4198
26339SOL     OW83058   2.072   5.611   0.768 -0.6112  0.0107  0.0913
26339SOL    HW183059   2.124   5.690   0.784 -0.3862 -0.5289  2.3222
26339SOL    HW283060   2.005   5.639   0.705  0.9555  1.3030 -1.0759
26340SOL     OW83061   4.427   7.080   2.242  0.2681  0.5531  0.1093
26340SOL    HW183062   4.471   6.997   2.255  0.3586  0.5682 -0.1081
26340SOL    HW283063   4.451   7.107   2.154  1.2406  1.4051  0.6114
26341SOL     OW83064   5.255   6.034   7.145  0.4023  0.3232 -0.3629
26341SOL    HW183065   5.161   6.051   7.134  0.5091  0.7481 -0.6454
26341SOL    HW283066   5.265   5.941   7.125 -0.0795  0.0856  0.4722
26342SOL     OW83067   5.007   1.139   1.833  0.5850 -0.2489 -0.2860
26342SOL    HW183068   4.956   1.202   1.885  1.2420  0.1186 -0.0607
26342SOL    HW283069   4.945   1.102   1.772 -0.0197 -0.0430  0.1919
26343SOL     OW83070   5.581   0.821   5.060 -0.2851 -0.7765 -0.0116
26343SOL    HW183071   5.619   0.869   5.134 -1.2064  0.1644 -0.1196
26343SOL    HW283072   5.585   0.882   4.987  1.3056 -1.9611 -0.9783
26344SOL     OW83073   5.131   9.131   3.355 -0.0187 -0.1474 -0.9163
26344SOL    HW183074   5.094   9.114   3.442  1.6715 -0.0799 -0.1382
26344SOL    HW283075   5.104   9.056   3.302 -2.2341  0.4703 -0.7665
26345SOL     OW83076   4.150   2.759   0.044 -0.1214 -0.0207 -0.4500
26345SOL    HW183077   4.137   2.677  -0.003 -0.4853 -1.7102  2.3404
26345SOL    HW283078   4.072   2.768   0.099 -0.2234  2.3862 -0.9096
26346SOL     OW83079   8.737  10.139   1.769 -0.5371  0.2946  0.1500
26346SOL    HW183080   8.782  10.079   1.828 -0.0309 -0.1267 -0.6439
26346SOL    HW283081   8.777  10.224   1.786  1.8098 -0.3407 -1.6880
26347SOL     OW83082   8.110   3.311   6.868 -0.5993 -0.6988 -0.2869
26347SOL    HW183083   8.053   3.324   6.792 -1.2449 -0.7801  0.1729
26347SOL    HW283084   8.149   3.397   6.884 -0.6567 -0.6211 -0.5536
26348SOL     OW83085   9.733   9.682   5.163  0.9077  0.1319 -0.1511
26348SOL    HW183086   9.714   9.774   5.184 -0.6469  0.0602 -1.1253
26348SOL    HW283087   9.748   9.681   5.069 -0.4540 -0.7989 -0.3878
26349SOL     OW83088   3.167   7.844   0.772  0.5440 -0.3550  0.0151
26349SOL    HW183089   3.244   7.820   0.722  1.2854  0.8234  0.5466
26349SOL    HW283090   3.135   7.924   0.730  1.2537  0.7240  1.4415
26350SOL     OW83091   4.391   7.979   1.098  0.1293  0.2176  0.6846
26350SOL    HW183092   4.416   8.041   1.030 -3.4348  0.4469 -0.6049
26350SOL    HW283093   4.349   8.032   1.165 -0.2771 -0.4899  0.9998
26351SOL     OW83094   8.319   8.373   8.982 -0.1285 -0.2033 -0.6283
26351SOL    HW183095   8.332   8.455   9.030  1.8394 -1.6754  1.5833
26351SOL    HW283096   8.262   8.322   9.039 -0.0865 -0.9349 -1.2387
26352SOL     OW83097   4.198   2.266  10.176  0.3227  0.5232 -0.0201
26352SOL    HW183098   4.200   2.195  10.241 -0.5139  1.4015  1.0260
26352SOL    HW283099   4.181   2.223  10.093 -1.1444 -0.4606  0.7396
26353SOL     OW83100   3.085   7.421   1.814  0.2329  0.2086 -0.3502
26353SOL    HW183101   3.168   7.443   1.771  0.0115  0.7285 -0.5213
26353SOL    HW283102   3.107   7.417   1.907  1.1211 -2.7223 -0.5840
26354SOL     OW83103   6.684   9.119   4.887 -0.4986 -0.2507  0.0081
26354SOL    HW183104   6.695   9.033   4.846 -1.0639  0.1409 -0.9944
26354SOL    HW283105   6.714   9.106   4.977 -0.5530 -1.4922 -0.1315
26355SOL     OW83106   6.990   6.057   0.061  0.1956  0.3209  0.5632
26355SOL    HW183107   7.023   6.146   0.070  1.1497  0.0791 -0.3018
26355SOL    HW283108   6.901   6.060   0.096  0.4736  1.4346  1.2190
26356SOL     OW83109   2.786   2.004   4.897 -1.1394  0.1914  0.0359
26356SOL    HW183110   2.795   1.923   4.946 -1.3992  0.6560  0.8642
26356SOL    HW283111   2.705   1.994   4.847 -1.0706 -0.1311 -0.0098
26357SOL     OW83112   2.487   0.846   8.491  0.0021 -0.2474  0.3333
26357SOL    HW183113   2.529   0.833   8.406 -0.3063  0.6491  0.0301
26357SOL    HW283114   2.559   0.848   8.553  0.3613  0.4530 -0.0847
26358SOL     OW83115   2.818   2.060  10.135  0.8734 -0.1474 -0.5141
26358SOL    HW183116   2.725   2.041  10.123  0.3507  1.6860  0.3272
26358SOL    HW283117   2.846   2.001  10.205 -0.0867  0.4369  0.3752
26359SOL     OW83118   2.178   3.739   1.115  0.2627 -0.3650 -0.4139
26359SOL    HW183119   2.187   3.644   1.118  0.3788 -0.3371  1.2013
26359SOL    HW283120   2.086   3.754   1.094 -0.2364 -0.8812  1.2764
26360SOL     OW83121   1.571   0.114   3.818  0.2895  0.1824  0.2324
26360SOL    HW183122   1.514   0.118   3.894  1.1478  1.2269  0.8502
26360SOL    HW283123   1.659   0.101   3.854  0.5496 -0.7640 -0.6621
26361SOL     OW83124  10.058   0.864   1.918 -0.4915 -0.1937  0.3883
26361SOL    HW183125  10.088   0.773   1.923  1.1693  0.0810 -2.3502
26361SOL    HW283126  10.126   0.914   1.963  1.3424  0.0493 -2.4037
26362SOL     OW83127  10.182   3.260   2.252  0.1308 -0.1904 -0.4507
26362SOL    HW183128  10.261   3.209   2.237  1.0624  1.2541 -0.7237
26362SOL    HW283129  10.142   3.221   2.330 -0.0879 -2.3035 -1.5560
26363SOL     OW83130   3.705  10.054   6.641  0.8007 -0.5598  0.0339
26363SOL    HW183131   3.632  10.040   6.580  0.2262 -0.5851  0.7246
26363SOL    HW283132   3.780  10.016   6.596 -0.0708 -2.8147  0.3600
26364SOL     OW83133   3.413   1.481   6.006 -0.2897  0.5218  0.4683
26364SOL    HW183134   3.479   1.512   5.943 -0.5071 -0.3167 -0.1866
26364SOL    HW283135   3.332   1.525   5.979  0.1159  2.1556  1.7391
26365SOL     OW83136   3.627   5.185   2.180  0.5938 -0.0751 -0.2999
26365SOL    HW183137   3.556   5.244   2.155 -0.6301 -0.6362  1.5813
26365SOL    HW283138   3.629   5.118   2.112 -1.4974 -0.6766  0.1672
26366SOL     OW83139   0.999   7.542   9.343  0.4850 -0.0566 -0.0439
26366SOL    HW183140   1.070   7.521   9.404  1.0669  0.8826 -0.3601
26366SOL    HW283141   1.036   7.524   9.257  0.1270 -0.1228 -0.1859
26367SOL     OW83142   7.424   6.511   6.636 -0.3518  0.2061 -0.0004
26367SOL    HW183143   7.397   6.603   6.632 -2.1901 -0.3322 -1.1033
26367SOL    HW283144   7.453   6.491   6.547  0.8716 -0.0849  0.4394
26368SOL     OW83145   7.999   3.643   7.673  0.0431 -0.1528  0.2542
26368SOL    HW183146   7.988   3.711   7.739 -1.1044 -0.8467  0.8171
26368SOL    HW283147   8.085   3.660   7.635 -0.0843  1.4036  0.5962
26369SOL     OW83148   9.007   5.512   4.233 -0.0714  0.2398  0.3367
26369SOL    HW183149   8.923   5.523   4.277  0.5016  0.0422  1.5137
26369SOL    HW283150   9.070   5.500   4.304  0.9936  0.6478 -0.5174
26370SOL     OW83151   9.868   0.186   9.059  0.3539 -0.0840 -0.1006
26370SOL    HW183152   9.871   0.096   9.028  0.1543 -0.6589  1.4198
26370SOL    HW283153   9.784   0.193   9.105  1.0776  0.3544  1.2154
26371SOL     OW83154   8.477   7.512   8.904 -0.1366  0.2368 -0.2253
26371SOL    HW183155   8.460   7.606   8.916 -0.0085  0.3209 -0.7023
26371SOL    HW283156   8.519   7.506   8.818 -3.1563 -0.5931 -1.7698
26372SOL     OW83157   0.307   3.433   7.169  0.1821  0.3261  0.4640
26372SOL    HW183158   0.220   3.441   7.208  0.3424  2.2267  0.5068
26372SOL    HW283159   0.291   3.410   7.078 -0.2457 -2.0914  1.0830
26373SOL     OW83160   1.445   5.213   1.057  0.1462  0.6786  0.1333
26373SOL    HW183161   1.402   5.182   1.137  0.3861  1.0356  0.4036
26373SOL    HW283162   1.491   5.292   1.084  2.1819 -0.4609  0.1924
26374SOL     OW83163   0.373   5.777   1.409 -0.0856  0.0220  0.1864
26374SOL    HW183164   0.456   5.731   1.420  1.4038  1.7747 -2.4095
26374SOL    HW283165   0.399   5.865   1.380 -2.8318  0.3161 -1.7760
26375SOL     OW83166   6.077   7.907   2.806  0.2754 -0.0872  0.4196
26375SOL    HW183167   6.065   7.994   2.844 -0.4268 -0.7123  1.6914
26375SOL    HW283168   6.049   7.846   2.874  0.8683 -1.3308 -0.3945
26376SOL     OW83169   2.456   7.810   9.710  0.0354 -0.2487  0.9383
26376SOL    HW183170   2.467   7.904   9.697 -2.0161  0.0015  0.6734
26376SOL    HW283171   2.375   7.802   9.760  0.0383 -1.8921  0.7320
26377SOL     OW83172   8.673   2.085   0.674  0.8829 -0.2553 -0.2900
26377SOL    HW183173   8.662   2.092   0.579 -1.3996 -0.0622 -0.0827
26377SOL    HW283174   8.720   2.003   0.688 -2.0479 -2.2901 -1.4906
26378SOL     OW83175  10.283   9.915   4.872  0.3589  0.1262 -0.2115
26378SOL    HW183176  10.271   9.910   4.777  0.2990  2.0701 -0.3411
26378SOL    HW283177  10.363   9.966   4.883 -0.0913  0.6384  0.7834
26379SOL     OW83178   2.667   2.585   0.823 -0.1560  0.5632 -0.4344
26379SOL    HW183179   2.728   2.512   0.830  0.0036  0.4483 -2.4291
26379SOL    HW283180   2.669   2.609   0.730 -0.9350  2.4741 -0.0043
26380SOL     OW83181   0.876   7.016  10.094 -0.0595  0.1747  0.3189
26380SOL    HW183182   0.808   7.039  10.158 -1.2344  1.8237 -1.4365
26380SOL    HW283183   0.950   7.072  10.118  0.8472 -1.7150  2.3155
26381SOL     OW83184   0.253   6.132   1.380 -0.1154  0.7364  0.3066
26381SOL    HW183185   0.200   6.212   1.376  0.5606  1.1644 -0.1147
26381SOL    HW283186   0.343   6.162   1.386  0.1681  0.0001 -0.1394
26382SOL     OW83187   5.869   7.258   8.244  0.0821 -0.4799  0.7363
26382SOL    HW183188   5.949   7.296   8.282  0.4475 -1.4915  0.9978
26382SOL    HW283189   5.878   7.274   8.150  0.4623 -0.3415  0.7929
26383SOL     OW83190   3.667   1.088   7.570  0.6262  0.1127 -0.2360
26383SOL    HW183191   3.696   1.179   7.576  0.2160  0.2532 -0.3610
26383SOL    HW283192   3.613   1.074   7.647  0.9743 -0.1340 -0.0318
26384SOL     OW83193   5.733   6.663   2.372 -0.1071 -0.1981 -0.1769
26384SOL    HW183194   5.693   6.706   2.448  2.2355  0.0308  1.0330
26384SOL    HW283195   5.781   6.734   2.327  0.0762 -0.6952 -0.7785
26385SOL     OW83196   3.143   5.876   4.647 -0.1052 -0.3592 -0.2702
26385SOL    HW183197   3.165   5.783   4.659 -0.2517 -0.4148 -0.4361
26385SOL    HW283198   3.062   5.875   4.598  0.9049 -0.1176 -2.0180
26386SOL     OW83199   8.023   0.548   9.805  0.1633 -0.3942 -0.0695
26386SOL    HW183200   8.030   0.610   9.733  4.4407  0.7790  1.0582
26386SOL    HW283201   7.970   0.593   9.870  0.7378  0.8717 -0.4506
26387SOL     OW83202   0.771   4.673   4.611 -0.7264 -0.0189  0.2869
26387SOL    HW183203   0.826   4.719   4.675 -0.9319  0.4637  0.1165
26387SOL    HW283204   0.685   4.669   4.653 -0.3642 -1.6149  0.9716
26388SOL     OW83205   2.630   4.647   6.235 -0.0639  0.2295  0.1966
26388SOL    HW183206   2.594   4.566   6.199 -0.1551  0.3651 -0.0173
26388SOL    HW283207   2.564   4.714   6.216 -0.5623  0.1325  1.4670
26389SOL     OW83208   3.671   9.640   7.331  0.1578  0.0737  0.0149
26389SOL    HW183209   3.738   9.633   7.263  1.1999  3.5509  0.4719
26389SOL    HW283210   3.605   9.575   7.307  2.8382 -2.3488 -1.3999
26390SOL     OW83211   1.322   0.831   2.312  0.5021 -0.6894 -0.1315
26390SOL    HW183212   1.343   0.787   2.395  1.3981 -3.3697 -1.6410
26390SOL    HW283213   1.401   0.820   2.259 -0.7970 -0.9749 -2.0812
26391SOL     OW83214   9.372   6.168   0.648  0.5197 -0.7019 -0.3332
26391SOL    HW183215   9.461   6.186   0.679  0.5478 -1.1571 -0.1260
26391SOL    HW283216   9.383   6.100   0.582  0.3491 -0.5681 -0.4998
26392SOL     OW83217   5.828  10.176   1.177 -0.2777  0.1296 -0.4625
26392SOL    HW183218   5.810  10.190   1.270  1.9573 -2.8529  0.5728
26392SOL    HW283219   5.765  10.109   1.150 -0.0406  0.0144 -0.7272
26393SOL     OW83220   8.198   5.724   2.862 -0.0675 -0.5885  0.1365
26393SOL    HW183221   8.282   5.692   2.896 -0.4425  0.0795  1.7460
26393SOL    HW283222   8.187   5.811   2.900 -0.7264  0.0544 -1.3985
26394SOL     OW83223   8.308   1.326   8.740  0.3443 -0.2441  0.7922
26394SOL    HW183224   8.247   1.272   8.691  1.6753 -0.6992 -0.4169
26394SOL    HW283225   8.341   1.268   8.809 -0.5694  0.0102  1.4622
26395SOL     OW83226   0.015   9.164   0.163 -1.0864 -0.2931  0.2796
26395SOL    HW183227  -0.010   9.149   0.254  0.8828 -0.5171  0.8187
26395SOL    HW283228   0.037   9.257   0.159 -0.1933 -0.4959  0.3001
26396SOL     OW83229   6.425   0.880   7.197  0.2659  0.5614  0.0515
26396SOL    HW183230   6.356   0.916   7.141 -1.0613  1.4617  2.1415
26396SOL    HW283231   6.408   0.786   7.199  1.5743  0.1689 -2.5758
26397SOL     OW83232   7.690   7.564   3.231 -0.5760 -0.0690 -0.0163
26397SOL    HW183233   7.712   7.656   3.215 -1.3282  0.5132  1.9886
26397SOL    HW283234   7.615   7.547   3.175  1.5291 -0.5138 -2.9191
26398SOL     OW83235   5.563   2.883   2.755 -0.6740 -0.4190  0.2276
26398SOL    HW183236   5.630   2.822   2.723 -1.0144 -0.3124 -0.7213
26398SOL    HW283237   5.484   2.829   2.763 -0.8534 -0.2146 -0.1402
26399SOL     OW83238   2.121   2.079   2.561 -0.3843 -0.2830  0.0717
26399SOL    HW183239   2.137   2.090   2.655 -1.9768 -2.5436  0.7006
26399SOL    HW283240   2.192   2.022   2.532  0.4407  0.8913 -0.2460
26400SOL     OW83241   0.517   1.061   2.309  0.2775  0.1379 -0.5334
26400SOL    HW183242   0.472   1.139   2.341  1.0597  0.3119  0.1774
26400SOL    HW283243   0.484   1.048   2.220  0.8933  1.8863 -1.0584
26401SOL     OW83244   6.942   4.900   9.878  0.5170  0.4334  0.0679
26401SOL    HW183245   6.916   4.982   9.920  2.4850 -0.1074  2.6170
26401SOL    HW283246   7.008   4.927   9.813  0.0449  0.9895 -0.1907
26402SOL     OW83247   7.973   5.823   7.627  0.8497 -0.6977  0.0470
26402SOL    HW183248   7.943   5.740   7.591  1.8220 -0.6345 -0.9555
26402SOL    HW283249   7.951   5.888   7.560 -0.8988  0.0623  1.2803
26403SOL     OW83250   4.590   8.232   5.925  0.3626 -0.2007 -0.2747
26403SOL    HW183251   4.497   8.224   5.947 -0.5308 -0.0453 -3.4829
26403SOL    HW283252   4.621   8.142   5.919  0.0534 -0.2902 -0.5341
26404SOL     OW83253   3.765   7.785   9.809 -0.1867 -0.6963  0.0173
26404SOL    HW183254   3.747   7.792   9.715 -0.9705  2.0440  0.2780
26404SOL    HW283255   3.679   7.781   9.850  0.0276  0.6592  0.6887
26405SOL     OW83256   8.847   2.926   9.788  0.0690 -0.2242 -0.0996
26405SOL    HW183257   8.912   2.897   9.724  0.8504 -0.9092  0.9648
26405SOL    HW283258   8.865   2.874   9.866 -0.7968  0.6428  0.7158
26406SOL     OW83259   6.322   3.998   0.528 -0.1798  0.1692  0.3033
26406SOL    HW183260   6.338   4.073   0.471 -0.8868  0.5338  0.5631
26406SOL    HW283261   6.407   3.955   0.536 -0.3763 -0.8982 -2.3903
26407SOL     OW83262   1.257   9.719   7.498 -0.2636 -0.2718  0.2480
26407SOL    HW183263   1.344   9.681   7.483  0.4372  1.0991  0.6617
26407SOL    HW283264   1.255   9.737   7.592  0.2392  2.4287 -0.1575
26408SOL     OW83265   6.917   3.298   4.113 -0.0909 -0.0774 -0.5089
26408SOL    HW183266   6.964   3.242   4.174  0.1192  0.1669 -0.4437
26408SOL    HW283267   6.873   3.237   4.053  0.1737 -0.3087 -0.4703
26409SOL     OW83268   6.371   7.905   9.789  0.4186 -0.5661 -0.3240
26409SOL    HW183269   6.353   7.863   9.873  0.1833  1.6016  0.7636
26409SOL    HW283270   6.461   7.937   9.796 -0.0236  0.7412 -0.3729
26410SOL     OW83271   8.704   1.784   6.526  0.5382  0.3007  0.0220
26410SOL    HW183272   8.731   1.840   6.453 -0.6931 -0.3462 -0.9646
26410SOL    HW283273   8.653   1.714   6.485 -1.7885  0.9224  1.6320
26411SOL     OW83274   9.499   2.048   3.744 -0.5165  0.0056  0.6408
26411SOL    HW183275   9.552   2.100   3.805 -1.0606  0.9423  0.3301
26411SOL    HW283276   9.504   1.958   3.778 -2.2210  0.7375  3.1409
26412SOL     OW83277   5.934   3.390   9.100  0.2972 -0.1205  0.2110
26412SOL    HW183278   5.880   3.381   9.021 -0.7365  0.6042  0.8095
26412SOL    HW283279   5.971   3.303   9.113 -0.2347 -0.4804 -0.5669
26413SOL     OW83280   4.239   8.968   5.633 -0.3050  0.0044 -0.8907
26413SOL    HW183281   4.166   8.953   5.573 -0.6948 -0.9198 -0.2194
26413SOL    HW283282   4.204   9.027   5.699  0.3547  1.6424 -1.9545
26414SOL     OW83283   3.996   3.600   8.153 -0.3762  0.0245 -0.0266
26414SOL    HW183284   3.906   3.623   8.130 -0.9867 -0.9538  1.1961
26414SOL    HW283285   4.022   3.535   8.088 -0.6358  0.1545 -0.2626
26415SOL     OW83286   5.572   7.301   3.037 -0.0788  0.2247 -0.0979
26415SOL    HW183287   5.593   7.294   2.944  1.0831  0.4447  0.1378
26415SOL    HW283288   5.638   7.360   3.072 -0.3931 -0.0059  0.9082
26416SOL     OW83289   6.404   2.188   9.794 -0.0832 -0.5913 -0.3231
26416SOL    HW183290   6.407   2.194   9.889  0.0341  0.1165 -0.3641
26416SOL    HW283291   6.474   2.246   9.764 -0.6112 -0.2137 -0.8516
26417SOL     OW83292   3.093   3.772  10.296 -0.6848  0.3672 -0.2219
26417SOL    HW183293   3.016   3.829  10.305 -1.4017 -0.4294 -1.0844
26417SOL    HW283294   3.082   3.731  10.210  0.3907 -0.2438 -0.0810
26418SOL     OW83295   8.562   6.170   0.358 -0.1470 -0.4621 -0.7622
26418SOL    HW183296   8.532   6.186   0.447  0.4345 -0.4520 -0.5673
26418SOL    HW283297   8.509   6.096   0.328 -1.1455  0.2535 -0.8161
26419SOL     OW83298   8.643   4.078   5.733 -0.0653  0.2654 -0.2849
26419SOL    HW183299   8.552   4.107   5.730  0.6487  2.6525 -1.6130
26419SOL    HW283300   8.671   4.080   5.641  0.5663 -3.3681 -0.3243
26420SOL     OW83301   9.692   5.020   9.680  0.4958  0.0499 -0.6243
26420SOL    HW183302   9.685   5.065   9.596  0.1139  0.7264 -0.2373
26420SOL    HW283303   9.756   4.951   9.665  1.5731  1.1168 -1.0621
26421SOL     OW83304   6.855   6.183   9.218 -0.1106  0.4105 -0.0026
26421SOL    HW183305   6.912   6.106   9.207 -0.2315  0.5934 -2.6187
26421SOL    HW283306   6.789   6.155   9.281  2.0109 -0.2908  2.0633
26422SOL     OW83307   0.263   1.842   0.487  0.5134  0.0136 -0.3575
26422SOL    HW183308   0.264   1.747   0.477  0.9453 -0.0408  0.1904
26422SOL    HW283309   0.173   1.863   0.511  0.7617 -0.4234  1.0394
26423SOL     OW83310   5.511   2.635   2.296 -0.3670  0.2055  0.3744
26423SOL    HW183311   5.496   2.693   2.372  1.0404 -1.2354  1.8265
26423SOL    HW283312   5.528   2.549   2.335 -0.1737 -0.7019 -1.6351
26424SOL     OW83313   0.543   1.678   0.293 -0.2154 -0.2478  0.1575
26424SOL    HW183314   0.484   1.638   0.229 -0.0963 -0.1933  0.0124
26424SOL    HW283315   0.629   1.677   0.250  0.0689 -1.1319  0.7108
26425SOL     OW83316   7.394   3.618   1.925  0.3457 -0.8829  0.6603
26425SOL    HW183317   7.435   3.700   1.896 -1.1231 -0.5324 -0.5644
26425SOL    HW283318   7.328   3.646   1.987 -0.4559 -1.0797 -0.0899
26426SOL     OW83319   6.997   8.203   1.972 -0.2006  0.3495 -0.1517
26426SOL    HW183320   6.961   8.270   2.031 -2.1316 -0.2445 -0.5757
26426SOL    HW283321   6.920   8.168   1.927  0.9441 -1.1027 -1.0444
26427SOL     OW83322   8.565   7.519   3.934  0.2544 -0.0369 -0.9091
26427SOL    HW183323   8.527   7.432   3.946  2.1795 -0.8921 -0.7725
26427SOL    HW283324   8.598   7.543   4.021 -2.5863  2.0850 -0.2239
26428SOL     OW83325   9.198   9.098   3.718  0.5574 -0.0559 -0.8035
26428SOL    HW183326   9.279   9.072   3.762  2.2013  0.3044 -3.3921
26428SOL    HW283327   9.151   9.150   3.783  3.6717  1.9642  0.0354
26429SOL     OW83328   6.843   1.331   5.473  0.0704  0.0035  0.2169
26429SOL    HW183329   6.818   1.239   5.463  1.4130 -0.2973 -0.6288
26429SOL    HW283330   6.905   1.347   5.402 -1.6769  2.1449 -0.9505
26430SOL     OW83331   6.402  10.000   4.382  0.4124  0.2183 -0.0258
26430SOL    HW183332   6.436  10.022   4.469  0.4924 -0.9921  0.2716
26430SOL    HW283333   6.417   9.906   4.374 -1.4620 -0.0758 -0.5147
26431SOL     OW83334   1.880   4.557   3.354 -0.4286  0.4781 -0.3296
26431SOL    HW183335   1.839   4.635   3.317 -0.8519 -0.8166 -2.8010
26431SOL    HW283336   1.812   4.490   3.350  0.9315 -0.9138 -1.6219
26432SOL     OW83337   4.201   1.534   9.288  0.1034 -0.2941 -0.1703
26432SOL    HW183338   4.106   1.543   9.277  0.4287  2.1096 -1.6894
26432SOL    HW283339   4.210   1.468   9.357 -2.6658 -0.4647  0.1698
26433SOL     OW83340   5.070   4.073   0.499 -0.1763 -0.1923 -0.7355
26433SOL    HW183341   5.046   4.074   0.591 -0.2011 -1.0182 -0.7219
26433SOL    HW283342   5.057   4.163   0.469 -0.7615 -0.0554 -0.0891
26434SOL     OW83343   7.899   7.270   6.458  0.1899 -0.3749  0.2360
26434SOL    HW183344   7.908   7.205   6.528  2.6930 -0.5612 -0.1787
26434SOL    HW283345   7.939   7.349   6.494  1.1352 -0.3563 -0.8346
26435SOL     OW83346   0.857   5.828   4.522 -0.7250  0.1752 -0.1263
26435SOL    HW183347   0.764   5.807   4.507 -0.7445  0.1076  0.0893
26435SOL    HW283348   0.889   5.857   4.437 -1.2432  1.3290  0.0507
26436SOL     OW83349   3.761   8.093   0.878 -0.4125  0.5671 -0.2344
26436SOL    HW183350   3.732   8.090   0.969  0.5452  0.3025  0.0750
26436SOL    HW283351   3.844   8.046   0.877 -0.7332 -0.0288 -1.3845
26437SOL     OW83352   4.919   9.342   5.948 -0.8994 -0.1356  0.3382
26437SOL    HW183353   4.968   9.418   5.978  0.4987 -0.3399 -1.2993
26437SOL    HW283354   4.985   9.281   5.915 -2.1627 -0.8198 -1.0877
26438SOL     OW83355   4.982   2.989  10.098 -0.1295 -0.0530 -0.0204
26438SOL    HW183356   5.031   2.987  10.180  0.3141  0.5012 -0.2694
26438SOL    HW283357   5.041   3.031  10.036 -0.3656 -0.6801 -0.6881
26439SOL     OW83358   5.481   5.187   2.015 -0.4868  0.2280 -0.0800
26439SOL    HW183359   5.528   5.112   1.980 -0.9902  0.3628 -1.0686
26439SOL    HW283360   5.430   5.151   2.088  0.8318  0.0142  0.7666
26440SOL     OW83361   9.570   2.038   7.259 -0.2333  0.4879  0.3037
26440SOL    HW183362   9.524   2.101   7.315  2.2240  2.6075  0.1409
26440SOL    HW283363   9.661   2.043   7.287  0.1357 -3.0442  0.2012
26441SOL     OW83364   3.304   0.052   8.910  0.0601  0.3690 -0.2296
26441SOL    HW183365   3.395   0.022   8.914 -0.1594 -0.8094 -2.2570
26441SOL    HW283366   3.297   0.119   8.977  2.6547  1.0781 -0.5697
26442SOL     OW83367   5.039   2.728  10.029 -0.4076  0.0739  0.3965
26442SOL    HW183368   5.010   2.817  10.049 -0.1790  0.1182  0.5348
26442SOL    HW283369   5.071   2.694  10.112  0.2999  0.1658  0.1686
26443SOL     OW83370   6.478   3.594   5.153 -0.1199 -0.3120  0.3941
26443SOL    HW183371   6.528   3.645   5.217 -1.1570  0.1541  0.8552
26443SOL    HW283372   6.416   3.656   5.116 -0.1882 -0.8200 -0.3519
26444SOL     OW83373   2.037   6.194   4.816  0.3203  0.2010 -0.0596
26444SOL    HW183374   2.069   6.192   4.726 -3.6514 -0.6243 -1.6747
26444SOL    HW283375   2.027   6.101   4.839 -0.6297  0.4083  0.4067
26445SOL     OW83376   0.263   9.681   1.799 -0.5592  0.3738 -0.1568
26445SOL    HW183377   0.284   9.605   1.745 -0.1657  1.7243 -1.9825
26445SOL    HW283378   0.212   9.645   1.872 -0.8694 -1.5490 -1.2598
26446SOL     OW83379   4.181   8.727   6.026  0.3516 -0.0417 -0.0843
26446SOL    HW183380   4.249   8.747   6.089  0.5797  0.1996 -0.4044
26446SOL    HW283381   4.215   8.758   5.942 -0.3888  0.6118 -0.1586
26447SOL     OW83382   5.332   0.598   0.670 -0.3320  0.4726 -0.3410
26447SOL    HW183383   5.300   0.598   0.760 -1.3342  2.5070 -0.6348
26447SOL    HW283384   5.346   0.506   0.649  0.0128 -0.0406  1.9047
26448SOL     OW83385   0.445   6.466   4.106  0.0270 -0.5240 -0.4940
26448SOL    HW183386   0.359   6.424   4.100  0.1584 -1.0816  1.0333
26448SOL    HW283387   0.481   6.461   4.017 -2.3320  1.5913 -1.6896
26449SOL     OW83388   2.285   7.754   1.840  0.3686 -0.3345 -0.0446
26449SOL    HW183389   2.221   7.825   1.829  0.1416 -0.5667 -0.2359
26449SOL    HW283390   2.254   7.685   1.781 -0.2839 -1.1871  1.2319
26450SOL     OW83391   1.903   1.992   6.227  0.5411 -0.3673  0.6498
26450SOL    HW183392   1.960   2.039   6.166  0.6530 -0.4621  0.6817
26450SOL    HW283393   1.841   1.946   6.171  0.1305  0.2005  0.6299
26451SOL     OW83394   5.660   9.974   8.105  0.0167 -0.2926  0.0585
26451SOL    HW183395   5.598  10.046   8.110  0.6286  0.1664  1.4348
26451SOL    HW283396   5.651   9.941   8.016 -0.6175  1.1670 -0.4466
26452SOL     OW83397   4.502   2.569   2.026  0.3807 -0.0128 -0.8789
26452SOL    HW183398   4.464   2.638   2.080 -0.0658 -0.1364 -1.0385
26452SOL    HW283399   4.587   2.604   1.999  0.5089  0.1446 -0.2899
26453SOL     OW83400   6.015  10.230   9.869  0.0978  0.3556  0.5888
26453SOL    HW183401   5.942  10.274   9.827  0.0852 -1.0924 -1.0255
26453SOL    HW283402   5.975  10.175   9.937 -0.1014  1.0500  1.0390
26454SOL     OW83403   4.267   7.830   5.462  0.0428  0.2794 -0.2896
26454SOL    HW183404   4.353   7.869   5.475  0.2480 -0.2337 -0.0486
26454SOL    HW283405   4.280   7.737   5.484 -1.1142  0.6144  2.0488
26455SOL     OW83406   8.980   4.791   3.973 -0.0954  0.1336  0.8813
26455SOL    HW183407   9.015   4.788   4.062  1.0572 -1.0290  0.4106
26455SOL    HW283408   8.886   4.778   3.984  0.1282 -0.7597  1.8763
26456SOL     OW83409   2.593   8.824   9.099  0.2160  0.0315  0.7251
26456SOL    HW183410   2.574   8.783   9.014  2.0928 -1.1177  0.7935
26456SOL    HW283411   2.603   8.917   9.079  1.0805 -0.2797 -0.4354
26457SOL     OW83412   8.252   1.602   4.989  0.5107 -0.1577  0.1128
26457SOL    HW183413   8.180   1.564   5.039 -0.1023 -3.1594 -2.7059
26457SOL    HW283414   8.228   1.586   4.897  3.0912  2.0283 -1.0709
26458SOL     OW83415   7.587   8.774   4.681 -0.0834 -0.0254  0.7700
26458SOL    HW183416   7.495   8.761   4.704 -0.9321  1.4436 -1.4899
26458SOL    HW283417   7.597   8.731   4.597  0.6760  1.7176 -0.0804
26459SOL     OW83418   9.808   4.304   4.011 -0.4699  0.1377 -0.4227
26459SOL    HW183419   9.768   4.390   4.007 -1.3929 -0.3276 -2.9684
26459SOL    HW283420   9.903   4.321   4.007 -0.5684  1.0494  0.6525
26460SOL     OW83421   4.392   6.372   8.958  0.3610 -0.0847  0.1143
26460SOL    HW183422   4.325   6.437   8.979  1.7936  2.0229 -1.4443
26460SOL    HW283423   4.459   6.385   9.025  0.0113 -1.0204  0.6677
26461SOL     OW83424   2.217   5.304   3.212  0.4247 -0.4387  0.0458
26461SOL    HW183425   2.146   5.315   3.275  1.3636  1.5114  0.8326
26461SOL    HW283426   2.207   5.377   3.151  1.7337 -0.1382  0.1614
26462SOL     OW83427   1.049   3.111   5.362 -0.2510 -0.7570 -0.4046
26462SOL    HW183428   0.962   3.111   5.322  0.4545  1.3082 -2.0747
26462SOL    HW283429   1.032   3.094   5.455 -2.3144 -1.4396 -0.8519
26463SOL     OW83430   9.015   8.440   0.879 -0.2721  0.0495  0.1736
26463SOL    HW183431   8.927   8.412   0.850 -0.1030 -0.1713 -0.1385
26463SOL    HW283432   9.074   8.401   0.814 -0.0757  1.7893 -0.7375
26464SOL     OW83433   3.182   4.337   3.039 -0.0397 -0.1342  0.5111
26464SOL    HW183434   3.264   4.365   3.000 -0.5071  0.1625 -0.3009
26464SOL    HW283435   3.206   4.268   3.101  0.9280  0.7960  1.1965
26465SOL     OW83436   1.763   6.700   0.900 -0.1183 -0.0980 -0.1992
26465SOL    HW183437   1.669   6.690   0.916 -0.2440  0.6253 -0.4484
26465SOL    HW283438   1.796   6.610   0.892 -0.5914 -0.4004  0.9865
26466SOL     OW83439   0.153   2.778   0.099 -0.1949  0.3527  0.1811
26466SOL    HW183440   0.119   2.848   0.044 -2.5758 -0.5761  0.3057
26466SOL    HW283441   0.097   2.703   0.078  1.1320 -1.0201  1.3124
26467SOL     OW83442   0.879   5.298   7.606  0.5101  0.7277 -0.3180
26467SOL    HW183443   0.830   5.378   7.627  1.5678  1.2703  0.1460
26467SOL    HW283444   0.909   5.312   7.516 -0.1550  0.4027 -0.5960
26468SOL     OW83445   0.075   3.998   5.086  0.0147 -0.5078 -0.1040
26468SOL    HW183446   0.065   3.932   5.017  1.2610 -1.1825  0.3174
26468SOL    HW283447   0.092   3.947   5.166 -0.0524  0.2981  0.4395
26469SOL     OW83448   4.824   7.094   8.442 -0.2568  0.7871 -0.0826
26469SOL    HW183449   4.746   7.059   8.484 -0.7178  1.2329 -0.5680
26469SOL    HW283450   4.876   7.016   8.420 -1.5142  0.3276 -1.6315
26470SOL     OW83451   9.954   1.504   7.986 -0.4870 -0.3419 -0.2460
26470SOL    HW183452   9.949   1.449   8.064 -2.2553 -0.3245 -0.3142
26470SOL    HW283453   9.936   1.592   8.018 -0.7261 -0.2609 -0.6048
26471SOL     OW83454   2.734   8.625   2.577  0.5738  0.1249 -0.0155
26471SOL    HW183455   2.660   8.606   2.520 -0.6174 -2.7198  2.2358
26471SOL    HW283456   2.802   8.658   2.518 -1.1834 -0.8024 -2.7340
26472SOL     OW83457   8.671   9.402   1.900  0.9607  0.3491 -0.2781
26472SOL    HW183458   8.594   9.458   1.909  1.3329  0.6679  1.0895
26472SOL    HW283459   8.652   9.348   1.822 -1.2077 -0.4692  0.7164
26473SOL     OW83460   9.893   0.984   7.750  0.5753 -0.0377 -0.0172
26473SOL    HW183461   9.845   1.038   7.687  0.1653  2.5357  2.3332
26473SOL    HW283462   9.984   0.986   7.719  0.4880  1.6585 -0.2345
26474SOL     OW83463   8.070   4.525   6.945 -0.3702 -0.1101  0.0268
26474SOL    HW183464   7.990   4.518   6.893  0.7057 -0.6444 -1.6490
26474SOL    HW283465   8.049   4.482   7.028 -1.9094  0.0900 -0.2280
26475SOL     OW83466   5.397   2.928   6.365  0.5921  0.1925 -0.1691
26475SOL    HW183467   5.365   3.018   6.366 -0.3619 -0.1292 -0.3734
26475SOL    HW283468   5.343   2.884   6.299 -0.4194 -1.0371  1.3838
26476SOL     OW83469   5.888   3.319   9.518 -0.3908 -0.3658  0.1503
26476SOL    HW183470   5.971   3.275   9.496 -1.0033 -1.3458 -0.2809
26476SOL    HW283471   5.890   3.400   9.468  0.5636 -0.1007  0.5898
26477SOL     OW83472   0.260   5.342   7.556 -0.1747  0.4552 -0.1699
26477SOL    HW183473   0.171   5.325   7.523 -0.9076  0.3027  1.7177
26477SOL    HW283474   0.257   5.311   7.647  1.6565  0.9813  0.0994
26478SOL     OW83475   2.653   0.077   0.108  0.7758  0.8834  0.4734
26478SOL    HW183476   2.598   0.133   0.053  2.4603  2.1849  0.0181
26478SOL    HW283477   2.692   0.137   0.172  2.0423  0.1231  0.4555
26479SOL     OW83478   7.254   7.311   6.289 -0.4206  0.4442  0.1352
26479SOL    HW183479   7.316   7.367   6.243  1.9573 -1.1955  1.1604
26479SOL    HW283480   7.247   7.233   6.235  2.0419 -1.3001  2.1220
26480SOL     OW83481   6.833   1.125   4.378 -0.6586  0.4796  0.2688
26480SOL    HW183482   6.812   1.065   4.449  0.3326  2.0844  1.9796
26480SOL    HW283483   6.751   1.171   4.361 -0.8687  0.1685  0.4213
26481SOL     OW83484   8.933   0.352   9.731  0.3160 -0.2838 -0.4328
26481SOL    HW183485   8.978   0.352   9.646 -0.3532 -1.8640 -0.8251
26481SOL    HW283486   8.960   0.434   9.772  0.0209  0.9090 -2.4902
26482SOL     OW83487   1.951   9.694   4.609  0.0155 -0.2999 -0.1949
26482SOL    HW183488   1.923   9.671   4.698  0.5389  1.0032  0.3374
26482SOL    HW283489   1.927   9.619   4.556  0.7287 -1.5978  1.2457
26483SOL     OW83490   5.239   4.253   8.848  0.9939  0.1660 -0.4721
26483SOL    HW183491   5.218   4.219   8.761 -4.1062  1.7503 -0.2172
26483SOL    HW283492   5.266   4.344   8.832 -1.1902  0.8746 -0.5068
26484SOL     OW83493   3.166  10.235   4.562  0.6102  0.1747  0.1216
26484SOL    HW183494   3.235  10.290   4.523 -0.5584  0.6248 -1.4112
26484SOL    HW283495   3.095  10.238   4.499 -0.6129 -0.7587  1.3977
26485SOL     OW83496   3.015   1.585   7.458  0.5446 -0.0652 -0.4133
26485SOL    HW183497   2.973   1.602   7.542 -1.3225  2.2464 -1.7082
26485SOL    HW283498   2.977   1.503   7.429  0.4019 -0.3303  0.4753
26486SOL     OW83499   7.193   4.130   8.619  0.2949  0.2670 -0.1520
26486SOL    HW183500   7.132   4.204   8.623  0.5859  0.4822  2.8228
26486SOL    HW283501   7.157   4.067   8.682  0.4630 -1.8375 -2.0625
26487SOL     OW83502   9.178  10.276   4.494  0.1331 -0.0085  0.5231
26487SOL    HW183503   9.130  10.304   4.415  0.1276 -0.4202  0.3819
26487SOL    HW283504   9.248  10.221   4.461 -0.1609 -0.5795  0.8420
26488SOL     OW83505   6.682   1.322   3.223  0.1791 -0.2930  0.2364
26488SOL    HW183506   6.589   1.300   3.235  0.1302 -0.4323 -0.3283
26488SOL    HW283507   6.682   1.416   3.204  0.2120 -0.1737  0.8043
26489SOL     OW83508  10.050   8.135   9.604  0.1772  0.3201  0.2182
26489SOL    HW183509  10.112   8.208   9.604 -1.3082  1.6413 -0.4697
26489SOL    HW283510   9.966   8.175   9.628 -1.2304 -0.6117 -2.6482
26490SOL     OW83511   5.368   9.645   7.041  0.2858 -0.2388  0.4382
26490SOL    HW183512   5.451   9.691   7.055 -0.0002  0.1912  0.7069
26490SOL    HW283513   5.393   9.566   6.993  0.7234  0.4037 -0.4127
26491SOL     OW83514   8.830   8.022   5.023 -0.1980  0.3136  0.4097
26491SOL    HW183515   8.744   8.062   5.008  0.2556  0.3206 -3.0995
26491SOL    HW283516   8.891   8.096   5.023  0.0425  0.1155  0.4788
26492SOL     OW83517   5.169   1.771   9.831  0.7247  0.1836 -0.2279
26492SOL    HW183518   5.189   1.791   9.922 -1.4715  0.9717  0.1535
26492SOL    HW283519   5.202   1.682   9.817  1.6455  0.2918  1.1263
26493SOL     OW83520   3.012   6.965   6.691 -0.2490 -0.0045  0.3292
26493SOL    HW183521   3.018   6.998   6.602  1.1363  1.1826  0.8100
26493SOL    HW283522   3.032   7.041   6.746  0.2745 -1.0063  1.5936
26494SOL     OW83523   0.910   0.147   5.742 -0.4595  0.8307  0.6758
26494SOL    HW183524   0.867   0.095   5.809 -1.2369 -1.4469 -1.4627
26494SOL    HW283525   0.990   0.100   5.722 -1.3491  0.1346 -1.5540
26495SOL     OW83526   0.472   8.623   5.852 -0.1221 -0.4668  0.2702
26495SOL    HW183527   0.533   8.550   5.858  0.1168 -0.3626 -0.7299
26495SOL    HW283528   0.528   8.701   5.859 -0.3891 -0.3579  1.4786
26496SOL     OW83529   6.018   1.233   1.409 -0.1763  0.3129 -0.2905
26496SOL    HW183530   6.018   1.324   1.378 -1.5339  0.4894  0.1409
26496SOL    HW283531   5.931   1.221   1.446  0.4957 -0.7036  1.0511
26497SOL     OW83532   6.258   4.145   9.880  0.2485 -0.0193 -0.2812
26497SOL    HW183533   6.263   4.062   9.832  1.1222 -0.0875 -0.0793
26497SOL    HW283534   6.309   4.130   9.960 -0.7455  0.2655  0.4342
26498SOL     OW83535   7.712   2.714   3.893 -0.7404  0.1785  0.4572
26498SOL    HW183536   7.776   2.645   3.874 -2.9342 -2.1098  0.6679
26498SOL    HW283537   7.744   2.755   3.974 -0.3807 -2.0861  1.5508
26499SOL     OW83538   4.461   9.752   0.054  0.3236 -0.7003  0.7310
26499SOL    HW183539   4.429   9.754   0.144  0.3396 -2.2007  0.7882
26499SOL    HW283540   4.524   9.680   0.052 -0.2002 -1.1428 -0.6470
26500SOL     OW83541   7.438   4.449   0.104  0.1348  0.3215  0.0357
26500SOL    HW183542   7.395   4.470   0.021 -0.5403  0.6691  0.4669
26500SOL    HW283543   7.509   4.512   0.111 -1.4058  2.0663  0.9554
26501SOL     OW83544   5.311   4.244   1.763 -0.4491 -0.3579  0.2866
26501SOL    HW183545   5.368   4.302   1.712 -0.1787  1.3567  2.3604
26501SOL    HW283546   5.224   4.282   1.755 -0.5271 -0.4892  0.4982
26502SOL     OW83547   2.612   7.304   7.168  0.5403 -0.3996  0.5713
26502SOL    HW183548   2.523   7.279   7.195  0.2098  0.6271  0.4575
26502SOL    HW283549   2.599   7.368   7.098  1.3096  1.7820  2.3247
26503SOL     OW83550   0.655   4.228   4.800 -0.6282  0.4098 -0.9296
26503SOL    HW183551   0.654   4.291   4.728  1.9257  2.1826  0.4222
26503SOL    HW283552   0.607   4.272   4.871 -0.2491  0.1519 -0.5047
26504SOL     OW83553   7.517   1.847   5.952  0.8183  0.0669 -0.2404
26504SOL    HW183554   7.595   1.902   5.963 -0.5499  2.0370  0.1418
26504SOL    HW283555   7.457   1.900   5.900 -0.8450 -0.7550  0.7458
26505SOL     OW83556   8.803  10.021   2.477  0.2627  0.4081 -0.6277
26505SOL    HW183557   8.791   9.928   2.496  1.0370  0.5241  0.5903
26505SOL    HW283558   8.860  10.052   2.547 -1.0462  2.0955 -0.2218
26506SOL     OW83559   9.029   9.808   9.346 -0.4731 -0.4363  0.2951
26506SOL    HW183560   9.034   9.714   9.326  0.9009 -0.4241  0.5167
26506SOL    HW283561   9.003   9.848   9.263 -0.0967 -0.9174 -0.0623
26507SOL     OW83562   7.204   3.560   4.273  0.0126 -0.2093  0.1394
26507SOL    HW183563   7.112   3.571   4.248  0.4140  2.9035 -0.4001
26507SOL    HW283564   7.243   3.510   4.201 -0.6313  1.1860 -1.2264
26508SOL     OW83565   9.350   1.498   2.268 -0.2370  0.0530 -0.2875
26508SOL    HW183566   9.408   1.528   2.338  0.2002 -0.7629 -0.2950
26508SOL    HW283567   9.386   1.537   2.189 -0.1269  0.1345 -0.1969
26509SOL     OW83568   3.130   7.998   2.812 -0.1168 -0.3802 -0.0478
26509SOL    HW183569   3.193   7.960   2.750  1.7586  1.1159  0.8158
26509SOL    HW283570   3.075   8.054   2.758  1.6239  1.0693 -0.4270
26510SOL     OW83571   4.533   3.642   3.114  0.2511 -0.0863 -0.8661
26510SOL    HW183572   4.621   3.680   3.112  0.2154 -0.0252 -1.5921
26510SOL    HW283573   4.538   3.573   3.180  0.1590  1.5682  0.9588
26511SOL     OW83574   9.950   5.277   0.304 -0.8190 -0.5247  0.6842
26511SOL    HW183575   9.854   5.277   0.305 -0.8628 -2.9565  0.7861
26511SOL    HW283576   9.975   5.185   0.302  1.5401  0.0531  0.1227
26512SOL     OW83577   7.248   8.811   1.882 -0.3819 -0.1117 -0.3123
26512SOL    HW183578   7.278   8.902   1.886  0.1342 -0.2294 -1.2003
26512SOL    HW283579   7.217   8.792   1.970  2.6533 -0.1524  0.8531
26513SOL     OW83580   4.825   4.816   1.957  0.1324 -0.4289  0.0636
26513SOL    HW183581   4.845   4.902   1.996 -0.0285 -1.4810  2.6822
26513SOL    HW283582   4.844   4.827   1.864 -2.3384  3.1959 -0.2141
26514SOL     OW83583   8.039   5.923   1.146  0.0196  0.6199 -0.0634
26514SOL    HW183584   8.016   6.015   1.141 -1.9246  0.2462  1.0529
26514SOL    HW283585   7.971   5.878   1.096  0.6029 -0.2602 -0.0940
26515SOL     OW83586  10.294   5.947   1.964  0.1597  0.2555 -0.6154
26515SOL    HW183587  10.235   5.956   1.889 -0.0032  0.6329 -0.4409
26515SOL    HW283588  10.378   5.981   1.932  0.1973  0.0285 -0.7582
26516SOL     OW83589   8.405   4.908   5.314  0.3776  0.1145  0.0856
26516SOL    HW183590   8.379   4.918   5.406  1.3338 -1.4129  0.5635
26516SOL    HW283591   8.330   4.868   5.272  0.0841  0.4533  0.2755
26517SOL     OW83592   2.113   7.543   5.623 -0.2017  0.0824  0.2575
26517SOL    HW183593   2.132   7.595   5.546  2.4756 -0.2563  0.5967
26517SOL    HW283594   2.076   7.461   5.589 -0.9903  0.7260 -0.4809
26518SOL     OW83595   2.054   8.287   9.563  0.4816 -0.4509 -0.0769
26518SOL    HW183596   2.126   8.260   9.619  1.2963  2.3158  0.3525
26518SOL    HW283597   1.986   8.316   9.624 -0.5435 -1.8361 -0.5074
26519SOL     OW83598   2.017   8.140   2.702 -0.1757  0.1587  0.3610
26519SOL    HW183599   1.981   8.057   2.670 -1.0319  1.0976 -1.1951
26519SOL    HW283600   2.041   8.121   2.793 -0.4747 -1.7481  0.0894
26520SOL     OW83601   8.670   3.414   5.332  0.6201  1.1120 -0.5243
26520SOL    HW183602   8.686   3.380   5.421 -0.8261  1.0455 -0.2581
26520SOL    HW283603   8.699   3.344   5.274  1.7889  1.2423 -0.1192
26521SOL     OW83604   4.422   8.977   5.884 -0.0938 -0.0889 -0.3400
26521SOL    HW183605   4.408   8.882   5.881 -0.3043 -0.0327 -2.3531
26521SOL    HW283606   4.338   9.014   5.858 -0.1670  0.6968  0.9391
26522SOL     OW83607   4.821   6.528   5.123  0.3881  0.0184 -0.4760
26522SOL    HW183608   4.893   6.501   5.066  0.4761  1.0502 -0.8823
26522SOL    HW283609   4.829   6.471   5.200 -0.9019 -2.7372 -2.2290
26523SOL     OW83610   8.350   9.716   3.954 -0.0434 -0.0256  0.6278
26523SOL    HW183611   8.338   9.626   3.986  0.0796 -0.0941  0.4854
26523SOL    HW283612   8.315   9.771   4.023 -0.5664 -0.2010  0.5059
26524SOL     OW83613   7.577   2.595   5.681  0.1715  0.2587 -0.0785
26524SOL    HW183614   7.546   2.643   5.605 -0.1604 -0.2754 -0.2870
26524SOL    HW283615   7.515   2.617   5.750  0.2264  0.4088 -0.0773
26525SOL     OW83616   5.188   5.529   3.931  0.1193 -0.8004 -0.7202
26525SOL    HW183617   5.181   5.455   3.992 -2.6856 -0.1846 -0.1216
26525SOL    HW283618   5.242   5.593   3.977  0.7274 -1.5992 -0.2912
26526SOL     OW83619  10.040   8.104   5.999  0.0411  0.3984 -0.6027
26526SOL    HW183620  10.057   8.195   6.021 -0.5929  0.6096 -0.9796
26526SOL    HW283621   9.965   8.106   5.939 -0.0817 -0.3763 -0.4951
26527SOL     OW83622   8.215   1.464   2.610  0.0086 -0.1278 -0.1146
26527SOL    HW183623   8.294   1.466   2.556 -0.0513 -0.6316 -0.2215
26527SOL    HW283624   8.213   1.375   2.646  0.7418  0.5637  1.7450
26528SOL     OW83625   0.547   6.238   0.613  0.0189  0.4991 -0.1785
26528SOL    HW183626   0.483   6.308   0.599 -1.2850 -0.6692 -0.3108
26528SOL    HW283627   0.561   6.202   0.525 -0.7298 -0.5605  0.1154
26529SOL     OW83628   7.863   8.486   3.567 -0.0057 -0.0576  0.3022
26529SOL    HW183629   7.793   8.545   3.540 -1.5920 -2.4580 -1.2037
26529SOL    HW283630   7.927   8.491   3.496  0.5970  0.9058  0.8920
26530SOL     OW83631   4.285   6.673   0.890  0.0889 -0.3995 -0.0327
26530SOL    HW183632   4.282   6.647   0.982  1.4154  0.8151  0.3787
26530SOL    HW283633   4.198   6.709   0.873  0.4683  1.3208  1.3773
26531SOL     OW83634   8.714   7.854   9.224  0.2456 -0.1552  0.4061
26531SOL    HW183635   8.756   7.802   9.292 -0.8185  1.3518  2.3164
26531SOL    HW283636   8.700   7.792   9.152  0.7652 -2.0052  1.8045
26532SOL     OW83637   6.528   5.437   0.479 -0.3070 -0.4038  0.2347
26532SOL    HW183638   6.509   5.513   0.424  1.7127 -2.4049 -3.6023
26532SOL    HW283639   6.583   5.472   0.549 -0.4149  1.8440 -0.7128
26533SOL     OW83640   7.140   2.284   7.546  0.1296 -0.1762  0.3992
26533SOL    HW183641   7.106   2.201   7.512 -0.0470 -0.2863  0.8396
26533SOL    HW283642   7.203   2.259   7.614  0.0811  0.0494  0.5300
26534SOL     OW83643   0.578   9.906   9.197 -0.3110 -0.0253 -0.3934
26534SOL    HW183644   0.545   9.816   9.186 -2.5002  0.6552  0.0666
26534SOL    HW283645   0.572   9.944   9.109 -1.3791  0.2591 -0.2161
26535SOL     OW83646   1.658   6.423   9.847 -0.2278  0.2065 -0.2104
26535SOL    HW183647   1.605   6.372   9.908  0.4219  0.9065  0.9802
26535SOL    HW283648   1.744   6.382   9.850 -0.1403  0.3676 -0.4963
26536SOL     OW83649   0.610   9.559   7.617  0.2151 -0.4569 -0.2015
26536SOL    HW183650   0.523   9.518   7.614 -0.4636  0.9235 -0.1783
26536SOL    HW283651   0.629   9.568   7.710  0.2167 -0.4366 -0.2039
26537SOL     OW83652   8.181   9.070   8.088 -0.4045  0.1011 -0.4269
26537SOL    HW183653   8.228   9.128   8.147  1.3349 -0.8979 -0.7895
26537SOL    HW283654   8.112   9.031   8.142  1.2110 -0.8857  0.9898
26538SOL     OW83655   2.734  10.162   2.259 -0.3595 -0.4142 -0.9475
26538SOL    HW183656   2.662  10.223   2.271 -0.2465 -0.2947 -0.8776
26538SOL    HW283657   2.701  10.079   2.294 -0.0930 -0.1128  0.0569
26539SOL     OW83658   0.770   9.614   7.057  0.1827  0.6553  0.6356
26539SOL    HW183659   0.854   9.623   7.012 -0.6392  3.6694 -0.4976
26539SOL    HW283660   0.780   9.665   7.137 -0.8191  1.8860  0.0143
26540SOL     OW83661   2.039   6.476   1.872  0.4138 -0.2041 -0.7354
26540SOL    HW183662   2.053   6.381   1.883 -0.8707 -0.1503  2.4887
26540SOL    HW283663   1.962   6.482   1.815  0.4015 -1.1114 -0.8383
26541SOL     OW83664   0.206   8.832  10.015 -0.1992 -0.3239 -0.3252
26541SOL    HW183665   0.190   8.738  10.013  0.9473 -0.6034  1.3931
26541SOL    HW283666   0.119   8.871  10.021 -0.6437 -1.3739  0.4911
26542SOL     OW83667   7.051   9.639   7.346 -0.2264 -0.2858 -0.3133
26542SOL    HW183668   7.116   9.657   7.278  0.7501  0.7436  0.8514
26542SOL    HW283669   6.981   9.703   7.330 -0.4582 -0.6663 -0.8877
26543SOL     OW83670   6.937   7.155   3.687  0.1738  0.4949 -0.2428
26543SOL    HW183671   6.980   7.090   3.631 -2.5027 -2.2311  0.5519
26543SOL    HW283672   6.986   7.151   3.769  0.4375 -0.0525 -0.4163
26544SOL     OW83673   0.292   1.138   4.906  0.1835  0.2455  0.4614
26544SOL    HW183674   0.354   1.096   4.966 -0.6982  0.5273  1.5840
26544SOL    HW283675   0.316   1.230   4.908 -0.2110  0.3397  0.8203
26545SOL     OW83676   2.718   6.368   2.893  0.5272  0.1140  0.3295
26545SOL    HW183677   2.810   6.352   2.914  0.2007 -0.0905  1.7123
26545SOL    HW283678   2.669   6.311   2.953 -0.5061 -1.4233 -1.8427
26546SOL     OW83679   1.215   2.735   3.651 -0.3225  0.5139 -0.0783
26546SOL    HW183680   1.236   2.654   3.697 -2.5983  1.2695  2.5567
26546SOL    HW283681   1.185   2.706   3.565  0.2527 -1.3174  0.2843
26547SOL     OW83682   7.361   1.779   7.650  0.1698 -0.0664  0.9700
26547SOL    HW183683   7.411   1.827   7.716 -0.1541  0.2520  0.9901
26547SOL    HW283684   7.278   1.759   7.694 -1.3250  2.8047 -0.2504
26548SOL     OW83685   7.079   6.938   1.521 -0.0025  0.3163  0.0164
26548SOL    HW183686   7.170   6.911   1.537  0.0654  0.1147 -0.6670
26548SOL    HW283687   7.027   6.862   1.546  0.0018  0.4678  0.5049
26549SOL     OW83688   6.585   3.254   4.450 -0.5496  0.9717 -0.6134
26549SOL    HW183689   6.599   3.295   4.365  0.4668  2.3452  0.1658
26549SOL    HW283690   6.629   3.312   4.512  0.7349 -1.1809  0.6180
26550SOL     OW83691   5.553   3.397   5.159 -0.5406 -0.8483 -0.1051
26550SOL    HW183692   5.473   3.440   5.189 -0.6084 -1.4257  0.5816
26550SOL    HW283693   5.540   3.385   5.065 -1.2998 -1.0051  0.0102
26551SOL     OW83694   0.559   2.246   7.902  0.4535 -0.0933  0.3006
26551SOL    HW183695   0.479   2.283   7.865 -2.5244 -4.7093  1.3081
26551SOL    HW283696   0.589   2.183   7.837  0.6580 -1.5451  1.7495
26552SOL     OW83697   8.267   9.788   7.238  0.4217  0.4016 -0.2838
26552SOL    HW183698   8.177   9.792   7.271  0.8274  0.6816  0.8234
26552SOL    HW283699   8.261   9.820   7.148 -0.6440  0.0380 -0.3585
26553SOL     OW83700   4.511   2.553   3.753 -0.1313  0.0825  0.3277
26553SOL    HW183701   4.433   2.552   3.807 -0.7002  0.4441 -0.4589
26553SOL    HW283702   4.538   2.462   3.746  0.1034  0.0568  1.4114
26554SOL     OW83703   7.537   1.475   1.119  0.1321 -0.2322 -0.2691
26554SOL    HW183704   7.602   1.494   1.051  1.0345 -1.0971  0.3145
26554SOL    HW283705   7.468   1.426   1.074  0.9347 -1.1891 -0.4914
26555SOL     OW83706   4.367   8.720   7.945 -0.0723  0.2903 -0.1604
26555SOL    HW183707   4.343   8.799   7.897 -0.8923  0.5939  0.7302
26555SOL    HW283708   4.289   8.696   7.994 -0.0026 -1.3616 -0.7685
26556SOL     OW83709   6.579   6.933   1.776 -0.2526  0.2027 -0.1244
26556SOL    HW183710   6.636   6.943   1.852 -2.1268 -0.4536  1.4428
26556SOL    HW283711   6.499   6.893   1.811 -0.8590 -0.9236 -2.5975
26557SOL     OW83712   5.970  10.059   0.245 -0.5192 -0.0845  0.0680
26557SOL    HW183713   6.065  10.057   0.232 -0.0169 -0.6830  3.0262
26557SOL    HW283714   5.933  10.065   0.157  2.2807  2.4340 -1.0795
26558SOL     OW83715   2.370   1.312   0.278  0.0788 -0.1365 -0.2481
26558SOL    HW183716   2.291   1.364   0.296  0.1552 -0.5204  1.3733
26558SOL    HW283717   2.360   1.283   0.188 -1.0093  0.9000 -0.4828
26559SOL     OW83718   1.833   5.966   1.835  0.6134  0.2456  0.2173
26559SOL    HW183719   1.818   5.891   1.893 -0.4673  0.1571 -0.1553
26559SOL    HW283720   1.842   5.927   1.748  2.9209  0.3093  0.3544
26560SOL     OW83721  10.120   6.088   8.769 -0.4562  0.2263  0.2177
26560SOL    HW183722  10.079   6.174   8.762  0.0072  0.3710 -0.7688
26560SOL    HW283723  10.188   6.088   8.703 -0.4904 -0.9265  0.1672
26561SOL     OW83724   0.924   3.014   2.770  0.3665 -0.1010  0.6291
26561SOL    HW183725   0.857   2.946   2.773 -0.6366  0.6068 -2.1280
26561SOL    HW283726   0.946   3.031   2.861 -2.0366 -1.5099  1.5616
26562SOL     OW83727   4.174   1.136   0.478 -0.4637  0.2173 -0.4494
26562SOL    HW183728   4.258   1.112   0.519 -0.7319  1.6343  1.0511
26562SOL    HW283729   4.149   1.059   0.429  1.2349 -0.6145 -0.1026
26563SOL     OW83730   2.906   0.107   3.669 -0.4374  0.4503 -0.5253
26563SOL    HW183731   2.845   0.141   3.602  1.1574  1.0783 -1.7256
26563SOL    HW283732   2.977   0.172   3.671  0.7442 -0.8206  0.0086
26564SOL     OW83733   4.661   9.048   8.901 -0.2253  0.0047 -0.3023
26564SOL    HW183734   4.592   9.080   8.843 -1.2577 -0.8553  0.4078
26564SOL    HW283735   4.661   8.953   8.888 -0.7184 -0.2477  1.3489
26565SOL     OW83736   8.082   3.346   3.383  0.3312 -0.0303 -0.4741
26565SOL    HW183737   7.999   3.338   3.336 -0.0683  0.9004  0.0508
26565SOL    HW283738   8.134   3.271   3.353 -1.7696 -2.4063  1.3720
26566SOL     OW83739   8.127   7.013   8.832 -0.7579 -0.0412 -0.2445
26566SOL    HW183740   8.034   7.011   8.806 -1.1238  1.1753  0.8884
26566SOL    HW283741   8.175   6.997   8.750 -1.9590 -1.1830 -0.7672
26567SOL     OW83742   5.030   5.556   7.091 -0.1018  0.3198 -0.3128
26567SOL    HW183743   5.070   5.516   7.013 -1.0818 -0.3842 -0.4772
26567SOL    HW283744   4.960   5.610   7.056 -0.0735  0.5861  0.0453
26568SOL     OW83745   3.514   1.892   1.840  0.3729 -0.1769 -0.3204
26568SOL    HW183746   3.548   1.803   1.846  2.1810  0.2929 -2.2590
26568SOL    HW283747   3.570   1.935   1.775 -0.0365  2.5618  0.9669
26569SOL     OW83748   3.033   0.843   4.870 -0.6198  0.2651  0.4164
26569SOL    HW183749   3.033   0.761   4.820  0.3246  0.2652  0.4021
26569SOL    HW283750   3.107   0.892   4.835 -1.4322  1.3325  0.1153
26570SOL     OW83751   7.711   9.490   7.327  0.2454  0.0140  0.1394
26570SOL    HW183752   7.748   9.423   7.269  0.4282 -1.1469  1.5425
26570SOL    HW283753   7.750   9.572   7.297  1.0326 -0.6859 -0.8054
26571SOL     OW83754   2.930   8.747   7.902 -0.3018  0.1054  0.2961
26571SOL    HW183755   2.949   8.833   7.864 -1.9279 -0.5352 -2.1216
26571SOL    HW283756   3.004   8.693   7.876  0.4284  0.5831  1.3095
26572SOL     OW83757   5.871   0.819   4.703  0.2526  0.0265  0.3920
26572SOL    HW183758   5.891   0.911   4.718  0.2602 -0.1293  1.3798
26572SOL    HW283759   5.789   0.821   4.653  0.8271  0.5804 -0.5576
26573SOL     OW83760   8.923   0.383   5.683  0.1104  0.1557  0.7235
26573SOL    HW183761   8.859   0.440   5.727  0.1723  0.6873  0.1328
26573SOL    HW283762   8.871   0.309   5.652 -0.2863  0.7264 -0.0096
26574SOL     OW83763  10.230   9.991  10.159  0.4263 -0.0418 -0.1543
26574SOL    HW183764  10.287  10.020  10.088 -0.2753  1.0589 -0.2872
26574SOL    HW283765  10.192  10.072  10.195 -0.7291 -0.7113  0.1936
26575SOL     OW83766   6.862   7.529   9.122 -0.5180 -0.4517 -0.2322
26575SOL    HW183767   6.772   7.531   9.154 -0.1758 -0.2854  0.7616
26575SOL    HW283768   6.916   7.517   9.201  0.3244 -0.6485 -0.8172
26576SOL     OW83769   1.601  10.181   5.480 -0.0769  0.1597 -0.1081
26576SOL    HW183770   1.624  10.095   5.444 -1.5042 -0.7189  0.9757
26576SOL    HW283771   1.546  10.220   5.412 -0.0676 -0.1172 -0.2791
26577SOL     OW83772   9.247   0.931   3.900  0.3680 -0.1007 -0.4564
26577SOL    HW183773   9.247   0.874   3.823 -0.9606 -0.4641 -0.2154
26577SOL    HW283774   9.165   0.910   3.945  0.2560  1.4181  0.0887
26578SOL     OW83775   7.037   4.007   5.584 -0.3475 -0.4789  0.0459
26578SOL    HW183776   7.061   3.995   5.491 -1.7609 -0.4717 -0.3420
26578SOL    HW283777   7.063   3.924   5.625  0.1943 -0.5262 -0.3709
26579SOL     OW83778   2.848   9.010   6.180  0.0254  0.3485  0.3999
26579SOL    HW183779   2.770   9.003   6.125 -1.3702  1.2606  2.1848
26579SOL    HW283780   2.842   8.936   6.241 -0.6757  1.6554  1.9885
26580SOL     OW83781   2.300   5.065   2.049 -0.2402 -0.0835 -0.7934
26580SOL    HW183782   2.302   4.998   1.980  0.8450  2.1521 -3.1026
26580SOL    HW283783   2.386   5.058   2.090 -1.8478 -3.3810  2.6031
26581SOL     OW83784   1.244   3.174   0.968  0.2429  0.6371  0.2202
26581SOL    HW183785   1.227   3.218   1.051  0.8307 -0.8217  1.1467
26581SOL    HW283786   1.209   3.086   0.979  1.4950 -0.0009 -0.5869
26582SOL     OW83787   8.773   1.319   0.117 -0.6286 -0.5472  0.1083
26582SOL    HW183788   8.843   1.254   0.118 -1.1291 -1.0794  0.6541
26582SOL    HW283789   8.700   1.275   0.074 -0.6696 -0.0213 -0.3795
26583SOL     OW83790   2.458   8.479   3.913  0.2532 -0.4498 -0.0897
26583SOL    HW183791   2.517   8.442   3.848  0.4306  1.9974 -1.4518
26583SOL    HW283792   2.487   8.569   3.923 -0.7927 -0.3047  2.2259
26584SOL     OW83793   8.536   1.244   0.978  0.3121 -0.1593 -0.3411
26584SOL    HW183794   8.442   1.233   0.994  0.2212  0.3203 -0.5160
26584SOL    HW283795   8.545   1.242   0.882  0.2422  1.4603 -0.4148
26585SOL     OW83796   8.943   3.154   8.068  0.4749 -0.1720  0.3100
26585SOL    HW183797   9.000   3.167   7.993 -1.1799  0.8832 -0.8441
26585SOL    HW283798   8.918   3.243   8.095 -2.2346 -0.5512 -0.6087
26586SOL     OW83799   2.348   4.268   3.047  0.1690 -0.8220 -0.3380
26586SOL    HW183800   2.350   4.351   3.096  1.3702 -0.5817 -0.7661
26586SOL    HW283801   2.437   4.256   3.017 -0.2087 -1.7954 -1.1167
26587SOL     OW83802   7.227   6.500   9.082  0.0954  0.1304 -0.2431
26587SOL    HW183803   7.262   6.496   9.171  1.5559  0.3126 -0.7927
26587SOL    HW283804   7.303   6.511   9.026 -0.9320  2.1046 -1.3706
26588SOL     OW83805   6.195   2.525   2.097 -0.4119  0.4148 -0.0207
26588SOL    HW183806   6.184   2.470   2.019 -1.1884  0.2694  0.1869
26588SOL    HW283807   6.109   2.526   2.138 -0.2793  1.3849  0.2542
26589SOL     OW83808   6.151   1.950   1.772 -0.8481  0.4983  0.1727
26589SOL    HW183809   6.075   1.998   1.738 -0.5494 -0.4087 -1.8671
26589SOL    HW283810   6.117   1.863   1.793 -0.7871  0.7138  1.2070
26590SOL     OW83811   3.019   8.438   4.580 -0.0899 -0.1489 -0.3058
26590SOL    HW183812   3.108   8.455   4.551 -0.5698  1.5559 -0.8835
26590SOL    HW283813   2.982   8.382   4.512  0.2028  0.0403 -0.6238
26591SOL     OW83814   6.136   0.822   3.783  0.4623  0.1670 -0.0746
26591SOL    HW183815   6.185   0.754   3.829  0.3576 -1.4027 -2.1408
26591SOL    HW283816   6.082   0.863   3.850  0.1613 -2.1320  1.1623
26592SOL     OW83817   0.319   3.049   2.092 -0.3189 -0.1220 -0.0875
26592SOL    HW183818   0.306   3.143   2.077  1.4838  0.1755  0.0229
26592SOL    HW283819   0.410   3.042   2.120 -0.5005 -1.8915  0.1354
26593SOL     OW83820  10.087   1.406   3.101 -0.7042  0.2770  0.0255
26593SOL    HW183821  10.043   1.375   3.021 -3.4393 -0.6893  1.7528
26593SOL    HW283822  10.068   1.500   3.104 -0.0981  0.4340 -0.7113
26594SOL     OW83823   5.784   4.548   5.462 -0.1616  0.0399 -0.0071
26594SOL    HW183824   5.740   4.586   5.386  0.1771 -1.0182 -0.7581
26594SOL    HW283825   5.744   4.462   5.473 -0.5433  0.3628  1.3299
26595SOL     OW83826   9.243   1.408   1.072 -0.2553  0.5333 -0.2861
26595SOL    HW183827   9.157   1.366   1.064  1.4020 -3.2900 -0.4609
26595SOL    HW283828   9.257   1.449   0.986 -0.5655 -1.9252 -1.6286
26596SOL     OW83829   6.061   9.766   5.935  0.1608 -0.4434  0.4445
26596SOL    HW183830   6.119   9.700   5.973  0.2657  0.1749  1.3854
26596SOL    HW283831   5.974   9.726   5.941  0.3160 -0.8198  0.2627
26597SOL     OW83832   6.879   3.106   1.589 -0.3332 -0.1190  0.2686
26597SOL    HW183833   6.822   3.174   1.625 -1.2065 -0.7344  0.0780
26597SOL    HW283834   6.962   3.117   1.635 -0.1462  1.6818 -0.4155
26598SOL     OW83835   2.257   5.027   7.188 -0.5020  0.0328  0.2175
26598SOL    HW183836   2.335   5.053   7.237  1.5421 -2.0026 -1.6711
26598SOL    HW283837   2.274   5.059   7.099 -0.3255 -2.9102 -0.9145
26599SOL     OW83838   5.147   5.020   6.589 -0.3296 -0.5906  0.5056
26599SOL    HW183839   5.214   5.088   6.593 -0.9402  0.2738 -2.0211
26599SOL    HW283840   5.085   5.044   6.657 -0.2196  1.0827  0.0622
26600SOL     OW83841   3.351   0.249   7.776  0.5079  0.1521 -0.0201
26600SOL    HW183842   3.366   0.343   7.770  0.2917  0.3285  1.8285
26600SOL    HW283843   3.270   0.235   7.728  0.3654  0.9552 -0.0268
26601SOL     OW83844   9.600   3.956   0.668 -0.1477 -0.1788  0.1477
26601SOL    HW183845   9.684   3.992   0.699  0.2472 -1.5662  0.7506
26601SOL    HW283846   9.621   3.914   0.585 -0.4934  0.4343 -0.2618
26602SOL     OW83847   7.766   4.046   7.846 -0.4442  0.1863 -0.2566
26602SOL    HW183848   7.691   4.072   7.793 -0.3559  3.3473  0.9723
26602SOL    HW283849   7.729   3.990   7.914 -1.6160  1.1420 -0.0733
26603SOL     OW83850   6.366   0.083   4.066 -0.5877  0.0564 -0.4697
26603SOL    HW183851   6.444   0.033   4.042 -0.7147 -0.8655  0.9151
26603SOL    HW283852   6.399   0.154   4.122 -0.5664  0.7278 -1.3098
26604SOL     OW83853   9.290   6.054   7.954 -0.1788 -0.7726 -0.1292
26604SOL    HW183854   9.294   6.136   7.905  1.4006 -0.9316 -0.3253
26604SOL    HW283855   9.368   6.006   7.926 -0.9811 -2.2722  0.1137
26605SOL     OW83856   8.601   4.354   4.046  0.0310 -0.3932 -0.0135
26605SOL    HW183857   8.654   4.344   4.125 -1.6939 -1.0083  1.1195
26605SOL    HW283858   8.617   4.444   4.017  0.2362  0.0463  1.3866
26606SOL     OW83859   3.061   6.285   0.978 -0.1090 -0.1185 -0.3484
26606SOL    HW183860   3.113   6.352   1.024  0.8879 -1.4825  0.6104
26606SOL    HW283861   3.003   6.335   0.921  2.4362  1.5474 -1.7290
26607SOL     OW83862   7.623   6.306   7.633  0.2080 -0.2726 -0.3733
26607SOL    HW183863   7.573   6.361   7.694  0.4099 -0.6536  0.1482
26607SOL    HW283864   7.618   6.352   7.549 -1.7803 -0.7469 -0.5683
26608SOL     OW83865   2.791   5.569   7.638  0.2845 -0.0420 -0.0184
26608SOL    HW183866   2.743   5.622   7.702 -1.3102  0.4682 -1.5364
26608SOL    HW283867   2.758   5.598   7.554  1.3042 -1.6440 -1.0293
26609SOL     OW83868   8.738   7.578   3.386 -0.1419 -0.3074 -0.4279
26609SOL    HW183869   8.741   7.582   3.482  0.2487  0.4124 -0.4613
26609SOL    HW283870   8.732   7.669   3.359  0.4826 -0.4590 -1.1072
26610SOL     OW83871   0.591   5.014   0.555  0.2186 -1.1548  0.2386
26610SOL    HW183872   0.545   5.070   0.618  1.1597 -2.1561  1.8987
26610SOL    HW283873   0.522   4.977   0.501 -0.3533  2.5671 -1.8552
26611SOL     OW83874   1.560   8.355   6.431 -0.0932  0.3533 -0.1696
26611SOL    HW183875   1.523   8.368   6.519  2.1040  3.7955  0.4434
26611SOL    HW283876   1.491   8.385   6.372 -0.2125  1.8562  0.6693
26612SOL     OW83877   5.892   7.333   7.966 -0.0459 -0.5041  0.2323
26612SOL    HW183878   5.971   7.372   7.926 -1.0369  0.1882 -1.1499
26612SOL    HW283879   5.831   7.323   7.893 -2.3432  1.7540  1.6627
26613SOL     OW83880   3.424   3.899   9.825 -0.1573  0.1378 -0.2732
26613SOL    HW183881   3.331   3.883   9.811 -0.4098  0.8003  0.5831
26613SOL    HW283882   3.432   3.913   9.919  0.8466 -0.1389 -0.3053
26614SOL     OW83883   4.047   7.989   7.435  0.2273  0.3735  0.0975
26614SOL    HW183884   4.049   7.976   7.530  1.7255 -0.1665  0.0049
26614SOL    HW283885   4.004   7.911   7.401  0.7619  0.0170  0.2433
26615SOL     OW83886   5.060   2.510   9.221 -0.0871  0.3737 -0.1212
26615SOL    HW183887   5.015   2.528   9.138 -0.0759  0.0952 -0.1856
26615SOL    HW283888   5.139   2.563   9.217  0.8412 -1.0228 -1.0825
26616SOL     OW83889   5.917   3.251   8.596  0.0552 -0.5085 -0.1845
26616SOL    HW183890   5.908   3.224   8.504  1.1757  0.2757 -0.5487
26616SOL    HW283891   5.965   3.179   8.637 -0.3949 -0.8343 -0.2136
26617SOL     OW83892   5.171   0.899   4.145  0.2069  0.0137  0.0332
26617SOL    HW183893   5.119   0.866   4.219 -1.2289 -0.4045 -1.1120
26617SOL    HW283894   5.205   0.983   4.176  0.8560 -0.7989  1.6769
26618SOL     OW83895   0.363   9.656   5.342  0.0010  0.3369  0.0554
26618SOL    HW183896   0.421   9.685   5.272 -0.7260  0.3668 -0.5559
26618SOL    HW283897   0.325   9.737   5.376 -0.7571  0.2424 -0.5222
26619SOL     OW83898   0.383   8.785   3.225  0.4186 -0.3588 -0.2339
26619SOL    HW183899   0.472   8.798   3.257 -0.2441 -1.3565  2.2339
26619SOL    HW283900   0.346   8.874   3.220  0.9871 -0.0601  0.5997
26620SOL     OW83901   9.232   7.156   0.845 -0.4245 -0.1848 -0.6822
26620SOL    HW183902   9.209   7.080   0.898 -0.1498  0.5866  0.5810
26620SOL    HW283903   9.327   7.153   0.838 -0.5346 -0.9334 -2.1626
26621SOL     OW83904  10.087   1.727   1.779  0.1099 -0.1189 -0.2101
26621SOL    HW183905  10.005   1.762   1.812 -0.5114 -1.1790 -0.5729
26621SOL    HW283906  10.107   1.653   1.837  0.0777 -0.7200 -0.9490
26622SOL     OW83907   0.257   3.931   3.605 -0.0533  0.3318  0.1727
26622SOL    HW183908   0.233   3.852   3.653 -1.0272  1.6773  2.0920
26622SOL    HW283909   0.347   3.917   3.576 -0.5126 -1.7935 -0.3331
26623SOL     OW83910   7.889   2.057   3.389  0.2988 -0.2789 -0.1277
26623SOL    HW183911   7.845   2.000   3.452 -2.0336  0.3787 -1.0481
26623SOL    HW283912   7.911   2.000   3.316  1.1589 -0.6355  0.3888
26624SOL     OW83913   9.850   1.058   8.971 -0.6008 -0.2254 -0.1609
26624SOL    HW183914   9.802   1.103   9.041  0.0202  0.7360 -0.3321
26624SOL    HW283915   9.859   0.969   9.003  0.1121  0.3068  1.2335
26625SOL     OW83916   4.410   1.732   0.630  0.1668  0.3124  0.1114
26625SOL    HW183917   4.319   1.755   0.645 -0.3654 -1.2194 -0.6300
26625SOL    HW283918   4.458   1.781   0.697 -0.6574  4.6208 -2.1004
26626SOL     OW83919   3.041   9.068   0.098  0.1833 -0.1989 -1.1087
26626SOL    HW183920   3.002   9.130   0.160  1.5695  0.3053 -0.7032
26626SOL    HW283921   3.129   9.050   0.134  0.0538 -1.9125 -1.5618
26627SOL     OW83922   3.555   6.418   5.161 -0.0404 -0.2669  0.4820
26627SOL    HW183923   3.571   6.338   5.110  0.8618 -1.1777  2.0997
26627SOL    HW283924   3.478   6.457   5.121  1.4040 -0.1535 -2.4491
26628SOL     OW83925   9.768   0.970   4.445 -0.3638  0.2250 -0.0160
26628SOL    HW183926   9.756   0.990   4.538 -0.2192 -0.2765  0.1131
26628SOL    HW283927   9.687   0.998   4.403  0.5005  2.7705 -0.1273
26629SOL     OW83928   9.748   5.233   1.207  0.6282  0.1386 -0.1705
26629SOL    HW183929   9.712   5.233   1.295 -0.3245 -0.5418 -0.5401
26629SOL    HW283930   9.828   5.182   1.213 -0.0616 -0.9320  0.0666
26630SOL     OW83931   1.439   3.690   5.917 -0.8439  0.2165 -0.1645
26630SOL    HW183932   1.496   3.744   5.863 -0.0457 -0.9173 -0.4718
26630SOL    HW283933   1.446   3.729   6.005  1.3364 -0.5833  0.0668
26631SOL     OW83934   2.210   7.193   4.066  0.5899 -0.2428  0.4941
26631SOL    HW183935   2.131   7.225   4.023  0.2648 -0.3359  1.0126
26631SOL    HW283936   2.187   7.104   4.094  0.6243 -0.0018  1.3044
26632SOL     OW83937   7.721   8.739   8.563  0.2411 -0.1501 -0.4442
26632SOL    HW183938   7.644   8.782   8.526 -0.2958  1.4750  2.3188
26632SOL    HW283939   7.787   8.744   8.494 -1.2776  0.8677 -1.8933
26633SOL     OW83940   5.054   2.376   0.415  0.7260  0.0974 -0.0603
26633SOL    HW183941   5.010   2.388   0.499  1.8401  1.0176  0.4165
26633SOL    HW283942   5.133   2.326   0.435  1.9144  1.8117 -0.2258
26634SOL     OW83943   1.830   2.100   8.308  0.0468  0.1160  0.5089
26634SOL    HW183944   1.877   2.174   8.345 -0.0761  0.2129  0.4751
26634SOL    HW283945   1.738   2.117   8.330  0.0174 -0.0207  0.4926
26635SOL     OW83946   1.288   7.798   6.510  0.1330  0.6442 -0.7916
26635SOL    HW183947   1.367   7.787   6.563 -0.3085 -0.5022 -0.3272
26635SOL    HW283948   1.264   7.890   6.520  1.2450  0.9388 -0.7179
26636SOL     OW83949   9.798   6.862   7.464  0.4876 -0.0560 -0.5541
26636SOL    HW183950   9.884   6.867   7.505 -0.5254  0.9690  1.6460
26636SOL    HW283951   9.779   6.768   7.459 -0.3043 -0.3772  3.8882
26637SOL     OW83952   7.177   4.381   6.933  0.5134 -0.4180 -0.2749
26637SOL    HW183953   7.216   4.357   6.849 -1.0964  0.1437 -1.2380
26637SOL    HW283954   7.244   4.434   6.977  0.8961  0.4151 -1.7920
26638SOL     OW83955   6.243   1.661   2.078  0.1913  0.5728 -0.1647
26638SOL    HW183956   6.194   1.710   2.012 -2.0952  0.2106  1.1250
26638SOL    HW283957   6.193   1.580   2.090  1.9862 -0.5300  0.1829
26639SOL     OW83958   3.927   3.117   1.275  0.1182  0.1631  0.0441
26639SOL    HW183959   3.918   3.211   1.294 -1.3835  0.1739 -0.6037
26639SOL    HW283960   4.019   3.106   1.252  0.7229  1.1594  1.7782
26640SOL     OW83961   6.469   4.348   2.340  0.7280  0.2307  0.0442
26640SOL    HW183962   6.501   4.376   2.254 -2.6377  2.4909 -0.6539
26640SOL    HW283963   6.509   4.410   2.401  1.7877 -0.3210 -0.0622
26641SOL     OW83964   2.049   4.989   5.114 -0.0373  0.3930 -0.1471
26641SOL    HW183965   2.045   5.058   5.047  1.8586 -0.2016 -0.9480
26641SOL    HW283966   2.033   4.908   5.066  1.3727 -0.0452  0.0595
26642SOL     OW83967   5.577   4.909   4.701  0.6656  0.2306  0.4035
26642SOL    HW183968   5.528   4.844   4.650  0.3941  1.6306 -1.2066
26642SOL    HW283969   5.660   4.918   4.655  0.9480  0.5877  0.9739
26643SOL     OW83970   1.157   0.201   1.207 -0.0012  0.0849 -0.7125
26643SOL    HW183971   1.069   0.180   1.176 -0.4154  1.4507 -0.5187
26643SOL    HW283972   1.171   0.144   1.282 -0.3681 -0.7604 -1.2754
26644SOL     OW83973   9.587  10.200   9.951  0.1744 -0.1646 -0.1827
26644SOL    HW183974   9.583  10.116   9.905 -1.2837 -0.0306 -0.3654
26644SOL    HW283975   9.563  10.265   9.884 -3.1700 -0.0679  0.9152
26645SOL     OW83976   3.659   0.580   3.293 -0.1754 -0.3046 -0.1838
26645SOL    HW183977   3.680   0.500   3.245 -0.7947  0.3052 -1.5247
26645SOL    HW283978   3.565   0.576   3.306 -0.5841  1.1226 -2.1199
26646SOL     OW83979   2.327   9.312   2.949  0.0335 -0.2540 -0.0520
26646SOL    HW183980   2.409   9.350   2.917 -0.3522  0.7177  0.0959
26646SOL    HW283981   2.295   9.259   2.875  0.3439  0.0770 -0.4269
26647SOL     OW83982   5.474   7.881   0.539  0.3612 -0.1290  0.3715
26647SOL    HW183983   5.544   7.911   0.597 -1.5271  0.4600  2.4829
26647SOL    HW283984   5.497   7.789   0.521  1.8083  0.1230  0.7774
26648SOL     OW83985   5.922   1.215   8.530  0.0446  0.7876  0.3896
26648SOL    HW183986   5.983   1.174   8.592 -1.3447 -0.6820  0.8641
26648SOL    HW283987   5.978   1.258   8.466  1.5785 -0.2341  0.9798
26649SOL     OW83988   7.279   7.109   0.091 -0.6461  0.2013 -0.0756
26649SOL    HW183989   7.188   7.127   0.067 -0.9220  0.0799  0.8500
26649SOL    HW283990   7.285   7.013   0.092 -0.8440  0.1858  1.0332
26650SOL     OW83991   6.122   3.452   2.150 -0.0940  0.4735 -0.6587
26650SOL    HW183992   6.113   3.446   2.055 -1.8905  2.5223 -0.6763
26650SOL    HW283993   6.050   3.398   2.184  0.9927 -0.8792 -0.3813
26651SOL     OW83994   5.996   2.200   7.811  0.3141  0.4803  0.3096
26651SOL    HW183995   5.999   2.110   7.779 -2.2006  0.1048  0.8929
26651SOL    HW283996   6.055   2.201   7.886  1.4964 -0.2502 -0.5618
26652SOL     OW83997   1.709   0.709   8.947  0.5475 -0.1450 -0.4461
26652SOL    HW183998   1.665   0.644   8.892  2.8344 -1.7125 -0.5386
26652SOL    HW283999   1.716   0.667   9.032  1.3956  0.2873 -0.2979
26653SOL     OW84000   6.377   7.075   2.715 -0.3318  0.0718 -0.1661
26653SOL    HW184001   6.419   7.118   2.789  1.8806 -0.5158 -1.0132
26653SOL    HW284002   6.290   7.116   2.710  0.4011  1.9180  1.1712
26654SOL     OW84003   7.575   3.638   5.739 -0.1281 -0.2572 -0.2718
26654SOL    HW184004   7.647   3.576   5.735  0.5870  0.5706 -0.5473
26654SOL    HW284005   7.528   3.626   5.657  0.8604  0.5443 -0.9859
26655SOL     OW84006   8.150   3.992   0.585  0.3833 -0.3854 -0.0524
26655SOL    HW184007   8.230   3.942   0.566 -0.0881 -1.3684  0.4795
26655SOL    HW284008   8.145   4.057   0.515  2.0727  0.2109  0.3219
26656SOL     OW84009   0.928   0.280   8.015 -0.0998  0.1421 -0.4470
26656SOL    HW184010   0.977   0.211   7.971 -0.3686 -0.4541  0.1752
26656SOL    HW284011   0.837   0.253   8.011  0.0006 -0.7857  1.8879
26657SOL     OW84012   7.600   0.311   3.284  0.5655  0.2953 -0.0347
26657SOL    HW184013   7.679   0.257   3.292 -0.4427 -1.1580  0.8591
26657SOL    HW284014   7.567   0.318   3.374 -0.4680  0.6022 -0.4197
26658SOL     OW84015   1.968   0.530   1.675 -0.0170  0.3167  0.1983
26658SOL    HW184016   2.026   0.454   1.680 -1.3907 -0.7167  1.2136
26658SOL    HW284017   2.022   0.603   1.707  1.0708 -0.3858  0.0154
26659SOL     OW84018   9.311   5.883   3.327  0.6159  0.3132  0.6273
26659SOL    HW184019   9.300   5.788   3.327  1.8462  0.1438  1.2744
26659SOL    HW284020   9.397   5.897   3.287 -0.9723  1.4055 -2.8042
26660SOL     OW84021   5.500   7.624   3.354  0.2038  0.6121  0.2864
26660SOL    HW184022   5.555   7.673   3.293 -0.2642 -0.2017 -0.8247
26660SOL    HW284023   5.562   7.581   3.413  0.6347  2.0516  0.9360
26661SOL     OW84024   6.664   9.166   1.893 -0.1756 -0.0656  0.4362
26661SOL    HW184025   6.573   9.193   1.904 -0.1777  0.4084 -0.6008
26661SOL    HW284026   6.713   9.248   1.888  0.2171 -0.3058  0.2889
26662SOL     OW84027   1.370   4.683   0.402  0.1477  0.5176 -0.1387
26662SOL    HW184028   1.413   4.755   0.356  0.3293 -0.7152 -1.9787
26662SOL    HW284029   1.277   4.695   0.385 -0.0075  1.3014  1.0867
26663SOL     OW84030   7.539   2.941   8.874 -0.3462 -0.4086  0.5501
26663SOL    HW184031   7.588   2.916   8.795 -1.8319 -0.9509 -0.2505
26663SOL    HW284032   7.549   2.866   8.933 -0.1861 -0.5103  0.3942
26664SOL     OW84033   5.040   1.856   7.421  0.2233 -0.0300 -0.9095
26664SOL    HW184034   5.011   1.812   7.501  1.7083 -0.9783 -0.8601
26664SOL    HW284035   5.126   1.891   7.442 -0.0535  1.1418 -1.6062
26665SOL     OW84036   0.670   5.882   7.625  0.0542  0.0281  0.1677
26665SOL    HW184037   0.755   5.856   7.589  1.0425  1.4260  1.4111
26665SOL    HW284038   0.636   5.801   7.664  1.2244 -0.3424  0.4605
26666SOL     OW84039   9.855   6.069   2.682  0.3121 -0.4450 -0.4295
26666SOL    HW184040   9.927   6.131   2.672  2.7066 -3.2280 -1.9504
26666SOL    HW284041   9.880   6.015   2.757 -1.6403  0.2045  0.7655
26667SOL     OW84042   6.083   0.402   8.200 -0.1247 -0.4342 -0.2261
26667SOL    HW184043   6.146   0.469   8.224 -0.2781 -0.0137 -0.9727
26667SOL    HW284044   6.030   0.389   8.279 -0.4569  0.7395 -0.2401
26668SOL     OW84045   2.095   2.021   0.610 -0.3246 -0.2558 -0.1191
26668SOL    HW184046   2.109   1.937   0.566 -0.6794 -0.6706  0.5398
26668SOL    HW284047   2.153   2.019   0.686 -0.1359  0.2092 -0.2514
26669SOL     OW84048   9.338   9.342   3.652  0.2118  0.3768 -0.0308
26669SOL    HW184049   9.401   9.400   3.695  0.7690  0.5549 -1.0492
26669SOL    HW284050   9.258   9.394   3.646  0.3829  0.6471  0.0198
26670SOL     OW84051   6.244   6.371   7.885  0.0284 -0.1673  0.1367
26670SOL    HW184052   6.223   6.278   7.871 -0.2723 -0.0462 -0.2590
26670SOL    HW284053   6.299   6.372   7.963 -0.0693 -0.6680  0.2169
26671SOL     OW84054   8.993   3.792   2.854 -0.0561  0.7577 -0.5898
26671SOL    HW184055   9.000   3.722   2.919 -0.3989  0.9891 -0.3015
26671SOL    HW284056   9.034   3.756   2.775  1.4069  0.8728  0.0786
26672SOL     OW84057   3.394  10.209   3.933 -0.4173  0.2603  0.3944
26672SOL    HW184058   3.308  10.251   3.929 -0.0289  1.0106 -0.3720
26672SOL    HW284059   3.447  10.270   3.985 -0.2423 -0.0077  0.5309
26673SOL     OW84060   2.863   9.244   3.545  0.0758 -0.0231 -0.1427
26673SOL    HW184061   2.809   9.295   3.484 -0.7702 -0.4876  0.2050
26673SOL    HW284062   2.834   9.154   3.533  1.1093 -0.3583 -0.2800
26674SOL     OW84063   0.408   1.253   8.523  0.2256  0.5189  0.0967
26674SOL    HW184064   0.473   1.188   8.497 -1.7416 -2.6682  2.4372
26674SOL    HW284065   0.352   1.263   8.446  1.1221  0.1851 -0.6145
26675SOL     OW84066   5.757   8.391  10.038 -0.3501 -0.0926 -0.4200
26675SOL    HW184067   5.732   8.476  10.073 -0.2359 -0.3522  0.3105
26675SOL    HW284068   5.842   8.372  10.078 -0.4668 -0.6386 -0.4180
26676SOL     OW84069   7.827   6.239   6.639  0.3533 -0.4057 -0.1841
26676SOL    HW184070   7.780   6.180   6.698 -0.7683 -0.6419 -1.2648
26676SOL    HW284071   7.912   6.197   6.625 -0.0483 -1.2562 -0.1395
26677SOL     OW84072   7.701   8.326   3.238 -0.5989 -0.3065 -0.2311
26677SOL    HW184073   7.649   8.397   3.199 -0.2243 -0.3639 -0.8436
26677SOL    HW284074   7.792   8.354   3.226 -0.4182 -1.2782 -1.2327
26678SOL     OW84075   8.951   7.338   6.395 -0.1261 -0.0039  0.3463
26678SOL    HW184076   9.031   7.309   6.350 -0.5588  0.1739 -0.5561
26678SOL    HW284077   8.922   7.261   6.444  0.3486 -0.2042  0.3169
26679SOL     OW84078   5.284  10.049   2.487  0.2075  0.1128  0.0492
26679SOL    HW184079   5.283  10.081   2.577 -1.0989  1.0199 -0.2660
26679SOL    HW284080   5.208   9.992   2.480  1.3937 -1.5367  0.0335
26680SOL     OW84081   1.619   8.041   0.116 -0.1244  0.0532 -0.3825
26680SOL    HW184082   1.635   8.030   0.210 -3.5053  1.6531  0.5212
26680SOL    HW284083   1.609   7.951   0.084  1.9992 -0.5706  0.5099
26681SOL     OW84084   1.858   7.905   1.390  0.2850 -0.2870 -0.0629
26681SOL    HW184085   1.934   7.940   1.345  0.5581 -1.0292 -0.1939
26681SOL    HW284086   1.887   7.821   1.426 -0.0309  0.1013  1.1772
26682SOL     OW84087   7.246   3.731   5.191 -0.0264  0.3350 -0.2962
26682SOL    HW184088   7.340   3.747   5.201  0.0264 -0.5362  0.8583
26682SOL    HW284089   7.204   3.810   5.224  0.2796  1.4655 -2.4271
26683SOL     OW84090   5.935   8.892   9.043  0.3645  0.2460  0.3916
26683SOL    HW184091   5.868   8.876   9.108  0.5078  1.1468  0.7734
26683SOL    HW284092   5.933   8.815   8.987  0.1685 -0.4910  1.3942
26684SOL     OW84093   3.436   3.649   2.960  0.1474 -0.1823  0.4191
26684SOL    HW184094   3.491   3.583   2.918  0.8420  0.5179  0.1970
26684SOL    HW284095   3.368   3.599   3.006 -0.5925 -0.9739 -1.4575
26685SOL     OW84096   1.623   6.851   9.327  0.0295 -0.1447  0.1937
26685SOL    HW184097   1.687   6.810   9.385 -0.3313  0.4018  1.0144
26685SOL    HW284098   1.548   6.871   9.385 -1.2015 -1.4528 -0.8774
26686SOL     OW84099   4.369   0.076   2.891 -0.3011 -0.0058  0.4937
26686SOL    HW184100   4.402  -0.013   2.882  0.1557 -0.0990  2.5299
26686SOL    HW284101   4.382   0.116   2.805 -0.1831 -1.7729 -0.3453
26687SOL     OW84102   7.974   3.505   8.968  0.1337 -0.4154  0.5527
26687SOL    HW184103   8.030   3.508   8.890 -1.0909 -0.4014 -0.3517
26687SOL    HW284104   7.909   3.437   8.948 -0.1277 -0.4957  1.6169
26688SOL     OW84105   6.908   8.144   2.318  0.0675 -0.0702  0.2623
26688SOL    HW184106   6.934   8.222   2.270 -0.6661  0.2962  0.4511
26688SOL    HW284107   6.983   8.084   2.308  0.1958  0.2426 -0.7715
26689SOL     OW84108   3.533   4.793   2.917  0.3690  0.2992  0.7612
26689SOL    HW184109   3.555   4.842   2.996  0.0016  1.2698  0.2705
26689SOL    HW284110   3.568   4.846   2.845 -0.2013 -0.0642  0.2092
26690SOL     OW84111   2.683   8.396   8.535 -0.1894  0.7165 -0.4537
26690SOL    HW184112   2.710   8.421   8.624 -1.6470 -1.5640  0.7131
26690SOL    HW284113   2.599   8.440   8.523 -0.7111 -0.1465 -0.0728
26691SOL     OW84114   5.003   5.124   4.731  0.1122 -0.3088 -0.0561
26691SOL    HW184115   5.024   5.216   4.748 -0.3149 -0.3094  0.4620
26691SOL    HW284116   4.927   5.128   4.673 -0.3947 -0.3431  0.6039
26692SOL     OW84117   6.702  10.143   2.867 -0.4636 -0.0056 -0.1107
26692SOL    HW184118   6.787  10.186   2.856 -0.7002  0.3443 -0.5943
26692SOL    HW284119   6.712  10.089   2.946 -0.2300  1.1143  0.6487
26693SOL     OW84120   0.678   3.961   4.681 -0.2585 -0.2091  0.0804
26693SOL    HW184121   0.678   4.054   4.702 -1.2433 -0.5044  1.5665
26693SOL    HW284122   0.770   3.935   4.683 -0.0310  0.5991  0.2343
26694SOL     OW84123   5.270   1.076   3.062 -0.6569 -0.9412 -0.4820
26694SOL    HW184124   5.247   1.150   3.117 -1.1451 -0.0258 -1.8715
26694SOL    HW284125   5.360   1.094   3.033 -0.2875 -1.5729  0.2291
26695SOL     OW84126   7.283   0.839   6.331  0.6095  0.3756  0.5609
26695SOL    HW184127   7.332   0.760   6.352  0.6378 -0.0792 -1.0791
26695SOL    HW284128   7.340   0.911   6.358  1.5931 -0.1624 -0.0116
26696SOL     OW84129   7.671   7.620   7.152 -0.4781  0.1213 -0.1355
26696SOL    HW184130   7.658   7.552   7.218 -1.7377  1.2814  0.9071
26696SOL    HW284131   7.702   7.696   7.202 -0.2239  0.6556 -1.0764
26697SOL     OW84132   6.787   4.750   0.989 -0.0427 -0.0238 -0.1542
26697SOL    HW184133   6.730   4.720   0.919  0.2142 -1.4147  0.2041
26697SOL    HW284134   6.728   4.760   1.065 -0.2989  1.3645 -0.5062
26698SOL     OW84135   0.095   2.034  10.093 -0.3358 -0.1863 -0.4757
26698SOL    HW184136   0.127   1.965  10.151  1.4545 -0.0225 -1.1949
26698SOL    HW284137   0.161   2.040  10.024 -1.8708  0.3314 -1.9848
26699SOL     OW84138   3.794   0.023   6.700 -0.3447 -0.3114  0.0812
26699SOL    HW184139   3.743   0.079   6.759 -1.3294 -0.2793 -0.7738
26699SOL    HW284140   3.743  -0.058   6.694  0.0402 -0.5295 -0.2838
26700SOL     OW84141   3.014   1.121   8.545  0.1604 -0.1843  0.2546
26700SOL    HW184142   3.106   1.097   8.535  0.4406 -0.1137  2.2952
26700SOL    HW284143   2.968   1.037   8.554 -0.2401 -0.3045 -2.2528
26701SOL     OW84144   1.493   8.926   5.392 -0.0275 -0.3546 -0.8371
26701SOL    HW184145   1.472   8.945   5.483  1.3290  0.1479 -0.5957
26701SOL    HW284146   1.455   8.840   5.375 -2.2297  0.4778 -0.5015
26702SOL     OW84147   4.351   0.988   0.914  0.2329  0.1559  0.0960
26702SOL    HW184148   4.289   1.004   0.986 -0.1491 -0.1173 -0.1661
26702SOL    HW284149   4.366   1.075   0.877 -1.9299 -0.0283 -1.4010
26703SOL     OW84150   8.086   2.741   5.838  0.1812 -0.1429 -0.2667
26703SOL    HW184151   8.155   2.770   5.898  0.3430  0.3271 -0.6734
26703SOL    HW284152   8.086   2.806   5.768  0.2314 -0.8750 -0.9605
26704SOL     OW84153   7.003   7.630   9.962 -0.3680 -0.2911  0.5499
26704SOL    HW184154   6.979   7.573   9.889 -0.7019 -0.4457  0.7774
26704SOL    HW284155   7.021   7.571  10.035 -0.0972 -0.1358  0.6108
26705SOL     OW84156   6.540   2.592   4.746  0.3381 -0.0539  0.0790
26705SOL    HW184157   6.481   2.660   4.780 -1.1299  0.6019 -3.3463
26705SOL    HW284158   6.621   2.604   4.795 -0.5067  2.8759  0.9913
26706SOL     OW84159   9.671   6.798   8.835  0.2473  0.1216  0.3240
26706SOL    HW184160   9.694   6.890   8.851  3.0778 -0.7431  1.8742
26706SOL    HW284161   9.642   6.765   8.920  0.7769 -0.7774  0.1733
26707SOL     OW84162   8.354   7.216   1.100  0.4891 -0.3195 -0.5181
26707SOL    HW184163   8.447   7.234   1.085  0.3978  1.2154  0.5644
26707SOL    HW284164   8.340   7.237   1.192 -0.7572 -1.4077 -0.4325
26708SOL     OW84165   3.821   0.525   6.069  0.1013 -0.2874 -0.3886
26708SOL    HW184166   3.785   0.546   6.156  0.6433 -0.6702 -0.0705
26708SOL    HW284167   3.909   0.494   6.086 -0.1709 -1.4268 -0.9802
26709SOL     OW84168   9.242   3.721   5.090  0.0441  0.3827 -0.1063
26709SOL    HW184169   9.321   3.718   5.144 -1.0412  1.1606  1.5717
26709SOL    HW284170   9.240   3.811   5.056 -0.8803  0.8136  1.0559
26710SOL     OW84171   3.797   5.177   0.349 -0.1947 -0.3418  0.1199
26710SOL    HW184172   3.709   5.165   0.384 -1.3412  1.3010 -2.0056
26710SOL    HW284173   3.812   5.099   0.296 -0.6151 -0.3452  0.0041
26711SOL     OW84174   0.478   8.079   5.303 -0.5213 -0.0497 -0.1886
26711SOL    HW184175   0.442   7.991   5.296 -0.4878 -0.4131  2.8132
26711SOL    HW284176   0.556   8.069   5.357  1.8630  1.3295 -3.0804
26712SOL     OW84177   4.784   3.245   5.183 -0.3117 -0.6207  0.6008
26712SOL    HW184178   4.853   3.184   5.211  0.6198 -0.9796 -2.1038
26712SOL    HW284179   4.816   3.331   5.208 -0.1680 -0.9812  1.7140
26713SOL     OW84180   1.867   1.109   8.969 -0.4219 -0.0632 -0.7923
26713SOL    HW184181   1.811   1.058   9.027  0.8189 -0.1298  0.3974
26713SOL    HW284182   1.806   1.160   8.915 -1.6614  1.1500  1.5903
26714SOL     OW84183   6.168   1.253   3.809 -0.8612 -0.1446 -0.7637
26714SOL    HW184184   6.198   1.216   3.892 -0.4187 -0.7311 -1.1780
26714SOL    HW284185   6.073   1.261   3.820 -0.7995 -0.1366 -0.1718
26715SOL     OW84186   1.933   2.716   0.567  0.9755 -0.7939 -0.1769
26715SOL    HW184187   1.926   2.644   0.628  0.1546 -0.6058 -0.0406
26715SOL    HW284188   1.879   2.690   0.492 -0.0536  0.0500  0.2533
26716SOL     OW84189   0.228   7.901   9.934  0.2778 -0.0012 -0.1012
26716SOL    HW184190   0.217   7.955   9.856 -0.5934 -1.2090 -0.8590
26716SOL    HW284191   0.158   7.835   9.927  1.9970 -1.9556  0.1407
26717SOL     OW84192   8.848   5.722   0.215  0.2632 -0.3987 -0.2912
26717SOL    HW184193   8.842   5.646   0.158 -1.9368 -0.0352 -0.6611
26717SOL    HW284194   8.763   5.766   0.205  0.8582  1.2099  1.1423
26718SOL     OW84195   8.059   2.660   5.353  0.5901  0.4576  0.0394
26718SOL    HW184196   8.144   2.649   5.310  1.4538  0.2095  1.7012
26718SOL    HW284197   8.078   2.644   5.446 -0.9471  2.0047  0.6703
26719SOL     OW84198   4.363   2.320   1.233  0.3098 -0.1400  0.3464
26719SOL    HW184199   4.326   2.239   1.271 -2.1555  0.4624 -0.5629
26719SOL    HW284200   4.353   2.385   1.302 -1.3419  0.2485 -0.2215
26720SOL     OW84201   7.806   3.876   4.192  0.0925  0.3618 -0.1139
26720SOL    HW184202   7.723   3.897   4.150  1.9405  2.1352 -3.2046
26720SOL    HW284203   7.818   3.944   4.258  0.1607  1.5911 -1.3525
26721SOL     OW84204   3.671  10.280   0.881  0.1478 -0.1468 -0.2907
26721SOL    HW184205   3.690  10.366   0.917  1.1614 -0.2413 -0.5475
26721SOL    HW284206   3.757  10.237   0.877 -0.3283 -1.1152 -0.2825
26722SOL     OW84207   9.379   8.850   6.378  0.2899  0.5016 -0.9398
26722SOL    HW184208   9.379   8.775   6.319 -0.1191  1.8060 -2.6559
26722SOL    HW284209   9.413   8.922   6.326  1.4664  1.3573  0.9170
26723SOL     OW84210   6.996   2.933   3.491 -0.1363  0.3513  0.1223
26723SOL    HW184211   6.988   3.015   3.540 -0.8237 -0.5380  1.5722
26723SOL    HW284212   6.960   2.953   3.405 -0.8642  1.4164  0.6518
26724SOL     OW84213   1.428   1.635   4.195  0.5831  0.3036  0.0640
26724SOL    HW184214   1.386   1.637   4.280 -0.4723  0.5565 -0.4521
26724SOL    HW284215   1.385   1.704   4.145  1.1915  0.1672 -0.6753
26725SOL     OW84216   5.584   9.602   4.978  0.6734  0.1897 -0.0307
26725SOL    HW184217   5.551   9.656   5.050 -0.8644  0.3531 -0.8051
26725SOL    HW284218   5.585   9.513   5.013  0.7459  0.3789  0.4559
26726SOL     OW84219   4.939   4.860   8.741  0.3404 -0.0092  0.5445
26726SOL    HW184220   4.982   4.930   8.790  0.1715  2.1639 -2.2112
26726SOL    HW284221   4.846   4.874   8.757  0.2737  0.8444 -0.5243
26727SOL     OW84222   2.529   0.042   4.099 -0.0195  0.6706 -0.1242
26727SOL    HW184223   2.562  -0.044   4.125  1.9660  1.3864 -0.1243
26727SOL    HW284224   2.573   0.103   4.158 -0.8417  1.7673 -0.6109
26728SOL     OW84225   0.593   5.653   2.092  0.0856 -0.0151  0.4423
26728SOL    HW184226   0.568   5.695   2.174  2.8536 -0.9160  1.8621
26728SOL    HW284227   0.608   5.726   2.032  1.2427  0.8813  1.7515
26729SOL     OW84228   2.929   2.061   1.065 -0.5302 -0.1295 -0.1075
26729SOL    HW184229   2.959   1.987   1.013  1.6599  1.4589 -1.2668
26729SOL    HW284230   2.880   2.115   1.003 -1.3016 -0.1327  0.4895
26730SOL     OW84231   7.452   0.630   9.375  0.1378 -0.0716 -0.0474
26730SOL    HW184232   7.519   0.586   9.323 -0.1254 -0.4220 -0.0986
26730SOL    HW284233   7.493   0.711   9.405 -0.2969  1.0385 -2.2981
26731SOL     OW84234   5.430   4.499   2.228 -0.2452 -0.0238  0.0489
26731SOL    HW184235   5.479   4.566   2.180  1.1519 -0.8380  0.2624
26731SOL    HW284236   5.391   4.444   2.160  1.4646 -0.9876 -0.2284
26732SOL     OW84237   6.259   4.127   0.753  0.0656 -0.3274  0.8157
26732SOL    HW184238   6.324   4.194   0.732  0.3798 -0.0456  2.5545
26732SOL    HW284239   6.268   4.063   0.683  2.4696 -0.4692  1.1578
26733SOL     OW84240   0.526   1.791   2.235  0.0700 -0.4921  0.1614
26733SOL    HW184241   0.502   1.736   2.160 -2.4319 -0.5797  0.9503
26733SOL    HW284242   0.556   1.873   2.195  1.0263 -1.3490 -0.9582
26734SOL     OW84243   6.601   7.579   0.835  0.4247  0.3178 -0.4794
26734SOL    HW184244   6.686   7.545   0.863  0.0553 -0.0897  0.1678
26734SOL    HW284245   6.561   7.614   0.914 -0.7445 -1.1049 -0.3906
26735SOL     OW84246   7.657   9.251   6.385 -0.1332  0.4522  0.7508
26735SOL    HW184247   7.611   9.246   6.468 -0.8700 -1.0242  0.2906
26735SOL    HW284248   7.731   9.192   6.395 -1.1166 -1.0060 -0.1313
26736SOL     OW84249   4.191   1.275   2.185 -0.1038 -0.0242  0.6619
26736SOL    HW184250   4.175   1.191   2.143 -0.6973  0.0752  0.6871
26736SOL    HW284251   4.171   1.340   2.118  1.3602  0.0835  0.3021
26737SOL     OW84252   1.107   7.877   1.827  0.3926 -0.1348 -0.1904
26737SOL    HW184253   1.025   7.920   1.802  0.6269 -0.5793 -1.8644
26737SOL    HW284254   1.105   7.792   1.782 -0.3657 -2.3033  3.5457
26738SOL     OW84255   8.240   6.134   9.289  0.1559 -0.8350  0.3103
26738SOL    HW184256   8.155   6.090   9.297 -0.2659 -0.0773  0.0993
26738SOL    HW284257   8.250   6.152   9.195 -0.0898  0.2789  0.4776
26739SOL     OW84258   4.440   0.048   5.375 -0.2322 -0.0768  0.3973
26739SOL    HW184259   4.378  -0.022   5.355 -1.3498  0.4506  1.8366
26739SOL    HW284260   4.485   0.017   5.455 -0.1767  0.4993  0.5912
26740SOL     OW84261   3.752   1.620   5.332 -0.1176  0.0329  0.0030
26740SOL    HW184262   3.740   1.713   5.347 -0.4362  0.1314 -0.8026
26740SOL    HW284263   3.666   1.581   5.348 -0.0001 -0.1111  0.2803
26741SOL     OW84264   4.481   7.104   7.170  0.0066  0.2197  0.2204
26741SOL    HW184265   4.535   7.156   7.230  0.3281  0.2483 -0.0856
26741SOL    HW284266   4.398   7.150   7.166  0.6660  1.3627 -0.9274
26742SOL     OW84267   4.547   9.096   6.833 -0.0640 -0.2057 -0.2458
26742SOL    HW184268   4.506   9.032   6.891  1.2431 -2.0527 -1.2349
26742SOL    HW284269   4.633   9.059   6.815  1.3704  2.5910  0.2790
26743SOL     OW84270   6.325   2.537   2.859  0.6617 -0.0648  0.0138
26743SOL    HW184271   6.247   2.591   2.851  0.8811 -0.0044 -2.6720
26743SOL    HW284272   6.296   2.460   2.907 -0.4330  1.0200  1.1526
26744SOL     OW84273   7.196   4.317   0.630  0.1130 -0.2197 -0.0536
26744SOL    HW184274   7.267   4.296   0.569 -0.0062 -0.4996 -0.0991
26744SOL    HW284275   7.191   4.412   0.629  0.6861 -0.1872  0.1799
26745SOL     OW84276   9.046   0.041   2.111  0.5242 -0.0921 -0.8957
26745SOL    HW184277   9.104  -0.007   2.051  0.8046 -0.7293 -0.1427
26745SOL    HW284278   9.037   0.128   2.072  1.0782 -0.3472 -1.6153
26746SOL     OW84279   9.692   2.128   2.760  0.1120 -0.0094 -0.2400
26746SOL    HW184280   9.690   2.184   2.838  1.6930 -0.4928  0.1691
26746SOL    HW284281   9.761   2.064   2.777 -0.7409 -1.2690 -1.2739
26747SOL     OW84282   1.587   2.664   6.985 -0.1640 -0.6846  0.0173
26747SOL    HW184283   1.506   2.635   7.026 -0.8568  1.0891 -0.0040
26747SOL    HW284284   1.560   2.730   6.920  1.3457  1.0589  1.0384
26748SOL     OW84285   2.978   3.248   5.844  0.1015 -0.0162  0.7474
26748SOL    HW184286   2.948   3.205   5.764  1.2830 -1.8312  1.2073
26748SOL    HW284287   3.064   3.284   5.821 -1.1676  2.8562  0.1661
26749SOL     OW84288   9.390   6.814  10.284 -0.0784 -0.5598  0.3970
26749SOL    HW184289   9.354   6.776  10.204  0.5164 -1.5347  0.5853
26749SOL    HW284290   9.317   6.811  10.346 -0.0845 -1.2315  0.3587
26750SOL     OW84291   8.686   7.675   9.008 -0.1024 -0.1002 -0.5439
26750SOL    HW184292   8.614   7.621   8.979 -0.0649  0.0782 -0.9752
26750SOL    HW284293   8.763   7.619   9.001 -0.2135 -0.3330  0.0436
26751SOL     OW84294   0.089   3.798   7.528 -0.1536 -0.3906 -0.1543
26751SOL    HW184295   0.005   3.752   7.519 -0.6158  0.1316  1.0851
26751SOL    HW284296   0.064   3.884   7.564  0.7254  0.6652 -1.9306
26752SOL     OW84297   9.246   8.024   5.307 -0.2392  0.3384 -0.0462
26752SOL    HW184298   9.189   7.988   5.239  0.0590  1.0520 -0.6936
26752SOL    HW284299   9.263   7.951   5.366 -0.9959 -0.1384 -0.4071
26753SOL     OW84300   3.585   8.911   6.965  0.5385  0.0429  0.5517
26753SOL    HW184301   3.504   8.961   6.978  0.3614  0.0671 -0.5264
26753SOL    HW284302   3.655   8.970   6.991  0.4134  1.3403 -1.7677
26754SOL     OW84303   1.818   8.699   7.414 -0.3135  1.0080 -0.0941
26754SOL    HW184304   1.891   8.714   7.474 -0.6219  0.4515  0.4299
26754SOL    HW284305   1.743   8.742   7.457 -0.3776  1.2529 -0.4470
26755SOL     OW84306   9.315   8.928   1.938 -0.0401 -0.0554  0.1795
26755SOL    HW184307   9.267   8.921   1.856 -0.2839  1.6201  0.1434
26755SOL    HW284308   9.384   8.862   1.931 -0.0511  0.0692 -1.3759
26756SOL     OW84309   3.271   7.615   1.899  0.0289  0.2586 -0.4756
26756SOL    HW184310   3.221   7.587   1.976  2.0049  1.2676  1.2836
26756SOL    HW284311   3.286   7.709   1.914 -0.7198  0.8388 -2.8474
26757SOL     OW84312   7.829   9.705   7.251 -0.1846  0.1655 -0.0437
26757SOL    HW184313   7.905   9.732   7.302 -0.8019  0.9836  0.4799
26757SOL    HW284314   7.843   9.743   7.164  0.5165 -0.6062 -0.2714
26758SOL     OW84315   8.141   9.282   6.669  0.2039  0.3407 -0.4673
26758SOL    HW184316   8.099   9.306   6.586 -0.8117  0.8311  0.1789
26758SOL    HW284317   8.212   9.346   6.678  0.6816 -0.0654 -1.2273
26759SOL     OW84318   2.139   0.516   3.903  0.0701 -0.2924  0.6729
26759SOL    HW184319   2.176   0.530   3.991 -0.1898 -1.5732  0.9950
26759SOL    HW284320   2.154   0.600   3.858  0.1641  0.4040  1.9460
26760SOL     OW84321   0.704   2.244   2.216  0.5558  0.1191  0.4004
26760SOL    HW184322   0.698   2.311   2.148 -0.0869  0.4759  0.8020
26760SOL    HW284323   0.613   2.224   2.238  0.7567  0.3302  1.4716
26761SOL     OW84324   1.850   9.666   6.966 -0.3551 -0.7638 -0.0186
26761SOL    HW184325   1.792   9.596   6.935 -1.0859 -0.8002  1.3399
26761SOL    HW284326   1.895   9.697   6.888 -0.6135 -2.2100 -0.7720
26762SOL     OW84327   5.040   8.605   8.869 -0.0791  0.7038 -0.0638
26762SOL    HW184328   5.127   8.635   8.895 -0.2297 -0.3797  1.8197
26762SOL    HW284329   5.034   8.515   8.902 -2.0754  0.9018  0.2588
26763SOL     OW84330   4.926   6.717   7.505  0.2676  0.5244 -0.0601
26763SOL    HW184331   4.980   6.674   7.438 -0.0278  0.7747 -0.4650
26763SOL    HW284332   4.850   6.750   7.457  0.0683  0.7392  0.3960
26764SOL     OW84333   0.420   8.263   6.688 -0.5260 -0.2556 -0.0430
26764SOL    HW184334   0.428   8.205   6.765 -1.2625 -0.3051  0.0026
26764SOL    HW284335   0.508   8.299   6.677 -0.2043 -0.8934  0.3147
26765SOL     OW84336   3.490   9.603   1.113 -0.0227  0.0978 -0.6328
26765SOL    HW184337   3.510   9.695   1.131  0.3957 -0.0408 -0.3550
26765SOL    HW284338   3.502   9.559   1.197  0.5582 -0.3326 -0.9316
26766SOL     OW84339   0.731   6.646   0.785 -0.5912 -0.1246  0.3680
26766SOL    HW184340   0.670   6.719   0.777  0.6593  0.8522 -1.0819
26766SOL    HW284341   0.807   6.683   0.831  0.1848 -0.3780 -0.6535
26767SOL     OW84342   8.124   8.094   4.686 -0.0543  0.1540  0.2749
26767SOL    HW184343   8.189   8.094   4.756 -0.7905 -0.0154  0.9778
26767SOL    HW284344   8.049   8.048   4.723  0.1525 -1.5086 -1.2217
26768SOL     OW84345   1.256  10.287  10.141  0.0194  0.1958  0.6750
26768SOL    HW184346   1.291  10.296  10.229 -0.7647  0.8533  0.9419
26768SOL    HW284347   1.197  10.212  10.146  0.2169  0.0383  0.6304
26769SOL     OW84348   6.338  10.109   9.383  0.1103 -0.7545 -0.3856
26769SOL    HW184349   6.289  10.108   9.466  0.8716 -0.2344  0.0850
26769SOL    HW284350   6.374  10.197   9.378  1.6537 -1.3389 -0.3125
26770SOL     OW84351   5.555   7.687   9.208  0.2395  0.3848 -0.2084
26770SOL    HW184352   5.536   7.780   9.220 -0.4283  0.0453  1.5591
26770SOL    HW284353   5.469   7.645   9.208  0.6320 -0.4410  1.0013
26771SOL     OW84354   3.825   9.632   6.300 -0.1883  0.0811  0.1103
26771SOL    HW184355   3.919   9.650   6.296 -0.0650 -0.5732 -0.1244
26771SOL    HW284356   3.785   9.716   6.321  0.3735  0.5746 -0.7420
26772SOL     OW84357   5.024   0.335   5.476 -0.7098  0.0927  0.5171
26772SOL    HW184358   4.989   0.251   5.506 -0.6286 -0.2673 -0.3531
26772SOL    HW284359   4.979   0.351   5.393  2.1361 -1.1292 -1.4353
26773SOL     OW84360   4.537   8.113   5.221 -0.0655  0.2973  0.0566
26773SOL    HW184361   4.579   8.196   5.200 -0.1204  0.1222 -0.7643
26773SOL    HW284362   4.600   8.067   5.276  1.7614 -0.8165 -2.7623
26774SOL     OW84363   9.057   2.321   8.993  0.0971 -0.1217  0.1264
26774SOL    HW184364   9.130   2.344   9.050 -1.0169  0.8755  1.2023
26774SOL    HW284365   8.998   2.396   8.998 -0.2609 -0.2056 -2.0065
26775SOL     OW84366   8.858   8.934   9.988 -0.1477 -0.3576 -0.2983
26775SOL    HW184367   8.786   8.935   9.925 -2.0345 -0.4347  1.7236
26775SOL    HW284368   8.860   8.845  10.023  1.1686 -0.4486 -0.5381
26776SOL     OW84369   1.867   1.400   4.861  0.4594 -0.2526 -0.1564
26776SOL    HW184370   1.866   1.328   4.924  0.4159 -1.0816 -1.0783
26776SOL    HW284371   1.960   1.412   4.841  0.6725  1.3150  1.4680
26777SOL     OW84372   8.969   9.801   3.452  0.2024  0.0241 -0.6928
26777SOL    HW184373   9.033   9.750   3.403  0.5408 -0.6474  0.3953
26777SOL    HW284374   8.890   9.746   3.453  0.3980 -0.2674  0.0193
26778SOL     OW84375   7.809   1.250   2.473 -0.2942 -0.5918  0.0007
26778SOL    HW184376   7.779   1.337   2.447  0.7723  0.1510  1.1821
26778SOL    HW284377   7.855   1.217   2.396 -1.9165 -0.7483 -0.9725
26779SOL     OW84378   2.740   9.106   2.205 -0.2094  0.1730 -0.2933
26779SOL    HW184379   2.716   9.132   2.116  0.2167  2.0777  0.0992
26779SOL    HW284380   2.832   9.082   2.199 -0.1547  0.3937 -0.3644
26780SOL     OW84381   3.533   9.022   8.644 -0.1465  0.2195  0.5455
26780SOL    HW184382   3.554   8.947   8.700  2.1030 -0.6128 -1.2640
26780SOL    HW284383   3.589   9.092   8.677 -0.2007  0.2709  0.5257
26781SOL     OW84384   1.277   0.927  10.009 -0.5508 -0.7000 -0.3043
26781SOL    HW184385   1.354   0.870  10.013 -1.2770 -1.7138 -0.1338
26781SOL    HW284386   1.302   1.006  10.057 -0.0399 -1.5348  0.8545
26782SOL     OW84387   0.428   1.006   4.592 -0.4047  0.0860  0.0371
26782SOL    HW184388   0.421   1.097   4.621  0.4494  0.5244 -1.0691
26782SOL    HW284389   0.354   0.962   4.634 -1.4999  1.5290 -0.3114
26783SOL     OW84390   7.004   3.202   5.014  0.1673 -0.0506 -0.4723
26783SOL    HW184391   6.923   3.164   4.981 -0.3349  0.9888 -0.4551
26783SOL    HW284392   6.988   3.296   5.018  1.7650  0.3162 -1.5637
26784SOL     OW84393   5.552   3.718   9.925  0.1990 -0.0314  0.1972
26784SOL    HW184394   5.520   3.630   9.904 -0.9478  0.6141 -0.9125
26784SOL    HW284395   5.482   3.777   9.896  0.1279  1.1874  2.5497
26785SOL     OW84396   9.148   9.229   8.492  0.0383  0.4889  0.1110
26785SOL    HW184397   9.091   9.196   8.562 -1.9468 -1.0383 -2.0656
26785SOL    HW284398   9.219   9.165   8.488  0.0881  0.5084  0.6370
26786SOL     OW84399   2.775   0.787   7.778  0.1819 -0.6457 -0.3094
26786SOL    HW184400   2.693   0.780   7.729  0.9167 -1.4700 -1.4890
26786SOL    HW284401   2.813   0.871   7.751  0.6865 -1.1953 -1.3550
26787SOL     OW84402   2.532   9.639   0.492 -0.5512 -0.0405 -0.1643
26787SOL    HW184403   2.501   9.564   0.441 -0.9781  0.0848 -0.0871
26787SOL    HW284404   2.627   9.629   0.492 -0.4031  0.8636 -2.3855
26788SOL     OW84405   2.296   2.624   7.609  0.0924 -0.2318 -0.2760
26788SOL    HW184406   2.374   2.675   7.587  0.7818 -0.3947  1.6060
26788SOL    HW284407   2.311   2.594   7.699 -3.5217  2.4818  1.4899
26789SOL     OW84408   9.889   9.373   8.637 -0.1070 -0.1406 -0.5380
26789SOL    HW184409   9.904   9.435   8.566 -0.1458  1.3722  0.7180
26789SOL    HW284410   9.880   9.428   8.715 -0.1775 -1.7375  0.6231
26790SOL     OW84411   4.152   8.268   6.042  0.4057  0.4598 -1.0472
26790SOL    HW184412   4.057   8.268   6.053  0.3723  0.3319 -1.3355
26790SOL    HW284413   4.183   8.333   6.106  0.2226 -0.2863 -0.1827
26791SOL     OW84414   3.319   2.496   0.850  0.4093  0.1368  0.2946
26791SOL    HW184415   3.351   2.511   0.939  0.8508 -0.7070  0.2968
26791SOL    HW284416   3.346   2.574   0.801  0.0281  0.6722  0.9311
26792SOL     OW84417   8.872   3.917   6.408  0.3219  0.3581  0.7344
26792SOL    HW184418   8.917   3.971   6.473  1.3336  0.0285  0.3266
26792SOL    HW284419   8.891   3.827   6.435 -1.8093  0.1407  1.7344
26793SOL     OW84420   3.910   1.669   3.371  0.1843  0.0489 -0.0267
26793SOL    HW184421   3.844   1.641   3.308  0.1229  0.3712 -0.1023
26793SOL    HW284422   3.992   1.633   3.336  0.1768  0.3727 -0.3805
26794SOL     OW84423   8.708   8.754   6.747 -0.0110  0.1093 -0.1505
26794SOL    HW184424   8.756   8.707   6.678  0.1657  0.4084 -0.2340
26794SOL    HW284425   8.752   8.839   6.752 -1.1681  0.7743 -0.9299
26795SOL     OW84426   0.288   0.394   4.627 -0.8218 -0.0139  0.7675
26795SOL    HW184427   0.304   0.418   4.718 -0.3733  0.7981  0.4791
26795SOL    HW284428   0.228   0.461   4.594  2.0955  2.1154 -0.6589
26796SOL     OW84429   9.551   8.657   4.700  0.3809  0.0047  0.1519
26796SOL    HW184430   9.630   8.707   4.678  0.2592  0.3627  0.5150
26796SOL    HW284431   9.522   8.620   4.617  0.5056  0.4872 -0.1102
26797SOL     OW84432   4.619   3.567   5.195 -0.5014  0.1587  1.0152
26797SOL    HW184433   4.696   3.529   5.238 -0.9273  0.0272  1.6816
26797SOL    HW284434   4.545   3.530   5.242 -0.9546  0.9457  0.9392
26798SOL     OW84435   1.821   8.616   2.682 -0.1648  0.7362 -0.1106
26798SOL    HW184436   1.766   8.663   2.744  1.3734  1.6482  0.6438
26798SOL    HW284437   1.890   8.577   2.736  1.0377  1.3021 -1.1765
26799SOL     OW84438   8.895   2.618   4.890 -0.5503  0.6627  0.2404
26799SOL    HW184439   8.868   2.527   4.880 -1.7933  1.0871 -0.6075
26799SOL    HW284440   8.978   2.624   4.841 -1.7560  0.5256 -1.9525
26800SOL     OW84441   0.625   5.907  10.191 -0.0123  0.4426 -0.3898
26800SOL    HW184442   0.713   5.872  10.206  0.4359  0.5331 -2.5705
26800SOL    HW284443   0.593   5.929  10.279  1.8475 -0.2499  0.5107
26801SOL     OW84444   3.430   3.909   1.870  0.5460  0.0378 -0.7565
26801SOL    HW184445   3.373   3.972   1.914 -1.1163 -1.1285 -1.1643
26801SOL    HW284446   3.438   3.836   1.931  0.8744 -0.1983 -1.0752
26802SOL     OW84447   9.024   4.567   4.259  0.1485  0.6673  0.2229
26802SOL    HW184448   9.061   4.654   4.249  0.9444  0.6113  2.1684
26802SOL    HW284449   9.021   4.553   4.354  0.9620 -1.7857 -0.0358
26803SOL     OW84450   0.588   3.381   3.490  0.2800  0.0672 -0.0953
26803SOL    HW184451   0.595   3.288   3.467  0.1722 -0.1621  0.7461
26803SOL    HW284452   0.678   3.409   3.507  0.2913  0.0651 -0.1508
26804SOL     OW84453   5.210   6.276   9.281 -0.5024  0.2264 -0.1356
26804SOL    HW184454   5.168   6.274   9.368  0.4752  2.1650  0.4255
26804SOL    HW284455   5.155   6.335   9.230 -0.1900  0.3146 -0.3641
26805SOL     OW84456   3.940   3.336   4.246 -0.6522 -0.3390 -0.5335
26805SOL    HW184457   4.009   3.314   4.309  0.1954  2.1732 -0.4729
26805SOL    HW284458   3.933   3.258   4.191  0.6858 -1.4834  0.8089
26806SOL     OW84459   3.472   1.846   8.248  0.4901 -0.0193 -0.4304
26806SOL    HW184460   3.492   1.792   8.325  1.1210 -1.1943 -1.3853
26806SOL    HW284461   3.535   1.818   8.182 -1.0030 -0.1327 -1.8755
26807SOL     OW84462   8.310   0.208   8.081  0.3047 -0.1330  0.0908
26807SOL    HW184463   8.299   0.236   8.172 -1.0644 -1.8529  0.5029
26807SOL    HW284464   8.404   0.204   8.069  0.5119  0.0491  1.4539
26808SOL     OW84465   7.141   8.129   3.889 -0.1493  0.1863 -0.3778
26808SOL    HW184466   7.236   8.119   3.883 -0.3304 -1.7048 -0.5150
26808SOL    HW284467   7.125   8.220   3.861  1.5634  0.3970 -0.7798
26809SOL     OW84468   5.139   6.115   8.363 -0.0997  0.4380  0.3348
26809SOL    HW184469   5.124   6.209   8.374  1.2202  0.5229  1.8658
26809SOL    HW284470   5.070   6.086   8.304 -1.3004  2.1343  0.8415
26810SOL     OW84471   8.532   1.467   7.054 -0.2343 -0.2643  0.4884
26810SOL    HW184472   8.558   1.379   7.026  0.3056  0.2685 -0.7735
26810SOL    HW284473   8.608   1.501   7.100  0.9683  0.8196 -2.1015
26811SOL     OW84474   5.599   4.667   6.131  0.2757  0.4426 -0.0955
26811SOL    HW184475   5.533   4.614   6.177 -0.2456 -2.0308 -3.2900
26811SOL    HW284476   5.550   4.742   6.097 -0.7333 -0.7519 -1.4169
26812SOL     OW84477   1.262   3.825   3.508 -0.1478 -0.4571 -0.0784
26812SOL    HW184478   1.307   3.806   3.426 -0.4967  0.8628 -0.5909
26812SOL    HW284479   1.200   3.752   3.519 -0.9845 -0.0190 -1.6337
26813SOL     OW84480   5.510   8.963   5.637 -0.2870  0.6472 -0.0040
26813SOL    HW184481   5.601   8.945   5.660 -0.4765 -0.3560  0.0236
26813SOL    HW284482   5.515   9.031   5.570  0.3907  1.7354  1.1218
26814SOL     OW84483   1.708   0.222   7.659  0.3715  0.7295 -0.1232
26814SOL    HW184484   1.670   0.310   7.660  0.6166  0.8451 -0.6646
26814SOL    HW284485   1.703   0.195   7.568  0.5282  0.2786  0.0004
26815SOL     OW84486   2.022   9.346   9.123 -0.4406 -0.4457 -0.1381
26815SOL    HW184487   1.933   9.382   9.116 -1.1439 -1.8003  1.1756
26815SOL    HW284488   2.025   9.277   9.057  0.4116  0.9536 -1.6460
26816SOL     OW84489   9.106   6.368   0.098 -0.0558 -0.3264 -0.3829
26816SOL    HW184490   9.013   6.348   0.091 -0.1579  0.0775 -0.2102
26816SOL    HW284491   9.116   6.404   0.186  0.1450  0.2495 -0.6407
26817SOL     OW84492   6.897   4.218   2.348  0.1954 -0.5601  0.3940
26817SOL    HW184493   6.826   4.154   2.347 -0.3216  0.0156  0.3328
26817SOL    HW284494   6.886   4.266   2.429 -0.4534  0.6090 -0.3703
26818SOL     OW84495   5.811   3.930   9.625 -0.3040 -0.0791  0.3723
26818SOL    HW184496   5.798   3.845   9.668 -2.1477 -0.8374 -1.5646
26818SOL    HW284497   5.757   3.991   9.676 -1.3224 -0.6748  0.0307
26819SOL     OW84498   2.957   8.889   9.714  0.1146 -0.1228  0.1182
26819SOL    HW184499   2.897   8.821   9.684 -1.7130  1.8590 -0.9734
26819SOL    HW284500   2.919   8.921   9.797  1.1383 -0.6214  0.8005
26820SOL     OW84501   8.567   0.143   0.192  0.0746 -0.2402  0.0715
26820SOL    HW184502   8.527   0.200   0.258 -0.4189 -0.0486 -0.3927
26820SOL    HW284503   8.507   0.069   0.185  1.2917 -1.4402  1.5308
26821SOL     OW84504  10.018   9.630   4.747 -0.1858 -0.1513 -0.1727
26821SOL    HW184505   9.940   9.591   4.788 -0.3818 -2.4608 -2.4705
26821SOL    HW284506  10.091   9.577   4.780 -0.1098 -0.6631 -1.1263
26822SOL     OW84507   5.524   7.353   7.947  0.0271  0.0706 -0.3053
26822SOL    HW184508   5.498   7.364   7.856  0.1166 -0.4422 -0.3951
26822SOL    HW284509   5.562   7.437   7.972  0.0086  0.2092 -0.7429
26823SOL     OW84510   8.740   7.267   8.554  0.2852  0.5653 -0.1769
26823SOL    HW184511   8.720   7.174   8.563  1.2172  0.5145  1.8978
26823SOL    HW284512   8.835   7.270   8.546  0.4926  1.4104  1.9516
26824SOL     OW84513   6.571   5.611   1.404  0.1176 -0.2235 -0.1454
26824SOL    HW184514   6.533   5.530   1.370 -0.4429  0.6510 -1.6987
26824SOL    HW284515   6.524   5.626   1.487 -0.6466 -0.8518 -0.4481
26825SOL     OW84516   1.464   4.498  10.151 -0.1120  0.0291  0.4729
26825SOL    HW184517   1.376   4.513  10.115 -0.0268 -0.9416 -0.1847
26825SOL    HW284518   1.483   4.406  10.131  0.3989 -0.2501  2.0550
26826SOL     OW84519   3.130   7.414   0.586  0.1364  0.1550  0.1714
26826SOL    HW184520   3.214   7.450   0.612  0.9773 -1.5401 -0.0714
26826SOL    HW284521   3.080   7.408   0.667  0.5699  0.3491  0.4579
26827SOL     OW84522   5.617   2.090   0.833  0.5898  0.0861 -0.4001
26827SOL    HW184523   5.562   2.163   0.803  2.3119  1.2813 -0.7777
26827SOL    HW284524   5.555   2.019   0.850 -1.0831  1.4318 -0.6146
26828SOL     OW84525   8.077   9.727   2.399 -0.4367  0.0947 -0.7074
26828SOL    HW184526   8.090   9.761   2.488 -0.5984  0.3408 -0.7757
26828SOL    HW284527   8.142   9.773   2.346  0.2107 -0.6496 -0.5802
26829SOL     OW84528   6.304   0.852   0.276  0.2365 -0.4777  0.0513
26829SOL    HW184529   6.252   0.837   0.197  2.1907  0.2615 -1.4570
26829SOL    HW284530   6.297   0.946   0.293 -1.1190 -0.7960  1.5221
26830SOL     OW84531   3.567   0.946   1.740  0.1592 -0.5798  0.0865
26830SOL    HW184532   3.641   1.004   1.760  0.7887 -1.2268 -0.2956
26830SOL    HW284533   3.496   0.978   1.794  1.3089 -1.2401  2.0956
26831SOL     OW84534   3.384   9.571   5.346 -0.0146  0.2289 -0.0149
26831SOL    HW184535   3.299   9.534   5.368  0.1776  0.2776  0.8477
26831SOL    HW284536   3.369   9.665   5.341 -0.0503  0.2212 -0.0462
26832SOL     OW84537   6.103   3.537   2.735  0.5037  0.5225  0.2684
26832SOL    HW184538   6.166   3.551   2.665  1.0001 -1.7112  0.2213
26832SOL    HW284539   6.020   3.571   2.700  0.7265 -0.5904 -1.4458
26833SOL     OW84540   8.860   2.879   5.061 -0.4826  0.1975 -0.0356
26833SOL    HW184541   8.954   2.892   5.073 -0.6152  0.1581  1.0783
26833SOL    HW284542   8.854   2.792   5.021 -0.0942 -0.2219  0.7949
26834SOL     OW84543   8.717   3.632   3.449  0.4485  0.3808 -0.3535
26834SOL    HW184544   8.779   3.670   3.387  1.8869  1.9844  1.8969
26834SOL    HW284545   8.759   3.551   3.477  2.1454  1.9117  1.8572
26835SOL     OW84546   5.342   5.353   2.340 -0.0947 -0.0369 -0.2475
26835SOL    HW184547   5.353   5.340   2.434 -2.1881 -2.3221 -0.2206
26835SOL    HW284548   5.354   5.447   2.327 -2.7431  0.9135  2.8144
26836SOL     OW84549   1.365   4.701   9.530  0.5576 -0.0327 -0.1310
26836SOL    HW184550   1.337   4.615   9.562  0.9684  0.3344  1.2597
26836SOL    HW284551   1.438   4.681   9.471 -0.5014 -0.7431 -1.2565
26837SOL     OW84552   9.623   2.063  10.040  0.4781 -0.2264  0.2042
26837SOL    HW184553   9.570   1.983  10.032  0.4341 -0.0222 -2.6705
26837SOL    HW284554   9.713   2.032  10.047  0.4003 -0.5536 -0.2054
26838SOL     OW84555   7.033   1.488   1.200 -0.1197  0.1262  0.3165
26838SOL    HW184556   7.039   1.460   1.292 -1.2812 -1.6512 -0.1089
26838SOL    HW284557   6.946   1.526   1.192  0.7144  2.1297  0.3933
26839SOL     OW84558   4.846   9.324   9.260 -0.6948 -0.3220 -0.0946
26839SOL    HW184559   4.794   9.334   9.180 -0.2642 -0.6156 -0.4156
26839SOL    HW284560   4.928   9.370   9.241  0.0675 -1.7640 -0.4408
26840SOL     OW84561   1.080   2.317   5.193  0.1264 -0.2862 -0.5594
26840SOL    HW184562   1.027   2.323   5.272 -2.3164 -1.2837 -2.0081
26840SOL    HW284563   1.075   2.225   5.168  2.1263 -0.2929 -1.0850
26841SOL     OW84564   5.989   0.079   7.692 -0.2757  0.0754  0.4461
26841SOL    HW184565   5.908   0.046   7.653 -0.2875 -1.1686  1.4668
26841SOL    HW284566   6.058   0.023   7.657  0.3403  1.7498 -1.2057
26842SOL     OW84567   1.735   2.304   4.818  0.3566  0.3764  0.0248
26842SOL    HW184568   1.773   2.237   4.761 -1.2432 -1.1364  0.6555
26842SOL    HW284569   1.749   2.271   4.906 -0.1943  1.0236  0.3620
26843SOL     OW84570   2.259   6.839   7.381  0.5756  0.4694  0.1405
26843SOL    HW184571   2.266   6.932   7.359 -2.4373  0.2414 -2.6571
26843SOL    HW284572   2.179   6.810   7.336 -0.0869 -2.9228  3.0222
26844SOL     OW84573   7.277   2.483   0.709  0.1404 -0.4680  0.0785
26844SOL    HW184574   7.308   2.408   0.760  2.0904 -1.0309 -1.8222
26844SOL    HW284575   7.238   2.541   0.774  1.4838 -1.6531  2.0558
26845SOL     OW84576   9.649   4.708   6.626  0.3892  0.1446  0.8708
26845SOL    HW184577   9.689   4.690   6.711  1.3733  2.6963  1.0624
26845SOL    HW284578   9.649   4.804   6.620 -0.6274  0.0672 -1.5538
26846SOL     OW84579   5.658   7.770   1.817  0.1151  0.6966  0.0365
26846SOL    HW184580   5.686   7.710   1.748 -0.3400 -0.5088  0.8421
26846SOL    HW284581   5.596   7.828   1.775  0.8471  0.8524 -0.8609
26847SOL     OW84582   2.867   9.507   2.660 -0.4087 -0.3833 -0.2304
26847SOL    HW184583   2.794   9.551   2.617 -1.4760 -0.7323  1.1518
26847SOL    HW284584   2.849   9.414   2.651  0.3541 -0.5016 -0.6637
26848SOL     OW84585   9.383  10.182   1.454  0.1028  0.5295  0.2433
26848SOL    HW184586   9.288  10.173   1.443 -0.1228 -1.5626  2.8577
26848SOL    HW284587   9.421  10.125   1.387 -0.5907 -0.2083  0.4594
26849SOL     OW84588   5.588   9.886  10.039 -0.6173  0.0836  0.0994
26849SOL    HW184589   5.636   9.805  10.056 -0.1618  0.2784 -0.2319
26849SOL    HW284590   5.563   9.919  10.125  0.2544  0.2291  0.2969
26850SOL     OW84591   3.361   5.625   3.189 -0.1822 -0.3290  0.8461
26850SOL    HW184592   3.395   5.710   3.219 -0.4449  0.0511  0.0857
26850SOL    HW284593   3.404   5.561   3.246  2.5474  0.0441 -0.6568
26851SOL     OW84594   2.804   7.870   2.899  0.0861  0.3300 -0.1145
26851SOL    HW184595   2.715   7.843   2.921 -0.2410 -0.1187 -1.7749
26851SOL    HW284596   2.860   7.808   2.945 -0.5936 -1.6263 -1.7742
26852SOL     OW84597   9.086   0.415   4.116 -0.5238  0.1835 -0.2268
26852SOL    HW184598   9.056   0.379   4.200 -1.0598 -1.7394 -1.1874
26852SOL    HW284599   9.142   0.347   4.079  0.7179  1.5088 -0.9164
26853SOL     OW84600   8.500   3.560   8.381  0.1751  0.1026  0.1902
26853SOL    HW184601   8.446   3.638   8.391 -0.1469 -0.1516  0.4582
26853SOL    HW284602   8.588   3.588   8.409  0.2098  0.5482 -0.3647
26854SOL     OW84603   3.078   0.011   8.189  0.3504 -0.4168 -0.2684
26854SOL    HW184604   3.052  -0.072   8.149 -0.0901 -1.1448  1.4364
26854SOL    HW284605   3.062  -0.001   8.282 -1.7746  2.3266 -0.1541
26855SOL     OW84606   0.575   9.394   6.091 -0.2262  0.0998  0.5194
26855SOL    HW184607   0.493   9.432   6.122  0.5722  1.7840  0.6760
26855SOL    HW284608   0.620   9.368   6.172 -1.1323 -2.1152  0.3893
26856SOL     OW84609   4.528   9.510   9.640  0.2120  0.1161  0.4180
26856SOL    HW184610   4.586   9.455   9.587 -0.9369 -1.2362  0.5081
26856SOL    HW284611   4.586   9.576   9.677  1.2893  0.2665 -1.3831
26857SOL     OW84612   3.092   9.430   6.750 -0.2357  0.0960 -0.4534
26857SOL    HW184613   3.025   9.482   6.704 -1.4350  0.7866  1.8959
26857SOL    HW284614   3.071   9.339   6.729 -0.2169  0.3953 -1.8873
26858SOL     OW84615   0.956   2.091   0.657 -0.6404 -0.3739 -0.1852
26858SOL    HW184616   0.997   2.175   0.640 -3.8784  1.4629  0.3487
26858SOL    HW284617   0.971   2.074   0.750 -0.2328 -0.2339 -0.2272
26859SOL     OW84618   2.483   5.132   6.269  0.4153 -0.0344 -0.2211
26859SOL    HW184619   2.506   5.084   6.349  1.9323  0.8024 -0.1310
26859SOL    HW284620   2.415   5.193   6.298 -0.7183 -1.2787 -0.1010
26860SOL     OW84621   1.355   3.805   6.180 -0.1038  0.0253  0.0667
26860SOL    HW184622   1.278   3.754   6.155  0.2473 -0.6858  0.3959
26860SOL    HW284623   1.384   3.766   6.263 -0.0985  1.0656  0.5695
26861SOL     OW84624   8.727   8.794   4.441 -0.0933  0.1681  0.0199
26861SOL    HW184625   8.817   8.794   4.474  0.9454 -1.6142 -2.5185
26861SOL    HW284626   8.706   8.702   4.429 -2.6292  0.4899  1.2699
26862SOL     OW84627   4.660   4.303   3.174  0.2108 -0.5071  0.3502
26862SOL    HW184628   4.608   4.254   3.110  0.6698 -1.0096  0.3625
26862SOL    HW284629   4.695   4.237   3.234  0.5657 -0.1384  0.5564
26863SOL     OW84630  10.098   2.265   7.937  0.2498 -0.2269 -0.1506
26863SOL    HW184631  10.020   2.211   7.931  0.0311  0.1115 -0.3410
26863SOL    HW284632  10.142   2.254   7.853  1.2816 -1.7277  0.5295
26864SOL     OW84633   9.893   9.513   4.009 -0.0611  0.6652 -0.6185
26864SOL    HW184634   9.797   9.516   4.007 -0.0630  0.5530 -0.6989
26864SOL    HW284635   9.917   9.569   4.082 -0.3119 -2.0236  1.6949
26865SOL     OW84636   7.727   9.691   2.560  0.3087 -0.0448  0.5705
26865SOL    HW184637   7.800   9.707   2.621  0.5958  2.6115 -0.3586
26865SOL    HW284638   7.767   9.642   2.488  0.8408  0.0974  0.7587
26866SOL     OW84639   9.602   8.370  10.001  0.0250 -0.3925  0.2174
26866SOL    HW184640   9.677   8.357  10.059 -0.2079 -0.6160  0.4735
26866SOL    HW284641   9.552   8.440  10.043 -0.8566 -1.4607  1.0332
26867SOL     OW84642   7.405   8.254   4.536  0.4224  0.9080 -0.3232
26867SOL    HW184643   7.409   8.272   4.630 -1.2873 -0.0196 -0.0254
26867SOL    HW284644   7.463   8.179   4.523  0.7732  1.1276 -0.0383
26868SOL     OW84645   7.184   8.053   5.026  0.1268 -0.0069  0.1811
26868SOL    HW184646   7.244   8.109   5.075 -0.9043  1.0748  0.2621
26868SOL    HW284647   7.156   8.107   4.952  0.5860 -1.1199 -0.8249
26869SOL     OW84648   4.434   4.451   3.246 -0.0931 -0.2797  0.3942
26869SOL    HW184649   4.507   4.418   3.195 -0.9301  1.3757 -2.0614
26869SOL    HW284650   4.397   4.373   3.288  2.1398 -1.3423  0.5284
26870SOL     OW84651   8.773   4.930   3.634  0.5851 -0.3748 -0.4902
26870SOL    HW184652   8.732   4.874   3.700 -0.0926  0.6934  0.0247
26870SOL    HW284653   8.847   4.880   3.602 -0.6751 -2.0651 -0.9069
26871SOL     OW84654   0.020   4.031   7.648 -0.4120  0.1960 -0.1814
26871SOL    HW184655   0.085   4.094   7.680 -0.6181 -1.2973  3.7103
26871SOL    HW284656  -0.049   4.032   7.713 -1.1948 -2.8702 -0.8011
26872SOL     OW84657   0.152   3.442   0.289  0.2010  0.2747 -0.5430
26872SOL    HW184658   0.229   3.387   0.306 -1.5226 -2.4868 -1.1305
26872SOL    HW284659   0.165   3.518   0.346  1.2939 -2.1118  2.7330
26873SOL     OW84660   8.249  10.188   5.169 -0.3121 -0.5614 -0.0819
26873SOL    HW184661   8.335  10.205   5.130 -0.6976 -1.4111 -1.3805
26873SOL    HW284662   8.242  10.250   5.242  1.1447 -0.0752 -0.3353
26874SOL     OW84663   1.121   4.217   9.865 -0.1984 -0.8364 -0.3406
26874SOL    HW184664   1.039   4.220   9.915  0.7879  2.6263  1.3557
26874SOL    HW284665   1.174   4.151   9.910 -0.9423 -0.9067  0.4611
26875SOL     OW84666   3.583   4.469   7.571 -0.5575 -0.0366 -0.0098
26875SOL    HW184667   3.590   4.493   7.663  1.0222  1.0273 -0.3658
26875SOL    HW284668   3.666   4.423   7.553 -1.7381 -2.1603 -0.4032
26876SOL     OW84669   7.074   3.766   8.511 -0.0442  0.0016  0.1056
26876SOL    HW184670   7.146   3.815   8.470 -0.6170 -0.1696 -1.1609
26876SOL    HW284671   7.112   3.681   8.533  0.2667  0.0729 -0.1455
26877SOL     OW84672   8.095   4.135   3.254  0.2701  0.5712 -0.0480
26877SOL    HW184673   8.067   4.226   3.241  0.7757  1.0227  1.7624
26877SOL    HW284674   8.091   4.122   3.349  1.5258 -0.8654 -0.1585
26878SOL     OW84675   8.186   5.886   0.923  0.1003  0.0224 -0.2554
26878SOL    HW184676   8.263   5.939   0.941  0.9700 -1.3449  0.1574
26878SOL    HW284677   8.149   5.867   1.010  0.6231 -1.2156 -0.2834
26879SOL     OW84678   2.147   8.907   5.821  0.4335 -0.2558 -0.2903
26879SOL    HW184679   2.099   8.846   5.764 -0.6524  0.3742 -0.0892
26879SOL    HW284680   2.083   8.931   5.889  1.3683 -0.1581  0.5728
26880SOL     OW84681   8.664   9.632   1.663 -0.5204 -0.7087 -0.0565
26880SOL    HW184682   8.701   9.659   1.579 -1.1303 -0.1884 -0.1758
26880SOL    HW284683   8.739   9.609   1.717 -0.0778 -0.3792 -0.5220
26881SOL     OW84684  10.131   8.165   1.755 -0.1458  0.0209 -0.5015
26881SOL    HW184685  10.139   8.260   1.740 -0.7626  0.2096  0.3239
26881SOL    HW284686  10.195   8.147   1.825 -0.8657  0.0451  0.1736
26882SOL     OW84687   9.133   0.839   1.345 -0.1758 -0.5262 -0.0155
26882SOL    HW184688   9.209   0.877   1.300  0.3081 -0.0336  1.1504
26882SOL    HW284689   9.171   0.789   1.417 -0.8788 -2.1950 -0.7604
26883SOL     OW84690   7.516   8.222   7.314 -0.2749  0.2408  0.2073
26883SOL    HW184691   7.481   8.216   7.403 -0.0391 -0.6998  0.2447
26883SOL    HW284692   7.465   8.292   7.273 -1.2993 -0.2243  0.6583
26884SOL     OW84693   7.674   8.876   9.458  0.4400 -0.1506  0.1996
26884SOL    HW184694   7.703   8.787   9.474  0.6178 -0.0802  0.2728
26884SOL    HW284695   7.695   8.923   9.539 -0.2997 -0.2013  0.4351
26885SOL     OW84696   8.834   2.763   0.865 -0.3894 -0.0074 -0.1877
26885SOL    HW184697   8.911   2.707   0.865 -1.1857 -1.1947 -1.5341
26885SOL    HW284698   8.815   2.777   0.772 -2.2999 -0.5030  0.0839
26886SOL     OW84699   0.519   4.253   3.600 -0.5263 -0.4366 -0.0562
26886SOL    HW184700   0.600   4.221   3.560 -1.0446  0.3515 -1.7780
26886SOL    HW284701   0.519   4.212   3.687  0.5954 -2.2713 -0.8441
26887SOL     OW84702   5.703  10.272   5.512 -0.4090  0.3716  0.5534
26887SOL    HW184703   5.729  10.191   5.467 -0.9720  0.7177 -0.4122
26887SOL    HW284704   5.623  10.249   5.558 -0.5256  0.3538  0.3442
26888SOL     OW84705   8.747   7.193   4.041 -0.7327  0.4035  0.1094
26888SOL    HW184706   8.729   7.117   3.985 -0.3276  0.0355  0.4629
26888SOL    HW284707   8.749   7.156   4.130 -0.3998  0.8079  0.2708
26889SOL     OW84708   7.462   1.499   6.201  0.2084  0.3382 -0.3905
26889SOL    HW184709   7.459   1.530   6.110 -2.8765  0.6968 -0.2603
26889SOL    HW284710   7.504   1.570   6.249  0.6237  0.7367 -1.3166
26890SOL     OW84711   6.757   1.613   8.032 -0.3921 -0.0217 -0.1295
26890SOL    HW184712   6.712   1.560   7.967 -1.0667  0.7844 -0.3460
26890SOL    HW284713   6.819   1.553   8.074  0.5228 -0.4113 -1.9412
26891SOL     OW84714   2.817   8.705   3.401 -0.5123  0.1960 -0.5452
26891SOL    HW184715   2.760   8.635   3.369 -1.0921  0.3595  0.1029
26891SOL    HW284716   2.895   8.700   3.346 -1.1507 -0.0352 -1.4444
26892SOL     OW84717   0.281   9.783   4.172  0.1435 -0.2785  0.1605
26892SOL    HW184718   0.222   9.837   4.119 -0.7210 -3.0492 -1.9281
26892SOL    HW284719   0.303   9.839   4.247 -2.1561  2.2323 -0.8458
26893SOL     OW84720   2.409   3.088   2.456  0.5004  0.3714  0.2953
26893SOL    HW184721   2.501   3.063   2.465  0.4072 -0.6652 -1.0922
26893SOL    HW284722   2.410   3.164   2.398  0.4745  0.0630 -0.1180
26894SOL     OW84723   3.115   8.593   3.366  0.1458  0.4877  0.2218
26894SOL    HW184724   3.204   8.562   3.384  0.3309 -0.2929 -1.7733
26894SOL    HW284725   3.078   8.527   3.308 -1.0879  1.7104 -0.4484
26895SOL     OW84726   0.885   5.516   8.131 -0.3702  0.4157 -0.3850
26895SOL    HW184727   0.957   5.459   8.104 -1.5751 -0.8598 -1.0139
26895SOL    HW284728   0.907   5.602   8.093  0.3035 -0.2075 -1.4720
26896SOL     OW84729   7.314   1.644   1.288  0.6834  0.1735 -0.0657
26896SOL    HW184730   7.384   1.598   1.241 -1.4861 -2.8190 -0.6462
26896SOL    HW284731   7.274   1.701   1.223  0.7124 -0.3173 -0.5113
26897SOL     OW84732   2.896   6.023   6.261 -0.6212  0.1545 -0.9838
26897SOL    HW184733   2.925   6.050   6.348  0.9136 -1.3747 -0.9740
26897SOL    HW284734   2.919   6.098   6.205 -2.3530  1.4908 -0.0284
26898SOL     OW84735   0.248   2.858   6.321 -0.1976 -0.1915  0.6016
26898SOL    HW184736   0.295   2.915   6.381 -0.0518  0.2951  0.0361
26898SOL    HW284737   0.159   2.893   6.319  0.1495  0.6634 -0.5369
26899SOL     OW84738   9.536   9.283   4.925  0.0292  0.1285 -0.1375
26899SOL    HW184739   9.485   9.290   4.845 -0.5254  0.6199  0.2500
26899SOL    HW284740   9.491   9.216   4.977  1.3315 -1.4252 -0.9034
26900SOL     OW84741   8.981   6.077   7.947 -0.9982 -0.0163 -0.3452
26900SOL    HW184742   8.917   6.078   7.876 -2.1944  1.2300  0.6966
26900SOL    HW284743   9.059   6.120   7.911 -1.4804  0.3236 -0.9924
26901SOL     OW84744   4.743  10.232   1.746  0.1984 -0.0277  0.1852
26901SOL    HW184745   4.708  10.238   1.657  2.1542  2.3828 -0.5473
26901SOL    HW284746   4.675  10.271   1.801 -0.6495 -0.7209 -0.3272
26902SOL     OW84747   3.633   9.765   4.081  0.0028  0.0502  0.3640
26902SOL    HW184748   3.710   9.782   4.027  0.7051 -0.8959  1.0260
26902SOL    HW284749   3.563   9.817   4.041  0.5821 -0.3432 -1.2240
26903SOL     OW84750   5.488   2.513   7.259 -0.3957 -1.3640 -0.1176
26903SOL    HW184751   5.514   2.503   7.168 -2.3723 -2.7867 -0.5953
26903SOL    HW284752   5.434   2.592   7.260  0.1586 -0.9863 -0.0500
26904SOL     OW84753   2.064   1.320   7.796 -0.1552 -0.0343 -0.0414
26904SOL    HW184754   2.062   1.253   7.864  1.9081 -0.9894 -0.8266
26904SOL    HW284755   2.004   1.288   7.729 -0.4105 -0.2834  0.3046
26905SOL     OW84756   5.980   7.785   1.646 -0.3432  0.7353  0.0246
26905SOL    HW184757   5.969   7.708   1.702 -0.1070  1.0760  0.5448
26905SOL    HW284758   6.073   7.784   1.622 -0.7391 -0.2679 -1.6357
26906SOL     OW84759   6.440   0.581   4.827  0.3156  0.4311 -0.2321
26906SOL    HW184760   6.356   0.544   4.801  0.7897 -0.5185 -0.5109
26906SOL    HW284761   6.482   0.511   4.878  0.4660  1.3173  0.9039
26907SOL     OW84762   0.507   3.783   5.749  0.1950  0.8556 -0.1213
26907SOL    HW184763   0.595   3.820   5.746 -0.2220  1.8188 -1.9813
26907SOL    HW284764   0.470   3.801   5.662 -1.5652 -0.2076  0.3464
26908SOL     OW84765   5.540   5.087   2.511  0.3877  0.1739  0.7462
26908SOL    HW184766   5.566   5.139   2.435  1.9205 -0.1605  1.0097
26908SOL    HW284767   5.475   5.141   2.556 -0.9107  0.1790 -1.0229
26909SOL     OW84768   7.409   8.908   0.846  0.7887 -0.8600 -0.0961
26909SOL    HW184769   7.391   8.938   0.935 -2.8987  0.1646 -1.0085
26909SOL    HW284770   7.449   8.822   0.858  1.3272 -0.3443  2.5175
26910SOL     OW84771   6.033   2.925   8.505  0.1137 -0.1454 -0.3024
26910SOL    HW184772   5.991   2.936   8.590  0.2337 -0.0771 -0.2517
26910SOL    HW284773   6.028   2.831   8.487 -1.4850  0.0481 -1.0302
26911SOL     OW84774   6.917   8.542   4.388  0.3438 -0.0930 -0.2519
26911SOL    HW184775   6.952   8.545   4.299 -0.3950  0.4574 -0.5339
26911SOL    HW284776   6.937   8.629   4.424  0.2690 -0.1698 -0.0263
26912SOL     OW84777   0.944   8.310   5.115 -0.3325 -0.0833 -0.2770
26912SOL    HW184778   0.940   8.263   5.032  1.4272 -2.3230  0.7840
26912SOL    HW284779   0.952   8.241   5.181 -0.1977  1.6583  1.6314
26913SOL     OW84780   0.086   4.990   9.217 -0.0433  0.1037  0.0956
26913SOL    HW184781   0.096   5.081   9.188 -0.3526  0.2294  0.3678
26913SOL    HW284782   0.011   4.958   9.166  1.1303 -0.5590 -1.2997
26914SOL     OW84783   3.527   3.159   3.239  0.7789 -0.3221  0.2553
26914SOL    HW184784   3.546   3.245   3.277 -2.1685  0.2408  0.7023
26914SOL    HW284785   3.490   3.108   3.311 -0.1586 -0.9648 -0.6390
26915SOL     OW84786   1.539   3.031   0.200 -0.5993 -0.1363  1.2878
26915SOL    HW184787   1.552   3.003   0.291  0.8917 -1.5554  0.6927
26915SOL    HW284788   1.446   3.016   0.184 -0.7277 -0.6081  2.3424
26916SOL     OW84789   3.170   8.438   4.892  0.0704  0.0917  0.2394
26916SOL    HW184790   3.163   8.515   4.837 -1.6813 -0.0351  0.2325
26916SOL    HW284791   3.182   8.365   4.831 -2.3177 -0.1074 -0.0704
26917SOL     OW84792   8.306   9.318   3.260  0.0278  0.0813  0.2977
26917SOL    HW184793   8.326   9.230   3.293 -1.3753 -0.3238  0.1470
26917SOL    HW284794   8.311   9.374   3.337  1.5458 -0.0109  0.2843
26918SOL     OW84795   9.340   0.350   8.550 -0.0309  0.1216  0.0902
26918SOL    HW184796   9.256   0.333   8.508  0.5404 -1.6660 -0.4075
26918SOL    HW284797   9.365   0.266   8.589  0.8619  0.9838  1.4805
26919SOL     OW84798   0.328   3.213   2.977 -0.2422  0.0235 -0.0895
26919SOL    HW184799   0.343   3.119   2.977 -0.6735 -0.0510 -0.6326
26919SOL    HW284800   0.236   3.222   3.004  0.2270  0.3746  1.4844
26920SOL     OW84801   4.865  10.220   5.184  0.1165 -0.3544  0.1299
26920SOL    HW184802   4.832  10.222   5.274  0.4327 -1.9178  0.3146
26920SOL    HW284803   4.790  10.190   5.132 -0.4633  1.7742 -0.3709
26921SOL     OW84804   8.731   1.255   2.395  0.3219  0.5662 -0.6980
26921SOL    HW184805   8.795   1.198   2.352  0.1914  0.7201 -1.0967
26921SOL    HW284806   8.654   1.200   2.408  0.3745  0.5098 -0.6250
26922SOL     OW84807   2.933   7.571   9.454 -0.0787 -0.3288 -0.2182
26922SOL    HW184808   2.878   7.493   9.461  0.2001 -0.5096  0.0264
26922SOL    HW284809   2.986   7.557   9.376  0.3049 -0.6096  0.0852
26923SOL     OW84810   7.988   2.657   4.803  0.2827  0.1492  0.3201
26923SOL    HW184811   8.055   2.599   4.838  0.9530  0.0252 -1.1062
26923SOL    HW284812   7.994   2.736   4.857  0.3053 -0.5399  1.3715
26924SOL     OW84813   0.944   2.433   4.942 -0.2738  1.0309  0.2009
26924SOL    HW184814   1.002   2.403   5.011 -0.1034 -0.2812 -0.4856
26924SOL    HW284815   0.937   2.359   4.882 -3.7436  0.6000  0.9217
26925SOL     OW84816   6.385   2.382   2.236  0.0550 -0.2334 -0.8029
26925SOL    HW184817   6.376   2.302   2.184  0.0959  0.8665 -2.5877
26925SOL    HW284818   6.323   2.443   2.196 -0.7224  0.3484  1.1650
26926SOL     OW84819   9.091   4.111   3.565 -0.4428 -0.8287 -0.6025
26926SOL    HW184820   9.148   4.100   3.641  1.3636  0.0457 -1.7637
26926SOL    HW284821   9.030   4.037   3.571 -0.3115 -0.8390  1.6119
26927SOL     OW84822   7.063   8.561   9.936  0.0116 -0.5091 -0.4775
26927SOL    HW184823   7.040   8.612   9.859  0.7970 -0.0480 -0.4149
26927SOL    HW284824   7.007   8.594  10.006  0.6249  0.3916 -0.3991
26928SOL     OW84825   9.558   5.597   1.404 -0.5448 -0.1539  0.2146
26928SOL    HW184826   9.520   5.676   1.367 -0.1361  0.1530  0.4363
26928SOL    HW284827   9.603   5.555   1.331  0.3861  0.5256  0.3766
26929SOL     OW84828   4.568   9.840   2.435 -0.2096 -0.7578 -0.0320
26929SOL    HW184829   4.597   9.890   2.359 -0.7133  1.3581  1.0613
26929SOL    HW284830   4.620   9.760   2.434 -0.0416 -0.6772 -2.4347
26930SOL     OW84831   8.398   6.311   3.202 -0.4265 -0.2042 -0.5408
26930SOL    HW184832   8.349   6.306   3.120  0.4237 -2.0641 -0.9871
26930SOL    HW284833   8.484   6.275   3.181 -0.7716 -2.5284  1.5342
26931SOL     OW84834   0.187   4.255   7.966  0.4537  0.1949  0.2983
26931SOL    HW184835   0.204   4.315   8.039  2.8020 -0.5639  0.4538
26931SOL    HW284836   0.094   4.266   7.947  0.2078  1.8084  2.1499
26932SOL     OW84837   1.214   6.637   9.886 -0.4179 -0.7313  0.1889
26932SOL    HW184838   1.126   6.640   9.848 -1.3612 -0.4675  2.2417
26932SOL    HW284839   1.245   6.727   9.881 -0.8439 -0.5484  0.6588
26933SOL     OW84840   4.113   8.318   6.629 -0.7324 -0.1045  0.1053
26933SOL    HW184841   4.019   8.304   6.640 -0.6287 -1.3766 -0.4668
26933SOL    HW284842   4.139   8.367   6.707 -1.6978 -0.5993  0.7605
26934SOL     OW84843   9.555   8.737   3.239 -0.1900 -0.0982  0.0520
26934SOL    HW184844   9.545   8.694   3.324  0.3051 -0.1212  0.1017
26934SOL    HW284845   9.647   8.725   3.216 -0.0696  0.8083  0.0007
26935SOL     OW84846   7.138   4.783   5.854 -0.0761  0.9122 -0.3489
26935SOL    HW184847   7.147   4.876   5.876 -1.7428  1.7133 -2.6765
26935SOL    HW284848   7.047   4.774   5.826 -0.5595 -1.9412  1.8355
26936SOL     OW84849   8.127   9.884   5.804 -0.1662  0.5857 -0.5447
26936SOL    HW184850   8.156   9.875   5.713 -0.8203 -0.6788 -0.6602
26936SOL    HW284851   8.036   9.853   5.803  0.3053 -1.0018  0.7948
26937SOL     OW84852   7.004   1.583   0.531 -1.1706 -0.0324 -0.5856
26937SOL    HW184853   6.978   1.663   0.575  0.9583 -0.4782  1.6819
26937SOL    HW284854   7.082   1.607   0.480  0.5852 -0.8971  1.5227
26938SOL     OW84855   0.244   0.108   4.622  0.1758 -0.3024 -0.0112
26938SOL    HW184856   0.285   0.058   4.551  4.8380 -0.2111  2.1996
26938SOL    HW284857   0.259   0.199   4.598  0.3912 -0.2387  0.3594
26939SOL     OW84858   7.466   1.040   4.026 -0.6010  0.2957 -0.0246
26939SOL    HW184859   7.460   1.030   4.121  0.6728 -0.2064  0.0177
26939SOL    HW284860   7.380   1.013   3.994 -0.9138  0.0954  0.9556
26940SOL     OW84861   5.166   9.024   7.240 -0.2319  0.2087 -0.8161
26940SOL    HW184862   5.194   9.048   7.152 -1.1847  1.0853 -0.8868
26940SOL    HW284863   5.248   9.006   7.287  0.3603  1.1193 -1.4778
26941SOL     OW84864   8.530  10.008   4.424  0.5541  0.1150  0.4914
26941SOL    HW184865   8.534  10.088   4.477 -0.7941  1.0603 -0.7345
26941SOL    HW284866   8.598  10.019   4.358  0.9017 -0.1248  0.8100
26942SOL     OW84867   9.516   0.626   3.267  0.5433  0.4694 -0.1384
26942SOL    HW184868   9.427   0.653   3.242  0.2094  0.4322  0.9438
26942SOL    HW284869   9.531   0.669   3.351  0.0830 -2.4075  1.5500
26943SOL     OW84870   6.891   2.700   9.987 -0.2070 -0.3375 -0.1060
26943SOL    HW184871   6.811   2.661   9.952  0.4005 -0.9723 -0.8292
26943SOL    HW284872   6.888   2.792   9.957 -1.1010 -0.1147  0.6550
26944SOL     OW84873   5.020   2.106   1.415  0.2420  0.0174 -0.5044
26944SOL    HW184874   5.092   2.151   1.370  2.3975  0.0532  2.6642
26944SOL    HW284875   4.973   2.175   1.460  0.8674 -0.3827  0.8177
26945SOL     OW84876   1.816   7.270   7.836 -0.1384 -0.1718  0.4300
26945SOL    HW184877   1.786   7.262   7.746 -0.1400  2.1616  0.1533
26945SOL    HW284878   1.737   7.259   7.889 -0.6601  1.1514 -0.0353
26946SOL     OW84879   8.797   2.773   8.695  0.0446 -0.2623  0.2223
26946SOL    HW184880   8.871   2.817   8.736 -0.3742  0.2979  0.3712
26946SOL    HW284881   8.838   2.717   8.628  0.6657 -0.6293  0.8900
26947SOL     OW84882   5.941   2.003   8.544 -0.1088 -0.2519 -0.0182
26947SOL    HW184883   5.880   2.047   8.602  0.7458  0.0478  0.6682
26947SOL    HW284884   5.902   1.917   8.530  0.2347 -0.7966  1.9954
26948SOL     OW84885   1.271   4.501   3.820 -0.1426 -0.0489 -0.3882
26948SOL    HW184886   1.182   4.502   3.855 -0.7875 -0.9598 -1.9298
26948SOL    HW284887   1.327   4.491   3.897 -1.3800  0.2607  0.5784
26949SOL     OW84888   2.246   3.970   2.076  0.3796  0.4222 -0.0601
26949SOL    HW184889   2.240   4.064   2.092 -4.4884  0.5751 -1.4055
26949SOL    HW284890   2.283   3.963   1.988  2.1994  0.8868  0.6205
26950SOL     OW84891   6.440   8.755   9.806  0.3714  0.4334 -0.0419
26950SOL    HW184892   6.487   8.677   9.836  0.1004 -0.1266 -1.0398
26950SOL    HW284893   6.472   8.770   9.717 -0.0567  1.0863 -0.0953
26951SOL     OW84894   6.962   6.910   2.407  0.0996  0.3141 -0.5322
26951SOL    HW184895   6.923   6.993   2.432 -0.3543 -0.0959  0.1816
26951SOL    HW284896   6.887   6.853   2.387  0.4161  0.2079 -1.4544
26952SOL     OW84897   7.693   3.489   0.903 -0.5368  0.2767 -0.4101
26952SOL    HW184898   7.722   3.405   0.866 -1.3122  0.3704 -1.2632
26952SOL    HW284899   7.774   3.538   0.917  0.0350 -1.1011  1.3497
26953SOL     OW84900   2.151   6.078   5.589 -0.1233  0.0576 -0.2525
26953SOL    HW184901   2.235   6.079   5.636  1.0323 -2.0346 -2.0934
26953SOL    HW284902   2.136   6.171   5.568  1.1546  0.6159  1.0704
26954SOL     OW84903   2.069   6.207   6.059 -0.0073  0.1376 -0.1082
26954SOL    HW184904   2.103   6.284   6.013  1.1586 -1.1172 -1.4816
26954SOL    HW284905   2.031   6.153   5.990  0.0105 -0.9170  0.6780
26955SOL     OW84906   8.938   2.274   5.072 -0.9659  0.3776 -0.2817
26955SOL    HW184907   8.854   2.284   5.117 -1.6494 -1.4050 -1.0701
26955SOL    HW284908   8.976   2.195   5.110  1.2061  2.0790  1.2840
26956SOL     OW84909   2.341   0.176   7.741  0.2121  0.2904  0.0356
26956SOL    HW184910   2.406   0.108   7.757  1.8279  1.4418 -1.2599
26956SOL    HW284911   2.306   0.197   7.827 -0.0071 -1.8275  0.5175
26957SOL     OW84912   3.540   3.213   5.551 -0.0537 -0.1244  0.3709
26957SOL    HW184913   3.510   3.188   5.464 -1.2558  0.9982  0.4359
26957SOL    HW284914   3.612   3.152   5.570 -1.6769 -2.3210 -0.1589
26958SOL     OW84915   9.541   8.431   5.017 -0.2478 -0.1348 -0.1019
26958SOL    HW184916   9.452   8.409   5.046  0.7407 -2.0429  1.7347
26958SOL    HW284917   9.582   8.470   5.093  0.4284  1.0814 -1.0508
26959SOL     OW84918   2.058   8.495   5.834  0.8505 -0.4808  0.0420
26959SOL    HW184919   2.042   8.589   5.822  0.4539 -0.3125  1.6587
26959SOL    HW284920   2.044   8.457   5.748 -1.1333  0.6702 -0.2138
26960SOL     OW84921   1.215   5.482   2.468 -0.0018  0.0533 -0.5856
26960SOL    HW184922   1.176   5.527   2.543  0.5166 -0.0654 -0.2366
26960SOL    HW284923   1.160   5.405   2.455  1.4349 -1.4145  1.4074
26961SOL     OW84924   8.412   9.341   9.999 -0.3696  0.2839 -0.2253
26961SOL    HW184925   8.404   9.306   9.910  0.3297  0.0451 -0.1938
26961SOL    HW284926   8.506   9.345  10.016 -0.5053 -0.1457  0.6959
26962SOL     OW84927   9.098   7.835   9.303 -0.0527 -0.1846 -0.0729
26962SOL    HW184928   9.191   7.845   9.283  0.0470  1.2034  0.9081
26962SOL    HW284929   9.070   7.759   9.251  1.3053  0.1805 -1.4266
26963SOL     OW84930   8.055  10.003   0.826  0.3397  0.0364  0.6331
26963SOL    HW184931   8.048  10.042   0.913  0.2737  1.4760  0.0044
26963SOL    HW284932   7.966   9.971   0.807  0.0782  0.7707  0.6127
26964SOL     OW84933   5.456   0.203   4.753  0.1562 -0.2960  0.1999
26964SOL    HW184934   5.475   0.176   4.843  0.6167 -0.3875  0.0770
26964SOL    HW284935   5.388   0.270   4.761 -0.0214 -0.5258  0.5956
26965SOL     OW84936   6.612   1.158   1.106 -0.1646  0.0195 -0.3659
26965SOL    HW184937   6.618   1.076   1.058  0.9284 -0.6767  0.8705
26965SOL    HW284938   6.670   1.146   1.181  0.3046  2.0643 -0.3370
26966SOL     OW84939   2.846   3.043   3.586 -0.4614  0.4898 -0.3617
26966SOL    HW184940   2.872   3.116   3.642 -3.0668  0.9380  0.3686
26966SOL    HW284941   2.917   2.979   3.595  0.8431  2.0081  0.6681
26967SOL     OW84942   3.588   6.545   4.844 -0.6846 -0.4717 -0.1743
26967SOL    HW184943   3.520   6.509   4.902  0.0792 -0.7779  0.5529
26967SOL    HW284944   3.618   6.469   4.794 -0.0976 -0.5679  0.3135
26968SOL     OW84945   4.532   4.346   0.920 -0.0207 -0.0288 -0.1195
26968SOL    HW184946   4.501   4.266   0.878  0.1780  0.0367 -0.3959
26968SOL    HW284947   4.561   4.317   1.007  1.8513 -0.6364 -0.8879
26969SOL     OW84948  10.173   0.528   3.458  0.1499 -0.2396  0.2380
26969SOL    HW184949  10.213   0.518   3.372 -0.3330  0.0965 -0.0330
26969SOL    HW284950  10.223   0.470   3.515 -0.8937 -2.1890 -0.7111
26970SOL     OW84951   5.948   6.098   8.151  0.5432 -0.5897  0.5138
26970SOL    HW184952   5.933   6.118   8.244 -2.7800 -1.4304  0.2922
26970SOL    HW284953   6.013   6.028   8.152 -0.6265 -1.7306  2.3736
26971SOL     OW84954   1.489   1.449   9.070 -0.3342 -0.5797 -0.0592
26971SOL    HW184955   1.468   1.524   9.126  0.9008 -0.1242 -0.1840
26971SOL    HW284956   1.408   1.397   9.068 -1.3592  0.9528 -0.3128
26972SOL     OW84957   9.933   3.229   8.792 -0.4767 -0.2904  0.2940
26972SOL    HW184958   9.983   3.308   8.772 -1.0258  0.2615  1.0481
26972SOL    HW284959   9.992   3.157   8.771 -1.0160  0.1660 -3.5473
26973SOL     OW84960   7.612   4.593   3.086  0.3142 -0.1427  0.1617
26973SOL    HW184961   7.565   4.510   3.077 -0.9216  0.2097  2.5921
26973SOL    HW284962   7.615   4.628   2.997 -3.4976 -0.5170 -0.2853
26974SOL     OW84963   5.093   9.031   2.375 -0.7368  0.1568 -0.3386
26974SOL    HW184964   5.065   9.108   2.424  1.1904 -0.6565  2.2428
26974SOL    HW284965   5.187   9.042   2.363  0.3600 -3.1303  3.1295
26975SOL     OW84966   3.153   4.091   2.534  0.3298 -0.1992  0.1678
26975SOL    HW184967   3.077   4.137   2.569 -1.1674 -2.3935 -0.0025
26975SOL    HW284968   3.170   4.021   2.597  0.7428 -1.1205 -0.9294
26976SOL     OW84969   6.741   3.099   2.369  0.1796 -0.3645  0.2670
26976SOL    HW184970   6.718   3.190   2.385  4.0470  0.7747  0.3324
26976SOL    HW284971   6.800   3.076   2.441  1.2304 -2.0891 -1.0472
26977SOL     OW84972   0.928   5.249   4.812 -0.1758 -0.4974  0.1161
26977SOL    HW184973   0.941   5.339   4.840  2.0158 -1.1049  1.2476
26977SOL    HW284974   1.016   5.212   4.805 -0.9366 -2.1727 -1.7198
26978SOL     OW84975   4.691   9.326   4.647 -0.1659 -0.0477 -0.6084
26978SOL    HW184976   4.650   9.396   4.698  2.4542  1.7023 -0.6518
26978SOL    HW284977   4.725   9.265   4.712 -2.0203 -1.0845 -0.5529
26979SOL     OW84978   6.603   1.012   3.632  0.1511 -0.2617 -0.1673
26979SOL    HW184979   6.515   1.018   3.668 -0.0913  0.9202 -0.9013
26979SOL    HW284980   6.630   0.922   3.649 -1.3116 -0.7310 -0.2303
26980SOL     OW84981   9.453   2.589   9.026  0.3379 -0.2749 -0.0686
26980SOL    HW184982   9.463   2.658   9.092  1.2494  0.1553 -0.6468
26980SOL    HW284983   9.392   2.626   8.962  1.9536  0.6040 -1.1495
26981SOL     OW84984   9.598   8.062  10.085  0.3499  0.3338  0.2808
26981SOL    HW184985   9.538   8.123  10.041  1.8794  0.7757 -1.3113
26981SOL    HW284986   9.591   7.981  10.035 -0.0508 -0.1101  1.0448
26982SOL     OW84987   5.485   5.018   3.023  0.0087 -0.4563 -0.6439
26982SOL    HW184988   5.555   5.081   3.010 -0.8259  0.5926 -0.2189
26982SOL    HW284989   5.515   4.939   2.978  1.1321  0.1874 -1.0715
26983SOL     OW84990   9.640   5.265   0.345  0.4478 -0.1643  0.3999
26983SOL    HW184991   9.574   5.321   0.304 -0.0213  1.0185  2.6080
26983SOL    HW284992   9.600   5.178   0.346  0.7286 -0.4149 -2.0637
26984SOL     OW84993   8.974   8.657   4.523 -0.1953 -0.0879  0.0218
26984SOL    HW184994   8.997   8.568   4.551  0.7497 -0.7448 -2.5528
26984SOL    HW284995   9.056   8.692   4.487 -0.3063  2.2454  1.8068
26985SOL     OW84996   3.631   7.025   9.630 -0.0562 -0.0707  0.0156
26985SOL    HW184997   3.662   6.951   9.683 -0.9036 -1.6874 -1.6353
26985SOL    HW284998   3.668   7.010   9.543 -0.2699  1.4471 -0.3671
26986SOL     OW84999   0.555   9.134   0.473  0.1067  0.0646 -0.4179
26986SOL    HW185000   0.565   9.167   0.563 -1.2981 -0.9350  0.1427
26986SOL    HW285001   0.604   9.052   0.472 -1.5208 -0.9676  0.0869
26987SOL     OW85002   7.195   4.440   6.096  0.1687  1.1468  0.2526
26987SOL    HW185003   7.233   4.427   6.010  0.0143 -1.3167  0.4750
26987SOL    HW285004   7.252   4.392   6.155 -0.6878  1.3411  1.2800
26988SOL     OW85005   3.351   9.939   8.190  0.0726  0.2146  0.9350
26988SOL    HW185006   3.316   9.981   8.269  0.8782  1.7355  0.5135
26988SOL    HW285007   3.274   9.897   8.150 -0.7412  1.1551  1.4630
26989SOL     OW85008   0.613   1.686   8.274 -0.3717 -0.0713 -0.3542
26989SOL    HW185009   0.520   1.689   8.251 -0.5927 -0.5076  0.4339
26989SOL    HW285010   0.615   1.707   8.368  0.3204 -0.1312 -0.3500
26990SOL     OW85011   0.718   5.264   3.830 -0.1708  0.2169  0.5683
26990SOL    HW185012   0.803   5.301   3.806  0.6303 -1.2200  1.0747
26990SOL    HW285013   0.728   5.169   3.819 -2.3809  0.1173 -1.4196
26991SOL     OW85014   1.294   5.992   4.986  0.4294 -0.8056  0.3262
26991SOL    HW185015   1.331   5.981   5.074  1.6957  2.6501  0.4097
26991SOL    HW285016   1.212   6.039   5.000 -1.2843 -3.4224 -0.2409
26992SOL     OW85017   7.708   3.940   0.191 -0.2275 -0.0382  0.2341
26992SOL    HW185018   7.633   3.893   0.156  0.8911 -1.8035  0.0745
26992SOL    HW285019   7.678   4.031   0.199 -2.1230 -0.5518 -0.4799
26993SOL     OW85020   3.541   1.938   8.632 -0.6169 -0.0104 -0.4073
26993SOL    HW185021   3.552   1.845   8.613 -0.1076 -0.1411  0.4733
26993SOL    HW285022   3.448   1.949   8.649 -0.3275 -0.9384  2.2671
26994SOL     OW85023   7.707   6.852   3.413 -0.4018 -0.5679  0.0435
26994SOL    HW185024   7.635   6.912   3.393 -0.1441 -0.6513 -1.2281
26994SOL    HW285025   7.668   6.765   3.407 -0.7056 -0.5793  1.6045
26995SOL     OW85026  10.088   2.752   2.570  0.0728  0.0323  0.4499
26995SOL    HW185027  10.121   2.723   2.485  1.3680  1.0871  0.5415
26995SOL    HW285028   9.994   2.741   2.566  0.1859 -0.5155 -0.8958
26996SOL     OW85029   5.479   7.696   8.343 -0.4331 -0.0764  0.1718
26996SOL    HW185030   5.454   7.617   8.295 -2.3056 -0.2181  1.2813
26996SOL    HW285031   5.398   7.746   8.350  0.4751  1.4045  0.5227
26997SOL     OW85032   4.036   4.670   4.835 -0.3333  0.8871  0.0266
26997SOL    HW185033   4.062   4.578   4.826 -3.5203 -0.1676  0.2433
26997SOL    HW285034   3.967   4.669   4.901  0.3059  3.6708  0.8581
26998SOL     OW85035   4.179   9.980   0.914 -0.4836  0.3462  0.0155
26998SOL    HW185036   4.250   9.952   0.857 -1.2007 -1.5619 -0.0427
26998SOL    HW285037   4.142   9.898   0.948 -1.4453  1.3456  1.5338
26999SOL     OW85038   7.707   3.361   9.442 -0.3062 -0.2161  0.5814
26999SOL    HW185039   7.745   3.277   9.414 -0.5102 -0.5449  1.2702
26999SOL    HW285040   7.759   3.427   9.396  2.4682 -0.5300  2.9729
27000SOL     OW85041   4.881  10.285   8.796 -0.3868 -0.0418 -0.0188
27000SOL    HW185042   4.829  10.205   8.793  0.7389 -0.8273  0.7113
27000SOL    HW285043   4.911  10.298   8.706 -1.9246  0.5063 -0.4847
27001SOL     OW85044  10.216   7.399   9.792 -0.2803 -0.2469  0.0838
27001SOL    HW185045  10.162   7.467   9.832 -1.2827 -1.5391  0.9990
27001SOL    HW285046  10.223   7.426   9.700 -1.7479  0.4193  0.1361
27002SOL     OW85047   0.971   9.195   7.393  0.6475 -0.2834 -0.5948
27002SOL    HW185048   0.925   9.258   7.449 -1.4161 -1.5642 -0.7294
27002SOL    HW285049   0.946   9.220   7.304 -0.4507 -1.4210 -0.6354
27003SOL     OW85050  10.028   8.491   9.785  0.4899 -0.2756  0.6359
27003SOL    HW185051   9.933   8.485   9.792  0.2624  0.5937 -1.2126
27003SOL    HW285052  10.058   8.498   9.876 -1.1459 -1.1687  1.2776
27004SOL     OW85053   0.208   5.546   1.415  0.1121  0.4130 -0.4149
27004SOL    HW185054   0.237   5.618   1.470  2.3732 -1.1814  0.6217
27004SOL    HW285055   0.287   5.516   1.369 -0.3983 -2.1891  0.2010
27005SOL     OW85056   2.016   8.959   8.582 -0.5884  0.0870  0.1334
27005SOL    HW185057   2.099   8.984   8.543 -0.6907  1.1858  0.5882
27005SOL    HW285058   2.024   8.865   8.598  0.3600  0.0887 -0.2926
27006SOL     OW85059   0.144   0.623   1.451  0.4798 -0.3433  0.3966
27006SOL    HW185060   0.069   0.682   1.443  0.6959 -0.2860 -1.8585
27006SOL    HW285061   0.205   0.651   1.383  2.6126 -0.3966  2.1505
27007SOL     OW85062   8.652   2.070   4.695 -0.1590 -0.3152  0.0529
27007SOL    HW185063   8.650   2.109   4.607 -0.9227 -0.8120 -0.1538
27007SOL    HW285064   8.613   2.137   4.751  0.5878  0.1189  0.0700
27008SOL     OW85065   4.053   2.357   6.011 -0.5022 -0.1881 -0.1368
27008SOL    HW185066   4.138   2.336   6.050 -1.1062  0.2410  1.4752
27008SOL    HW285067   3.991   2.298   6.053 -1.2574  0.6322 -0.0579
27009SOL     OW85068   9.289   9.928   8.151  0.2993  0.1375  0.2734
27009SOL    HW185069   9.325   9.904   8.236  1.8434  1.1416 -0.0520
27009SOL    HW285070   9.281   9.846   8.103  1.3171 -0.2096  0.6880
27010SOL     OW85071   6.310   6.410   8.449 -0.0477 -0.3502  0.2095
27010SOL    HW185072   6.281   6.367   8.368  1.2209 -0.4053 -0.2280
27010SOL    HW285073   6.359   6.342   8.496  2.8292  0.7791 -0.9403
27011SOL     OW85074   7.323   5.263   0.260  0.2449  0.7150 -0.7945
27011SOL    HW185075   7.254   5.308   0.309  0.4401  0.9295 -0.7153
27011SOL    HW285076   7.316   5.299   0.171 -1.6440 -1.3365 -1.5830
27012SOL     OW85077   3.257   8.871   4.294 -0.7517 -0.1745  0.5556
27012SOL    HW185078   3.202   8.925   4.350 -0.4221  1.4382 -0.6162
27012SOL    HW285079   3.299   8.932   4.234  0.4868 -1.6192 -0.1366
27013SOL     OW85080   3.492   7.485   7.339 -0.2088 -0.3286 -0.4842
27013SOL    HW185081   3.509   7.506   7.431  2.8076 -1.1041 -0.7638
27013SOL    HW285082   3.416   7.426   7.341 -1.0012  0.6615  1.3375
27014SOL     OW85083   8.532   1.563   2.224  0.3597  0.1664 -0.6069
27014SOL    HW185084   8.562   1.499   2.159  1.2728 -0.2009  0.1596
27014SOL    HW285085   8.486   1.629   2.172  0.7748 -0.2931 -1.5981
27015SOL     OW85086   2.214   7.073   5.386 -0.3067  0.0002 -0.0858
27015SOL    HW185087   2.280   7.005   5.397  2.4130  2.3808 -0.2086
27015SOL    HW285088   2.163   7.071   5.466  0.7723 -1.1223  0.6095
27016SOL     OW85089   4.559   5.768   6.403  0.3942  0.4570  0.2375
27016SOL    HW185090   4.638   5.810   6.438  0.4678 -0.9043  1.8316
27016SOL    HW285091   4.577   5.674   6.409 -1.0107  0.1398 -0.2062
27017SOL     OW85092   6.951   2.092   2.245 -0.1674 -0.3414 -0.2026
27017SOL    HW185093   6.946   2.170   2.300  0.1509 -0.1632 -0.4229
27017SOL    HW285094   7.017   2.037   2.286 -1.9928 -1.5760  1.2927
27018SOL     OW85095   5.863   9.727   8.275 -0.6058 -0.3525  0.4481
27018SOL    HW185096   5.856   9.777   8.193  1.2340 -1.4023 -0.4131
27018SOL    HW285097   5.956   9.709   8.284 -0.7763 -0.3884  2.7549
27019SOL     OW85098   8.280   6.545   1.298  0.1519  0.2964  0.0927
27019SOL    HW185099   8.300   6.470   1.243 -1.6266 -2.2424  2.6083
27019SOL    HW285100   8.365   6.588   1.311  1.2297 -1.1976 -1.5011
27020SOL     OW85101   8.506   3.531   1.169  0.0062 -0.0143 -0.0058
27020SOL    HW185102   8.477   3.468   1.235  0.3072  0.4012  0.5301
27020SOL    HW285103   8.556   3.478   1.106  0.0465 -0.3509  0.3043
27021SOL     OW85104   0.926   6.564   5.994 -0.1770  0.1557 -0.5374
27021SOL    HW185105   1.021   6.572   6.007 -0.0253 -1.6837 -0.2016
27021SOL    HW285106   0.916   6.556   5.899  0.3211 -2.3704 -0.4383
27022SOL     OW85107   0.997   7.544   5.260  0.7146 -0.4362 -0.4455
27022SOL    HW185108   0.963   7.455   5.250 -1.4689  0.3519 -0.6764
27022SOL    HW285109   1.028   7.569   5.173  0.6407 -0.7124 -0.5508
27023SOL     OW85110   6.977   4.309   5.809 -0.0234  0.2218 -0.3292
27023SOL    HW185111   7.000   4.333   5.719  0.3336  0.2634 -0.2306
27023SOL    HW285112   6.888   4.341   5.821 -0.3926 -0.5343 -0.9436
27024SOL     OW85113   6.690   4.139   0.025 -0.0511 -0.1735  0.5438
27024SOL    HW185114   6.749   4.087   0.080 -0.0922 -0.5747  0.2150
27024SOL    HW285115   6.604   4.131   0.066 -0.1810 -0.8851  0.1522
27025SOL     OW85116   8.851   2.433  10.013 -0.3693 -0.1794 -0.1889
27025SOL    HW185117   8.843   2.520  10.053 -0.5055 -0.8537  1.2790
27025SOL    HW285118   8.943   2.429   9.984 -0.2445  0.2844  0.1250
27026SOL     OW85119   5.154  10.106   8.044 -0.1482  0.3363  0.4222
27026SOL    HW185120   5.199  10.022   8.035  0.4148  0.7923 -1.3883
27026SOL    HW285121   5.099  10.095   8.122  0.3852 -1.4773  0.5968
27027SOL     OW85122   2.702   4.512   1.485 -0.1933  0.2973 -0.6106
27027SOL    HW185123   2.717   4.599   1.522 -0.1010 -0.2415  0.6604
27027SOL    HW285124   2.721   4.522   1.391 -1.0704  1.8525 -0.6463
27028SOL     OW85125   3.395   2.509  10.009 -0.0359 -0.3889 -0.5262
27028SOL    HW185126   3.429   2.550  10.088  0.7750 -0.7751 -0.6627
27028SOL    HW285127   3.379   2.418  10.034 -0.9168 -0.2372 -0.4884
27029SOL     OW85128   3.126  10.218   9.789  0.0532 -0.2476 -0.2532
27029SOL    HW185129   3.179  10.175   9.856 -0.7808  0.5062  0.9415
27029SOL    HW285130   3.140  10.312   9.805 -1.5734 -0.0289  0.0853
27030SOL     OW85131   0.471   4.054   9.643 -0.1268  0.2088 -0.6014
27030SOL    HW185132   0.397   4.018   9.692  0.1280 -1.0124 -1.0949
27030SOL    HW285133   0.533   4.081   9.711 -0.4527  0.0041 -0.2191
27031SOL     OW85134   2.144   3.246   0.544  0.0843  0.1863 -0.0594
27031SOL    HW185135   2.054   3.254   0.576  0.0957  1.0544 -0.2199
27031SOL    HW285136   2.147   3.304   0.468  0.2691 -1.2521 -1.1926
27032SOL     OW85137   3.056   9.439   7.181  0.5437 -0.2809  0.2278
27032SOL    HW185138   2.963   9.439   7.160  0.7283  0.6142 -0.6980
27032SOL    HW285139   3.060   9.427   7.276 -0.5486  0.5724  0.3998
27033SOL     OW85140   9.599   3.266   7.084  0.7464 -0.0466 -0.9233
27033SOL    HW185141   9.657   3.193   7.102  0.0269 -0.8586 -1.7961
27033SOL    HW285142   9.517   3.243   7.128  0.1512 -0.3206 -2.1361
27034SOL     OW85143   6.378   1.595   6.895 -0.4182  0.0852  0.5946
27034SOL    HW185144   6.427   1.520   6.929  0.1596  0.7143  1.1903
27034SOL    HW285145   6.397   1.596   6.801  0.3683  0.0614  0.7443
27035SOL     OW85146   8.277   7.205   5.462 -0.1309 -0.4714 -0.3321
27035SOL    HW185147   8.359   7.156   5.452  1.1674  1.4952  0.0262
27035SOL    HW285148   8.231   7.161   5.533  0.5022 -1.7734 -0.7085
27036SOL     OW85149   0.855   8.699   9.066  0.1339 -0.3875  0.4874
27036SOL    HW185150   0.930   8.747   9.100  1.0800 -1.0148 -0.6214
27036SOL    HW285151   0.856   8.615   9.112  1.3874 -1.2180 -0.9677
27037SOL     OW85152   7.880   0.663   7.075 -0.4464 -0.5088 -0.5717
27037SOL    HW185153   7.957   0.643   7.127  0.1919  1.1989 -0.7824
27037SOL    HW285154   7.880   0.599   7.004  0.5012 -0.8203 -0.2992
27038SOL     OW85155   2.330   1.758   8.254  0.5215 -0.0403  0.0624
27038SOL    HW185156   2.291   1.825   8.310  1.7010 -0.4316  1.3963
27038SOL    HW285157   2.297   1.778   8.166 -4.8905 -1.8575  1.2967
27039SOL     OW85158   5.710   9.795   1.681 -0.0820  0.3051 -0.2441
27039SOL    HW185159   5.730   9.701   1.678 -2.5622 -0.2785 -0.9809
27039SOL    HW285160   5.688   9.812   1.773  1.9433  0.5743  0.2211
27040SOL     OW85161   8.773   5.470   6.099 -0.4431 -0.3092 -0.2078
27040SOL    HW185162   8.830   5.502   6.169 -1.1417  1.9222 -0.6122
27040SOL    HW285163   8.702   5.424   6.146  0.6977 -1.5871  0.3584
27041SOL     OW85164   2.329   8.806   6.721  0.6774 -0.0448  0.4294
27041SOL    HW185165   2.255   8.746   6.716  1.2192 -0.7047  0.2536
27041SOL    HW285166   2.290   8.890   6.746 -0.3383  0.0138 -1.1996
27042SOL     OW85167   5.979   5.410   9.764 -0.2691  0.5560  0.0720
27042SOL    HW185168   5.949   5.500   9.761  0.1430  0.6713 -0.8665
27042SOL    HW285169   5.991   5.392   9.858 -2.0605  0.8807  0.3994
27043SOL     OW85170   2.071   4.767   0.296 -0.2108 -0.0444 -0.4196
27043SOL    HW185171   2.006   4.778   0.226 -0.3232  0.9967 -0.1588
27043SOL    HW285172   2.060   4.676   0.324 -3.3098  0.6907  1.2942
27044SOL     OW85173   3.805   1.025   5.361  0.3464 -0.4272 -0.0250
27044SOL    HW185174   3.874   1.040   5.426  0.6315 -3.9076  0.6644
27044SOL    HW285175   3.727   1.006   5.413 -0.2346 -0.0488 -0.7503
27045SOL     OW85176   0.090   6.401   7.333 -0.0732  0.0440 -0.7789
27045SOL    HW185177   0.115   6.333   7.270 -0.6989  0.9653 -2.0632
27045SOL    HW285178   0.033   6.356   7.396  1.5260 -1.1648 -0.1342
27046SOL     OW85179   9.490   6.017   1.414 -0.4388 -0.0242  0.0270
27046SOL    HW185180   9.582   6.023   1.387  0.1002  0.7046  1.8688
27046SOL    HW285181   9.468   6.106   1.443 -1.7991 -0.1471 -0.5615
27047SOL     OW85182   3.860   1.784   1.999  0.1353 -0.3416  0.2944
27047SOL    HW185183   3.930   1.736   2.044 -1.1501 -2.1299  0.5117
27047SOL    HW285184   3.797   1.804   2.069 -1.5374 -2.5085 -0.4912
27048SOL     OW85185  10.212   6.193   0.761  0.1454  0.3380 -0.0985
27048SOL    HW185186  10.252   6.264   0.811  0.9830 -0.0832 -0.1644
27048SOL    HW285187  10.179   6.132   0.827  0.1281  0.3995 -0.0506
27049SOL     OW85188   5.855   1.772   1.548 -0.4018 -0.2502 -0.2731
27049SOL    HW185189   5.897   1.766   1.462  1.3937 -0.4877  0.5693
27049SOL    HW285190   5.909   1.716   1.605 -0.9161  0.7247  1.2320
27050SOL     OW85191   1.381   3.164   8.846  0.4351  0.0383  0.3132
27050SOL    HW185192   1.366   3.081   8.892 -1.4221  0.0580 -0.1606
27050SOL    HW285193   1.320   3.225   8.886  1.8449  1.2354  0.7106
27051SOL     OW85194   0.092   2.304   3.049 -0.0949 -0.2397  0.0599
27051SOL    HW185195   0.186   2.309   3.065  0.0594  0.8668 -0.9950
27051SOL    HW285196   0.085   2.285   2.955 -0.9386 -0.9895  0.2534
27052SOL     OW85197   7.470  10.201  10.099 -0.5682  0.0945 -0.0245
27052SOL    HW185198   7.527  10.160  10.035  0.3427  0.9598  0.2053
27052SOL    HW285199   7.525  10.267  10.141 -1.0791 -0.5662  1.7809
27053SOL     OW85200   4.426   7.541   5.481 -0.3126 -0.2427  1.1311
27053SOL    HW185201   4.392   7.452   5.480  0.1073 -0.4428 -1.2583
27053SOL    HW285202   4.478   7.548   5.401 -2.2722  2.8695 -0.0733
27054SOL     OW85203   1.339   2.422   4.800 -0.1424 -0.0770  0.0177
27054SOL    HW185204   1.291   2.339   4.790  1.0128 -0.5841 -1.7878
27054SOL    HW285205   1.306   2.477   4.730 -0.1770  0.6523  0.5980
27055SOL     OW85206   2.501  10.117  10.077  0.3682  0.4812 -0.9645
27055SOL    HW185207   2.554  10.126  10.156 -1.7485  1.4362  0.4418
27055SOL    HW285208   2.559  10.145  10.006  2.4042 -0.5969  0.1668
27056SOL     OW85209   9.241   8.148   4.331 -0.1413 -0.3011 -0.2220
27056SOL    HW185210   9.197   8.097   4.398  0.7369  0.5469  1.0532
27056SOL    HW285211   9.183   8.223   4.316 -0.0383 -0.1694  0.0457
27057SOL     OW85212   4.796   2.733   9.825  0.3903  0.3476 -0.0835
27057SOL    HW185213   4.867   2.701   9.881  0.5535  1.1119  0.1505
27057SOL    HW285214   4.774   2.658   9.769  1.0418 -0.0461  0.1819
27058SOL     OW85215   7.054   5.660   0.360  0.2835  0.0580 -0.2468
27058SOL    HW185216   7.072   5.753   0.370  1.1978 -0.3677  2.8482
27058SOL    HW285217   6.987   5.640   0.425  1.3140 -1.7497  0.3403
27059SOL     OW85218   0.998   9.840   0.511 -0.4018 -0.3565 -0.1516
27059SOL    HW185219   0.971   9.812   0.423 -0.9025 -1.5908  0.3728
27059SOL    HW285220   1.090   9.816   0.516  0.2104  1.5729 -1.0366
27060SOL     OW85221   0.764   4.157   3.339  0.5869  0.3682 -0.4763
27060SOL    HW185222   0.787   4.169   3.247  0.7943  1.3676 -0.3073
27060SOL    HW285223   0.830   4.097   3.374  1.6127  1.4160 -0.5479
27061SOL     OW85224   9.990   2.448   7.607  0.4268  0.9356 -0.4954
27061SOL    HW185225   9.960   2.424   7.519  0.3857 -0.7234 -0.0630
27061SOL    HW285226  10.077   2.408   7.615 -0.1055 -0.0481  0.6707
27062SOL     OW85227   2.157   7.801   6.808  0.0155  0.2042  0.1014
27062SOL    HW185228   2.098   7.792   6.733  0.6270  1.0950 -0.5039
27062SOL    HW285229   2.111   7.758   6.880 -1.4783  1.0464 -0.2992
27063SOL     OW85230   6.403   5.734   1.186 -0.6551  0.2822 -0.1072
27063SOL    HW185231   6.350   5.685   1.124  0.3694 -0.4220 -0.4674
27063SOL    HW285232   6.486   5.686   1.189 -0.1107  1.2333  0.5762
27064SOL     OW85233   5.142   8.523   2.019  0.4971  0.0252  0.3091
27064SOL    HW185234   5.165   8.471   2.095 -1.8383 -1.9894 -0.2201
27064SOL    HW285235   5.058   8.563   2.042  0.2718  0.2222 -0.7957
27065SOL     OW85236   2.583   1.029   7.608  0.0687 -0.2148 -0.0005
27065SOL    HW185237   2.664   1.043   7.657 -0.6276  1.7949  0.6893
27065SOL    HW285238   2.513   1.044   7.672 -0.8653 -1.4036 -0.7059
27066SOL     OW85239   8.873   6.079   4.129 -0.1363  0.0845 -0.0582
27066SOL    HW185240   8.882   5.984   4.115 -1.7059  0.2238 -2.7630
27066SOL    HW285241   8.939   6.118   4.073 -1.5319  0.5956 -1.4116
27067SOL     OW85242   6.335   4.379   2.691 -0.0132  0.0759  0.2155
27067SOL    HW185243   6.318   4.330   2.611 -0.8198 -1.5777  1.3501
27067SOL    HW285244   6.421   4.349   2.720 -0.6821 -1.0408  1.1283
27068SOL     OW85245   4.277   0.752   1.467  0.5311  0.2320 -0.0039
27068SOL    HW185246   4.324   0.669   1.464  0.4300  0.0940  1.4886
27068SOL    HW285247   4.222   0.752   1.389  0.5528 -1.0923 -0.0360
27069SOL     OW85248   2.079   7.756   1.143 -0.1164  0.7368 -0.4794
27069SOL    HW185249   2.101   7.761   1.049 -0.7209  0.7958 -0.6217
27069SOL    HW285250   1.989   7.725   1.144 -0.5575  2.0076  0.0469
27070SOL     OW85251   7.393   4.169   0.421  0.5136 -0.2041 -0.0384
27070SOL    HW185252   7.460   4.152   0.355 -1.5898 -0.5389 -2.2103
27070SOL    HW285253   7.337   4.235   0.382 -0.2998  0.3091  1.8537
27071SOL     OW85254   2.671  10.086   3.858 -0.7540  0.5113  0.1325
27071SOL    HW185255   2.645  10.025   3.927  0.5636 -0.6763 -0.3904
27071SOL    HW285256   2.597  10.147   3.852 -1.3835 -0.0110  1.8128
27072SOL     OW85257   7.362   4.947   6.902 -0.2516 -0.1311 -0.4199
27072SOL    HW185258   7.417   4.956   6.980 -1.3219 -0.7886  0.4437
27072SOL    HW285259   7.396   4.870   6.856 -3.7554 -4.3629  3.1219
27073SOL     OW85260   9.129   4.443   8.136 -0.0661 -0.4830 -0.0577
27073SOL    HW185261   9.204   4.416   8.083 -0.2877 -1.7597  0.2486
27073SOL    HW285262   9.054   4.401   8.094 -0.6681  0.9675 -0.5002
27074SOL     OW85263   0.294   6.647   7.989 -0.1067  0.7624  0.1312
27074SOL    HW185264   0.339   6.678   7.911  0.1836 -0.5163 -0.2383
27074SOL    HW285265   0.262   6.726   8.032  0.7600  1.5611 -0.6560
27075SOL     OW85266   5.390  10.152   4.566  0.3039  0.1454 -0.5453
27075SOL    HW185267   5.304  10.194   4.563  0.7759  1.0997 -1.5788
27075SOL    HW285268   5.392  10.108   4.651 -1.1541  0.1936 -0.4489
27076SOL     OW85269   6.448   6.896   0.664 -0.1875 -0.0478 -0.5356
27076SOL    HW185270   6.355   6.918   0.670 -0.5706 -1.5279 -0.6794
27076SOL    HW285271   6.463   6.834   0.736  0.5067 -0.3924 -0.9627
27077SOL     OW85272   6.483   2.602   9.342  0.0422  0.1209 -0.4885
27077SOL    HW185273   6.517   2.532   9.286  0.8806  0.6520 -0.6786
27077SOL    HW285274   6.560   2.631   9.392 -0.2677  0.9346 -0.4628
27078SOL     OW85275   7.631   8.788   9.878 -0.1967  0.2793 -0.6850
27078SOL    HW185276   7.700   8.725   9.858 -0.1125 -0.3478  1.4302
27078SOL    HW285277   7.551   8.747   9.845 -0.1318 -0.9356  0.5918
27079SOL     OW85278   8.747   5.159   5.904 -0.1204 -0.6010  0.1270
27079SOL    HW185279   8.751   5.124   5.993 -1.8836 -1.1316  0.0254
27079SOL    HW285280   8.663   5.130   5.871 -1.1663  2.6949 -0.4347
27080SOL     OW85281   5.488   6.633   3.160  0.3502  0.1463 -0.4091
27080SOL    HW185282   5.438   6.673   3.232 -0.1781 -0.2468 -0.5498
27080SOL    HW285283   5.575   6.619   3.196 -0.2278 -1.1540  0.5574
27081SOL     OW85284   5.278   5.996   3.656  0.2486 -0.3340  0.4824
27081SOL    HW185285   5.241   5.914   3.623  0.9662 -0.6346  0.4058
27081SOL    HW285286   5.266   5.992   3.751  0.1659 -0.4725  0.4657
27082SOL     OW85287   8.934   0.844   6.239 -0.2778  0.1398 -0.2254
27082SOL    HW185288   8.978   0.911   6.291  0.1712 -0.0727 -0.3296
27082SOL    HW285289   9.003   0.782   6.216 -1.0471 -1.6441  1.8316
27083SOL     OW85290   0.375   7.791   4.551  0.0805  0.6073  0.4760
27083SOL    HW185291   0.339   7.767   4.636 -0.0104  0.7677  0.4823
27083SOL    HW285292   0.323   7.741   4.488 -0.9065  1.6872  0.4063
27084SOL     OW85293   8.478   7.585   1.537 -0.6406 -0.3642 -0.0281
27084SOL    HW185294   8.505   7.676   1.548 -1.1960 -0.1929 -0.0510
27084SOL    HW285295   8.417   7.587   1.464 -1.4066 -0.5958  0.5919
27085SOL     OW85296   5.162  10.007   3.934 -0.5816 -0.0945 -0.3003
27085SOL    HW185297   5.218  10.032   3.861  0.3275  0.8011  0.6574
27085SOL    HW285298   5.106  10.083   3.948  0.1770  0.2993  0.7582
27086SOL     OW85299   8.661   1.075   2.690 -0.0462 -0.5944  0.0288
27086SOL    HW185300   8.737   1.118   2.729 -1.0614  2.7867 -1.4246
27086SOL    HW285301   8.687   1.058   2.599 -0.3415 -1.2931  0.0696
27087SOL     OW85302  10.060   7.036   7.455 -0.4709  0.1145  0.2966
27087SOL    HW185303  10.001   7.052   7.381 -0.0624 -1.0976 -0.3156
27087SOL    HW285304  10.069   6.941   7.459  1.0359  0.2437  0.6935
27088SOL     OW85305   5.936   3.149   0.800  0.5665 -0.4216  0.0683
27088SOL    HW185306   5.875   3.108   0.738 -2.0465  0.7802  1.6646
27088SOL    HW285307   5.980   3.217   0.750  0.3656 -1.0720 -1.0371
27089SOL     OW85308   6.968   6.934   8.540  0.6115 -0.3532 -0.2490
27089SOL    HW185309   7.028   6.885   8.483 -0.8360 -1.3562 -0.9706
27089SOL    HW285310   6.962   6.881   8.619  2.5960  1.0236  0.9373
27090SOL     OW85311   6.787   5.613   3.703  0.1729  0.3175 -0.0165
27090SOL    HW185312   6.762   5.623   3.795 -0.6779  0.6466 -0.2700
27090SOL    HW285313   6.779   5.702   3.666 -1.1819 -0.1090 -0.8016
27091SOL     OW85314   8.538   9.998   6.749  0.4030  0.4478 -0.3797
27091SOL    HW185315   8.593  10.065   6.791  1.2028  0.5388 -1.5119
27091SOL    HW285316   8.601   9.933   6.718 -0.4052 -1.1571  1.2021
27092SOL     OW85317   8.389   3.851   9.068 -0.3498  0.1303  0.3511
27092SOL    HW185318   8.367   3.780   9.128 -1.0361  2.2152  2.7415
27092SOL    HW285319   8.307   3.897   9.053  0.4161  1.6499  0.6095
27093SOL     OW85320   4.047   2.238   7.146 -0.2260  0.1041 -0.4574
27093SOL    HW185321   3.991   2.303   7.103  0.6526  2.6671  2.0426
27093SOL    HW285322   4.115   2.219   7.082 -1.3755  0.3960 -1.8263
27094SOL     OW85323   0.327   9.330   7.042 -0.0366 -0.3607  0.1804
27094SOL    HW185324   0.392   9.285   6.988 -2.0157  0.0195 -2.7457
27094SOL    HW285325   0.362   9.418   7.053  0.7666 -0.6757  0.2675
27095SOL     OW85326   1.685   5.052   6.093  0.6150 -0.4889 -0.4832
27095SOL    HW185327   1.679   5.048   6.189  1.0060 -0.3398 -0.4499
27095SOL    HW285328   1.778   5.038   6.075  0.2873 -2.3128 -0.9397
27096SOL     OW85329   9.602   6.897   2.448 -0.2918 -0.3171 -0.0254
27096SOL    HW185330   9.696   6.913   2.450 -0.4645  0.7539  0.3796
27096SOL    HW285331   9.584   6.868   2.358  0.3148  0.2036 -0.3223
27097SOL     OW85332   6.270   8.676   6.876 -0.1251 -0.1479 -0.3083
27097SOL    HW185333   6.257   8.771   6.875  0.7471 -0.0157 -0.7694
27097SOL    HW285334   6.289   8.656   6.967 -0.2433  0.1339 -0.2191
27098SOL     OW85335   5.973   6.352   2.280  0.5240 -0.1814  0.1677
27098SOL    HW185336   5.927   6.401   2.349 -0.6719 -1.2113  0.1444
27098SOL    HW285337   6.007   6.275   2.324 -1.1853 -1.4113 -0.5326
27099SOL     OW85338   8.019   0.390   8.653 -0.1080  0.0633 -0.5433
27099SOL    HW185339   7.972   0.348   8.724  2.0301  0.3557  1.1733
27099SOL    HW285340   8.067   0.461   8.696  0.9100  0.5324 -2.3650
27100SOL     OW85341   1.078   3.073   9.151 -0.4624 -0.1151  0.4539
27100SOL    HW185342   0.992   3.057   9.191 -1.2728 -0.0039 -1.1537
27100SOL    HW285343   1.085   3.007   9.082  1.5648 -1.2883  1.6833
27101SOL     OW85344   6.742   0.270   1.862  0.1015  0.3265  0.3005
27101SOL    HW185345   6.700   0.323   1.795 -1.2789 -1.0571  0.0116
27101SOL    HW285346   6.783   0.198   1.814  2.5200  1.3969  0.6176
27102SOL     OW85347   4.540   4.069   0.434  0.3279  0.5918 -0.0638
27102SOL    HW185348   4.624   4.032   0.461 -1.0017 -2.1148  0.7233
27102SOL    HW285349   4.477   4.034   0.498 -1.4539  2.3875 -0.7225
27103SOL     OW85350   6.900   4.159   2.755 -0.2328  0.3129 -0.0415
27103SOL    HW185351   6.858   4.245   2.756  1.4313  1.1748  1.0006
27103SOL    HW285352   6.986   4.174   2.795  0.1113 -1.8436  0.1453
27104SOL     OW85353   1.953   8.796   6.551 -0.0393  0.1097 -0.0449
27104SOL    HW185354   1.959   8.792   6.647 -1.2583 -2.2297  0.0109
27104SOL    HW285355   1.868   8.757   6.531  0.6746 -0.4854 -2.1338
27105SOL     OW85356   5.891   8.620   2.345  0.1630 -0.8232 -0.2916
27105SOL    HW185357   5.844   8.597   2.426 -2.0516 -0.9667 -1.5145
27105SOL    HW285358   5.971   8.568   2.349  0.1520 -0.7933  1.8206
27106SOL     OW85359  10.217   8.791   6.118 -0.1534 -0.7856 -0.1982
27106SOL    HW185360  10.266   8.859   6.165 -1.3303 -0.5700  0.7533
27106SOL    HW285361  10.229   8.813   6.026 -1.4217  1.4104  0.0941
27107SOL     OW85362   5.604   0.542   4.675 -0.1899  0.1076 -0.2172
27107SOL    HW185363   5.606   0.571   4.766 -1.7305 -1.9522  0.5659
27107SOL    HW285364   5.649   0.458   4.676 -3.7641 -2.0021 -0.3915
27108SOL     OW85365   3.310   3.539   5.537 -0.8322 -0.2297 -0.7832
27108SOL    HW185366   3.354   3.505   5.616 -1.7821  1.3125  0.4663
27108SOL    HW285367   3.271   3.621   5.566 -0.3072  0.9236 -3.1665
27109SOL     OW85368   2.386   6.496   1.541  0.1436  0.0963 -0.4271
27109SOL    HW185369   2.478   6.521   1.544 -0.3717  2.1333 -0.5243
27109SOL    HW285370   2.349   6.529   1.622 -0.8550  0.8341 -1.1625
27110SOL     OW85371   6.753   6.508   4.154 -0.4434  0.6608  0.2287
27110SOL    HW185372   6.804   6.451   4.096  0.1764 -0.1875  1.5626
27110SOL    HW285373   6.717   6.575   4.096  0.4763  0.0731 -1.0711
27111SOL     OW85374   4.907   0.550   7.828  0.0398 -0.0125 -0.4723
27111SOL    HW185375   4.986   0.515   7.787 -0.1995  0.0330 -0.9755
27111SOL    HW285376   4.917   0.526   7.921  0.8959  0.4667 -0.4275
27112SOL     OW85377   5.222   0.549   9.899 -0.0575 -0.1425  0.0208
27112SOL    HW185378   5.147   0.491   9.903 -0.7013  0.7401  1.9823
27112SOL    HW285379   5.187   0.632   9.868  0.2169  0.0971  0.3413
27113SOL     OW85380   4.263   8.904   1.483 -0.3748  0.2923 -0.1005
27113SOL    HW185381   4.221   8.912   1.397 -0.4659  0.1030 -0.0749
27113SOL    HW285382   4.345   8.954   1.475  1.3957 -2.5426 -1.4522
27114SOL     OW85383   8.116   2.306   8.152 -0.4340  0.2207 -0.5472
27114SOL    HW185384   8.184   2.372   8.163 -0.5596  0.1145  1.1227
27114SOL    HW285385   8.051   2.327   8.220 -0.4171 -1.6725  0.1160
27115SOL     OW85386   3.922   7.355   5.712  0.0728 -0.6884  0.2644
27115SOL    HW185387   3.884   7.384   5.629 -0.3778 -0.6696  0.4730
27115SOL    HW285388   3.847   7.320   5.761  0.6874 -2.8389 -0.2269
27116SOL     OW85389   6.764   7.883   0.404  0.3828 -0.3820 -0.1250
27116SOL    HW185390   6.858   7.888   0.419  1.0885 -1.2206 -3.3431
27116SOL    HW285391   6.739   7.795   0.433  1.2287 -1.1725 -1.6276
27117SOL     OW85392   7.774   1.230   1.948  0.7459 -0.0168 -0.0932
27117SOL    HW185393   7.681   1.248   1.934  1.0495  0.4868 -1.6283
27117SOL    HW285394   7.800   1.292   2.016 -0.5397 -1.7728  2.1182
27118SOL     OW85395   8.165   9.510  10.055 -0.5159 -0.5726 -0.6492
27118SOL    HW185396   8.241   9.460  10.026 -0.3967 -1.6094  1.3021
27118SOL    HW285397   8.194   9.601  10.052  1.6354 -1.0299  2.0566
27119SOL     OW85398   5.176   3.613   1.734  0.1923 -0.5239 -0.1031
27119SOL    HW185399   5.168   3.546   1.802 -0.1481 -0.2711  0.1071
27119SOL    HW285400   5.190   3.695   1.781  0.6744 -0.4527 -0.3619
27120SOL     OW85401   8.254   9.970   6.167 -0.0432  0.5477  0.1942
27120SOL    HW185402   8.254  10.047   6.110  0.5720 -0.1230 -0.7469
27120SOL    HW285403   8.347   9.951   6.181 -0.1906  0.7363  1.4895
27121SOL     OW85404   9.504   7.906   0.829  0.1562  0.0875  0.2306
27121SOL    HW185405   9.545   7.902   0.916 -0.4643  1.5848  0.6253
27121SOL    HW285406   9.526   7.822   0.789  1.0929 -0.3412  1.5451
27122SOL     OW85407   9.629   4.321   9.075 -0.1693 -0.5757  0.4710
27122SOL    HW185408   9.606   4.409   9.044 -0.8723 -0.2757  1.7890
27122SOL    HW285409   9.689   4.337   9.148  1.8446 -1.2791 -0.9530
27123SOL     OW85410   4.457   2.533   6.335  0.0968  0.4461  0.2191
27123SOL    HW185411   4.488   2.579   6.413 -1.1622  1.1773  0.3265
27123SOL    HW285412   4.474   2.440   6.354 -0.3496  0.5944  1.4602
27124SOL     OW85413   9.296   8.144   1.006  0.1086 -0.4489 -0.2489
27124SOL    HW185414   9.362   8.208   0.978 -0.7046  1.3378  1.6609
27124SOL    HW285415   9.324   8.118   1.094 -0.9098 -0.8306 -0.0220
27125SOL     OW85416   4.321   2.959   9.486 -0.3390 -0.7685 -0.7014
27125SOL    HW185417   4.394   2.905   9.517 -1.2648 -0.9566  1.3257
27125SOL    HW285418   4.361   3.044   9.469  0.2648 -0.6154  1.2074
27126SOL     OW85419   0.927   3.320   7.543 -0.1530 -0.8154  1.2473
27126SOL    HW185420   0.896   3.247   7.489 -0.2416 -1.2226  1.8337
27126SOL    HW285421   0.856   3.383   7.541  0.4676 -0.1122 -0.3851
27127SOL     OW85422   8.647   7.813   8.710 -0.7418  0.1396 -1.3379
27127SOL    HW185423   8.605   7.887   8.664 -0.3360  1.6869  0.6537
27127SOL    HW285424   8.622   7.824   8.801  0.7588 -1.2031 -0.7210
27128SOL     OW85425   6.210   1.755   3.352 -0.6028  0.5237  0.4998
27128SOL    HW185426   6.157   1.685   3.314 -0.8967  0.1959  1.4739
27128SOL    HW285427   6.151   1.830   3.356 -1.0834  0.0994  1.7789
27129SOL     OW85428   5.962   7.129   6.931  0.0649  0.9227  0.1487
27129SOL    HW185429   5.887   7.105   6.984  1.1278  1.5447  2.0461
27129SOL    HW285430   5.940   7.215   6.896 -0.5836  0.5801 -0.2894
27130SOL     OW85431   2.540   8.541   7.682  0.4036  0.1653  0.3606
27130SOL    HW185432   2.506   8.611   7.626 -0.1623 -0.4269 -0.0504
27130SOL    HW285433   2.477   8.535   7.754  0.6169  0.2803  0.5589
27131SOL     OW85434   8.642   3.677   0.351  0.0542 -0.7704  0.2891
27131SOL    HW185435   8.712   3.692   0.287 -2.0024 -0.1186 -1.9401
27131SOL    HW285436   8.605   3.764   0.367 -0.6054 -1.1728  1.0275
27132SOL     OW85437   9.805   1.406   5.068  0.2135  0.1706  0.4617
27132SOL    HW185438   9.838   1.471   5.130 -0.1102 -0.7149  1.6048
27132SOL    HW285439   9.881   1.383   5.014  0.7004  0.4094  1.0326
27133SOL     OW85440   8.293   9.884   1.584 -0.3259 -0.0760 -0.6088
27133SOL    HW185441   8.382   9.896   1.615  1.3219  0.1667 -4.7628
27133SOL    HW285442   8.280   9.790   1.581  0.2628 -0.1465 -1.0767
27134SOL     OW85443   9.298   1.304   4.727 -0.0863 -0.4674 -0.1176
27134SOL    HW185444   9.217   1.273   4.686 -0.0995  0.8639 -1.1288
27134SOL    HW285445   9.280   1.299   4.821 -0.8674 -1.4033 -0.2997
27135SOL     OW85446  10.285   8.768   9.143  0.4940  0.2016  0.4608
27135SOL    HW185447  10.229   8.816   9.204 -0.4466 -0.1185 -0.1390
27135SOL    HW285448  10.269   8.809   9.058  0.3575 -0.5880  0.0958
27136SOL     OW85449   9.455   7.090   8.906 -0.0572 -0.0964 -0.9120
27136SOL    HW185450   9.550   7.098   8.896 -0.1932  1.7150 -1.1006
27136SOL    HW285451   9.437   7.130   8.991 -0.9310  2.4087 -2.2029
27137SOL     OW85452   2.150  10.031   6.861  0.1502  0.1030 -0.1225
27137SOL    HW185453   2.186  10.114   6.828 -2.4929  0.6028 -2.1177
27137SOL    HW285454   2.061  10.053   6.890  0.3521 -1.5513  1.9760
27138SOL     OW85455   3.310   2.812   9.023  0.1413  0.2368  0.1108
27138SOL    HW185456   3.275   2.735   9.067 -0.6430 -0.1477 -1.1296
27138SOL    HW285457   3.252   2.884   9.048 -2.6350 -0.6500 -3.0669
27139SOL     OW85458   2.472   3.542   2.057 -0.1200 -0.0437 -0.3492
27139SOL    HW185459   2.545   3.500   2.102 -0.5476 -1.3340 -0.8067
27139SOL    HW285460   2.423   3.586   2.126  0.4039 -0.2122  0.1395
27140SOL     OW85461   3.799   2.775   9.554  0.0792 -0.1548 -0.0303
27140SOL    HW185462   3.857   2.725   9.497 -2.3330 -0.3910 -2.5119
27140SOL    HW285463   3.786   2.719   9.630  1.4344 -0.9740 -0.3601
27141SOL     OW85464   2.007   5.426   5.761 -0.1040 -0.1067  0.0220
27141SOL    HW185465   2.039   5.470   5.840 -2.3036  1.7096  0.0002
27141SOL    HW285466   1.940   5.366   5.793  0.1566 -0.5774 -0.3165
27142SOL     OW85467   3.952   9.011   0.055  0.2483 -0.5479  0.0941
27142SOL    HW185468   3.928   8.940  -0.005  0.2134 -0.6333  0.2096
27142SOL    HW285469   3.941   9.091   0.003 -1.2989 -0.4896  0.4431
27143SOL     OW85470   4.314   4.297   4.316 -0.5731  0.4509  0.1095
27143SOL    HW185471   4.273   4.352   4.383 -0.8461  0.3241  0.0479
27143SOL    HW285472   4.309   4.349   4.236  0.1034  0.7663  0.2599
27144SOL     OW85473   4.382   2.717   0.212 -0.2138 -0.1889  0.2508
27144SOL    HW185474   4.379   2.621   0.213  0.4242 -0.2107  0.2683
27144SOL    HW285475   4.316   2.743   0.148 -2.4340 -0.5561  2.2502
27145SOL     OW85476   3.186   2.534   0.510 -0.2767 -0.3697 -0.3329
27145SOL    HW185477   3.201   2.622   0.545  0.3311 -0.7483  0.3924
27145SOL    HW285478   3.176   2.547   0.416  0.8953  0.3667 -0.3781
27146SOL     OW85479  10.249   3.015   8.378  0.2366  0.2057 -0.1481
27146SOL    HW185480  10.223   2.928   8.409 -0.1726  0.0997 -0.7764
27146SOL    HW285481  10.322   2.998   8.319 -1.5931 -0.0328 -2.5153
27147SOL     OW85482   0.054   1.937   2.170  0.1179  0.4479 -0.2543
27147SOL    HW185483   0.033   2.008   2.231  0.3204 -0.4766  0.9178
27147SOL    HW285484  -0.026   1.885   2.166  1.4393 -2.1091  2.8832
27148SOL     OW85485   8.456   8.538   8.603  0.2390  0.0248  0.2027
27148SOL    HW185486   8.533   8.558   8.656 -0.5035  0.6166  1.0857
27148SOL    HW285487   8.486   8.546   8.513  1.0253  0.9874  0.5397
27149SOL     OW85488   8.568   6.452   5.670  0.1574 -0.3871 -0.5844
27149SOL    HW185489   8.522   6.518   5.722  1.4393  0.9046 -1.0439
27149SOL    HW285490   8.550   6.475   5.579  0.6087 -0.6875 -0.7513
27150SOL     OW85491   4.542   2.892   1.178 -0.4459  0.0187  0.4910
27150SOL    HW185492   4.506   2.822   1.231  0.8436  0.4525  2.0107
27150SOL    HW285493   4.602   2.938   1.236 -1.0131  2.2089 -0.5598
27151SOL     OW85494   2.163   7.563   6.506  0.5027 -0.2623 -0.7253
27151SOL    HW185495   2.179   7.524   6.592  0.3967  0.2885 -0.4492
27151SOL    HW285496   2.221   7.639   6.503 -0.9465  0.9250 -0.2881
27152SOL     OW85497   9.973   4.375   1.139 -0.0032 -0.4070  0.0068
27152SOL    HW185498   9.997   4.452   1.089 -0.8873  1.1972  1.9325
27152SOL    HW285499   9.877   4.379   1.144  0.0646 -0.3560  1.9877
27153SOL     OW85500   3.037   9.601   7.438 -0.4738 -0.4615  0.1113
27153SOL    HW185501   3.094   9.525   7.452 -1.7009 -1.1386  1.6837
27153SOL    HW285502   3.022   9.636   7.525 -0.8752  0.9002 -0.4832
27154SOL     OW85503   6.842   5.750   1.925 -0.4578 -0.3048  0.8800
27154SOL    HW185504   6.858   5.788   1.839 -0.5201  0.6485  1.2712
27154SOL    HW285505   6.747   5.744   1.932 -0.4409 -0.8004  0.7113
27155SOL     OW85506   0.742   8.962   9.276 -0.6640  0.3243  0.0200
27155SOL    HW185507   0.745   9.014   9.195  0.5019  0.1982 -0.0368
27155SOL    HW285508   0.677   8.894   9.258  0.3793 -0.3908 -1.2660
27156SOL     OW85509   6.276   2.720   6.821  0.2357  0.2725 -0.2229
27156SOL    HW185510   6.189   2.736   6.785  1.3166  1.3245 -2.5527
27156SOL    HW285511   6.278   2.625   6.837 -0.7165 -0.0798 -1.9081
27157SOL     OW85512   7.240   1.276   3.590 -0.6872  0.0013  0.8062
27157SOL    HW185513   7.201   1.347   3.539  0.7029  0.9666  1.0002
27157SOL    HW285514   7.211   1.292   3.679  0.2905  0.8636  0.9917
27158SOL     OW85515   4.730   9.206   1.389  0.0346 -0.2114 -0.1647
27158SOL    HW185516   4.684   9.231   1.309  0.5822  0.3108 -0.3306
27158SOL    HW285517   4.735   9.110   1.386 -0.5780 -0.2352 -0.3944
27159SOL     OW85518   8.616   3.999   1.815  0.1610 -0.5677 -0.0544
27159SOL    HW185519   8.610   4.006   1.910  1.1723  0.5294 -0.0494
27159SOL    HW285520   8.683   4.063   1.790  0.3577 -1.2757 -1.4453
27160SOL     OW85521   6.034   3.872   8.750  0.3458  0.6601 -0.1744
27160SOL    HW185522   6.045   3.833   8.837 -0.2565  2.6480  0.8387
27160SOL    HW285523   6.085   3.815   8.692  1.7766 -0.0431  1.6690
27161SOL     OW85524   8.906   4.105   7.007 -0.1941  0.2852 -0.0482
27161SOL    HW185525   8.981   4.156   7.036 -1.5757  2.7003 -0.5044
27161SOL    HW285526   8.862   4.160   6.943 -0.7699 -2.2841 -2.0464
27162SOL     OW85527   5.630   9.941   8.381  0.0953  0.0981  0.4843
27162SOL    HW185528   5.648   9.851   8.409  3.0086  0.3591 -0.2995
27162SOL    HW285529   5.645   9.941   8.287 -0.3755  1.3118  0.3872
27163SOL     OW85530   2.187   7.575   6.207  0.4064  0.4734 -0.1608
27163SOL    HW185531   2.201   7.564   6.301 -0.1397 -0.0444 -0.1357
27163SOL    HW285532   2.239   7.652   6.184  0.0525  0.9733  0.6840
27164SOL     OW85533   1.731   3.259   5.574  0.4778  0.5615 -0.0356
27164SOL    HW185534   1.809   3.238   5.523  0.6982  1.1893  0.0273
27164SOL    HW285535   1.765   3.285   5.659  0.1722  0.4322  0.1258
27165SOL     OW85536   4.409   7.451   0.017 -0.1240  0.2351 -0.5073
27165SOL    HW185537   4.376   7.417   0.100 -1.4087 -0.6082 -1.3207
27165SOL    HW285538   4.347   7.520  -0.007 -0.0517  0.1471 -0.9754
27166SOL     OW85539  10.119   8.009   7.421 -0.2474 -0.2769  0.0696
27166SOL    HW185540  10.165   7.987   7.502 -0.4166  0.5936  0.4218
27166SOL    HW285541  10.061   8.081   7.446 -0.5061 -0.1875 -0.7629
27167SOL     OW85542   3.843   7.141   8.254  0.3410  0.0589 -0.0921
27167SOL    HW185543   3.937   7.157   8.247  0.2661  0.0799 -1.3566
27167SOL    HW285544   3.830   7.056   8.213 -0.2600  0.3242 -0.4728
27168SOL     OW85545   1.107   3.327  10.034 -0.0158  0.1491 -0.0912
27168SOL    HW185546   1.044   3.329   9.962 -0.7068  2.7502  0.4664
27168SOL    HW285547   1.177   3.385  10.005  0.6372 -0.3048  0.5568
27169SOL     OW85548   9.342   0.779   2.922 -0.2312 -0.2824  0.0231
27169SOL    HW185549   9.262   0.832   2.918  0.8804  1.7141  2.1835
27169SOL    HW285550   9.346   0.750   3.013  1.1185 -1.0092 -0.2542
27170SOL     OW85551   3.111   4.604   9.535 -0.7163  0.5802 -0.0110
27170SOL    HW185552   3.114   4.531   9.598 -0.2159  1.8304  1.4835
27170SOL    HW285553   3.042   4.579   9.474 -0.7767 -1.0015  0.6319
27171SOL     OW85554   5.748   0.796   9.825 -0.2516 -0.2042 -0.2891
27171SOL    HW185555   5.794   0.881   9.824 -0.0678 -0.3036 -0.8766
27171SOL    HW285556   5.663   0.815   9.864 -0.1434  0.2147 -0.2497
27172SOL     OW85557   2.675  10.259   6.260 -0.0745  0.9681 -0.5213
27172SOL    HW185558   2.630  10.175   6.258  2.9738 -0.8840  1.1745
27172SOL    HW285559   2.667  10.289   6.351  3.0066 -0.1240  0.2449
27173SOL     OW85560  10.196  10.211   3.790 -0.0775  0.2072  0.7665
27173SOL    HW185561  10.204  10.115   3.786  1.6106  0.3204  0.5964
27173SOL    HW285562  10.256  10.242   3.723 -0.4315  1.4018  0.9892
27174SOL     OW85563   1.492   8.946   4.653  0.0008  0.4554 -0.0296
27174SOL    HW185564   1.568   8.890   4.668  0.0105  0.6239  0.5787
27174SOL    HW285565   1.416   8.889   4.671  0.0212  1.0762  2.3617
27175SOL     OW85566  10.065   1.691   3.088  0.0300  0.4160 -0.3383
27175SOL    HW185567  10.126   1.708   3.016  0.6078 -0.1946  0.0015
27175SOL    HW285568  10.013   1.771   3.094 -0.2309  0.3765 -1.6245
27176SOL     OW85569   3.066   6.727   9.507  0.0122  0.1503 -0.9821
27176SOL    HW185570   3.048   6.687   9.592  2.1481  2.4981  0.7131
27176SOL    HW285571   3.005   6.800   9.501  1.2455  1.2772 -0.4059
27177SOL     OW85572   7.611   4.572   9.907 -0.1705  0.2880 -0.7577
27177SOL    HW185573   7.640   4.630   9.837 -1.1463 -0.6899 -2.0484
27177SOL    HW285574   7.691   4.547   9.953  0.8878 -0.9119 -3.0543
27178SOL     OW85575   4.939   9.327   6.997  0.3617  0.2327 -0.7449
27178SOL    HW185576   5.009   9.393   6.995 -0.3070  1.1181  1.7887
27178SOL    HW285577   4.899   9.336   7.083 -2.1364 -1.0528 -1.6481
27179SOL     OW85578   2.474   5.812   0.913 -0.3436 -0.2431  0.1867
27179SOL    HW185579   2.551   5.767   0.950  0.9111 -0.8404 -2.8328
27179SOL    HW285580   2.426   5.743   0.867 -1.6132  0.5086  0.3432
27180SOL     OW85581   6.204   0.840   1.699  0.3630 -0.6415  0.2823
27180SOL    HW185582   6.128   0.843   1.641 -0.4364  1.0607  1.3173
27180SOL    HW285583   6.277   0.870   1.644 -0.0562 -0.6530 -0.2858
27181SOL     OW85584   7.120   5.755   2.558 -0.6022  0.4429 -0.1195
27181SOL    HW185585   7.192   5.751   2.620 -1.8341 -0.8459  1.3252
27181SOL    HW285586   7.082   5.842   2.572  0.6585  1.1439 -0.9249
27182SOL     OW85587   5.118   7.475   5.104  0.2178  0.0498  0.5931
27182SOL    HW185588   5.169   7.553   5.126  0.9657 -0.5966  1.1864
27182SOL    HW285589   5.095   7.435   5.188  0.6230 -0.8647  0.2833
27183SOL     OW85590   1.159   6.448   5.134  0.0945  0.3577  0.5399
27183SOL    HW185591   1.120   6.415   5.214  0.5090 -2.0119 -0.1668
27183SOL    HW285592   1.086   6.457   5.073  0.1798 -0.9011  0.2322
27184SOL     OW85593   7.292   2.626   7.088 -0.4258 -0.0651  0.5123
27184SOL    HW185594   7.260   2.572   7.161  0.8727 -0.2125  1.0039
27184SOL    HW285595   7.346   2.693   7.130  1.3593 -0.8837 -0.3713
27185SOL     OW85596   6.275   1.966   4.713  0.2158  0.0714 -0.2673
27185SOL    HW185597   6.355   2.000   4.753  0.4076 -0.5398 -0.1163
27185SOL    HW285598   6.302   1.883   4.674 -0.0047  0.5580 -1.5039
27186SOL     OW85599   1.856   9.019   1.317 -0.3395  0.4377  0.2760
27186SOL    HW185600   1.879   9.051   1.230  3.0089 -1.0954  0.4291
27186SOL    HW285601   1.810   8.936   1.301 -0.3256  0.4906 -0.0524
27187SOL     OW85602   1.638   7.404   9.025 -0.2873 -0.1594 -0.6157
27187SOL    HW185603   1.588   7.332   9.063  2.6819 -1.5269  1.0174
27187SOL    HW285604   1.573   7.453   8.974 -3.1646 -1.9190  1.0487
27188SOL     OW85605   2.698   4.106   5.767 -0.1301 -0.4759  0.3547
27188SOL    HW185606   2.736   4.069   5.846 -1.3572  0.3334  1.3821
27188SOL    HW285607   2.605   4.116   5.788 -0.2040  1.2997 -0.5582
27189SOL     OW85608   5.153   0.985   2.823 -0.0872  0.2374 -0.1737
27189SOL    HW185609   5.192   1.020   2.903  1.8120 -2.0521  0.0177
27189SOL    HW285610   5.208   1.021   2.753  1.0279 -1.1520 -0.0674
27190SOL     OW85611   0.954   3.772   7.909  0.2204  0.0195  0.2792
27190SOL    HW185612   1.020   3.707   7.932  0.0290  0.2334  1.5267
27190SOL    HW285613   0.883   3.757   7.972 -1.0622 -0.4111 -1.2164
27191SOL     OW85614   5.053   6.976   9.352 -0.2588 -0.0027  0.3046
27191SOL    HW185615   5.053   6.881   9.365 -0.4020 -0.2774 -1.4362
27191SOL    HW285616   5.026   7.012   9.436 -0.2299 -1.5019  0.9893
27192SOL     OW85617   8.772   7.942   6.432 -0.5541  0.0843 -0.3760
27192SOL    HW185618   8.716   7.872   6.399  0.0999 -0.0901 -1.1376
27192SOL    HW285619   8.843   7.948   6.369 -1.0552  2.0389 -0.8402
27193SOL     OW85620   8.069   0.020   8.430 -0.4191 -0.1690  0.3564
27193SOL    HW185621   7.975   0.027   8.416 -0.4842  1.2845  1.3760
27193SOL    HW285622   8.090   0.089   8.493  1.5012  0.2615 -0.6632
27194SOL     OW85623   6.674  10.166   1.318 -0.1350 -0.2921 -0.5213
27194SOL    HW185624   6.678  10.257   1.346 -0.6738 -0.2605 -0.5440
27194SOL    HW285625   6.585  10.154   1.287 -0.0011 -0.7664 -0.7320
27195SOL     OW85626   2.972   9.550   2.049  0.3366  0.0867  0.2302
27195SOL    HW185627   2.878   9.532   2.041  0.2320  0.0416  1.3379
27195SOL    HW285628   3.001   9.490   2.119  1.3555 -0.4761 -0.6454
27196SOL     OW85629   0.586   1.152   3.610  0.4297 -0.3088 -0.1033
27196SOL    HW185630   0.494   1.159   3.585 -0.1442 -2.3819  1.1901
27196SOL    HW285631   0.607   1.237   3.649 -1.5145 -0.4196  1.2897
27197SOL     OW85632   5.303   2.728   1.968  0.7491 -0.2439 -0.4289
27197SOL    HW185633   5.281   2.635   1.974  0.0644 -0.0760 -0.2464
27197SOL    HW285634   5.340   2.749   2.054 -2.3031  0.4441  0.8421
27198SOL     OW85635   6.992  10.010   4.924  0.0532  0.4039 -0.3248
27198SOL    HW185636   6.993   9.956   4.844 -2.3783 -1.4852  0.7742
27198SOL    HW285637   6.900  10.034   4.935 -0.3658 -1.9853  3.3974
27199SOL     OW85638   7.519   9.256   8.106  0.3300  0.3528  0.2040
27199SOL    HW185639   7.424   9.271   8.098  0.5349  0.9351 -1.7932
27199SOL    HW285640   7.558   9.323   8.050  1.9998  0.6897  1.6978
27200SOL     OW85641   6.652   1.617   4.561 -0.4748 -0.3218  0.2195
27200SOL    HW185642   6.596   1.685   4.522 -0.4768 -0.7490 -0.5336
27200SOL    HW285643   6.628   1.537   4.515  2.3278 -0.1515 -1.7927
27201SOL     OW85644   5.210   3.885   0.162 -1.0903  0.3572 -0.3413
27201SOL    HW185645   5.264   3.952   0.119 -0.8660  0.1464 -0.3867
27201SOL    HW285646   5.184   3.826   0.091 -0.8770  0.1158 -0.2170
27202SOL     OW85647   3.498   8.378   1.150  0.2404 -0.7602  0.1381
27202SOL    HW185648   3.402   8.382   1.150  0.2636  0.7480 -0.8696
27202SOL    HW285649   3.522   8.388   1.058  1.3563 -1.9932  0.2779
27203SOL     OW85650   5.270   5.478   3.696 -0.1273  0.1529 -0.1343
27203SOL    HW185651   5.244   5.493   3.787 -0.5081  2.0070 -0.4914
27203SOL    HW285652   5.300   5.388   3.693 -4.1506 -1.4617  0.9115
27204SOL     OW85653   1.810   9.675   2.063 -0.6778  0.2108  0.2430
27204SOL    HW185654   1.824   9.728   1.985 -0.0436  2.0142  1.5124
27204SOL    HW285655   1.880   9.610   2.061  0.3221  1.2628  0.1119
27205SOL     OW85656   0.205   8.108   7.833  0.3398  0.1434  0.0751
27205SOL    HW185657   0.269   8.175   7.857  0.2346  1.1369 -2.1636
27205SOL    HW285658   0.120   8.148   7.848  0.2305 -0.4150  1.0473
27206SOL     OW85659   6.425   2.801   1.842 -0.9460 -0.4483  0.0216
27206SOL    HW185660   6.339   2.767   1.817 -1.1113  0.0856 -0.1357
27206SOL    HW285661   6.429   2.787   1.937 -1.9081  1.0592  0.3188
27207SOL     OW85662   6.101   5.339   8.124  0.8669  0.3920  0.3100
27207SOL    HW185663   6.091   5.249   8.094  0.3912  0.8322 -0.9229
27207SOL    HW285664   6.074   5.392   8.049 -0.8547  1.5590  1.6905
27208SOL     OW85665   5.411   9.922   7.697 -0.0476  0.1977 -0.1928
27208SOL    HW185666   5.396   9.975   7.775  1.2439  2.2180 -1.2189
27208SOL    HW285667   5.339   9.945   7.638 -0.3271 -0.3634 -0.0720
27209SOL     OW85668   0.287   9.387   6.202 -0.1015 -0.1404 -0.0625
27209SOL    HW185669   0.195   9.378   6.227  0.0876  3.5548  2.8884
27209SOL    HW285670   0.286   9.444   6.125 -0.2966  0.9173  0.7070
27210SOL     OW85671   6.560   0.234   2.299 -0.7846 -0.2981  0.3381
27210SOL    HW185672   6.571   0.322   2.263 -1.8308  0.0527  0.8499
27210SOL    HW285673   6.560   0.176   2.222  0.1808  0.1059  0.0209
27211SOL     OW85674   6.754   0.823   0.662  0.6078  0.1693  0.0827
27211SOL    HW185675   6.827   0.762   0.670 -0.1967 -0.8689 -0.2392
27211SOL    HW285676   6.684   0.772   0.621 -0.4339  1.0046  0.7413
27212SOL     OW85677   6.977   0.249   2.063  0.0656  0.0507 -0.4418
27212SOL    HW185678   7.055   0.212   2.104  0.4537  0.0415 -1.1829
27212SOL    HW285679   6.948   0.181   2.002 -0.1930  0.2830 -0.5796
27213SOL     OW85680   7.836   3.302   2.808  0.1855  0.0356  0.1239
27213SOL    HW185681   7.901   3.287   2.877 -3.4543  0.8142  4.1545
27213SOL    HW285682   7.759   3.253   2.837 -1.2852 -0.6480 -4.2169
27214SOL     OW85683   0.356   8.924   4.196 -0.5814  0.4466  0.7507
27214SOL    HW185684   0.440   8.904   4.238  0.2012  0.5499 -0.7102
27214SOL    HW285685   0.378   8.938   4.104 -2.5097 -1.6978 -0.1359
27215SOL     OW85686   9.715   4.241   8.791 -0.1765  0.5866  0.2700
27215SOL    HW185687   9.796   4.292   8.789 -0.6622  1.3930 -1.6163
27215SOL    HW285688   9.652   4.298   8.835  0.6915 -0.8487  3.6166
27216SOL     OW85689   0.826   5.515   9.758  0.0583  0.0954 -0.4347
27216SOL    HW185690   0.779   5.510   9.842 -0.6529  1.5741 -0.7257
27216SOL    HW285691   0.832   5.608   9.739  1.7074 -0.1428 -1.2236
27217SOL     OW85692   5.306   3.413   3.362 -0.5124 -0.2363  0.3550
27217SOL    HW185693   5.273   3.488   3.313 -0.6133  0.0389  0.8375
27217SOL    HW285694   5.233   3.351   3.363  0.0655 -1.0122 -1.3644
27218SOL     OW85695   9.061   3.200   3.172 -0.5488  1.2091 -0.2067
27218SOL    HW185696   9.067   3.289   3.207  0.9660  0.9832  0.1803
27218SOL    HW285697   9.072   3.212   3.078  1.2351  1.3259 -0.0152
27219SOL     OW85698   9.644   0.956   8.817 -0.2640 -0.1319  0.4701
27219SOL    HW185699   9.716   1.006   8.855 -0.9171  2.0122 -0.9274
27219SOL    HW285700   9.680   0.919   8.736 -0.5095  0.2437  0.1900
27220SOL     OW85701  10.053   8.013   4.400 -0.3671 -0.0155  0.2346
27220SOL    HW185702   9.983   8.053   4.452 -0.9799 -0.6989 -0.0439
27220SOL    HW285703  10.108   7.969   4.464 -0.5032  0.0719  0.4123
27221SOL     OW85704   8.471   8.968   1.438  0.1780 -0.1823 -0.0377
27221SOL    HW185705   8.378   8.986   1.429  0.1342 -0.7661 -0.9279
27221SOL    HW285706   8.514   9.041   1.393  0.1917  0.4211  0.9139
27222SOL     OW85707   8.067   1.580   1.241 -0.3842  0.1603 -0.2817
27222SOL    HW185708   8.081   1.489   1.213  0.8219  0.3573 -0.3370
27222SOL    HW285709   8.011   1.617   1.172  0.5050 -0.0721 -1.1505
27223SOL     OW85710   4.173   0.369   4.282  0.0201 -0.0212  0.2776
27223SOL    HW185711   4.094   0.414   4.310  0.3944  0.7879  0.0396
27223SOL    HW285712   4.153   0.276   4.295 -0.2642  0.2575  2.0487
27224SOL     OW85713   1.814   0.597  10.193  0.2881 -0.0751 -0.2094
27224SOL    HW185714   1.781   0.618  10.106  3.0210  1.9080 -0.9036
27224SOL    HW285715   1.895   0.549  10.178  1.5061  1.4256  1.1126
27225SOL     OW85716   7.803   1.692   8.904 -0.1262  0.0444  0.4618
27225SOL    HW185717   7.876   1.680   8.966 -0.7165  0.5822  1.2949
27225SOL    HW285718   7.736   1.630   8.934 -0.2958  0.0834  0.1621
27226SOL     OW85719   2.108   7.028   2.584  0.0090 -0.8056 -0.9388
27226SOL    HW185720   2.017   7.013   2.610 -0.4482  3.5093  0.8149
27226SOL    HW285721   2.159   7.006   2.662  0.3875 -2.0370 -1.5108
27227SOL     OW85722   0.259   2.577   9.741  0.3643 -0.2096  0.3044
27227SOL    HW185723   0.260   2.613   9.652 -0.8224  1.4237  0.8841
27227SOL    HW285724   0.340   2.527   9.748  0.5251 -0.3163 -1.6602
27228SOL     OW85725  10.101   7.860   7.181 -0.2784  0.1544 -0.0085
27228SOL    HW185726  10.109   7.889   7.271 -0.6619 -0.7005  0.3120
27228SOL    HW285727  10.158   7.919   7.131 -0.7443  1.1791  0.6637
27229SOL     OW85728   3.675   6.228   6.977  0.1370  0.1006  0.3239
27229SOL    HW185729   3.584   6.258   6.980  0.0980 -0.0362  0.4690
27229SOL    HW285730   3.711   6.249   7.063  0.3461  0.4783  0.1492
27230SOL     OW85731   7.932   4.530   5.987  0.3786  0.0159 -0.4311
27230SOL    HW185732   8.002   4.480   6.029  0.2599  0.1894 -0.0102
27230SOL    HW285733   7.903   4.476   5.914  1.4368  0.2675 -1.0523
27231SOL     OW85734   0.361   5.632   9.655  0.7145 -0.1489  0.5886
27231SOL    HW185735   0.307   5.710   9.667 -0.5456 -0.7357 -0.8777
27231SOL    HW285736   0.422   5.655   9.585  0.1014 -0.5473 -0.1026
27232SOL     OW85737   2.282   9.815   7.447  0.1589  1.0235 -0.0593
27232SOL    HW185738   2.331   9.763   7.384  0.7234  0.7385  0.5976
27232SOL    HW285739   2.213   9.857   7.395 -0.4977 -0.5882 -0.5743
27233SOL     OW85740   5.534   3.658   4.324  0.2028 -0.0514  0.2302
27233SOL    HW185741   5.587   3.725   4.367 -0.2436  0.3495  0.1649
27233SOL    HW285742   5.522   3.591   4.392 -1.6844  1.2260  1.2528
27234SOL     OW85743   1.382   4.229   1.962 -0.3889 -0.3160 -0.1092
27234SOL    HW185744   1.349   4.316   1.983 -2.2396 -0.4936 -1.8588
27234SOL    HW285745   1.346   4.172   2.029  2.0165  0.3601  1.9063
27235SOL     OW85746   8.911   8.342   4.769 -0.0276 -0.0362 -0.0882
27235SOL    HW185747   8.936   8.286   4.695  0.2814  0.3616 -0.2910
27235SOL    HW285748   8.924   8.432   4.736  1.0927  0.1388  0.7826
27236SOL     OW85749   9.008   0.553   8.695  0.3938 -0.4238 -0.2493
27236SOL    HW185750   9.006   0.540   8.600  1.1409  0.7133 -0.4542
27236SOL    HW285751   9.017   0.648   8.705  0.8934 -0.5791  0.9449
27237SOL     OW85752   7.378   4.830   5.569  0.2860 -0.1580  0.0795
27237SOL    HW185753   7.452   4.842   5.509 -1.2180  0.6226 -1.7260
27237SOL    HW285754   7.405   4.875   5.649  0.9246  2.1373 -1.3108
27238SOL     OW85755   8.497   2.062   2.399  0.6587 -0.2932 -0.1987
27238SOL    HW185756   8.440   2.038   2.327  0.6845 -1.0058  0.0114
27238SOL    HW285757   8.496   1.986   2.457  0.3275  0.4156  0.7494
27239SOL     OW85758   0.328   0.288   7.132 -0.2301  0.0006 -0.1529
27239SOL    HW185759   0.352   0.261   7.043  0.9114  1.2039 -0.2541
27239SOL    HW285760   0.233   0.276   7.137 -0.2048 -0.7625 -1.2932
27240SOL     OW85761   2.658   2.145   2.402 -0.0871 -0.0514 -0.8415
27240SOL    HW185762   2.708   2.064   2.390  1.4380  1.0459 -2.3896
27240SOL    HW285763   2.648   2.153   2.497  1.0095 -1.3249 -0.5863
27241SOL     OW85764   8.700   8.572   2.746  0.3751  0.0565  0.2149
27241SOL    HW185765   8.772   8.633   2.730  0.9532 -0.6397  0.1231
27241SOL    HW285766   8.733   8.487   2.717 -1.0240 -0.0370 -1.2612
27242SOL     OW85767   8.203   4.109   2.766  0.4765 -0.0693  0.1688
27242SOL    HW185768   8.135   4.066   2.817  1.5537 -0.7804  1.0697
27242SOL    HW285769   8.171   4.107   2.676 -0.3902 -0.9908  0.4806
27243SOL     OW85770   4.922   4.671   5.564  0.2182  0.0220  0.1726
27243SOL    HW185771   4.867   4.667   5.643  2.6045 -0.8091  1.8961
27243SOL    HW285772   4.990   4.606   5.579 -1.3493 -3.1578 -4.3653
27244SOL     OW85773  10.078   2.880   3.108  0.3798  0.4173  0.2670
27244SOL    HW185774  10.002   2.928   3.142 -0.1125 -0.4004  0.3715
27244SOL    HW285775  10.045   2.835   3.030  1.2716  1.5573 -0.8120
27245SOL     OW85776   1.175   3.099   1.499  0.5709 -0.7575  0.0331
27245SOL    HW185777   1.242   3.167   1.499  1.1749 -1.2908  1.6984
27245SOL    HW285778   1.092   3.147   1.496  0.9948 -0.0591 -1.0193
27246SOL     OW85779   4.703   6.886   7.249 -0.2518 -0.2604 -0.4209
27246SOL    HW185780   4.667   6.961   7.202  0.3880  0.9758  1.0082
27246SOL    HW285781   4.742   6.832   7.180 -0.7658  0.6927 -1.4887
27247SOL     OW85782   9.975   3.249   3.831  0.4211 -0.0385  0.0816
27247SOL    HW185783   9.939   3.213   3.912 -0.8321  2.0038  0.5173
27247SOL    HW285784  10.043   3.310   3.860 -0.0238  0.6920 -0.3737
27248SOL     OW85785   7.661   2.644   2.946 -0.2103 -0.1520  0.2046
27248SOL    HW185786   7.700   2.558   2.963 -2.6610 -0.9982  2.1797
27248SOL    HW285787   7.597   2.629   2.877 -0.8832 -0.0209  0.7871
27249SOL     OW85788   6.559   2.978   4.716  0.6980  0.0528 -0.0646
27249SOL    HW185789   6.564   2.956   4.623 -1.4830  1.4232 -0.5717
27249SOL    HW285790   6.487   2.926   4.750 -0.5728  1.8204  0.0846
27250SOL     OW85791   2.245   0.363   4.664 -0.0014  0.2354  0.1541
27250SOL    HW185792   2.319   0.303   4.660  0.2606  0.6092 -0.7298
27250SOL    HW285793   2.188   0.337   4.592 -2.5209 -2.2848  2.7951
27251SOL     OW85794   3.753   5.091   6.568  0.2171 -0.0248  0.8860
27251SOL    HW185795   3.676   5.036   6.557  0.4942 -0.0236 -1.5082
27251SOL    HW285796   3.812   5.065   6.497  1.6939  1.1792  1.6075
27252SOL     OW85797   8.390   2.236   5.948  0.2251  0.1164 -0.6610
27252SOL    HW185798   8.424   2.167   6.004 -1.6438  0.6441  1.2557
27252SOL    HW285799   8.311   2.199   5.908 -2.2329  1.7025  2.2721
27253SOL     OW85800   0.002   6.344   2.445  0.1979 -0.3593  0.0757
27253SOL    HW185801   0.061   6.321   2.374  0.7831  0.1905  0.3745
27253SOL    HW285802  -0.056   6.268   2.454 -1.1749  0.3272 -2.2735
27254SOL     OW85803   7.969   8.645   8.143 -0.1496 -0.3659  0.1251
27254SOL    HW185804   7.890   8.665   8.093  0.9853  1.6172 -1.0225
27254SOL    HW285805   7.962   8.551   8.162 -2.7252 -0.2626  0.0451
27255SOL     OW85806   7.540   2.937   3.280  0.0236  0.2897 -0.2502
27255SOL    HW185807   7.593   2.887   3.343 -0.1196  3.5724  2.7927
27255SOL    HW285808   7.600   3.004   3.247 -0.9304  0.9975 -0.5767
27256SOL     OW85809   1.309   0.156   1.486 -0.0462  0.1146 -0.0354
27256SOL    HW185810   1.256   0.091   1.533  1.4805 -1.3840 -0.3008
27256SOL    HW285811   1.395   0.115   1.476  0.1558  0.9961 -2.7853
27257SOL     OW85812   6.250   8.820   5.043 -0.1527  0.3875  0.2202
27257SOL    HW185813   6.337   8.779   5.039  0.0402  0.6147  1.6026
27257SOL    HW285814   6.251   8.869   5.124 -1.8313 -0.1583  0.6014
27258SOL     OW85815   6.574   8.746   0.051 -0.1381 -0.8928  0.2044
27258SOL    HW185816   6.584   8.659   0.012 -1.6716 -0.7070 -0.7136
27258SOL    HW285817   6.487   8.774   0.023  0.4845  1.1047  0.1379
27259SOL     OW85818   3.889   1.317   2.337 -0.1964  0.2018  0.6139
27259SOL    HW185819   3.923   1.339   2.250 -0.0109  0.5950  0.7809
27259SOL    HW285820   3.914   1.392   2.391  0.7414 -0.5825  1.2884
27260SOL     OW85821   4.128   1.917   8.685  0.6297 -0.2839 -0.1498
27260SOL    HW185822   4.042   1.875   8.678 -0.3487  1.3786  0.9663
27260SOL    HW285823   4.128   1.982   8.615  1.0273 -0.3643 -0.2223
27261SOL     OW85824   2.517   2.368   1.535 -0.2355 -0.3763 -0.1552
27261SOL    HW185825   2.592   2.415   1.571  1.4558 -1.4515 -2.1015
27261SOL    HW285826   2.489   2.309   1.605  1.6915 -1.0133  0.1297
27262SOL     OW85827   8.046   5.220   3.901 -0.1733  0.0642  0.5585
27262SOL    HW185828   8.075   5.310   3.911  1.2347 -0.2673 -0.2159
27262SOL    HW285829   7.986   5.205   3.974 -2.3588  2.3422 -0.6608
27263SOL     OW85830   0.057   5.481   7.115  1.4015  0.0953  0.0179
27263SOL    HW185831   0.011   5.444   7.039 -0.0668 -1.0783  1.4276
27263SOL    HW285832   0.127   5.533   7.076 -0.8755  1.7522 -2.2841
27264SOL     OW85833   0.727   9.579   7.870  0.0783 -0.4619  0.4607
27264SOL    HW185834   0.820   9.574   7.848  0.2083  1.1695  0.5460
27264SOL    HW285835   0.713   9.502   7.926  1.8067  0.1765  1.8999
27265SOL     OW85836   6.546   5.449   3.650  0.6045  0.0876 -0.1365
27265SOL    HW185837   6.508   5.467   3.564 -0.8294 -0.8189  0.2673
27265SOL    HW285838   6.628   5.498   3.651  1.2352 -0.8239 -2.4547
27266SOL     OW85839   7.824   6.328   3.707  0.1812 -0.2120  0.2169
27266SOL    HW185840   7.841   6.234   3.703 -0.1836 -0.3199  1.0645
27266SOL    HW285841   7.823   6.348   3.800  0.3903  0.6615  0.0366
27267SOL     OW85842   5.724   5.528   5.989  0.5191  0.8423  0.1228
27267SOL    HW185843   5.755   5.537   6.079  0.7928  0.4897  0.0675
27267SOL    HW285844   5.671   5.606   5.973  0.7397  1.0645  0.4820
27268SOL     OW85845   0.804   7.071   2.120  0.2697 -0.1852 -0.2329
27268SOL    HW185846   0.778   7.034   2.205  0.1286 -0.1065 -0.2416
27268SOL    HW285847   0.866   7.140   2.143 -0.1365  0.1631 -0.1613
27269SOL     OW85848   6.292   6.180   4.824  0.6861 -0.0630  0.1108
27269SOL    HW185849   6.311   6.142   4.739  1.6326 -1.0797  0.7467
27269SOL    HW285850   6.245   6.112   4.871 -2.5145  1.5007 -0.5423
27270SOL     OW85851   7.709   0.913   6.968 -0.1262  0.1534  0.4252
27270SOL    HW185852   7.694   1.004   6.994 -0.4809  0.2152  0.0342
27270SOL    HW285853   7.766   0.877   7.036 -1.3908  0.1632  1.5227
27271SOL     OW85854   8.683   8.263   3.530 -0.4821 -0.1646  0.1202
27271SOL    HW185855   8.623   8.301   3.466  0.0545  1.4247  0.5361
27271SOL    HW285856   8.770   8.274   3.491 -0.2123  0.1776  0.8190
27272SOL     OW85857   8.367   0.432   9.820  0.0522  0.2297 -0.1181
27272SOL    HW185858   8.336   0.432   9.729 -0.4298 -0.1303  0.0452
27272SOL    HW285859   8.407   0.346   9.832  0.1314  0.2834  0.0026
27273SOL     OW85860   3.887   8.833  10.130 -0.8442  0.2170 -0.0126
27273SOL    HW185861   3.854   8.761  10.076 -2.2857  0.0972  0.9692
27273SOL    HW285862   3.976   8.806  10.154 -1.0348 -0.8136 -0.4050
27274SOL     OW85863   3.696   2.963   3.240  0.2001 -0.0143  0.0098
27274SOL    HW185864   3.644   3.041   3.222 -1.2364 -0.4600  1.9067
27274SOL    HW285865   3.783   2.998   3.262 -0.0924  0.9733 -0.3313
27275SOL     OW85866   0.773   7.188   3.388 -0.3509 -0.0551  0.3091
27275SOL    HW185867   0.768   7.279   3.359 -2.1050 -0.1629  0.1748
27275SOL    HW285868   0.696   7.176   3.445 -1.7079 -2.1291 -1.7423
27276SOL     OW85869   7.211   6.218   5.221  0.3838  0.1832 -0.1644
27276SOL    HW185870   7.244   6.168   5.296  0.7880 -0.0558 -0.4984
27276SOL    HW285871   7.167   6.293   5.260 -1.4694 -1.1373  0.4237
27277SOL     OW85872  10.285   0.765   9.684 -0.1711  0.3488 -0.6958
27277SOL    HW185873  10.328   0.682   9.704  0.2109  0.5942 -0.4947
27277SOL    HW285874  10.285   0.812   9.767 -3.0977 -0.6399  0.0184
27278SOL     OW85875   0.024   0.146   8.354 -0.0378 -0.2578 -0.2591
27278SOL    HW185876  -0.031   0.127   8.278 -0.8527 -1.7164  0.6480
27278SOL    HW285877  -0.028   0.118   8.429  1.2641 -0.0459  0.7630
27279SOL     OW85878   9.867   8.817   0.821 -0.3748  0.2558  0.1216
27279SOL    HW185879   9.818   8.896   0.798 -2.0517 -0.2110  1.8496
27279SOL    HW285880   9.856   8.809   0.916 -0.3391 -2.1069 -0.0140
27280SOL     OW85881   0.866   3.802   6.301 -0.1535 -0.5472 -0.1888
27280SOL    HW185882   0.862   3.751   6.382  1.1233 -0.3964  0.0037
27280SOL    HW285883   0.938   3.864   6.316 -0.1546 -0.2596 -1.2936
27281SOL     OW85884   1.004   8.087   2.216 -0.8882 -0.0286  0.3458
27281SOL    HW185885   1.074   8.139   2.255 -1.9362  1.0445  0.8847
27281SOL    HW285886   1.044   8.004   2.194  1.2662  1.4860 -1.9452
27282SOL     OW85887   4.307   9.912   1.889  0.1638  0.1413  0.2686
27282SOL    HW185888   4.334   9.839   1.833  0.7984  1.4305 -1.1773
27282SOL    HW285889   4.216   9.892   1.912 -0.3603 -0.1201 -1.8257
27283SOL     OW85890   7.138   8.325   5.715  0.2541  0.2724  0.0571
27283SOL    HW185891   7.095   8.364   5.791 -0.2090  3.0338 -1.4930
27283SOL    HW285892   7.231   8.338   5.731  0.1172  2.3572 -0.4817
27284SOL     OW85893   5.582   3.467   9.150 -0.2750 -0.1664  0.0283
27284SOL    HW185894   5.589   3.383   9.196  0.5302 -0.4793 -0.6379
27284SOL    HW285895   5.488   3.484   9.145 -0.4635 -1.1957 -0.1226
27285SOL     OW85896   1.937  10.064   3.825 -0.0817 -0.0745 -0.3885
27285SOL    HW185897   1.853  10.079   3.869  0.3211 -1.8578  1.1416
27285SOL    HW285898   2.003  10.086   3.891  0.5389 -2.6303 -0.0437
27286SOL     OW85899   8.013   5.103   2.776  0.1628  0.1883 -0.3500
27286SOL    HW185900   7.970   5.095   2.861 -1.3093 -0.9283 -1.1570
27286SOL    HW285901   8.092   5.049   2.784  0.0430  0.0984  0.3045
27287SOL     OW85902   0.300   6.543   0.047 -0.0726  0.0357 -0.1350
27287SOL    HW185903   0.209   6.522   0.026 -1.0604  0.4068  3.1289
27287SOL    HW285904   0.311   6.634   0.017 -0.4560 -0.2850 -1.3133
27288SOL     OW85905   9.959   9.170   7.771  0.4289  0.6352  0.5747
27288SOL    HW185906  10.047   9.142   7.797  1.0153  0.8608 -1.0554
27288SOL    HW285907   9.946   9.134   7.683 -0.6770  1.4951  0.3497
27289SOL     OW85908   3.659   1.814   5.031 -0.2667 -0.4648 -0.7705
27289SOL    HW185909   3.668   1.757   4.954  1.1088 -2.5021  0.7682
27289SOL    HW285910   3.749   1.839   5.052 -0.6286  0.0980  0.1487
27290SOL     OW85911   4.587   4.734   4.183  0.3479  0.0626 -0.1816
27290SOL    HW185912   4.622   4.722   4.271  0.8292  1.2264 -0.1932
27290SOL    HW285913   4.664   4.733   4.126  0.1984  0.8274 -0.4125
27291SOL     OW85914   9.665   1.107   4.000  0.5084 -0.4182  0.1126
27291SOL    HW185915   9.749   1.065   4.018  0.1426 -1.4335 -0.4445
27291SOL    HW285916   9.688   1.189   3.957  1.2493  0.0291  1.3269
27292SOL     OW85917   7.006   5.895   6.016  0.1719  0.1399  0.1053
27292SOL    HW185918   6.962   5.870   6.097  2.9769  1.2454  2.1200
27292SOL    HW285919   7.058   5.818   5.992 -0.6508 -0.1861 -0.7247
27293SOL     OW85920   3.327   1.030   6.891  0.2428 -0.5487  0.4128
27293SOL    HW185921   3.365   0.996   6.972  0.1916 -0.0229  0.6627
27293SOL    HW285922   3.373   1.112   6.876  0.0938 -0.5357  0.0292
27294SOL     OW85923   7.824   2.951   5.486 -0.1125  0.3094 -0.1463
27294SOL    HW185924   7.816   2.880   5.551 -2.2830 -0.0226 -0.6883
27294SOL    HW285925   7.893   3.007   5.521  0.6278 -1.2684  1.0787
27295SOL     OW85926   2.828   0.277   2.004 -0.2991  0.1776  0.0819
27295SOL    HW185927   2.835   0.190   1.966 -0.2082 -0.3209  1.1874
27295SOL    HW285928   2.774   0.326   1.942  0.8063 -0.2385 -1.2451
27296SOL     OW85929   0.482   0.732   9.248 -0.6669 -0.8753 -0.7139
27296SOL    HW185930   0.544   0.728   9.175  0.0974  0.1067 -0.1521
27296SOL    HW285931   0.514   0.667   9.310  0.1058 -0.0568 -0.2231
27297SOL     OW85932  10.110   3.724   6.275 -0.3370 -0.1217 -0.5129
27297SOL    HW185933  10.137   3.634   6.294 -0.7317  0.0792  1.1364
27297SOL    HW285934  10.048   3.746   6.344  0.5711  1.7821 -0.2137
27298SOL     OW85935   1.808   9.616  10.262 -0.0974  0.1072 -0.3890
27298SOL    HW185936   1.827   9.615  10.355  0.5680  0.9331 -0.5061
27298SOL    HW285937   1.739   9.550  10.251 -3.1919  2.7848  1.3222
27299SOL     OW85938   1.202   6.881  10.219 -0.5233 -0.1628 -0.1745
27299SOL    HW185939   1.171   6.969  10.243  1.0106  0.6512 -1.0029
27299SOL    HW285940   1.252   6.852  10.296  0.7938  0.6433 -0.6855
27300SOL     OW85941   9.605   4.871   0.386  0.3311  0.0086  0.0776
27300SOL    HW185942   9.623   4.933   0.315  0.3934  2.7585  2.3239
27300SOL    HW285943   9.510   4.862   0.387  0.3967 -1.0665 -1.1019
27301SOL     OW85944   0.034   5.519   9.613  0.3927 -0.1413 -0.2536
27301SOL    HW185945   0.028   5.589   9.548 -1.7759  0.6563  0.7263
27301SOL    HW285946   0.066   5.563   9.692  0.9318 -0.6810 -0.1581
27302SOL     OW85947   2.441   7.497   2.485 -0.9357  0.5181  0.7559
27302SOL    HW185948   2.422   7.432   2.418 -0.2474 -0.1963  1.2328
27302SOL    HW285949   2.375   7.481   2.553 -1.9325  1.5546  0.0610
27303SOL     OW85950   5.904   5.261   2.396  0.5837 -0.0279  0.1131
27303SOL    HW185951   5.896   5.184   2.453 -0.4413  0.1626  0.2495
27303SOL    HW285952   5.940   5.329   2.453  2.3289 -0.6158 -0.2258
27304SOL     OW85953   4.729   0.172   2.756  0.0057  0.4112  0.1795
27304SOL    HW185954   4.809   0.173   2.703 -0.3133  2.3699 -0.3531
27304SOL    HW285955   4.753   0.219   2.836  0.2669 -1.8714  1.5360
27305SOL     OW85956  10.246   5.546   7.490 -0.1523  0.0186  0.2613
27305SOL    HW185957  10.294   5.477   7.443 -0.5789 -0.5528  0.6536
27305SOL    HW285958  10.239   5.514   7.580 -2.6203 -0.6598 -0.1096
27306SOL     OW85959   9.914   5.009   4.919  0.3992 -0.8650  0.4318
27306SOL    HW185960   9.853   4.991   4.991  0.4830 -1.0823  0.4498
27306SOL    HW285961   9.992   5.044   4.962  0.1484 -0.2308  0.3767
27307SOL     OW85962   2.438   7.973   7.309 -0.1676  0.8957  0.1416
27307SOL    HW185963   2.392   8.010   7.234  0.5296  2.3228  0.3680
27307SOL    HW285964   2.375   7.915   7.350 -1.1049  1.3297 -0.6445
27308SOL     OW85965   6.710  10.272   6.993  0.8008 -0.0517  0.3876
27308SOL    HW185966   6.725  10.351   6.943  0.5426  0.2376  0.7599
27308SOL    HW285967   6.711  10.301   7.085 -1.7327 -0.0245  0.4824
27309SOL     OW85968   0.416   0.340   4.989 -0.0086 -0.2591  0.0176
27309SOL    HW185969   0.351   0.359   5.056 -0.7115  0.7525 -0.9136
27309SOL    HW285970   0.462   0.423   4.976  1.8606 -1.0669  1.0226
27310SOL     OW85971   3.280   8.192  10.192 -0.1501  0.0356  0.1784
27310SOL    HW185972   3.285   8.173  10.098 -0.6433 -0.4081  0.2365
27310SOL    HW285973   3.196   8.154  10.219 -0.6914  1.3925  0.5076
27311SOL     OW85974   6.807   3.907   2.173 -0.6615 -0.4602  0.4034
27311SOL    HW185975   6.860   3.858   2.237 -0.0195  0.7396  0.8237
27311SOL    HW285976   6.740   3.951   2.225 -0.0314  0.6642  0.3003
27312SOL     OW85977   1.214   7.154   2.125 -0.6664 -0.7665 -0.1381
27312SOL    HW185978   1.276   7.192   2.062  1.2788 -0.0260  2.1102
27312SOL    HW285979   1.234   7.061   2.126 -0.6024 -0.7574 -0.4844
27313SOL     OW85980   3.491   9.278   7.675  0.5202  0.3412  0.2684
27313SOL    HW185981   3.445   9.214   7.619 -0.1864  0.1813  1.0209
27313SOL    HW285982   3.434   9.354   7.676  1.3742  1.0261 -0.6449
27314SOL     OW85983   3.312   9.999   6.494 -0.6178  0.2757 -0.4282
27314SOL    HW185984   3.236  10.045   6.458  0.9543  3.0406 -0.4228
27314SOL    HW285985   3.329  10.041   6.578  2.6249  1.8506 -1.7040
27315SOL     OW85986   3.711  10.186   0.548  0.6385  0.7741  0.1044
27315SOL    HW185987   3.651  10.246   0.592 -1.8287 -1.2849 -0.1343
27315SOL    HW285988   3.742  10.234   0.471  0.9367  2.6245  1.3326
27316SOL     OW85989   5.306   0.106   3.456  0.0567 -0.1171 -0.0081
27316SOL    HW185990   5.400   0.115   3.465  0.1496 -0.9091 -0.0752
27316SOL    HW285991   5.293   0.015   3.426 -0.5336  0.8110 -2.8627
27317SOL     OW85992   7.965   2.449   9.177 -0.4480 -0.3281  0.4778
27317SOL    HW185993   8.032   2.405   9.230  0.8090 -0.8374 -1.4338
27317SOL    HW285994   7.995   2.540   9.172  0.9973 -0.8332 -1.5465
27318SOL     OW85995   8.284   3.829   1.954  0.2420  0.2652 -0.2350
27318SOL    HW185996   8.283   3.924   1.946  2.1990  0.3314 -0.2250
27318SOL    HW285997   8.324   3.798   1.873 -0.7336 -0.5925 -0.4107
27319SOL     OW85998   2.529   2.890   6.452 -0.3745 -0.1448  0.0777
27319SOL    HW185999   2.617   2.854   6.460 -0.3861 -0.4755 -1.0962
27319SOL    HW286000   2.522   2.954   6.523  0.1986 -1.3419  1.2440
27320SOL     OW86001   8.576   5.520  10.260  0.4097  0.0880 -0.5058
27320SOL    HW186002   8.645   5.468  10.301  1.3038  1.3787 -0.3218
27320SOL    HW286003   8.615   5.553  10.180 -0.1780  0.4135 -0.6632
27321SOL     OW86004   9.559   1.351   7.304 -0.2498 -0.0603  0.3143
27321SOL    HW186005   9.502   1.423   7.330  2.0940  1.9627  0.1280
27321SOL    HW286006   9.570   1.299   7.383 -1.0674  0.4235  0.7533
27322SOL     OW86007   1.924   3.660   2.666  0.8868 -0.3027  0.0837
27322SOL    HW186008   1.975   3.668   2.585  1.3352  0.4258  0.4243
27322SOL    HW286009   1.974   3.597   2.718  2.8219  2.1087  1.3764
27323SOL     OW86010   3.510   4.337   4.153 -0.1117 -0.7228 -0.0453
27323SOL    HW186011   3.542   4.400   4.218 -2.2759  0.3679  0.0557
27323SOL    HW286012   3.432   4.298   4.193 -1.0823 -0.5604 -1.6623
27324SOL     OW86013   6.372   5.667   8.648 -0.1745  0.1269  0.0319
27324SOL    HW186014   6.346   5.577   8.626  1.8350 -0.7811  1.0788
27324SOL    HW286015   6.430   5.693   8.577  0.1231  0.1650  0.2867
27325SOL     OW86016   5.172   5.605  10.174  0.3334 -0.1186  0.0261
27325SOL    HW186017   5.120   5.617  10.253  0.2077 -0.1891 -0.0464
27325SOL    HW286018   5.140   5.672  10.114 -1.9080 -2.1495 -1.1916
27326SOL     OW86019   8.376   6.851   2.491 -0.0437 -0.1083  0.0498
27326SOL    HW186020   8.332   6.780   2.446 -0.4039 -0.0730  0.3420
27326SOL    HW286021   8.458   6.813   2.522  1.0130  0.3049 -2.0892
27327SOL     OW86022   2.121   8.445   6.222  0.0406 -0.0132 -0.5492
27327SOL    HW186023   2.178   8.507   6.267 -0.4855 -0.1172  0.2745
27327SOL    HW286024   2.138   8.460   6.129  0.1513  1.1395 -0.3560
27328SOL     OW86025   7.782   2.438   1.972  0.2146  0.0535  0.1387
27328SOL    HW186026   7.764   2.407   2.061 -1.4708 -0.2764 -0.2812
27328SOL    HW286027   7.797   2.358   1.922  0.4504  0.1986 -0.0222
27329SOL     OW86028   3.418   5.944   2.322 -0.3397  0.3258 -0.0188
27329SOL    HW186029   3.370   5.969   2.243  0.2855  1.5283 -0.0425
27329SOL    HW286030   3.497   5.998   2.320  1.3518 -2.0461 -0.2905
27330SOL     OW86031   9.409   9.006   3.859  0.2897  0.6502 -0.3472
27330SOL    HW186032   9.444   9.083   3.904  2.1684  0.2207 -0.9648
27330SOL    HW286033   9.468   8.935   3.884 -0.2654 -0.1851 -1.3070
27331SOL     OW86034   5.761   9.008   0.272 -0.5478  0.5006 -0.3307
27331SOL    HW186035   5.804   9.072   0.216 -3.1743 -0.0453 -3.2356
27331SOL    HW286036   5.677   9.048   0.295 -0.8155 -0.5612  0.6765
27332SOL     OW86037   4.705   0.945   9.289  0.3465  0.0431  0.2114
27332SOL    HW186038   4.756   0.866   9.271 -0.1026  0.4036 -3.3513
27332SOL    HW286039   4.770   1.010   9.316  1.1732 -0.6203 -0.1340
27333SOL     OW86040   4.340   9.109   2.952  0.2057  0.1451 -0.0920
27333SOL    HW186041   4.404   9.123   2.882  1.6477 -0.2074  1.0981
27333SOL    HW286042   4.354   9.018   2.979 -1.0619 -0.0500 -0.0335
27334SOL     OW86043   9.351   3.416   5.725 -0.4339  0.6431  0.1125
27334SOL    HW186044   9.258   3.395   5.715 -0.6963  1.5332  0.5732
27334SOL    HW286045   9.352   3.501   5.768  0.5947 -0.2771  2.0719
27335SOL     OW86046   0.386   1.369   1.074  0.1505 -0.0346 -0.2851
27335SOL    HW186047   0.459   1.430   1.063  1.1794 -1.2255 -0.3126
27335SOL    HW286048   0.372   1.333   0.986 -1.2725  1.0139 -0.5341
27336SOL     OW86049   9.865   5.360   6.991  0.9529  0.1489  0.1343
27336SOL    HW186050   9.808   5.348   7.067  0.1865  3.3829  0.1853
27336SOL    HW286051   9.866   5.454   6.976  1.2732 -0.3147 -3.7534
27337SOL     OW86052   4.526   7.627   3.952 -0.1462 -0.6258 -0.4852
27337SOL    HW186053   4.560   7.567   3.886 -1.4878  0.2408 -2.0409
27337SOL    HW286054   4.511   7.709   3.905  1.2344  0.8640  1.4792
27338SOL     OW86055   5.134   8.961   1.384  0.3260 -0.6028 -0.7982
27338SOL    HW186056   5.188   8.999   1.453 -0.9562  0.7849 -0.4971
27338SOL    HW286057   5.148   8.867   1.391  0.7897 -0.4386  0.8796
27339SOL     OW86058  10.176   1.921   7.417  0.0262 -0.2526 -0.3992
27339SOL    HW186059  10.178   1.948   7.326  2.2663  1.4915  0.0819
27339SOL    HW286060  10.255   1.867   7.428  0.2797  0.3059  0.6911
27340SOL     OW86061   6.370   8.824   8.041  0.1413  0.1697 -0.1828
27340SOL    HW186062   6.308   8.881   7.995  0.9050  1.1004 -0.0953
27340SOL    HW286063   6.351   8.838   8.134 -0.4904 -0.6709 -0.1769
27341SOL     OW86064   6.839   8.854   2.466 -0.4760 -0.0374  0.0714
27341SOL    HW186065   6.911   8.792   2.465  0.7715  1.1956  2.9972
27341SOL    HW286066   6.800   8.845   2.553 -0.6511  2.7654  0.3714
27342SOL     OW86067   6.318  10.173   7.800  0.1876  0.4441  0.1426
27342SOL    HW186068   6.412  10.173   7.816 -0.2848 -0.1781  3.7532
27342SOL    HW286069   6.279  10.186   7.886 -3.0725 -1.5274 -0.8457
27343SOL     OW86070   6.252   0.787   5.450  0.5763 -0.6058  0.4228
27343SOL    HW186071   6.179   0.789   5.512  1.0283  1.5865  0.9476
27343SOL    HW286072   6.286   0.697   5.456  0.6976 -0.4503  3.4621
27344SOL     OW86073   2.036   9.314   6.850  0.7433  0.0633  0.2662
27344SOL    HW186074   2.036   9.220   6.834 -0.5958 -0.3525  2.3260
27344SOL    HW286075   1.950   9.332   6.889  1.0054  2.1282  0.0135
27345SOL     OW86076   5.725   7.130  10.048  0.2157  0.1417  0.4280
27345SOL    HW186077   5.806   7.150  10.002 -1.3091  1.5626 -1.8483
27345SOL    HW286078   5.674   7.079   9.985 -2.2538  2.7688  0.0943
27346SOL     OW86079   4.012   8.271   1.385  0.0101  0.1119 -0.1176
27346SOL    HW186080   3.945   8.274   1.317 -0.8801 -1.0235  0.6877
27346SOL    HW286081   3.966   8.241   1.464  1.0438  1.2458  0.9682
27347SOL     OW86082   4.494   0.230   9.247  0.3090  0.6229 -0.1241
27347SOL    HW186083   4.588   0.245   9.261  0.9638  0.3408 -3.4048
27347SOL    HW286084   4.473   0.285   9.171 -1.6435 -1.0079 -0.8310
27348SOL     OW86085   6.363   3.270   8.599  0.3341  0.1005  0.2349
27348SOL    HW186086   6.316   3.207   8.544  0.2802  0.2127  0.1509
27348SOL    HW286087   6.454   3.243   8.595  0.3970  0.3875 -0.2879
27349SOL     OW86088   3.842   0.094   7.771 -0.1679  0.1383  0.0025
27349SOL    HW186089   3.810   0.076   7.859 -0.8708  0.6602 -0.1350
27349SOL    HW286090   3.802   0.026   7.716 -3.3783  2.3218 -0.6323
27350SOL     OW86091   2.738   2.900   1.924  0.0688  0.2801  0.2661
27350SOL    HW186092   2.647   2.927   1.909  0.6614  1.7682 -0.9144
27350SOL    HW286093   2.786   2.937   1.850  1.5261 -1.1810  0.4210
27351SOL     OW86094   9.813   2.462   7.822  0.6002 -0.0147 -0.6271
27351SOL    HW186095   9.887   2.452   7.762  0.5888  1.1162 -0.8614
27351SOL    HW286096   9.737   2.437   7.770  0.7427 -0.5150 -0.6014
27352SOL     OW86097   2.960   2.235   8.478  0.6661 -0.0311  0.2997
27352SOL    HW186098   2.994   2.208   8.563 -1.0769  0.6279  1.2682
27352SOL    HW286099   2.894   2.170   8.456  1.7881 -0.7713 -1.0913
27353SOL     OW86100   1.145   1.626   2.962  0.2866  0.2553  0.1635
27353SOL    HW186101   1.124   1.670   3.044  0.8225  2.0566 -0.6108
27353SOL    HW286102   1.193   1.547   2.989  1.0324  1.1456  1.5654
27354SOL     OW86103   4.553   1.959   5.465  0.0004 -0.0235  0.4841
27354SOL    HW186104   4.511   2.039   5.495  1.4309  1.0261 -0.1867
27354SOL    HW286105   4.544   1.898   5.538 -0.6255  0.9316  1.2289
27355SOL     OW86106   1.894   1.428   4.393 -0.0825  0.0193 -0.0559
27355SOL    HW186107   1.955   1.400   4.461 -1.2885 -2.2271  0.2052
27355SOL    HW286108   1.845   1.500   4.434 -0.1957 -0.7128  1.1480
27356SOL     OW86109   5.999   0.150   6.796 -0.3334  0.3258 -0.4154
27356SOL    HW186110   6.089   0.172   6.775 -0.4557  2.3716  0.8964
27356SOL    HW286111   5.946   0.214   6.748 -1.0268 -0.2134 -0.3924
27357SOL     OW86112   2.767   5.862   1.589  0.1163  0.3965  0.0153
27357SOL    HW186113   2.748   5.866   1.495 -4.0769  0.3765  0.6930
27357SOL    HW286114   2.708   5.926   1.628  1.8396  0.4996  2.7029
27358SOL     OW86115   0.622   2.144   7.609  0.4289  0.1262 -0.0392
27358SOL    HW186116   0.583   2.090   7.541 -1.2929 -0.4416  1.3277
27358SOL    HW286117   0.601   2.234   7.582 -3.9121 -0.1544  1.6352
27359SOL     OW86118   9.070   9.545   2.172 -0.1596 -0.4331  0.2444
27359SOL    HW186119   9.057   9.520   2.264  0.9234 -3.1047 -0.2295
27359SOL    HW286120   9.026   9.475   2.123  1.4837 -0.4725 -1.2505
27360SOL     OW86121  10.089   2.516   6.950  0.5173  0.6945 -0.1029
27360SOL    HW186122  10.077   2.514   7.045  0.0275 -0.9844 -0.1740
27360SOL    HW286123  10.016   2.570   6.918 -0.0520  0.2256  0.3834
27361SOL     OW86124   4.124   2.418   1.909 -0.5107 -0.2613  0.1384
27361SOL    HW186125   4.145   2.509   1.931  0.2412 -0.3763 -0.0790
27361SOL    HW286126   4.062   2.425   1.837 -0.0735  0.0828 -0.2125
27362SOL     OW86127   1.408   1.662   6.752  0.2102  0.0625 -0.4866
27362SOL    HW186128   1.445   1.603   6.818 -0.1762 -0.2352 -0.5361
27362SOL    HW286129   1.327   1.620   6.724  0.5285  0.0137 -1.3944
27363SOL     OW86130   2.075   8.150   8.299 -0.5093 -0.5006 -0.3358
27363SOL    HW186131   2.130   8.115   8.229  0.3669 -0.4993  0.3391
27363SOL    HW286132   2.091   8.093   8.374  1.0843  1.3469  0.8413
27364SOL     OW86133   7.978   3.643   0.490  0.1909 -0.5353 -0.0371
27364SOL    HW186134   7.924   3.613   0.417  0.4101 -0.2057 -0.3392
27364SOL    HW286135   8.046   3.576   0.500 -0.7962 -1.4445  0.9544
27365SOL     OW86136   7.653   8.291   6.908 -0.0997  0.5953 -0.1174
27365SOL    HW186137   7.687   8.367   6.957  1.3810 -0.6042  0.8334
27365SOL    HW286138   7.561   8.311   6.893 -0.6206  1.1680  3.0509
27366SOL     OW86139   5.220   9.819   5.221 -0.2380  0.8612  0.5600
27366SOL    HW186140   5.209   9.899   5.169  0.0783  0.0349 -0.7972
27366SOL    HW286141   5.308   9.826   5.257  0.6794  0.0935 -1.4116
27367SOL     OW86142   4.721   2.254   4.237  0.0694 -0.3124  0.2584
27367SOL    HW186143   4.741   2.332   4.185  1.5539 -0.0141  1.1828
27367SOL    HW286144   4.800   2.201   4.232  0.5939  0.0687  2.6984
27368SOL     OW86145   0.079   4.884   3.487  0.2356 -0.0183  0.5362
27368SOL    HW186146   0.048   4.897   3.397  2.9785  2.5637 -0.2033
27368SOL    HW286147   0.125   4.800   3.485 -0.1612 -0.2235 -0.3586
27369SOL     OW86148   4.455   3.956   6.719  0.4645  0.2924  0.3822
27369SOL    HW186149   4.445   3.984   6.809 -1.6465  0.3801  0.1627
27369SOL    HW286150   4.373   3.912   6.697  0.6761  0.7849 -1.6697
27370SOL     OW86151   4.234   9.997   8.291 -0.0840  0.3383 -0.3174
27370SOL    HW186152   4.260   9.905   8.295  0.4213  0.4977  0.1139
27370SOL    HW286153   4.268  10.036   8.371 -0.5086  0.8525 -0.3766
27371SOL     OW86154   4.156   8.804   0.569 -0.0003  1.2037 -0.3400
27371SOL    HW186155   4.138   8.888   0.610  0.4325  1.0709  0.1373
27371SOL    HW286156   4.102   8.803   0.490  0.4754  2.1833 -0.6810
27372SOL     OW86157   3.654   5.282   8.775 -0.3430  0.2647 -0.1128
27372SOL    HW186158   3.651   5.307   8.867 -0.6418 -0.6758  0.1445
27372SOL    HW286159   3.744   5.251   8.761 -1.0252 -2.2358  0.6120
27373SOL     OW86160   2.557   2.999   5.129 -0.1225  0.6816  0.0468
27373SOL    HW186161   2.626   3.055   5.093 -0.2301 -0.3528 -1.9261
27373SOL    HW286162   2.586   2.910   5.109 -1.5326  0.1879  0.0927
27374SOL     OW86163   3.937   9.854   5.027  0.1113 -0.3126 -0.1918
27374SOL    HW186164   3.999   9.922   5.056  1.1038 -0.5301 -1.6845
27374SOL    HW286165   3.855   9.901   5.013  0.0383  0.0801  1.2954
27375SOL     OW86166   1.341   1.191  10.071 -0.2068 -0.3385 -0.2907
27375SOL    HW186167   1.411   1.164  10.011 -1.3009 -1.9759 -0.8867
27375SOL    HW286168   1.312   1.276  10.037  2.7261  1.3613  1.0991
27376SOL     OW86169   6.576   3.387   4.207 -0.0499 -0.3372  0.2990
27376SOL    HW186170   6.591   3.472   4.249 -0.1828 -0.1060 -0.1247
27376SOL    HW286171   6.525   3.407   4.129 -1.9304 -1.0173  1.2841
27377SOL     OW86172   3.069   3.392   3.331 -0.5637 -0.4546 -0.7951
27377SOL    HW186173   3.096   3.312   3.377  0.7002  0.6499  0.4762
27377SOL    HW286174   3.038   3.450   3.400 -1.0912  0.3184 -1.6560
27378SOL     OW86175   1.984   2.344   5.510 -0.0396  0.2618 -1.0689
27378SOL    HW186176   1.994   2.391   5.427  0.8528 -1.7324 -2.1590
27378SOL    HW286177   2.070   2.305   5.526 -1.1791 -2.4915 -1.2206
27379SOL     OW86178   1.207   0.922   4.220 -0.0613  0.6967 -0.1598
27379SOL    HW186179   1.139   0.859   4.242  1.4157 -0.8217  0.2689
27379SOL    HW286180   1.199   0.989   4.288 -0.5783  0.0986  0.3884
27380SOL     OW86181   1.878   3.977   7.686 -0.4979 -0.2296 -0.0371
27380SOL    HW186182   1.931   3.926   7.748 -0.9441 -2.4642 -1.3662
27380SOL    HW286183   1.894   3.935   7.601 -2.0266  0.9775 -0.9762
27381SOL     OW86184   5.968   3.994   9.422 -0.1402 -0.3110  0.2493
27381SOL    HW186185   6.025   4.046   9.478 -1.0234  0.9473  0.0197
27381SOL    HW286186   5.900   3.961   9.481 -0.8564  0.7011  0.0207
27382SOL     OW86187   5.166   0.860   3.193 -0.6009  0.2632  0.0175
27382SOL    HW186188   5.201   0.930   3.138 -1.4046  0.2214 -0.5648
27382SOL    HW286189   5.201   0.878   3.281 -0.1961  0.9589 -0.2836
27383SOL     OW86190   7.399   9.944   1.796  0.2978  0.2048  0.3060
27383SOL    HW186191   7.383   9.924   1.703  0.8092 -0.3914  0.3321
27383SOL    HW286192   7.494   9.931   1.806  0.6381  2.4733  0.3916
27384SOL     OW86193   1.048   3.607   3.476  0.8352 -0.1943 -0.6985
27384SOL    HW186194   1.111   3.536   3.486 -0.1917 -1.2460 -1.4390
27384SOL    HW286195   1.049   3.627   3.383 -0.4497 -0.7325 -0.8391
27385SOL     OW86196   5.234   7.722   5.032 -0.5301 -0.4574  0.1626
27385SOL    HW186197   5.200   7.782   4.966  1.1671 -0.1124 -0.4583
27385SOL    HW286198   5.306   7.676   4.988 -0.4866 -1.4817  1.2490
27386SOL     OW86199   8.149   5.729   1.318  0.0452 -0.0459  0.6241
27386SOL    HW186200   8.084   5.659   1.327  1.1992 -0.8937  3.0354
27386SOL    HW286201   8.112   5.787   1.251 -3.4213 -0.2218  2.1764
27387SOL     OW86202   2.034   4.474   2.251 -0.4449 -0.2265 -0.3640
27387SOL    HW186203   1.988   4.424   2.184 -0.3720  0.0632 -0.6312
27387SOL    HW286204   2.031   4.418   2.329 -2.8947  0.5756  0.1749
27388SOL     OW86205   9.079   0.866   3.139 -0.3161 -0.5747  0.0476
27388SOL    HW186206   9.034   0.901   3.216 -1.1154 -0.7585 -0.3191
27388SOL    HW286207   9.024   0.893   3.065  1.2136  0.8951 -0.6221
27389SOL     OW86208   3.089   3.765   8.709 -0.7734  0.1525  0.3083
27389SOL    HW186209   3.138   3.684   8.696 -3.2756 -1.3324 -0.6743
27389SOL    HW286210   3.123   3.825   8.643 -1.0159 -1.2210 -1.1220
27390SOL     OW86211   5.131   0.336   0.353 -0.6539  0.1553  0.0482
27390SOL    HW186212   5.068   0.332   0.425  0.2148  1.6375  0.9490
27390SOL    HW286213   5.090   0.393   0.289 -0.4535  0.7378  0.4272
27391SOL     OW86214   7.543   8.615   5.851 -0.3918  0.2817 -0.4962
27391SOL    HW186215   7.476   8.682   5.836  0.0017  1.1938  1.5052
27391SOL    HW286216   7.558   8.617   5.945  1.7737 -0.5699 -0.7784
27392SOL     OW86217   1.743   1.621   4.502  0.9514  0.1392  0.6059
27392SOL    HW186218   1.668   1.565   4.521  1.0485 -0.7032 -1.2557
27392SOL    HW286219   1.705   1.706   4.483  0.2783 -0.5270 -1.3703
27393SOL     OW86220   6.081   3.787   9.313 -0.5107 -0.2824 -0.6962
27393SOL    HW186221   6.043   3.873   9.331  2.5811  1.0908  0.0388
27393SOL    HW286222   6.048   3.731   9.384 -0.6436  0.9801  0.2824
27394SOL     OW86223   6.800   3.067   4.874 -0.1032  0.0015  0.3523
27394SOL    HW186224   6.712   3.057   4.838  0.0342  0.2433 -0.0611
27394SOL    HW286225   6.825   2.978   4.900 -0.6575  0.0092  0.9352
27395SOL     OW86226  10.281   1.610   5.095 -0.1153 -0.1306  0.0231
27395SOL    HW186227  10.362   1.591   5.142 -0.3772  0.1617  0.6003
27395SOL    HW286228  10.218   1.547   5.129 -0.3025  0.0746  0.0584
27396SOL     OW86229   0.725   7.551   9.433  0.3992  0.3416  0.4139
27396SOL    HW186230   0.821   7.549   9.426  0.3159 -3.0757 -2.0395
27396SOL    HW286231   0.697   7.594   9.352 -0.1661  0.5243  0.7042
27397SOL     OW86232   3.968   1.798   9.200  0.4735  0.0097 -0.2341
27397SOL    HW186233   3.969   1.740   9.125  3.1096 -2.3335  1.4120
27397SOL    HW286234   3.898   1.765   9.256 -0.0819  0.4263 -0.6690
27398SOL     OW86235   7.847   1.301   8.373  0.2208 -0.0192  0.2697
27398SOL    HW186236   7.932   1.283   8.333  0.1994  2.4452 -1.0945
27398SOL    HW286237   7.786   1.305   8.300 -0.7729 -0.2214  1.0657
27399SOL     OW86238   7.285   4.583   8.637 -0.2807 -0.0259 -0.1515
27399SOL    HW186239   7.204   4.632   8.649  0.0460  0.2997  0.8482
27399SOL    HW286240   7.257   4.495   8.611 -0.9271  0.2451 -0.3769
27400SOL     OW86241   9.468   8.039   7.794  0.2637  0.0290  0.4834
27400SOL    HW186242   9.472   7.944   7.801 -1.6859 -0.1328 -0.1268
27400SOL    HW286243   9.488   8.071   7.882  0.5676 -0.9503  0.7727
27401SOL     OW86244   7.566   7.462   2.511  0.0362 -0.0040 -0.5395
27401SOL    HW186245   7.499   7.511   2.558 -1.2005 -1.6266 -0.4988
27401SOL    HW286246   7.528   7.445   2.425  1.4437  1.1814 -1.4368
27402SOL     OW86247   0.187   0.924   7.417 -0.0006  0.4619  0.3448
27402SOL    HW186248   0.281   0.936   7.400  0.3145  0.3162  1.7708
27402SOL    HW286249   0.184   0.894   7.508 -1.2470 -2.3296 -0.4994
27403SOL     OW86250   9.178   1.030   8.605  0.1927  0.5794  1.1586
27403SOL    HW186251   9.235   1.061   8.676  0.4729  0.9388  0.7805
27403SOL    HW286252   9.238   1.014   8.532  0.1446 -1.3776  1.5012
27404SOL     OW86253   1.778   2.466  10.196 -0.1428 -0.1033  0.2581
27404SOL    HW186254   1.765   2.398  10.130 -1.5947 -1.2630  1.6387
27404SOL    HW286255   1.772   2.419  10.279  4.2075  0.8369  1.3095
27405SOL     OW86256   6.762   1.101   6.903 -0.0132  0.9590 -0.0630
27405SOL    HW186257   6.723   1.141   6.826 -1.8264 -0.7844 -0.1385
27405SOL    HW286258   6.855   1.095   6.882 -0.4196  0.8100 -2.0107
27406SOL     OW86259   2.229   1.144   5.498 -0.3908  0.6774  0.1462
27406SOL    HW186260   2.321   1.169   5.499 -0.6335  1.6612 -0.4240
27406SOL    HW286261   2.194   1.176   5.581 -0.2285  0.3285  0.3506
27407SOL     OW86262   7.899   1.206   0.036  0.3351 -0.2025 -0.9422
27407SOL    HW186263   7.938   1.293   0.025 -0.5445  0.2719 -0.4140
27407SOL    HW286264   7.946   1.168   0.111 -0.3199  0.4440 -0.1819
27408SOL     OW86265   6.544   9.770   3.483 -0.4552 -0.2901 -0.1213
27408SOL    HW186266   6.499   9.743   3.563 -2.9893 -0.0360 -1.3555
27408SOL    HW286267   6.553   9.865   3.492 -0.6169 -0.2779 -0.0845
27409SOL     OW86268   2.633   7.142   5.298 -0.1187  0.8260  0.2113
27409SOL    HW186269   2.652   7.130   5.391  0.6466  2.2448  0.2610
27409SOL    HW286270   2.681   7.221   5.273 -1.3329  1.2056 -1.0865
27410SOL     OW86271   0.455   7.042   9.888 -0.4038 -0.0525  0.7705
27410SOL    HW186272   0.409   7.076   9.965  0.2273 -0.3608  1.2880
27410SOL    HW286273   0.535   7.093   9.883 -1.6888  1.9121 -1.3353
27411SOL     OW86274   9.891   3.283   7.126  0.0165  0.1732 -0.0294
27411SOL    HW186275   9.852   3.197   7.109 -0.1021  0.3873 -0.8727
27411SOL    HW286276   9.837   3.320   7.196 -0.9504  0.2222 -0.7792
27412SOL     OW86277   2.485   5.221   8.006 -0.0339 -0.4245  0.5733
27412SOL    HW186278   2.502   5.201   8.099  0.9225 -2.5290 -0.0019
27412SOL    HW286279   2.546   5.292   7.986  0.4280 -0.5866  1.3463
27413SOL     OW86280   3.138   5.988   9.941 -0.1892 -0.1279  0.0151
27413SOL    HW186281   3.143   6.068   9.887  0.7700 -0.3744 -0.2790
27413SOL    HW286282   3.065   5.938   9.903 -0.3969  0.3206 -0.1875
27414SOL     OW86283   5.995   0.466   9.463  0.0368 -0.1564 -0.3542
27414SOL    HW186284   5.946   0.384   9.456  0.3444 -0.2705 -1.3377
27414SOL    HW286285   5.963   0.506   9.544 -0.3175 -1.1136 -0.0015
27415SOL     OW86286   0.534   1.856   0.511  0.3199  0.8109  0.3126
27415SOL    HW186287   0.440   1.866   0.525  0.3282 -1.1772  2.3316
27415SOL    HW286288   0.542   1.812   0.427 -0.7247 -1.0627  1.1432
27416SOL     OW86289   8.178   6.581   6.888  0.2416 -0.0214 -0.2545
27416SOL    HW186290   8.120   6.637   6.836  0.6113 -1.2857 -2.1019
27416SOL    HW286291   8.210   6.639   6.957 -2.6558  0.9093  0.4781
27417SOL     OW86292   4.575   0.864   1.322  0.6246 -0.0917  0.7812
27417SOL    HW186293   4.565   0.834   1.412 -0.1525  0.2794  0.8286
27417SOL    HW286294   4.522   0.803   1.270 -0.7758  0.9873  0.8533
27418SOL     OW86295   1.318   6.926   1.505  0.9274 -0.0151 -0.0657
27418SOL    HW186296   1.236   6.961   1.540  1.4546  2.3756 -1.0305
27418SOL    HW286297   1.374   6.916   1.582  0.8788  1.7618  0.2457
27419SOL     OW86298   4.940   8.067   5.864 -0.1745  0.2208  0.4173
27419SOL    HW186299   5.020   8.078   5.811 -0.8943 -2.1359 -1.3320
27419SOL    HW286300   4.969   8.017   5.941 -0.0310 -1.3824 -0.6273
27420SOL     OW86301   4.096   9.747   1.595  0.2617 -0.4766  0.0147
27420SOL    HW186302   4.182   9.766   1.558 -0.2187  0.8029 -0.4925
27420SOL    HW286303   4.101   9.780   1.685 -0.3491  1.5887 -0.6566
27421SOL     OW86304   7.869   3.913   4.788 -0.8681 -0.4405 -0.5120
27421SOL    HW186305   7.915   3.997   4.795  0.2177 -1.1028  0.5666
27421SOL    HW286306   7.818   3.908   4.868 -1.0619 -0.7506 -0.6546
27422SOL     OW86307  10.013   8.868   4.304  0.2531 -0.4026 -0.7207
27422SOL    HW186308   9.962   8.815   4.242 -0.9762  0.2982 -0.3232
27422SOL    HW286309  10.082   8.808   4.334 -0.2999 -1.3582 -1.2808
27423SOL     OW86310   3.400   5.358   2.132  0.2149 -0.0858 -0.7773
27423SOL    HW186311   3.413   5.392   2.221 -1.1038 -0.8185 -0.2772
27423SOL    HW286312   3.394   5.436   2.078 -0.1845  0.4169 -0.0324
27424SOL     OW86313   5.515   5.108   3.659  0.7621 -0.0721 -0.0230
27424SOL    HW186314   5.468   5.101   3.742  0.6688 -0.8834 -0.1329
27424SOL    HW286315   5.476   5.040   3.603  1.6008 -0.3159 -0.3363
27425SOL     OW86316   7.250   8.140   0.025 -0.1422  0.5108 -0.2744
27425SOL    HW186317   7.320   8.204   0.009  0.3865  0.0459  0.1264
27425SOL    HW286318   7.232   8.103  -0.061  0.9176 -0.1822 -0.2185
27426SOL     OW86319   2.970  10.024   8.813  0.1417 -0.5479  0.2299
27426SOL    HW186320   2.900  10.036   8.749 -0.6815  0.7516  1.3171
27426SOL    HW286321   3.037   9.975   8.766 -1.1817 -1.1961 -1.0658
27427SOL     OW86322   6.156  10.146   9.048 -0.8045  0.0159 -0.4043
27427SOL    HW186323   6.095  10.158   9.121 -1.0637 -1.6595 -0.2937
27427SOL    HW286324   6.206  10.227   9.045 -2.3600  1.0413  0.1402
27428SOL     OW86325   5.719   5.437  10.260  0.2629  0.0114 -0.2534
27428SOL    HW186326   5.745   5.521  10.298  1.2198 -0.6309  0.5713
27428SOL    HW286327   5.802   5.391  10.245 -0.1669 -0.2757 -1.9435
27429SOL     OW86328   0.717   6.965   6.911 -0.3235 -0.1015  0.2262
27429SOL    HW186329   0.628   6.963   6.875 -0.6848  0.7450  1.0113
27429SOL    HW286330   0.774   6.957   6.835 -1.0565  1.1233 -0.4900
27430SOL     OW86331   1.703   7.703   7.212 -0.0289 -0.2082 -0.1555
27430SOL    HW186332   1.787   7.735   7.246  0.2797 -0.1017 -0.9918
27430SOL    HW286333   1.672   7.642   7.279  1.4521 -1.4220 -0.5187
27431SOL     OW86334   8.382   2.939   1.610 -0.0713  0.5054  1.1868
27431SOL    HW186335   8.453   2.981   1.561 -0.9233  0.3033 -0.2670
27431SOL    HW286336   8.382   2.848   1.579 -1.2372  0.6144  0.8235
27432SOL     OW86337   8.078   0.979   5.542  0.1570 -0.2914  0.3340
27432SOL    HW186338   8.111   0.899   5.583 -0.1802 -0.5883  0.0364
27432SOL    HW286339   8.055   0.953   5.453  0.5949  0.2763  0.0426
27433SOL     OW86340   4.884   2.094   2.855  0.0054  0.2632  0.0097
27433SOL    HW186341   4.829   2.024   2.820  0.2187 -0.1355  0.4701
27433SOL    HW286342   4.956   2.049   2.899 -0.7601  0.7102  1.8084
27434SOL     OW86343   1.572   9.331   4.825 -0.2296 -0.2108 -1.0587
27434SOL    HW186344   1.633   9.334   4.751 -1.0893  1.4186 -1.7767
27434SOL    HW286345   1.519   9.410   4.814 -1.7883 -1.0423  0.1128
27435SOL     OW86346   7.724   3.302   2.435  0.3412  0.2441 -0.0127
27435SOL    HW186347   7.722   3.385   2.484 -1.1541  0.0324  0.3483
27435SOL    HW286348   7.806   3.260   2.460  0.0017  0.5378  1.6587
27436SOL     OW86349   3.671   2.797   1.009  0.6500  0.1355 -0.4058
27436SOL    HW186350   3.728   2.864   1.047 -0.3522  0.1397  1.1775
27436SOL    HW286351   3.669   2.727   1.075  2.4102 -1.9416 -2.3858
27437SOL     OW86352   3.329   2.480   5.977 -0.3794 -0.2797 -0.4524
27437SOL    HW186353   3.321   2.559   5.923  0.3961  0.3251  0.2900
27437SOL    HW286354   3.379   2.508   6.053 -0.5830 -1.3635  0.1019
27438SOL     OW86355   3.351   0.696   1.430 -0.5856 -0.0790  0.2909
27438SOL    HW186356   3.328   0.779   1.389  0.2128 -0.4447 -0.9894
27438SOL    HW286357   3.441   0.709   1.461  1.4404 -1.7535 -4.0516
27439SOL     OW86358   4.837   6.125   3.635  0.3423 -0.1392  0.7563
27439SOL    HW186359   4.764   6.187   3.637  0.4868  0.0385  2.5395
27439SOL    HW286360   4.836   6.085   3.722  1.5334 -1.1295  0.3382
27440SOL     OW86361   8.571   3.147   6.174 -0.3820 -0.1395 -0.6144
27440SOL    HW186362   8.541   3.074   6.120 -2.1198  0.0291  0.0599
27440SOL    HW286363   8.610   3.106   6.251  0.1689 -0.3574 -1.0044
27441SOL     OW86364   6.727   0.500   9.724 -0.3653  0.3987  0.4008
27441SOL    HW186365   6.773   0.550   9.791 -0.3207  1.6417 -0.5311
27441SOL    HW286366   6.781   0.423   9.710  1.2137  1.6012 -0.3492
27442SOL     OW86367   6.869   3.649   1.381  0.0817 -0.0675  0.4786
27442SOL    HW186368   6.959   3.645   1.412  0.3479 -2.3074 -0.4108
27442SOL    HW286369   6.826   3.575   1.423 -0.7561 -0.3636 -0.8459
27443SOL     OW86370   9.174   2.313   1.684 -0.2052  0.2288  0.7200
27443SOL    HW186371   9.201   2.266   1.763 -0.5541  0.4606  0.9802
27443SOL    HW286372   9.242   2.293   1.619 -0.8714 -1.4787  0.5059
27444SOL     OW86373   9.207   0.280   7.347  0.6678  0.2991  0.2956
27444SOL    HW186374   9.186   0.239   7.431  0.7688 -0.9790 -0.2794
27444SOL    HW286375   9.299   0.260   7.332  0.6507  0.5092 -0.1213
27445SOL     OW86376   1.930   2.471   1.541  0.8431 -0.2561  0.1319
27445SOL    HW186377   1.937   2.376   1.528 -1.1568 -0.4967  0.6270
27445SOL    HW286378   2.015   2.496   1.578  1.6926 -1.7049 -0.7263
27446SOL     OW86379   8.278   8.599   0.600  0.3424  0.0378  0.0439
27446SOL    HW186380   8.198   8.650   0.616 -1.0056 -1.6462 -0.9509
27446SOL    HW286381   8.349   8.655   0.631 -1.1617  1.8963  0.3128
27447SOL     OW86382   4.512   6.209   1.489 -0.0820 -0.2776  0.4554
27447SOL    HW186383   4.458   6.206   1.410 -1.9028  0.8696  1.5975
27447SOL    HW286384   4.465   6.154   1.552  0.5840  0.0004  1.2026
27448SOL     OW86385   4.796   9.334   2.191 -0.6834  0.3585  0.2179
27448SOL    HW186386   4.856   9.260   2.183  1.4713  1.9301  0.6656
27448SOL    HW286387   4.798   9.357   2.284  0.2619  2.1123 -0.1832
27449SOL     OW86388   5.218   5.274   4.966 -0.4974 -0.2802 -0.2177
27449SOL    HW186389   5.302   5.261   4.921 -0.9116 -0.4416 -0.9654
27449SOL    HW286390   5.169   5.333   4.908 -0.8201 -0.0175  0.3205
27450SOL     OW86391   6.997   6.403   8.993 -0.4047  0.6001  0.1665
27450SOL    HW186392   6.964   6.385   9.081 -0.8642  4.2537  0.9007
27450SOL    HW286393   7.082   6.444   9.008  0.6032 -0.8266 -1.2967
27451SOL     OW86394   3.659   1.356   2.004  0.3119 -0.5006 -0.6692
27451SOL    HW186395   3.630   1.346   1.913 -0.4198 -2.5778 -0.2787
27451SOL    HW286396   3.651   1.268   2.041  0.7487  0.2626  1.3776
27452SOL     OW86397   7.353   9.821   2.457 -0.1017 -0.3929 -0.5617
27452SOL    HW186398   7.281   9.759   2.443  1.3621 -2.4572  0.5144
27452SOL    HW286399   7.411   9.777   2.519 -0.4851  3.3626  2.8796
27453SOL     OW86400   7.944   0.630   7.550 -0.2021  0.0901 -0.4374
27453SOL    HW186401   7.958   0.682   7.472  2.1011  2.2858  1.2743
27453SOL    HW286402   7.851   0.610   7.549 -0.2965  0.2268 -3.5476
27454SOL     OW86403   7.127   5.886   1.477 -0.8878  1.1188 -0.5203
27454SOL    HW186404   7.205   5.890   1.422  0.4796  1.0794  1.3105
27454SOL    HW286405   7.086   5.802   1.455 -0.5301  1.2315 -1.6457
27455SOL     OW86406   9.303   1.722   1.004  0.3347  0.5206 -0.0013
27455SOL    HW186407   9.281   1.746   1.094  0.4566  0.1550  0.1297
27455SOL    HW286408   9.348   1.798   0.969  0.1725  0.7133  0.2061
27456SOL     OW86409   9.631   3.936   2.932 -0.1354  0.4694 -0.6439
27456SOL    HW186410   9.572   3.870   2.894  0.2657  0.2285 -0.8478
27456SOL    HW286411   9.574   4.012   2.947 -0.6132  0.0673 -0.3648
27457SOL     OW86412   5.997   8.178   1.916  0.0805  0.1879  0.1542
27457SOL    HW186413   5.910   8.203   1.948 -0.2816  3.7920 -2.9603
27457SOL    HW286414   5.980   8.124   1.839  0.5057  1.2745 -0.7312
27458SOL     OW86415   1.717   1.964   7.968 -0.4632  0.4214  0.3307
27458SOL    HW186416   1.755   1.949   8.054 -0.1074  0.0839  0.1200
27458SOL    HW286417   1.721   2.059   7.955  1.2136  0.3243 -0.0818
27459SOL     OW86418   8.836   2.794   4.265 -0.2961 -0.9775  0.1127
27459SOL    HW186419   8.809   2.705   4.247 -1.4452 -0.3076 -1.7083
27459SOL    HW286420   8.761   2.834   4.309 -0.5494 -0.4043 -0.8014
27460SOL     OW86421   2.157   7.313   8.164 -0.6250 -0.0520 -0.3273
27460SOL    HW186422   2.145   7.399   8.126 -0.4609  1.0824  2.0176
27460SOL    HW286423   2.229   7.274   8.114  1.8528  2.6842  0.8318
27461SOL     OW86424   4.734   8.896   8.585  0.5292 -0.2588  0.6945
27461SOL    HW186425   4.680   8.817   8.594 -0.2657  0.4727  3.0314
27461SOL    HW286426   4.816   8.874   8.630  0.5814  0.0192  0.7330
27462SOL     OW86427   8.862   4.437   0.989 -0.1389 -0.2928  0.3212
27462SOL    HW186428   8.837   4.524   0.959 -2.0892 -0.7390  0.5363
27462SOL    HW286429   8.896   4.393   0.910 -0.8413  0.0759 -0.1983
27463SOL     OW86430   5.623   6.164   8.201  0.1590 -0.0810  0.0878
27463SOL    HW186431   5.706   6.127   8.231  0.3619  0.8904  0.7754
27463SOL    HW286432   5.587   6.209   8.278  0.8142  2.7114 -1.0992
27464SOL     OW86433   7.800   2.669   1.834  0.1446  0.0819 -0.4335
27464SOL    HW186434   7.839   2.722   1.904  1.6493 -0.5301 -0.7842
27464SOL    HW286435   7.804   2.579   1.867 -2.3581  0.0940  0.1433
27465SOL     OW86436   8.964   9.684   5.654  0.5294 -0.6706 -0.6110
27465SOL    HW186437   8.981   9.592   5.677 -1.0490 -1.6315 -2.9426
27465SOL    HW286438   8.945   9.727   5.738 -0.7732 -2.9644  0.3580
27466SOL     OW86439  10.120   1.061   1.273 -0.3210  0.4612 -0.5757
27466SOL    HW186440  10.135   1.119   1.348 -0.7624  0.8286 -0.7700
27466SOL    HW286441  10.204   1.017   1.261 -0.1407  0.6555 -0.0842
27467SOL     OW86442   7.430   3.171   8.975 -0.1318  0.1898  0.5761
27467SOL    HW186443   7.480   3.170   9.056  0.8461 -0.5558 -0.0033
27467SOL    HW286444   7.476   3.109   8.918 -1.0508  0.3628 -0.3908
27468SOL     OW86445   8.330   2.257   0.299 -0.2754  0.4088  0.1474
27468SOL    HW186446   8.409   2.222   0.342 -1.3290 -1.9772  0.2847
27468SOL    HW286447   8.285   2.305   0.368  1.1499  2.0522 -0.0026
27469SOL     OW86448   7.940   0.390   5.471  0.5783 -0.2653  0.4697
27469SOL    HW186449   7.888   0.376   5.550  1.2413  1.5172  1.2628
27469SOL    HW286450   8.029   0.365   5.496  0.3173 -2.5374 -0.6428
27470SOL     OW86451   5.111   1.498   6.331 -0.0586  0.7319  0.0043
27470SOL    HW186452   5.061   1.417   6.328  0.1784  0.6152 -1.2323
27470SOL    HW286453   5.109   1.524   6.423  0.2568 -0.9201  0.5113
27471SOL     OW86454   5.708   8.640   2.568 -0.5387  0.3384 -0.1963
27471SOL    HW186455   5.743   8.726   2.591  0.2048 -0.3029  1.1759
27471SOL    HW286456   5.736   8.583   2.639  1.3954 -1.6743 -2.4165
27472SOL     OW86457   7.826   6.803   9.947 -0.6477 -0.1239  0.0943
27472SOL    HW186458   7.795   6.894   9.945 -2.0856 -0.6071 -1.7840
27472SOL    HW286459   7.795   6.765   9.865  1.0307 -1.9811  0.2417
27473SOL     OW86460   6.753   7.489   6.407  0.2352  0.0446  0.1132
27473SOL    HW186461   6.810   7.498   6.330  0.8408 -0.2455  0.5211
27473SOL    HW286462   6.744   7.578   6.440 -1.0745  0.3744 -1.0121
27474SOL     OW86463   7.586   2.226   2.193  0.0864 -0.3400  0.0974
27474SOL    HW186464   7.619   2.161   2.131 -0.2917  0.3290 -0.8370
27474SOL    HW286465   7.660   2.285   2.208 -0.3173  0.5188 -1.1299
27475SOL     OW86466   6.427   3.749   2.298  0.6050 -0.2136 -0.1480
27475SOL    HW186467   6.522   3.746   2.302  0.6095  0.0509 -0.0348
27475SOL    HW286468   6.399   3.752   2.390  0.4346 -1.6366 -0.1278
27476SOL     OW86469   9.283   4.210   3.417  0.3230  0.1363  0.4227
27476SOL    HW186470   9.215   4.176   3.476 -0.2561  0.3238 -0.1327
27476SOL    HW286471   9.281   4.305   3.431  1.4019  0.0515  1.3894
27477SOL     OW86472   1.648  10.106   7.943 -0.0376  0.1892 -0.2669
27477SOL    HW186473   1.569  10.146   7.978 -0.9048 -0.1963 -1.7081
27477SOL    HW286474   1.699  10.179   7.909 -1.3593  0.2179 -2.3898
27478SOL     OW86475   4.133   8.266   2.021  0.2503 -0.0398 -0.6067
27478SOL    HW186476   4.147   8.342   2.077 -0.2870  0.4553 -1.1286
27478SOL    HW286477   4.072   8.211   2.070 -1.6898  1.2577 -1.4501
27479SOL     OW86478   4.405   4.071   4.212  0.1411  0.2676  0.1548
27479SOL    HW186479   4.370   4.148   4.256  0.4695  0.4033  0.1791
27479SOL    HW286480   4.438   4.103   4.129  1.9185  0.4909  0.9001
27480SOL     OW86481   9.653   4.214   2.408  0.8144  0.0577 -0.0805
27480SOL    HW186482   9.656   4.220   2.503 -0.7522 -2.0515  0.1859
27480SOL    HW286483   9.562   4.233   2.385  1.6118  2.7589 -1.4576
27481SOL     OW86484   0.635   2.917   2.003 -0.0967  0.2165  0.2656
27481SOL    HW186485   0.563   2.959   2.049  0.6160  0.8743  0.8193
27481SOL    HW286486   0.668   2.852   2.064  0.9173  1.1623  0.7753
27482SOL     OW86487   9.826   0.023   3.365 -0.0857  0.2623  0.0350
27482SOL    HW186488   9.879   0.007   3.443 -1.8286 -0.5075  1.1231
27482SOL    HW286489   9.740   0.047   3.399 -0.4282  1.6531 -1.6747
27483SOL     OW86490   8.919  10.172   6.224  0.2508 -0.1138  0.2676
27483SOL    HW186491   8.826  10.175   6.202  0.1517  1.3911  0.7632
27483SOL    HW286492   8.963  10.195   6.142  0.3086 -2.3257 -0.3891
27484SOL     OW86493   8.575   3.407   2.876 -0.3921  0.8964  0.3980
27484SOL    HW186494   8.639   3.367   2.934 -0.2128  0.8733  0.1806
27484SOL    HW286495   8.504   3.433   2.935 -0.2125  0.8696  0.6293
27485SOL     OW86496   8.982   2.518   1.191  0.1175 -0.0443 -0.2164
27485SOL    HW186497   8.893   2.544   1.167 -0.4677 -0.8564  0.9970
27485SOL    HW286498   9.038   2.576   1.140 -1.0887 -0.0092 -1.5729
27486SOL     OW86499   7.427   1.735   4.323 -0.3677  0.2755  1.0517
27486SOL    HW186500   7.519   1.758   4.309 -0.7373  1.8332  0.9452
27486SOL    HW286501   7.429   1.646   4.357  1.0804 -0.3607 -0.5338
27487SOL     OW86502   1.418   8.844   0.053 -0.1893  0.1629 -0.0948
27487SOL    HW186503   1.509   8.867   0.034 -0.2256 -0.9323 -1.8701
27487SOL    HW286504   1.389   8.909   0.117  2.0115  0.1758  0.9966
27488SOL     OW86505   1.183   4.669  10.161 -0.1138  0.3076  0.2316
27488SOL    HW186506   1.245   4.733  10.128 -0.6091  0.5251 -0.3117
27488SOL    HW286507   1.118   4.720  10.209 -1.9271  0.5978 -2.3170
27489SOL     OW86508   9.543   9.268   4.263  0.2964  0.6725 -0.2150
27489SOL    HW186509   9.592   9.349   4.279  0.9387 -0.3763  5.3566
27489SOL    HW286510   9.607   9.198   4.274 -1.2726 -0.6089  1.3623
27490SOL     OW86511   8.072   1.919   2.814 -0.3734 -0.4722  0.5210
27490SOL    HW186512   8.003   1.925   2.880 -1.2001  0.6919 -0.3952
27490SOL    HW286513   8.121   1.840   2.837 -1.0863 -0.4940  2.0722
27491SOL     OW86514   1.316   0.607   5.473  0.0642 -0.3380 -0.5875
27491SOL    HW186515   1.405   0.582   5.447 -0.2979 -0.6806 -1.5498
27491SOL    HW286516   1.326   0.645   5.560  1.2263  0.0719 -0.8796
27492SOL     OW86517   9.440   5.546   4.443 -0.3477  0.7272  0.4671
27492SOL    HW186518   9.490   5.608   4.496  0.6264  2.1099 -1.9158
27492SOL    HW286519   9.486   5.544   4.359 -1.4975 -1.7759 -0.1900
27493SOL     OW86520   0.115   6.139   3.282 -0.3699 -0.2716 -0.0088
27493SOL    HW186521   0.133   6.082   3.208 -1.5110 -0.7742  0.0887
27493SOL    HW286522   0.025   6.119   3.307 -0.5410  1.0292  0.5042
27494SOL     OW86523   4.650   1.368   2.972  0.1796  0.5710 -0.2859
27494SOL    HW186524   4.708   1.397   3.043  0.6917  0.1317 -0.5168
27494SOL    HW286525   4.709   1.350   2.899 -0.1580 -0.6412 -0.2849
27495SOL     OW86526   7.923   9.812   4.174  0.2426  0.0127  0.0739
27495SOL    HW186527   7.858   9.774   4.114  0.2087  0.7096 -0.3497
27495SOL    HW286528   7.880   9.810   4.259 -0.9984  1.8645 -0.4351
27496SOL     OW86529   7.276   8.296   1.596  0.3210 -0.0364  0.2997
27496SOL    HW186530   7.366   8.281   1.626  0.3759 -0.0337  0.1354
27496SOL    HW286531   7.239   8.356   1.661  1.1442  1.8215 -0.8601
27497SOL     OW86532   6.359   7.131   6.955 -0.2844  0.1741 -0.3023
27497SOL    HW186533   6.409   7.155   6.877  1.9584  0.5981  1.1723
27497SOL    HW286534   6.364   7.209   7.011 -0.8447 -0.5237  0.7403
27498SOL     OW86535   3.023   1.761   2.895  0.1865  1.1791  0.3191
27498SOL    HW186536   3.116   1.783   2.895  0.6557 -0.5030 -1.0563
27498SOL    HW286537   3.020   1.668   2.920 -1.0879  1.1322  0.0803
27499SOL     OW86538   3.228   5.702   0.765 -0.5662  0.0988  0.0489
27499SOL    HW186539   3.284   5.639   0.811  1.2591  0.4088 -1.5965
27499SOL    HW286540   3.230   5.781   0.819  0.6212  0.1009  0.0185
27500SOL     OW86541   9.347   0.200   9.561 -0.1316 -0.0964 -0.0950
27500SOL    HW186542   9.257   0.186   9.529 -1.5064  1.9691  2.4500
27500SOL    HW286543   9.359   0.294   9.556  2.4264 -0.4135 -1.4024
27501SOL     OW86544  10.123   4.555   1.945  0.0989  0.1995 -0.2695
27501SOL    HW186545  10.155   4.509   1.867  0.4933 -0.7827  0.4406
27501SOL    HW286546  10.191   4.540   2.011 -0.7054  0.1156  0.5712
27502SOL     OW86547   9.513   8.371   1.551 -0.7626  0.0806 -0.4710
27502SOL    HW186548   9.429   8.386   1.594 -0.0302  0.4271  0.8970
27502SOL    HW286549   9.520   8.442   1.487 -0.7646  1.0960  0.6193
27503SOL     OW86550   9.596   9.976   4.280 -0.1174 -0.5432 -0.2313
27503SOL    HW186551   9.551  10.051   4.318  0.3242 -0.2789 -0.2203
27503SOL    HW286552   9.590   9.990   4.185  0.6282 -0.0870 -0.2191
27504SOL     OW86553   5.424   4.775   7.396  0.0574 -0.4632 -0.2791
27504SOL    HW186554   5.334   4.760   7.366  0.8006 -2.0446 -1.8687
27504SOL    HW286555   5.442   4.866   7.372  0.0215 -1.1413 -3.2592
27505SOL     OW86556   1.540  10.247   9.413  0.4389 -0.1611  0.1654
27505SOL    HW186557   1.453  10.209   9.424 -0.1900  1.3408  0.7432
27505SOL    HW286558   1.539  10.282   9.324  0.4313 -0.1460  0.1709
27506SOL     OW86559   4.805   2.887   6.812  0.0981 -0.1237 -0.3643
27506SOL    HW186560   4.875   2.925   6.865 -0.7310  0.1898  0.5409
27506SOL    HW286561   4.767   2.961   6.765  0.0026 -0.1981 -0.4050
27507SOL     OW86562   2.125   8.801   6.348 -0.3407  0.4520  0.1384
27507SOL    HW186563   2.078   8.731   6.303  2.2405 -1.3512  0.0623
27507SOL    HW286564   2.073   8.817   6.428 -1.4675 -0.8781 -0.3016
27508SOL     OW86565   3.697   6.776   1.646  0.3774 -0.4097  0.3290
27508SOL    HW186566   3.792   6.780   1.656  0.3797 -0.1731  0.2317
27508SOL    HW286567   3.670   6.704   1.703  0.7274 -1.1973 -0.4596
27509SOL     OW86568   3.187   7.150   0.095 -0.1019  0.2705 -0.9134
27509SOL    HW186569   3.120   7.082   0.087  0.9903 -1.0936  0.8399
27509SOL    HW286570   3.187   7.172   0.188  1.5657  0.5798 -0.9625
27510SOL     OW86571   7.030   3.134   3.189  0.3360 -0.0629 -0.2048
27510SOL    HW186572   7.112   3.124   3.140 -0.3815  0.9685 -1.6864
27510SOL    HW286573   7.045   3.209   3.246  1.3247 -1.5261  1.5525
27511SOL     OW86574   7.071  10.292   3.691 -0.5307 -0.3712 -0.3557
27511SOL    HW186575   7.061  10.386   3.683 -1.1855 -0.2972  0.9489
27511SOL    HW286576   6.983  10.257   3.674 -1.3984 -0.3600  3.1846
27512SOL     OW86577   2.490   5.625   5.893  0.1988  0.2146  0.1387
27512SOL    HW186578   2.558   5.656   5.834  1.0746 -0.7844  0.5888
27512SOL    HW286579   2.437   5.702   5.913  1.0573  0.9489 -0.4038
27513SOL     OW86580   4.545   7.886   3.874  0.5140 -0.0623  0.4425
27513SOL    HW186581   4.637   7.864   3.866 -0.0315 -2.3669 -0.1185
27513SOL    HW286582   4.512   7.885   3.784 -0.3808 -0.9419  0.7558
27514SOL     OW86583   7.071   7.247   0.364 -0.2728  0.1588 -0.1034
27514SOL    HW186584   7.039   7.214   0.280 -1.0570 -0.5878  0.4600
27514SOL    HW286585   7.007   7.215   0.427 -0.6850  2.1910  0.5841
27515SOL     OW86586   5.133   2.505   6.594  0.0778  0.0150  0.1963
27515SOL    HW186587   5.150   2.539   6.681  1.3709  1.2729 -0.5002
27515SOL    HW286588   5.180   2.421   6.591 -1.1609 -0.7468  1.1422
27516SOL     OW86589   5.289   6.626   9.661 -0.1133 -0.1676  0.1238
27516SOL    HW186590   5.263   6.596   9.748 -1.1498 -0.2423 -0.1915
27516SOL    HW286591   5.308   6.719   9.673 -0.8287 -0.0361  0.3309
27517SOL     OW86592   3.075   5.249   0.805 -0.1863  0.6141 -0.4237
27517SOL    HW186593   3.114   5.292   0.729  2.7443 -0.9972  0.0285
27517SOL    HW286594   3.115   5.293   0.880  0.2778 -0.6555  0.0853
27518SOL     OW86595   8.462   7.544   0.588 -0.2089 -0.4825 -0.2080
27518SOL    HW186596   8.439   7.451   0.587 -0.4092 -0.4330 -1.0565
27518SOL    HW286597   8.480   7.565   0.497 -1.4279  0.6164 -0.2204
27519SOL     OW86598   8.391   7.240   0.223  0.3152 -0.0494  0.0619
27519SOL    HW186599   8.450   7.306   0.261  0.5155 -0.4353  0.4264
27519SOL    HW286600   8.312   7.246   0.276  1.5048 -2.3633  2.2787
27520SOL     OW86601   7.691   9.234   2.704  0.6737 -0.2245  0.2620
27520SOL    HW186602   7.681   9.144   2.735  1.6210  0.1587  1.8344
27520SOL    HW286603   7.785   9.245   2.692  0.4889  0.2905 -0.8223
27521SOL     OW86604   2.297   2.914   5.184 -0.5498  0.0753 -0.5621
27521SOL    HW186605   2.378   2.962   5.169  1.4135 -1.9128  2.6268
27521SOL    HW286606   2.296   2.848   5.115  1.0658 -0.4539 -0.1177
27522SOL     OW86607   7.719   5.020   1.553 -0.2252  0.1315 -0.6362
27522SOL    HW186608   7.677   5.062   1.478 -0.3276  0.1138 -0.5888
27522SOL    HW286609   7.658   4.951   1.580 -1.1265  1.3691  0.6761
27523SOL     OW86610   0.156   7.997   9.645  0.1819  0.9763 -0.1278
27523SOL    HW186611   0.120   8.019   9.559 -0.1088  0.6665 -0.0889
27523SOL    HW286612   0.079   7.981   9.700  0.3585  1.6202  0.3134
27524SOL     OW86613   7.586   8.010   0.114 -0.3224 -0.5377  0.2372
27524SOL    HW186614   7.503   7.982   0.153  0.0419  0.0567  1.5122
27524SOL    HW286615   7.641   8.034   0.189 -0.6515  3.7885 -0.6575
27525SOL     OW86616   6.011   9.375   5.912  0.6867  0.2471 -0.1660
27525SOL    HW186617   6.050   9.289   5.927 -0.6815 -0.5275 -0.8812
27525SOL    HW286618   5.949   9.386   5.984 -0.1157  0.0341 -0.8204
27526SOL     OW86619   1.104   3.925   6.911 -0.0557 -0.4304 -0.4762
27526SOL    HW186620   1.130   3.921   7.003 -0.0642  0.1068 -0.4459
27526SOL    HW286621   1.111   4.018   6.888  1.8174 -0.7709 -1.5604
27527SOL     OW86622   3.731   7.512   3.799  0.5016  0.3665  0.8447
27527SOL    HW186623   3.641   7.532   3.826 -0.2663 -0.3039 -1.0473
27527SOL    HW286624   3.766   7.458   3.869 -0.4515  0.8974  1.7627
27528SOL     OW86625   9.922   5.980   7.849 -0.6155  0.4298  0.3445
27528SOL    HW186626   9.990   6.045   7.833  1.0915 -1.6515 -1.6724
27528SOL    HW286627   9.929   5.960   7.943 -1.9041  3.7127  1.2738
27529SOL     OW86628   0.607   1.383   5.157 -0.0441  0.1477 -0.0778
27529SOL    HW186629   0.696   1.411   5.179 -0.2942  0.4291  0.6235
27529SOL    HW286630   0.593   1.306   5.213 -0.3847  0.3555  0.1274
27530SOL     OW86631   8.445   0.145   3.650 -0.0154 -0.5382 -0.1798
27530SOL    HW186632   8.453   0.172   3.741  0.5462  2.1299 -0.9034
27530SOL    HW286633   8.534   0.120   3.624  0.2642  0.6808 -0.4812
27531SOL     OW86634   4.489   9.601   1.333 -0.1073  0.0694  0.2723
27531SOL    HW186635   4.398   9.572   1.320 -0.0463  0.1945 -0.4715
27531SOL    HW286636   4.540   9.548   1.271 -0.1194  2.4754 -1.9397
27532SOL     OW86637   0.501   1.185   8.976 -0.3348  0.3422  0.1667
27532SOL    HW186638   0.462   1.238   8.906 -1.1537  1.9703  1.7884
27532SOL    HW286639   0.449   1.104   8.977 -1.4933  1.0661  0.0654
27533SOL     OW86640   0.832   5.730   2.449  0.5540  0.7564 -0.0109
27533SOL    HW186641   0.799   5.641   2.464  0.5137  0.6202 -0.8621
27533SOL    HW286642   0.812   5.777   2.530 -1.6649  0.6488 -0.4336
27534SOL     OW86643   5.227   4.227   3.852  0.3819 -0.0698  0.2810
27534SOL    HW186644   5.193   4.240   3.941  1.4759  0.1871  0.6807
27534SOL    HW286645   5.272   4.142   3.857 -0.8151 -0.7762 -0.4458
27535SOL     OW86646   0.977  10.248   8.008 -0.0103  0.7873  0.1385
27535SOL    HW186647   1.067  10.241   8.039  0.2941  0.0388 -0.8227
27535SOL    HW286648   0.925  10.195   8.069  0.6144 -0.8852 -0.6913
27536SOL     OW86649   0.455   9.520   0.338  0.1552 -0.2898  0.0819
27536SOL    HW186650   0.421   9.470   0.413  1.0937 -0.8886  0.1371
27536SOL    HW286651   0.548   9.496   0.334  0.8649  2.1063  0.6194
27537SOL     OW86652   9.554   6.312   5.084  0.3117  0.0791  0.5645
27537SOL    HW186653   9.498   6.239   5.059  0.5293 -0.0057  0.3174
27537SOL    HW286654   9.634   6.299   5.034  0.8580 -0.2309  1.4962
27538SOL     OW86655   0.997   6.489   0.680 -0.2836 -0.3257 -0.0207
27538SOL    HW186656   0.921   6.491   0.622  0.2746  0.7319 -0.7348
27538SOL    HW286657   1.003   6.578   0.716  0.5472 -0.4280  0.1154
27539SOL     OW86658   4.466   5.925   4.410  0.2194 -0.1701 -0.4208
27539SOL    HW186659   4.512   5.868   4.348  0.3976  0.0880 -0.5265
27539SOL    HW286660   4.534   5.981   4.446 -0.0461  0.3604 -0.7371
27540SOL     OW86661   1.526   0.751   4.221 -0.0848 -0.1298 -0.4217
27540SOL    HW186662   1.563   0.746   4.309 -0.5366  0.4263 -0.1901
27540SOL    HW286663   1.589   0.707   4.165  1.0450  0.9778 -0.0668
27541SOL     OW86664   2.753   7.670   8.707  0.2950  0.2726 -0.1289
27541SOL    HW186665   2.842   7.644   8.730  0.7977  1.5159 -0.6076
27541SOL    HW286666   2.700   7.640   8.781  0.9910 -1.0953 -0.1574
27542SOL     OW86667   8.206  10.209   4.505 -0.4015  0.0203 -0.3804
27542SOL    HW186668   8.219  10.304   4.505 -1.4946  0.2016  1.2585
27542SOL    HW286669   8.287  10.173   4.539  0.2463  0.2947 -1.5623
27543SOL     OW86670   8.329   5.336   7.504  0.1637 -1.2418 -0.1124
27543SOL    HW186671   8.266   5.384   7.450 -0.3185 -1.6602  0.0728
27543SOL    HW286672   8.411   5.342   7.455  0.2090  0.0642  0.0737
27544SOL     OW86673   1.133   6.564   0.131 -0.3160  0.0964  0.5796
27544SOL    HW186674   1.134   6.572   0.036 -0.5641  0.1491  0.5798
27544SOL    HW286675   1.217   6.525   0.153 -0.7991 -1.1876  0.2298
27545SOL     OW86676   5.005   8.712   5.467  0.7298  0.1838 -0.0627
27545SOL    HW186677   5.038   8.800   5.486 -1.9507  1.4454 -0.7571
27545SOL    HW286678   4.928   8.704   5.523 -0.0073 -1.0470 -1.2056
27546SOL     OW86679   0.458   9.989   4.968  0.7879 -0.9357 -0.2968
27546SOL    HW186680   0.531  10.050   4.971  0.5034 -0.5533 -1.0157
27546SOL    HW286681   0.468   9.943   4.885 -0.4240 -0.0608 -0.9539
27547SOL     OW86682   3.367   5.819   5.688 -0.4035  0.2010  0.1624
27547SOL    HW186683   3.442   5.814   5.747  0.6792 -2.1877 -1.2578
27547SOL    HW286684   3.402   5.860   5.609 -0.0487 -2.3661 -1.1089
27548SOL     OW86685   8.433   7.998   6.179  0.6853  0.1139  0.4511
27548SOL    HW186686   8.488   7.922   6.162 -0.1863 -0.1407 -1.3842
27548SOL    HW286687   8.446   8.016   6.273  0.6598 -2.4882  1.0329
27549SOL     OW86688   4.619   6.290   7.760  0.4224 -0.0505 -0.1656
27549SOL    HW186689   4.599   6.380   7.734  0.1376  0.4078  1.5312
27549SOL    HW286690   4.654   6.297   7.848  1.2327 -1.5424 -0.3302
27550SOL     OW86691   4.383   9.945   2.968 -0.6309 -0.2814 -0.8157
27550SOL    HW186692   4.415  10.036   2.973 -0.1348 -0.4974  0.2174
27550SOL    HW286693   4.306   9.950   2.911 -1.4920  1.0595  0.3717
27551SOL     OW86694   5.126   4.875   0.238  0.5620 -0.2443  0.5644
27551SOL    HW186695   5.085   4.905   0.158  0.9024  1.1471  0.8852
27551SOL    HW286696   5.152   4.785   0.220  0.2902 -0.0733 -0.7448
27552SOL     OW86697  10.139   5.604   1.121  0.2296  0.9037  0.3324
27552SOL    HW186698  10.234   5.604   1.127  0.3712 -2.8430  0.3423
27552SOL    HW286699  10.109   5.582   1.210 -0.2654 -2.7965 -0.5964
27553SOL     OW86700   5.420  10.241   9.937  0.2157 -0.4209 -0.1425
27553SOL    HW186701   5.366  10.315   9.965  0.8368 -0.6812  1.9050
27553SOL    HW286702   5.508  10.262   9.970  0.5219 -1.7996 -0.0099
27554SOL     OW86703   3.522   5.024   2.390  0.2153 -0.3364 -0.5423
27554SOL    HW186704   3.591   5.034   2.324  0.4066  1.9211 -0.0917
27554SOL    HW286705   3.527   5.105   2.441 -1.2474 -1.1565  0.9874
27555SOL     OW86706   4.328   4.320   9.305 -0.3775 -0.5850  0.1433
27555SOL    HW186707   4.369   4.248   9.354 -0.8172 -0.7978  0.2032
27555SOL    HW286708   4.243   4.332   9.348 -0.0180  0.4472  0.5859
27556SOL     OW86709   5.554   9.940   5.821  0.0765  0.0708  0.4408
27556SOL    HW186710   5.476   9.991   5.841  0.0109 -0.0428  0.4802
27556SOL    HW286711   5.533   9.852   5.853  0.4039  0.1529  0.9042
27557SOL     OW86712   1.518   7.698   6.727  0.2164 -0.4530  0.8366
27557SOL    HW186713   1.556   7.766   6.671 -2.5807  0.5535  0.0136
27557SOL    HW286714   1.549   7.719   6.815  0.7104  0.9315  0.3573
27558SOL     OW86715   2.764   8.619   9.075 -0.3972 -0.0738 -0.6046
27558SOL    HW186716   2.707   8.544   9.062 -1.8184  0.3379  2.3859
27558SOL    HW286717   2.707   8.687   9.111  1.2236  1.8107 -1.3593
27559SOL     OW86718   1.545   1.858   6.235 -0.0315 -0.0985  0.2766
27559SOL    HW186719   1.477   1.883   6.172 -2.0160 -1.3599  1.7701
27559SOL    HW286720   1.617   1.824   6.182 -0.4920  1.3785 -1.3799
27560SOL     OW86721   8.452   4.298   0.529  0.3727 -0.1198  0.1137
27560SOL    HW186722   8.488   4.315   0.442  2.1574 -1.2841  0.5760
27560SOL    HW286723   8.493   4.216   0.556  0.7517  0.7762  2.5011
27561SOL     OW86724   0.884   0.564   8.356 -0.7314  0.0630  0.3489
27561SOL    HW186725   0.977   0.579   8.368 -0.6529  1.2467 -1.3908
27561SOL    HW286726   0.871   0.472   8.377  0.7266 -0.0084  1.0529
27562SOL     OW86727   2.844   5.620   1.747 -0.2841 -0.2238  0.9684
27562SOL    HW186728   2.862   5.562   1.673  0.2218 -0.2676  1.1221
27562SOL    HW286729   2.801   5.696   1.708  1.6219  0.6013  0.3387
27563SOL     OW86730   5.118   9.515   1.634 -0.1436  0.4191 -0.5487
27563SOL    HW186731   5.203   9.535   1.594 -0.2152  1.8313 -0.0666
27563SOL    HW286732   5.063   9.488   1.561  0.6078 -0.1445 -0.9200
27564SOL     OW86733   2.252   5.761   3.470  0.2174 -0.4045  0.1139
27564SOL    HW186734   2.240   5.676   3.427 -1.7786 -0.5254  0.7857
27564SOL    HW286735   2.189   5.819   3.426  0.3700  0.2852  0.7882
27565SOL     OW86736   0.947   3.277   1.469  0.3357  0.4630  0.4143
27565SOL    HW186737   0.998   3.353   1.442  1.2878 -0.1439  0.4072
27565SOL    HW286738   0.892   3.256   1.393  0.2382  1.0010  0.3346
27566SOL     OW86739   9.456   4.508   8.931 -0.2106  0.3182  0.3255
27566SOL    HW186740   9.391   4.444   8.902 -1.8027  1.6090  0.9158
27566SOL    HW286741   9.488   4.549   8.850 -0.4329 -0.0388  0.0560
27567SOL     OW86742   7.297   3.829   2.692 -0.1429 -0.0253  0.2714
27567SOL    HW186743   7.368   3.854   2.634 -0.2753  0.1976  0.2055
27567SOL    HW286744   7.228   3.797   2.634 -0.0505 -0.3584  0.3428
27568SOL     OW86745   2.537   8.793   1.035  0.0114  0.1892 -0.0086
27568SOL    HW186746   2.549   8.701   1.060  0.3694  0.3697  0.5291
27568SOL    HW286747   2.479   8.828   1.103 -1.6616 -0.0785 -1.2508
27569SOL     OW86748   2.595   1.567   9.364  0.4968  0.2873 -0.5534
27569SOL    HW186749   2.658   1.627   9.323  0.8154  0.1052 -0.3391
27569SOL    HW286750   2.516   1.620   9.377  0.1841  0.1813 -1.9310
27570SOL     OW86751   7.685   0.689   7.254 -0.1804  0.0741 -0.1432
27570SOL    HW186752   7.610   0.633   7.233 -0.6237  1.4499 -2.7350
27570SOL    HW286753   7.747   0.674   7.182 -0.0593  2.3400 -0.5905
27571SOL     OW86754   9.332   9.872   1.913  0.2400 -0.6449 -0.4217
27571SOL    HW186755   9.357   9.792   1.959  1.8698 -0.1187 -0.3291
27571SOL    HW286756   9.386   9.940   1.953 -2.7607  0.9966  1.1376
27572SOL     OW86757   8.771   9.979   5.583 -0.2916  0.6780  0.2493
27572SOL    HW186758   8.842   9.971   5.647  0.4229 -2.3131 -0.7752
27572SOL    HW286759   8.809   9.949   5.501 -2.2352  0.8273 -0.7619
27573SOL     OW86760   2.914   8.274   9.757  0.8353 -0.4209  0.0837
27573SOL    HW186761   2.939   8.365   9.770 -0.0999 -0.2607  0.8866
27573SOL    HW286762   2.958   8.248   9.676  1.3609  0.6412  0.0132
27574SOL     OW86763   5.261   2.307   7.944  0.2344  0.2081  0.3826
27574SOL    HW186764   5.309   2.273   8.020  1.2580 -0.4309 -0.5211
27574SOL    HW286765   5.302   2.392   7.926  2.2879 -1.0851 -1.4407
27575SOL     OW86766   9.318   7.225   2.979  0.3918  0.0127  1.0549
27575SOL    HW186767   9.242   7.257   3.028 -1.1988 -2.1130  0.0761
27575SOL    HW286768   9.335   7.294   2.914  0.5110  1.3519  2.4319
27576SOL     OW86769   3.341   4.756   7.707  0.0316 -0.2355  0.1592
27576SOL    HW186770   3.310   4.804   7.784  0.7898  2.9876 -1.3736
27576SOL    HW286771   3.436   4.773   7.705 -0.0975  0.5332 -1.9050
27577SOL     OW86772   9.553   6.393   4.641  0.4062 -0.2536 -0.1290
27577SOL    HW186773   9.498   6.317   4.658 -0.6413  0.7418  1.1681
27577SOL    HW286774   9.493   6.461   4.612  1.5201 -0.3178 -2.8582
27578SOL     OW86775   4.105   0.244   2.569 -0.7079 -0.3310  0.3764
27578SOL    HW186776   4.086   0.278   2.482 -0.3359 -0.2597  0.3221
27578SOL    HW286777   4.175   0.180   2.555 -0.2050  0.1419  0.7060
27579SOL     OW86778   1.610   5.422   0.730 -0.4563  0.3259 -0.1022
27579SOL    HW186779   1.606   5.481   0.806  0.8133 -1.4045  1.4065
27579SOL    HW286780   1.523   5.383   0.725 -0.2316 -0.4430  1.2996
27580SOL     OW86781   6.168   5.914   5.414  0.0372 -0.1540 -0.8027
27580SOL    HW186782   6.120   5.955   5.486 -0.3495 -1.0604 -0.5243
27580SOL    HW286783   6.229   5.981   5.385  1.0715 -0.1630  1.1817
27581SOL     OW86784   8.230   3.278  10.091 -0.3467 -0.0566 -0.4582
27581SOL    HW186785   8.264   3.192  10.116  0.1430 -0.4719 -2.3792
27581SOL    HW286786   8.295   3.340  10.125  1.0177 -0.6792 -1.8320
27582SOL     OW86787   2.009   7.545   4.140 -0.2006 -0.0001  0.0665
27582SOL    HW186788   1.916   7.565   4.138  0.1235  1.5157 -0.7773
27582SOL    HW286789   2.047   7.593   4.067  1.4359  0.4188  1.1222
27583SOL     OW86790   0.862   5.484   0.204 -0.0821  0.1759 -0.0708
27583SOL    HW186791   0.835   5.532   0.282 -0.7395 -0.7101  0.2772
27583SOL    HW286792   0.866   5.393   0.233  0.2796 -0.0830 -0.9171
27584SOL     OW86793   3.320   4.478   1.103  0.5129  0.4092  0.7658
27584SOL    HW186794   3.388   4.415   1.081 -0.1256 -0.2418  0.6005
27584SOL    HW286795   3.305   4.527   1.022  1.6590  1.4381  1.1373
27585SOL     OW86796   9.982   9.695   4.187  0.1693 -0.0794 -0.0790
27585SOL    HW186797  10.077   9.705   4.186  0.3255 -1.2248 -2.0722
27585SOL    HW286798   9.960   9.689   4.280  2.0483  0.1449  0.4280
27586SOL     OW86799   7.451   6.711   0.822  0.7006 -0.0212 -0.1439
27586SOL    HW186800   7.510   6.768   0.870  0.7678 -0.3962  0.2274
27586SOL    HW286801   7.369   6.760   0.816  0.8886  0.2856 -0.2025
27587SOL     OW86802   5.909   4.455   8.666  0.5604 -0.0439 -0.1367
27587SOL    HW186803   5.991   4.494   8.697  1.0821 -1.8993  0.9484
27587SOL    HW286804   5.933   4.411   8.585  1.2765 -2.6265  1.3807
27588SOL     OW86805   2.499   0.421   3.943 -0.5395 -0.0451  0.4815
27588SOL    HW186806   2.588   0.386   3.939 -0.3324  0.4227  0.8656
27588SOL    HW286807   2.492   0.477   3.866 -0.4255  0.0986  0.5765
27589SOL     OW86808   8.633   2.231   7.432  0.1039 -0.5500  0.6258
27589SOL    HW186809   8.725   2.220   7.410 -0.2102 -0.4745 -0.7799
27589SOL    HW286810   8.598   2.142   7.435 -0.2110 -0.4944 -0.8427
27590SOL     OW86811   0.916   8.009   0.549 -0.3532  0.4901 -0.2131
27590SOL    HW186812   1.006   8.000   0.518 -0.2197  1.5384 -0.1473
27590SOL    HW286813   0.905   7.938   0.613  0.3794  0.2823 -0.3126
27591SOL     OW86814   8.313   3.286   5.467 -0.4410 -0.0318 -0.1528
27591SOL    HW186815   8.346   3.345   5.399  1.1141  0.7232  1.1853
27591SOL    HW286816   8.237   3.332   5.504 -0.8464 -0.1121 -0.8633
27592SOL     OW86817   0.846   8.542   7.593  0.3605 -0.2011 -0.3007
27592SOL    HW186818   0.755   8.572   7.583  0.9986  1.2175 -2.4971
27592SOL    HW286819   0.846   8.455   7.553 -0.3511 -1.0155  1.3390
27593SOL     OW86820  10.210   9.060   7.870 -0.0053 -0.2553 -0.6496
27593SOL    HW186821  10.181   9.004   7.942  0.8621 -0.4074 -0.4058
27593SOL    HW286822  10.299   9.031   7.852  0.7093  1.4888 -0.0888
27594SOL     OW86823   3.602   8.228   9.906 -0.1642 -0.1620 -0.1801
27594SOL    HW186824   3.586   8.147   9.955  0.9466 -0.5349 -0.4085
27594SOL    HW286825   3.639   8.288   9.971 -1.2542  0.2770  0.0563
27595SOL     OW86826   3.121   9.906   0.097 -0.0398 -0.7232  0.6033
27595SOL    HW186827   3.076   9.821   0.098  0.3535 -0.9593 -0.2037
27595SOL    HW286828   3.102   9.942   0.010  0.2581 -0.2389  0.7350
27596SOL     OW86829   0.784   5.328   7.928 -0.0302 -0.2904  0.0591
27596SOL    HW186830   0.778   5.414   7.886 -1.4093  0.4379  1.6700
27596SOL    HW286831   0.868   5.330   7.974 -0.6925  0.7817  1.2708
27597SOL     OW86832   3.226   1.891   2.068  0.1073 -0.0782  0.0893
27597SOL    HW186833   3.316   1.924   2.078 -0.4540  1.7426 -0.5491
27597SOL    HW286834   3.172   1.969   2.059 -1.2160 -1.1418 -2.2834
27598SOL     OW86835   9.890   2.736   1.948 -0.3123 -0.3744 -0.2246
27598SOL    HW186836   9.915   2.763   2.036 -1.8937 -0.9016  0.4361
27598SOL    HW286837   9.797   2.712   1.956 -0.1542 -1.6856 -1.7374
27599SOL     OW86838   1.971   9.412   8.550 -0.2884  0.5202 -0.3162
27599SOL    HW186839   1.934   9.327   8.575  1.3333 -0.2954 -0.5435
27599SOL    HW286840   2.018   9.442   8.627 -0.1664  0.8026 -0.4989
27600SOL     OW86841   8.221   3.726   4.063  0.8841  0.0331 -0.0308
27600SOL    HW186842   8.126   3.722   4.069  0.7943  1.7470  0.1432
27600SOL    HW286843   8.248   3.636   4.043 -0.7213 -0.5745  0.4110
27601SOL     OW86844   7.879   9.565   0.275 -0.3660  0.3348  0.7099
27601SOL    HW186845   7.851   9.552   0.366 -0.1460 -0.6864  0.6434
27601SOL    HW286846   7.951   9.504   0.264  0.0857  0.9815  0.0561
27602SOL     OW86847   9.162   7.785   6.378  0.0984 -0.1021  0.2419
27602SOL    HW186848   9.139   7.845   6.449  1.4312 -0.4194  0.9755
27602SOL    HW286849   9.211   7.839   6.316  0.7221 -0.2731  0.5791
27603SOL     OW86850   0.136   9.396   9.030 -0.7762  0.0452 -0.4318
27603SOL    HW186851   0.111   9.317   9.078 -1.7528  1.4465  1.4984
27603SOL    HW286852   0.062   9.414   8.972 -0.5073 -0.5101 -0.9476
27604SOL     OW86853   9.551  10.189   7.512 -0.2359 -0.3241 -0.6461
27604SOL    HW186854   9.457  10.187   7.530 -0.2149 -0.4390 -0.5464
27604SOL    HW286855   9.585  10.257   7.571  0.1553 -2.1242  1.3217
27605SOL     OW86856   4.294   9.949   6.344  0.2742 -0.1469  0.2781
27605SOL    HW186857   4.340   9.937   6.428 -0.3958 -2.1793  0.4180
27605SOL    HW286858   4.245  10.030   6.355 -2.5720 -2.0330  3.2776
27606SOL     OW86859   6.208   5.656   5.503  0.2967  0.0723  0.2015
27606SOL    HW186860   6.158   5.735   5.487  0.2738  0.1099  0.4565
27606SOL    HW286861   6.299   5.681   5.487  0.2015 -0.1118 -0.7027
27607SOL     OW86862   0.452   3.093   4.123 -0.5419 -0.1299 -0.7453
27607SOL    HW186863   0.399   3.151   4.177 -0.4582 -0.1064 -0.6882
27607SOL    HW286864   0.453   3.135   4.037  1.1799  1.0353 -0.2211
27608SOL     OW86865   9.528   9.281   8.709  0.3230 -0.9463  0.1262
27608SOL    HW186866   9.498   9.220   8.642 -0.6195 -0.6512  0.2664
27608SOL    HW286867   9.558   9.358   8.661  1.0616 -1.3253 -0.0260
27609SOL     OW86868   4.782   4.852   1.529 -0.6187  0.6636  0.2091
27609SOL    HW186869   4.819   4.787   1.469 -2.2815 -0.0552 -0.0787
27609SOL    HW286870   4.688   4.840   1.523 -0.9206  2.2762  1.1127
27610SOL     OW86871   4.012   5.843   8.676 -0.8678 -0.3330 -0.1412
27610SOL    HW186872   4.004   5.765   8.620  2.5254 -0.9357  0.0008
27610SOL    HW286873   3.988   5.916   8.619 -0.8856 -1.2224 -1.3129
27611SOL     OW86874   9.196   0.291   5.763 -0.5884  0.1490 -0.0928
27611SOL    HW186875   9.105   0.307   5.739 -0.1192  0.6566 -1.6563
27611SOL    HW286876   9.240   0.274   5.680  0.7949  0.1466  0.6116
27612SOL     OW86877   1.955   4.659   6.967  0.0938 -0.2403  0.0804
27612SOL    HW186878   1.942   4.637   7.059  0.3430  0.9080  0.4088
27612SOL    HW286879   1.963   4.575   6.923 -0.6359 -0.8152  1.0155
27613SOL     OW86880   7.019   1.693   5.980  0.3008 -0.1669  0.0257
27613SOL    HW186881   7.040   1.647   5.900  0.8090 -2.2186  1.2708
27613SOL    HW286882   7.035   1.785   5.960 -3.1800 -0.0505 -3.3373
27614SOL     OW86883   5.963   4.064   2.447 -0.1247  0.6001  0.0386
27614SOL    HW186884   5.935   4.153   2.468  0.6023  1.3041 -1.7988
27614SOL    HW286885   6.037   4.076   2.387 -0.2823 -1.2488 -0.5654
27615SOL     OW86886   6.980   5.100   5.413  0.1095 -0.3948  0.2032
27615SOL    HW186887   7.055   5.094   5.472 -1.2659 -0.1739  2.0581
27615SOL    HW286888   6.932   5.177   5.442 -1.3632 -1.0770 -0.3004
27616SOL     OW86889   1.930   2.232   4.473 -0.0856  0.4748  0.1145
27616SOL    HW186890   2.004   2.289   4.494  0.0792  0.1461  0.4341
27616SOL    HW286891   1.907   2.191   4.557 -2.3643  2.5915  0.6521
27617SOL     OW86892   9.119  10.222   8.371  0.2382 -0.4436  0.1054
27617SOL    HW186893   9.200  10.203   8.419  0.9361 -0.3353 -0.9950
27617SOL    HW286894   9.112  10.151   8.307 -0.7099 -0.6252  0.4025
27618SOL     OW86895   2.960   1.252   5.023  0.1252 -0.2877  0.2039
27618SOL    HW186896   2.993   1.305   4.950  1.3614 -0.9630  0.2441
27618SOL    HW286897   3.033   1.249   5.085 -0.1710 -1.4607  0.5170
27619SOL     OW86898   0.409   1.670   4.670  0.9931  0.1795 -0.6195
27619SOL    HW186899   0.365   1.755   4.661 -1.8212 -0.9909  0.8636
27619SOL    HW286900   0.370   1.614   4.603  0.6208 -0.7395  0.3374
27620SOL     OW86901   9.247   1.667   5.446 -0.5842  0.5057 -0.1758
27620SOL    HW186902   9.236   1.602   5.377  0.6789  0.6738 -0.5645
27620SOL    HW286903   9.314   1.629   5.503 -0.0085  1.3387 -0.2787
27621SOL     OW86904   2.589   2.129   0.049  0.1387 -0.2022  0.1824
27621SOL    HW186905   2.679   2.112   0.077  0.1336  0.5864  0.7251
27621SOL    HW286906   2.546   2.044   0.053  0.5927 -0.4125  0.9369
27622SOL     OW86907   7.285   5.276   2.571 -0.4101  0.5450 -0.3368
27622SOL    HW186908   7.334   5.219   2.512  0.1241  0.9738 -0.3093
27622SOL    HW286909   7.234   5.332   2.513 -1.7315 -0.6098 -0.3668
27623SOL     OW86910   3.168   6.379   0.146 -0.0927  0.0505  0.2889
27623SOL    HW186911   3.155   6.286   0.162 -0.1557 -0.0458 -0.3237
27623SOL    HW286912   3.145   6.392   0.054  0.5841  0.5425  0.1829
27624SOL     OW86913   5.367   9.622   8.169  0.6644  0.2786 -0.3167
27624SOL    HW186914   5.455   9.626   8.207  0.4352  0.5264  0.2018
27624SOL    HW286915   5.308   9.626   8.245  0.2227 -1.3076 -0.5504
27625SOL     OW86916   7.919   0.017   4.846 -0.6017 -0.0275  0.2003
27625SOL    HW186917   7.860  -0.042   4.895 -1.3606  0.0725 -0.5708
27625SOL    HW286918   7.919  -0.018   4.757 -1.8569  1.6950 -0.5273
27626SOL     OW86919   8.967   2.455   2.230  0.0971  0.7399  0.0288
27626SOL    HW186920   8.930   2.532   2.273  1.4414  1.5030 -0.1200
27626SOL    HW286921   9.027   2.418   2.295  0.0347  0.2518 -0.1853
27627SOL     OW86922   9.337   6.131   7.011  0.2688 -0.1324 -0.7482
27627SOL    HW186923   9.366   6.201   7.070 -0.3748 -0.1280 -0.4276
27627SOL    HW286924   9.397   6.059   7.028 -1.3420 -1.0238  1.7421
27628SOL     OW86925   2.502   7.533   9.288 -0.2032 -0.5710  0.1487
27628SOL    HW186926   2.433   7.585   9.246  0.1044 -1.1445 -1.1406
27628SOL    HW286927   2.546   7.594   9.347  0.5818  0.8847 -1.8098
27629SOL     OW86928   5.029   9.332   0.813  0.6541  0.0039 -0.1682
27629SOL    HW186929   5.125   9.338   0.812  0.5970  1.7727  0.6473
27629SOL    HW286930   5.006   9.328   0.906 -0.0808  0.0783 -0.3404
27630SOL     OW86931   2.490   8.111   3.857 -0.5873  0.3128  0.3451
27630SOL    HW186932   2.463   8.052   3.787  0.8445 -0.0320  0.0496
27630SOL    HW286933   2.560   8.164   3.818 -0.6448  0.9992  1.1391
27631SOL     OW86934   8.358   1.944   3.914  0.1136 -0.6674 -0.0153
27631SOL    HW186935   8.414   2.020   3.928 -0.5679 -0.2814  0.7556
27631SOL    HW286936   8.269   1.977   3.931 -0.3211 -1.3232 -0.9495
27632SOL     OW86937   1.338   6.278   5.044 -0.0022  0.8132  0.0605
27632SOL    HW186938   1.282   6.339   5.092 -1.6614  0.2039 -1.0116
27632SOL    HW286939   1.277   6.220   4.998  1.5218 -0.2972 -0.6573
27633SOL     OW86940   6.091   2.838   7.933 -0.1915 -0.2832  0.4211
27633SOL    HW186941   6.063   2.763   7.880  0.1524 -0.1815  0.0948
27633SOL    HW286942   6.036   2.910   7.902  1.4399  0.2946 -1.3119
27634SOL     OW86943   7.052   2.813   1.678 -0.3295 -0.2548  0.2014
27634SOL    HW186944   7.142   2.808   1.709 -0.6525 -2.4160  0.9235
27634SOL    HW286945   7.057   2.785   1.586 -0.3639 -1.4054  0.5311
27635SOL     OW86946   7.537   9.842   7.928 -0.6468 -0.5077 -0.0168
27635SOL    HW186947   7.475   9.776   7.895 -1.1706  1.2688 -2.9056
27635SOL    HW286948   7.622   9.815   7.891 -0.5948 -0.3720  0.0038
27636SOL     OW86949   2.652   4.334   0.457  0.4191 -0.1396 -0.0606
27636SOL    HW186950   2.698   4.379   0.386 -0.4143  0.8406  0.0004
27636SOL    HW286951   2.650   4.398   0.528  1.1676 -1.0797  0.8433
27637SOL     OW86952   9.128   5.349   2.990  0.6941  0.3293  0.5703
27637SOL    HW186953   9.073   5.289   2.940  0.4141  0.2976  0.9079
27637SOL    HW286954   9.214   5.307   2.993  0.2607 -0.5531  1.6414
27638SOL     OW86955   9.876   7.158   8.216  0.2764 -0.1106  0.3440
27638SOL    HW186956   9.787   7.125   8.203  0.2683  0.1720 -0.3873
27638SOL    HW286957   9.866   7.253   8.215  0.6674 -0.0723 -0.4017
27639SOL     OW86958   2.856   8.600   4.750 -0.9131 -0.0492  0.8929
27639SOL    HW186959   2.773   8.604   4.703 -0.3561  0.0254 -0.0894
27639SOL    HW286960   2.918   8.564   4.688  0.0962  1.1034  1.1825
27640SOL     OW86961   8.787   4.630   6.539  0.0718  0.0055  0.0299
27640SOL    HW186962   8.853   4.563   6.520 -0.6736 -0.6100 -0.4238
27640SOL    HW286963   8.767   4.668   6.454  1.0619  1.3764  0.3771
27641SOL     OW86964   4.645   2.540   0.205  0.1644 -0.2882  0.3825
27641SOL    HW186965   4.709   2.594   0.158 -1.0983  2.5981  1.6939
27641SOL    HW286966   4.680   2.533   0.294  0.6911 -2.4132  0.0474
27642SOL     OW86967   5.447   1.685   0.616 -0.5988  0.0896  0.4175
27642SOL    HW186968   5.447   1.692   0.521  0.1591  1.1556  0.4751
27642SOL    HW286969   5.496   1.604   0.634  1.4854  1.1904 -0.0655
27643SOL     OW86970   5.093   0.578   3.022  0.2770 -0.1127  0.0480
27643SOL    HW186971   5.150   0.501   3.026 -2.2778 -2.1321  2.0682
27643SOL    HW286972   5.066   0.592   3.112  1.1820  3.7583 -0.1274
27644SOL     OW86973   4.491   9.736   1.756 -0.1109  0.0039 -0.9569
27644SOL    HW186974   4.476   9.726   1.662  0.5395  0.7841 -1.1466
27644SOL    HW286975   4.574   9.782   1.763 -0.6627  0.8873 -0.0093
27645SOL     OW86976   1.310   1.249   5.204 -0.1531  0.0719 -0.2715
27645SOL    HW186977   1.269   1.204   5.278 -1.8245  0.6313 -0.8162
27645SOL    HW286978   1.321   1.181   5.138  0.4392 -0.2250  0.1296
27646SOL     OW86979   1.707   3.974   8.638 -0.2731  0.3277 -0.9913
27646SOL    HW186980   1.795   3.943   8.618 -0.7837 -1.3231 -0.8352
27646SOL    HW286981   1.708   4.066   8.615  2.7610  1.5496  2.8051
27647SOL     OW86982   3.855   8.268   3.901 -0.2973 -0.1292 -0.1888
27647SOL    HW186983   3.938   8.308   3.875 -0.8979 -0.0453 -2.1029
27647SOL    HW286984   3.861   8.177   3.871 -0.6323 -0.3137  0.2807
27648SOL     OW86985   8.859   9.181   3.106  0.5880 -0.0819 -0.2209
27648SOL    HW186986   8.875   9.263   3.152 -0.5818  0.7643 -1.2424
27648SOL    HW286987   8.945   9.142   3.094  0.9511 -0.4330  2.7589
27649SOL     OW86988   3.839   6.862   7.700  0.2370 -0.0436 -0.2825
27649SOL    HW186989   3.814   6.938   7.648 -0.5561 -1.4293 -2.0016
27649SOL    HW286990   3.902   6.897   7.763  0.6603  1.8534 -1.6608
27650SOL     OW86991   4.239   7.937   6.967 -0.0787  0.3149  0.4274
27650SOL    HW186992   4.319   7.941   6.914  0.3864 -0.0326  1.0912
27650SOL    HW286993   4.218   7.844   6.972  1.2827  0.0674  2.8803
27651SOL     OW86994   3.027   7.158   9.072 -0.3439  0.5189 -0.4210
27651SOL    HW186995   3.091   7.087   9.077  0.3346  0.9995 -1.7534
27651SOL    HW286996   3.049   7.204   8.991 -1.2448  1.7982  0.0343
27652SOL     OW86997   3.179   6.363   5.306 -0.6571 -0.2312 -0.1932
27652SOL    HW186998   3.221   6.285   5.271 -1.9448 -0.7680 -0.5931
27652SOL    HW286999   3.122   6.331   5.376 -0.6156  0.4521  0.1685
27653SOL     OW87000   8.737   8.926   6.129 -0.4937 -0.0259 -0.4374
27653SOL    HW187001   8.671   8.945   6.063 -1.9241 -0.2458  0.8819
27653SOL    HW287002   8.781   9.010   6.144 -1.0338  0.3101 -0.7168
27654SOL     OW87003   8.132   6.493   2.689 -0.1291  0.0006  0.3682
27654SOL    HW187004   8.060   6.435   2.666  0.0218 -0.4934  1.0959
27654SOL    HW287005   8.099   6.581   2.670  0.1419 -0.3539 -2.1035
27655SOL     OW87006   3.656   6.104   0.803 -0.4340 -0.1804  0.0498
27655SOL    HW187007   3.735   6.143   0.840 -0.4427 -0.5915  0.5070
27655SOL    HW287008   3.592   6.175   0.801 -0.7152 -0.3603  1.6538
27656SOL     OW87009   9.114   7.782   8.254  0.0527 -0.3944 -0.5877
27656SOL    HW187010   9.084   7.749   8.169 -2.9308  0.8497 -0.1483
27656SOL    HW287011   9.072   7.867   8.263  2.1030  0.5095  1.2176
27657SOL     OW87012   4.356  10.123   8.505  0.3725 -0.4504  0.0786
27657SOL    HW187013   4.319  10.104   8.591  0.5096 -0.6445  0.0972
27657SOL    HW287014   4.433  10.178   8.523  0.0387  0.0301  0.0340
27658SOL     OW87015   2.458   2.931   5.978  0.6929  0.2189 -0.0969
27658SOL    HW187016   2.508   2.851   5.958  1.2411  0.9254 -1.7140
27658SOL    HW287017   2.407   2.908   6.056 -0.0330 -2.0980 -1.1577
27659SOL     OW87018   1.581   2.072   0.278 -0.5368 -0.3515  0.2146
27659SOL    HW187019   1.512   2.136   0.294  0.5709  0.9241  0.0284
27659SOL    HW287020   1.613   2.091   0.191  0.5740 -0.4161  0.5916
27660SOL     OW87021   5.522   7.936   9.444 -0.1447 -0.0968 -0.8422
27660SOL    HW187022   5.448   7.913   9.500  0.0378  0.2073 -0.4704
27660SOL    HW287023   5.599   7.919   9.497 -0.0001  1.6991 -0.3846
27661SOL     OW87024   6.391   9.727   7.448 -0.2851 -0.2834  0.0064
27661SOL    HW187025   6.360   9.715   7.537  3.5140 -0.6244  1.4961
27661SOL    HW287026   6.447   9.651   7.432  1.2135  1.0665 -1.5897
27662SOL     OW87027   1.250   7.647   6.846  0.3873  0.1129  0.7039
27662SOL    HW187028   1.335   7.676   6.812  0.3264 -1.4277 -0.9305
27662SOL    HW287029   1.192   7.647   6.769  0.3378 -3.9011  0.5285
27663SOL     OW87030   9.430   2.841   5.679  0.1912  0.1152  0.2237
27663SOL    HW187031   9.381   2.819   5.600  1.1655  1.4178 -0.7781
27663SOL    HW287032   9.522   2.833   5.655  0.6119  3.3317  0.2521
27664SOL     OW87033   2.761   7.611   1.433 -0.4161 -0.5318  0.0998
27664SOL    HW187034   2.808   7.641   1.511 -0.1640 -1.8889  0.4821
27664SOL    HW287035   2.819   7.635   1.360 -0.4725  0.3853  0.3377
27665SOL     OW87036   4.436   0.027   2.321 -0.3654 -0.4309 -0.6680
27665SOL    HW187037   4.392  -0.050   2.284 -1.5852  0.8861 -2.0896
27665SOL    HW287038   4.394   0.041   2.405 -0.9369 -0.6613 -0.9132
27666SOL     OW87039   4.153   0.598   8.197 -0.8318  0.3711 -0.5742
27666SOL    HW187040   4.109   0.627   8.117 -1.1537 -1.1966 -1.0038
27666SOL    HW287041   4.088   0.543   8.241 -0.3452  0.4935  0.3268
27667SOL     OW87042  10.060   3.904   9.360 -0.3726 -0.3814  0.0403
27667SOL    HW187043  10.143   3.936   9.395  0.1781 -0.5794 -1.0308
27667SOL    HW287044  10.035   3.834   9.420 -0.7577  0.9287  1.4592
27668SOL     OW87045   2.278   8.928   7.425  0.2174  0.1459 -0.1343
27668SOL    HW187046   2.294   8.938   7.331  0.0167  1.8893 -0.0070
27668SOL    HW287047   2.191   8.964   7.438 -0.5569 -1.8085  0.4665
27669SOL     OW87048   5.243   9.790   1.392  0.1785 -0.3496 -0.3889
27669SOL    HW187049   5.227   9.870   1.441  0.7179  0.0836 -0.9031
27669SOL    HW287050   5.295   9.736   1.452 -0.9378 -0.6976  0.2949
27670SOL     OW87051   5.353   1.881   8.905  0.3874  0.2400 -0.1156
27670SOL    HW187052   5.344   1.935   8.984  1.0806  0.6606 -0.3205
27670SOL    HW287053   5.328   1.793   8.934  3.3043 -0.2401  1.3310
27671SOL     OW87054   9.885   6.924   7.098  0.0802 -0.0243  0.2172
27671SOL    HW187055   9.916   7.011   7.121  0.1974  0.2947 -1.0740
27671SOL    HW287056   9.790   6.928   7.107 -0.1431  0.9561 -2.0377
27672SOL     OW87057   8.285   8.958   5.941  0.1481  0.4200  0.3525
27672SOL    HW187058   8.354   9.020   5.965  0.7384 -0.3482  0.6788
27672SOL    HW287059   8.262   8.914   6.023  0.2836 -0.3364 -0.0080
27673SOL     OW87060   3.393   9.341   9.823 -0.3692  0.2338  0.3384
27673SOL    HW187061   3.340   9.385   9.889 -1.2929 -0.8715  0.3730
27673SOL    HW287062   3.483   9.367   9.844 -0.7339  0.7408  1.3822
27674SOL     OW87063   1.807   2.928   5.661 -0.3992  1.0237  0.0261
27674SOL    HW187064   1.805   2.948   5.755 -1.6914  1.0880  0.0022
27674SOL    HW287065   1.719   2.898   5.641  0.1261  0.0768 -0.9804
27675SOL     OW87066   9.069   5.350  10.231 -0.1050  0.2084  0.0852
27675SOL    HW187067   9.094   5.318  10.144 -1.7354 -0.7668 -0.0813
27675SOL    HW287068   9.130   5.308  10.291 -0.4752 -1.0741 -0.3948
27676SOL     OW87069   4.936   9.771   3.020  0.1447 -0.1384  0.3059
27676SOL    HW187070   4.842   9.753   3.022  0.1833 -0.3295  0.4571
27676SOL    HW287071   4.965   9.739   2.934  0.4698 -2.1361  1.1214
27677SOL     OW87072   8.077   7.813   0.552  0.1467  0.0118 -0.3455
27677SOL    HW187073   8.005   7.870   0.526 -1.0358 -1.1294  0.3166
27677SOL    HW287074   8.050   7.776   0.636  1.5396 -0.3890 -0.0510
27678SOL     OW87075   5.775   9.209   4.372  0.1617  0.2681  0.4924
27678SOL    HW187076   5.799   9.269   4.442 -0.9656  0.6458  0.5675
27678SOL    HW287077   5.741   9.265   4.303 -0.4253 -0.2380  0.3607
27679SOL     OW87078   9.640   5.756   5.120 -0.0450 -0.7103  0.4530
27679SOL    HW187079   9.558   5.752   5.169  0.2216  0.1854  0.9927
27679SOL    HW287080   9.614   5.747   5.028 -0.9259  1.0270  0.4947
27680SOL     OW87081   2.278   4.222   8.580 -0.7897  0.5551 -0.2572
27680SOL    HW187082   2.215   4.215   8.652 -1.0705  0.8248 -0.4721
27680SOL    HW287083   2.249   4.299   8.530 -0.9983 -0.0160 -1.0405
27681SOL     OW87084   8.715   5.126   3.854  0.2481  0.2943  0.5661
27681SOL    HW187085   8.730   5.091   3.766  0.0378 -0.4528  0.8264
27681SOL    HW287086   8.799   5.166   3.878  1.0224 -1.4357  0.9067
27682SOL     OW87087   1.855   6.161   8.119 -0.3115 -0.1197 -0.3894
27682SOL    HW187088   1.841   6.255   8.125 -0.4018 -0.0134 -1.8968
27682SOL    HW287089   1.767   6.124   8.112 -0.2849 -0.3478  0.3601
27683SOL     OW87090   9.741   3.657   2.822  0.4554 -0.1576 -0.0032
27683SOL    HW187091   9.822   3.696   2.791  1.8112 -3.1280 -0.6290
27683SOL    HW287092   9.676   3.682   2.756  1.1724  1.1705 -0.2309
27684SOL     OW87093   8.122   2.932   1.618  0.1033 -0.2346  0.2126
27684SOL    HW187094   8.094   2.945   1.709 -0.7429  0.1034 -0.0861
27684SOL    HW287095   8.218   2.931   1.622  0.0727 -0.1494  1.0984
27685SOL     OW87096   4.516   3.994   4.576 -0.1674  0.0378 -0.0326
27685SOL    HW187097   4.481   3.967   4.661 -1.6952  0.9836 -0.3271
27685SOL    HW287098   4.555   4.079   4.593  1.3235 -0.6328  0.1039
27686SOL     OW87099   9.035   5.467   1.075 -0.1990  0.2773 -0.2635
27686SOL    HW187100   9.043   5.528   1.001 -2.0766 -1.8738 -2.3969
27686SOL    HW287101   8.940   5.458   1.089 -0.1504 -3.4982 -1.3444
27687SOL     OW87102   6.513   1.345   3.994 -0.0618 -0.2806 -0.0259
27687SOL    HW187103   6.596   1.340   3.945  0.5945  0.2276  0.9984
27687SOL    HW287104   6.517   1.271   4.055 -0.1707 -0.0106  0.3108
27688SOL     OW87105   5.346   1.407   4.236  0.1327  0.2722 -0.4285
27688SOL    HW187106   5.412   1.471   4.209  0.8830 -0.6374 -0.8116
27688SOL    HW287107   5.390   1.352   4.300 -0.5485  0.2207  0.0053
27689SOL     OW87108   6.191   3.108  10.125 -0.3457  0.1100 -0.1817
27689SOL    HW187109   6.273   3.127  10.171 -0.5308  0.6760 -0.0761
27689SOL    HW287110   6.170   3.189  10.080 -0.5998 -0.1878 -0.6035
27690SOL     OW87111   2.222   7.271   9.306 -0.4509  0.1397  0.2551
27690SOL    HW187112   2.207   7.176   9.309  0.6811 -0.0738 -0.5300
27690SOL    HW287113   2.281   7.284   9.232 -3.1569  1.8279 -1.7907
27691SOL     OW87114   1.887   3.379   2.288  0.0952 -0.1513  0.2680
27691SOL    HW187115   1.978   3.370   2.316 -0.1752 -0.7471  0.9925
27691SOL    HW287116   1.862   3.468   2.311  0.0771 -0.4294  1.3503
27692SOL     OW87117   2.219   7.195   6.034 -0.7717  0.2582  0.4638
27692SOL    HW187118   2.185   7.130   5.972 -1.1272 -0.7118  1.6540
27692SOL    HW287119   2.295   7.153   6.075 -0.4154  0.9717  0.5510
27693SOL     OW87120   7.556   2.152   9.701  0.0894 -0.0415  0.0185
27693SOL    HW187121   7.570   2.246   9.706  0.2205 -0.0263 -0.6455
27693SOL    HW287122   7.553   2.132   9.608 -0.1580 -0.6635  0.1499
27694SOL     OW87123  10.117   6.150   4.658 -0.1701 -0.1258  0.0786
27694SOL    HW187124  10.049   6.141   4.725  0.3093  0.1491  0.6146
27694SOL    HW287125  10.139   6.061   4.633  0.2494 -0.2653  0.9133
27695SOL     OW87126   7.687   1.027   8.407  0.1286  0.7544 -0.1792
27695SOL    HW187127   7.600   0.998   8.435  0.2320  1.4041  0.8733
27695SOL    HW287128   7.677   1.042   8.313 -0.5334 -0.4319 -0.3277
27696SOL     OW87129   1.569   9.162   7.547  0.3732 -0.3634 -0.1536
27696SOL    HW187130   1.627   9.238   7.545  1.5305 -1.1383  1.6592
27696SOL    HW287131   1.486   9.194   7.511  1.4673  1.1524 -1.4508
27697SOL     OW87132   6.863   2.851   8.547  0.2568  0.3609  0.2400
27697SOL    HW187133   6.810   2.863   8.626 -1.4777  2.7753 -1.1623
27697SOL    HW287134   6.937   2.911   8.559  0.2900  0.3160  0.2606
27698SOL     OW87135   4.793   3.701   9.984 -0.5199 -0.5832 -0.9635
27698SOL    HW187136   4.850   3.753  10.039 -1.6137 -0.4097  0.0451
27698SOL    HW287137   4.814   3.610  10.005 -0.9792 -0.5178 -0.1796
27699SOL     OW87138   4.861  10.044   0.451 -0.4815 -0.2482 -0.1721
27699SOL    HW187139   4.786  10.034   0.391  0.6721 -0.2125 -1.6797
27699SOL    HW287140   4.856   9.967   0.508 -1.7146 -0.1930 -0.1641
27700SOL     OW87141   2.198   9.799   5.253  0.0266  0.2946 -0.2838
27700SOL    HW187142   2.267   9.807   5.188 -1.2311 -0.2675 -1.7464
27700SOL    HW287143   2.172   9.890   5.273 -0.2795  0.4563 -1.3683
27701SOL     OW87144   5.888   0.347   5.346 -0.0966 -0.2409  0.7401
27701SOL    HW187145   5.954   0.283   5.321 -0.9163 -0.2356 -1.8230
27701SOL    HW287146   5.853   0.316   5.429  1.9560 -1.1261  1.3306
27702SOL     OW87147   9.886   2.607   9.376  0.1748  0.5497  0.7577
27702SOL    HW187148   9.918   2.629   9.288  0.8413  0.1932  0.9043
27702SOL    HW287149   9.804   2.561   9.360 -0.0983  1.1552  0.3570
27703SOL     OW87150   6.399   6.152   4.155  0.1005 -0.0771 -0.0944
27703SOL    HW187151   6.339   6.085   4.124  0.3799  0.3514 -1.6394
27703SOL    HW287152   6.484   6.108   4.159  0.1956  0.0480 -0.6506
27704SOL     OW87153   1.978   3.834   9.734  0.4673 -0.1422 -0.4008
27704SOL    HW187154   1.963   3.853   9.641  0.4387  0.5326 -0.2643
27704SOL    HW287155   1.902   3.783   9.760  0.0349  0.4256 -0.5339
27705SOL     OW87156   5.632   8.904   4.619  0.1151 -0.0447  0.0120
27705SOL    HW187157   5.699   8.921   4.552 -1.0698  1.0484 -0.9567
27705SOL    HW287158   5.682   8.884   4.698  1.5737 -0.2605 -0.9148
27706SOL     OW87159   4.699   3.416   6.432 -0.5762  0.3374  0.1872
27706SOL    HW187160   4.724   3.401   6.341  1.0935  0.9693  0.5128
27706SOL    HW287161   4.754   3.488   6.461 -0.5799 -0.2972  1.9029
27707SOL     OW87162   1.560   4.881   2.013 -0.1085  0.3616 -0.3816
27707SOL    HW187163   1.596   4.882   2.102  1.0454  0.5610 -0.8304
27707SOL    HW287164   1.559   4.789   1.989 -0.2743  0.3209 -0.2211
27708SOL     OW87165   8.625   6.301   5.406 -0.2930  0.0082 -0.3416
27708SOL    HW187166   8.662   6.214   5.385  0.4887  0.1124  0.5147
27708SOL    HW287167   8.602   6.295   5.499  1.2596  1.1911  0.1739
27709SOL     OW87168   5.781   4.056   3.346 -0.2616 -0.2955  0.5366
27709SOL    HW187169   5.776   4.151   3.355  2.6158 -0.1690  2.0816
27709SOL    HW287170   5.808   4.041   3.255  0.6742  0.4787  0.6745
27710SOL     OW87171   0.292   3.530   8.383  0.0603 -0.0086  0.0146
27710SOL    HW187172   0.288   3.495   8.472  0.7987  0.9587  0.4523
27710SOL    HW287173   0.368   3.589   8.384  0.4410 -0.4276 -1.4212
27711SOL     OW87174   2.862   7.339   8.061 -0.8057  0.8482 -0.4078
27711SOL    HW187175   2.933   7.352   7.998 -0.9203  0.6802 -0.5752
27711SOL    HW287176   2.893   7.381   8.141 -0.2097  0.1327 -0.2594
27712SOL     OW87177   1.497   6.540   4.038 -0.4018 -0.2454 -0.4966
27712SOL    HW187178   1.487   6.611   3.974  0.6462 -0.3622 -0.8104
27712SOL    HW287179   1.585   6.506   4.022  0.5528  0.7523  2.0645
27713SOL     OW87180   6.517   6.548   5.273  0.8981  0.1908  0.2547
27713SOL    HW187181   6.554   6.555   5.185  1.1760 -1.1680  0.2392
27713SOL    HW287182   6.553   6.623   5.321  1.3738  0.4980 -0.5590
27714SOL     OW87183   3.332   1.195   4.059  0.5135 -0.8036 -0.3887
27714SOL    HW187184   3.390   1.240   3.997  0.4116 -0.1357 -0.0048
27714SOL    HW287185   3.318   1.109   4.020 -1.3990  0.3542 -2.4708
27715SOL     OW87186  10.263   8.381   5.098 -0.0936 -0.4539  0.1776
27715SOL    HW187187  10.289   8.297   5.062 -0.7834 -0.5491 -0.1286
27715SOL    HW287188  10.342   8.435   5.095  0.2778 -1.0016  0.1123
27716SOL     OW87189   8.164   3.448   5.636  0.5534  0.0827  0.1099
27716SOL    HW187190   8.236   3.511   5.646 -0.6231  1.3945  0.5198
27716SOL    HW287191   8.144   3.420   5.725 -0.4728  0.9158  0.1505
27717SOL     OW87192   1.516   7.515   5.790 -0.2013 -0.5669  0.1948
27717SOL    HW187193   1.558   7.584   5.738  0.2170 -1.2254 -0.3548
27717SOL    HW287194   1.429   7.505   5.751 -1.7003  2.1026  2.4879
27718SOL     OW87195   1.193   9.227   1.477 -0.0767  0.0435  0.0899
27718SOL    HW187196   1.252   9.196   1.408 -0.8848 -0.5446 -0.3386
27718SOL    HW287197   1.238   9.303   1.513  1.8228 -1.4043  0.9716
27719SOL     OW87198   3.289   9.206   3.317 -0.4004  0.7315 -0.0616
27719SOL    HW187199   3.376   9.228   3.350  0.1451 -0.2036 -0.8066
27719SOL    HW287200   3.282   9.253   3.234 -0.0648 -0.2250 -0.6429
27720SOL     OW87201   8.674   2.979   3.630  0.0390  0.1662 -0.4272
27720SOL    HW187202   8.753   2.934   3.598  1.0454 -0.6716  2.8054
27720SOL    HW287203   8.708   3.044   3.692 -1.7696  0.1183  0.6720
27721SOL     OW87204   8.156   6.718   8.413  0.5916  0.3888  0.2540
27721SOL    HW187205   8.223   6.668   8.366  0.7395  0.9245 -0.1133
27721SOL    HW287206   8.086   6.731   8.348  0.3826  0.3235  0.4655
27722SOL     OW87207   8.964   2.957   8.806 -0.0427  0.0300 -0.4730
27722SOL    HW187208   9.037   2.913   8.762  1.4349  0.2797  1.5668
27722SOL    HW287209   8.979   3.051   8.789  0.6987  0.1494  0.6895
27723SOL     OW87210   5.300   8.955   3.131  0.1053  0.3731 -0.6407
27723SOL    HW187211   5.281   8.997   3.048  1.7682 -0.3659 -1.4376
27723SOL    HW287212   5.216   8.920   3.160 -0.8144  2.0434 -1.1800
27724SOL     OW87213   5.288  10.195   6.659 -0.5351  0.0464 -0.0664
27724SOL    HW187214   5.259  10.284   6.641 -0.5797 -0.2129 -1.3065
27724SOL    HW287215   5.364  10.182   6.603 -1.7069 -1.3642 -1.4165
27725SOL     OW87216   2.000   2.980   4.297 -0.2445  0.3156  0.7246
27725SOL    HW187217   2.076   2.936   4.335  0.1524 -1.3923 -1.8049
27725SOL    HW287218   2.025   3.000   4.207 -1.9789  1.8662  0.5306
27726SOL     OW87219  10.196  10.239  10.253  0.3803 -0.3874 -0.5459
27726SOL    HW187220  10.288  10.261  10.270 -0.0470  0.8274  0.3775
27726SOL    HW287221  10.159  10.225  10.341 -0.4283 -0.3929 -0.8808
27727SOL     OW87222   9.876   2.885   1.508 -0.5163 -0.3055  0.7025
27727SOL    HW187223   9.889   2.906   1.601 -1.4819 -0.7968  0.9687
27727SOL    HW287224   9.918   2.800   1.496 -1.1238 -0.6477  0.9162
27728SOL     OW87225   6.171   0.994   9.667 -0.1576  0.3418 -0.2957
27728SOL    HW187226   6.249   1.022   9.619 -0.4212 -0.8150 -1.4924
27728SOL    HW287227   6.118   1.073   9.676 -0.0114  0.6453 -1.8177
27729SOL     OW87228   6.819   0.095   5.607 -0.3786 -0.2802  0.7932
27729SOL    HW187229   6.847   0.027   5.546  0.8695  2.7463 -2.3435
27729SOL    HW287230   6.898   0.116   5.657 -0.2615  0.1053  0.4485
27730SOL     OW87231   8.198   9.432   3.491 -0.2764  0.1677 -0.1893
27730SOL    HW187232   8.176   9.525   3.492 -1.2706 -0.0457 -0.6675
27730SOL    HW287233   8.115   9.388   3.510 -0.0873 -0.6604 -1.1829
27731SOL     OW87234   6.739   6.624   6.289  0.3480  0.6982  0.8841
27731SOL    HW187235   6.798   6.549   6.277  0.1879  0.8678 -1.4193
27731SOL    HW287236   6.669   6.591   6.345  0.8956 -0.5192  0.8823
27732SOL     OW87237   3.531   1.219   5.736  0.5892  0.2414 -0.6525
27732SOL    HW187238   3.438   1.231   5.714  0.9571  0.6890 -1.9904
27732SOL    HW287239   3.567   1.170   5.663  0.8962 -2.1940  1.0102
27733SOL     OW87240   6.582   5.114   3.247  0.3475 -0.0906 -0.4018
27733SOL    HW187241   6.583   5.110   3.151 -0.4773 -1.8532 -0.3579
27733SOL    HW287242   6.671   5.140   3.270  0.2748  1.4674 -1.6510
27734SOL     OW87243  10.178   8.440   0.912  0.3086 -0.2186 -0.2514
27734SOL    HW187244  10.198   8.531   0.888  0.0362  0.1245  0.7481
27734SOL    HW287245  10.254   8.412   0.964 -0.1892 -0.1076  0.5528
27735SOL     OW87246   4.358  10.125   8.062  0.1988 -0.1897  0.0706
27735SOL    HW187247   4.362  10.211   8.103  0.5725 -0.4840  0.6748
27735SOL    HW287248   4.287  10.080   8.107 -1.0568  0.3240 -1.3171
27736SOL     OW87249   2.686   7.192   6.195 -0.0761  0.5829 -0.0609
27736SOL    HW187250   2.672   7.165   6.285 -0.4258 -1.1263 -0.5925
27736SOL    HW287251   2.599   7.218   6.164 -0.4986 -1.3481 -0.6468
27737SOL     OW87252   3.751   7.818   9.521 -0.3485  0.3706  0.2275
27737SOL    HW187253   3.706   7.776   9.448 -1.3013 -1.2445  1.6636
27737SOL    HW287254   3.750   7.911   9.499  2.3941 -0.2486 -3.3855
27738SOL     OW87255   4.086   8.141   6.341 -0.3337  0.2710 -0.6103
27738SOL    HW187256   3.990   8.141   6.345 -0.3103  0.1727  0.1376
27738SOL    HW287257   4.108   8.226   6.303 -0.6641  1.3613  1.4461
27739SOL     OW87258   1.531   8.667   6.125  0.1354  0.4244 -0.2718
27739SOL    HW187259   1.587   8.716   6.185 -0.0696 -1.2681  1.3801
27739SOL    HW287260   1.593   8.626   6.064  0.2608  3.3700 -2.3074
27740SOL     OW87261   8.606   7.344   9.619 -0.3036 -0.1107 -0.9007
27740SOL    HW187262   8.685   7.301   9.589 -0.0377 -1.2356  1.2010
27740SOL    HW287263   8.539   7.276   9.619 -0.5499  0.1065 -0.0594
27741SOL     OW87264   2.625   4.082   0.322 -0.2608  0.2076  0.2139
27741SOL    HW187265   2.646   4.119   0.236 -1.1867 -0.2314 -0.2115
27741SOL    HW287266   2.644   4.153   0.384 -0.9699  1.0291 -0.4864
27742SOL     OW87267   7.593   4.370   6.507 -0.2777  0.9758 -0.3350
27742SOL    HW187268   7.665   4.414   6.553 -0.3819  1.1754 -0.3649
27742SOL    HW287269   7.539   4.441   6.473  1.2567  0.9180 -3.1533
27743SOL     OW87270   5.970   7.176   4.905 -0.3438 -0.0959  0.9387
27743SOL    HW187271   6.010   7.097   4.870 -0.6132 -0.9487  2.4455
27743SOL    HW287272   6.038   7.243   4.896 -0.4160 -0.2564 -1.1330
27744SOL     OW87273   8.689   6.520   1.214  0.1851  0.0722  0.3159
27744SOL    HW187274   8.683   6.469   1.295 -0.2379 -2.1264 -1.0184
27744SOL    HW287275   8.783   6.531   1.199  0.2917 -0.5385  0.5186
27745SOL     OW87276   6.943   1.003  10.224  0.2360  0.5025 -0.0513
27745SOL    HW187277   7.003   0.981  10.154  1.8607  0.0670  1.4250
27745SOL    HW287278   6.945   0.928  10.283 -0.4446  1.2118  0.9105
27746SOL     OW87279   1.041   6.456   3.537 -0.1118  0.3939 -0.1797
27746SOL    HW187280   1.032   6.405   3.456 -0.9051  1.9871 -1.1309
27746SOL    HW287281   1.129   6.494   3.532  0.6293 -1.0638  0.7057
27747SOL     OW87282   2.488   3.393   5.162  0.1613 -0.6373  0.5580
27747SOL    HW187283   2.436   3.411   5.240 -1.6625  0.8540 -0.9119
27747SOL    HW287284   2.568   3.445   5.174 -2.3563  4.1891 -0.8017
27748SOL     OW87285   6.096   9.282   9.631 -0.1909 -0.1590 -0.0866
27748SOL    HW187286   6.112   9.375   9.651 -0.0187 -0.2047 -0.0074
27748SOL    HW287287   6.183   9.241   9.639 -0.1970 -0.2554 -0.4885
27749SOL     OW87288   6.950  10.281   5.076 -0.2741 -0.0690  0.3191
27749SOL    HW187289   6.960  10.358   5.132  0.0767  0.1357 -0.0187
27749SOL    HW287290   7.026  10.226   5.097  0.8809  0.8460 -1.2474
27750SOL     OW87291   4.616  10.259   8.201  0.2341 -0.0257  0.0843
27750SOL    HW187292   4.605  10.176   8.247 -2.5533  0.2739  0.1641
27750SOL    HW287293   4.638  10.323   8.269  0.7350 -0.3938  0.2692
27751SOL     OW87294   3.106   6.654   1.986  0.2115  0.0422 -0.2717
27751SOL    HW187295   3.191   6.646   1.944  0.1905 -1.1773 -0.1237
27751SOL    HW287296   3.048   6.687   1.918 -0.0666 -2.9020 -1.6023
27752SOL     OW87297   0.745   9.688   4.742 -0.4200  0.1755  0.0521
27752SOL    HW187298   0.707   9.775   4.755 -0.5632  0.1857 -0.4183
27752SOL    HW287299   0.677   9.639   4.696  0.4017  0.4158 -1.4814
27753SOL     OW87300   9.701   4.425   0.476  0.4435  0.5262 -0.4191
27753SOL    HW187301   9.701   4.491   0.406 -1.8376  1.1869  0.1156
27753SOL    HW287302   9.726   4.474   0.554  1.4235  0.1279 -0.4664
27754SOL     OW87303   7.689   1.609   2.851  1.1744 -0.1363 -0.1680
27754SOL    HW187304   7.718   1.578   2.765 -1.8442  0.0181 -1.3652
27754SOL    HW287305   7.663   1.529   2.898 -3.1893 -0.0662 -1.9291
27755SOL     OW87306   9.365   0.650  10.035  0.0263  0.3479  0.0931
27755SOL    HW187307   9.413   0.567  10.031  0.0090  0.3890 -2.7970
27755SOL    HW287308   9.428   0.715  10.005 -0.5577  1.0914  0.4478
27756SOL     OW87309   3.031   8.944   1.240 -0.0279 -0.7343 -0.2739
27756SOL    HW187310   3.054   8.904   1.324  0.3953 -1.4821 -0.7350
27756SOL    HW287311   3.111   8.935   1.187  0.5527  1.8945  0.0223
27757SOL     OW87312   6.158   8.828   4.121  0.3532 -0.0419  0.0376
27757SOL    HW187313   6.229   8.801   4.062  0.4613  0.8125 -0.2352
27757SOL    HW287314   6.134   8.916   4.092  0.5618  0.4960  1.4094
27758SOL     OW87315   9.955   5.122   7.881  0.2281 -0.0849 -0.3812
27758SOL    HW187316   9.942   5.077   7.965  1.0399 -1.9976 -1.2411
27758SOL    HW287317   9.910   5.206   7.893 -0.6729 -0.7684  1.5631
27759SOL     OW87318   5.667   4.410   0.276  0.3330 -0.0184  0.5614
27759SOL    HW187319   5.612   4.350   0.225  0.2373  0.1346  0.4810
27759SOL    HW287320   5.685   4.363   0.357  1.4973 -0.7534 -0.1044
27760SOL     OW87321   4.664   7.471  10.194 -0.7231  0.0642  0.0675
27760SOL    HW187322   4.632   7.437  10.111 -1.9069  0.0949  0.4899
27760SOL    HW287323   4.589   7.466  10.253 -0.5710  2.1708  0.5171
27761SOL     OW87324   3.223   0.337   2.279  0.5174 -0.0564 -0.1588
27761SOL    HW187325   3.272   0.257   2.258 -2.1781 -2.2198  1.1715
27761SOL    HW287326   3.207   0.330   2.373 -2.6842  0.2425 -0.5923
27762SOL     OW87327   8.819   6.223   1.829 -0.4278  0.3665 -0.3011
27762SOL    HW187328   8.871   6.291   1.872 -1.8211  0.4709  1.3119
27762SOL    HW287329   8.846   6.142   1.872  0.1344  0.0747 -1.1707
27763SOL     OW87330   5.019   5.304   1.794 -0.1352 -0.1534  0.0448
27763SOL    HW187331   5.050   5.359   1.722 -1.1314 -0.3265 -0.5371
27763SOL    HW287332   5.077   5.228   1.792 -0.9227 -0.7645 -1.4277
27764SOL     OW87333   4.559   2.881   6.545  0.4776  0.0907 -0.2498
27764SOL    HW187334   4.569   2.891   6.450 -1.6066  0.6388 -0.4416
27764SOL    HW287335   4.639   2.920   6.582 -0.4363  3.6124 -1.6220
27765SOL     OW87336   2.190   0.998   4.385  0.1968  0.4650  0.1986
27765SOL    HW187337   2.157   1.076   4.341 -0.7228  0.1307  0.2772
27765SOL    HW287338   2.226   1.030   4.468 -1.6297  0.6372  0.9727
27766SOL     OW87339   8.609   9.712   8.071  0.4339 -0.1355  0.5140
27766SOL    HW187340   8.516   9.725   8.051  0.6985 -0.5252 -1.1382
27766SOL    HW287341   8.614   9.626   8.113  0.1742 -0.6676 -0.5206
27767SOL     OW87342   2.290   1.944   4.241  0.3274  0.1629 -0.2608
27767SOL    HW187343   2.255   1.931   4.329 -0.2810  1.9603 -0.1795
27767SOL    HW287344   2.301   2.039   4.234  1.0594 -0.0070 -1.8660
27768SOL     OW87345   0.732   4.788   5.549 -0.7944 -0.3224  0.1786
27768SOL    HW187346   0.753   4.793   5.642 -1.6926  0.3112  0.3550
27768SOL    HW287347   0.802   4.838   5.506 -0.1470 -0.9721  0.4732
27769SOL     OW87348   7.723   7.541   0.868 -0.2948 -0.1762 -0.0787
27769SOL    HW187349   7.680   7.468   0.824 -1.6138  0.3836  0.2541
27769SOL    HW287350   7.755   7.503   0.950 -2.2002 -0.0928  0.7427
27770SOL     OW87351   8.360   7.861  10.252 -0.0422 -0.4472 -0.2756
27770SOL    HW187352   8.409   7.797  10.201  1.0843 -0.0571  0.2947
27770SOL    HW287353   8.385   7.945  10.215 -0.9360 -0.2832 -0.5287
27771SOL     OW87354   1.875   6.743   0.312 -0.1265  0.6059  0.2436
27771SOL    HW187355   1.897   6.706   0.397 -0.5454  1.4763  0.7384
27771SOL    HW287356   1.953   6.791   0.285  0.0809  0.1558  0.0338
27772SOL     OW87357   5.360   6.786   5.723  0.1266  0.0100  0.2411
27772SOL    HW187358   5.296   6.717   5.738 -0.9080  0.7561 -0.5468
27772SOL    HW287359   5.414   6.753   5.651  1.1502 -0.9376  1.3943
27773SOL     OW87360   5.618   8.394   0.093 -0.0191 -0.1169  0.1822
27773SOL    HW187361   5.677   8.331   0.052  1.2074 -0.3254  2.1093
27773SOL    HW287362   5.615   8.468   0.033  3.0359  0.3066  0.4177
27774SOL     OW87363   6.552   1.973   1.736  0.1862 -0.0773 -0.2842
27774SOL    HW187364   6.534   1.964   1.643 -2.3184 -1.7596  0.2462
27774SOL    HW287365   6.500   2.048   1.764 -0.6202 -0.7313  0.0395
27775SOL     OW87366   9.599   7.744   2.787  0.5581 -0.2285  0.2202
27775SOL    HW187367   9.677   7.733   2.733  1.0064 -0.6883  0.9449
27775SOL    HW287368   9.536   7.789   2.730  0.1803 -2.6817 -1.4635
27776SOL     OW87369   6.300   3.351   3.768  0.1933 -0.7088 -0.2501
27776SOL    HW187370   6.243   3.372   3.694  2.2789 -0.9100 -2.0356
27776SOL    HW287371   6.339   3.266   3.745  0.8541 -0.8104  1.1172
27777SOL     OW87372   0.252   5.268  10.139 -0.1842 -0.0822 -0.0878
27777SOL    HW187373   0.280   5.359  10.151  1.2489 -0.5946  0.6847
27777SOL    HW287374   0.288   5.243  10.054  1.3896 -0.5828  0.6821
27778SOL     OW87375   7.745   1.427   0.193 -0.3236 -1.1591 -0.1700
27778SOL    HW187376   7.795   1.502   0.163 -0.1470 -1.3812 -0.4391
27778SOL    HW287377   7.739   1.370   0.117 -2.4239 -0.3898 -0.6426
27779SOL     OW87378   9.212  10.193   1.855 -0.1845  0.2647 -0.2504
27779SOL    HW187379   9.208  10.101   1.829 -0.5468  0.3270 -0.4286
27779SOL    HW287380   9.276  10.195   1.926 -0.7108 -0.2459  0.2498
27780SOL     OW87381   4.784   4.788  10.202  1.1105 -0.0447 -0.0274
27780SOL    HW187382   4.715   4.724  10.222  1.3130 -0.3028 -0.1415
27780SOL    HW287383   4.808   4.768  10.111  0.0148  1.2730 -0.6582
27781SOL     OW87384   4.899   6.351   6.934  0.9686  0.0189  0.1917
27781SOL    HW187385   4.839   6.364   7.007 -0.0593 -0.8989 -0.4731
27781SOL    HW287386   4.892   6.258   6.913 -0.2180  0.5940 -2.2937
27782SOL     OW87387   9.555   7.886   3.170 -0.1137 -0.8529 -0.2168
27782SOL    HW187388   9.625   7.885   3.236  0.7511 -2.2623 -1.1078
27782SOL    HW287389   9.478   7.857   3.218  0.3964 -1.3851  0.3111
27783SOL     OW87390   0.873   0.173   2.581  0.0879 -0.2791  0.5580
27783SOL    HW187391   0.813   0.133   2.644 -0.4881 -2.4541 -1.2277
27783SOL    HW287392   0.818   0.195   2.506  0.9915  0.9012  0.2104
27784SOL     OW87393   9.068   9.842   9.664  0.3838 -0.2090 -0.1046
27784SOL    HW187394   9.114   9.890   9.596  0.9973 -0.3547  0.1951
27784SOL    HW287395   9.039   9.761   9.622  0.3329 -0.0806 -0.3152
27785SOL     OW87396   5.295   9.059   1.585  0.0534 -0.2209 -0.2847
27785SOL    HW187397   5.271   9.129   1.645  1.0704 -0.5438  0.5293
27785SOL    HW287398   5.343   9.104   1.515  1.2153 -0.1292  0.5273
27786SOL     OW87399   6.479   2.256   1.462 -0.3731  0.1569  0.4817
27786SOL    HW187400   6.453   2.265   1.370  0.3045  0.9329  0.3505
27786SOL    HW287401   6.400   2.227   1.507 -0.9631  0.6711 -0.1944
27787SOL     OW87402   1.933   4.615   1.646  0.2001  0.1576  0.2439
27787SOL    HW187403   1.925   4.682   1.578 -0.5219 -0.1817 -0.0114
27787SOL    HW287404   2.005   4.559   1.616  1.0708  1.0294  0.6537
27788SOL     OW87405   5.050   2.628   3.130 -0.3909  0.5437  0.1694
27788SOL    HW187406   5.124   2.665   3.082 -0.1148 -0.7457 -0.4549
27788SOL    HW287407   4.977   2.632   3.068 -0.6179  0.9370  0.4530
27789SOL     OW87408   0.835   5.551   4.575  0.2313  0.4646  0.0544
27789SOL    HW187409   0.801   5.565   4.664 -0.8155 -0.3058 -0.1992
27789SOL    HW287410   0.917   5.599   4.573  0.7016 -0.2005  1.7181
27790SOL     OW87411   2.768   2.869   9.648  0.3944 -0.5359  0.1385
27790SOL    HW187412   2.841   2.806   9.648  0.6067 -0.3419 -1.7879
27790SOL    HW287413   2.690   2.815   9.641  0.5390 -0.6428 -0.7854
27791SOL     OW87414   7.522   5.498   7.549 -0.0383 -0.2340 -0.1919
27791SOL    HW187415   7.469   5.553   7.607 -2.0435 -0.8991 -1.3222
27791SOL    HW287416   7.593   5.467   7.605 -1.6452 -0.5037  1.8245
27792SOL     OW87417   9.487   9.887   4.911 -0.0881 -0.1077  0.3256
27792SOL    HW187418   9.397   9.918   4.900 -0.0679 -0.5991 -1.7230
27792SOL    HW287419   9.479   9.792   4.912  0.3213 -0.1428  1.4122
27793SOL     OW87420   9.799   3.137   8.556 -0.2953  0.4600  0.0775
27793SOL    HW187421   9.859   3.190   8.607 -1.1248  1.8397 -0.3283
27793SOL    HW287422   9.854   3.096   8.489  0.5628 -0.2673  1.1827
27794SOL     OW87423   1.886   8.134   4.885  0.0388  0.3433  0.2021
27794SOL    HW187424   1.914   8.099   4.970 -2.0273 -2.5886 -0.1652
27794SOL    HW287425   1.815   8.195   4.907 -0.0195  0.1304  0.6113
27795SOL     OW87426   9.893   5.628   3.957 -0.3641  0.0093  0.0043
27795SOL    HW187427   9.897   5.700   4.020 -0.0998 -1.8168  2.1891
27795SOL    HW287428   9.972   5.576   3.975 -1.2806 -1.6234 -0.4877
27796SOL     OW87429   7.140  10.071   5.134 -0.2978  0.3840  0.9198
27796SOL    HW187430   7.153   9.981   5.165 -0.4147  0.4583  1.1941
27796SOL    HW287431   7.099  10.062   5.048  0.0746  0.1710  0.7632
27797SOL     OW87432   0.398   6.062   6.743 -0.1393  0.2287  0.4121
27797SOL    HW187433   0.338   6.106   6.803 -2.4778 -1.4191 -0.5783
27797SOL    HW287434   0.420   6.128   6.678 -1.6260  0.6626  0.3117
27798SOL     OW87435   5.867   1.734   3.291 -0.9715 -0.4948  0.1718
27798SOL    HW187436   5.893   1.816   3.332 -1.5906 -0.1603 -0.0805
27798SOL    HW287437   5.837   1.679   3.364 -1.0384 -0.3046  0.2882
27799SOL     OW87438   2.959  10.250   6.263  0.4565  0.2230 -0.0799
27799SOL    HW187439   2.870  10.282   6.253  1.0389  2.5130  1.3598
27799SOL    HW287440   3.004  10.280   6.184  0.0010 -0.8718 -0.7731
27800SOL     OW87441   3.278   1.284   3.260  0.0568 -0.0580  0.0798
27800SOL    HW187442   3.287   1.355   3.324  2.7476  1.3888 -1.7231
27800SOL    HW287443   3.344   1.220   3.286 -0.3318 -0.5033 -0.0172
27801SOL     OW87444   4.000   1.743  10.090  0.0510 -0.1178 -0.0405
27801SOL    HW187445   4.005   1.743   9.994  1.7102 -1.0982  0.0107
27801SOL    HW287446   4.000   1.835  10.115 -0.0559  0.1427 -0.9696
27802SOL     OW87447   5.916   9.270   8.693 -0.7742  0.0473 -0.1264
27802SOL    HW187448   5.979   9.201   8.713 -1.5077 -0.7054 -0.3845
27802SOL    HW287449   5.842   9.253   8.750 -1.5622 -0.2476 -1.1993
27803SOL     OW87450   1.816  10.088   9.097 -0.2255  0.3849  0.2441
27803SOL    HW187451   1.891  10.119   9.147 -0.1140  1.9942 -0.8653
27803SOL    HW287452   1.849  10.012   9.049  0.3263  0.2920  0.7596
27804SOL     OW87453   3.807   5.223   7.097 -0.5138 -0.0514  0.4309
27804SOL    HW187454   3.782   5.216   7.005  1.0900  0.2185 -0.0688
27804SOL    HW287455   3.846   5.138   7.118 -0.0198  0.2041  0.5698
27805SOL     OW87456   9.749   6.322   7.066  0.2360 -0.0609 -0.2047
27805SOL    HW187457   9.822   6.358   7.015 -0.4348  3.0094  0.7995
27805SOL    HW287458   9.696   6.399   7.089 -0.9702 -1.6354  2.7488
27806SOL     OW87459   1.254   3.913   9.289  0.2872  0.0175 -0.0602
27806SOL    HW187460   1.207   3.974   9.345  2.8178  1.3852  0.7718
27806SOL    HW287461   1.330   3.886   9.341  0.3906 -2.2226 -1.2137
27807SOL     OW87462   4.670   4.926   8.803 -0.3319 -0.2537 -0.3273
27807SOL    HW187463   4.665   4.947   8.896  1.3868 -2.1905  0.2945
27807SOL    HW287464   4.586   4.954   8.767 -0.8377  1.0163  1.6829
27808SOL     OW87465   2.525   4.120   2.185 -0.0473 -0.1832 -0.7340
27808SOL    HW187466   2.523   4.033   2.145 -0.2619 -0.6327  0.2072
27808SOL    HW287467   2.448   4.121   2.243 -0.0337  0.6240 -0.7288
27809SOL     OW87468   5.616   5.794   4.520 -0.4548  0.0781 -0.2954
27809SOL    HW187469   5.537   5.820   4.568 -0.6005 -0.6113 -0.1576
27809SOL    HW287470   5.585   5.735   4.452 -0.1734  0.5844 -0.8798
27810SOL     OW87471   4.891   2.104   9.157 -0.4004 -0.1468  0.3319
27810SOL    HW187472   4.814   2.157   9.136 -1.0423 -0.5951  1.4533
27810SOL    HW287473   4.910   2.056   9.077  0.9740  2.6442 -1.1699
27811SOL     OW87474   5.653   4.555   4.710 -0.1069 -0.2459 -0.3961
27811SOL    HW187475   5.714   4.605   4.655  1.1477 -1.7968 -0.4696
27811SOL    HW287476   5.600   4.622   4.754 -0.6710  1.0546 -2.9146
27812SOL     OW87477   6.367   4.584   4.199 -0.3604 -0.6899  0.2525
27812SOL    HW187478   6.312   4.537   4.261 -1.2041  0.0594  0.0990
27812SOL    HW287479   6.308   4.648   4.159  0.3556 -0.6292 -0.7458
27813SOL     OW87480   2.558   6.556   6.287 -0.0621 -0.3666  0.1068
27813SOL    HW187481   2.554   6.562   6.382 -2.0724 -0.4763  0.0611
27813SOL    HW287482   2.505   6.479   6.265  1.1588 -0.9209 -1.0607
27814SOL     OW87483   9.210   2.662   4.261 -0.1761  0.4442 -0.5172
27814SOL    HW187484   9.200   2.746   4.305 -0.4869  0.6432 -0.9664
27814SOL    HW287485   9.300   2.662   4.228  0.1396  0.1927  0.3199
27815SOL     OW87486   9.799   2.863   7.539  0.1055 -0.4960 -0.1813
27815SOL    HW187487   9.874   2.810   7.567  0.1239 -0.8236 -0.8212
27815SOL    HW287488   9.829   2.953   7.546 -0.0241 -0.5406  1.2119
27816SOL     OW87489   3.332   0.460   0.438 -0.0450  0.0619 -0.1330
27816SOL    HW187490   3.358   0.509   0.361  2.9794 -2.6876 -1.0920
27816SOL    HW287491   3.404   0.472   0.500 -1.5463  0.6915  1.5870
27817SOL     OW87492  10.204   3.736   0.757 -0.8244 -0.4920 -0.1207
27817SOL    HW187493  10.210   3.645   0.786 -0.4707  0.2795  2.5036
27817SOL    HW287494  10.293   3.769   0.762 -1.0416  0.1560 -0.4379
27818SOL     OW87495   0.797   3.794   8.687 -0.0691  0.1691  0.1210
27818SOL    HW187496   0.888   3.795   8.658 -0.6662  1.3923 -1.8724
27818SOL    HW287497   0.781   3.882   8.720 -0.5843 -0.0120  0.3668
27819SOL     OW87498   8.602   4.408   2.994 -0.0414 -0.4994  0.4704
27819SOL    HW187499   8.671   4.343   3.006 -0.6430 -1.1071  0.7140
27819SOL    HW287500   8.551   4.404   3.075 -1.6924 -1.6847 -0.5629
27820SOL     OW87501   5.166   4.532   0.931  1.0239 -0.0053  0.3459
27820SOL    HW187502   5.198   4.515   1.020  0.5446  0.8017  0.6796
27820SOL    HW287503   5.187   4.624   0.915 -0.4298  0.3332  0.2843
27821SOL     OW87504   0.806   5.486   5.778  0.7422  0.6585 -0.0633
27821SOL    HW187505   0.807   5.475   5.873  1.8613  0.4663 -0.0910
27821SOL    HW287506   0.852   5.409   5.745 -1.0970 -0.1605 -0.8688
27822SOL     OW87507   6.549   2.191   3.538  0.3865  0.5443 -0.1491
27822SOL    HW187508   6.476   2.156   3.590  2.8228 -1.8386  1.9576
27822SOL    HW287509   6.560   2.129   3.467  1.8591 -0.5534  0.9852
27823SOL     OW87510   6.706   5.937   0.405 -0.5442  0.0314 -0.0721
27823SOL    HW187511   6.778   5.910   0.462  0.1336 -0.7232 -1.2266
27823SOL    HW287512   6.683   6.025   0.435 -0.4744 -0.4790  1.5877
27824SOL     OW87513   1.635   3.746   3.533 -0.4653  0.4681  0.6623
27824SOL    HW187514   1.578   3.750   3.456  0.1391 -0.0853  0.1787
27824SOL    HW287515   1.717   3.709   3.501 -0.8482 -1.7029  1.9389
27825SOL     OW87516   4.762   6.033   0.075  0.6434 -0.2893 -0.2979
27825SOL    HW187517   4.842   6.085   0.083  1.2918 -1.1716 -0.8030
27825SOL    HW287518   4.772   5.963   0.139  0.7846 -1.0129 -1.0829
27826SOL     OW87519   1.180   7.141   9.043 -0.3118  0.2470  0.2304
27826SOL    HW187520   1.147   7.140   9.132 -1.3760 -0.0142 -0.1506
27826SOL    HW287521   1.241   7.067   9.039  0.6648  0.9756  1.0504
27827SOL     OW87522   2.528   7.055   4.816  0.0287 -0.1145 -0.3083
27827SOL    HW187523   2.503   7.117   4.885  2.2187  1.0556 -0.4737
27827SOL    HW287524   2.565   6.981   4.864  0.7524  0.3168 -0.1901
27828SOL     OW87525  10.098   7.299   5.094 -0.5430 -0.4475 -0.3911
27828SOL    HW187526  10.137   7.364   5.153 -0.1379  0.2123 -1.3614
27828SOL    HW287527  10.028   7.346   5.048 -1.1203 -1.0605 -0.1688
27829SOL     OW87528   7.407   2.322   7.988 -0.1410 -0.1885  0.1163
27829SOL    HW187529   7.492   2.319   8.032  0.3123 -1.0512 -0.7532
27829SOL    HW287530   7.368   2.236   8.005 -0.7953  0.1677  0.4280
27830SOL     OW87531   2.628   2.305   9.450  0.1752 -0.4921 -0.1028
27830SOL    HW187532   2.645   2.399   9.451  0.7815 -0.5296 -2.3747
27830SOL    HW287533   2.695   2.268   9.507  1.1748  0.3095 -0.7274
27831SOL     OW87534   9.326   6.637   7.130 -0.1083  0.4553 -0.5088
27831SOL    HW187535   9.308   6.714   7.078  0.4346 -0.3118 -1.8981
27831SOL    HW287536   9.340   6.670   7.219  1.4721  2.1330 -1.3082
27832SOL     OW87537   9.127   8.585   5.120 -0.0692  0.5624 -0.0161
27832SOL    HW187538   9.081   8.568   5.202  1.1409  1.7349  0.9395
27832SOL    HW287539   9.057   8.605   5.057 -1.1272 -1.7291  0.3117
27833SOL     OW87540   0.982   0.851   2.724 -0.2173  0.4980  0.0007
27833SOL    HW187541   0.989   0.770   2.675 -1.3494  0.2792  0.1638
27833SOL    HW287542   0.954   0.824   2.812  1.1966  0.9259  0.6225
27834SOL     OW87543   7.170   4.563   5.111  0.4524 -0.1241  0.0994
27834SOL    HW187544   7.229   4.558   5.036  0.3529 -1.5747  0.0880
27834SOL    HW287545   7.161   4.472   5.141  0.3006  0.3859  1.7256
27835SOL     OW87546   4.090   6.802   9.597  0.1779  0.1878  0.2078
27835SOL    HW187547   4.030   6.826   9.668 -0.5129  2.8606 -1.1521
27835SOL    HW287548   4.036   6.802   9.518  1.6694  1.5016 -0.8956
27836SOL     OW87549   7.926  10.110   7.007 -0.4335  0.6139  0.2715
27836SOL    HW187550   7.965  10.182   7.057  0.5486  0.9753 -0.9714
27836SOL    HW287551   7.915  10.146   6.919 -0.5468 -0.5535 -0.2003
27837SOL     OW87552   2.383   0.871   9.919 -0.2987 -0.4126  0.5368
27837SOL    HW187553   2.289   0.885   9.907  0.1953  4.5955  0.2742
27837SOL    HW287554   2.399   0.894  10.011  0.9599  2.5346 -0.3042
27838SOL     OW87555   8.202   7.660   8.596  0.0124  0.6357  0.5170
27838SOL    HW187556   8.107   7.658   8.587 -0.1050  0.8123  1.6078
27838SOL    HW287557   8.218   7.652   8.690  1.0921  0.1760  0.3156
27839SOL     OW87558   6.423   1.951   8.107  0.2254  0.2372  0.5089
27839SOL    HW187559   6.354   1.889   8.133 -0.5157  1.2397  0.9939
27839SOL    HW287560   6.461   1.912   8.029 -1.6141  0.1493 -0.4126
27840SOL     OW87561   7.771   6.223   1.892  0.0656 -0.1184 -0.0209
27840SOL    HW187562   7.713   6.160   1.849  0.3383  0.2711 -0.9905
27840SOL    HW287563   7.713   6.280   1.942 -0.4740  0.6785 -1.5108
27841SOL     OW87564   5.108   6.287   5.811  0.1511  0.0899 -0.3640
27841SOL    HW187565   5.098   6.194   5.790  1.6877  0.1337 -1.4288
27841SOL    HW287566   5.052   6.332   5.748 -0.6496 -0.0793  0.1961
27842SOL     OW87567   7.745   7.301  10.019 -0.3502  0.0026  0.0506
27842SOL    HW187568   7.753   7.210   9.989  0.6047  0.2665 -0.5674
27842SOL    HW287569   7.824   7.343   9.986  0.1681  0.6167  1.9716
27843SOL     OW87570   9.232   4.565   1.686  0.2673  0.4490 -0.6239
27843SOL    HW187571   9.284   4.490   1.713 -0.2045 -0.2877 -1.6694
27843SOL    HW287572   9.291   4.640   1.696  0.8434 -0.0936  0.1446
27844SOL     OW87573   4.059   0.402   6.174  0.1091  0.7175 -0.4440
27844SOL    HW187574   4.006   0.419   6.252  0.1776  0.0386 -0.2434
27844SOL    HW287575   4.147   0.387   6.208  0.5249  2.1841 -0.8028
27845SOL     OW87576   9.786   3.397   5.429  0.0390 -0.3119  0.0953
27845SOL    HW187577   9.851   3.328   5.442 -0.9212 -1.2004  0.3569
27845SOL    HW287578   9.727   3.390   5.504 -1.0505 -0.3359 -0.7239
27846SOL     OW87579   5.479   9.960   3.994  0.2021  0.4420 -0.4551
27846SOL    HW187580   5.474  10.018   3.918  0.8076  1.4262  0.2322
27846SOL    HW287581   5.571   9.936   3.999  0.4910  1.7040  0.8988
27847SOL     OW87582   6.874   1.077   3.592  0.0143  0.0348  0.6341
27847SOL    HW187583   6.782   1.052   3.586  0.4336 -1.6854  0.9645
27847SOL    HW287584   6.910   1.054   3.506  0.5418 -1.1070  1.1480
27848SOL     OW87585   8.669   8.776   1.781 -0.1668 -0.0626 -0.2535
27848SOL    HW187586   8.705   8.714   1.719  0.8042  0.4393 -0.2085
27848SOL    HW287587   8.597   8.819   1.733  1.4385  1.3030 -1.5650
27849SOL     OW87588   5.344   3.061   2.658  0.2534 -0.6280 -0.0722
27849SOL    HW187589   5.376   3.046   2.747 -0.7917  1.1910  0.6494
27849SOL    HW287590   5.264   3.009   2.653  0.0806 -0.3842  0.1876
27850SOL     OW87591  10.049   5.948   2.858  0.0659  0.6792  0.5214
27850SOL    HW187592  10.135   5.905   2.859  0.6651  1.7763  2.5078
27850SOL    HW287593  10.063   6.030   2.906 -1.6097  1.9311 -1.0009
27851SOL     OW87594   5.031   7.138   0.781 -0.3457  0.0803  0.1795
27851SOL    HW187595   4.985   7.201   0.724  0.7423  1.1547  0.4417
27851SOL    HW287596   5.101   7.103   0.725 -0.0145  0.2491  0.4839
27852SOL     OW87597   1.021   5.778   0.410  0.3521 -0.0265  0.8430
27852SOL    HW187598   1.103   5.807   0.450  0.4167 -0.3210  0.9269
27852SOL    HW287599   0.981   5.858   0.377  1.0748  0.0218  0.0448
27853SOL     OW87600   6.826  10.086   6.022 -0.2796  0.2606 -0.2488
27853SOL    HW187601   6.821  10.181   6.030  1.4670  0.2853  1.8313
27853SOL    HW287602   6.901  10.070   5.965 -1.0781  0.1045 -1.2760
27854SOL     OW87603   7.548   6.659   9.256  0.4201 -0.4603 -0.5743
27854SOL    HW187604   7.587   6.571   9.263  0.2741 -0.3793  1.7923
27854SOL    HW287605   7.622   6.715   9.232  1.0678 -0.8613  0.3956
27855SOL     OW87606   7.217   5.855   9.776  0.0193  0.1442  0.2780
27855SOL    HW187607   7.247   5.934   9.820 -0.4562 -0.2573  1.3407
27855SOL    HW287608   7.292   5.827   9.723  0.8131  0.3009  1.3026
27856SOL     OW87609   8.074   6.450   5.385  0.2292  0.1114 -0.2780
27856SOL    HW187610   8.034   6.441   5.471 -0.0698  3.1025  0.0120
27856SOL    HW287611   8.157   6.402   5.393  0.1002  0.0976  1.5974
27857SOL     OW87612   9.716   7.340   2.299  0.2960 -0.1611  0.3442
27857SOL    HW187613   9.801   7.299   2.287  0.6798  0.3607  1.1981
27857SOL    HW287614   9.654   7.267   2.303  0.4994 -0.5042 -1.6412
27858SOL     OW87615   7.622   3.298   6.227  0.2029  0.0118  0.2923
27858SOL    HW187616   7.702   3.285   6.177  0.1832  1.0658 -0.0432
27858SOL    HW287617   7.591   3.210   6.248  0.4666 -0.4395 -1.1366
27859SOL     OW87618   0.442   3.341   0.098  0.3100 -0.2780  0.4477
27859SOL    HW187619   0.409   3.302   0.017  1.6174 -0.3944 -0.0520
27859SOL    HW287620   0.386   3.417   0.113 -0.8048 -1.0279  0.1837
27860SOL     OW87621   5.085   6.390   0.798  0.3703 -0.6092  0.2680
27860SOL    HW187622   5.029   6.315   0.817 -2.4829  1.6456  1.4818
27860SOL    HW287623   5.060   6.417   0.710 -0.1702  0.1016  0.6235
27861SOL     OW87624   6.819   6.505   8.590 -0.2842  0.5704 -0.0138
27861SOL    HW187625   6.834   6.471   8.502 -0.5179 -0.6649  0.4055
27861SOL    HW287626   6.726   6.529   8.591 -0.3609  0.2763 -0.0051
27862SOL     OW87627   3.022   6.090   3.513  0.4497 -0.3505  0.1007
27862SOL    HW187628   2.987   6.025   3.574  1.7430  0.2537  1.5523
27862SOL    HW287629   3.116   6.073   3.511  1.0639  2.3107  1.6587
27863SOL     OW87630   1.603   2.869   2.164  0.0027 -0.4968  0.0428
27863SOL    HW187631   1.696   2.860   2.184  0.0767  1.2562  0.6604
27863SOL    HW287632   1.568   2.923   2.235 -1.1529  0.2302 -1.0430
27864SOL     OW87633   9.003   9.573   6.125  0.1602  0.3134 -0.5710
27864SOL    HW187634   8.983   9.623   6.204 -1.5492 -1.4878  0.2238
27864SOL    HW287635   8.943   9.608   6.059 -1.5155 -1.0514  0.1664
27865SOL     OW87636   9.528   4.785   9.936  0.0839 -0.0275  0.7308
27865SOL    HW187637   9.598   4.735   9.895 -0.8479 -0.9740  0.2496
27865SOL    HW287638   9.494   4.841   9.866  0.7402  0.8747  1.1171
27866SOL     OW87639   1.909   1.094   1.473  0.1194 -0.4096 -0.1330
27866SOL    HW187640   2.003   1.107   1.466  0.0602  0.3194  0.3356
27866SOL    HW287641   1.879   1.162   1.534 -0.9049  0.2171 -1.2920
27867SOL     OW87642   3.705   6.418   3.943 -0.8864  0.3148  0.1604
27867SOL    HW187643   3.701   6.355   3.871 -0.7456 -0.0070  0.4299
27867SOL    HW287644   3.780   6.389   3.996 -0.3554  1.1586 -0.1224
27868SOL     OW87645   8.509   5.694   0.610 -0.3333 -0.1284 -0.7350
27868SOL    HW187646   8.436   5.737   0.655  1.4429 -0.0054  2.3508
27868SOL    HW287647   8.573   5.765   0.596  0.8864 -0.9220  0.5492
27869SOL     OW87648   9.669   0.823   2.324  0.2144  0.5588  0.6547
27869SOL    HW187649   9.712   0.825   2.409  1.4293  0.5220  0.0610
27869SOL    HW287650   9.652   0.914   2.303 -0.7419  0.5309  1.2383
27870SOL     OW87651   0.358   8.008   7.357 -0.3190 -0.3798 -0.3092
27870SOL    HW187652   0.302   8.079   7.388 -0.1965 -0.7476  0.7962
27870SOL    HW287653   0.301   7.930   7.361 -0.0296 -0.5843 -0.1262
27871SOL     OW87654   8.818  10.290   0.211 -0.2785  0.2059  0.3534
27871SOL    HW187655   8.878  10.346   0.163 -0.8069  0.3794 -0.1172
27871SOL    HW287656   8.733  10.334   0.205 -0.2932  0.4377  1.7783
27872SOL     OW87657   2.801   5.725   6.192 -0.4817 -0.1787 -0.2250
27872SOL    HW187658   2.801   5.745   6.098  0.6336  1.2290  0.0332
27872SOL    HW287659   2.826   5.807   6.234 -0.4712 -0.9146  1.2791
27873SOL     OW87660   3.563   0.953   0.862  0.1399 -0.0232  0.4849
27873SOL    HW187661   3.618   0.996   0.797  0.3432 -0.2415  0.5119
27873SOL    HW287662   3.474   0.971   0.833  0.2122  0.7399  0.7095
27874SOL     OW87663   6.014   9.125   6.765  0.0389 -0.1980  0.3195
27874SOL    HW187664   5.991   9.169   6.846  0.5167  0.0643  0.3164
27874SOL    HW287665   5.936   9.134   6.710 -0.0092  0.3000  0.4633
27875SOL     OW87666   0.765   7.277   0.220 -0.8370 -0.2144  0.1335
27875SOL    HW187667   0.779   7.293   0.313 -0.5411  0.2615  0.0098
27875SOL    HW287668   0.681   7.318   0.200 -0.9452 -0.3973  0.2073
27876SOL     OW87669   6.561   7.435   8.885  0.4561  0.4022 -0.1020
27876SOL    HW187670   6.603   7.507   8.838 -0.3392  1.6696  1.0482
27876SOL    HW287671   6.474   7.427   8.844  0.3595  0.4391  0.0931
27877SOL     OW87672   1.893   8.963   7.274  0.5489  0.1446  0.4034
27877SOL    HW187673   1.831   8.894   7.300 -0.7918  2.0416  2.5440
27877SOL    HW287674   1.936   8.989   7.355  1.3390  1.5557 -0.4328
27878SOL     OW87675   3.045   3.153   8.315  0.0636  0.1250 -0.0926
27878SOL    HW187676   2.954   3.180   8.301 -0.6416 -0.4250  2.7999
27878SOL    HW287677   3.041   3.058   8.317  0.5808  0.1137  0.6330
27879SOL     OW87678   7.845   3.164   9.136  0.4485  0.1497 -0.3492
27879SOL    HW187679   7.860   3.192   9.046  0.3365 -0.8599 -0.6930
27879SOL    HW287680   7.908   3.214   9.188  0.4665  0.7847 -0.9750
27880SOL     OW87681   6.381   6.792   6.868  0.2455  0.0992 -0.2063
27880SOL    HW187682   6.448   6.823   6.928 -0.4943 -0.3915  0.8999
27880SOL    HW287683   6.299   6.800   6.917 -0.4625  0.3299 -1.3916
27881SOL     OW87684   6.373   7.548   8.212 -0.0179 -0.2151  0.2751
27881SOL    HW187685   6.378   7.642   8.228 -1.2789  0.1413 -1.1748
27881SOL    HW287686   6.390   7.539   8.118 -0.8569 -1.3277  0.2143
27882SOL     OW87687   0.342   2.889   2.414  0.2717 -0.4306  0.0870
27882SOL    HW187688   0.342   2.829   2.339  3.0389  1.0249 -1.2214
27882SOL    HW287689   0.250   2.896   2.439 -1.0580  0.2413 -4.2085
27883SOL     OW87690   3.287   1.882   2.939  0.2171  0.0251 -0.2845
27883SOL    HW187691   3.358   1.878   3.004  1.5377  1.8827 -1.5199
27883SOL    HW287692   3.253   1.971   2.946 -0.3827 -0.1094 -1.3442
27884SOL     OW87693   7.055   4.429   5.588 -0.0592 -0.0121 -0.2851
27884SOL    HW187694   6.993   4.493   5.554  0.4923  0.5385 -0.2745
27884SOL    HW287695   7.126   4.481   5.624 -0.4542 -0.5608  1.4262
27885SOL     OW87696   7.603   6.849   1.546  0.2797 -0.1919  0.1528
27885SOL    HW187697   7.638   6.767   1.513  0.7907 -1.1033  2.7387
27885SOL    HW287698   7.681   6.901   1.567  0.0738 -0.5006  1.8277
27886SOL     OW87699   2.045   5.682   4.871 -0.1436 -0.1003 -0.7844
27886SOL    HW187700   2.084   5.689   4.958 -1.1739  1.8770 -0.4141
27886SOL    HW287701   2.111   5.638   4.818  0.3307 -1.7668  1.0734
27887SOL     OW87702   5.509   6.045   0.974  0.0748  0.5620  0.1795
27887SOL    HW187703   5.497   5.950   0.977 -1.4245  0.6954 -0.3625
27887SOL    HW287704   5.602   6.059   0.989  0.1633 -0.9368  1.1778
27888SOL     OW87705   0.685   7.038   4.997  0.3580 -0.9543  0.5139
27888SOL    HW187706   0.690   6.971   4.928  0.1518 -1.1800  0.7162
27888SOL    HW287707   0.737   7.111   4.963 -0.4117 -0.7459 -0.2386
27889SOL     OW87708   9.361   8.243   6.217  0.0724  0.3176 -0.8414
27889SOL    HW187709   9.405   8.179   6.274  0.0641  0.6964 -0.3993
27889SOL    HW287710   9.429   8.271   6.156  0.6033  1.2310  0.1207
27890SOL     OW87711   0.495   6.387   6.009 -0.0889 -0.1163  0.6780
27890SOL    HW187712   0.463   6.436   5.933  1.4874 -1.9368 -1.2921
27890SOL    HW287713   0.438   6.310   6.013 -0.3913  0.1458  1.6049
27891SOL     OW87714   3.678   8.870   0.490  0.3231  0.3871  0.2283
27891SOL    HW187715   3.726   8.947   0.519  1.0254 -0.2606  0.8368
27891SOL    HW287716   3.746   8.804   0.473 -0.0435  0.5967 -2.6210
27892SOL     OW87717   3.089  10.297  10.180  0.6416 -0.2808 -0.3431
27892SOL    HW187718   3.170  10.302  10.231  0.7497  0.0681 -0.5467
27892SOL    HW287719   3.061  10.388  10.170  0.3845 -0.3784 -0.5362
27893SOL     OW87720   3.440   7.232   3.949 -0.2962 -0.8935  0.8230
27893SOL    HW187721   3.527   7.208   3.982  0.8449  1.0664 -0.4991
27893SOL    HW287722   3.411   7.302   4.006  0.5472  0.7368 -0.6354
27894SOL     OW87723   7.225   0.719  10.079  0.3840 -0.2164  0.2285
27894SOL    HW187724   7.307   0.753  10.043  0.5484  0.7387  1.4682
27894SOL    HW287725   7.231   0.734  10.173 -0.7242 -1.2088  0.4907
27895SOL     OW87726   3.539   4.060   9.039  0.3349 -0.3815  0.7721
27895SOL    HW187727   3.539   3.965   9.051 -1.6610 -0.1791  3.5236
27895SOL    HW287728   3.465   4.077   8.980  2.3587 -0.5719 -2.0436
27896SOL     OW87729   7.323   7.792   5.066  0.3143  0.0269 -0.2086
27896SOL    HW187730   7.282   7.772   4.982 -0.4581  0.1377  0.1376
27896SOL    HW287731   7.313   7.886   5.076 -1.9666 -0.2930  1.1954
27897SOL     OW87732   0.758   5.901   1.572  0.2659  1.1176  0.1308
27897SOL    HW187733   0.815   5.889   1.648 -0.1570  2.8227  0.7779
27897SOL    HW287734   0.677   5.936   1.609 -0.3099  1.0189 -1.0129
27898SOL     OW87735   0.857   1.150   9.034 -0.9277 -0.4400 -0.4935
27898SOL    HW187736   0.936   1.169   9.084 -1.9228 -0.0108  0.9854
27898SOL    HW287737   0.888   1.137   8.944  0.4600  3.2118 -0.7166
27899SOL     OW87738   2.943   7.803   2.134 -0.2210 -0.5860  0.0856
27899SOL    HW187739   3.023   7.849   2.109 -0.0894 -1.3462 -0.9782
27899SOL    HW287740   2.905   7.775   2.051 -0.5126 -2.0184  0.6770
27900SOL     OW87741   6.739   2.902   7.398  0.2648  0.2462  0.5839
27900SOL    HW187742   6.644   2.897   7.389  0.3197 -0.8743  0.4139
27900SOL    HW287743   6.770   2.815   7.370  1.2553  0.2351  1.6486
27901SOL     OW87744   7.969   4.519   9.423  0.4070  0.2682 -0.0073
27901SOL    HW187745   7.914   4.544   9.348 -3.0225 -1.4426  1.7163
27901SOL    HW287746   7.991   4.602   9.465 -2.7203  1.0479  0.3478
27902SOL     OW87747   0.692   0.668   6.641  0.0921  0.4927  0.3237
27902SOL    HW187748   0.681   0.627   6.726 -1.0048  0.2902  0.1002
27902SOL    HW287749   0.618   0.637   6.589  0.1140  1.5064 -0.3472
27903SOL     OW87750   6.034   0.701   2.607 -0.6944  0.6897 -0.1985
27903SOL    HW187751   6.089   0.623   2.606  1.6325  2.2140  0.0538
27903SOL    HW287752   6.063   0.750   2.684 -2.3815  1.6230 -0.1123
27904SOL     OW87753   9.510   3.275   5.164  0.2331  0.0235  0.4205
27904SOL    HW187754   9.430   3.258   5.214 -0.2182  0.7578 -0.0358
27904SOL    HW287755   9.483   3.268   5.073  0.5750  0.7637  0.2540
27905SOL     OW87756  10.018   3.251   4.487  0.4128  0.1079  0.1529
27905SOL    HW187757   9.980   3.164   4.471  1.3934 -0.2777 -0.1610
27905SOL    HW287758  10.086   3.235   4.553 -0.6904  0.9719  1.5538
27906SOL     OW87759   4.883   4.197   0.081 -0.1096  0.2551 -0.1097
27906SOL    HW187760   4.824   4.268   0.104 -0.6691 -0.5332  0.9545
27906SOL    HW287761   4.839   4.151   0.010 -0.8998 -0.4488  0.8116
27907SOL     OW87762   8.742   3.696   8.363 -0.2074 -0.0393  0.1635
27907SOL    HW187763   8.782   3.759   8.422  0.7608 -1.1712  0.7614
27907SOL    HW287764   8.726   3.745   8.282  2.2593  0.5196 -0.0516
27908SOL     OW87765   8.371   9.803   1.061 -0.5065  0.5918 -0.1064
27908SOL    HW187766   8.343   9.725   1.110  1.0641  0.1308  0.0976
27908SOL    HW287767   8.325   9.796   0.977  0.2386 -1.0321 -0.4259
27909SOL     OW87768   5.310   3.109   0.765 -0.5604  0.2274  0.0732
27909SOL    HW187769   5.376   3.057   0.811 -0.1202 -0.2893 -1.0995
27909SOL    HW287770   5.228   3.087   0.809 -0.3860 -1.4684 -0.3766
27910SOL     OW87771   6.523   9.461   5.536  0.6906  0.5596  0.3682
27910SOL    HW187772   6.601   9.463   5.591 -0.1291  0.3902  1.5791
27910SOL    HW287773   6.476   9.542   5.557 -1.2629 -0.9675  2.4630
27911SOL     OW87774   0.333   1.706   9.884 -0.0497  0.6355  0.0436
27911SOL    HW187775   0.296   1.709   9.972  0.1442  0.1764  0.1474
27911SOL    HW287776   0.400   1.775   9.883  1.6842 -0.9386  1.0784
27912SOL     OW87777   1.026   2.561   6.311 -0.0390  0.4984 -0.1176
27912SOL    HW187778   0.989   2.566   6.399 -1.3208 -1.7684 -0.4501
27912SOL    HW287779   0.950   2.555   6.253  0.8004  0.7782 -1.3006
27913SOL     OW87780   9.873   0.772   9.882 -0.2471  0.2708 -0.0957
27913SOL    HW187781   9.917   0.774   9.797 -0.4813  1.3801 -0.2026
27913SOL    HW287782   9.944   0.759   9.945  0.0530  0.5028 -0.3826
27914SOL     OW87783   4.978   8.761   2.980  0.0084 -0.3999  0.1601
27914SOL    HW187784   5.016   8.818   2.914 -0.7052 -0.3400 -0.2132
27914SOL    HW287785   4.883   8.778   2.975 -0.0495 -0.2515  1.3287
27915SOL     OW87786   4.977   5.159   7.054 -0.4249 -0.1271  0.5438
27915SOL    HW187787   5.057   5.195   7.092 -0.5548  1.8724 -0.8989
27915SOL    HW287788   4.906   5.208   7.096 -0.8341 -1.0741  0.9802
27916SOL     OW87789   9.339   9.399   1.591 -0.5098 -0.6515  0.6223
27916SOL    HW187790   9.351   9.485   1.549  0.9177 -2.5993 -3.4563
27916SOL    HW287791   9.414   9.390   1.650 -0.1655  0.4824  0.3813
27917SOL     OW87792   3.313   6.506   3.069 -0.6854 -0.1245  0.4115
27917SOL    HW187793   3.228   6.468   3.093 -0.9184  0.1810  0.0730
27917SOL    HW287794   3.321   6.491   2.975  0.6455 -2.1387  0.7887
27918SOL     OW87795   4.857   9.960   1.936  0.1080  0.1557  0.4746
27918SOL    HW187796   4.830  10.032   1.879  1.8547 -0.2218 -0.9364
27918SOL    HW287797   4.824   9.882   1.892  0.9538 -0.1002  0.2773
27919SOL     OW87798   1.776   1.158   4.747  0.5957  0.0545  0.3741
27919SOL    HW187799   1.808   1.243   4.777  2.4932 -0.5586  0.2047
27919SOL    HW287800   1.838   1.094   4.783  0.2420 -1.1029 -0.9731
27920SOL     OW87801   1.997   9.071   7.483 -0.2847  0.6575 -0.2997
27920SOL    HW187802   1.959   9.092   7.568 -0.1678  0.5919 -0.2314
27920SOL    HW287803   2.040   9.152   7.455  1.8250 -0.0128  0.8358
27921SOL     OW87804   6.030   2.600   0.864  0.2545  0.5462 -0.1293
27921SOL    HW187805   6.079   2.517   0.856 -1.0037 -0.2244 -0.1254
27921SOL    HW287806   5.969   2.598   0.790 -1.3601  0.3644  1.1643
27922SOL     OW87807   3.797   4.250   4.666  0.2353  0.3771 -0.1002
27922SOL    HW187808   3.877   4.278   4.711 -0.3744  4.3655 -1.0499
27922SOL    HW287809   3.809   4.279   4.576 -1.3946 -0.9975 -0.8199
27923SOL     OW87810   0.407   1.495   2.075 -0.4498  0.4773  0.6019
27923SOL    HW187811   0.331   1.447   2.109  1.5273 -2.5100  1.1685
27923SOL    HW287812   0.381   1.519   1.986 -2.6078  0.9998  1.2904
27924SOL     OW87813   0.957   9.215   2.887 -0.6383 -0.0466  0.0854
27924SOL    HW187814   0.991   9.133   2.852  1.1483  0.8434 -0.3853
27924SOL    HW287815   0.987   9.216   2.978 -0.7506  0.0343  0.1222
27925SOL     OW87816   4.504   7.716   8.477  0.6635 -0.1184 -0.0651
27925SOL    HW187817   4.443   7.788   8.492 -0.8333 -1.1887 -0.7066
27925SOL    HW287818   4.587   7.747   8.513 -0.3816  1.1577  1.4070
27926SOL     OW87819   9.252   7.980   8.594  0.6274 -0.0611  0.3645
27926SOL    HW187820   9.199   8.049   8.634  1.3323 -0.5717  2.2585
27926SOL    HW287821   9.192   7.906   8.587  0.5306 -0.0036  0.5733
27927SOL     OW87822   2.269   7.872   4.481  0.1689  0.5121 -0.2534
27927SOL    HW187823   2.299   7.893   4.570 -1.1647 -1.3492  0.6846
27927SOL    HW287824   2.231   7.954   4.449 -0.3484  0.9332  1.3276
27928SOL     OW87825   1.168   4.761   4.437  0.1142  0.0956  0.1027
27928SOL    HW187826   1.173   4.691   4.502  1.2688  0.1464  0.0928
27928SOL    HW287827   1.102   4.731   4.374  1.6507 -1.7245 -0.7406
27929SOL     OW87828   1.875   0.267   1.000  0.4176  0.0865 -0.3267
27929SOL    HW187829   1.813   0.256   0.927  0.6137  0.4268 -0.5483
27929SOL    HW287830   1.820   0.277   1.077  0.2138 -1.0236 -0.3160
27930SOL     OW87831   1.878   8.844   3.843  0.0433  0.4429 -0.1288
27930SOL    HW187832   1.792   8.821   3.879  1.7107 -2.6851  2.4381
27930SOL    HW287833   1.887   8.787   3.767 -0.1935  0.9186 -0.5196
27931SOL     OW87834   1.772   7.907   0.665  0.1454 -0.0157  0.0845
27931SOL    HW187835   1.806   7.818   0.677 -0.0884  0.0884  1.8397
27931SOL    HW287836   1.850   7.961   0.660  0.3285 -0.0176  2.0259
27932SOL     OW87837   4.345   6.874   8.108 -0.2883  0.2199 -0.2428
27932SOL    HW187838   4.356   6.793   8.059  0.8405 -0.1783  0.6318
27932SOL    HW287839   4.261   6.862   8.154  0.3591 -0.9139  0.6943
27933SOL     OW87840   2.056   8.634   4.357 -0.1729  0.1593  0.2751
27933SOL    HW187841   2.117   8.565   4.384 -1.0818 -0.1565  1.6176
27933SOL    HW287842   2.112   8.701   4.318  0.9263 -0.5089  0.6456
27934SOL     OW87843   9.272   6.073   1.065  0.1076  0.2765  0.3282
27934SOL    HW187844   9.269   6.067   0.969 -0.1008 -1.3861  0.4091
27934SOL    HW287845   9.244   6.162   1.084 -1.4081  0.1579 -1.0978
27935SOL     OW87846   0.095   1.413  10.179  0.3787  0.5602  0.1472
27935SOL    HW187847   0.185   1.441  10.164 -0.0266  1.0856 -1.5322
27935SOL    HW287848   0.049   1.493  10.202  0.2343  0.3712  0.5258
27936SOL     OW87849   1.936   5.955   9.956  0.1884  0.1438  0.3187
27936SOL    HW187850   2.013   5.936   9.902 -0.3389 -0.3025 -0.2994
27936SOL    HW287851   1.954   5.912  10.040  0.5012 -0.1751  0.0893
27937SOL     OW87852   4.235   9.309   8.336  0.1021 -0.2230 -0.5800
27937SOL    HW187853   4.203   9.237   8.281  0.3644  0.7510 -2.0276
27937SOL    HW287854   4.229   9.386   8.281  1.8513  0.5352  0.2354
27938SOL     OW87855   6.737   5.218   1.545 -0.2783 -0.0092  0.3546
27938SOL    HW187856   6.655   5.262   1.568 -0.3723  0.0108 -0.0117
27938SOL    HW287857   6.793   5.288   1.512 -0.0119  0.0220  0.8679
27939SOL     OW87858   1.217   5.280   7.031  0.0000  0.3531  0.4007
27939SOL    HW187859   1.181   5.236   6.954  1.1160  1.8821 -1.0739
27939SOL    HW287860   1.188   5.371   7.022  1.5600  0.9224  0.8911
27940SOL     OW87861   4.733   4.813   6.384 -0.3580  0.0845  0.0174
27940SOL    HW187862   4.791   4.815   6.460 -0.5407 -0.0131  0.1565
27940SOL    HW287863   4.678   4.736   6.396 -3.1343  2.1655  1.8179
27941SOL     OW87864   2.106   4.651   2.434 -0.3793 -0.6741 -0.2456
27941SOL    HW187865   2.068   4.596   2.365 -2.6770  1.4764 -0.8420
27941SOL    HW287866   2.137   4.729   2.388  1.6535 -0.8219  0.7378
27942SOL     OW87867   4.344   0.071   9.393  0.2812  0.7410 -0.5043
27942SOL    HW187868   4.376   0.138   9.333 -1.4913  0.4068 -1.8777
27942SOL    HW287869   4.418   0.011   9.403  0.4920  0.5339 -2.7782
27943SOL     OW87870   4.671   3.980   1.373 -0.2937 -0.5932 -0.4585
27943SOL    HW187871   4.636   3.992   1.285 -1.6661 -0.5360  0.0791
27943SOL    HW287872   4.612   3.918   1.415 -0.5091  0.4641  0.8891
27944SOL     OW87873  10.152   3.328   3.173 -0.1339 -0.3653  0.1412
27944SOL    HW187874  10.088   3.321   3.102 -0.5211 -0.0544  0.4587
27944SOL    HW287875  10.186   3.417   3.166  1.6767 -1.1027 -1.2254
27945SOL     OW87876   1.761   6.303   5.589 -0.5108 -0.2981  0.1327
27945SOL    HW187877   1.805   6.221   5.613  0.7165  0.5570  0.8775
27945SOL    HW287878   1.793   6.321   5.500  0.3473  0.1015  0.5114
27946SOL     OW87879   5.058   1.555   3.141  0.5944  0.2961 -0.0089
27946SOL    HW187880   5.047   1.649   3.132  1.1847  0.2145 -2.4476
27946SOL    HW287881   4.969   1.523   3.159  0.3170  1.2734  0.4301
27947SOL     OW87882   5.416   2.661   0.150  0.2696  0.0566  0.8137
27947SOL    HW187883   5.451   2.749   0.159  1.0605 -0.2516  0.8272
27947SOL    HW287884   5.463   2.624   0.076  0.5547 -0.6430  1.3313
27948SOL     OW87885   1.395   9.956   4.139  0.3979 -0.8798 -0.1099
27948SOL    HW187886   1.351   9.936   4.222  2.6732 -1.2240  1.0800
27948SOL    HW287887   1.362   9.889   4.079 -1.6990 -0.3096  0.3012
27949SOL     OW87888   6.777   1.984   9.538 -0.0485 -0.1675  0.8855
27949SOL    HW187889   6.868   1.978   9.510  0.5988  0.5389  2.6998
27949SOL    HW287890   6.764   1.909   9.596 -0.4521  0.0550  1.0885
27950SOL     OW87891   8.423   4.745   3.221 -0.4228  0.8962  0.0335
27950SOL    HW187892   8.510   4.758   3.259  0.5512 -1.1964 -1.3561
27950SOL    HW287893   8.382   4.680   3.278 -0.0829 -0.0360 -0.7731
27951SOL     OW87894   9.459   0.167   6.791  0.0297 -0.2968  0.0713
27951SOL    HW187895   9.481   0.085   6.748 -0.3123 -0.7301  0.7039
27951SOL    HW287896   9.532   0.226   6.770 -0.9481  0.1056 -2.6038
27952SOL     OW87897   4.905   2.983   5.885 -0.2713 -0.1159  0.2589
27952SOL    HW187898   4.870   2.905   5.927  1.5291 -1.9582 -1.4249
27952SOL    HW287899   4.982   2.952   5.836 -0.8412  2.2593 -2.4430
27953SOL     OW87900   0.725   9.769   2.706 -0.9406 -0.0076 -1.0343
27953SOL    HW187901   0.721   9.705   2.777 -1.2056  0.8714 -0.2302
27953SOL    HW287902   0.800   9.825   2.728  0.5625 -1.2194 -2.7917
27954SOL     OW87903   3.144   3.406   8.173 -0.4484 -0.2181 -0.1227
27954SOL    HW187904   3.126   3.373   8.262  1.5042 -1.6115 -0.1748
27954SOL    HW287905   3.059   3.433   8.140 -1.0419  2.0340  2.7949
27955SOL     OW87906   7.011   1.772   8.656  0.3482  0.2910 -0.2287
27955SOL    HW187907   6.999   1.858   8.616  0.7733 -0.7890 -2.8928
27955SOL    HW287908   6.962   1.712   8.600  2.4970 -1.6130 -0.2359
27956SOL     OW87909   0.815   5.493   9.059 -0.0858 -0.0419  0.2281
27956SOL    HW187910   0.731   5.472   9.019 -0.6091  0.2059  1.1717
27956SOL    HW287911   0.841   5.411   9.102 -0.0928  0.0344  0.3749
27957SOL     OW87912   8.508   8.525   7.423  0.1317  0.3817  0.6001
27957SOL    HW187913   8.450   8.568   7.360 -0.7138 -0.1565  0.9872
27957SOL    HW287914   8.493   8.573   7.505  2.2855  2.0228  0.1399
27958SOL     OW87915   8.529   6.683   4.834 -0.7104  0.2871 -0.1350
27958SOL    HW187916   8.562   6.771   4.816 -0.2438  0.0103 -0.6746
27958SOL    HW287917   8.526   6.677   4.930 -2.2343  1.4211 -0.0722
27959SOL     OW87918   8.517   6.550   8.779  0.0255  0.0008  0.2116
27959SOL    HW187919   8.503   6.632   8.824  2.1149  0.4100  0.2237
27959SOL    HW287920   8.571   6.498   8.839  0.7865 -0.3982 -0.7837
27960SOL     OW87921   7.528   4.999   7.478 -0.0691 -0.6484  0.0349
27960SOL    HW187922   7.466   4.944   7.526  0.0857 -2.0481 -1.2914
27960SOL    HW287923   7.614   4.967   7.504  0.1683  0.9145  1.4274
27961SOL     OW87924   1.427   2.234   2.008 -0.2109  0.5894 -0.2523
27961SOL    HW187925   1.464   2.169   2.067 -3.4316 -0.6393  0.6248
27961SOL    HW287926   1.399   2.184   1.931  2.7126  1.9767 -2.4163
27962SOL     OW87927   3.586   1.286   6.572  0.1735 -0.2382 -0.0277
27962SOL    HW187928   3.595   1.375   6.538 -2.2762 -0.4449 -1.4455
27962SOL    HW287929   3.635   1.287   6.654  0.8685  2.1669 -0.3744
27963SOL     OW87930   9.833   0.874   1.767 -0.1067 -0.2298  0.4659
27963SOL    HW187931   9.791   0.788   1.772  0.2864 -0.4480  0.0925
27963SOL    HW287932   9.918   0.861   1.808 -0.0779 -0.0001  0.4765
27964SOL     OW87933   9.493   1.938   2.355  0.4567 -0.1124  0.2994
27964SOL    HW187934   9.499   1.933   2.260 -2.0408 -1.8631  0.1502
27964SOL    HW287935   9.429   2.007   2.373 -0.6325 -1.1752  0.5968
27965SOL     OW87936   6.593   7.205   8.703  0.0479  0.0008  0.9050
27965SOL    HW187937   6.613   7.133   8.763  2.8017 -0.7594 -0.7576
27965SOL    HW287938   6.677   7.227   8.663 -1.4392  1.2555 -1.8090
27966SOL     OW87939   9.465   3.654   4.777 -0.1079  0.1398 -0.3529
27966SOL    HW187940   9.460   3.698   4.862  1.0408 -1.2059  0.4628
27966SOL    HW287941   9.429   3.717   4.715 -0.2055  1.4878  1.0126
27967SOL     OW87942   7.713   2.963   5.056 -0.1950  0.0072 -0.9117
27967SOL    HW187943   7.759   2.907   5.117 -2.2496 -0.5229  0.2486
27967SOL    HW287944   7.782   3.004   5.003  1.4261 -2.7721 -1.1197
27968SOL     OW87945   7.391   6.736   3.470 -0.1260  0.2967  0.1599
27968SOL    HW187946   7.299   6.741   3.497  0.0574 -1.4858  1.3242
27968SOL    HW287947   7.387   6.704   3.380 -0.6479  1.1598 -0.1353
27969SOL     OW87948   2.570   4.470   2.158  0.0618  0.3463  0.5039
27969SOL    HW187949   2.592   4.377   2.161  1.9433  0.7633  0.8771
27969SOL    HW287950   2.479   4.474   2.189 -0.7641 -1.5360 -1.3830
27970SOL     OW87951   4.952   9.366   1.455  0.1975 -0.0406 -0.2161
27970SOL    HW187952   4.886   9.344   1.389 -0.5288 -0.2920  0.5791
27970SOL    HW287953   5.004   9.286   1.464  2.3230  0.9144 -2.7151
27971SOL     OW87954   8.895  10.205   3.181 -0.0240 -0.6745 -0.7015
27971SOL    HW187955   8.877  10.136   3.245 -0.7892 -2.1545 -2.3907
27971SOL    HW287956   8.990  10.215   3.181 -0.0659 -0.0063  1.2505
27972SOL     OW87957   4.254   5.079   4.486 -0.1204  0.3310 -0.1071
27972SOL    HW187958   4.242   5.155   4.429  0.2633  0.5493  0.1029
27972SOL    HW287959   4.321   5.106   4.549  0.2109 -0.2776 -0.1937
27973SOL     OW87960   3.590   6.301   7.325 -0.4299 -0.2983  0.3854
27973SOL    HW187961   3.600   6.339   7.412 -2.3270  0.5043  0.3108
27973SOL    HW287962   3.564   6.376   7.270  3.3712 -0.1556 -1.5573
27974SOL     OW87963   9.920   2.191   0.360 -0.3113  0.3668 -0.0707
27974SOL    HW187964   9.964   2.274   0.378  0.2980  0.0607 -0.1258
27974SOL    HW287965   9.911   2.149   0.445 -0.2255  0.2937 -0.0979
27975SOL     OW87966   4.838   0.978   4.741 -0.1352 -0.0026  0.0442
27975SOL    HW187967   4.753   1.022   4.738 -0.4059 -0.4148  1.2013
27975SOL    HW287968   4.817   0.885   4.744  0.3928 -0.1527 -0.5958
27976SOL     OW87969   6.071   0.080   4.788  0.1897 -0.2859  0.9512
27976SOL    HW187970   6.080   0.127   4.706  0.9638 -1.3914  0.3772
27976SOL    HW287971   5.984   0.105   4.821  0.3618  1.0913  0.4210
27977SOL     OW87972   6.791   5.218   8.484 -0.1804  0.4020 -0.0940
27977SOL    HW187973   6.875   5.236   8.525  0.2157 -1.4779 -0.0032
27977SOL    HW287974   6.738   5.178   8.554 -0.2977 -0.6479 -0.7569
27978SOL     OW87975   3.768   0.362   7.300 -0.3545  0.4565  0.2659
27978SOL    HW187976   3.723   0.347   7.217  2.4492 -1.5185 -1.0672
27978SOL    HW287977   3.755   0.281   7.349 -1.9181  1.5799  1.8044
27979SOL     OW87978   1.219   3.103   5.086  0.4878 -0.6632 -0.1646
27979SOL    HW187979   1.155   3.146   5.144  2.2442  0.1736  1.2470
27979SOL    HW287980   1.234   3.167   5.016  1.4093  0.1451  0.7235
27980SOL     OW87981   7.070   1.551   4.573 -0.2986 -0.1933  0.0500
27980SOL    HW187982   7.047   1.541   4.481 -0.4583 -0.6646  0.1392
27980SOL    HW287983   7.139   1.486   4.589  0.9862  1.0663 -0.1599
27981SOL     OW87984   8.829   1.590   4.849  0.4156 -0.8113  0.2570
27981SOL    HW187985   8.772   1.647   4.901  0.3247  0.8569 -1.5538
27981SOL    HW287986   8.828   1.629   4.762  1.4914 -2.8276 -0.7152
27982SOL     OW87987   2.683   7.260   2.184 -0.0788 -0.0985  0.0609
27982SOL    HW187988   2.629   7.181   2.176  0.5257 -0.4882 -0.2938
27982SOL    HW287989   2.704   7.284   2.094 -1.7200  1.5253  0.0536
27983SOL     OW87990   4.477   0.377   0.884 -0.1352  0.2392 -0.4566
27983SOL    HW187991   4.480   0.461   0.839 -0.4446  0.5888  0.1546
27983SOL    HW287992   4.546   0.325   0.843 -0.5165  0.4803 -1.4368
27984SOL     OW87993   3.066  10.056   6.416  0.1624  0.2197  0.3589
27984SOL    HW187994   3.049  10.080   6.508  0.7856  1.8901  0.0787
27984SOL    HW287995   3.024  10.126   6.366  2.3435  0.9841 -0.5222
27985SOL     OW87996   9.393   3.738   1.407 -0.2332  0.1943  0.6998
27985SOL    HW187997   9.484   3.725   1.378 -0.2107  1.1486  0.2909
27985SOL    HW287998   9.400   3.802   1.478 -0.6580  1.0664 -0.0179
27986SOL     OW87999   1.999   1.819   9.212 -0.5422  0.4199  0.4215
27986SOL    HW188000   2.076   1.800   9.158 -0.3876 -1.1418  1.1066
27986SOL    HW288001   1.981   1.735   9.256 -1.3802  1.3085  1.8343
27987SOL     OW88002   1.002   7.565   2.280 -0.1253  0.2329 -0.2637
27987SOL    HW188003   0.977   7.653   2.253 -0.2883  0.1309 -0.4529
27987SOL    HW288004   0.977   7.559   2.372 -0.7905  0.1364 -0.4457
27988SOL     OW88005   7.169   9.732   7.564  0.2409  0.2480  0.2667
27988SOL    HW188006   7.127   9.686   7.491  0.4610  1.2438 -0.5152
27988SOL    HW288007   7.098   9.777   7.609  0.4068  2.0881 -1.1671
27989SOL     OW88008   6.266   5.323   2.630  0.2386  0.1997  0.0809
27989SOL    HW188009   6.358   5.322   2.604  0.8202 -0.1470  1.9752
27989SOL    HW288010   6.257   5.246   2.687 -1.3200  0.0470 -0.3130
27990SOL     OW88011   7.763   8.647   4.879  0.1116 -0.4203  0.0690
27990SOL    HW188012   7.709   8.704   4.824  0.8051 -0.5383 -0.7371
27990SOL    HW288013   7.701   8.612   4.944 -0.4209  0.8761  0.2990
27991SOL     OW88014   2.686   2.752   0.588  0.4528 -0.0061 -0.0901
27991SOL    HW188015   2.762   2.720   0.539 -1.9231 -2.3900 -2.5362
27991SOL    HW288016   2.641   2.810   0.527 -0.5652  0.0774  0.7180
27992SOL     OW88017   0.140   4.060   4.004 -0.0115 -0.0002 -0.4774
27992SOL    HW188018   0.099   4.078   3.920  0.6911 -0.8593 -1.0201
27992SOL    HW288019   0.194   3.982   3.989 -1.8870 -1.8064  1.4240
27993SOL     OW88020   9.109   6.966   7.960 -0.2258  0.1001 -0.3434
27993SOL    HW188021   9.111   6.879   7.919 -1.0627  0.6098 -1.5230
27993SOL    HW288022   9.192   7.006   7.936  0.7765 -0.8369  1.3506
27994SOL     OW88023   0.053   1.946   8.607 -0.3830 -0.1138  0.4290
27994SOL    HW188024   0.114   1.975   8.674  0.3484  0.1207 -0.3243
27994SOL    HW288025   0.108   1.930   8.530 -1.3471  0.6775 -0.4437
27995SOL     OW88026   9.364   5.905  10.250  0.5280 -0.4799  0.0944
27995SOL    HW188027   9.427   5.978  10.255 -1.1037  1.1332 -1.4177
27995SOL    HW288028   9.300   5.924  10.318  0.0023 -0.3901 -0.4190
27996SOL     OW88029   2.390   8.366   5.003 -0.1130  0.5904  0.1254
27996SOL    HW188030   2.415   8.301   5.069  2.0640  2.0231  0.8345
27996SOL    HW288031   2.380   8.316   4.922  0.9286 -0.7195  0.7565
27997SOL     OW88032   4.663   7.254   0.651 -0.1183 -0.0540  0.0798
27997SOL    HW188033   4.752   7.262   0.617  0.0578  0.3081  0.6146
27997SOL    HW288034   4.607   7.279   0.578  0.2104 -0.5374 -0.3405
27998SOL     OW88035   2.930   4.787   5.234 -0.0277 -0.2794  0.3021
27998SOL    HW188036   2.948   4.739   5.315 -1.1537  1.0442  1.3848
27998SOL    HW288037   2.919   4.719   5.168  0.9751 -1.3926  1.2260
27999SOL     OW88038   8.100   1.728   0.042  0.2059  0.0305 -0.0782
27999SOL    HW188039   8.191   1.705   0.026  0.3316  0.0430  0.5985
27999SOL    HW288040   8.087   1.810  -0.007  0.0755 -0.8302 -1.5437
28000SOL     OW88041   7.439   5.547   1.690 -0.2052 -0.2512  0.3211
28000SOL    HW188042   7.449   5.456   1.662  2.2155  0.2830 -0.8282
28000SOL    HW288043   7.355   5.575   1.653  0.8074 -0.9137 -2.7475
28001SOL     OW88044   5.146   9.253   1.721  0.2622  0.4531 -0.0646
28001SOL    HW188045   5.137   9.347   1.704  0.3357  0.6686  0.9836
28001SOL    HW288046   5.108   9.241   1.808  2.6305 -0.0194  0.9645
28002SOL     OW88047   2.158   8.534   3.379  0.4997  0.2405  0.1667
28002SOL    HW188048   2.149   8.550   3.285 -0.1702 -0.3914  0.1230
28002SOL    HW288049   2.077   8.491   3.404  1.5364 -1.5121  0.6346
28003SOL     OW88050   8.643   9.883   9.803 -0.0629 -0.3731 -0.0615
28003SOL    HW188051   8.583   9.856   9.734  0.3782 -0.2867 -0.4923
28003SOL    HW288052   8.683   9.964   9.769  0.7002 -0.7254 -0.0404
28004SOL     OW88053   8.050   3.231   0.247  0.7683  0.3061  0.7232
28004SOL    HW188054   8.107   3.185   0.185  1.4889  1.1254  0.7471
28004SOL    HW288055   8.012   3.162   0.301 -1.4408 -0.6316 -1.8386
28005SOL     OW88056   5.803   2.666   9.063  0.1443  0.3675  0.5141
28005SOL    HW188057   5.793   2.623   8.978 -0.4689  0.4624  0.5337
28005SOL    HW288058   5.724   2.718   9.073 -0.1469 -0.2455  1.4835
28006SOL     OW88059   8.143   0.463   1.567 -0.1950 -0.2867  0.1665
28006SOL    HW188060   8.190   0.461   1.484 -2.4897  1.9906 -1.3509
28006SOL    HW288061   8.179   0.540   1.612 -0.7173 -0.0194  0.1275
28007SOL     OW88062   6.803   9.174   9.819 -0.2191 -0.3294 -0.2525
28007SOL    HW188063   6.712   9.148   9.829  0.1229 -1.5111 -0.0985
28007SOL    HW288064   6.844   9.103   9.770  0.6998  0.0096 -0.0143
28008SOL     OW88065   5.439   9.094   7.663  0.3214 -0.1975 -0.6031
28008SOL    HW188066   5.369   9.135   7.712 -0.7527 -0.7515 -1.6079
28008SOL    HW288067   5.514   9.152   7.673 -0.1425  0.1785  0.8580
28009SOL     OW88068   3.183   4.890   2.707 -0.3935  0.0650  0.3629
28009SOL    HW188069   3.231   4.841   2.774 -0.6117 -0.4741  0.1232
28009SOL    HW288070   3.181   4.832   2.631  1.0892  1.2160 -0.6175
28010SOL     OW88071   1.153   0.143   2.825 -0.0899 -0.0063 -0.4039
28010SOL    HW188072   1.090   0.071   2.832 -1.6155  1.3270  0.1633
28010SOL    HW288073   1.117   0.201   2.758  0.1956  1.1029  0.3758
28011SOL     OW88074   8.647   0.068   2.857  0.1881  0.2061 -0.3111
28011SOL    HW188075   8.601   0.007   2.801 -0.8623  1.5950 -1.0102
28011SOL    HW288076   8.694   0.126   2.796 -0.3042  1.2193  0.2500
28012SOL     OW88077   9.012   9.143   9.190  0.1632 -0.5913 -0.4486
28012SOL    HW188078   9.063   9.062   9.201 -0.2063 -0.6571  1.0706
28012SOL    HW288079   8.935   9.130   9.245  0.9601  1.4928  1.3176
28013SOL     OW88080   0.552   6.540   4.899 -0.4673  0.6411 -0.4224
28013SOL    HW188081   0.531   6.457   4.940 -1.0867  0.7038 -0.6090
28013SOL    HW288082   0.468   6.584   4.888 -0.0795  1.5778  0.2797
28014SOL     OW88083   9.677   6.583   7.923 -0.0720 -0.7318  0.0805
28014SOL    HW188084   9.723   6.555   7.844  0.6711 -2.5805  1.1106
28014SOL    HW288085   9.586   6.558   7.908  0.1480 -1.4786 -0.0186
28015SOL     OW88086   5.786   6.552   5.318 -0.1976  0.2140 -0.2953
28015SOL    HW188087   5.859   6.589   5.368 -1.6559  2.1290  0.5853
28015SOL    HW288088   5.718   6.536   5.384 -0.3783 -2.2371 -0.9767
28016SOL     OW88089   9.775   1.976   2.473 -0.1922 -0.3201  0.3448
28016SOL    HW188090   9.790   1.953   2.564  0.7893  0.0010  0.2742
28016SOL    HW288091   9.680   1.980   2.464 -0.3103 -1.0743  1.1680
28017SOL     OW88092   5.889   2.332   3.929 -0.3549 -0.3077  0.9779
28017SOL    HW188093   5.946   2.255   3.925 -1.5945 -1.2316  0.2046
28017SOL    HW288094   5.948   2.406   3.923  0.7215 -1.2427 -0.7655
28018SOL     OW88095   3.048   5.844   0.283 -0.2867  0.5836  0.4329
28018SOL    HW188096   3.001   5.766   0.254 -1.9878  0.8233  2.3613
28018SOL    HW288097   3.138   5.813   0.297 -0.3716 -0.4474 -1.0408
28019SOL     OW88098   6.785   3.922   1.410 -0.3713  0.5406 -0.5758
28019SOL    HW188099   6.725   3.935   1.336 -0.9620 -1.3438 -0.4862
28019SOL    HW288100   6.796   3.827   1.416  0.5510  0.7031  1.0764
28020SOL     OW88101   5.748   7.021   6.574  0.4295  0.2840  0.1966
28020SOL    HW188102   5.725   6.957   6.641 -0.2186 -1.2601 -1.3881
28020SOL    HW288103   5.839   7.001   6.551 -0.0917 -0.8197 -1.0230
28021SOL     OW88104   5.986  10.187   4.445  0.3230  0.5096  0.0944
28021SOL    HW188105   6.056  10.218   4.388 -0.5670  0.0940 -1.2708
28021SOL    HW288106   6.029  10.128   4.507  1.5764  2.2234  0.9301
28022SOL     OW88107   5.466   0.312   1.526  0.6378  0.0715 -0.2291
28022SOL    HW188108   5.398   0.273   1.580  1.9926 -1.6205  0.3537
28022SOL    HW288109   5.535   0.246   1.524  2.2249  1.6791 -0.8620
28023SOL     OW88110   0.479   6.307   4.975  0.0186  0.3816  0.3716
28023SOL    HW188111   0.452   6.277   5.061 -0.2144  0.1996  0.2374
28023SOL    HW288112   0.492   6.227   4.924  6.3587 -0.0902  1.8935
28024SOL     OW88113   0.367   4.384   9.028  0.0472 -0.0450  0.2655
28024SOL    HW188114   0.361   4.479   9.018  1.0683  0.1266  1.1820
28024SOL    HW288115   0.309   4.364   9.102 -0.0379 -0.1174  0.1801
28025SOL     OW88116   3.038   3.788   3.954 -0.2828  0.3676  0.3152
28025SOL    HW188117   3.081   3.848   3.893 -0.2749  0.3524  0.3056
28025SOL    HW288118   3.053   3.701   3.916 -0.5898  0.3852  0.1478
28026SOL     OW88119   4.008   7.158   6.535  0.4548  0.0575  0.2373
28026SOL    HW188120   4.043   7.229   6.482 -0.0414  0.5652  0.5718
28026SOL    HW288121   3.915   7.179   6.546  0.4917 -0.1644  1.0826
28027SOL     OW88122   0.068   8.522   1.277  0.4249 -0.4663 -0.5132
28027SOL    HW188123   0.046   8.455   1.213 -0.8881  0.6927 -1.3472
28027SOL    HW288124  -0.008   8.581   1.277  1.4025  0.8645  0.3791
28028SOL     OW88125   1.830   2.412   8.192  0.2041  0.2423 -0.1109
28028SOL    HW188126   1.909   2.423   8.138  0.3689 -0.5773 -0.0442
28028SOL    HW288127   1.859   2.434   8.280  0.4054 -0.2241 -0.0584
28029SOL     OW88128   6.338   1.412   4.189 -0.2723 -0.1403 -0.0628
28029SOL    HW188129   6.393   1.398   4.112 -0.6002  3.7896 -1.2316
28029SOL    HW288130   6.399   1.437   4.258 -0.1313 -2.0162  0.5367
28030SOL     OW88131   6.204   7.943   7.678  0.4224 -0.4141 -0.3012
28030SOL    HW188132   6.171   7.855   7.698  0.0877 -0.3846 -0.7140
28030SOL    HW288133   6.125   7.997   7.675  0.5539 -0.2502 -0.8150
28031SOL     OW88134   8.522   2.637   1.943  0.0089  0.1991 -0.5288
28031SOL    HW188135   8.495   2.551   1.976  0.7552 -0.1265 -0.7482
28031SOL    HW288136   8.446   2.669   1.894 -0.6757  0.1616  0.4676
28032SOL     OW88137   1.307   5.758   9.822  0.3061 -0.0893  0.5310
28032SOL    HW188138   1.238   5.692   9.829 -0.5526  0.5420 -1.2533
28032SOL    HW288139   1.286   5.822   9.889 -1.2163  0.3730 -0.3287
28033SOL     OW88140   6.080   6.302   5.883  0.2967  0.2504  0.1378
28033SOL    HW188141   6.164   6.259   5.867  1.5941  2.0692  1.4963
28033SOL    HW288142   6.059   6.281   5.974 -1.3184 -1.0730 -0.5039
28034SOL     OW88143   0.611   9.416   4.711 -0.8949 -0.1129 -0.1876
28034SOL    HW188144   0.617   9.397   4.617  0.9923  0.8957 -0.3122
28034SOL    HW288145   0.626   9.331   4.752  0.8601 -0.1434 -0.8037
28035SOL     OW88146   3.537   4.828   1.242  0.8456  0.1161 -0.7178
28035SOL    HW188147   3.532   4.732   1.236  2.3332  0.0003 -0.3858
28035SOL    HW288148   3.461   4.852   1.295 -0.0334 -0.7893 -1.5106
28036SOL     OW88149   8.320   8.633   6.845  0.3000  0.3840 -0.0583
28036SOL    HW188150   8.409   8.629   6.882  0.2800  2.8223  0.4191
28036SOL    HW288151   8.262   8.616   6.919  0.3413  1.0053  0.1211
28037SOL     OW88152   7.072   4.407   8.594 -0.7108  0.6048 -0.0006
28037SOL    HW188153   7.028   4.386   8.512  1.7673  0.6647 -1.4643
28037SOL    HW288154   7.036   4.492   8.620 -0.7295  1.1528 -1.6917
28038SOL     OW88155   7.923   9.518   9.879 -0.0100 -0.3430 -0.1645
28038SOL    HW188156   7.979   9.486   9.950 -0.7003 -0.3522  0.3881
28038SOL    HW288157   7.953   9.469   9.802 -1.3634 -2.7868  0.7375
28039SOL     OW88158   3.072  10.260   9.436 -0.3043  0.1523 -0.1138
28039SOL    HW188159   3.127  10.328   9.397  2.9407 -1.0393  1.9397
28039SOL    HW288160   3.039  10.299   9.517 -1.8039  0.5555 -0.8956
28040SOL     OW88161   2.782   3.085   7.882 -0.3049  0.0005  0.4338
28040SOL    HW188162   2.857   3.114   7.829 -0.0989  0.0358  0.7404
28040SOL    HW288163   2.768   2.994   7.855  0.4229 -0.2966  1.0069
28041SOL     OW88164   0.439   1.904   1.107 -0.1825  0.7057  0.3482
28041SOL    HW188165   0.367   1.900   1.043  0.6057  4.0999 -1.0019
28041SOL    HW288166   0.513   1.863   1.063 -0.3658  0.5460  0.1880
28042SOL     OW88167   6.911   7.973   7.516  0.6122  0.0692 -0.2057
28042SOL    HW188168   6.892   8.062   7.486  0.0771 -0.4036 -1.3084
28042SOL    HW288169   6.999   7.955   7.482  0.0466 -0.4291 -1.4379
28043SOL     OW88170   1.030   9.841   0.769 -0.0261  0.0872 -0.4938
28043SOL    HW188171   1.016   9.830   0.675  0.5433  0.4151 -0.6238
28043SOL    HW288172   0.991   9.764   0.809  1.7450 -1.2299 -1.1856
28044SOL     OW88173   3.412   9.543   7.710  0.1315 -0.3099 -0.2101
28044SOL    HW188174   3.405   9.555   7.616 -0.6192  1.3546  0.0300
28044SOL    HW288175   3.418   9.631   7.746 -0.3008 -0.8744  1.3575
28045SOL     OW88176   7.386   1.762   6.436  0.4021 -0.0231 -0.1683
28045SOL    HW188177   7.368   1.669   6.449 -1.2115  0.2699 -0.1598
28045SOL    HW288178   7.459   1.781   6.495 -0.9980 -0.6953  1.8725
28046SOL     OW88179   7.952   8.885   3.586 -0.0633 -0.1870 -0.3436
28046SOL    HW188180   7.895   8.836   3.526  0.2139  0.0367 -0.8022
28046SOL    HW288181   8.032   8.898   3.536  0.6262 -1.0275  0.5171
28047SOL     OW88182   8.318   7.131   7.904  0.5400  0.3142 -0.1439
28047SOL    HW188183   8.321   7.093   7.816 -0.5021 -0.8042  0.2753
28047SOL    HW288184   8.228   7.164   7.912 -0.6729 -3.0143  1.8163
28048SOL     OW88185   8.650   6.724   9.262  0.3638  0.1445 -0.2372
28048SOL    HW188186   8.593   6.650   9.242  1.4488 -0.7940  0.0857
28048SOL    HW288187   8.713   6.726   9.191  0.2542  0.8638 -0.3207
28049SOL     OW88188   3.731   7.238   5.010  0.2728 -0.2317  0.0657
28049SOL    HW188189   3.777   7.194   4.939 -0.4185 -1.4783  0.3652
28049SOL    HW288190   3.652   7.185   5.025 -0.5899  1.0991  0.4579
28050SOL     OW88191   4.340   1.729   6.078  0.0028 -0.3436 -0.8021
28050SOL    HW188192   4.370   1.785   6.006  0.7582 -1.0910 -1.0858
28050SOL    HW288193   4.246   1.719   6.063  0.2090 -0.7539 -1.8790
28051SOL     OW88194   8.202   5.660   4.380 -0.3768 -0.0747  0.7823
28051SOL    HW188195   8.202   5.613   4.296  0.7129  0.0678  0.6946
28051SOL    HW288196   8.294   5.673   4.401 -0.6277  2.2937  0.6731
28052SOL     OW88197   6.287   5.620   9.882 -0.0809 -0.2034  0.0575
28052SOL    HW188198   6.282   5.583   9.970  0.3345 -1.1560 -0.3057
28052SOL    HW288199   6.366   5.675   9.884 -0.8587  0.9317  0.6807
28053SOL     OW88200   9.584   8.547   6.320  0.6280  0.5061  0.0916
28053SOL    HW188201   9.603   8.619   6.381  1.6479 -1.4422  2.2274
28053SOL    HW288202   9.624   8.575   6.238  0.8826  2.4220  0.7968
28054SOL     OW88203   2.580   5.336   4.287 -0.7594  0.5646  0.5759
28054SOL    HW188204   2.562   5.328   4.381  0.6077 -0.6911  0.7737
28054SOL    HW288205   2.676   5.342   4.282 -0.7831  0.1108 -0.7633
28055SOL     OW88206   4.943   8.943   4.570 -0.4348  0.4948 -0.0764
28055SOL    HW188207   5.008   8.931   4.639 -0.3133 -0.7775 -0.3812
28055SOL    HW288208   4.942   9.037   4.553  1.6168  0.5156 -0.3406
28056SOL     OW88209   3.772   3.874   9.928 -0.8812 -0.4094  0.5243
28056SOL    HW188210   3.706   3.926   9.974 -1.0379 -2.1179  2.3926
28056SOL    HW288211   3.724   3.799   9.893 -0.5421  0.2539 -1.4899
28057SOL     OW88212   7.513   3.701   5.146  1.3371  0.3946  0.3100
28057SOL    HW188213   7.600   3.661   5.140  0.7071 -1.1548  0.9864
28057SOL    HW288214   7.459   3.649   5.087  0.8392  1.2848 -0.0262
28058SOL     OW88215   0.636   3.958   6.482  0.1352  0.0789 -0.3224
28058SOL    HW188216   0.702   3.890   6.474  0.3851  0.2310  0.3626
28058SOL    HW288217   0.628   3.973   6.577 -0.4563  0.4693 -0.4285
28059SOL     OW88218   8.548   1.518   1.579  0.4910 -0.9452  0.0756
28059SOL    HW188219   8.464   1.481   1.553 -0.1852 -0.1754  1.1148
28059SOL    HW288220   8.612   1.449   1.559 -0.3892 -1.5952 -0.5765
28060SOL     OW88221   6.420   2.843   2.295 -0.1160 -0.1777 -0.3877
28060SOL    HW188222   6.362   2.912   2.263 -0.2610  0.2250  0.6967
28060SOL    HW288223   6.508   2.869   2.266 -0.1636  0.4947  0.0653
28061SOL     OW88224   5.816   2.875   1.774  0.1285  0.0861  0.1492
28061SOL    HW188225   5.819   2.892   1.868 -0.1142  4.2669 -0.4297
28061SOL    HW288226   5.743   2.928   1.742 -0.5265 -2.0753 -2.3470
28062SOL     OW88227   2.555   7.060  10.020  0.4082 -0.2722 -0.7209
28062SOL    HW188228   2.637   7.069  10.069 -0.0433  0.2418 -0.0365
28062SOL    HW288229   2.530   7.150  10.000 -0.8226 -0.3117  0.4995
28063SOL     OW88230   1.493   3.332   3.531  0.3111  0.3378 -0.0584
28063SOL    HW188231   1.466   3.340   3.439  0.9707 -0.3321 -0.3171
28063SOL    HW288232   1.570   3.276   3.528 -0.5772 -1.0045  1.0677
28064SOL     OW88233   6.860   6.178   3.015 -0.3494  0.2796  0.1095
28064SOL    HW188234   6.906   6.100   3.047 -2.2760 -0.5751  0.9637
28064SOL    HW288235   6.843   6.160   2.923 -0.4010 -0.1198  0.1952
28065SOL     OW88236   7.612   9.116  10.217  0.1387  0.6580  0.4818
28065SOL    HW188237   7.533   9.156  10.254 -0.8880 -1.5383  0.8095
28065SOL    HW288238   7.647   9.062  10.288 -0.0838 -1.1513 -0.7268
28066SOL     OW88239   8.283   8.942   2.670  0.5421  0.1901 -0.1568
28066SOL    HW188240   8.368   8.898   2.679  0.7142  0.0306 -2.1269
28066SOL    HW288241   8.294   9.024   2.719  0.8512 -1.0451  1.9526
28067SOL     OW88242   8.759   2.835   8.376  0.2031 -0.0545  0.0269
28067SOL    HW188243   8.782   2.853   8.467 -1.5655 -0.7029  0.6496
28067SOL    HW288244   8.732   2.920   8.341  0.4432  0.1151  0.2483
28068SOL     OW88245   4.406   4.173   6.091  0.1486 -0.0663  0.3733
28068SOL    HW188246   4.390   4.169   5.996  0.9002 -2.5248  0.2759
28068SOL    HW288247   4.502   4.180   6.098  0.0738  0.4017  0.9669
28069SOL     OW88248   8.060   9.948   0.329 -0.0227 -0.5346 -0.1014
28069SOL    HW188249   7.980   9.908   0.296  1.2492 -1.2494 -2.5087
28069SOL    HW288250   8.092   9.887   0.396 -0.4159 -1.2824 -0.5859
28070SOL     OW88251   8.040   7.817   9.282  0.1166  0.0038  0.4097
28070SOL    HW188252   8.114   7.874   9.300 -0.6158  2.3628 -3.0083
28070SOL    HW288253   8.078   7.741   9.238  0.6328  0.9511 -0.8480
28071SOL     OW88254   5.277   4.414   1.181  0.0827 -0.0156  0.3201
28071SOL    HW188255   5.247   4.465   1.256  0.2673  1.0379 -0.2964
28071SOL    HW288256   5.369   4.438   1.170  0.1438 -0.3982 -0.0487
28072SOL     OW88257   9.043   6.760   8.407 -0.0084 -0.4196  0.0279
28072SOL    HW188258   9.045   6.830   8.341  0.8760 -1.0303 -0.6116
28072SOL    HW288259   9.121   6.707   8.388 -0.2039 -1.0844  1.0446
28073SOL     OW88260   7.820   1.835   1.430 -0.4569 -0.1078 -0.1988
28073SOL    HW188261   7.794   1.772   1.496  0.1659 -1.8502 -1.5298
28073SOL    HW288262   7.795   1.795   1.347  1.4295  0.6068 -1.1872
28074SOL     OW88263   0.631   1.084   1.449 -0.1990 -0.4448 -0.1695
28074SOL    HW188264   0.651   1.170   1.487 -0.3221 -0.5943  0.2395
28074SOL    HW288265   0.680   1.022   1.504 -0.2933 -0.6532 -0.3219
28075SOL     OW88266   8.583   6.732   8.221  0.1656  0.3553 -0.2769
28075SOL    HW188267   8.616   6.788   8.291 -0.9716  1.4218 -0.5617
28075SOL    HW288268   8.498   6.770   8.198 -0.7809 -1.6807 -0.2840
28076SOL     OW88269   1.359   6.893   9.971 -0.0827  0.3651  0.6929
28076SOL    HW188270   1.421   6.957  10.005 -0.7633  1.0738  0.6174
28076SOL    HW288271   1.294   6.883  10.041 -0.4567  0.4148  0.3549
28077SOL     OW88272   9.167   6.948   1.002 -0.2464 -0.1394 -0.1624
28077SOL    HW188273   9.140   6.878   0.941  2.9068 -0.7639 -0.9943
28077SOL    HW288274   9.121   6.927   1.083 -0.6004 -2.3078 -0.8454
28078SOL     OW88275   8.960   7.382   7.409  0.1238 -0.0853  0.3790
28078SOL    HW188276   8.883   7.327   7.423 -0.2657  0.3670  0.0246
28078SOL    HW288277   8.965   7.393   7.314  1.2270 -0.9578  0.3084
28079SOL     OW88278   2.979   1.992   5.903 -0.2139  0.1583 -0.3166
28079SOL    HW188279   2.915   2.022   5.838  0.6445  1.8524 -0.4199
28079SOL    HW288280   3.054   1.963   5.851  0.2709  1.0272 -0.1168
28080SOL     OW88281   3.395  10.137   7.928 -0.2345 -0.1806 -0.8383
28080SOL    HW188282   3.428  10.227   7.929  0.4258 -0.4070 -1.4019
28080SOL    HW288283   3.457  10.088   7.982 -0.6947 -0.2692 -0.3817
28081SOL     OW88284   7.963   3.536   3.791  0.0762  0.1389 -0.1546
28081SOL    HW188285   8.042   3.531   3.845 -0.4520  0.6269  0.6834
28081SOL    HW288286   7.985   3.598   3.722  0.3101  0.5218  0.2618
28082SOL     OW88287   4.231   9.020   2.431 -0.4039  0.1919 -0.0133
28082SOL    HW188288   4.198   9.033   2.342 -2.1124  1.2132  0.7200
28082SOL    HW288289   4.236   9.108   2.468 -0.3841 -0.2678  1.1133
28083SOL     OW88290   5.540   6.917   3.149 -0.4436 -0.4068  0.5198
28083SOL    HW188291   5.525   6.823   3.134 -0.1861 -0.3711  0.0243
28083SOL    HW288292   5.631   6.922   3.176  1.1560  0.1439 -4.1307
28084SOL     OW88293   0.714   7.077   0.838 -0.0049 -0.0743 -0.1287
28084SOL    HW188294   0.655   7.006   0.812 -2.7027  2.1039 -0.4749
28084SOL    HW288295   0.695   7.147   0.776 -0.1435  2.1964  2.3148
28085SOL     OW88296   1.013   7.268   0.448  0.1006 -0.4404  0.0071
28085SOL    HW188297   0.965   7.190   0.419  1.0000 -1.7239  1.7250
28085SOL    HW288298   0.945   7.331   0.472 -0.6549 -0.7784 -1.1628
28086SOL     OW88299   6.770   4.591   0.154  0.2714  0.1535  0.4471
28086SOL    HW188300   6.825   4.514   0.136 -0.4903 -0.5780  1.1104
28086SOL    HW288301   6.681   4.560   0.141  0.0197  1.7157 -2.0256
28087SOL     OW88302   5.149   0.292   3.318 -0.3624  0.0601  0.1053
28087SOL    HW188303   5.122   0.242   3.241 -0.6502 -0.9001  0.8158
28087SOL    HW288304   5.204   0.232   3.368  0.9814  1.1192 -0.0081
28088SOL     OW88305   9.563   9.754   8.116 -0.1323  0.7369  0.0037
28088SOL    HW188306   9.589   9.842   8.142  0.8960  0.5579 -0.3628
28088SOL    HW288307   9.645   9.706   8.105 -0.6722 -0.3241  0.3740
28089SOL     OW88308   1.389   7.977   9.447  0.0784 -0.5009 -0.0354
28089SOL    HW188309   1.424   8.061   9.478 -1.4168 -0.8081  2.8024
28089SOL    HW288310   1.347   7.939   9.523 -1.0558 -2.9523 -1.7555
28090SOL     OW88311   1.621  10.156   0.344  0.7331 -0.0828  0.3498
28090SOL    HW188312   1.653  10.081   0.294  0.8546 -0.5809  1.1694
28090SOL    HW288313   1.566  10.118   0.412  0.6047  0.5891  0.6269
28091SOL     OW88314   3.552   1.120   2.457 -0.1680 -0.2504 -0.4752
28091SOL    HW188315   3.556   1.209   2.422 -1.1124 -0.8200 -2.1177
28091SOL    HW288316   3.490   1.074   2.400  0.3845 -2.0003  0.2684
28092SOL     OW88317   5.889   8.826   2.964 -0.2990 -0.4133 -0.0545
28092SOL    HW188318   5.903   8.890   2.895 -0.0275  0.2629  0.6170
28092SOL    HW288319   5.956   8.759   2.949 -0.1968 -0.2326 -0.4039
28093SOL     OW88320   0.789   1.995   5.460 -0.0212  0.5514 -0.0092
28093SOL    HW188321   0.786   1.933   5.387 -1.7278  0.3463  0.1960
28093SOL    HW288322   0.844   1.953   5.525 -2.5776 -1.6892  0.8813
28094SOL     OW88323   4.087   8.821   2.022  0.1439 -0.3310 -0.1660
28094SOL    HW188324   4.169   8.801   1.976 -0.0094  1.5643 -1.3482
28094SOL    HW288325   4.020   8.777   1.971  0.2888 -0.8945  0.1191
28095SOL     OW88326   8.401   0.890   9.929 -0.1016  0.3809 -0.1622
28095SOL    HW188327   8.310   0.916   9.914  0.3207  2.5953  0.7000
28095SOL    HW288328   8.453   0.961   9.891  1.3072 -0.9554 -0.8558
28096SOL     OW88329   4.716   0.779   6.035 -0.1769  0.0674 -0.5926
28096SOL    HW188330   4.683   0.844   5.972 -0.0779  0.2823 -0.4227
28096SOL    HW288331   4.804   0.810   6.057  0.2131 -0.5886 -1.1663
28097SOL     OW88332   5.399   6.815   8.249  0.3616 -0.3682 -0.5296
28097SOL    HW188333   5.347   6.808   8.328 -1.6341 -0.2085 -1.7720
28097SOL    HW288334   5.476   6.865   8.276 -0.6264  0.3477  1.1272
28098SOL     OW88335   5.738   4.777   0.020 -0.0670  0.5280 -0.5272
28098SOL    HW188336   5.742   4.703  -0.040 -0.3246 -0.1246  0.2428
28098SOL    HW288337   5.646   4.803   0.020 -0.2296 -0.0307  0.2394
28099SOL     OW88338   7.755   0.074   0.456 -0.2218 -0.0674 -0.0410
28099SOL    HW188339   7.761   0.075   0.361  1.8120  0.1794  0.0486
28099SOL    HW288340   7.790  -0.011   0.481  0.4079  0.3491  0.5300
28100SOL     OW88341   1.691   9.768   2.286  0.2574  0.1620 -0.0034
28100SOL    HW188342   1.739   9.733   2.211  0.4775  0.4126  0.0198
28100SOL    HW288343   1.623   9.823   2.247  0.0685 -0.0855 -0.0314
28101SOL     OW88344   4.495  10.061   2.579 -0.0575  0.5786  0.8561
28101SOL    HW188345   4.553  10.122   2.535  1.3449 -0.7900  0.7260
28101SOL    HW288346   4.515   9.976   2.539  0.8353 -0.6328  3.6355
28102SOL     OW88347   0.396   8.272   5.641 -0.5157  0.4772 -0.6679
28102SOL    HW188348   0.441   8.346   5.601 -2.2953  2.0851  0.1646
28102SOL    HW288349   0.439   8.260   5.726 -1.2024  1.5991 -0.1430
28103SOL     OW88350   8.647   2.154   9.360  0.8698  0.0564  0.1043
28103SOL    HW188351   8.673   2.204   9.283 -1.8908 -0.3597 -1.2197
28103SOL    HW288352   8.615   2.071   9.326 -1.6877  0.3579  1.4503
28104SOL     OW88353   6.700   8.679   2.243 -0.0298 -0.0231 -0.3088
28104SOL    HW188354   6.779   8.626   2.244  0.8515  1.2608  1.1838
28104SOL    HW288355   6.730   8.767   2.223 -1.1984  0.3213 -0.6203
28105SOL     OW88356   7.712   3.953   5.012  0.4787 -0.2165 -0.0571
28105SOL    HW188357   7.688   4.045   5.006  1.3635  0.1574  1.5746
28105SOL    HW288358   7.687   3.928   5.101  2.2662 -0.9297  0.2781
28106SOL     OW88359   5.845   7.276   1.018 -0.2068  0.2599 -0.0342
28106SOL    HW188360   5.913   7.343   1.026 -1.4794  1.6701 -0.5129
28106SOL    HW288361   5.821   7.278   0.925  0.8623 -2.0691 -0.4310
28107SOL     OW88362   8.757   5.507   3.077  0.4160 -0.8661 -0.0349
28107SOL    HW188363   8.753   5.421   3.034 -0.0823 -1.3428  0.9352
28107SOL    HW288364   8.724   5.568   3.011 -2.4920 -1.8695  0.3387
28108SOL     OW88365  10.288   9.529  10.293 -0.2656  0.3767  0.1780
28108SOL    HW188366  10.316   9.482  10.371 -0.0951  1.9558  1.1247
28108SOL    HW288367  10.256   9.613  10.326  0.5580  1.4073 -1.4996
28109SOL     OW88368   6.925   6.733   5.523  0.2793  0.4408  0.6738
28109SOL    HW188369   6.962   6.657   5.567 -0.8308 -0.2404  0.4525
28109SOL    HW288370   6.880   6.782   5.591  1.0437  0.9569  0.8284
28110SOL     OW88371   7.265  10.001   9.772  0.4567  0.1818 -0.4988
28110SOL    HW188372   7.292   9.932   9.833 -0.7804  0.9408  0.9544
28110SOL    HW288373   7.221   9.954   9.701 -0.1605 -0.5504  0.3517
28111SOL     OW88374   0.832   3.648   8.416  0.0867  0.1635 -0.3555
28111SOL    HW188375   0.784   3.730   8.433  0.1150 -0.1883  1.7511
28111SOL    HW288376   0.903   3.674   8.358 -1.2048  1.1694 -1.5905
28112SOL     OW88377   2.887   2.998   1.700 -0.1268 -0.0604 -0.3000
28112SOL    HW188378   2.923   3.063   1.640  0.3331 -0.4048 -0.4079
28112SOL    HW288379   2.964   2.951   1.733 -0.3166  0.4787  0.9867
28113SOL     OW88380   5.256   4.516   4.346  0.2461  0.0899 -0.1010
28113SOL    HW188381   5.179   4.496   4.400 -0.7907  0.2195 -1.4627
28113SOL    HW288382   5.323   4.454   4.374 -1.8056 -3.2615 -1.9680
28114SOL     OW88383   2.310   5.846   0.400  0.1797  0.0461  0.1741
28114SOL    HW188384   2.396   5.806   0.417  1.1206  1.4132 -1.0938
28114SOL    HW288385   2.319   5.935   0.434  0.5900  1.4039 -3.1552
28115SOL     OW88386   2.524   6.355   0.647  0.6487  0.1657 -0.3512
28115SOL    HW188387   2.437   6.389   0.626 -0.9377 -2.2196  1.8006
28115SOL    HW288388   2.538   6.284   0.585  0.0036 -0.9368  0.7354
28116SOL     OW88389   4.159   4.921   6.892  0.4103  0.8278 -0.1626
28116SOL    HW188390   4.144   4.982   6.820  1.5260  0.9915 -0.2707
28116SOL    HW288391   4.072   4.886   6.912  0.1663  0.2652 -2.0313
28117SOL     OW88392   7.557   0.866   9.487  0.4107 -0.1624  0.7706
28117SOL    HW188393   7.517   0.896   9.568  0.2971  0.7174  0.4058
28117SOL    HW288394   7.649   0.850   9.510  0.1986 -0.6816  1.2508
28118SOL     OW88395   8.992   2.724   5.717  0.3529  0.3135 -0.3725
28118SOL    HW188396   9.034   2.722   5.803 -0.5421  0.3252  0.0758
28118SOL    HW288397   8.914   2.671   5.727 -1.0003  2.1819 -0.5002
28119SOL     OW88398   3.029   7.665   9.693 -0.0511  0.3669  0.3496
28119SOL    HW188399   2.946   7.687   9.736  1.1680 -0.6837  3.5154
28119SOL    HW288400   3.004   7.632   9.607 -2.8314  0.8589  0.8878
28120SOL     OW88401   3.525   7.001   4.729  0.5314 -0.0312  0.3612
28120SOL    HW188402   3.609   6.998   4.684 -0.7505 -0.5690 -2.1733
28120SOL    HW288403   3.531   6.933   4.796  2.3902  0.5425  0.8350
28121SOL     OW88404   1.546   4.786   6.018  0.2036  0.2316  0.4924
28121SOL    HW188405   1.581   4.863   5.973 -0.2011  0.7316  1.0086
28121SOL    HW288406   1.598   4.713   5.986  1.2724  0.8667  0.7356
28122SOL     OW88407   3.043   1.537   4.643 -0.1066 -0.8516  0.6188
28122SOL    HW188408   3.064   1.625   4.674  0.8915 -0.4525 -1.0593
28122SOL    HW288409   3.113   1.482   4.679 -0.7728 -1.0201  1.7323
28123SOL     OW88410   7.048   0.308   0.863 -0.6879  0.0365 -0.2433
28123SOL    HW188411   6.972   0.296   0.919 -0.3615 -0.1500  0.1679
28123SOL    HW288412   7.042   0.239   0.798 -1.1758  0.3746 -0.5649
28124SOL     OW88413   0.392   8.025   0.772  0.1702  0.1550 -0.8800
28124SOL    HW188414   0.438   7.975   0.840  1.7178  1.0497 -1.2040
28124SOL    HW288415   0.420   7.985   0.689  0.1180  0.5183 -1.0756
28125SOL     OW88416   2.884   0.345   6.470 -0.4958 -0.4773  0.0475
28125SOL    HW188417   2.804   0.379   6.510  0.4657 -0.0440  1.6829
28125SOL    HW288418   2.861   0.256   6.444 -1.4104 -0.4904  0.8281
28126SOL     OW88419   2.436   0.134   3.148 -0.2418 -0.5196  0.3138
28126SOL    HW188420   2.525   0.100   3.140 -0.1898 -0.4188  0.4496
28126SOL    HW288421   2.425   0.146   3.243 -1.7095 -4.0768  0.7633
28127SOL     OW88422   9.133   7.430   0.836 -0.3504 -0.1810 -0.2638
28127SOL    HW188423   9.173   7.343   0.844 -0.5034 -0.1392  1.3848
28127SOL    HW288424   9.116   7.456   0.927 -0.5524  1.4596 -0.7534
28128SOL     OW88425   8.000   0.792   6.237 -0.1593  0.2949 -0.5132
28128SOL    HW188426   7.972   0.802   6.328 -0.2113 -0.2274 -0.4696
28128SOL    HW288427   8.076   0.850   6.228 -0.1717  0.3670 -0.1456
28129SOL     OW88428   5.436   7.119   4.902 -0.5828 -0.3378  0.2247
28129SOL    HW188429   5.485   7.126   4.984 -2.0654  0.8800  1.0674
28129SOL    HW288430   5.503   7.106   4.834  0.8659  0.8785  1.3536
28130SOL     OW88431   3.941   7.652   9.202  0.0355  0.0124  0.2996
28130SOL    HW188432   3.914   7.738   9.234  0.7158 -0.1887  1.4573
28130SOL    HW288433   4.035   7.660   9.187  0.1398 -0.5820  0.6112
28131SOL     OW88434   9.886   8.081   5.770 -0.2192 -0.3892 -0.1010
28131SOL    HW188435   9.911   8.004   5.718 -0.0641 -0.5057  0.1423
28131SOL    HW288436   9.937   8.152   5.732 -0.2180 -0.4444 -0.2042
28132SOL     OW88437  10.133   9.349   9.206  0.1883  0.1682  0.3342
28132SOL    HW188438  10.191   9.278   9.178  1.6917  1.3925  0.1961
28132SOL    HW288439  10.156   9.363   9.298  0.1149  0.6568  0.2795
28133SOL     OW88440   9.246   6.706   5.633 -0.2888 -0.1496 -0.1352
28133SOL    HW188441   9.156   6.694   5.661 -1.1673  2.5985 -1.3928
28133SOL    HW288442   9.242   6.704   5.537  1.1933 -1.0182 -0.2180
28134SOL     OW88443   6.099   0.190   5.251  0.2187  0.1605 -0.2044
28134SOL    HW188444   6.111   0.102   5.287 -0.5093 -0.8249 -2.2080
28134SOL    HW288445   6.124   0.182   5.159 -1.2367  1.6810 -0.7923
28135SOL     OW88446   5.922   7.199   9.517  0.3927  0.1973 -0.0223
28135SOL    HW188447   6.000   7.242   9.551  0.5243 -0.7045  0.8795
28135SOL    HW288448   5.920   7.221   9.424  2.9799 -1.5451 -0.6117
28136SOL     OW88449   5.876   7.867   2.067 -0.1316 -0.2437 -0.3839
28136SOL    HW188450   5.947   7.818   2.109 -1.6370 -1.6500  0.6287
28136SOL    HW288451   5.868   7.947   2.119 -0.2358 -0.7550  0.4067
28137SOL     OW88452   3.837   1.148   8.742 -0.1982 -0.0441  0.1199
28137SOL    HW188453   3.789   1.231   8.750  1.4121  0.8289  1.4281
28137SOL    HW288454   3.917   1.162   8.792  0.2054 -2.3704  0.2299
28138SOL     OW88455   4.723   1.255   2.702  0.4813  0.3471 -1.2571
28138SOL    HW188456   4.630   1.277   2.700  0.0238 -1.4243 -0.6798
28138SOL    HW288457   4.726   1.161   2.686  2.0385  0.0494  0.5005
28139SOL     OW88458   3.891   2.974   0.328 -0.1400  0.3177  0.2375
28139SOL    HW188459   3.924   2.884   0.337 -1.6735 -0.2475  0.5773
28139SOL    HW288460   3.883   3.006   0.418 -0.0089  0.6333  0.1379
28140SOL     OW88461   9.959   4.182   2.749 -0.2491  0.5252  0.4111
28140SOL    HW188462   9.893   4.230   2.699  0.4144 -0.8231 -1.9264
28140SOL    HW288463  10.039   4.233   2.738 -0.0699  0.1515 -0.0086
28141SOL     OW88464   4.978   1.066   3.566 -0.3266 -0.0321 -0.1870
28141SOL    HW188465   5.070   1.040   3.565 -0.6785 -1.4203  0.7727
28141SOL    HW288466   4.961   1.091   3.657 -0.9277  0.1270 -0.3403
28142SOL     OW88467   0.867   1.287   4.311 -0.2390 -0.1968 -0.0804
28142SOL    HW188468   0.867   1.205   4.262  0.8376 -1.6418  2.1964
28142SOL    HW288469   0.825   1.266   4.394 -0.6655  1.7875  0.2637
28143SOL     OW88470   0.081   8.172   5.318  0.0716  0.1859  0.5060
28143SOL    HW188471   0.060   8.079   5.322 -1.7193  0.5513  0.7503
28143SOL    HW288472   0.038   8.210   5.395  0.7370  1.2142  0.3933
28144SOL     OW88473   6.085   2.282   5.386 -0.3446  0.1341  0.3544
28144SOL    HW188474   6.172   2.246   5.398 -0.2077  0.1204 -0.6516
28144SOL    HW288475   6.026   2.208   5.404 -0.1040 -0.2629 -0.4614
28145SOL     OW88476   0.094   8.513   0.616 -0.4699 -0.0092  0.2683
28145SOL    HW188477   0.154   8.585   0.593 -0.2340 -0.5051 -0.7337
28145SOL    HW288478   0.068   8.476   0.532 -3.2788  1.0138  0.5726
28146SOL     OW88479   7.649   2.155   1.235  0.2239  0.1410 -0.3728
28146SOL    HW188480   7.557   2.135   1.220 -0.3162  0.4666  2.1803
28146SOL    HW288481   7.654   2.251   1.226 -0.0558  0.3115  1.0677
28147SOL     OW88482   5.760   6.683   1.028  0.4421  0.0592  0.1145
28147SOL    HW188483   5.800   6.637   0.954  1.9780  1.6188 -0.0837
28147SOL    HW288484   5.755   6.774   1.000 -2.8241  0.0875  0.3700
28148SOL     OW88485   3.125   0.059   3.872 -0.2373 -0.3464  0.2877
28148SOL    HW188486   3.151   0.024   3.787 -0.1187  2.1194 -0.7927
28148SOL    HW288487   3.033   0.035   3.881  0.1005 -1.7820  0.1300
28149SOL     OW88488   0.898   4.348   5.125  0.1194  0.3534 -0.0396
28149SOL    HW188489   0.828   4.383   5.180  0.2300  0.4506  0.0389
28149SOL    HW288490   0.913   4.414   5.058  1.5680  1.3023  1.1529
28150SOL     OW88491   8.393   5.821   6.077 -0.1634  0.0818 -0.2610
28150SOL    HW188492   8.415   5.796   5.988  0.7287  2.1015 -0.6673
28150SOL    HW288493   8.475   5.814   6.126 -0.9071 -2.2904  0.7881
28151SOL     OW88494   6.266   9.789   1.638 -0.1083 -0.3524 -0.0581
28151SOL    HW188495   6.221   9.826   1.563  1.8067  1.1354 -0.5405
28151SOL    HW288496   6.247   9.849   1.710  2.0459  1.0460 -0.5686
28152SOL     OW88497   5.228   8.995   6.251  0.3400  0.6985  0.2782
28152SOL    HW188498   5.148   8.995   6.302  0.7308 -0.8907  0.9681
28152SOL    HW288499   5.203   8.956   6.167  0.1572  1.2978  0.0491
28153SOL     OW88500   6.939   6.209   0.581 -0.7565 -0.5918  0.2142
28153SOL    HW188501   6.988   6.229   0.661  1.9468 -0.3491 -1.3738
28153SOL    HW288502   6.945   6.113   0.573  0.6433 -0.4709 -0.5977
28154SOL     OW88503   4.748   8.475   3.059  0.3459 -0.4327  0.3130
28154SOL    HW188504   4.792   8.446   2.979 -0.6612 -1.1196 -0.0105
28154SOL    HW288505   4.703   8.397   3.092  2.2497 -0.6915  2.6283
28155SOL     OW88506   7.879   9.103   9.328 -0.3903 -0.0744  0.7045
28155SOL    HW188507   7.785   9.112   9.315 -0.7239  0.2247  2.9537
28155SOL    HW288508   7.889   9.020   9.375  0.5031 -0.2769  0.1844
28156SOL     OW88509   4.792   5.744   9.062  0.0521  0.5857 -0.2147
28156SOL    HW188510   4.769   5.758   8.970  0.2022 -1.1321 -0.5631
28156SOL    HW288511   4.730   5.676   9.092 -1.1183  2.3049  1.4829
28157SOL     OW88512   4.109   3.789   1.156  0.0537  0.7794 -0.3290
28157SOL    HW188513   4.177   3.791   1.089 -0.3632  1.8406 -0.7554
28157SOL    HW288514   4.057   3.868   1.139 -1.1273  0.1206  0.1444
28158SOL     OW88515   1.754   6.302   0.765 -0.1517 -0.3383  0.8930
28158SOL    HW188516   1.695   6.377   0.768 -0.3799 -0.5249  1.1032
28158SOL    HW288517   1.841   6.339   0.780 -0.2044 -0.0521  0.5042
28159SOL     OW88518   2.273   3.641   3.324  0.2056 -0.2801  0.2527
28159SOL    HW188519   2.236   3.565   3.280  0.3840 -1.4871  2.0512
28159SOL    HW288520   2.250   3.716   3.269 -1.5416 -1.4286 -0.6440
28160SOL     OW88521   5.312   0.437   2.970  0.0325  0.1027  0.8770
28160SOL    HW188522   5.379   0.392   3.021 -0.8749 -1.2930  0.9060
28160SOL    HW288523   5.312   0.391   2.885 -0.5270  0.4131  0.7010
28161SOL     OW88524   5.775   6.564   9.501 -0.1872 -0.1781 -0.1172
28161SOL    HW188525   5.716   6.639   9.507 -1.5285 -1.2324  0.3225
28161SOL    HW288526   5.855   6.594   9.543 -0.2297  1.4234 -1.0917
28162SOL     OW88527   2.566   3.561   2.891 -0.0069  0.1847  0.3388
28162SOL    HW188528   2.569   3.470   2.860 -1.6221  0.4564 -0.7511
28162SOL    HW288529   2.564   3.553   2.987 -0.0958 -0.9312  0.2619
28163SOL     OW88530   7.149   7.538   9.611  0.4584  0.1287  0.1232
28163SOL    HW188531   7.116   7.627   9.595  1.1596  0.1102 -1.6280
28163SOL    HW288532   7.212   7.548   9.682  0.4721  1.0147 -0.0068
28164SOL     OW88533   7.664   0.755   4.284  0.3371 -0.1382  0.1080
28164SOL    HW188534   7.759   0.749   4.267  0.3016  2.2911 -1.5157
28164SOL    HW288535   7.657   0.812   4.361  0.2045 -0.2894  0.2067
28165SOL     OW88536   6.661   6.521   4.701 -0.2239  0.3549 -0.3841
28165SOL    HW188537   6.572   6.555   4.697 -0.4312 -0.2094 -0.5291
28165SOL    HW288538   6.693   6.528   4.611  0.2829  1.6206 -0.1315
28166SOL     OW88539   3.780   1.041   4.986 -0.3928  0.2288  0.1141
28166SOL    HW188540   3.692   1.076   4.998  0.6613  4.3035 -2.1026
28166SOL    HW288541   3.797   1.049   4.892  2.4716  0.0405  0.5119
28167SOL     OW88542   4.137   8.640   8.350  0.2145  0.4257  0.1721
28167SOL    HW188543   4.107   8.549   8.353 -0.9210  0.7079 -1.3716
28167SOL    HW288544   4.134   8.663   8.257  1.7022  1.6674  0.3920
28168SOL     OW88545   9.210   4.158   7.252  0.4675  0.4701  0.1122
28168SOL    HW188546   9.225   4.157   7.158  1.4204 -1.7894  0.2234
28168SOL    HW288547   9.144   4.226   7.265 -0.2995  0.2650 -2.2675
28169SOL     OW88548   6.298   3.674   0.920  0.1985 -0.2007  0.1822
28169SOL    HW188549   6.244   3.693   0.843  0.9430 -1.1897 -0.6060
28169SOL    HW288550   6.269   3.588   0.949 -0.9674  0.6876  1.8283
28170SOL     OW88551   2.001   8.760  10.016 -0.5449  0.4094  0.1532
28170SOL    HW188552   1.975   8.695   9.950  1.7032  0.4300 -0.8432
28170SOL    HW288553   1.933   8.827  10.012 -0.5971  0.2910 -2.0159
28171SOL     OW88554   7.659   6.233   8.045 -0.1171  0.4587 -0.5063
28171SOL    HW188555   7.659   6.236   7.949  0.3327  1.0253 -0.4907
28171SOL    HW288556   7.603   6.158   8.066 -0.7012  0.6873 -1.2024
28172SOL     OW88557   0.582   8.747   4.230  0.2306  0.2773  0.4733
28172SOL    HW188558   0.616   8.730   4.142  0.2557  1.2859  0.2820
28172SOL    HW288559   0.651   8.714   4.288  0.2854 -0.2489  0.1252
28173SOL     OW88560   0.463   8.385   9.507  0.5066 -0.0322 -0.3949
28173SOL    HW188561   0.547   8.340   9.518  1.6803  2.1786  0.2232
28173SOL    HW288562   0.410   8.355   9.581  0.5126 -1.8111 -1.0560
28174SOL     OW88563   5.777   0.076   3.612  0.4144 -0.2904  0.3869
28174SOL    HW188564   5.833   0.005   3.581  1.5242  0.3554  0.8574
28174SOL    HW288565   5.812   0.154   3.570  0.3915  0.2366  1.3162
28175SOL     OW88566   0.076   4.449   2.540 -0.7526 -0.6202 -0.5615
28175SOL    HW188567   0.029   4.530   2.556 -0.2355 -0.3430 -0.3991
28175SOL    HW288568   0.144   4.472   2.476 -0.7557 -0.9795 -0.6993
28176SOL     OW88569   5.063   8.982   9.560  0.4238 -0.2800  0.6005
28176SOL    HW188570   5.031   8.993   9.471 -0.6732 -0.1320  0.9975
28176SOL    HW288571   4.990   8.940   9.607  0.8366 -0.0096  1.5163
28177SOL     OW88572   7.865   9.554   2.366 -0.1989  0.4991 -0.3141
28177SOL    HW188573   7.951   9.596   2.379  0.2217 -0.7489  1.2313
28177SOL    HW288574   7.886   9.467   2.333 -0.9364  0.5368 -0.8895
28178SOL     OW88575   1.243   8.681   6.169  0.4231  0.4442  0.2495
28178SOL    HW188576   1.198   8.741   6.109 -0.9116 -0.8158 -0.0700
28178SOL    HW288577   1.336   8.699   6.155  0.1224  0.9151 -1.4603
28179SOL     OW88578   0.890   0.112   7.403 -0.3220  0.0409 -0.0810
28179SOL    HW188579   0.869   0.079   7.315  0.9690  0.1507 -0.4486
28179SOL    HW288580   0.828   0.068   7.461  0.9272 -2.6100 -0.6141
28180SOL     OW88581   3.148   4.348   2.470 -0.3814 -0.4187  0.0952
28180SOL    HW188582   3.171   4.260   2.499  0.5171 -0.5642 -0.9940
28180SOL    HW288583   3.201   4.406   2.524 -0.9570 -0.5276  0.7968
28181SOL     OW88584   3.924   8.694   7.325  0.7094  0.8822  0.2238
28181SOL    HW188585   3.840   8.733   7.298 -0.5017 -0.9227  1.1529
28181SOL    HW288586   3.921   8.605   7.288  0.0745 -0.8460  4.0160
28182SOL     OW88587   1.144  10.247   1.498 -0.0640 -0.0893  0.1621
28182SOL    HW188588   1.214  10.185   1.518  0.0741 -0.5996 -1.6971
28182SOL    HW288589   1.085  10.198   1.441 -1.9556  0.3457  1.6568
28183SOL     OW88590   2.548   6.834   9.056  0.4072 -0.2481 -0.4727
28183SOL    HW188591   2.495   6.913   9.059 -0.7366 -1.0063  0.9806
28183SOL    HW288592   2.592   6.832   9.142 -0.3561 -1.6625 -0.0860
28184SOL     OW88593   6.213   9.141  10.193  0.0902  0.0632  0.5172
28184SOL    HW188594   6.217   9.232  10.162  0.7196  0.1860  0.9603
28184SOL    HW288595   6.262   9.141  10.275  0.7348 -0.8419  0.1383
28185SOL     OW88596   5.985   6.199   3.725 -0.1849 -0.2455 -0.2744
28185SOL    HW188597   5.967   6.280   3.678  0.2315  0.3491  0.5540
28185SOL    HW288598   6.047   6.224   3.793 -0.6203 -1.1086  0.4741
28186SOL     OW88599   0.504   3.582   9.563  0.9464 -0.0322  0.1130
28186SOL    HW188600   0.583   3.529   9.569  1.1430 -0.1268 -2.4452
28186SOL    HW288601   0.533   3.667   9.530  0.0327  0.0673 -0.4674
28187SOL     OW88602   2.956   0.394   5.477  0.4118 -0.0377 -0.0098
28187SOL    HW188603   2.917   0.458   5.537  1.6468  1.3775 -0.6353
28187SOL    HW288604   2.974   0.445   5.397  1.2456 -1.2332 -0.6057
28188SOL     OW88605   4.836   8.756   4.193  0.4395  0.1420 -0.7970
28188SOL    HW188606   4.871   8.740   4.281  0.0018 -0.5823 -0.7372
28188SOL    HW288607   4.901   8.811   4.150 -0.1374  1.9935  0.5458
28189SOL     OW88608   4.937   9.846   4.233  0.6126  0.2131 -1.0317
28189SOL    HW188609   4.997   9.920   4.232  2.8068 -1.4637 -1.7094
28189SOL    HW288610   4.869   9.871   4.295  0.8651  3.0344 -1.7474
28190SOL     OW88611   3.520   2.709   5.309  0.1876 -0.6191  0.0629
28190SOL    HW188612   3.441   2.710   5.254  0.2670  0.6135 -0.0675
28190SOL    HW288613   3.580   2.650   5.264 -1.0166 -2.4552  0.7260
28191SOL     OW88614   2.756   1.647   3.411  0.2225  0.3415 -0.1275
28191SOL    HW188615   2.847   1.623   3.391  0.9848  0.9647  2.2280
28191SOL    HW288616   2.709   1.564   3.410  1.0001 -0.1102 -0.5138
28192SOL     OW88617   2.260   0.678   5.851  0.3118  0.0374 -0.4952
28192SOL    HW188618   2.180   0.678   5.904 -0.0908 -1.8694 -1.0039
28192SOL    HW288619   2.264   0.765   5.812 -2.3633 -0.2718 -1.6631
28193SOL     OW88620   7.368   4.798  10.297  0.3860 -0.0801 -0.1025
28193SOL    HW188621   7.311   4.875  10.292 -0.5425 -0.7308  0.3191
28193SOL    HW288622   7.396   4.782  10.207  0.9064  0.9720 -0.1463
28194SOL     OW88623   5.686   0.568   6.323 -0.1614 -0.2929 -0.3742
28194SOL    HW188624   5.776   0.596   6.340  0.2683 -0.9246 -1.5785
28194SOL    HW288625   5.677   0.569   6.228 -0.7773 -2.2544 -0.3741
28195SOL     OW88626  10.125   7.775   8.985 -0.0676 -0.8336  0.4640
28195SOL    HW188627  10.219   7.786   9.000  0.2232 -1.5880 -0.6441
28195SOL    HW288628  10.091   7.864   8.976  0.0485 -0.4068  3.3273
28196SOL     OW88629   1.813   2.824   7.123  0.0241  0.0977  0.0836
28196SOL    HW188630   1.876   2.770   7.076  1.4250  1.9238 -0.2492
28196SOL    HW288631   1.776   2.882   7.056  0.9593  1.7352  0.9078
28197SOL     OW88632   4.697   8.582   7.936  0.2064 -0.7721 -0.6491
28197SOL    HW188633   4.663   8.515   7.995 -2.1100  1.1514  0.3761
28197SOL    HW288634   4.627   8.597   7.873  0.3060  1.2422 -0.3431
28198SOL     OW88635   6.644   7.810   3.762  0.3580 -0.1354 -0.1299
28198SOL    HW188636   6.685   7.874   3.820 -2.4608  0.9436  0.8334
28198SOL    HW288637   6.705   7.803   3.688  2.5358  0.8205  1.4637
28199SOL     OW88638   2.240   9.306   7.788 -0.2156  0.4750 -0.6976
28199SOL    HW188639   2.278   9.249   7.855 -1.6560 -0.3945 -0.5759
28199SOL    HW288640   2.287   9.284   7.708  0.7121  0.6699 -0.2125
28200SOL     OW88641   0.822   1.580   2.945  0.5162  0.7736  0.3046
28200SOL    HW188642   0.830   1.534   3.028 -0.9546  0.6616  0.4151
28200SOL    HW288643   0.830   1.511   2.879  1.0505  0.7658  0.3785
28201SOL     OW88644   3.914   1.482   1.734 -0.6215 -0.4852  0.1117
28201SOL    HW188645   3.993   1.437   1.765 -0.0080 -0.5319 -1.4619
28201SOL    HW288646   3.946   1.544   1.669 -1.9667 -1.2663 -1.3628
28202SOL     OW88647   6.804   8.604   1.335 -0.1615  0.5070 -0.2444
28202SOL    HW188648   6.740   8.653   1.284  0.3783  0.8226 -0.6339
28202SOL    HW288649   6.756   8.529   1.370 -0.3148 -0.3199 -2.0978
28203SOL     OW88650   8.606   8.660   5.760  0.0974 -0.2099  0.4732
28203SOL    HW188651   8.658   8.728   5.718  1.1855 -2.4095 -2.0156
28203SOL    HW288652   8.586   8.695   5.847  1.6043  2.7236 -0.2411
28204SOL     OW88653   6.444   6.371   2.911  0.5540 -0.0752  0.1544
28204SOL    HW188654   6.442   6.348   3.004  1.5668  1.5034  0.5923
28204SOL    HW288655   6.505   6.444   2.905 -1.7064  1.8452 -1.3201
28205SOL     OW88656   7.955   7.095   5.501 -0.6243 -0.3016 -0.2184
28205SOL    HW188657   7.928   7.003   5.499  1.1833 -0.9084  1.3607
28205SOL    HW288658   8.013   7.102   5.576 -0.5421  2.1083 -0.4347
28206SOL     OW88659   2.877   4.998   2.887 -0.2871 -0.3860  1.0541
28206SOL    HW188660   2.931   5.035   2.817 -0.5864  0.5249  1.2803
28206SOL    HW288661   2.853   5.074   2.940 -2.1531 -0.7021  0.7128
28207SOL     OW88662   9.632   5.799   7.633 -1.0841  0.1220  0.6840
28207SOL    HW188663   9.588   5.762   7.556 -1.2017  0.2186  0.7047
28207SOL    HW288664   9.653   5.723   7.687  0.0820 -0.0751 -0.0001
28208SOL     OW88665   9.115   3.202   1.612  0.3366  0.2961  0.2774
28208SOL    HW188666   9.096   3.269   1.545  0.2416  1.1948  1.1736
28208SOL    HW288667   9.072   3.123   1.580  2.9328 -0.2485 -2.3386
28209SOL     OW88668   1.864   9.473   5.600  0.0724 -0.2253 -0.5560
28209SOL    HW188669   1.922   9.465   5.676  1.3766  1.8633 -1.2408
28209SOL    HW288670   1.780   9.437   5.630  0.8994 -0.6346  1.4429
28210SOL     OW88671  10.016   8.015   7.889 -0.6175 -0.8418  0.0009
28210SOL    HW188672   9.934   7.982   7.852 -1.9153  0.0335  1.9139
28210SOL    HW288673   9.989   8.089   7.944  1.3765 -0.9706  1.2421
28211SOL     OW88674   5.379   9.586   1.546 -0.2297  0.1581 -0.0007
28211SOL    HW188675   5.428   9.540   1.478  1.0761  4.1833 -2.1494
28211SOL    HW288676   5.433   9.578   1.624  0.1345 -1.4849 -0.3853
28212SOL     OW88677   6.376   9.140   3.916  1.2044 -0.3119 -0.2699
28212SOL    HW188678   6.338   9.159   3.830 -1.3093 -3.2885 -0.0192
28212SOL    HW288679   6.339   9.206   3.974 -1.9751 -1.6879 -0.5183
28213SOL     OW88680   7.186   7.849   5.720 -0.1359  0.0775 -0.6927
28213SOL    HW188681   7.127   7.794   5.771  0.8217  0.1125  0.5023
28213SOL    HW288682   7.237   7.788   5.668  0.3343 -0.1149 -0.0127
28214SOL     OW88683   6.727   3.417   3.631 -0.1592  0.1979  0.6829
28214SOL    HW188684   6.752   3.510   3.631 -0.0487  0.1778 -0.4617
28214SOL    HW288685   6.666   3.408   3.558 -2.8313  0.0263  2.8065
28215SOL     OW88686   2.567   3.930   4.544  0.3270 -0.5493 -0.3231
28215SOL    HW188687   2.646   3.971   4.508  0.4381 -1.0224 -0.6288
28215SOL    HW288688   2.600   3.857   4.596  0.2059  0.5466  1.3510
28216SOL     OW88689   8.634   4.311   4.913  0.4337 -0.2393 -0.0451
28216SOL    HW188690   8.627   4.226   4.956 -0.3509 -1.1370 -1.8087
28216SOL    HW288691   8.612   4.375   4.981 -2.4684 -1.6731  0.5285
28217SOL     OW88692   2.488   0.212   2.067  0.6999  0.6658  0.1899
28217SOL    HW188693   2.537   0.292   2.051  1.1332  0.1602 -1.1013
28217SOL    HW288694   2.531   0.172   2.143  2.3908  0.1812 -0.9766
28218SOL     OW88695   8.647   6.097   9.097  0.1267  0.0058  0.2467
28218SOL    HW188696   8.674   6.055   9.178 -0.1778 -0.0503  0.3206
28218SOL    HW288697   8.709   6.170   9.086  0.7342 -0.5369  0.0497
28219SOL     OW88698   7.083   6.566   7.579  0.0066 -0.9196  0.9128
28219SOL    HW188699   7.016   6.501   7.556  0.0722 -1.4417  2.1178
28219SOL    HW288700   7.161   6.538   7.531 -0.1372 -1.3606  0.9319
28220SOL     OW88701   3.900   1.314   6.564 -0.7103 -0.4463 -0.1413
28220SOL    HW188702   3.837   1.305   6.635  0.3327 -3.4628  0.5322
28220SOL    HW288703   3.855   1.280   6.487 -0.6555 -0.5126 -0.1444
28221SOL     OW88704   8.107   8.070   7.975 -0.2879 -0.1730  0.5620
28221SOL    HW188705   8.198   8.097   7.986 -0.0428 -1.2338  1.2929
28221SOL    HW288706   8.072   8.067   8.064 -0.4385 -1.7443  0.4647
28222SOL     OW88707  10.257   7.003   9.452  0.4496 -0.3572  0.1572
28222SOL    HW188708  10.194   7.070   9.477  0.8514  0.0875 -0.0116
28222SOL    HW288709  10.204   6.932   9.416  0.0716  0.1413 -0.2745
28223SOL     OW88710   7.024   0.085   2.532  0.9364  0.2972 -0.1375
28223SOL    HW188711   6.930   0.067   2.543  1.0875 -0.3559  0.0949
28223SOL    HW288712   7.027   0.154   2.465  0.3537 -0.6372 -1.1590
28224SOL     OW88713   6.364   7.745   4.955 -0.3892  1.0046  0.2089
28224SOL    HW188714   6.402   7.833   4.956 -0.6592  1.1411 -0.5726
28224SOL    HW288715   6.439   7.687   4.964 -0.0893  1.2944 -0.3481
28225SOL     OW88716   1.683   1.852   2.746 -0.4056  0.2574 -0.2915
28225SOL    HW188717   1.746   1.904   2.796  0.0571 -0.1172 -0.4716
28225SOL    HW288718   1.735   1.814   2.675 -0.6798 -0.6220 -0.0377
28226SOL     OW88719   3.182   1.087   0.569  0.4826  0.0510  0.3054
28226SOL    HW188720   3.241   1.162   0.562  0.4633  0.0321 -0.0854
28226SOL    HW288721   3.220   1.021   0.510 -0.8046  0.6207 -1.2130
28227SOL     OW88722   7.853   5.748   8.565 -0.4759  0.1868 -0.2586
28227SOL    HW188723   7.933   5.696   8.559 -0.6346 -0.0953  0.0093
28227SOL    HW288724   7.809   5.714   8.643 -1.1157 -0.0244 -0.7030
28228SOL     OW88725   4.622   1.476   3.618  0.1075 -0.2845 -0.2592
28228SOL    HW188726   4.600   1.535   3.690 -0.9214  1.0930 -1.6418
28228SOL    HW288727   4.660   1.533   3.551 -0.5632 -1.2323 -1.4880
28229SOL     OW88728   8.421   4.585   0.206 -0.2330 -0.1187 -0.4600
28229SOL    HW188729   8.455   4.501   0.235 -0.8087 -0.7623 -1.5619
28229SOL    HW288730   8.349   4.604   0.265  0.8252  0.3497  0.7236
28230SOL     OW88731   3.744   9.271   3.791  0.2305 -0.2393 -0.0226
28230SOL    HW188732   3.676   9.332   3.761 -0.0308  0.1064  1.2142
28230SOL    HW288733   3.773   9.306   3.875  0.3765 -1.5838  0.5233
28231SOL     OW88734   3.716   9.998   4.879  0.1102 -0.1983  0.0185
28231SOL    HW188735   3.706  10.040   4.965  3.9020  3.5115 -1.0476
28231SOL    HW288736   3.670  10.056   4.819 -0.0747 -1.2025 -0.8356
28232SOL     OW88737   1.486   8.725   5.137 -0.4670 -0.0305  0.6247
28232SOL    HW188738   1.463   8.815   5.110 -1.3988 -0.5930 -0.5718
28232SOL    HW288739   1.430   8.708   5.212 -2.5006 -0.6089 -0.9383
28233SOL     OW88740   2.573   0.713   2.386 -0.8212  0.0164 -0.5772
28233SOL    HW188741   2.626   0.749   2.457 -1.6396 -0.4091  0.2757
28233SOL    HW288742   2.633   0.656   2.338 -0.6205 -0.9409  0.7417
28234SOL     OW88743   1.178   4.549   6.612  0.2139  0.1033 -0.0577
28234SOL    HW188744   1.118   4.498   6.558  0.7573 -0.8324  0.1953
28234SOL    HW288745   1.130   4.629   6.633 -0.7998 -0.4714 -0.1415
28235SOL     OW88746   3.362   3.971   2.334 -0.5899 -0.1210 -0.2371
28235SOL    HW188747   3.304   3.983   2.260  0.9401  0.9188 -1.3280
28235SOL    HW288748   3.313   4.004   2.409 -1.5884  0.2446 -1.0316
28236SOL     OW88749   7.434   3.754   0.839 -0.0273  0.0791  0.4051
28236SOL    HW188750   7.390   3.834   0.810 -0.5271 -0.1465  0.5286
28236SOL    HW288751   7.470   3.716   0.759 -2.4032 -1.1634 -0.1682
28237SOL     OW88752   7.452   8.407   3.616  0.1189 -0.1800  0.6016
28237SOL    HW188753   7.480   8.386   3.705 -0.6477 -0.7743  0.7169
28237SOL    HW288754   7.357   8.392   3.616  0.0032  0.4372 -0.1432
28238SOL     OW88755   8.080   6.290   5.932 -0.4052  0.5577 -0.0877
28238SOL    HW188756   8.166   6.332   5.926 -0.2598  0.2809  0.0147
28238SOL    HW288757   8.097   6.209   5.981 -0.6112  0.1978 -0.5953
28239SOL     OW88758   7.584   9.226   5.902  0.3507 -0.0857 -0.0207
28239SOL    HW188759   7.649   9.193   5.840 -0.5216  0.2699 -1.1674
28239SOL    HW288760   7.572   9.155   5.965  0.0927 -1.1040 -1.1877
28240SOL     OW88761   4.229   3.920   2.134  1.0143  0.1458  0.1665
28240SOL    HW188762   4.267   3.982   2.072  0.8566 -1.2770 -1.4297
28240SOL    HW288763   4.141   3.901   2.099  1.3186 -1.4865  0.1976
28241SOL     OW88764   4.363  10.087   5.088  0.3521 -0.0072  0.1204
28241SOL    HW188765   4.400  10.030   5.021 -0.1805 -0.5876  0.3163
28241SOL    HW288766   4.407  10.060   5.169 -2.4659 -2.7255  0.9334
28242SOL     OW88767   2.715   6.321   7.639 -0.7535  0.2228  0.6024
28242SOL    HW188768   2.759   6.399   7.672  0.6891  0.1991 -1.1186
28242SOL    HW288769   2.679   6.347   7.554  1.0592 -1.3270 -0.7133
28243SOL     OW88770   2.253   9.544   4.142  0.0342  0.1536 -0.0232
28243SOL    HW188771   2.336   9.503   4.166  0.8067  1.8977  0.4943
28243SOL    HW288772   2.222   9.584   4.223 -1.3293 -0.4727 -0.2134
28244SOL     OW88773   1.248   2.361   1.741  0.0634 -0.2295  0.0853
28244SOL    HW188774   1.256   2.298   1.813 -0.9101 -1.1561 -0.5870
28244SOL    HW288775   1.336   2.395   1.728  0.4033 -0.6554  1.1669
28245SOL     OW88776   3.280   1.011   0.825  0.3213  0.5787  0.2685
28245SOL    HW188777   3.213   0.969   0.771 -0.5933 -0.8257  2.3655
28245SOL    HW288778   3.261   1.105   0.819 -1.3391  0.2596  0.1809
28246SOL     OW88779   4.966   1.254   6.326  0.0311  0.0086  0.2060
28246SOL    HW188780   4.891   1.310   6.350  0.1780  0.0317  0.6235
28246SOL    HW288781   4.937   1.208   6.248  1.0159  2.9474 -2.0646
28247SOL     OW88782   1.626   0.595   2.130 -0.1159  0.1643 -0.3484
28247SOL    HW188783   1.707   0.563   2.090  0.9613  2.2669  0.0117
28247SOL    HW288784   1.577   0.635   2.058 -0.3699 -0.2237 -0.3915
28248SOL     OW88785   5.032   6.299   1.939 -0.8850  0.2121  0.5993
28248SOL    HW188786   5.127   6.296   1.951 -0.5640 -0.1965 -1.6438
28248SOL    HW288787   5.011   6.393   1.939 -0.0610  0.4393 -1.4391
28249SOL     OW88788   9.313   5.812   2.361  0.1896  0.3478  0.3267
28249SOL    HW188789   9.310   5.864   2.442  2.3983  1.8020 -0.4303
28249SOL    HW288790   9.398   5.833   2.322  0.3880 -2.4538 -1.0046
28250SOL     OW88791   4.638   5.007   4.418 -0.2335 -0.4968 -0.1808
28250SOL    HW188792   4.672   5.039   4.335  1.8775 -2.7126 -0.2607
28250SOL    HW288793   4.632   4.912   4.407  0.6298 -0.9188  2.3227
28251SOL     OW88794   0.287   8.695   2.757  0.0917 -0.3826 -0.2616
28251SOL    HW188795   0.333   8.762   2.707  0.5972  0.2053  0.9667
28251SOL    HW288796   0.332   8.691   2.841 -0.6855 -1.4130  0.1357
28252SOL     OW88797   5.870   3.752   3.565  0.6342 -0.4132  0.1855
28252SOL    HW188798   5.930   3.687   3.529  0.0427  1.1908 -4.4354
28252SOL    HW288799   5.790   3.702   3.583 -0.1757 -1.1215 -4.2257
28253SOL     OW88800   0.456   4.859   9.903  0.2192  0.2015 -0.1983
28253SOL    HW188801   0.492   4.945   9.885 -0.4056  0.6017  0.4403
28253SOL    HW288802   0.411   4.834   9.822  0.1531  0.6012 -0.2836
28254SOL     OW88803   1.902   6.434   4.819 -0.2501  0.3538  0.2588
28254SOL    HW188804   1.932   6.344   4.834 -0.6831  0.2002  0.2291
28254SOL    HW288805   1.866   6.462   4.902  1.0440  0.9740  0.6430
28255SOL     OW88806   2.019   7.486   4.959  0.4726  0.0230  0.4174
28255SOL    HW188807   1.973   7.501   5.042  1.6199 -3.0665  1.7777
28255SOL    HW288808   2.073   7.564   4.948 -1.3342  1.4970  1.3644
28256SOL     OW88809   4.014   1.554   7.802 -0.2569  0.0395  0.1292
28256SOL    HW188810   4.083   1.498   7.838 -1.1301 -0.6347  0.7810
28256SOL    HW288811   4.059   1.607   7.735  1.3460  1.1296  1.9644
28257SOL     OW88812  10.057   7.189   4.627  0.3243  0.0091 -0.2147
28257SOL    HW188813  10.054   7.264   4.567 -1.4950  0.1737  0.0363
28257SOL    HW288814   9.976   7.195   4.677  0.4626 -1.7561  0.2819
28258SOL     OW88815   3.736   9.355   1.362  0.0821 -0.1544  0.5319
28258SOL    HW188816   3.690   9.283   1.405 -1.0878 -0.0791 -0.5095
28258SOL    HW288817   3.809   9.314   1.316 -1.1705 -0.8840 -0.9054
28259SOL     OW88818   5.903   4.593   5.714  0.5924 -0.2731  0.1938
28259SOL    HW188819   5.874   4.544   5.637 -0.2089 -0.2385  0.4561
28259SOL    HW288820   5.998   4.588   5.712  0.6631  1.1366 -1.6869
28260SOL     OW88821   7.086   7.658   7.199  0.6638  0.2634 -0.6899
28260SOL    HW188822   6.996   7.669   7.228  0.1110  0.1140 -2.2681
28260SOL    HW288823   7.080   7.609   7.117  2.1066  0.9625 -1.2606
28261SOL     OW88824   0.565   1.639   9.727  0.2827 -0.0890  0.3449
28261SOL    HW188825   0.595   1.702   9.662 -0.5961 -1.7971 -1.8697
28261SOL    HW288826   0.636   1.635   9.791  1.0511  1.9093 -0.3072
28262SOL     OW88827   1.573   1.780   5.164 -0.2330 -0.1417 -0.2391
28262SOL    HW188828   1.667   1.797   5.172  0.1106 -0.2828 -3.0944
28262SOL    HW288829   1.551   1.727   5.241  2.0373 -0.2382  0.3970
28263SOL     OW88830   2.122   9.010   1.059  0.1520 -0.4426  0.6351
28263SOL    HW188831   2.049   9.033   1.001 -1.7258 -0.3571  2.8661
28263SOL    HW288832   2.193   8.987   1.000 -0.7932  2.0687 -1.6920
28264SOL     OW88833   5.494   3.053   0.968 -0.5576  0.1922 -0.1533
28264SOL    HW188834   5.562   2.988   0.953 -0.3540  0.2822  0.3662
28264SOL    HW288835   5.519   3.096   1.050 -0.1451  1.5937 -0.9679
28265SOL     OW88836   3.799   9.579   7.977  0.0655 -0.4829  0.4393
28265SOL    HW188837   3.759   9.625   7.903  0.1007 -1.3928 -0.1587
28265SOL    HW288838   3.746   9.500   7.989  0.0784 -0.3625  1.3760
28266SOL     OW88839   0.031   2.243   5.329 -0.0031  0.0928  0.2857
28266SOL    HW188840   0.115   2.238   5.375 -0.3552 -0.5001  0.8849
28266SOL    HW288841   0.048   2.300   5.254  0.6630  0.8403  0.9860
28267SOL     OW88842   8.580   3.918   1.554 -0.0085  0.4086 -0.0532
28267SOL    HW188843   8.672   3.938   1.538 -0.4605  2.7203 -0.0111
28267SOL    HW288844   8.564   3.947   1.644 -0.7307 -0.2254  0.0365
28268SOL     OW88845   0.276   2.651   3.749 -0.0146  0.0397  0.0863
28268SOL    HW188846   0.295   2.566   3.709  1.1182  0.4762 -0.3457
28268SOL    HW288847   0.215   2.692   3.688 -1.5800 -0.9371  0.9288
28269SOL     OW88848   5.915   0.853   8.549 -0.0323 -0.0465  0.1782
28269SOL    HW188849   5.883   0.808   8.627 -0.7000  2.6984  1.6269
28269SOL    HW288850   5.989   0.905   8.580 -0.1461  0.9040 -1.0582
28270SOL     OW88851   5.814   8.470   1.780  0.2116  0.6363  0.2569
28270SOL    HW188852   5.729   8.434   1.805  0.4973 -0.1022  0.1756
28270SOL    HW288853   5.859   8.485   1.864  1.0962 -1.6623  0.2661
28271SOL     OW88854   3.033   9.396   8.987  0.5418 -0.1597  0.0147
28271SOL    HW188855   2.992   9.464   8.934 -2.3861 -1.3256  0.6208
28271SOL    HW288856   2.970   9.377   9.056  2.3042 -1.8406  1.2868
28272SOL     OW88857   3.262   0.224   9.141  0.1938  0.5326  0.6567
28272SOL    HW188858   3.175   0.260   9.161 -0.0136 -0.1191  0.9384
28272SOL    HW288859   3.295   0.192   9.224  0.7216  0.7884  0.5522
28273SOL     OW88860   3.685   2.199   7.047 -0.0137 -0.0886  0.0011
28273SOL    HW188861   3.594   2.175   7.031  0.1301 -0.3768 -0.3961
28273SOL    HW288862   3.736   2.130   7.005  0.4161  1.3052 -1.9473
28274SOL     OW88863   7.959   8.913   0.081 -0.1054 -0.4934  0.5957
28274SOL    HW188864   8.046   8.940   0.111  0.1267  3.3192 -2.7064
28274SOL    HW288865   7.899   8.950   0.146  0.6344  0.9373  0.5130
28275SOL     OW88866   9.509  10.014   7.844 -0.4963  0.4669 -0.1152
28275SOL    HW188867   9.595   9.975   7.828 -0.5899  0.5453 -0.8332
28275SOL    HW288868   9.459   9.944   7.886 -0.0780  0.4258  0.3183
28276SOL     OW88869   2.486   6.025   7.665 -0.0611  0.4795 -0.1286
28276SOL    HW188870   2.578   5.999   7.668 -0.1949 -0.0449 -0.3949
28276SOL    HW288871   2.439   5.944   7.642 -0.6217  0.6543  0.3676
28277SOL     OW88872   9.512   8.348   2.654 -0.4577  0.5623 -0.2478
28277SOL    HW188873   9.497   8.309   2.740 -3.9079  1.5562 -0.2262
28277SOL    HW288874   9.548   8.435   2.673 -1.2007  0.7760  0.2293
28278SOL     OW88875   2.529   4.878   6.039 -0.9160 -0.0542  0.1201
28278SOL    HW188876   2.458   4.878   6.103 -0.7537  0.3924  0.3043
28278SOL    HW288877   2.603   4.915   6.086 -1.4050  2.4831 -0.9887
28279SOL     OW88878   3.816   3.794   9.577 -0.3438  0.1778 -0.0214
28279SOL    HW188879   3.872   3.857   9.622  1.0211 -1.4507  0.6323
28279SOL    HW288880   3.832   3.810   9.484  3.4339 -1.9733  0.0541
28280SOL     OW88881   8.204   1.326   8.129 -0.3769  0.1697 -0.1929
28280SOL    HW188882   8.123   1.376   8.120 -0.5142 -0.1838 -1.1123
28280SOL    HW288883   8.182   1.254   8.188  0.0117  1.5285  1.7166
28281SOL     OW88884   7.252   0.252   6.777  0.4041  0.0550 -0.4306
28281SOL    HW188885   7.199   0.180   6.745  1.1259 -1.2251  1.1375
28281SOL    HW288886   7.190   0.310   6.821 -0.2892  0.8407 -2.3335
28282SOL     OW88887   3.508   0.976   8.200 -0.4187  0.3020  0.5921
28282SOL    HW188888   3.489   0.892   8.158  1.9707 -0.5533  1.0672
28282SOL    HW288889   3.550   0.953   8.282  2.0407  1.8790 -0.0857
28283SOL     OW88890   5.257   8.130   6.822 -0.1455 -0.6170 -0.0750
28283SOL    HW188891   5.315   8.200   6.794 -0.3491 -0.1524  0.6227
28283SOL    HW288892   5.269   8.126   6.917 -1.4129 -0.3496  0.1121
28284SOL     OW88893   6.004   3.735   0.138 -0.5210  0.2627 -0.1665
28284SOL    HW188894   6.063   3.663   0.159 -1.8157 -0.9855 -0.6743
28284SOL    HW288895   6.039   3.772   0.057  1.0595  1.2637  0.9292
28285SOL     OW88896   8.599   7.463   1.789 -0.2367 -0.0153 -0.4345
28285SOL    HW188897   8.521   7.414   1.764 -1.4962  1.6388  0.0201
28285SOL    HW288898   8.567   7.552   1.805  1.7017  0.6449  0.0822
28286SOL     OW88899   9.476   1.427   9.128 -0.3748 -0.1520  0.0548
28286SOL    HW188900   9.473   1.370   9.205 -0.8498 -0.0282  0.1311
28286SOL    HW288901   9.472   1.516   9.163 -0.6909 -0.0974 -0.1143
28287SOL     OW88902   2.315   0.422   2.618 -0.2562 -0.0426  0.3094
28287SOL    HW188903   2.380   0.409   2.549  0.9366  3.6279  0.5217
28287SOL    HW288904   2.359   0.394   2.698  0.0002 -0.1808  0.1227
28288SOL     OW88905   5.428   3.097   9.617 -0.5449 -0.1573 -0.1829
28288SOL    HW188906   5.505   3.119   9.668 -0.1233 -1.0093 -0.4422
28288SOL    HW288907   5.357   3.092   9.681 -0.3664  0.4927  0.0723
28289SOL     OW88908   8.003   3.599   6.317 -0.4216  0.1551 -0.0656
28289SOL    HW188909   8.040   3.659   6.252 -1.1526  1.2683  0.5207
28289SOL    HW288910   8.079   3.565   6.364  0.1136 -0.6197 -1.4348
28290SOL     OW88911   3.877   3.263   9.420  0.1836 -0.5352  0.3299
28290SOL    HW188912   3.908   3.183   9.462  3.5703  0.1163 -0.6210
28290SOL    HW288913   3.894   3.250   9.327 -0.7088  0.6959 -0.0352
28291SOL     OW88914   8.539   3.545   4.333 -0.5618  0.0143  0.3655
28291SOL    HW188915   8.553   3.500   4.416  0.9953  1.7276  1.1020
28291SOL    HW288916   8.612   3.518   4.278 -2.0203 -1.7612 -0.8325
28292SOL     OW88917  10.187   1.769   4.513 -0.5635  0.0734  0.9487
28292SOL    HW188918  10.196   1.722   4.596  0.2174  0.2133  0.9476
28292SOL    HW288919  10.098   1.750   4.484 -0.1751 -1.6373  0.7991
28293SOL     OW88920   7.599   2.660   5.268  0.1250 -0.3489 -0.4361
28293SOL    HW188921   7.584   2.676   5.175 -1.2974 -1.1809 -0.3776
28293SOL    HW288922   7.682   2.704   5.287  0.2997  0.0616 -2.0254
28294SOL     OW88923   4.423   1.991   8.493 -0.1245  0.1332 -0.2421
28294SOL    HW188924   4.368   2.064   8.524  0.8959  0.4838  0.8115
28294SOL    HW288925   4.454   2.019   8.407  1.0274  1.4067  0.5444
28295SOL     OW88926   4.723   1.796   6.716  0.0306 -0.1614 -0.2146
28295SOL    HW188927   4.713   1.713   6.764 -2.3051  1.4976  2.5369
28295SOL    HW288928   4.808   1.830   6.746 -0.9653  0.4041  2.2625
28296SOL     OW88929   7.719   0.171   4.025  0.2787 -0.1258 -0.4596
28296SOL    HW188930   7.634   0.148   4.061  0.8648 -0.3632  0.8041
28296SOL    HW288931   7.711   0.152   3.931 -0.8964 -0.5816 -0.2813
28297SOL     OW88932   5.267   3.521   4.535  0.0731 -0.3352  0.3260
28297SOL    HW188933   5.226   3.437   4.556  1.4144 -1.7041 -2.1025
28297SOL    HW288934   5.360   3.506   4.550  0.4950  0.1953 -1.4792
28298SOL     OW88935   2.627   5.491   1.285  0.0150  0.1819  0.3152
28298SOL    HW188936   2.609   5.442   1.366  0.1924  0.7306  0.6965
28298SOL    HW288937   2.703   5.545   1.307  0.0441  0.3615 -0.2130
28299SOL     OW88938   2.111   7.087   9.583 -0.2138  0.1899 -0.2166
28299SOL    HW188939   2.086   7.179   9.574 -1.7268 -0.3069 -1.5239
28299SOL    HW288940   2.041   7.048   9.636 -0.5900 -0.5856 -1.2596
28300SOL     OW88941   7.163   4.384   9.187 -0.4221 -0.4658  0.4339
28300SOL    HW188942   7.087   4.367   9.243 -0.7101 -0.9859 -0.1129
28300SOL    HW288943   7.133   4.364   9.098  0.4942 -1.1466  0.2666
28301SOL     OW88944   3.650   8.233   3.468 -0.4770  0.2633 -0.0084
28301SOL    HW188945   3.558   8.207   3.457 -0.6370  1.4215 -1.6854
28301SOL    HW288946   3.685   8.240   3.379  0.9548  0.8328  0.5626
28302SOL     OW88947   2.034   5.367   2.281  0.1973 -0.1976 -0.0351
28302SOL    HW188948   1.942   5.373   2.308  1.2458  0.4494  4.0523
28302SOL    HW288949   2.063   5.282   2.314  1.5352  0.5082  0.6785
28303SOL     OW88950   9.093   3.319   5.732 -0.5832  0.1668  0.1973
28303SOL    HW188951   9.095   3.377   5.808  0.7367  1.2500 -0.6047
28303SOL    HW288952   9.016   3.348   5.682 -0.6445  0.3938  0.4225
28304SOL     OW88953   1.299   9.719   3.138 -0.2145 -0.3629 -0.0943
28304SOL    HW188954   1.249   9.740   3.059 -1.8036  1.0788  1.1941
28304SOL    HW288955   1.251   9.645   3.177 -1.5220  1.1040  1.2108
28305SOL     OW88956   7.830   4.405   0.325  0.3208 -0.3279 -0.1024
28305SOL    HW188957   7.848   4.407   0.419  0.2669 -1.5182 -0.0467
28305SOL    HW288958   7.915   4.382   0.286 -0.2146 -2.5412 -0.1054
28306SOL     OW88959   8.031   0.709   3.605  0.2866 -0.3011 -0.1150
28306SOL    HW188960   8.009   0.642   3.670 -0.2966  0.7033  0.7521
28306SOL    HW288961   8.127   0.714   3.608  0.2365  0.2494  1.2216
28307SOL     OW88962   2.650   2.101   6.236  0.3269 -0.2373 -0.7342
28307SOL    HW188963   2.716   2.170   6.229  0.1216  0.0960  0.3806
28307SOL    HW288964   2.622   2.104   6.328 -1.9456  0.2981 -1.3786
28308SOL     OW88965   7.574   7.056   5.597  0.4435  0.0600 -0.1961
28308SOL    HW188966   7.661   7.082   5.626  0.1016  2.5988 -1.1767
28308SOL    HW288967   7.515   7.113   5.645 -0.6565 -1.0567 -0.1689
28309SOL     OW88968   5.042   7.126   1.318 -0.4287  0.3117 -0.6934
28309SOL    HW188969   5.010   7.215   1.304  2.2159  1.1374 -2.1461
28309SOL    HW288970   5.062   7.093   1.230  0.4138 -0.9997 -0.0421
28310SOL     OW88971   2.450   5.517   0.239 -0.1065  0.4806 -0.1617
28310SOL    HW188972   2.487   5.429   0.244 -1.6564 -0.2282 -0.4316
28310SOL    HW288973   2.526   5.575   0.237  0.9615 -0.7017  2.0527
28311SOL     OW88974   2.452   4.682   3.951  0.0584 -0.1025 -1.0929
28311SOL    HW188975   2.365   4.716   3.932  0.2654  2.0511  1.2985
28311SOL    HW288976   2.510   4.757   3.940  1.1305 -0.6554  0.4789
28312SOL     OW88977   5.373   7.894   5.728  0.1242 -0.1347 -0.0117
28312SOL    HW188978   5.335   7.982   5.731  0.4080  0.0390 -1.0788
28312SOL    HW288979   5.458   7.904   5.772 -0.5348 -0.2623  1.3327
28313SOL     OW88980   7.883   0.855   7.764  0.6898  0.0786 -0.0103
28313SOL    HW188981   7.908   0.912   7.692  0.6476 -0.1660 -0.2216
28313SOL    HW288982   7.910   0.767   7.736 -1.3418 -0.3809 -0.7388
28314SOL     OW88983   1.539   2.080   0.706 -0.3438 -0.4130  0.1127
28314SOL    HW188984   1.593   2.062   0.629 -1.6189 -0.0792 -0.8936
28314SOL    HW288985   1.476   2.007   0.708  0.3990 -1.0372  1.5231
28315SOL     OW88986   8.554   1.579   0.140  0.6617  0.2409 -0.8839
28315SOL    HW188987   8.584   1.543   0.057  1.2689  0.3517 -0.7131
28315SOL    HW288988   8.478   1.632   0.116  0.6723  0.0628 -1.3307
28316SOL     OW88989   4.143   6.758   9.071 -0.2390 -0.2783 -0.3319
28316SOL    HW188990   4.089   6.821   9.120 -0.5530 -0.0003 -1.0279
28316SOL    HW288991   4.123   6.775   8.979  0.3647 -0.7844 -0.5648
28317SOL     OW88992   2.475   5.620   8.075 -0.1518 -0.5155 -0.2423
28317SOL    HW188993   2.546   5.610   8.138  2.0761  0.3734 -2.4488
28317SOL    HW288994   2.415   5.683   8.115  0.4258 -1.0692  1.5543
28318SOL     OW88995   8.702   2.136   5.906  0.1773 -0.2230 -0.1093
28318SOL    HW188996   8.646   2.099   5.974  0.2952  0.3391  0.2927
28318SOL    HW288997   8.673   2.092   5.826 -0.2004 -0.6278  0.2427
28319SOL     OW88998   6.642   7.336   7.764 -0.1211  0.3071  0.0085
28319SOL    HW188999   6.548   7.325   7.752 -0.4047  2.0360  0.3418
28319SOL    HW289000   6.665   7.408   7.706  1.1115 -0.4286 -0.4547
28320SOL     OW89001   8.243   3.549   1.366  0.5685 -0.1678  0.1838
28320SOL    HW189002   8.186   3.555   1.443 -0.4387 -0.5224 -0.5162
28320SOL    HW289003   8.298   3.627   1.371  0.2175  0.0400  1.0238
28321SOL     OW89004   3.316   5.979   8.245 -0.2208  0.4470  0.1238
28321SOL    HW189005   3.341   6.063   8.284 -1.2684  1.6711 -1.6952
28321SOL    HW289006   3.360   5.978   8.160  1.7105 -1.9816  1.0540
28322SOL     OW89007   9.040   9.299   4.668 -0.1114 -0.4786  0.8563
28322SOL    HW189008   8.957   9.265   4.701 -0.0489 -1.4675  0.0264
28322SOL    HW289009   9.091   9.222   4.644  0.7190  0.1412  0.5470
28323SOL     OW89010   3.271   0.278   3.953 -0.3683  0.4599  0.2300
28323SOL    HW189011   3.227   0.195   3.936 -1.7491  0.9051  1.4693
28323SOL    HW289012   3.364   0.256   3.952 -0.6849 -0.9766 -0.0542
28324SOL     OW89013   3.463   8.160   2.437  0.3809  0.2329 -0.0329
28324SOL    HW189014   3.386   8.213   2.414  1.1613  0.3584 -2.7484
28324SOL    HW289015   3.525   8.222   2.474  0.7981  1.0625 -1.9875
28325SOL     OW89016   7.567  10.205   8.294  0.1735  0.2123  0.5949
28325SOL    HW189017   7.517  10.187   8.215 -0.2993 -1.5022  1.2437
28325SOL    HW289018   7.584  10.119   8.332 -0.4653  1.0170  2.8817
28326SOL     OW89019   3.725   7.473   2.526  0.7011 -0.0601  0.0208
28326SOL    HW189020   3.660   7.534   2.561 -1.0132 -2.1006  0.5604
28326SOL    HW289021   3.755   7.516   2.445 -0.3721  1.5197  0.3998
28327SOL     OW89022   1.236   9.283   8.163  0.4752 -0.5556  0.3054
28327SOL    HW189023   1.232   9.331   8.245  0.3080  1.1835 -0.6708
28327SOL    HW289024   1.313   9.318   8.118 -0.1583 -0.5603 -0.8151
28328SOL     OW89025   4.752   2.624   3.384 -0.2585 -0.2296  0.6119
28328SOL    HW189026   4.761   2.667   3.299 -0.8390  1.3346  1.3128
28328SOL    HW289027   4.842   2.608   3.413 -0.0352  0.5343  0.3458
28329SOL     OW89028   6.360   7.977   2.621  0.0648  0.3556 -0.3037
28329SOL    HW189029   6.447   7.997   2.655  0.2293  0.6690 -0.9048
28329SOL    HW289030   6.322   8.062   2.599  1.0358  0.0616 -3.5231
28330SOL     OW89031  10.003   0.022   7.046  0.1784  0.3636  0.0662
28330SOL    HW189032   9.949  -0.035   6.992  1.2661 -1.4708  0.8426
28330SOL    HW289033  10.093  -0.000   7.022  0.6454  1.6999  0.4752
28331SOL     OW89034   5.512   8.563   0.848 -0.3890  0.2777  0.5161
28331SOL    HW189035   5.444   8.617   0.807 -0.9963 -1.1836 -0.4636
28331SOL    HW289036   5.561   8.526   0.775  0.4633  0.0323  1.1909
28332SOL     OW89037   3.611   3.842   1.043 -0.3557  0.5669 -0.1019
28332SOL    HW189038   3.644   3.811   1.128  0.4476 -1.0523 -0.9569
28332SOL    HW289039   3.681   3.822   0.981 -1.2685  0.9369 -1.2963
28333SOL     OW89040   5.479   8.254   5.562  0.2338 -0.3530  0.1668
28333SOL    HW189041   5.471   8.349   5.575  1.4134 -0.1481 -0.4256
28333SOL    HW289042   5.400   8.217   5.601 -0.4077  0.9060  0.1062
28334SOL     OW89043   4.166   4.982   2.538 -0.0034  0.8256  0.2009
28334SOL    HW189044   4.215   5.025   2.467 -2.4615  2.3882 -0.6895
28334SOL    HW289045   4.153   5.051   2.603 -0.7175  0.3728  0.5492
28335SOL     OW89046   8.722   7.297   7.529 -0.4802 -0.1160  0.1424
28335SOL    HW189047   8.641   7.346   7.518 -0.8658 -1.0005 -1.1771
28335SOL    HW289048   8.715   7.223   7.468  0.5632 -1.1900  1.2539
28336SOL     OW89049   9.684   5.586   6.396  0.1534 -0.0234  0.7285
28336SOL    HW189050   9.633   5.587   6.478  1.5593  1.5189  1.6490
28336SOL    HW289051   9.728   5.502   6.396 -2.7726 -1.7258 -0.4305
28337SOL     OW89052   0.015   1.787   6.195 -0.2551  0.6915 -0.3203
28337SOL    HW189053   0.092   1.730   6.203 -1.3030 -0.8719 -0.9278
28337SOL    HW289054   0.031   1.837   6.115  1.4663  2.6054  1.0941
28338SOL     OW89055   0.410   8.642   6.363 -0.4738  0.4017 -0.5331
28338SOL    HW189056   0.344   8.623   6.296 -0.4749 -1.0362 -0.1597
28338SOL    HW289057   0.361   8.644   6.445 -0.7789  3.8974 -0.6522
28339SOL     OW89058   9.707   6.180   8.726  0.0757  0.1046 -0.1313
28339SOL    HW189059   9.792   6.199   8.686 -0.1318  0.3399 -0.4656
28339SOL    HW289060   9.676   6.264   8.757  0.5453 -0.1823  1.1642
28340SOL     OW89061   2.457   8.015   1.119  0.5222  0.0073  0.0746
28340SOL    HW189062   2.517   7.964   1.065  0.7568  1.1307 -0.7654
28340SOL    HW289063   2.514   8.071   1.172  0.2585  2.2420 -1.8800
28341SOL     OW89064   6.303   5.385   7.774  0.2682 -0.2340 -0.5308
28341SOL    HW189065   6.362   5.359   7.845  1.1358  0.1924 -1.0769
28341SOL    HW289066   6.220   5.402   7.817  1.2579  1.8642  0.7090
28342SOL     OW89067   5.690   1.516   1.084 -0.5439  0.1669  0.7155
28342SOL    HW189068   5.765   1.460   1.106 -1.8030 -1.2096  1.7827
28342SOL    HW289069   5.707   1.547   0.995  1.3596  0.0465  1.0109
28343SOL     OW89070   1.210   3.732   9.096  0.3715  0.2249 -0.1727
28343SOL    HW189071   1.212   3.782   9.177  1.0026  0.1375 -0.1234
28343SOL    HW289072   1.228   3.642   9.123  1.8801  0.3880 -0.5265
28344SOL     OW89073   5.292   7.275   6.468  0.7201  0.2639 -0.1975
28344SOL    HW189074   5.373   7.316   6.499  0.5136  1.3123 -1.0052
28344SOL    HW289075   5.322   7.207   6.407  0.9924  0.8069 -0.6790
28345SOL     OW89076   2.201   5.843   0.829  0.2228 -0.3866 -0.9758
28345SOL    HW189077   2.211   5.898   0.752  1.8549 -0.5226 -0.8973
28345SOL    HW289078   2.278   5.862   0.882  0.7619 -2.5939 -0.8692
28346SOL     OW89079   9.672   4.627   2.770 -0.4218 -0.1024  0.5417
28346SOL    HW189080   9.637   4.590   2.851  0.2918  0.6247  1.1913
28346SOL    HW289081   9.594   4.645   2.716 -0.8117 -2.9769 -0.0342
28347SOL     OW89082   3.305   9.541   3.210  0.3184  0.7187  0.5897
28347SOL    HW189083   3.395   9.512   3.224 -0.5019 -1.4791  1.6567
28347SOL    HW289084   3.307   9.581   3.123  1.8186 -1.5782 -0.5362
28348SOL     OW89085   0.061   5.604   1.870  0.0116  0.5132 -0.1479
28348SOL    HW189086   0.137   5.661   1.876 -0.0163  0.5217  0.1249
28348SOL    HW289087   0.039   5.602   1.777  1.2593 -0.6749 -0.4486
28349SOL     OW89088   1.539   6.744   3.308  0.1205  0.2298  0.0689
28349SOL    HW189089   1.594   6.822   3.322  0.7108 -0.1416 -0.1284
28349SOL    HW289090   1.494   6.731   3.391  1.2454 -0.1535  0.6377
28350SOL     OW89091   3.119   0.258   9.608 -0.0787  0.2426  0.1785
28350SOL    HW189092   3.073   0.341   9.594  2.3155  1.6631 -0.0149
28350SOL    HW289093   3.174   0.274   9.685  1.8924 -0.4179 -1.0035
28351SOL     OW89094   1.001   2.944   5.613  0.0293  0.1251 -0.4877
28351SOL    HW189095   0.927   2.883   5.609 -0.2411  0.4737 -0.8068
28351SOL    HW289096   1.044   2.923   5.696 -0.9999  0.5806  0.1851
28352SOL     OW89097   2.071   3.160   3.086  0.5172 -0.3814  0.1348
28352SOL    HW189098   2.093   3.150   2.994 -0.5416 -1.8934  0.0057
28352SOL    HW289099   2.041   3.073   3.113 -1.1196  0.5100  1.3700
28353SOL     OW89100   7.833   1.998   2.684 -0.1876  0.0268 -0.2789
28353SOL    HW189101   7.922   1.974   2.711 -1.0789 -2.6647  0.6776
28353SOL    HW289102   7.834   1.993   2.589  0.3402 -1.5987 -0.2176
28354SOL     OW89103   7.932   8.578   3.280 -0.6015  0.5132 -0.0873
28354SOL    HW189104   7.887   8.557   3.198 -0.8251  1.0188 -0.0959
28354SOL    HW289105   7.902   8.666   3.302 -1.0757  0.1220  0.8995
28355SOL     OW89106   4.922   4.342   0.505 -0.1637 -0.3611  0.0682
28355SOL    HW189107   4.954   4.431   0.490 -0.0091 -0.5442 -0.7565
28355SOL    HW289108   4.878   4.346   0.590  1.0606  0.1618  0.6930
28356SOL     OW89109   4.606   7.812   2.136  1.1798  0.5600 -0.3837
28356SOL    HW189110   4.634   7.900   2.161  0.9966  0.3544  0.5706
28356SOL    HW289111   4.665   7.788   2.065  2.8677  0.4759  0.9881
28357SOL     OW89112   4.596   6.815   4.305 -0.2200  0.1012  0.7918
28357SOL    HW189113   4.593   6.797   4.211 -1.6426  1.9645  0.4072
28357SOL    HW289114   4.669   6.762   4.337  1.3905  0.6349 -1.6491
28358SOL     OW89115   2.111   2.866   9.512  0.0088 -0.4491 -0.1463
28358SOL    HW189116   2.143   2.895   9.597  2.6715  0.7795 -1.4502
28358SOL    HW289117   2.016   2.879   9.515  0.2992  1.5961  1.8720
28359SOL     OW89118   4.208   8.542   8.964 -0.5464 -0.0273  0.4643
28359SOL    HW189119   4.146   8.595   9.014  0.2512 -0.0053  1.4617
28359SOL    HW289120   4.246   8.603   8.900 -1.5724 -0.0562 -0.1996
28360SOL     OW89121   6.155   0.798   0.036  0.1242 -0.4279  0.0048
28360SOL    HW189122   6.164   0.831  -0.054  0.5368 -0.2048  0.1274
28360SOL    HW289123   6.169   0.703   0.028  2.6282 -0.1192  0.1760
28361SOL     OW89124   2.956   8.841   2.815 -0.3945 -0.8949  0.0029
28361SOL    HW189125   2.946   8.775   2.884  1.7253 -1.2669 -0.0020
28361SOL    HW289126   3.033   8.891   2.841 -1.3465  0.9428 -0.5406
28362SOL     OW89127   7.365   4.005   0.189 -0.4882  0.8788 -0.4530
28362SOL    HW189128   7.398   3.920   0.159  1.8054  2.3271 -2.3567
28362SOL    HW289129   7.285   3.984   0.237  0.0048 -2.3400 -0.8258
28363SOL     OW89130   4.998   7.995   0.375  0.2094 -0.5185  0.4847
28363SOL    HW189131   5.043   8.026   0.297  1.3836 -2.3280  0.3853
28363SOL    HW289132   5.067   7.983   0.440 -0.5299 -0.6256  1.2716
28364SOL     OW89133   0.785   2.662   4.597  0.3400  0.0273 -0.3849
28364SOL    HW189134   0.807   2.615   4.517  0.8381 -0.2571 -0.0788
28364SOL    HW289135   0.807   2.753   4.577 -0.1890  0.0717 -0.8103
28365SOL     OW89136   0.196   0.965   1.305  0.0995  0.5318  0.2308
28365SOL    HW189137   0.169   0.996   1.218  1.7611  1.6859  0.0790
28365SOL    HW289138   0.216   0.873   1.292 -1.9758  0.0836 -0.0363
28366SOL     OW89139   3.460   6.422   1.010  0.1839  0.0577  0.3423
28366SOL    HW189140   3.555   6.426   0.998  0.0037  1.3483 -0.8838
28366SOL    HW289141   3.427   6.378   0.932 -0.3120  0.7508  0.1470
28367SOL     OW89142   5.199   4.487  10.069  0.8159 -0.0953 -0.5094
28367SOL    HW189143   5.280   4.471  10.021  1.9787 -1.0637  1.6413
28367SOL    HW289144   5.219   4.461  10.159 -1.6670  0.3525  0.2400
28368SOL     OW89145   0.150   7.544   5.048 -0.1160 -0.6079 -0.7728
28368SOL    HW189146   0.117   7.548   4.958 -0.3418 -0.7635 -0.7004
28368SOL    HW289147   0.232   7.592   5.046 -0.2871 -0.3209 -0.9884
28369SOL     OW89148   9.882   6.966   2.475 -0.1656 -0.0227  0.7263
28369SOL    HW189149   9.956   6.944   2.419 -1.7076  0.1345 -1.5643
28369SOL    HW289150   9.912   6.950   2.564  1.6502 -2.7770 -0.2582
28370SOL     OW89151   5.998   6.717   8.108  0.3368 -0.3631  0.6394
28370SOL    HW189152   6.049   6.752   8.035  0.6231 -1.2229  0.4166
28370SOL    HW289153   6.063   6.676   8.165  0.0158 -0.4836  0.9197
28371SOL     OW89154   0.565   2.407   5.729 -0.1842  0.4992 -0.5560
28371SOL    HW189155   0.504   2.341   5.763  0.6879 -0.1092 -0.1497
28371SOL    HW289156   0.599   2.369   5.648 -0.4614  0.9122 -0.8722
28372SOL     OW89157  10.203   1.239   7.681 -0.6104  0.2736  0.3204
28372SOL    HW189158  10.237   1.207   7.597 -2.3149  0.1869 -0.3768
28372SOL    HW289159  10.172   1.160   7.726  1.1420  0.1971  1.4763
28373SOL     OW89160   1.365   1.825  10.186  0.4400  0.0539  0.0294
28373SOL    HW189161   1.444   1.774  10.200  0.1817  0.2688  2.7314
28373SOL    HW289162   1.368   1.893  10.253 -2.0825 -0.0030  0.3038
28374SOL     OW89163   0.712   6.547   1.133  0.0054 -0.2052 -0.1220
28374SOL    HW189164   0.801   6.563   1.165  0.5017 -0.7419 -1.1675
28374SOL    HW289165   0.713   6.455   1.107 -0.7676 -0.1307 -0.4348
28375SOL     OW89166   1.217   6.994   4.170 -0.1749 -0.7449  0.3727
28375SOL    HW189167   1.189   7.023   4.084  0.0076  1.4354  0.9723
28375SOL    HW289168   1.170   6.913   4.185 -1.8178 -0.0827 -0.9309
28376SOL     OW89169   5.596   5.478   8.875 -0.1185 -0.7234 -0.2949
28376SOL    HW189170   5.538   5.407   8.851  0.3948 -1.6565  1.0748
28376SOL    HW289171   5.677   5.461   8.827 -0.6185  0.0334 -1.4468
28377SOL     OW89172   0.658   3.399   4.950 -0.0900 -0.5271 -0.1232
28377SOL    HW189173   0.702   3.314   4.947 -0.7136 -0.9186  1.0814
28377SOL    HW289174   0.577   3.385   4.902 -0.6323 -0.9147  0.8622
28378SOL     OW89175   3.599   4.361   6.137  0.4725 -0.6712 -0.5321
28378SOL    HW189176   3.534   4.320   6.194 -0.4900  1.3382 -0.0784
28378SOL    HW289177   3.547   4.420   6.081  1.7240 -0.3952 -1.4540
28379SOL     OW89178   8.850   9.751   2.635  0.0054  0.4022 -0.0096
28379SOL    HW189179   8.794   9.676   2.656  0.8143  0.1958  1.4917
28379SOL    HW289180   8.881   9.734   2.546 -1.7017  0.1654 -0.5997
28380SOL     OW89181   9.309   4.470   9.587 -0.1117 -0.0044  0.0347
28380SOL    HW189182   9.361   4.402   9.629  0.8788 -1.1676 -2.8017
28380SOL    HW289183   9.359   4.550   9.601  1.6017 -0.8119 -1.1081
28381SOL     OW89184   5.304   2.646   3.367  0.5362 -0.4432  0.0706
28381SOL    HW189185   5.337   2.694   3.291  0.7785 -0.3071  0.2596
28381SOL    HW289186   5.358   2.568   3.371  1.3223  0.1129  0.7921
28382SOL     OW89187   7.947   4.129  10.186  0.0386 -0.1262 -0.5769
28382SOL    HW189188   7.999   4.180  10.124  0.5703 -1.0481 -0.9155
28382SOL    HW289189   8.006   4.059  10.215 -0.4333 -0.1089  0.4449
28383SOL     OW89190   5.045   4.962   2.128  0.1807  0.4869 -0.0070
28383SOL    HW189191   5.000   5.003   2.202 -0.3301  0.8456 -0.5065
28383SOL    HW289192   5.128   5.010   2.121  0.1126  0.6336  0.1656
28384SOL     OW89193   6.568   7.171   7.203 -0.1867  0.0581  0.7260
28384SOL    HW189194   6.614   7.253   7.185 -1.6240  1.2068  2.0220
28384SOL    HW289195   6.593   7.113   7.131  0.8745  1.6157 -0.2210
28385SOL     OW89196   9.399   3.645   4.196 -0.2911  0.6426  0.2537
28385SOL    HW189197   9.441   3.704   4.134 -0.1582  1.0248  0.7028
28385SOL    HW289198   9.416   3.684   4.282 -0.0774 -0.1273  0.5668
28386SOL     OW89199   9.354   1.638   7.038  0.3181  0.4670 -1.0048
28386SOL    HW189200   9.399   1.689   7.105  0.2881 -0.3356 -0.3553
28386SOL    HW289201   9.423   1.615   6.975  0.4788  0.6486 -0.8960
28387SOL     OW89202   6.190   6.342   1.500 -0.1094  0.1155 -0.0884
28387SOL    HW189203   6.238   6.417   1.534  1.4051 -1.1211  0.6313
28387SOL    HW289204   6.098   6.365   1.512  0.3313  0.8827  2.3329
28388SOL     OW89205   2.299   2.665   6.789 -0.5808  0.2529 -0.0657
28388SOL    HW189206   2.377   2.717   6.808 -0.5013  0.4937 -0.9891
28388SOL    HW289207   2.260   2.708   6.712 -0.7540 -0.7874 -0.5712
28389SOL     OW89208   2.857   6.011   0.463 -0.0019  0.3488  0.3255
28389SOL    HW189209   2.901   5.946   0.409 -1.1895  1.1592 -1.7502
28389SOL    HW289210   2.921   6.082   0.471  0.5214 -0.1741  0.7572
28390SOL     OW89211   9.863   1.953   0.212 -0.4371  0.6485  0.1614
28390SOL    HW189212   9.860   1.967   0.307  0.2538  0.2097  0.2549
28390SOL    HW289213   9.865   2.042   0.176  0.9325  0.8479  0.6375
28391SOL     OW89214   8.552   5.097   3.468  0.2166 -0.2742 -0.0279
28391SOL    HW189215   8.521   5.027   3.526  0.6332 -0.6106 -0.2030
28391SOL    HW289216   8.487   5.100   3.397 -0.2814  0.1238  0.4417
28392SOL     OW89217   2.686   6.012   4.589 -0.4014  0.3734  0.1288
28392SOL    HW189218   2.717   6.041   4.676 -0.5791 -0.8601  0.6175
28392SOL    HW289219   2.614   5.952   4.608 -1.5274  1.3260 -0.9401
28393SOL     OW89220   2.372   4.969   9.695 -0.4111 -0.4177 -0.6725
28393SOL    HW189221   2.329   5.039   9.645 -0.3519 -0.9646 -1.5159
28393SOL    HW289222   2.367   4.893   9.638 -1.7575 -1.4998  0.8314
28394SOL     OW89223   5.726   2.103   1.432  0.0469 -0.1286 -0.4351
28394SOL    HW189224   5.676   2.022   1.421  0.9931 -0.5196 -2.1928
28394SOL    HW289225   5.663   2.173   1.411 -0.1090 -0.5443 -1.3834
28395SOL     OW89226   6.011   4.208   5.337  0.1084  0.6260  0.3297
28395SOL    HW189227   6.067   4.278   5.303  0.1404 -0.1036 -1.1776
28395SOL    HW289228   5.928   4.219   5.291 -0.1872  0.2143  0.7502
28396SOL     OW89229   8.535   9.768   5.936  0.4826 -0.0811 -0.1477
28396SOL    HW189230   8.545   9.689   5.884 -1.6686 -0.0882 -0.6622
28396SOL    HW289231   8.525   9.839   5.872 -0.0029  0.2323  0.2617
28397SOL     OW89232   6.150   8.723   7.728  0.3479  0.3108  0.0170
28397SOL    HW189233   6.077   8.694   7.673  1.3438 -1.6430 -0.3639
28397SOL    HW289234   6.185   8.800   7.683  0.6792 -0.8158 -1.7198
28398SOL     OW89235   7.070   3.776   8.857  0.1806 -0.2115  0.4229
28398SOL    HW189236   7.074   3.712   8.786 -0.8734 -0.7963  0.8631
28398SOL    HW289237   7.090   3.725   8.936  0.3801  0.2265  0.6554
28399SOL     OW89238   9.060   6.643   9.740  0.0474  0.2240  0.0864
28399SOL    HW189239   9.027   6.554   9.751 -2.0507  1.1228  1.6218
28399SOL    HW289240   9.054   6.683   9.827  3.8419  1.0100  0.1566
28400SOL     OW89241   6.651   0.054   4.013 -0.1316  0.2250 -0.6886
28400SOL    HW189242   6.744   0.055   3.991 -0.4385  0.9203 -2.0684
28400SOL    HW289243   6.629  -0.039   4.018  0.8053  0.0421  0.5226
28401SOL     OW89244  10.165   0.765   4.416 -0.4286  0.5168  0.0106
28401SOL    HW189245  10.168   0.744   4.323 -0.3375  0.6946 -0.0276
28401SOL    HW289246  10.122   0.850   4.420 -2.5421 -0.4936  0.2984
28402SOL     OW89247   1.970   0.439   8.745 -0.2035 -0.2165 -0.0186
28402SOL    HW189248   1.934   0.426   8.658 -1.7794 -0.0398  0.5727
28402SOL    HW289249   1.920   0.380   8.801 -1.3745  1.8586  1.2471
28403SOL     OW89250   8.395   7.688   3.590  0.3795 -0.5139  0.4328
28403SOL    HW189251   8.478   7.641   3.579  0.6285 -0.0577  0.3558
28403SOL    HW289252   8.393   7.752   3.519  0.4716  0.2127  1.0678
28404SOL     OW89253   2.943   1.876   9.937  0.2354  0.2758 -0.0103
28404SOL    HW189254   2.942   1.946  10.002 -1.0630  1.5850 -1.3514
28404SOL    HW289255   2.970   1.919   9.856 -1.3365 -0.5458 -1.0389
28405SOL     OW89256   4.784   0.685  10.187 -0.2614  0.3750  0.1118
28405SOL    HW189257   4.766   0.731  10.269  1.0609  0.6033  0.3055
28405SOL    HW289258   4.795   0.593  10.213 -2.5645 -0.0380 -0.2283
28406SOL     OW89259   7.110   0.413   1.229 -0.3826 -0.5430 -0.2243
28406SOL    HW189260   7.162   0.334   1.213 -1.0514 -1.7070  2.7299
28406SOL    HW289261   7.019   0.384   1.220 -0.6145  0.3338 -0.7754
28407SOL     OW89262   0.419   5.387   9.767  0.2023  0.7127 -0.1158
28407SOL    HW189263   0.405   5.471   9.724  1.1834  1.8521  1.6369
28407SOL    HW289264   0.489   5.346   9.717 -0.7470  0.6035 -1.3998
28408SOL     OW89265   3.725   8.877   2.267 -0.1537 -0.4159 -0.3955
28408SOL    HW189266   3.679   8.860   2.185  2.0501 -1.0972 -1.5828
28408SOL    HW289267   3.788   8.805   2.274  0.5234  0.3023  1.2745
28409SOL     OW89268  10.268   8.604   7.295  1.0055 -0.0417 -0.3110
28409SOL    HW189269  10.260   8.686   7.343  0.6234 -0.3867  0.2240
28409SOL    HW289270  10.242   8.626   7.206  3.1750  0.9580 -0.7753
28410SOL     OW89271   7.585  10.176   3.217  0.3514 -0.2952  0.1941
28410SOL    HW189272   7.542  10.091   3.210  1.1158 -0.6689 -0.0597
28410SOL    HW289273   7.513  10.238   3.230 -0.1862 -1.0177  0.7416
28411SOL     OW89274   8.730   8.781   9.491  0.0109 -0.3922 -0.3876
28411SOL    HW189275   8.680   8.700   9.478  0.0838 -0.7603  1.3340
28411SOL    HW289276   8.664   8.848   9.510 -0.0557  0.0112 -1.9051
28412SOL     OW89277   0.200   5.846   8.099 -0.2085 -0.1059 -0.3775
28412SOL    HW189278   0.209   5.798   8.016 -0.5937 -1.1481  0.1641
28412SOL    HW289279   0.172   5.934   8.072 -0.1268 -0.3644 -1.3651
28413SOL     OW89280   6.230   7.021   1.378 -0.1416  0.0100 -0.4007
28413SOL    HW189281   6.291   7.092   1.360 -0.3632  0.0938 -0.8357
28413SOL    HW289282   6.236   7.008   1.473  3.1853 -2.3647 -0.7516
28414SOL     OW89283   8.593   8.903   7.900  0.4072  0.3767 -0.5675
28414SOL    HW189284   8.606   8.867   7.813  0.5178 -0.1392 -0.3425
28414SOL    HW289285   8.551   8.833   7.949 -1.3508  1.2950 -0.7015
28415SOL     OW89286   2.819   2.486   1.356  0.3129 -0.1763 -0.3033
28415SOL    HW189287   2.893   2.437   1.319  0.5058  1.2239 -1.9040
28415SOL    HW289288   2.754   2.489   1.286 -1.1702 -1.0868  0.9656
28416SOL     OW89289   1.910   5.018   0.275  0.0295  0.1512 -0.0642
28416SOL    HW189290   2.003   5.023   0.253 -0.2512 -0.3139 -1.5002
28416SOL    HW289291   1.868   5.079   0.214 -0.7411 -0.7622 -0.4716
28417SOL     OW89292   1.965   5.957  10.255  0.2466 -0.4898  0.0065
28417SOL    HW189293   1.920   5.881  10.291 -1.0628 -0.3154 -1.1637
28417SOL    HW289294   2.034   5.976  10.318 -1.0942 -0.9850  1.7152
28418SOL     OW89295   7.455   8.845   8.560  0.3129  0.0957 -0.2807
28418SOL    HW189296   7.439   8.817   8.650 -1.8035  1.9739  0.0048
28418SOL    HW289297   7.378   8.816   8.511  0.5160  0.8197 -1.0556
28419SOL     OW89298   2.032   3.691   7.023 -0.1136  0.1383 -0.3355
28419SOL    HW189299   1.950   3.734   6.998 -0.6149 -1.2728 -1.2414
28419SOL    HW289300   2.100   3.752   6.997 -0.8481  1.2379  0.2205
28420SOL     OW89301   7.480   1.432   2.944 -0.1928 -0.0241 -0.1268
28420SOL    HW189302   7.561   1.385   2.965  0.3155  0.6575 -0.4932
28420SOL    HW289303   7.432   1.373   2.886 -0.8747 -1.2513  1.5804
28421SOL     OW89304  10.157   7.768   1.970 -0.1168  0.6491  0.7595
28421SOL    HW189305  10.130   7.684   2.008  1.4171  0.0795  0.6621
28421SOL    HW289306  10.218   7.744   1.900 -2.3767  1.6902 -1.7489
28422SOL     OW89307   2.400   7.345   6.241  0.1786  0.1247  0.2151
28422SOL    HW189308   2.394   7.352   6.336 -0.6152 -0.8086  0.2516
28422SOL    HW289309   2.312   7.367   6.210 -0.2484 -1.8766 -0.1255
28423SOL     OW89310   9.504   4.548   4.211  0.5922  0.7335 -0.0227
28423SOL    HW189311   9.525   4.584   4.297  0.2446  0.4741  0.1730
28423SOL    HW289312   9.453   4.469   4.230  0.7548  0.5179 -0.4594
28424SOL     OW89313   0.488   5.041   4.990  0.0303  0.2651  0.4876
28424SOL    HW189314   0.454   4.952   4.998  1.7511 -0.4181  0.7571
28424SOL    HW289315   0.414   5.097   5.014 -1.6379 -0.9797 -1.4765
28425SOL     OW89316   6.781   4.647   8.270 -0.3532  0.2228  0.4702
28425SOL    HW189317   6.741   4.600   8.197  0.4916  2.0872 -1.2851
28425SOL    HW289318   6.708   4.692   8.312 -0.4797  1.9065 -1.4151
28426SOL     OW89319  10.265   0.274   3.516 -0.0173  0.7146 -0.4374
28426SOL    HW189320  10.248   0.252   3.424  2.2763  0.4364 -0.8494
28426SOL    HW289321  10.290   0.191   3.556  3.0893  1.4462 -0.6311
28427SOL     OW89322   1.825   8.237   8.370 -0.0969 -0.4273  0.3761
28427SOL    HW189323   1.784   8.174   8.430 -0.1503 -1.1817 -0.4238
28427SOL    HW289324   1.910   8.199   8.351  0.5351  0.5634  1.1303
28428SOL     OW89325   2.520   0.565   4.676 -0.3000 -0.3758  0.0857
28428SOL    HW189326   2.601   0.586   4.722 -0.3918  1.9576 -0.6884
28428SOL    HW289327   2.548   0.541   4.587 -0.4181  0.4380 -0.1841
28429SOL     OW89328  10.158   3.323   0.074  0.8068 -0.2342  0.1683
28429SOL    HW189329  10.191   3.329  -0.016  0.9355  2.8477  0.3297
28429SOL    HW289330  10.072   3.282   0.065  0.4744  0.7410 -1.4683
28430SOL     OW89331   3.363   2.482   4.686  0.2677  0.3146  0.5328
28430SOL    HW189332   3.271   2.457   4.682  0.0196  0.9629  1.8539
28430SOL    HW289333   3.378   2.507   4.777  2.2706 -1.7109  0.8523
28431SOL     OW89334   3.141   3.220   6.478 -0.1409 -0.3529 -0.5254
28431SOL    HW189335   3.132   3.278   6.554  1.4468  0.0866 -0.6227
28431SOL    HW289336   3.223   3.174   6.493  1.4350  1.3763 -2.9631
28432SOL     OW89337   6.726   0.760   6.935  0.4888 -0.0961  0.1539
28432SOL    HW189338   6.773   0.840   6.913 -0.9052  0.6048 -0.3629
28432SOL    HW289339   6.656   0.754   6.871 -1.0364 -0.3137  1.7606
28433SOL     OW89340   7.941   8.506   1.807  0.3373 -0.3211 -0.4836
28433SOL    HW189341   7.948   8.565   1.732  0.5562 -0.5696 -0.6582
28433SOL    HW289342   8.024   8.516   1.854  0.3067 -0.3635 -0.4193
28434SOL     OW89343   3.497   3.729   2.332 -0.0087 -0.3678  0.2668
28434SOL    HW189344   3.462   3.818   2.328 -0.2546 -0.5107 -1.2910
28434SOL    HW289345   3.538   3.716   2.247  1.0377 -1.3508  0.9008
28435SOL     OW89346   6.697   0.292   7.333  0.4954 -0.4685  0.4885
28435SOL    HW189347   6.717   0.277   7.426 -0.3792  0.0172  0.7743
28435SOL    HW289348   6.660   0.381   7.331  0.9325 -0.2954 -0.3996
28436SOL     OW89349   2.558   1.878   2.251 -0.4125  0.0793  0.5500
28436SOL    HW189350   2.627   1.817   2.226 -1.6760 -0.4634 -1.9309
28436SOL    HW289351   2.565   1.949   2.187 -1.1938  0.7975  1.2411
28437SOL     OW89352   3.709   1.798   0.855  0.1762 -0.2302 -0.1061
28437SOL    HW189353   3.802   1.787   0.877  0.0312 -0.6994  0.2864
28437SOL    HW289354   3.678   1.709   0.841 -0.1867 -0.0617 -0.3575
28438SOL     OW89355   4.953   7.846   9.080 -0.5804  0.0458  0.3311
28438SOL    HW189356   5.021   7.834   9.147 -1.4525  0.1880  1.2736
28438SOL    HW289357   4.922   7.758   9.061 -0.8571  0.0614  0.6910
28439SOL     OW89358   4.866   2.582   4.707 -0.4706  0.2263  0.2005
28439SOL    HW189359   4.794   2.624   4.752 -0.3121  0.8748 -0.1412
28439SOL    HW289360   4.943   2.633   4.731 -0.4569  0.9011 -1.1922
28440SOL     OW89361   4.787   8.934   0.574 -0.4871 -0.3613 -0.1913
28440SOL    HW189362   4.857   8.871   0.589 -0.9873 -1.2113 -1.2506
28440SOL    HW289363   4.810   9.009   0.628  0.6032 -1.0944  0.4024
28441SOL     OW89364   6.383   6.906   8.291  0.0135  0.2800 -0.1966
28441SOL    HW189365   6.404   6.926   8.382  0.1413  0.1322 -0.1921
28441SOL    HW289366   6.352   6.815   8.294  2.4185 -0.6261 -0.6457
28442SOL     OW89367   6.264   5.798   0.818 -0.3900  0.5134  0.4168
28442SOL    HW189368   6.346   5.818   0.774 -0.7216  1.7999  0.3521
28442SOL    HW289369   6.279   5.823   0.910 -0.6096  0.4544  0.4696
28443SOL     OW89370   0.753   3.508   6.566 -0.6923 -0.9753 -0.2789
28443SOL    HW189371   0.666   3.547   6.556  0.4016  1.7746  0.0544
28443SOL    HW289372   0.760   3.488   6.659  0.1043  1.8224  0.3548
28444SOL     OW89373   0.522   1.631   3.007 -0.3362  0.0088  0.0525
28444SOL    HW189374   0.612   1.658   2.987 -0.5073  1.3986  1.0027
28444SOL    HW289375   0.483   1.612   2.922  0.5668  0.3275 -0.4510
28445SOL     OW89376   3.616   8.353   8.702  0.0919 -0.3913 -0.0914
28445SOL    HW189377   3.587   8.272   8.745  1.1895 -0.5953  0.3098
28445SOL    HW289378   3.597   8.422   8.765  0.8689 -0.5812  0.3723
28446SOL     OW89379   7.668   0.246   6.194 -0.0615 -0.2764 -0.1307
28446SOL    HW189380   7.590   0.271   6.244  0.5103 -0.2209  0.7469
28446SOL    HW289381   7.666   0.150   6.194  1.3352 -0.4051  2.3509
28447SOL     OW89382   5.619   0.084   1.465 -0.3711  0.4726 -0.4606
28447SOL    HW189383   5.559   0.012   1.483 -0.0114  0.1630 -0.4938
28447SOL    HW289384   5.706   0.046   1.473 -0.1771  0.4689 -2.1531
28448SOL     OW89385   7.123   1.962   7.196 -0.2113 -0.2378  0.1347
28448SOL    HW189386   7.145   1.888   7.253  1.3440  0.3868  0.3826
28448SOL    HW289387   7.165   2.038   7.237 -0.7833  0.5884 -0.7528
28449SOL     OW89388   1.645   6.226   2.745  0.0412  0.0566  0.0044
28449SOL    HW189389   1.646   6.294   2.812 -0.3932 -0.5767  0.6638
28449SOL    HW289390   1.728   6.236   2.699  0.0647  0.9090  0.2121
28450SOL     OW89391   7.202   0.667   1.278  0.2514  0.3499 -0.5201
28450SOL    HW189392   7.290   0.645   1.307 -0.7314  0.5662  3.1924
28450SOL    HW289393   7.167   0.585   1.242  0.8504 -0.7702  1.2912
28451SOL     OW89394   0.632   9.391   8.072 -0.0957  0.2688 -0.7021
28451SOL    HW189395   0.582   9.374   8.151 -0.6629  0.5708 -0.9892
28451SOL    HW289396   0.724   9.384   8.099 -0.2778 -1.8748 -0.5165
28452SOL     OW89397   0.877   1.534   9.081 -0.1543 -0.0625 -0.2713
28452SOL    HW189398   0.810   1.472   9.051  0.5301  0.1260 -2.3159
28452SOL    HW289399   0.860   1.544   9.175 -1.3714 -1.9818 -0.2415
28453SOL     OW89400   3.427   3.500   8.355  0.4140  0.1528  0.1458
28453SOL    HW189401   3.502   3.459   8.398  0.0010 -2.5856 -1.4927
28453SOL    HW289402   3.374   3.535   8.427  1.0798 -1.8170  1.7051
28454SOL     OW89403   4.294   5.105   2.314  0.5685 -0.5904 -0.4329
28454SOL    HW189404   4.249   5.165   2.255 -0.9226 -1.8899 -0.6716
28454SOL    HW289405   4.288   5.020   2.272 -0.3609 -1.5255  1.4531
28455SOL     OW89406   2.826   3.113   9.439  0.4643  0.2623 -0.2483
28455SOL    HW189407   2.789   3.196   9.410 -0.1040  0.0722 -0.0677
28455SOL    HW289408   2.914   3.111   9.400  1.4385  2.0327  1.6378
28456SOL     OW89409   5.983  10.086   7.490  0.3763 -0.1644  0.6239
28456SOL    HW189410   6.067  10.123   7.517  0.4883 -0.8839  1.2791
28456SOL    HW289411   5.975  10.005   7.540  0.3635 -1.3079 -1.1615
28457SOL     OW89412   4.245   6.938   9.934  0.4090  0.4453  0.4372
28457SOL    HW189413   4.187   7.000   9.891  0.9440  0.9944  0.5017
28457SOL    HW289414   4.297   6.991   9.995  1.2330  0.0238  0.1178
28458SOL     OW89415   4.702   6.340   6.415  0.2049  0.0578 -0.4678
28458SOL    HW189416   4.703   6.289   6.496  0.3125  3.2666  1.7288
28458SOL    HW289417   4.610   6.339   6.388  0.1611 -1.0387 -0.3309
28459SOL     OW89418   9.512   3.073   2.981 -0.4200  0.1486 -0.1584
28459SOL    HW189419   9.437   3.074   3.041  1.1862  0.1466  1.9743
28459SOL    HW289420   9.550   3.161   2.990  0.1641 -0.0413 -0.7465
28460SOL     OW89421   8.198   7.509   2.274 -0.1336  0.0137  0.3365
28460SOL    HW189422   8.180   7.535   2.184  1.8491  0.4568  0.0186
28460SOL    HW289423   8.229   7.419   2.268  1.1403  0.4206  0.3846
28461SOL     OW89424   1.088   0.906   6.248  0.1652  0.4414  0.5459
28461SOL    HW189425   1.023   0.837   6.234 -0.0613  0.6450  0.5754
28461SOL    HW289426   1.069   0.939   6.335  1.5935 -0.8355  1.3828
28462SOL     OW89427   6.525   8.482   3.493  0.0964  0.3819 -0.0350
28462SOL    HW189428   6.459   8.510   3.430 -1.5662  0.5728  1.6878
28462SOL    HW289429   6.580   8.559   3.506  0.0668  0.5342 -0.7715
28463SOL     OW89430   8.127   8.856   4.268 -0.1965  0.3884  0.2350
28463SOL    HW189431   8.150   8.771   4.305 -0.3271 -0.2095 -1.0277
28463SOL    HW289432   8.201   8.913   4.291  0.3362 -0.3068  0.2552
28464SOL     OW89433   8.261   9.748   4.888  0.8146 -0.2101 -0.1608
28464SOL    HW189434   8.313   9.696   4.950  0.1192 -2.5931 -1.4554
28464SOL    HW289435   8.224   9.683   4.828 -3.6135  1.2877  0.5919
28465SOL     OW89436   6.246   0.626   8.255 -0.6447 -0.2018  0.2002
28465SOL    HW189437   6.172   0.687   8.263 -0.1566  0.4465 -0.0968
28465SOL    HW289438   6.256   0.590   8.343  0.7656  2.2077  1.1035
28466SOL     OW89439   9.764   3.034   7.126 -0.0550 -0.2596  0.5049
28466SOL    HW189440   9.842   2.988   7.096  0.2046 -0.7613  1.8813
28466SOL    HW289441   9.701   2.964   7.145  0.0229 -0.0161  1.7332
28467SOL     OW89442   4.492   2.270   1.983 -0.0326 -0.4772 -0.0392
28467SOL    HW189443   4.487   2.363   2.005 -1.6393 -0.6463  0.4275
28467SOL    HW289444   4.406   2.250   1.946  0.8291 -1.4230 -1.6582
28468SOL     OW89445   5.677   4.473   2.436  0.0222  0.0090  0.1829
28468SOL    HW189446   5.640   4.546   2.387 -1.4176  0.1238  1.3840
28468SOL    HW289447   5.690   4.405   2.370  1.0640  1.1844 -0.8941
28469SOL     OW89448   3.229   7.605   5.727 -0.2951  0.1596 -0.6901
28469SOL    HW189449   3.245   7.510   5.727 -0.2350  0.1697 -1.1596
28469SOL    HW289450   3.252   7.633   5.639  0.1563  0.6943 -0.4100
28470SOL     OW89451   8.852   5.918   1.508  0.3319  0.1724  0.3459
28470SOL    HW189452   8.848   5.916   1.604 -1.2264 -0.7666  0.2948
28470SOL    HW289453   8.848   6.011   1.486  1.7606  0.4732  1.1867
28471SOL     OW89454   0.064   7.530   4.047  0.6286  0.1288 -0.4180
28471SOL    HW189455   0.050   7.473   3.972 -3.7784  0.1299  0.1649
28471SOL    HW289456   0.080   7.617   4.009 -0.3584 -0.0885 -1.3693
28472SOL     OW89457   5.453   1.463   5.974  0.2260 -0.2342 -0.2849
28472SOL    HW189458   5.432   1.504   6.058  0.7459  1.5151 -0.9828
28472SOL    HW289459   5.367   1.444   5.935 -0.0410  0.8559 -0.2540
28473SOL     OW89460   8.990   2.434   6.682 -0.4358  0.7399  0.4566
28473SOL    HW189461   9.079   2.458   6.708 -0.0696  1.0803 -1.0172
28473SOL    HW289462   8.936   2.507   6.710 -0.2822  0.4833  1.4598
28474SOL     OW89463   9.529   9.656   7.311 -0.0245  0.3241  0.2956
28474SOL    HW189464   9.554   9.744   7.340 -2.2350  0.9991  0.3067
28474SOL    HW289465   9.444   9.640   7.350 -0.5647 -1.0310 -1.2964
28475SOL     OW89466   4.846   6.575   5.895  0.3032  0.6035 -0.0918
28475SOL    HW189467   4.895   6.504   5.938  0.1532  0.9580  0.6691
28475SOL    HW289468   4.886   6.655   5.928 -2.2944  0.9966  2.4602
28476SOL     OW89469   1.518   0.563   4.986  0.1326  0.0443  0.2232
28476SOL    HW189470   1.603   0.594   5.017 -0.2541  1.2339  0.1838
28476SOL    HW289471   1.537   0.488   4.930  1.0818 -0.1899  0.8488
28477SOL     OW89472   6.667   8.988   5.413 -0.7346 -0.6587 -0.5540
28477SOL    HW189473   6.711   9.007   5.330 -1.6059 -1.9376 -1.3444
28477SOL    HW289474   6.622   8.905   5.398 -0.1513 -1.4155  1.5075
28478SOL     OW89475   7.548   2.598   0.624  0.2672  0.3137  0.5586
28478SOL    HW189476   7.462   2.557   0.630 -0.0929  0.9421 -0.1712
28478SOL    HW289477   7.546   2.670   0.686 -0.4204  1.4940 -0.7749
28479SOL     OW89478   4.148  10.197   0.404  0.1243 -0.2741  0.3919
28479SOL    HW189479   4.100  10.167   0.481  0.6869 -0.4868  0.6671
28479SOL    HW289480   4.240  10.186   0.428  0.4095  2.1248  0.7109
28480SOL     OW89481   9.247   7.508   5.651  0.0868  0.2200 -0.5484
28480SOL    HW189482   9.313   7.461   5.702  0.5029  1.0845 -0.2767
28480SOL    HW289483   9.215   7.576   5.710 -1.4454 -0.5049 -0.4913
28481SOL     OW89484  10.112   1.566   7.371  0.0254  0.0165 -0.2681
28481SOL    HW189485  10.130   1.510   7.296  0.1935 -0.3931  0.0719
28481SOL    HW289486  10.028   1.607   7.351 -0.6012 -1.1255 -0.0699
28482SOL     OW89487   4.858   3.279   2.563  0.4783  0.2338  0.4248
28482SOL    HW189488   4.871   3.205   2.504  1.9981  0.5899  0.2762
28482SOL    HW289489   4.800   3.338   2.514  0.1508 -0.3505  0.0953
28483SOL     OW89490   9.376   9.515   2.298 -0.0829 -0.6671  0.2620
28483SOL    HW189491   9.283   9.506   2.275 -0.0717  1.9311 -1.0507
28483SOL    HW289492   9.380   9.595   2.350  1.4977 -0.4567 -0.1375
28484SOL     OW89493   0.754   7.816   7.761  0.1665  0.1028  0.1145
28484SOL    HW189494   0.740   7.752   7.691 -0.2230  0.3692 -0.0563
28484SOL    HW289495   0.705   7.894   7.732  1.9574  1.0698 -0.4721
28485SOL     OW89496   2.175   0.708   1.334 -0.0999  0.1505 -0.2107
28485SOL    HW189497   2.210   0.723   1.421  1.0539  1.6673 -0.8869
28485SOL    HW289498   2.133   0.622   1.339 -1.3448  0.8286  2.2078
28486SOL     OW89499   7.377   3.307   0.639 -0.2589 -0.0972 -0.1891
28486SOL    HW189500   7.292   3.262   0.641 -0.2794 -0.0368  1.2901
28486SOL    HW289501   7.362   3.389   0.685  0.7258 -0.3422  0.6025
28487SOL     OW89502   0.729   0.426   6.407 -0.4008 -0.6572  0.8435
28487SOL    HW189503   0.701   0.409   6.316  0.6418 -0.4376  0.4677
28487SOL    HW289504   0.665   0.488   6.440 -1.1699 -1.2277  0.4715
28488SOL     OW89505   3.219   9.911   7.068 -0.7666 -0.1573 -0.5704
28488SOL    HW189506   3.181   9.996   7.090  1.0081  1.0261 -1.8061
28488SOL    HW289507   3.158   9.847   7.105 -3.2025  1.6132 -1.3066
28489SOL     OW89508   1.342   5.382   3.777  0.0244  0.0579  0.1158
28489SOL    HW189509   1.282   5.452   3.751 -0.5981 -0.5689 -0.1529
28489SOL    HW289510   1.396   5.421   3.845 -2.2194 -0.0211  2.0801
28490SOL     OW89511   2.398   3.736   7.757 -0.4576 -0.1510  0.5087
28490SOL    HW189512   2.366   3.712   7.671 -0.9353 -0.0637  0.6608
28490SOL    HW289513   2.482   3.780   7.740  0.3131 -1.6637  0.2133
28491SOL     OW89514   8.624  10.226   9.847  0.2679 -0.2251 -0.9175
28491SOL    HW189515   8.542  10.194   9.809  0.3039 -1.5249  0.0192
28491SOL    HW289516   8.691  10.194   9.788  0.2548 -1.4006 -0.3326
28492SOL     OW89517   1.543   9.932   8.159  0.4625 -0.2161 -0.8377
28492SOL    HW189518   1.606   9.989   8.114  0.8531  0.6065  0.6847
28492SOL    HW289519   1.567   9.938   8.251 -1.3117 -0.5875 -0.3167
28493SOL     OW89520   2.659   4.091   5.217 -0.1809  0.1870 -0.2236
28493SOL    HW189521   2.731   4.039   5.181  0.3758 -0.6181  1.8836
28493SOL    HW289522   2.688   4.114   5.305 -1.6910  1.5515 -0.0416
28494SOL     OW89523   2.305   1.920   2.439 -0.3404  0.1391  0.4635
28494SOL    HW189524   2.306   1.835   2.482  0.3688  0.3640  0.9069
28494SOL    HW289525   2.319   1.900   2.346  0.2481 -0.2063  0.6203
28495SOL     OW89526   6.278   1.648   7.256  0.3996  0.3755  0.8522
28495SOL    HW189527   6.217   1.611   7.192 -1.5342  1.5950  1.9152
28495SOL    HW289528   6.288   1.739   7.231  1.9810  0.1596  0.5947
28496SOL     OW89529   4.416   2.684   4.650 -0.3057  0.1661  0.0040
28496SOL    HW189530   4.428   2.589   4.646  0.2888  0.1253  1.9279
28496SOL    HW289531   4.504   2.719   4.633 -0.6551  0.4306 -1.3992
28497SOL     OW89532   7.977   4.671   1.060 -0.3223  0.0425  0.3804
28497SOL    HW189533   7.926   4.593   1.035 -1.4399  0.9260 -0.1962
28497SOL    HW289534   7.923   4.745   1.032  0.6183  1.0399  1.1109
28498SOL     OW89535   4.049   1.020   5.109 -0.2523  0.1702  0.1182
28498SOL    HW189536   4.075   1.000   5.019 -0.2860 -1.0608  0.3785
28498SOL    HW289537   3.962   1.059   5.099 -1.8609 -3.1641 -0.2029
28499SOL     OW89538   0.345   2.238   6.228  0.0618 -0.4945 -0.1731
28499SOL    HW189539   0.388   2.322   6.210  1.0469 -0.8989  0.2047
28499SOL    HW289540   0.387   2.206   6.308 -1.1955 -0.7625  0.3952
28500SOL     OW89541   0.714   7.822   5.644 -0.3791  1.0618  0.1280
28500SOL    HW189542   0.652   7.856   5.709 -1.1787  1.0808 -0.6267
28500SOL    HW289543   0.693   7.728   5.638  0.3876  0.8403  0.6317
28501SOL     OW89544   8.915   0.781   1.223 -0.0721 -0.0358  0.4718
28501SOL    HW189545   8.899   0.875   1.219  0.4351  0.0614  0.6507
28501SOL    HW289546   8.997   0.772   1.272 -0.7102 -0.6363  1.4708
28502SOL     OW89547   2.837   3.223   6.711  0.2706  0.4121 -0.4778
28502SOL    HW189548   2.883   3.307   6.713 -1.9275  1.6999 -0.8412
28502SOL    HW289549   2.777   3.230   6.637 -1.3287 -0.7280  0.6488
28503SOL     OW89550   3.522   1.486   0.432 -0.2228  0.0492 -0.0602
28503SOL    HW189551   3.427   1.489   0.444 -0.4889  0.0482 -1.9140
28503SOL    HW289552   3.549   1.578   0.434 -0.3813  0.1029 -0.3360
28504SOL     OW89553   9.805   0.392   7.508 -0.4986  0.2166 -0.0409
28504SOL    HW189554   9.843   0.315   7.466 -0.8168 -0.1346  0.3007
28504SOL    HW289555   9.874   0.425   7.565 -0.4917 -0.0472  0.1051
28505SOL     OW89556   0.151   4.172   5.527  0.4815  0.5969 -0.0275
28505SOL    HW189557   0.111   4.214   5.450 -1.2631 -1.6100 -0.4361
28505SOL    HW289558   0.100   4.092   5.540  3.6564 -1.5056  0.6291
28506SOL     OW89559  10.255   1.971   6.721  0.1698 -0.3567  0.0472
28506SOL    HW189560  10.241   1.953   6.628 -2.6799 -1.5011  0.5979
28506SOL    HW289561  10.277   1.886   6.759  0.0102 -0.1555  0.6078
28507SOL     OW89562   6.609   4.484   9.283  0.1514 -0.1174 -0.1773
28507SOL    HW189563   6.575   4.396   9.299  0.4681 -0.1651  0.2373
28507SOL    HW289564   6.597   4.530   9.366  1.0804 -0.1286 -0.0226
28508SOL     OW89565   7.802   5.919   5.223 -0.1569  0.5963 -0.3139
28508SOL    HW189566   7.841   5.905   5.310  1.9561 -0.1321 -1.2987
28508SOL    HW289567   7.781   5.831   5.192 -2.1509  0.9345 -0.0688
28509SOL     OW89568   9.139   5.387   2.398 -0.3804 -0.5245  0.4261
28509SOL    HW189569   9.186   5.393   2.481  0.7087  1.2129 -0.2711
28509SOL    HW289570   9.163   5.466   2.351 -2.6293 -0.4636 -0.7190
28510SOL     OW89571   1.126   2.393   5.702 -0.0077  0.0214 -0.1056
28510SOL    HW189572   1.142   2.304   5.731 -1.6692  0.0617  1.0311
28510SOL    HW289573   1.173   2.400   5.619  0.2960 -1.8425 -0.1175
28511SOL     OW89574   6.163   9.707   2.142 -0.1594 -0.2790 -0.5764
28511SOL    HW189575   6.117   9.756   2.074 -1.1913 -0.4703 -0.0336
28511SOL    HW289576   6.173   9.769   2.214  0.5249 -0.2161 -0.7135
28512SOL     OW89577   1.278   7.569   2.205 -0.4151 -0.5646  0.0295
28512SOL    HW189578   1.188   7.590   2.228 -0.0730  1.1479 -0.0931
28512SOL    HW289579   1.308   7.643   2.153  0.7380 -1.5897 -0.8421
28513SOL     OW89580   4.414   7.175   1.975 -0.0132  0.7040  0.0914
28513SOL    HW189581   4.495   7.127   1.958 -0.5569  0.6204 -2.7937
28513SOL    HW289582   4.424   7.258   1.928 -2.0893  0.1098 -1.5447
28514SOL     OW89583   1.394   4.648   8.340 -0.2267  0.6080 -0.1450
28514SOL    HW189584   1.412   4.654   8.246 -0.3118 -0.5417 -0.2403
28514SOL    HW289585   1.481   4.642   8.380 -0.2012  0.8020 -0.1690
28515SOL     OW89586   9.669   5.643   0.010 -0.3473  0.0366 -0.1408
28515SOL    HW189587   9.637   5.636   0.100 -1.2167  0.4289 -0.4041
28515SOL    HW289588   9.674   5.553  -0.021  1.1854 -0.1921  0.6975
28516SOL     OW89589   3.512   5.120   9.721 -0.4980  0.6514 -0.2842
28516SOL    HW189590   3.531   5.026   9.710 -2.1893  0.2573 -0.0522
28516SOL    HW289591   3.556   5.162   9.647 -1.5133 -0.5885 -1.6599
28517SOL     OW89592   0.592  10.059   2.206  0.0260  0.0138  0.1351
28517SOL    HW189593   0.587  10.155   2.206  0.0975  0.0277  1.0832
28517SOL    HW289594   0.608  10.036   2.298  0.0576 -0.9056 -0.0931
28518SOL     OW89595   6.633  10.067   8.495 -0.2799  0.0314 -0.2241
28518SOL    HW189596   6.641  10.103   8.407 -0.0863  1.8083  0.4639
28518SOL    HW289597   6.539  10.057   8.509 -0.3804  0.8797 -0.2343
28519SOL     OW89598   5.663   9.082   3.051 -0.2567  0.1104  0.2851
28519SOL    HW189599   5.636   9.166   3.088 -0.4198  0.2132 -0.0651
28519SOL    HW289600   5.621   9.016   3.107  0.1350  0.2553  0.7587
28520SOL     OW89601   2.329   0.609   2.343  0.2031 -0.4518  0.1414
28520SOL    HW189602   2.353   0.519   2.366 -0.2728 -0.6788 -0.2231
28520SOL    HW289603   2.412   0.656   2.339  0.4879 -0.9610 -0.0367
28521SOL     OW89604   0.065   7.743   7.692  0.3303  0.1055  0.6293
28521SOL    HW189605   0.129   7.676   7.669  0.5544  0.0321  1.4193
28521SOL    HW289606   0.115   7.824   7.700  0.0436  0.4040 -0.4211
28522SOL     OW89607   4.815   5.677   6.133 -0.0453 -0.2698  0.2171
28522SOL    HW189608   4.817   5.644   6.223  0.4679  0.1518  0.3691
28522SOL    HW289609   4.899   5.651   6.096 -0.1043 -0.1243 -0.0237
28523SOL     OW89610   6.556   6.567   1.504 -0.9500  0.3945  0.1306
28523SOL    HW189611   6.551   6.586   1.410 -2.3092  1.5302  0.3930
28523SOL    HW289612   6.466   6.573   1.534 -0.4420  0.7712  1.6458
28524SOL     OW89613   3.892   1.737   8.948  0.0694 -0.1628 -0.3995
28524SOL    HW189614   3.911   1.695   8.864 -1.4809 -2.2722  0.2205
28524SOL    HW289615   3.818   1.795   8.929  2.2284  2.5491 -1.2617
28525SOL     OW89616   9.560   0.747   2.745  0.4701  0.3462 -0.1752
28525SOL    HW189617   9.577   0.653   2.756  1.1625  0.5213  0.3918
28525SOL    HW289618   9.495   0.767   2.813 -0.4299  0.0960 -0.9398
28526SOL     OW89619   2.918   7.269   3.554  0.3745  0.1882  0.2177
28526SOL    HW189620   2.847   7.296   3.496  1.0983 -1.9100 -1.7896
28526SOL    HW289621   2.986   7.335   3.543 -1.0145  1.9862  1.8387
28527SOL     OW89622   2.133   1.523   4.813  0.2971  0.3307  0.2658
28527SOL    HW189623   2.210   1.512   4.868  0.1374  1.9667  0.8688
28527SOL    HW289624   2.160   1.585   4.745  1.3304 -3.5280 -3.2937
28528SOL     OW89625   5.240   3.871   2.477 -0.0365 -0.5167 -0.5506
28528SOL    HW189626   5.317   3.834   2.433 -0.6496  0.2729 -2.4024
28528SOL    HW289627   5.190   3.794   2.505  0.6198 -1.0490 -0.7928
28529SOL     OW89628   1.836   7.186   3.656 -0.5263 -0.0136 -0.1315
28529SOL    HW189629   1.753   7.218   3.691 -0.0156  0.8396  0.3414
28529SOL    HW289630   1.858   7.110   3.711 -1.1076 -0.3980 -0.4214
28530SOL     OW89631   0.419   4.663   9.062  0.1376  0.1180  0.3818
28530SOL    HW189632   0.383   4.752   9.061  0.4126  0.2464  1.2232
28530SOL    HW289633   0.508   4.674   9.095  0.1346 -0.4836  0.5950
28531SOL     OW89634   8.350   5.426   3.242  0.2151  0.2375 -0.5745
28531SOL    HW189635   8.397   5.343   3.239 -0.0400  0.0848 -0.3898
28531SOL    HW289636   8.260   5.403   3.217 -0.0225  0.3337  0.1793
28532SOL     OW89637   1.212   2.050   0.458  0.2608  0.2026 -1.2621
28532SOL    HW189638   1.141   2.088   0.509  0.8955 -0.0158 -0.2035
28532SOL    HW289639   1.255   2.125   0.416 -0.2420  0.3829 -1.4558
28533SOL     OW89640   5.946   4.342   4.321 -0.3694 -0.0506  0.1083
28533SOL    HW189641   5.877   4.314   4.261 -1.5199  0.0771  1.3095
28533SOL    HW289642   5.986   4.261   4.352 -0.7072 -0.1852  0.2020
28534SOL     OW89643   7.438   5.837   9.594  0.4973  0.3030  0.2371
28534SOL    HW189644   7.409   5.877   9.512 -0.0212 -1.5591 -0.5545
28534SOL    HW289645   7.533   5.847   9.594  0.5275  0.1030 -0.7277
28535SOL     OW89646   7.858   2.074   7.455 -0.1121 -0.0564 -0.2972
28535SOL    HW189647   7.917   2.118   7.516  1.6905 -1.8531 -0.6271
28535SOL    HW289648   7.786   2.044   7.510  0.5359  0.0045  0.6111
28536SOL     OW89649   7.645   9.581   0.813 -0.6077  0.2456 -0.2629
28536SOL    HW189650   7.615   9.498   0.851 -3.1958  2.0502  1.9923
28536SOL    HW289651   7.737   9.585   0.835 -0.6661 -1.5364  0.5036
28537SOL     OW89652   4.690   1.581  10.252 -0.3098  0.0714  0.6422
28537SOL    HW189653   4.700   1.650  10.316  1.1639  0.2646  0.2286
28537SOL    HW289654   4.772   1.580  10.204 -1.8814  1.0346 -2.3507
28538SOL     OW89655   8.378   6.110   6.160 -0.3860  0.1743  0.4575
28538SOL    HW189656   8.446   6.093   6.226 -0.0066 -0.3973 -0.0674
28538SOL    HW289657   8.351   6.023   6.131 -0.5604  0.4167 -0.1271
28539SOL     OW89658   4.030   9.866   2.537  0.0090 -0.6257 -0.4166
28539SOL    HW189659   4.112   9.897   2.577  0.1916  1.9773 -2.5250
28539SOL    HW289660   4.054   9.844   2.447 -1.7511  1.4953 -1.5058
28540SOL     OW89661   0.884   1.632   1.682  0.0842  0.4176 -0.3284
28540SOL    HW189662   0.842   1.710   1.718 -0.2285  0.1128 -0.0290
28540SOL    HW289663   0.816   1.592   1.627 -0.6102 -0.9842  1.4650
28541SOL     OW89664  10.266   1.311   6.486 -0.1102  0.2295 -0.3611
28541SOL    HW189665  10.187   1.295   6.538 -0.4784  0.8961 -0.7078
28541SOL    HW289666  10.321   1.235   6.503 -0.4756  0.1509  0.5384
28542SOL     OW89667   0.595   3.284   9.806  0.6635  0.0029 -0.4324
28542SOL    HW189668   0.563   3.352   9.864 -1.7093 -0.7712 -0.7210
28542SOL    HW289669   0.635   3.220   9.864  0.3601  0.3127  0.1262
28543SOL     OW89670   1.292   3.275   6.415  0.4447  0.1117  0.0318
28543SOL    HW189671   1.305   3.202   6.354  0.5538  0.5960 -0.5336
28543SOL    HW289672   1.352   3.343   6.384  0.4212  0.4053  0.6196
28544SOL     OW89673   6.618  10.018   6.992  0.2104 -0.6660 -0.0085
28544SOL    HW189674   6.617  10.113   6.984 -1.2703 -0.7355 -1.1165
28544SOL    HW289675   6.613   9.986   6.901  1.5270 -1.8233  0.2829
28545SOL     OW89676   8.458   0.802   7.992  0.4290 -0.1791  0.1350
28545SOL    HW189677   8.400   0.729   8.016  0.7542 -0.1053  1.1485
28545SOL    HW289678   8.494   0.776   7.907  0.4996 -1.1799  0.4564
28546SOL     OW89679   3.263   9.451  10.040 -0.1988 -0.2251  0.3579
28546SOL    HW189680   3.197   9.381  10.032  0.0668 -0.3164 -1.4555
28546SOL    HW289681   3.213   9.532  10.034 -0.1475 -0.2857 -1.8952
28547SOL     OW89682   7.589   5.846   7.442 -1.0022 -0.7831  0.3935
28547SOL    HW189683   7.685   5.848   7.444 -0.9980 -0.3363 -0.0721
28547SOL    HW289684   7.562   5.876   7.528 -0.7322  1.7549 -0.3297
28548SOL     OW89685   4.262   9.626   5.853  0.2200 -0.3091  0.2875
28548SOL    HW189686   4.308   9.710   5.845 -0.2355 -0.1493 -0.9019
28548SOL    HW289687   4.204   9.637   5.929  1.2494 -0.0941  1.0574
28549SOL     OW89688   9.397   8.036   1.610  0.3008  0.1455  0.1440
28549SOL    HW189689   9.380   7.977   1.683  0.6990 -1.6278 -1.1224
28549SOL    HW289690   9.492   8.030   1.596  0.2586  0.6209 -0.3876
28550SOL     OW89691   6.084   2.163   6.552 -0.4412 -0.0575 -0.0075
28550SOL    HW189692   6.126   2.175   6.467 -0.2608 -0.8158 -0.0363
28550SOL    HW289693   6.154   2.176   6.615  0.7483 -4.2556 -0.1090
28551SOL     OW89694   7.232   3.548   4.534  0.1150 -0.2524  0.0681
28551SOL    HW189695   7.233   3.571   4.441 -0.0381  0.7477  0.2990
28551SOL    HW289696   7.193   3.624   4.577 -1.3954 -1.3905  0.7790
28552SOL     OW89697   6.381   8.539   1.445  0.3486 -0.4201  0.0686
28552SOL    HW189698   6.392   8.452   1.484  0.4795 -0.4290  0.0091
28552SOL    HW289699   6.292   8.565   1.470  0.5387 -0.2970  0.6340
28553SOL     OW89700   0.035   1.337   4.013  0.0336 -0.1285  0.5585
28553SOL    HW189701  -0.045   1.389   4.022 -1.4027 -1.8535 -1.4583
28553SOL    HW289702   0.034   1.279   4.089 -1.3391 -1.0005 -0.0960
28554SOL     OW89703   2.872   7.743   8.458 -0.5862  0.2725  0.0707
28554SOL    HW189704   2.814   7.719   8.529  1.2782  0.5135  1.7715
28554SOL    HW289705   2.902   7.659   8.423 -1.0923  0.1518 -0.0753
28555SOL     OW89706   0.419   2.718   5.990 -0.0668 -0.0423  0.2300
28555SOL    HW189707   0.381   2.791   5.941 -1.4249 -0.9456 -0.1355
28555SOL    HW289708   0.498   2.695   5.941  0.3064  1.0575  0.2708
28556SOL     OW89709   6.036   1.941   9.602 -0.0029  0.2337 -0.1791
28556SOL    HW189710   6.079   2.023   9.627 -1.6793  1.0467  0.1338
28556SOL    HW289711   6.007   1.956   9.512 -1.2291  0.3778  0.2341
28557SOL     OW89712   9.366   3.255   5.965 -0.8977 -0.8654  0.5973
28557SOL    HW189713   9.282   3.224   5.998 -1.5435  0.7044  0.4904
28557SOL    HW289714   9.348   3.286   5.877  0.0251 -1.4414  0.1786
28558SOL     OW89715   2.323   0.735   6.337 -0.1772  0.3381 -0.6233
28558SOL    HW189716   2.375   0.727   6.417 -1.1221  1.1551  0.0824
28558SOL    HW289717   2.387   0.720   6.266  0.7874  0.1947  0.2510
28559SOL     OW89718   0.834   4.721   3.103  0.0091  0.1128 -0.2420
28559SOL    HW189719   0.831   4.753   3.012  1.9257  0.5911 -0.1732
28559SOL    HW289720   0.778   4.782   3.151  1.1695  1.5555 -0.6490
28560SOL     OW89721   7.819   5.719   6.344 -0.1908 -0.3535 -0.1148
28560SOL    HW189722   7.855   5.677   6.422  1.2373 -2.1445 -1.6274
28560SOL    HW289723   7.830   5.813   6.359 -0.9564 -0.5848  2.2482
28561SOL     OW89724   6.556   5.571   7.722  0.0311 -0.1657  0.3696
28561SOL    HW189725   6.465   5.548   7.742 -0.6530  2.1951  0.2854
28561SOL    HW289726   6.577   5.640   7.786  0.8884  1.0680 -1.1713
28562SOL     OW89727   4.179   1.144   1.772  0.6485  0.1128  0.0750
28562SOL    HW189728   4.201   1.054   1.745  0.6456  0.0397  0.3142
28562SOL    HW289729   4.201   1.147   1.865  1.1040  0.5072 -0.0426
28563SOL     OW89730   5.191   7.807   9.203 -0.3465  0.6423 -0.0366
28563SOL    HW189731   5.255   7.809   9.132  2.9565  0.4466  2.6695
28563SOL    HW289732   5.197   7.719   9.239 -0.7695  1.1666  1.4037
28564SOL     OW89733   1.334   6.330   7.613 -0.0375 -0.2863  1.0411
28564SOL    HW189734   1.302   6.416   7.585  0.7563  0.4821  2.4066
28564SOL    HW289735   1.261   6.293   7.664 -0.4399 -0.5157  0.3184
28565SOL     OW89736   9.867   0.020   6.405  0.3596 -0.0395  0.2976
28565SOL    HW189737   9.922  -0.034   6.349 -0.2965 -1.2181  0.7387
28565SOL    HW289738   9.810   0.068   6.345  0.2296 -0.6519 -0.0762
28566SOL     OW89739   8.225   2.389  10.184 -0.1935 -0.4728  0.3266
28566SOL    HW189740   8.166   2.401  10.110 -0.3436 -0.7747  0.3958
28566SOL    HW289741   8.271   2.307  10.165  1.0535  0.3389 -0.3038
28567SOL     OW89742   7.194   8.034   7.616  0.0679  0.5565  0.2033
28567SOL    HW189743   7.251   8.073   7.682 -0.0512  0.5842  0.2901
28567SOL    HW289744   7.252   7.978   7.565 -0.0319 -0.3276  1.0160
28568SOL     OW89745   7.709   1.837   4.441 -0.2832 -0.4193  0.2658
28568SOL    HW189746   7.748   1.815   4.356 -1.5796 -0.4989 -0.3446
28568SOL    HW289747   7.682   1.752   4.477 -1.5024 -0.2355 -0.1630
28569SOL     OW89748   3.848   6.971   2.878 -0.5364  0.6903  0.6178
28569SOL    HW189749   3.894   6.953   2.796 -0.2063  2.5784  0.3308
28569SOL    HW289750   3.896   6.922   2.944 -1.5983 -1.9454 -0.4373
28570SOL     OW89751   6.948   4.161   1.331 -0.1769  0.4659 -0.4344
28570SOL    HW189752   6.881   4.097   1.354 -0.7417  1.2925  0.2839
28570SOL    HW289753   6.900   4.241   1.309  0.5041  0.5965 -1.5276
28571SOL     OW89754   7.855   2.721  10.281  0.1770  0.9685 -0.5839
28571SOL    HW189755   7.815   2.667  10.212  0.3645  0.1622 -0.0787
28571SOL    HW289756   7.949   2.719  10.262  0.2565  0.5448 -0.1849
28572SOL     OW89757   8.201   3.434   9.828 -0.5727  0.1168 -0.5499
28572SOL    HW189758   8.105   3.425   9.823 -0.4342 -2.2437 -0.3427
28572SOL    HW289759   8.226   3.377   9.901  0.8997  1.8566  0.3830
28573SOL     OW89760   3.157   4.721   4.342  0.1027 -0.0119  0.1758
28573SOL    HW189761   3.156   4.729   4.247 -0.8025  0.3002  0.2004
28573SOL    HW289762   3.228   4.660   4.360 -0.0799 -0.5090 -0.7317
28574SOL     OW89763   1.505   6.134   3.561 -0.2123 -0.0161  0.1862
28574SOL    HW189764   1.464   6.053   3.533  0.2216 -0.5127  0.9556
28574SOL    HW289765   1.478   6.199   3.496  0.0152 -0.9248 -0.8438
28575SOL     OW89766   5.738   4.620   5.050  0.3003 -0.1089  0.3523
28575SOL    HW189767   5.762   4.711   5.066 -0.6609  0.3555 -0.7362
28575SOL    HW289768   5.706   4.588   5.135 -1.6445  1.3081  0.2044
28576SOL     OW89769   3.113   5.485   9.124  0.2803 -0.7446 -0.0834
28576SOL    HW189770   3.158   5.563   9.091 -1.4453  0.2101 -0.2737
28576SOL    HW289771   3.091   5.505   9.214  0.5288 -1.3568  0.1237
28577SOL     OW89772   0.724   1.317   6.324 -0.2361 -0.3349 -0.0746
28577SOL    HW189773   0.658   1.267   6.275  0.9666 -1.6854 -0.3807
28577SOL    HW289774   0.714   1.407   6.293 -2.1784 -0.4109  0.1766
28578SOL     OW89775   9.291   8.047  10.264  0.2534 -0.2781  0.3169
28578SOL    HW189776   9.291   8.081  10.175  0.9103  0.9963  0.7871
28578SOL    HW289777   9.362   7.983  10.266 -0.0183 -0.5986 -0.1688
28579SOL     OW89778   9.969   3.402   7.531 -0.0423 -0.5515 -0.0407
28579SOL    HW189779   9.975   3.437   7.443 -1.2741 -1.6159 -0.5760
28579SOL    HW289780  10.058   3.371   7.551  0.2899 -0.1014 -0.8145
28580SOL     OW89781   0.738   7.366   4.727  0.1657 -0.6892  0.3719
28580SOL    HW189782   0.726   7.319   4.644  1.9040 -2.2011  0.9088
28580SOL    HW289783   0.650   7.393   4.752 -0.5291 -1.1256 -1.4289
28581SOL     OW89784   5.109   0.439   7.634  0.0996 -0.1420  0.2038
28581SOL    HW189785   5.193   0.427   7.677  0.3586 -1.1716 -0.5498
28581SOL    HW289786   5.113   0.381   7.558 -1.6843 -0.9987  0.7178
28582SOL     OW89787   0.628   9.827   1.351  0.0023 -0.6095 -0.0246
28582SOL    HW189788   0.691   9.899   1.351  2.1646 -2.3075  2.4674
28582SOL    HW289789   0.567   9.848   1.423 -0.9497 -0.0836 -0.9564
28583SOL     OW89790   0.717   8.014   8.779  0.6809 -0.4271  0.2170
28583SOL    HW189791   0.627   8.035   8.755  0.0895 -1.0902  1.7298
28583SOL    HW289792   0.760   7.993   8.695 -0.3895  0.4682 -0.5884
28584SOL     OW89793   6.269   6.541   1.649 -0.0308  0.1224  0.2221
28584SOL    HW189794   6.220   6.502   1.722  1.2102 -0.7452  0.6215
28584SOL    HW289795   6.252   6.635   1.658  0.2060  0.0577  1.7418
28585SOL     OW89796   7.475   1.577   3.992 -0.2667  0.4666  0.2510
28585SOL    HW189797   7.499   1.496   3.948 -1.3389  1.4140 -2.3293
28585SOL    HW289798   7.381   1.585   3.976 -0.5893  1.1912  2.3099
28586SOL     OW89799   6.149   8.105   0.820 -0.0640  0.3170  0.4499
28586SOL    HW189800   6.081   8.172   0.821 -2.0510 -1.5934  1.8392
28586SOL    HW289801   6.138   8.061   0.735  1.1402  1.5747 -0.3960
28587SOL     OW89802   9.326   1.005   1.462 -0.1548 -0.0550 -0.0029
28587SOL    HW189803   9.386   0.970   1.527  0.4326 -1.7505 -1.3935
28587SOL    HW289804   9.381   1.023   1.386 -1.3059 -1.3814 -1.2094
28588SOL     OW89805   4.699   8.700   2.636 -0.4338  0.2772 -0.0594
28588SOL    HW189806   4.790   8.677   2.619 -0.6053 -0.9632  0.5206
28588SOL    HW289807   4.701   8.748   2.719 -0.3868 -0.6675  0.5071
28589SOL     OW89808   9.562   6.235   1.175  0.3993 -0.0483  0.2944
28589SOL    HW189809   9.495   6.174   1.208 -1.0248  1.0344 -0.4800
28589SOL    HW289810   9.526   6.267   1.092  1.2411  1.5974  0.5302
28590SOL     OW89811   3.080   7.093   5.347 -0.2699  0.2827  0.2803
28590SOL    HW189812   3.034   7.142   5.415 -0.3999 -2.9914  2.8004
28590SOL    HW289813   3.162   7.067   5.388 -0.5766 -2.2505 -0.5145
28591SOL     OW89814   7.965   7.402   5.725 -0.2326  0.4249 -0.9737
28591SOL    HW189815   8.038   7.344   5.705  1.0162  1.1054  1.3350
28591SOL    HW289816   7.900   7.345   5.766  0.0938  0.2770 -0.6600
28592SOL     OW89817   7.519   3.496   1.292 -0.2629  0.1031  0.4070
28592SOL    HW189818   7.590   3.431   1.294 -0.3595 -0.0141  0.1247
28592SOL    HW289819   7.527   3.537   1.206  0.5873  1.3616  1.0541
28593SOL     OW89820   0.117   6.290   2.997  0.0278 -0.4393 -0.5551
28593SOL    HW189821   0.210   6.273   3.005  0.2708 -0.1888 -2.3451
28593SOL    HW289822   0.095   6.264   2.907 -1.0140  2.0514 -1.1115
28594SOL     OW89823   5.351   6.273   8.771 -0.5012  0.2534 -0.2429
28594SOL    HW189824   5.443   6.299   8.773 -0.1319 -1.0401  0.5253
28594SOL    HW289825   5.318   6.310   8.689  1.0481 -0.3777 -1.2000
28595SOL     OW89826   4.093   5.420   6.598 -0.5574 -0.5265  0.1154
28595SOL    HW189827   4.005   5.458   6.594 -0.5748 -0.4881  0.6730
28595SOL    HW289828   4.142   5.479   6.655  0.0171 -0.2065 -0.6944
28596SOL     OW89829   2.339   0.658   2.999  0.0444  0.0836 -0.4272
28596SOL    HW189830   2.388   0.736   2.970  1.9003  0.1589  2.4547
28596SOL    HW289831   2.295   0.686   3.079  0.1278 -1.6264  0.2530
28597SOL     OW89832   1.614   5.286   3.980 -0.4420  0.7350 -0.1165
28597SOL    HW189833   1.556   5.222   4.021  1.2002  1.2398  3.3422
28597SOL    HW289834   1.582   5.371   4.012  1.3653  1.1039  0.8102
28598SOL     OW89835   1.091   6.740   4.196  0.6067  0.1280 -0.2110
28598SOL    HW189836   0.997   6.745   4.214  0.7339 -0.9368  0.8455
28598SOL    HW289837   1.096   6.702   4.109  0.0649 -0.2655 -0.0751
28599SOL     OW89838   6.855   6.695   1.829  0.0522 -0.4387 -0.0353
28599SOL    HW189839   6.819   6.606   1.826  0.6247 -0.6740 -0.1022
28599SOL    HW289840   6.794   6.744   1.885 -0.2730 -0.8657 -0.0091
28600SOL     OW89841   0.395   5.071   9.338  0.0253 -0.2527 -0.1751
28600SOL    HW189842   0.397   5.159   9.300 -1.2671 -0.0964  0.0501
28600SOL    HW289843   0.341   5.020   9.278 -0.9322 -0.3442  0.7221
28601SOL     OW89844   8.135   5.487   3.875  0.1556 -0.3820  0.1917
28601SOL    HW189845   8.121   5.580   3.896  0.0171 -0.0778 -1.1667
28601SOL    HW289846   8.189   5.488   3.797  0.3884 -1.4684  0.3197
28602SOL     OW89847   7.451   6.280   4.222  0.2306  0.6669 -0.1989
28602SOL    HW189848   7.508   6.346   4.181  1.3939  0.4697  1.0207
28602SOL    HW289849   7.479   6.278   4.313 -1.3889  0.1425  0.3147
28603SOL     OW89850   3.544   8.984   7.687 -0.1133  0.0901 -0.5262
28603SOL    HW189851   3.588   8.917   7.740 -1.0186  0.3699  0.6239
28603SOL    HW289852   3.607   9.055   7.681 -0.5133  0.6793  1.4978
28604SOL     OW89853   9.082   2.406   2.925  0.3754 -0.0139 -0.2698
28604SOL    HW189854   8.990   2.433   2.917  0.2851 -0.2231  0.0357
28604SOL    HW289855   9.122   2.475   2.978  0.8790  1.1551 -2.1011
28605SOL     OW89856   0.947   2.923   6.586  0.0694  0.1151 -0.6076
28605SOL    HW189857   0.987   2.952   6.668 -0.2053 -0.3025 -0.3190
28605SOL    HW289858   0.964   2.994   6.525 -0.5249  0.8619  0.0619
28606SOL     OW89859   8.791   8.708   8.473  0.1347  0.8691 -0.5381
28606SOL    HW189860   8.722   8.771   8.492  0.1333  1.7441 -2.9979
28606SOL    HW289861   8.790   8.647   8.547  1.2165  4.5528  2.8461
28607SOL     OW89862   7.841   8.114   7.017  0.4879  0.0010 -0.4318
28607SOL    HW189863   7.775   8.175   6.981  0.0798 -0.4404 -0.4432
28607SOL    HW289864   7.925   8.154   6.994  0.2265  0.3411 -0.8247
28608SOL     OW89865   5.068   4.389   2.719  0.2010 -0.0038  0.1708
28608SOL    HW189866   5.096   4.480   2.733  0.3368 -0.0991  0.5554
28608SOL    HW289867   4.976   4.395   2.695  0.9048  0.4446 -2.7956
28609SOL     OW89868   7.427   3.390   5.180  0.0891  0.0737 -0.2683
28609SOL    HW189869   7.484   3.417   5.108  0.0769  1.7047  0.2922
28609SOL    HW289870   7.487   3.374   5.253  0.0329 -0.7604 -0.4004
28610SOL     OW89871   9.133   8.770   3.451 -0.7799  0.0976  0.0709
28610SOL    HW189872   9.075   8.699   3.420  0.7544 -0.8217 -0.8597
28610SOL    HW289873   9.209   8.724   3.486  0.7414  1.2539 -1.5385
28611SOL     OW89874   3.054   6.218   7.573  0.2320 -0.1852 -0.3232
28611SOL    HW189875   3.038   6.308   7.545  1.0796  0.0682 -0.0279
28611SOL    HW289876   3.045   6.165   7.494 -2.7386 -0.2020 -0.0971
28612SOL     OW89877   4.831   4.459   9.188 -0.2686  0.0535 -0.0279
28612SOL    HW189878   4.826   4.545   9.145 -0.6961  0.4765  0.8423
28612SOL    HW289879   4.816   4.478   9.281 -3.5097 -1.3009 -0.1516
28613SOL     OW89880   9.526  10.001   1.321  0.6573  0.0315  0.6222
28613SOL    HW189881   9.610   9.971   1.286  1.3860  0.8167  1.6469
28613SOL    HW289882   9.531   9.982   1.415 -0.4404 -0.1794  0.6532
28614SOL     OW89883   6.934   3.344   1.251  0.0523 -0.6274 -0.5409
28614SOL    HW189884   6.853   3.337   1.302 -0.6740  1.7066 -1.2683
28614SOL    HW289885   7.004   3.340   1.317 -0.7433 -0.5835  0.3301
28615SOL     OW89886   8.139   0.972  10.161 -0.6907 -0.2505  0.0177
28615SOL    HW189887   8.046   0.975  10.183 -1.0821  2.1749 -1.5280
28615SOL    HW289888   8.141   0.976  10.066  0.8749  4.4054 -0.0269
28616SOL     OW89889   7.753   4.707   0.434 -0.5944  0.5640 -0.1897
28616SOL    HW189890   7.793   4.629   0.472 -0.1388  1.1716  0.6166
28616SOL    HW289891   7.814   4.733   0.365 -0.0030  1.0087  0.4828
28617SOL     OW89892   9.454   7.617   9.311  1.0580 -0.2747 -0.9206
28617SOL    HW189893   9.529   7.580   9.265  2.3948  1.7023 -0.4483
28617SOL    HW289894   9.425   7.548   9.371  2.8334 -0.8892 -0.7366
28618SOL     OW89895   5.358   2.886   6.945  0.0285  0.1415  0.3568
28618SOL    HW189896   5.423   2.826   6.908 -0.3529  0.7248 -1.3363
28618SOL    HW289897   5.349   2.858   7.036  1.7766 -0.6965  0.3191
28619SOL     OW89898   6.356   1.012   5.806 -0.0297  0.2373 -0.2187
28619SOL    HW189899   6.289   1.013   5.737  0.0719  2.3289 -0.3672
28619SOL    HW289900   6.417   1.082   5.780  1.1883 -0.3785  0.8884
28620SOL     OW89901   4.664   3.993   8.745 -0.0957 -0.5549 -0.6580
28620SOL    HW189902   4.721   3.964   8.673  0.2443  0.2804 -0.7347
28620SOL    HW289903   4.725   4.009   8.817 -0.4886 -1.9264  0.0139
28621SOL     OW89904   7.736   9.716   5.958  0.4936 -0.0884 -0.2893
28621SOL    HW189905   7.707   9.699   6.048 -0.2224  1.4922 -0.1822
28621SOL    HW289906   7.734   9.631   5.915 -1.3804 -0.5415  0.5919
28622SOL     OW89907   3.810   9.976   0.332  0.4507  0.0485 -0.0549
28622SOL    HW189908   3.857   9.897   0.304 -0.2665 -0.0823 -0.9130
28622SOL    HW289909   3.754   9.946   0.404 -0.4709 -0.4375 -0.9479
28623SOL     OW89910   9.155   8.263   5.414 -0.2429  0.0973  1.3083
28623SOL    HW189911   9.113   8.220   5.488 -0.6913 -1.7049  0.0929
28623SOL    HW289912   9.225   8.203   5.389  0.7623  1.3264  1.0788
28624SOL     OW89913   9.928  10.171   9.234 -0.2448 -0.4657 -0.0899
28624SOL    HW189914   9.849  10.220   9.214  0.4977  0.4958 -0.7499
28624SOL    HW289915   9.972  10.161   9.150  0.1285 -1.3802  0.1982
28625SOL     OW89916   8.553   5.543   4.560 -0.5200  0.0416 -0.7409
28625SOL    HW189917   8.506   5.460   4.570  0.3131 -0.3209  0.3704
28625SOL    HW289918   8.505   5.604   4.615 -0.2534 -0.0848 -0.3675
28626SOL     OW89919   5.961   8.018   0.264  0.3304 -0.0738  0.4821
28626SOL    HW189920   5.962   8.024   0.169  1.1322  0.5247  0.5144
28626SOL    HW289921   6.022   7.947   0.284 -0.4760 -0.7667  0.5262
28627SOL     OW89922   2.075   4.039   4.906  0.2220 -0.0218  0.3753
28627SOL    HW189923   2.071   3.976   4.978  0.9646  1.3430  1.6664
28627SOL    HW289924   2.135   4.107   4.937 -0.3810  1.2120 -1.0482
28628SOL     OW89925   7.155   9.217   4.441 -0.1159 -0.9635  0.1063
28628SOL    HW189926   7.245   9.223   4.473  0.5899 -1.8141 -1.5857
28628SOL    HW289927   7.137   9.123   4.438 -0.5258 -0.8638 -0.9348
28629SOL     OW89928   0.726   5.502   2.536  0.2188  0.3812 -0.0359
28629SOL    HW189929   0.709   5.410   2.512 -1.2240  0.4580  0.5536
28629SOL    HW289930   0.748   5.499   2.629 -0.2300  0.6624  0.0829
28630SOL     OW89931   7.855   9.655   3.374 -0.1888  0.2059 -0.4490
28630SOL    HW189932   7.857   9.580   3.434  0.3476  1.1027  0.6953
28630SOL    HW289933   7.947   9.679   3.363 -0.4251  1.3953  0.1086
28631SOL     OW89934   0.676   1.838   0.988  0.0063  0.7338  0.1850
28631SOL    HW189935   0.696   1.817   0.897 -0.6626  1.0678 -0.0463
28631SOL    HW289936   0.753   1.810   1.037 -0.1739 -0.7257 -0.3112
28632SOL     OW89937   8.651   7.270   1.120  0.1882 -0.3811  0.4942
28632SOL    HW189938   8.611   7.275   1.033  1.2800  0.0224 -0.0041
28632SOL    HW289939   8.690   7.356   1.133 -0.4778 -0.2432  1.6509
28633SOL     OW89940   0.060   7.133   5.293 -0.1251  0.4297 -0.3917
28633SOL    HW189941   0.027   7.074   5.361  0.3211 -0.7638 -1.1759
28633SOL    HW289942   0.020   7.218   5.313 -1.3037 -0.2809  0.3929
28634SOL     OW89943   0.498   0.861   6.271  0.2522 -0.0448  0.0280
28634SOL    HW189944   0.592   0.866   6.291  0.2119  2.5476 -0.1743
28634SOL    HW289945   0.485   0.924   6.200 -1.4334 -1.4463 -0.9861
28635SOL     OW89946   3.173   9.255   1.650 -0.1536  0.1373  0.4802
28635SOL    HW189947   3.216   9.275   1.566 -2.1099  0.0311 -0.6110
28635SOL    HW289948   3.132   9.170   1.636 -1.8163  0.8172  0.9623
28636SOL     OW89949   8.118   3.098   7.529  0.0247  0.5380 -0.5106
28636SOL    HW189950   8.191   3.059   7.576 -0.4179  0.4611  0.1191
28636SOL    HW289951   8.115   3.051   7.446  0.6263  0.4763 -0.5013
28637SOL     OW89952   2.772   0.094   3.405  0.5000 -0.5713  0.4863
28637SOL    HW189953   2.691   0.057   3.439 -0.1327  1.4554  1.3351
28637SOL    HW289954   2.759   0.099   3.311  0.0569 -1.1875  0.5103
28638SOL     OW89955   4.110   0.003   6.117  0.0020 -0.1574 -0.0938
28638SOL    HW189956   4.125   0.062   6.191  0.8229 -2.0147  1.2869
28638SOL    HW289957   4.193   0.000   6.070  0.1147 -0.5824  0.1271
28639SOL     OW89958   0.600   4.990   3.930  0.0844 -0.0504  0.2728
28639SOL    HW189959   0.532   4.930   3.962 -0.6268 -0.0777 -1.1803
28639SOL    HW289960   0.579   5.074   3.972  1.2836 -0.8202  2.5837
28640SOL     OW89961   3.277   0.350   5.904 -0.0125  0.1169 -0.2134
28640SOL    HW189962   3.335   0.282   5.871 -1.2549 -1.5452  0.8454
28640SOL    HW289963   3.335   0.415   5.944  1.1620 -0.7943 -0.4040
28641SOL     OW89964   8.657   4.698   4.568  0.3392  0.4031 -0.8167
28641SOL    HW189965   8.658   4.669   4.659 -0.2813 -1.7083 -1.4283
28641SOL    HW289966   8.569   4.733   4.554 -0.0081 -0.5044 -0.9451
28642SOL     OW89967   0.750   3.582   6.137 -0.2784  0.7162 -0.0300
28642SOL    HW189968   0.769   3.638   6.061 -1.8056  0.3908 -0.7017
28642SOL    HW289969   0.708   3.641   6.200 -1.0703  0.5314 -0.3735
28643SOL     OW89970   6.153   1.536   4.027  0.2522  0.5807  0.0512
28643SOL    HW189971   6.193   1.480   4.094 -1.5319  1.5185  2.0323
28643SOL    HW289972   6.185   1.502   3.944  1.6665 -1.3759  1.3189
28644SOL     OW89973   7.763   7.056   8.504  0.3852 -0.3562 -0.1565
28644SOL    HW189974   7.792   7.030   8.591  2.8713  1.7107 -0.2523
28644SOL    HW289975   7.769   7.151   8.504 -3.7291  0.0972 -1.2869
28645SOL     OW89976   9.279  10.018  10.022  0.3076 -0.1006 -0.6411
28645SOL    HW189977   9.307  10.109  10.020 -0.3538  0.1280 -0.0984
28645SOL    HW289978   9.302   9.988  10.110 -0.3534 -0.1614 -0.4834
28646SOL     OW89979   4.708   1.247   1.034 -0.0760  0.0981  0.0669
28646SOL    HW189980   4.671   1.198   1.107  0.4295 -2.7426 -1.4252
28646SOL    HW289981   4.664   1.212   0.957  0.8167  1.5664 -1.1591
28647SOL     OW89982   6.207   8.895   7.200  0.1005 -0.8833 -0.0922
28647SOL    HW189983   6.288   8.905   7.150 -1.2052 -0.8386 -2.3087
28647SOL    HW289984   6.157   8.830   7.152 -1.3253 -0.6832  1.0585
28648SOL     OW89985   7.852   7.005   0.121  0.6341 -0.0819  0.1692
28648SOL    HW189986   7.837   7.091   0.083  0.3049 -0.3843 -0.3946
28648SOL    HW289987   7.869   7.022   0.214  0.1199  0.5508  0.1524
28649SOL     OW89988   5.477   7.477   1.829 -0.9717  0.1919 -0.2447
28649SOL    HW189989   5.505   7.394   1.789 -1.2163  1.1448 -2.5894
28649SOL    HW289990   5.509   7.544   1.768  0.2068  1.9405  2.1573
28650SOL     OW89991   2.010   9.343   5.785  0.6036  0.0140  0.6463
28650SOL    HW189992   2.077   9.291   5.830  0.9763 -0.8035 -0.7704
28650SOL    HW289993   1.991   9.293   5.705 -1.9294  0.0650  1.1280
28651SOL     OW89994  10.036   2.299   2.989 -0.9754 -0.0536 -0.1791
28651SOL    HW189995   9.954   2.277   3.032 -0.7326  0.8685  0.8170
28651SOL    HW289996  10.104   2.257   3.042 -0.7205  0.4113 -0.1273
28652SOL     OW89997   1.099   6.020   2.743  0.3211  0.2636  0.0616
28652SOL    HW189998   1.069   5.961   2.812 -0.8114  0.8470  0.0831
28652SOL    HW289999   1.161   6.079   2.787 -0.2616  0.5252  0.5436
28653SOL     OW90000   3.723   2.674   7.271  0.0053 -0.3845  0.1357
28653SOL    HW190001   3.734   2.722   7.189 -2.4090  0.7169  0.3545
28653SOL    HW290002   3.710   2.583   7.244  3.4188 -0.8583 -0.3578
28654SOL     OW90003   7.982   9.918   8.251  0.4268  1.0231  0.3087
28654SOL    HW190004   7.920   9.985   8.281  1.4916  2.1932 -0.0050
28654SOL    HW290005   7.941   9.879   8.174 -1.3240 -0.4504  1.9050
28655SOL     OW90006   5.791   7.790   6.705 -0.9100  0.2455 -0.8593
28655SOL    HW190007   5.859   7.765   6.767 -1.4934  0.4617 -0.1196
28655SOL    HW290008   5.823   7.872   6.667  0.0923 -0.5793 -1.8714
28656SOL     OW90009   6.581   2.183   8.262  0.4240  0.4967  0.2061
28656SOL    HW190010   6.653   2.163   8.202  0.6295  3.2558 -0.6054
28656SOL    HW290011   6.505   2.140   8.222  0.7298  1.5190 -1.6242
28657SOL     OW90012   4.735   4.237   2.790  0.1053 -0.7405  0.1073
28657SOL    HW190013   4.785   4.157   2.774 -0.4241 -0.8541 -1.0591
28657SOL    HW290014   4.688   4.220   2.872 -0.9878 -2.1281 -0.7784
28658SOL     OW90015   3.061   9.349   1.219 -0.1685  0.2591  0.1355
28658SOL    HW190016   2.991   9.414   1.227 -0.0319  0.4778 -0.4311
28658SOL    HW290017   3.037   9.281   1.282  1.2028  2.1908  2.9258
28659SOL     OW90018   8.622   9.431   1.362  0.1263 -0.2015  0.5021
28659SOL    HW190019   8.529   9.451   1.371  0.2582  0.9487 -0.4259
28659SOL    HW290020   8.628   9.336   1.376 -1.4722 -0.6187 -1.2731
28660SOL     OW90021   8.264   3.192   4.204 -0.5887  0.2161  0.4705
28660SOL    HW190022   8.359   3.204   4.211 -0.7404  1.6367  0.4313
28660SOL    HW290023   8.227   3.263   4.256 -1.6307  1.1508 -1.4407
28661SOL     OW90024   5.400   5.740   7.856  0.6762  0.3395  0.0335
28661SOL    HW190025   5.339   5.802   7.895 -0.4432 -0.2967 -0.6702
28661SOL    HW290026   5.484   5.758   7.900  0.3223  2.1368  0.0312
28662SOL     OW90027   6.099   3.837   2.927  0.1258  0.0239  0.5992
28662SOL    HW190028   6.189   3.841   2.960  0.0126 -0.0449  0.9206
28662SOL    HW290029   6.047   3.811   3.003  0.0960 -1.9204 -0.0283
28663SOL     OW90030   0.486   8.631   5.565  0.1593  0.2867  0.3357
28663SOL    HW190031   0.469   8.629   5.659 -0.3587  1.5708  0.3016
28663SOL    HW290032   0.452   8.717   5.537  0.8444  0.1739 -0.9102
28664SOL     OW90033   2.487   5.442   7.525  0.2479  0.4992  0.2693
28664SOL    HW190034   2.496   5.385   7.601 -0.8730  0.6549  0.5409
28664SOL    HW290035   2.463   5.527   7.563 -0.4710  0.5367 -0.2583
28665SOL     OW90036   3.657   4.642   7.841 -0.0292  0.0159  0.1050
28665SOL    HW190037   3.656   4.737   7.829  0.5240  0.0414  0.2119
28665SOL    HW290038   3.748   4.617   7.824 -0.0178 -0.4073  0.7385
28666SOL     OW90039   2.884   1.637  10.166  0.1284  1.0410 -0.0134
28666SOL    HW190040   2.939   1.565  10.198 -0.5807 -0.1644 -1.4173
28666SOL    HW290041   2.945   1.698  10.125  0.4829 -0.1187 -1.2599
28667SOL     OW90042   3.380   1.910   1.120 -0.1447 -0.2716  0.3267
28667SOL    HW190043   3.330   1.881   1.043  2.6032  0.1087 -1.7697
28667SOL    HW290044   3.417   1.829   1.156 -0.4518 -0.3267  0.5230
28668SOL     OW90045   2.640   2.174   7.670  0.2427  0.3408  0.2504
28668SOL    HW190046   2.710   2.215   7.721 -0.9513  0.7107  1.6673
28668SOL    HW290047   2.579   2.245   7.651 -0.2115 -0.1469 -0.1515
28669SOL     OW90048   4.254   1.514   0.740  0.1977 -0.3786  0.1252
28669SOL    HW190049   4.310   1.576   0.693 -0.5371 -1.0194 -1.6885
28669SOL    HW290050   4.269   1.534   0.832  1.9021  0.7789 -0.3414
28670SOL     OW90051   3.989   7.360   4.333  0.2806 -0.0031  0.3458
28670SOL    HW190052   3.895   7.377   4.342  0.1597  0.4337 -1.2711
28670SOL    HW290053   4.001   7.345   4.239  1.9477  0.6541  0.4224
28671SOL     OW90054   0.049   3.489   7.255  0.0635  0.3345 -0.2173
28671SOL    HW190055  -0.005   3.434   7.198 -0.0652  1.0261 -0.7766
28671SOL    HW290056   0.003   3.573   7.257  0.7721  0.7293 -0.1683
28672SOL     OW90057  10.252   5.433  10.020  0.1280  0.5437 -0.0121
28672SOL    HW190058  10.297   5.433  10.104  0.0162  1.9123  0.0622
28672SOL    HW290059  10.311   5.384   9.962  0.5781  0.2682  0.6619
28673SOL     OW90060   6.134   0.202   9.355 -0.1456  0.3509 -0.2008
28673SOL    HW190061   6.190   0.263   9.307  0.4943 -0.3300 -0.3432
28673SOL    HW290062   6.045   0.237   9.344  0.1706  1.0663 -0.5519
28674SOL     OW90063   6.134   7.725   7.089 -0.3336 -0.2008 -0.3622
28674SOL    HW190064   6.220   7.734   7.049  0.0577 -0.7796  0.3168
28674SOL    HW290065   6.146   7.758   7.178 -0.5650 -1.1629  0.0305
28675SOL     OW90066   6.990   8.708   8.706 -0.4938 -0.2983  0.4176
28675SOL    HW190067   6.901   8.742   8.713 -1.1945 -2.0591  0.4223
28675SOL    HW290068   7.037   8.748   8.780 -1.5831 -0.2572  1.0996
28676SOL     OW90069   6.740   3.608  10.155 -0.1560  0.3122 -0.7093
28676SOL    HW190070   6.811   3.566  10.205 -1.4882 -0.8784  0.2534
28676SOL    HW290071   6.762   3.701  10.155 -0.8292  0.6221  3.4298
28677SOL     OW90072   1.063   0.799   8.640 -0.5196 -0.3685  0.3421
28677SOL    HW190073   1.098   0.812   8.552 -2.7449  2.0167 -0.3009
28677SOL    HW290074   0.996   0.732   8.630  0.2044 -1.1482  0.5580
28678SOL     OW90075   7.510   5.975   6.159  0.7579 -0.5231 -0.3813
28678SOL    HW190076   7.594   5.970   6.113  0.5367  0.2301 -0.8937
28678SOL    HW290077   7.531   6.022   6.240  0.8206 -0.2325 -0.5614
28679SOL     OW90078   8.167   2.898   3.119 -0.1880 -0.1291  0.0884
28679SOL    HW190079   8.226   2.825   3.138 -0.5404 -0.2273  0.8379
28679SOL    HW290080   8.085   2.856   3.092  0.2812  0.0016 -1.7063
28680SOL     OW90081   4.877   1.516   8.573 -0.3568  0.6407 -0.3557
28680SOL    HW190082   4.851   1.582   8.509 -1.4666 -0.3182 -0.9488
28680SOL    HW290083   4.941   1.462   8.527 -1.2509 -0.1274 -0.7500
28681SOL     OW90084   6.329   7.327   3.638  0.0820 -0.3566 -0.1733
28681SOL    HW190085   6.252   7.313   3.694 -0.5815  0.2546 -0.9070
28681SOL    HW290086   6.294   7.371   3.560  1.0131 -1.0240 -0.9910
28682SOL     OW90087   0.384   1.355   0.772  0.0685  0.2075 -0.1169
28682SOL    HW190088   0.473   1.342   0.739  0.5483  2.5543  0.0856
28682SOL    HW290089   0.369   1.449   0.765 -2.4171 -0.1258 -0.1187
28683SOL     OW90090   2.973   1.242   5.570  0.3305 -0.9001  0.2656
28683SOL    HW190091   2.994   1.322   5.521 -0.6083 -1.1311 -0.5550
28683SOL    HW290092   2.958   1.176   5.502 -1.3719 -1.1451  0.8226
28684SOL     OW90093   2.331   3.200   8.213  0.0600  0.2067  0.4432
28684SOL    HW190094   2.387   3.224   8.139  0.2441  2.1469  1.1696
28684SOL    HW290095   2.244   3.234   8.189  0.2251  1.2913  1.2887
28685SOL     OW90096   2.511   5.941   5.558 -0.1274  0.9256  0.0382
28685SOL    HW190097   2.469   5.995   5.625  0.5533  0.9821  0.4291
28685SOL    HW290098   2.592   5.987   5.537  1.7935 -1.1650  2.2622
28686SOL     OW90099   5.595  10.118   4.894 -0.3836  0.1970  0.1624
28686SOL    HW190100   5.520  10.064   4.873  0.5502 -0.9752 -0.2914
28686SOL    HW290101   5.558  10.199   4.929 -1.8930  0.2711 -1.4465
28687SOL     OW90102   0.821   2.563   7.748 -0.1597 -0.3549  0.0438
28687SOL    HW190103   0.836   2.514   7.829  1.9241  0.0238 -0.0595
28687SOL    HW290104   0.907   2.567   7.707 -1.2302 -0.8843 -2.4151
28688SOL     OW90105   6.610   4.514   8.067 -0.5781 -0.6736  0.0257
28688SOL    HW190106   6.698   4.478   8.071 -1.1570 -3.1165 -3.8739
28688SOL    HW290107   6.564   4.475   8.141  1.2830 -0.2209  1.4644
28689SOL     OW90108   0.436   0.607   8.348  0.3340  0.3188  0.2260
28689SOL    HW190109   0.445   0.527   8.295 -2.1776  0.4743 -0.5318
28689SOL    HW290110   0.502   0.666   8.312 -1.1177  0.3426 -2.6930
28690SOL     OW90111   8.090   5.689   5.704  0.1758  0.2788 -0.2389
28690SOL    HW190112   8.048   5.772   5.729  1.8869  0.6547  1.5938
28690SOL    HW290113   8.125   5.654   5.785  1.2570 -1.2519 -1.3101
28691SOL     OW90114   0.504   3.523   6.998  0.4013 -0.0090  0.3377
28691SOL    HW190115   0.486   3.616   6.993 -1.3248 -0.3441 -0.2077
28691SOL    HW290116   0.442   3.490   7.063  0.5614 -0.8805  0.0608
28692SOL     OW90117   5.461   2.773   3.172  0.7101  0.1770  0.4414
28692SOL    HW190118   5.419   2.805   3.093  0.8805 -3.0998 -1.1271
28692SOL    HW290119   5.547   2.817   3.173  0.3025  1.0399 -0.6151
28693SOL     OW90120   1.758   5.474   8.560  0.1962 -0.0620  0.5164
28693SOL    HW190121   1.814   5.475   8.482  1.3974 -0.8827  1.3382
28693SOL    HW290122   1.766   5.562   8.596  0.0768  0.1543  0.0247
28694SOL     OW90123   3.025   4.487   3.217  0.0095  0.3956  0.2590
28694SOL    HW190124   3.074   4.441   3.148  0.1622 -1.5315  1.5866
28694SOL    HW290125   2.933   4.466   3.199  0.0929 -0.6749  0.9878
28695SOL     OW90126   4.465   9.707   0.564  0.2183  0.3489 -0.0298
28695SOL    HW190127   4.443   9.693   0.657 -2.7465  0.6908 -0.5818
28695SOL    HW290128   4.511   9.627   0.538 -2.9314 -1.8739  0.6787
28696SOL     OW90129   5.228   7.385   7.137  0.1926 -0.2285 -0.0800
28696SOL    HW190130   5.227   7.468   7.185  0.6058 -0.6040  0.5799
28696SOL    HW290131   5.135   7.366   7.123  0.0199 -0.5018  1.2639
28697SOL     OW90132   6.526   5.618   9.226 -0.1245 -0.2209  0.2330
28697SOL    HW190133   6.580   5.587   9.153  1.2161  0.8106  0.7393
28697SOL    HW290134   6.545   5.558   9.297  1.1384  0.6866  0.6959
28698SOL     OW90135   4.026   4.863   0.707 -0.7626 -0.5352  0.4983
28698SOL    HW190136   4.084   4.905   0.644 -0.0088 -1.5763  0.4858
28698SOL    HW290137   3.983   4.937   0.752  0.1141  0.2460  0.0987
28699SOL     OW90138   3.512   1.862   6.695 -0.0850  0.0949 -0.5706
28699SOL    HW190139   3.465   1.876   6.613 -0.1236  0.4628 -0.4899
28699SOL    HW290140   3.470   1.785   6.734 -1.3813  1.0672  0.0318
28700SOL     OW90141   7.086   2.670   1.457  0.0096  0.1798 -0.2801
28700SOL    HW190142   7.171   2.628   1.471 -0.3402 -0.2261  0.6929
28700SOL    HW290143   7.025   2.597   1.450 -0.0807  0.3915 -2.5190
28701SOL     OW90144   3.033   7.627   2.599  0.0389 -0.6073  0.1739
28701SOL    HW190145   2.963   7.691   2.582 -0.7421 -1.6769 -0.8469
28701SOL    HW290146   3.080   7.621   2.515 -0.0433 -1.5279  0.1868
28702SOL     OW90147   6.497   5.113   9.118  0.9472  0.0926  0.2902
28702SOL    HW190148   6.461   5.080   9.036 -0.2635 -1.5050  1.3982
28702SOL    HW290149   6.551   5.041   9.151  0.3688  0.1960  1.5215
28703SOL     OW90150   8.264   6.774   4.844 -0.5189 -0.0684  0.4557
28703SOL    HW190151   8.336   6.717   4.817  0.4681  1.1007  0.5322
28703SOL    HW290152   8.298   6.820   4.921 -1.4830  0.2545  0.7031
28704SOL     OW90153   7.172   7.788   2.112 -0.1136  0.2491  0.0520
28704SOL    HW190154   7.080   7.786   2.088  0.0328  2.3489 -0.8454
28704SOL    HW290155   7.218   7.756   2.034  0.0034  1.1162 -0.2490
28705SOL     OW90156   7.692   0.777   1.645  0.2467 -0.7829  0.1180
28705SOL    HW190157   7.613   0.726   1.629  0.4284 -0.2455 -3.2059
28705SOL    HW290158   7.763   0.720   1.615  0.6888  0.3507 -1.0470
28706SOL     OW90159   0.151   0.875   7.686  0.4090  0.4817 -0.3403
28706SOL    HW190160   0.169   0.896   7.777 -2.0924  0.0741  0.3221
28706SOL    HW290161   0.121   0.784   7.688  1.0911  0.1890 -1.7190
28707SOL     OW90162   2.121   8.614   6.745  0.3804 -0.6480 -0.9071
28707SOL    HW190163   2.166   8.556   6.806 -1.8335 -0.1094  1.3889
28707SOL    HW290164   2.110   8.562   6.665 -0.1290 -2.8276  0.5164
28708SOL     OW90165   4.660   2.907   2.302  0.1400 -0.0819 -0.6239
28708SOL    HW190166   4.641   2.948   2.217 -1.1790 -0.2280 -0.4204
28708SOL    HW290167   4.593   2.838   2.311  0.2671 -0.0763  0.5196
28709SOL     OW90168   9.605   6.501   3.880 -0.0364  0.2364 -0.6798
28709SOL    HW190169   9.694   6.469   3.866  0.8448  1.3244  1.8701
28709SOL    HW290170   9.612   6.596   3.873 -0.4855  0.4993  1.6908
28710SOL     OW90171   4.820   8.053   6.896 -0.0638 -0.1162 -0.5704
28710SOL    HW190172   4.755   8.010   6.841 -0.4505 -0.0887 -0.1490
28710SOL    HW290173   4.856   8.123   6.842 -0.8702  0.2947 -0.5940
28711SOL     OW90174   8.067   0.108   2.939 -0.3552  0.4662  0.4021
28711SOL    HW190175   8.000   0.090   2.873 -1.3713  1.8066  1.0148
28711SOL    HW290176   8.027   0.173   2.997  1.0471  0.4156  1.4940
28712SOL     OW90177   2.804   6.168   2.685 -0.2896  0.6063  0.3172
28712SOL    HW190178   2.863   6.160   2.610  0.3083  1.5413  0.6702
28712SOL    HW290179   2.819   6.257   2.717 -0.8589  0.3624  1.2845
28713SOL     OW90180  10.294   1.762   1.140 -0.3619 -0.1289  0.0418
28713SOL    HW190181  10.318   1.784   1.230 -2.4629 -1.0948  0.9044
28713SOL    HW290182  10.231   1.829   1.115  0.1018  0.0493 -0.6807
28714SOL     OW90183  10.189   5.436   0.824 -0.0034 -0.0072 -0.7164
28714SOL    HW190184  10.197   5.492   0.901 -1.1132  0.5295 -0.9740
28714SOL    HW290185  10.275   5.441   0.782  0.8704 -0.8665  0.8390
28715SOL     OW90186   1.545   9.726   3.517 -0.0638 -0.1733 -0.2388
28715SOL    HW190187   1.493   9.790   3.468  0.0287 -0.0622 -0.1912
28715SOL    HW290188   1.629   9.769   3.533  0.4545 -0.7585 -1.2897
28716SOL     OW90189   8.496   0.260   6.008 -0.2310  0.0764 -0.1966
28716SOL    HW190190   8.539   0.264   6.093 -0.5555  1.4148 -0.0585
28716SOL    HW290191   8.402   0.269   6.028 -0.2263  1.6927 -0.7304
28717SOL     OW90192   6.800   2.599   0.305  0.0343 -0.0588 -0.5020
28717SOL    HW190193   6.764   2.539   0.370  2.7846 -0.3399  0.8787
28717SOL    HW290194   6.795   2.550   0.222 -1.4495 -0.5731 -0.1410
28718SOL     OW90195   0.080   1.645   2.093  0.4232  0.8172 -0.2837
28718SOL    HW190196  -0.014   1.652   2.073  0.1451  0.0731  0.6547
28718SOL    HW290197   0.115   1.732   2.076 -0.0144  0.5820 -2.6491
28719SOL     OW90198  10.126   7.690   4.680  0.1490 -0.1595  0.3829
28719SOL    HW190199  10.064   7.664   4.612  0.3342 -0.0097  0.1527
28719SOL    HW290200  10.076   7.689   4.761 -0.2142  0.2171  0.1612
28720SOL     OW90201   9.196   2.164   1.919  0.0912 -0.1155  0.4419
28720SOL    HW190202   9.141   2.100   1.964  0.7279 -0.3499  0.8976
28720SOL    HW290203   9.155   2.249   1.939  1.8567  0.0950  3.8349
28721SOL     OW90204   9.582   1.932   8.117  0.3655  0.3768 -0.2363
28721SOL    HW190205   9.500   1.969   8.151  0.5506  0.0876  0.5588
28721SOL    HW290206   9.648   1.958   8.181  0.3685 -2.0443  0.8796
28722SOL     OW90207   0.746   7.579   6.196 -0.3935 -0.1604 -0.7731
28722SOL    HW190208   0.677   7.583   6.262 -0.5580  0.0877 -0.9579
28722SOL    HW290209   0.815   7.636   6.231 -1.1473  1.3105 -1.5701
28723SOL     OW90210   6.424   2.927   6.897 -0.3314 -0.0612  0.1711
28723SOL    HW190211   6.381   2.846   6.869  0.3622 -0.6737  0.8252
28723SOL    HW290212   6.464   2.962   6.818  0.4284 -1.0313  0.1181
28724SOL     OW90213   9.664   8.877   7.832 -0.1317  0.5435  0.0639
28724SOL    HW190214   9.638   8.969   7.822 -2.6335 -0.2314 -1.3266
28724SOL    HW290215   9.736   8.866   7.769  0.9566  1.7586  1.0345
28725SOL     OW90216   5.974   7.979   9.865 -0.3469 -0.0267  0.7479
28725SOL    HW190217   5.982   7.959   9.959 -0.8588 -1.8035  0.4513
28725SOL    HW290218   5.913   7.914   9.832  0.3949  0.1010 -0.9805
28726SOL     OW90219   4.177   9.601   1.298  0.6796 -0.0167 -0.0567
28726SOL    HW190220   4.160   9.690   1.266  0.2576  0.1369  0.5843
28726SOL    HW290221   4.189   9.550   1.218  1.8342  0.7805 -0.4289
28727SOL     OW90222  10.209   6.245   1.123 -0.3069 -0.4131  0.3996
28727SOL    HW190223  10.275   6.308   1.094  1.0423 -1.0089  2.0267
28727SOL    HW290224  10.128   6.296   1.129  0.9749  1.5564  2.7889
28728SOL     OW90225   5.684   6.062   4.587  0.0094  0.3625  0.1392
28728SOL    HW190226   5.694   5.971   4.562 -0.9513  0.5548 -1.0130
28728SOL    HW290227   5.589   6.074   4.597  0.0934  1.3280 -0.1204
28729SOL     OW90228   7.421   3.431   6.126  0.4160 -0.6512  0.1542
28729SOL    HW190229   7.386   3.490   6.194  1.6074  0.7910 -0.4130
28729SOL    HW290230   7.485   3.376   6.172  0.7087 -0.1561  0.3527
28730SOL     OW90231   2.996   6.470   7.470  0.3047 -0.1017  0.4838
28730SOL    HW190232   3.062   6.535   7.492  1.3342 -1.0854  0.4263
28730SOL    HW290233   2.935   6.472   7.544 -0.3209  1.6892 -0.0476
28731SOL     OW90234   6.718   4.375   5.767 -0.5427 -0.7004  0.3260
28731SOL    HW190235   6.623   4.386   5.775 -0.8738 -1.6109 -1.7599
28731SOL    HW290236   6.729   4.301   5.708  1.4929 -0.8928  0.8748
28732SOL     OW90237   4.976   9.542   1.874 -0.5463  0.9839  0.7720
28732SOL    HW190238   5.041   9.533   1.804  0.4283  0.1728  1.7427
28732SOL    HW290239   4.935   9.456   1.879  1.0217  0.2682  2.6998
28733SOL     OW90240   5.857   1.746   4.432  0.5503  0.3499  0.6474
28733SOL    HW190241   5.772   1.735   4.475  1.5464  2.0989  3.3634
28733SOL    HW290242   5.901   1.662   4.446 -1.3313 -1.4229 -2.7269
28734SOL     OW90243  10.180   1.692   1.547 -0.2483 -0.0190 -0.2823
28734SOL    HW190244  10.129   1.697   1.628 -0.4135 -1.3390 -0.2778
28734SOL    HW290245  10.115   1.681   1.478 -0.0803  0.5988 -0.5492
28735SOL     OW90246   8.791   8.822   7.433  0.3919 -0.2071 -0.1933
28735SOL    HW190247   8.789   8.726   7.425  0.0323 -0.2764  0.5762
28735SOL    HW290248   8.877   8.841   7.470 -0.5195 -0.5052  2.3095
28736SOL     OW90249   0.362   0.178   0.144  0.6033 -0.0068  0.3190
28736SOL    HW190250   0.435   0.220   0.098 -0.5085  0.7020 -0.8644
28736SOL    HW290251   0.305   0.250   0.170  0.2720 -0.5609  1.1540
28737SOL     OW90252   0.745   1.537   5.705  0.2443 -1.0036 -0.2759
28737SOL    HW190253   0.754   1.604   5.636  1.3363  0.2908  1.0554
28737SOL    HW290254   0.705   1.584   5.778 -1.4441 -2.5001 -0.1515
28738SOL     OW90255   3.769   9.203   0.315 -0.0273  0.3220  0.2206
28738SOL    HW190256   3.746   9.158   0.234 -0.6222  1.3348 -0.2043
28738SOL    HW290257   3.863   9.217   0.309  0.4987 -2.3060  1.1545
28739SOL     OW90258   0.372   6.423   8.332  0.2028 -0.4546 -0.2009
28739SOL    HW190259   0.448   6.439   8.276  1.2242  0.3817  1.3799
28739SOL    HW290260   0.311   6.493   8.308  1.7963  1.7044  1.6702
28740SOL     OW90261   4.336   6.749   5.725  0.0212  0.0314 -0.4289
28740SOL    HW190262   4.309   6.710   5.642 -0.4323  1.5622 -1.0415
28740SOL    HW290263   4.336   6.844   5.708  4.6658  0.3118 -0.1464
28741SOL     OW90264   4.951   4.302   0.926  0.1799  1.0336 -0.2274
28741SOL    HW190265   5.009   4.371   0.894  0.0946  1.2667  0.1170
28741SOL    HW290266   4.993   4.270   1.005  0.8344 -0.1356 -1.0231
28742SOL     OW90267   7.647   3.920   1.089  0.2708 -0.4517 -0.0016
28742SOL    HW190268   7.733   3.902   1.051  0.1800 -1.3150  0.1958
28742SOL    HW290269   7.627   3.843   1.142 -1.8553 -1.5188 -2.2127
28743SOL     OW90270   6.570   2.282   2.426  0.0358  0.4181  0.4077
28743SOL    HW190271   6.576   2.219   2.354 -0.7000  0.9064 -0.0984
28743SOL    HW290272   6.481   2.316   2.420 -0.6008 -0.7163  2.5715
28744SOL     OW90273   1.696   2.474   9.087 -0.3921 -0.3426 -0.1128
28744SOL    HW190274   1.673   2.493   8.996  1.3192  1.4271 -0.2372
28744SOL    HW290275   1.662   2.549   9.137 -0.8583 -1.0402  0.6488
28745SOL     OW90276   3.635   3.816   8.506  0.3755  0.0921 -0.3388
28745SOL    HW190277   3.637   3.900   8.552 -0.1736  0.1906 -0.4874
28745SOL    HW290278   3.722   3.779   8.520  0.6381  0.7079 -0.3134
28746SOL     OW90279   9.941   4.216   4.298 -0.4478 -0.2672  0.6841
28746SOL    HW190280  10.035   4.223   4.281 -0.4090 -3.6607 -1.5450
28746SOL    HW290281   9.905   4.177   4.218 -3.7208  0.5459  1.6068
28747SOL     OW90282   3.178   3.098   4.514  0.3703 -0.1440 -0.0977
28747SOL    HW190283   3.160   3.007   4.536 -1.4027 -0.0387 -0.9400
28747SOL    HW290284   3.216   3.135   4.593  1.9754 -1.8135 -0.0259
28748SOL     OW90285   1.230   1.268   3.876 -0.3078 -0.1686  0.4358
28748SOL    HW190286   1.148   1.231   3.843  1.0018 -2.2399 -0.6332
28748SOL    HW290287   1.239   1.232   3.964 -0.7923  0.4965  0.7646
28749SOL     OW90288   1.145   2.088  10.147  0.2142 -0.3689  0.0901
28749SOL    HW190289   1.136   1.998  10.115 -2.1729 -0.2682  0.3166
28749SOL    HW290290   1.187   2.135  10.075  0.3808 -1.4044 -0.5114
28750SOL     OW90291   2.391   0.699   9.416  0.1654 -0.5337 -0.1595
28750SOL    HW190292   2.460   0.765   9.426  0.2206 -0.6714  0.4042
28750SOL    HW290293   2.435   0.616   9.436  0.8535 -1.1644 -3.5379
28751SOL     OW90294   2.225   6.237   3.223 -0.3983  0.3014  0.3950
28751SOL    HW190295   2.215   6.282   3.307 -0.6065 -1.0386  1.1103
28751SOL    HW290296   2.163   6.164   3.227 -1.0392  0.7076 -1.2915
28752SOL     OW90297   1.535   9.099   7.186  0.5758  0.1605  0.1709
28752SOL    HW190298   1.630   9.099   7.179  0.5692  0.6188  0.0553
28752SOL    HW290299   1.508   9.185   7.155  0.1720  0.3085  0.8852
28753SOL     OW90300   1.273   8.462   0.911  0.0690 -0.4843  0.1385
28753SOL    HW190301   1.225   8.526   0.857  0.5518 -1.5459 -1.6463
28753SOL    HW290302   1.355   8.449   0.864  0.6530 -1.2241  1.3318
28754SOL     OW90303   2.880   0.221   8.146  0.4232  0.2600 -0.3409
28754SOL    HW190304   2.883   0.298   8.202 -2.4134  1.3692 -1.5367
28754SOL    HW290305   2.971   0.192   8.141  1.3734  2.6268  1.3652
28755SOL     OW90306   9.736   1.593   1.287  0.1697  0.0558 -0.0517
28755SOL    HW190307   9.746   1.500   1.263  1.0375  0.2275 -0.3954
28755SOL    HW290308   9.647   1.599   1.321  0.3168 -1.0447  0.5971
28756SOL     OW90309   7.077   1.032   6.651 -0.0525  0.4885 -0.1921
28756SOL    HW190310   6.989   1.018   6.615  0.4069  0.4033 -1.3106
28756SOL    HW290311   7.061   1.075   6.735 -1.1575  0.6724 -0.4723
28757SOL     OW90312  10.111   2.128   8.325  0.8422  0.3687  0.1364
28757SOL    HW190313  10.185   2.163   8.276  0.1878  0.7039 -0.6297
28757SOL    HW290314  10.072   2.062   8.267 -1.1108  2.1255 -0.6839
28758SOL     OW90315   0.351   9.046   6.165  0.3529 -0.2739 -0.0514
28758SOL    HW190316   0.375   9.138   6.180  1.7676 -0.3249 -1.6919
28758SOL    HW290317   0.287   9.027   6.233  0.1571  1.8782  0.4470
28759SOL     OW90318   8.726   2.305   1.365  0.0930 -0.4234  0.1549
28759SOL    HW190319   8.798   2.367   1.349  1.2400 -1.4809  1.0326
28759SOL    HW290320   8.722   2.252   1.285 -2.5760  2.2453 -1.7272
28760SOL     OW90321   4.986   4.740   5.285 -0.0999  0.2461 -0.3377
28760SOL    HW190322   4.960   4.717   5.374  0.7297 -0.4288 -0.2544
28760SOL    HW290323   5.072   4.698   5.274 -1.3539 -2.0237 -2.4028
28761SOL     OW90324   3.038   0.722   7.039  0.3152  0.4025  0.3172
28761SOL    HW190325   3.088   0.642   7.021  2.3519  1.7952 -0.5325
28761SOL    HW290326   2.995   0.742   6.957 -1.2705 -0.4765  0.8913
28762SOL     OW90327   8.956   3.811   9.811 -0.0041  0.3046  0.0997
28762SOL    HW190328   9.019   3.739   9.825  0.9423  0.9430 -0.7238
28762SOL    HW290329   8.879   3.768   9.773  1.1333 -0.1207 -1.8749
28763SOL     OW90330   0.619   1.334   2.041 -0.1016 -0.2670 -0.2341
28763SOL    HW190331   0.550   1.397   2.061 -1.0269 -0.8493 -1.4684
28763SOL    HW290332   0.681   1.382   1.986 -0.3975 -0.2094 -0.5183
28764SOL     OW90333   6.901   4.644   1.675  0.1051 -0.0329  0.4300
28764SOL    HW190334   6.828   4.663   1.735  0.0619  0.3356  0.2590
28764SOL    HW290335   6.872   4.678   1.591  1.8765  3.3258  1.0297
28765SOL     OW90336  10.235   0.430   1.332  0.0444  0.3204  0.1832
28765SOL    HW190337  10.211   0.439   1.240  0.9513  0.7879 -0.0183
28765SOL    HW290338  10.264   0.517   1.358  3.5898 -0.5621 -0.2217
28766SOL     OW90339   0.028   9.978   5.673  0.4562  0.2680  0.1218
28766SOL    HW190340   0.099  10.005   5.732 -1.3141  0.0960  2.4614
28766SOL    HW290341  -0.052  10.002   5.719 -1.1010 -2.5146 -0.8674
28767SOL     OW90342   5.071   5.048   8.879 -0.1547  0.1529 -0.2979
28767SOL    HW190343   5.162   5.022   8.861 -0.1035  0.1865 -0.0819
28767SOL    HW290344   5.078   5.136   8.916 -0.2131 -0.1914  0.5389
28768SOL     OW90345   6.933   8.248  10.105  0.4246 -0.0338  0.3426
28768SOL    HW190346   7.005   8.208  10.058  0.3077  0.3246 -0.1491
28768SOL    HW290347   6.974   8.295  10.178  0.9479  2.1325 -1.2453
28769SOL     OW90348   7.770   7.243   9.585  0.1144  0.5130  0.4198
28769SOL    HW190349   7.765   7.337   9.571  2.0728  0.8527  1.6512
28769SOL    HW290350   7.681   7.211   9.569 -0.4693  2.4796 -0.5013
28770SOL     OW90351   6.783   2.173  10.210 -0.1421 -0.0665 -0.1548
28770SOL    HW190352   6.863   2.120  10.204  1.2574  1.8044  0.6412
28770SOL    HW290353   6.773   2.210  10.122 -0.2667 -0.4899 -0.3194
28771SOL     OW90354   9.390   7.812   9.044 -0.2956 -0.0309  0.7538
28771SOL    HW190355   9.435   7.772   9.118  0.5119  0.3239  0.4674
28771SOL    HW290356   9.418   7.761   8.968 -0.3867  0.1847  0.5720
28772SOL     OW90357   3.857   7.940   5.130  0.2294  0.2004 -0.5499
28772SOL    HW190358   3.941   7.915   5.166 -0.7688  0.1189  1.9574
28772SOL    HW290359   3.793   7.910   5.195 -1.4912  3.1597 -0.6682
28773SOL     OW90360   2.383   2.960   9.458  0.4723 -0.1919 -0.1790
28773SOL    HW190361   2.403   2.979   9.367 -1.7541  1.8333 -0.3459
28773SOL    HW290362   2.294   2.924   9.457 -0.2471  1.3531  1.2370
28774SOL     OW90363   6.745   9.418   5.083 -0.5842 -0.7681 -0.1926
28774SOL    HW190364   6.696   9.478   5.027 -1.7071  0.7949  2.3201
28774SOL    HW290365   6.766   9.344   5.026 -2.2551  0.3901 -2.4560
28775SOL     OW90366   8.134   2.216   3.463  0.8274 -0.2519  0.0313
28775SOL    HW190367   8.196   2.143   3.452 -0.3023 -1.2052 -0.3072
28775SOL    HW290368   8.048   2.175   3.454  0.1271  0.9612  0.9539
28776SOL     OW90369   3.871   6.801   9.782 -0.5903  0.1962 -0.0604
28776SOL    HW190370   3.846   6.724   9.732  1.4217 -0.2538 -0.4679
28776SOL    HW290371   3.846   6.780   9.872 -3.5815  0.7179 -0.6644
28777SOL     OW90372   3.298   9.285   0.559  0.1154  0.1143 -0.1432
28777SOL    HW190373   3.257   9.370   0.540 -2.1481 -1.3379 -2.3085
28777SOL    HW290374   3.317   9.248   0.473 -1.0989 -2.5351  0.6415
28778SOL     OW90375   0.691   0.599   0.187 -0.2965  0.3367 -0.0917
28778SOL    HW190376   0.648   0.684   0.174 -1.9220 -0.2531  1.2055
28778SOL    HW290377   0.699   0.590   0.282 -0.1317 -0.9641 -0.2139
28779SOL     OW90378   6.035   7.748   4.539 -0.2710  0.3219 -0.1663
28779SOL    HW190379   6.114   7.723   4.587 -1.2168  0.0595  1.3502
28779SOL    HW290380   6.056   7.731   4.447  0.7029 -1.8375  0.3802
28780SOL     OW90381   7.081   5.321   3.440  0.2165  0.5004 -0.2550
28780SOL    HW190382   7.110   5.407   3.411 -0.0780  0.4866 -0.5996
28780SOL    HW290383   7.031   5.338   3.520  0.9626  0.5477  0.2068
28781SOL     OW90384   1.483   4.452   0.541  0.1892  0.0912 -0.2615
28781SOL    HW190385   1.470   4.547   0.539 -1.4139 -0.0882  0.3780
28781SOL    HW290386   1.511   4.433   0.630 -0.8740 -0.1710  0.0344
28782SOL     OW90387   5.547   6.749   5.411  0.4813  0.4488 -0.4557
28782SOL    HW190388   5.611   6.713   5.472 -1.2332  0.9991  1.8029
28782SOL    HW290389   5.501   6.672   5.376  1.2361  0.1482 -0.8049
28783SOL     OW90390   4.262   5.484   7.910 -0.3581 -0.6639  0.1628
28783SOL    HW190391   4.282   5.554   7.848  2.4414 -2.4500 -1.2001
28783SOL    HW290392   4.172   5.459   7.890 -1.4361  2.4674  0.7188
28784SOL     OW90393   6.031   9.466   2.193 -0.2600  0.3480  0.1812
28784SOL    HW190394   6.089   9.541   2.177 -0.4587  0.6374  0.7769
28784SOL    HW290395   5.943   9.503   2.188 -0.3567  0.1686  0.5337
28785SOL     OW90396   3.969   0.106   7.006  0.4553  0.3240  0.3648
28785SOL    HW190397   3.991   0.013   7.008 -1.5787 -0.2361 -0.8136
28785SOL    HW290398   3.960   0.127   6.913 -0.5724  1.3241  0.6714
28786SOL     OW90399   7.634   1.111   8.852  0.2234 -0.1972 -0.1828
28786SOL    HW190400   7.599   1.084   8.937 -0.0294 -0.9078 -0.5156
28786SOL    HW290401   7.681   1.034   8.820  0.9360  0.3029 -0.3652
28787SOL     OW90402   0.071   2.842   4.472 -0.5347 -0.0970  0.1141
28787SOL    HW190403   0.028   2.868   4.391  1.7429 -1.0555 -1.5153
28787SOL    HW290404   0.092   2.749   4.460  0.5682 -0.0615  1.4432
28788SOL     OW90405   7.000   9.325   0.611  0.3323 -0.8907  0.6028
28788SOL    HW190406   6.985   9.232   0.625 -1.6109 -0.7013  0.1055
28788SOL    HW290407   6.978   9.366   0.695 -1.0927 -0.7002  0.1623
28789SOL     OW90408   7.738   0.888   5.842  0.3592  0.0523 -0.0514
28789SOL    HW190409   7.714   0.823   5.909  0.4450 -0.3155 -0.3731
28789SOL    HW290410   7.701   0.970   5.874  0.5803 -0.0792  0.5530
28790SOL     OW90411   0.472   1.605   2.437  0.2160 -0.1406 -0.4816
28790SOL    HW190412   0.512   1.674   2.384  0.9437 -1.2544 -1.4240
28790SOL    HW290413   0.379   1.608   2.412 -0.1266  1.6117  0.7817
28791SOL     OW90414  10.005   5.991   0.252  0.4499  0.3131  0.2407
28791SOL    HW190415   9.988   5.914   0.198  0.3249  1.2176 -1.0573
28791SOL    HW290416  10.067   5.961   0.317 -0.6329 -1.2308  0.6219
28792SOL     OW90417   7.140   1.050   8.662  0.0597 -0.0471 -0.2466
28792SOL    HW190418   7.203   0.987   8.698 -1.0556 -2.0380 -1.5953
28792SOL    HW290419   7.169   1.064   8.572 -0.1069  0.8651 -0.1656
28793SOL     OW90420   2.493   0.752   3.518  0.5844  0.0448  0.3724
28793SOL    HW190421   2.448   0.829   3.485  0.1982  0.2155  1.2775
28793SOL    HW290422   2.440   0.678   3.487  1.2721  0.0901 -0.9873
28794SOL     OW90423   1.895  10.227   8.735  0.0535 -0.0830  0.2252
28794SOL    HW190424   1.962  10.179   8.784  0.7331  0.7241  0.1198
28794SOL    HW290425   1.925  10.225   8.644 -0.7008 -0.7390 -0.0202
28795SOL     OW90426   6.406   3.729   3.821 -0.3891 -0.2321  0.6762
28795SOL    HW190427   6.398   3.709   3.727 -0.4302 -0.0635  0.6429
28795SOL    HW290428   6.316   3.723   3.854 -0.6365  1.3305  0.3701
28796SOL     OW90429   6.541   0.731   4.429 -0.5216 -0.0312  0.2410
28796SOL    HW190430   6.557   0.638   4.442  0.0889  0.1208  0.6778
28796SOL    HW290431   6.468   0.736   4.368  0.9415 -0.8067 -1.6798
28797SOL     OW90432   1.578  10.287   6.636  0.0452 -0.2931  0.4173
28797SOL    HW190433   1.576  10.200   6.597  0.0438  0.0825 -0.4387
28797SOL    HW290434   1.666  10.294   6.675  0.0394 -0.6782  0.4992
28798SOL     OW90435   3.658   9.232   0.554 -0.4829  0.8747  0.0760
28798SOL    HW190436   3.717   9.186   0.614 -1.4497  1.1262  1.2563
28798SOL    HW290437   3.709   9.242   0.473  1.4109  1.8166  1.3131
28799SOL     OW90438   6.449   1.810   5.635 -0.6256 -0.3572 -0.0890
28799SOL    HW190439   6.541   1.838   5.642  0.2810 -2.8048 -0.8791
28799SOL    HW290440   6.449   1.722   5.672 -2.7574 -0.2932  0.1604
28800SOL     OW90441   1.499   3.348   2.692  0.0320 -0.1741 -0.1366
28800SOL    HW190442   1.405   3.355   2.710  0.1729  1.4392  0.0871
28800SOL    HW290443   1.525   3.435   2.663  1.3999 -0.6932 -0.5460
28801SOL     OW90444   0.643   2.481  10.232  0.0402  0.1662 -0.3719
28801SOL    HW190445   0.552   2.504  10.212  0.0246 -0.0716 -0.5792
28801SOL    HW290446   0.672   2.548  10.294  0.4724  1.7115 -2.1250
28802SOL     OW90447   0.073   6.674   6.152  0.2661  0.7939  0.0722
28802SOL    HW190448   0.014   6.599   6.144  0.3472  0.8955 -1.7898
28802SOL    HW290449   0.016   6.750   6.146  0.3496  0.8883  0.4614
28803SOL     OW90450   2.829   4.757   3.130 -0.6178 -0.5083 -0.8726
28803SOL    HW190451   2.883   4.817   3.078 -1.4678  0.6971 -0.4169
28803SOL    HW290452   2.846   4.782   3.221  1.3411 -3.0121 -0.4513
28804SOL     OW90453   4.127   1.105   9.619  0.1219  0.7508  0.7049
28804SOL    HW190454   4.103   1.038   9.682  2.8007 -1.5317 -0.5108
28804SOL    HW290455   4.080   1.081   9.539 -1.2889  2.1771  1.0539
28805SOL     OW90456   1.994   1.621   7.601 -0.0280 -0.7508  0.3897
28805SOL    HW190457   1.990   1.603   7.695  1.5841  1.9172  1.0560
28805SOL    HW290458   1.918   1.677   7.584  1.4049  1.4255  0.8409
28806SOL     OW90459   4.302   1.035   1.480  0.9939 -0.0368  0.5697
28806SOL    HW190460   4.249   1.050   1.559 -0.0264 -2.7939  0.5119
28806SOL    HW290461   4.292   0.942   1.462  1.1226  0.4845 -2.8847
28807SOL     OW90462   7.601   7.860   2.395  0.0211 -0.4114 -0.9479
28807SOL    HW190463   7.579   7.897   2.480  0.9804 -0.4563 -0.6783
28807SOL    HW290464   7.551   7.778   2.390  0.5863 -0.8177 -0.0852
28808SOL     OW90465   3.644   0.531   3.616 -0.3014 -0.0148  0.3499
28808SOL    HW190466   3.566   0.482   3.641  0.5991 -1.2858  0.7480
28808SOL    HW290467   3.703   0.466   3.578  0.7264  0.8494  0.4047
28809SOL     OW90468   0.575   1.499   6.199  0.4242  0.2857  0.6740
28809SOL    HW190469   0.617   1.585   6.200 -1.2384  1.1519 -0.1036
28809SOL    HW290470   0.491   1.512   6.244  0.5676 -1.1914  1.4651
28810SOL     OW90471   1.841   4.656   3.611 -0.2733 -0.1651  0.3097
28810SOL    HW190472   1.749   4.670   3.632 -0.0351  0.7840  0.7744
28810SOL    HW290473   1.840   4.601   3.532 -1.2136 -1.0977  0.9476
28811SOL     OW90474   8.207   6.491   4.636 -0.6398 -0.0763 -0.3811
28811SOL    HW190475   8.300   6.469   4.627 -0.6864 -1.3527  1.4572
28811SOL    HW290476   8.198   6.520   4.727 -2.0143  0.0944 -0.5451
28812SOL     OW90477   2.906   1.890   1.689  0.2566 -0.0711 -0.3724
28812SOL    HW190478   2.978   1.843   1.731 -1.3269 -1.5024  0.8676
28812SOL    HW290479   2.937   1.908   1.600  1.7730 -1.4523 -0.1619
28813SOL     OW90480   9.358   5.905   1.662  0.1674  0.2993 -0.0625
28813SOL    HW190481   9.338   5.980   1.719  0.4058  0.5559 -0.3085
28813SOL    HW290482   9.401   5.945   1.586  0.8152 -0.1442  0.0599
28814SOL     OW90483   5.635  10.249  10.111  0.4614 -0.1756 -0.2044
28814SOL    HW190484   5.593  10.170  10.147 -1.8875  1.2603  0.3975
28814SOL    HW290485   5.606  10.320  10.168  1.0465  1.4146 -1.8082
28815SOL     OW90486   5.196   9.055   0.807  0.2168 -0.2114 -0.0811
28815SOL    HW190487   5.146   8.999   0.747 -0.7055  0.1099  0.3689
28815SOL    HW290488   5.186   9.013   0.892 -0.7833  0.7882  0.3308
28816SOL     OW90489   0.981   1.005   1.924  0.5419  0.3266  0.5312
28816SOL    HW190490   1.000   0.911   1.917  0.9087  0.4567 -0.3841
28816SOL    HW290491   0.942   1.015   2.011 -0.6758 -0.8858  0.1732
28817SOL     OW90492   0.802   6.065   2.634  0.7847  0.1086  0.3195
28817SOL    HW190493   0.861   6.110   2.694 -0.7252  1.1500  1.0874
28817SOL    HW290494   0.773   5.987   2.683  1.1704 -0.1738  0.1062
28818SOL     OW90495   2.899   0.846   9.036 -0.4445 -0.1427 -0.8366
28818SOL    HW190496   2.889   0.775   8.973  1.0394 -0.5115 -0.7077
28818SOL    HW290497   2.993   0.863   9.037 -0.5209  0.3349  0.7426
28819SOL     OW90498   6.343   9.017   5.218  0.3242  0.8173 -0.6220
28819SOL    HW190499   6.438   9.023   5.228  0.6999 -0.4679 -2.8356
28819SOL    HW290500   6.317   9.102   5.182  0.6562  1.1176 -0.1556
28820SOL     OW90501   6.043   6.837   4.541 -0.1377 -0.0200  0.3920
28820SOL    HW190502   5.984   6.893   4.489 -1.6017 -0.3970  1.5762
28820SOL    HW290503   6.114   6.815   4.481 -2.3689 -1.4803 -1.9779
28821SOL     OW90504   5.245  10.293   5.750  0.8383 -0.0718  0.2875
28821SOL    HW190505   5.156  10.258   5.754  0.5685 -0.2023 -3.6029
28821SOL    HW290506   5.234  10.385   5.726  1.7695  0.7483  2.7218
28822SOL     OW90507   0.896   1.268   5.290  0.0550 -0.1165  0.4507
28822SOL    HW190508   0.854   1.192   5.329  0.8759  0.3115  2.2710
28822SOL    HW290509   0.966   1.291   5.351  1.0415  0.9674 -1.0061
28823SOL     OW90510   2.726   3.025   0.817  0.1310 -0.3935  0.3626
28823SOL    HW190511   2.791   3.084   0.779 -0.6907 -1.5370 -3.1919
28823SOL    HW290512   2.778   2.957   0.859  1.5186 -1.9045 -3.3473
28824SOL     OW90513   6.762   6.235   7.365  0.0450 -0.4472 -0.0694
28824SOL    HW190514   6.782   6.323   7.332 -1.0911  0.4686  1.4886
28824SOL    HW290515   6.828   6.221   7.433 -0.9526  0.0898  1.0501
28825SOL     OW90516   0.455   3.818   9.980  0.0338 -0.0743  0.4534
28825SOL    HW190517   0.386   3.854   9.924 -0.1033  0.5911  1.0352
28825SOL    HW290518   0.427   3.839  10.069  0.2757 -1.0781  0.7787
28826SOL     OW90519   2.431   7.804   8.264 -0.2783  0.2948  0.4895
28826SOL    HW190520   2.519   7.838   8.278 -0.5834  0.4787  2.1464
28826SOL    HW290521   2.383   7.828   8.343 -1.5531 -0.6728  0.0461
28827SOL     OW90522   2.453   3.953   3.700 -0.3360 -0.0479  0.2284
28827SOL    HW190523   2.385   3.922   3.639 -1.2915 -0.3523  1.4089
28827SOL    HW290524   2.483   3.874   3.744  0.0972  0.2114  0.3983
28828SOL     OW90525   5.075   3.966   5.230  0.4459  0.2234 -0.3161
28828SOL    HW190526   5.128   3.995   5.304  1.5441  0.8688 -1.3137
28828SOL    HW290527   4.988   3.953   5.266  0.7845  1.2438  0.9359
28829SOL     OW90528   0.022   1.755  10.000 -0.0151  0.0501 -0.0522
28829SOL    HW190529   0.011   1.786  10.090  1.9094  0.1006  0.2035
28829SOL    HW290530  -0.052   1.793   9.952 -0.0081  1.6176  1.1010
28830SOL     OW90531   1.436   1.588   2.064 -0.3588  0.3986 -0.0875
28830SOL    HW190532   1.369   1.536   2.020 -1.2434  0.1911  1.4443
28830SOL    HW290533   1.462   1.535   2.139  1.1189  0.7357 -0.3349
28831SOL     OW90534   0.824   3.695   0.659 -0.2437  0.2216 -0.2128
28831SOL    HW190535   0.824   3.776   0.710  1.4817  1.0582 -1.4125
28831SOL    HW290536   0.769   3.635   0.708  0.3252  1.3708  1.9410
28832SOL     OW90537   6.637   3.241   9.389  0.0856  0.1806  0.4170
28832SOL    HW190538   6.569   3.254   9.322  1.5177  0.0022 -1.1342
28832SOL    HW290539   6.658   3.329   9.419  0.5426  0.4075 -0.5353
28833SOL     OW90540   5.174   1.868   9.252  0.2872 -0.7882 -0.5613
28833SOL    HW190541   5.111   1.921   9.300  2.0871  0.2935  0.6918
28833SOL    HW290542   5.120   1.813   9.195 -1.8074 -0.4432  0.9834
28834SOL     OW90543   8.904   1.768   9.574 -0.1562  0.5115 -0.1008
28834SOL    HW190544   8.996   1.775   9.602  0.0874  1.3094 -1.0408
28834SOL    HW290545   8.909   1.737   9.484 -0.8691 -0.5646  0.2235
28835SOL     OW90546   0.010   9.717   6.906 -0.4894 -0.1408  0.3959
28835SOL    HW190547   0.001   9.781   6.977 -2.3080  0.7168 -0.5529
28835SOL    HW290548   0.058   9.764   6.838 -2.3603  0.5004 -0.5494
28836SOL     OW90549   6.978   8.312   1.697  0.2469  0.1157 -0.2929
28836SOL    HW190550   6.964   8.403   1.670  4.0579  0.4790 -1.6020
28836SOL    HW290551   7.009   8.318   1.787 -0.2587  0.0015 -0.1052
28837SOL     OW90552   2.924   0.665   8.263 -0.2699  0.7533 -0.2387
28837SOL    HW190553   2.899   0.696   8.175 -2.1451 -0.7382 -0.3091
28837SOL    HW290554   3.001   0.717   8.286 -0.4737  2.0677 -2.2461
28838SOL     OW90555   3.865   2.562   0.906  0.1668 -0.3745 -0.0764
28838SOL    HW190556   3.904   2.480   0.875 -0.1339 -1.0659  1.3215
28838SOL    HW290557   3.774   2.559   0.874  0.1679 -0.5601 -0.0609
28839SOL     OW90558   4.817   3.838   6.439  0.5290  1.0066 -0.1131
28839SOL    HW190559   4.781   3.899   6.503 -2.5958  0.3529 -1.1150
28839SOL    HW290560   4.843   3.762   6.490 -0.6666  1.0256  0.5413
28840SOL     OW90561   0.172   8.559   8.965 -0.2565  0.0210  0.4113
28840SOL    HW190562   0.185   8.638   9.017 -1.8350  0.2772  0.4637
28840SOL    HW290563   0.161   8.489   9.029 -1.5920  0.2373  0.4538
28841SOL     OW90564   1.911   4.049   2.192 -0.0408  0.5548  0.1668
28841SOL    HW190565   1.940   4.015   2.108  1.1946  1.0737  0.3520
28841SOL    HW290566   1.898   4.143   2.178 -0.2853  0.5654  0.4371
28842SOL     OW90567   1.880   6.434   8.225  0.0879  0.3457 -0.1106
28842SOL    HW190568   1.874   6.476   8.139  0.9427 -0.4449 -0.5793
28842SOL    HW290569   1.907   6.504   8.284  2.0690  0.4005 -0.9877
28843SOL     OW90570   1.612   9.014   5.174 -0.2595  0.2563  0.0328
28843SOL    HW190571   1.573   9.081   5.118 -0.7774 -0.2131 -0.1807
28843SOL    HW290572   1.553   9.009   5.249  1.6130  2.5078  1.8254
28844SOL     OW90573   1.412   4.849   1.209  0.1793 -0.6577  0.0422
28844SOL    HW190574   1.370   4.842   1.295 -1.6244  0.4586 -0.7040
28844SOL    HW290575   1.469   4.926   1.216  0.6407 -1.0272  0.4527
28845SOL     OW90576   0.032   4.092  10.019  0.0616  0.7414 -0.0197
28845SOL    HW190577   0.060   4.104   9.928  0.4398 -0.3146 -0.0547
28845SOL    HW290578  -0.018   4.171  10.039  0.1244  1.0687 -1.0884
28846SOL     OW90579   8.532   9.578   7.687  0.7227  0.6738 -0.3912
28846SOL    HW190580   8.475   9.636   7.636  1.6110  0.3351 -1.8063
28846SOL    HW290581   8.593   9.637   7.731  0.7051  0.8943 -0.6589
28847SOL     OW90582   2.365   7.699   0.459  0.0378 -1.0707  0.3720
28847SOL    HW190583   2.443   7.734   0.415  1.1802 -1.0983  2.2375
28847SOL    HW290584   2.389   7.609   0.482 -0.1112 -0.7624  1.8507
28848SOL     OW90585   0.471   0.420   3.055  0.3492 -0.8142 -0.1198
28848SOL    HW190586   0.426   0.400   3.137 -0.5163  1.5701  0.0586
28848SOL    HW290587   0.492   0.514   3.061  2.0734 -1.0243 -1.7797
28849SOL     OW90588   0.531   8.860   5.080  0.6100 -0.0379  0.1590
28849SOL    HW190589   0.600   8.926   5.080  0.1864  0.4597 -1.9958
28849SOL    HW290590   0.548   8.808   5.159  1.8575  1.6777  1.0915
28850SOL     OW90591   9.090   4.232   2.218  0.0032 -0.1503  0.3862
28850SOL    HW190592   9.103   4.186   2.300 -0.1940  1.7340  1.5459
28850SOL    HW290593   8.998   4.219   2.196 -0.7461  1.7670  2.1101
28851SOL     OW90594   1.185   1.681   1.663  0.1912  0.2841  0.2129
28851SOL    HW190595   1.095   1.649   1.658  0.0231  0.8834 -1.3165
28851SOL    HW290596   1.192   1.744   1.591  1.8361  0.2468  0.2974
28852SOL     OW90597   8.010   8.080   8.234 -0.0785  0.1845 -0.4432
28852SOL    HW190598   7.963   8.029   8.300  1.0266 -0.6298 -0.2552
28852SOL    HW290599   8.102   8.069   8.256  0.2940  0.2380 -1.8780
28853SOL     OW90600   1.416   1.934   6.490  0.2460  0.4825  0.1636
28853SOL    HW190601   1.402   1.855   6.543 -0.3735  1.6148  1.7877
28853SOL    HW290602   1.465   1.904   6.414 -1.0287 -1.6778  0.1110
28854SOL     OW90603   0.753   7.064   1.858  0.5137 -0.5294 -0.2793
28854SOL    HW190604   0.843   7.043   1.835  0.3107 -1.4785 -0.2734
28854SOL    HW290605   0.756   7.086   1.951  0.5537 -1.9703  0.0960
28855SOL     OW90606   6.444   6.028   5.951  0.3661  0.3913 -0.0874
28855SOL    HW190607   6.538   6.021   5.938  0.5764  0.2726  1.3040
28855SOL    HW290608   6.429   6.119   5.976  0.0790  0.4596 -0.4975
28856SOL     OW90609   6.802   8.887   0.056  0.4886 -0.7903  0.1505
28856SOL    HW190610   6.711   8.868   0.078  0.4886  0.4110  1.3162
28856SOL    HW290611   6.798   8.965   0.000  0.8759  1.1485  2.6375
28857SOL     OW90612   2.341   8.464   8.593 -0.1382 -0.7263 -0.3991
28857SOL    HW190613   2.379   8.528   8.532  0.0245 -0.6304 -0.1980
28857SOL    HW290614   2.251   8.493   8.604 -0.3337 -1.0655 -1.0279
28858SOL     OW90615   5.942   9.739   0.901  0.3915 -0.0990 -0.4118
28858SOL    HW190616   5.992   9.731   0.821  0.2465  0.8601 -0.6128
28858SOL    HW290617   6.006   9.728   0.971  0.6547 -0.1908 -0.6663
28859SOL     OW90618   6.380   8.011   8.391  0.2284  0.0527 -0.0498
28859SOL    HW190619   6.456   7.980   8.441  0.2598  1.0723  0.5506
28859SOL    HW290620   6.379   8.105   8.405 -1.5280 -0.0240  0.4695
28860SOL     OW90621   7.341   4.377   5.833 -0.2795  0.3249 -0.1291
28860SOL    HW190622   7.322   4.464   5.798  2.1832  1.0602  0.1781
28860SOL    HW290623   7.313   4.317   5.765  0.0826  1.4991 -1.3621
28861SOL     OW90624   0.505   9.727   4.057  0.1524 -0.3420  0.0033
28861SOL    HW190625   0.427   9.749   4.108  0.3045 -0.2580  0.1982
28861SOL    HW290626   0.471   9.675   3.984 -0.1759  0.3347 -0.3303
28862SOL     OW90627   6.739   8.899   5.660 -0.0778 -0.4515  0.5094
28862SOL    HW190628   6.828   8.930   5.645  0.1272 -1.1831  0.1554
28862SOL    HW290629   6.687   8.940   5.591 -0.0183 -0.0070  0.7304
28863SOL     OW90630   3.631   8.781   6.075 -0.2018  0.4383 -0.7207
28863SOL    HW190631   3.569   8.749   6.010  1.5160 -1.4858 -1.4968
28863SOL    HW290632   3.581   8.783   6.157 -2.0692  1.8011 -1.8366
28864SOL     OW90633   2.485   3.720   9.834  0.6990  0.1734 -0.2491
28864SOL    HW190634   2.489   3.807   9.794 -1.7438 -0.3777 -1.9270
28864SOL    HW290635   2.531   3.663   9.773  0.7556  0.0046 -0.0503
28865SOL     OW90636   7.976   5.467   3.518 -0.7493  0.1735  0.0309
28865SOL    HW190637   8.041   5.494   3.583  0.0880  1.6899 -1.3581
28865SOL    HW290638   8.024   5.411   3.457 -1.7286 -1.9555  1.1104
28866SOL     OW90639   8.238   3.303   2.550 -0.3010  0.3145 -0.0919
28866SOL    HW190640   8.311   3.329   2.494 -0.2608 -1.3999 -0.8953
28866SOL    HW290641   8.276   3.243   2.614 -0.8290  0.1663  0.0946
28867SOL     OW90642   7.707   2.286   4.971 -0.4550 -0.7981  0.2396
28867SOL    HW190643   7.735   2.376   4.986 -1.5364  0.1747 -2.7399
28867SOL    HW290644   7.625   2.278   5.019 -0.4434 -0.1126  0.3870
28868SOL     OW90645   1.545   6.604   7.009 -0.1099  0.6430 -0.0487
28868SOL    HW190646   1.627   6.653   7.009 -0.3037  0.9717  0.4078
28868SOL    HW290647   1.511   6.612   7.098  1.6718 -3.4239  1.2295
28869SOL     OW90648   5.532   8.838   3.846  0.2917  0.5339 -0.4059
28869SOL    HW190649   5.475   8.789   3.787  0.9522  0.1665 -0.7519
28869SOL    HW290650   5.600   8.875   3.788  0.7792  0.4105  0.0790
28870SOL     OW90651   7.640   5.935   1.367 -0.1796  0.4897  0.6544
28870SOL    HW190652   7.675   5.976   1.288 -0.9773  2.2620  1.1707
28870SOL    HW290653   7.694   5.970   1.438 -0.2160 -0.1787  1.0244
28871SOL     OW90654   5.987   9.986   2.140  0.1759  0.7627 -0.3306
28871SOL    HW190655   5.918  10.048   2.114  0.6167  2.6382  2.4741
28871SOL    HW290656   6.068  10.036   2.135  0.9942 -0.5575 -0.8862
28872SOL     OW90657   4.408   9.791   4.262  0.5228 -0.0351  0.6051
28872SOL    HW190658   4.438   9.706   4.294  0.3372 -0.5586 -0.5568
28872SOL    HW290659   4.314   9.779   4.246  0.9252 -0.3777 -1.8267
28873SOL     OW90660   6.891   4.618   8.966  0.2057  0.1702  0.4377
28873SOL    HW190661   6.967   4.561   8.980  2.9628  2.5904 -2.9835
28873SOL    HW290662   6.821   4.558   8.939  2.4716 -1.8460 -1.4147
28874SOL     OW90663  10.242   2.733   5.986 -0.4258  0.0622  0.0876
28874SOL    HW190664  10.174   2.704   5.926 -0.1186 -0.0402 -0.2123
28874SOL    HW290665  10.324   2.704   5.946 -0.2151  0.0329  0.5307
28875SOL     OW90666   8.196   5.683   9.969 -0.0691 -0.0378  0.3269
28875SOL    HW190667   8.139   5.632   9.912 -0.5116  0.0355  0.7028
28875SOL    HW290668   8.282   5.642   9.958 -0.5747 -1.4328  1.2748
28876SOL     OW90669   4.205   7.530   4.335  0.1117  0.6980  0.0430
28876SOL    HW190670   4.133   7.467   4.337  1.1458 -0.5203  2.5524
28876SOL    HW290671   4.177   7.601   4.392  0.3259  0.9037 -0.1044
28877SOL     OW90672   6.363   7.331   9.858 -0.3670  0.4788  0.4845
28877SOL    HW190673   6.306   7.381   9.917  0.2822  0.6356  0.9943
28877SOL    HW290674   6.305   7.300   9.788 -1.2775 -0.2810  1.5522
28878SOL     OW90675   7.449   6.926   6.445  0.0622  0.5524 -0.3155
28878SOL    HW190676   7.450   6.903   6.538  1.4619 -0.1573 -0.4833
28878SOL    HW290677   7.510   6.999   6.437  2.2237 -1.2382 -1.0809
28879SOL     OW90678   1.845   5.024   9.637  0.1273 -0.3498 -0.0393
28879SOL    HW190679   1.815   4.934   9.626 -2.7994  0.6505 -1.0766
28879SOL    HW290680   1.792   5.075   9.577  0.5122  2.3130  1.6967
28880SOL     OW90681   7.458   8.411   6.547  0.2607 -0.0017  0.1464
28880SOL    HW190682   7.440   8.391   6.639 -0.6094 -1.2449 -0.2671
28880SOL    HW290683   7.554   8.409   6.540  0.3647  0.7014  1.1348
28881SOL     OW90684   3.008   8.532   9.803 -0.0693  0.2574 -0.1244
28881SOL    HW190685   3.010   8.570   9.891  1.1579  1.1356 -0.5160
28881SOL    HW290686   3.100   8.518   9.780 -0.2052  2.1824 -2.1636
28882SOL     OW90687   4.276   8.109   5.229  0.5542 -0.1739 -0.2197
28882SOL    HW190688   4.370   8.092   5.219  0.6554 -1.1504  1.8267
28882SOL    HW290689   4.272   8.193   5.275  0.4546 -0.4282  0.2401
28883SOL     OW90690   8.809   7.356   3.821 -0.2819 -0.0440 -0.2274
28883SOL    HW190691   8.846   7.275   3.788  1.0335  1.0240 -1.5191
28883SOL    HW290692   8.762   7.331   3.900  1.7807 -1.7620  0.5528
28884SOL     OW90693   8.130   8.525   8.790 -0.0178 -0.0690 -0.1729
28884SOL    HW190694   8.171   8.497   8.872  0.7779 -1.3934 -0.9812
28884SOL    HW290695   8.164   8.463   8.725  1.7428  2.6924 -2.0742
28885SOL     OW90696   4.345   5.923   9.300  0.6618 -0.1781 -0.1582
28885SOL    HW190697   4.347   5.841   9.349  0.8875  0.5115  1.0230
28885SOL    HW290698   4.259   5.962   9.321  0.4219 -0.2467 -0.9621
28886SOL     OW90699   4.316   4.317   8.444 -0.1453  0.5353  0.8130
28886SOL    HW190700   4.343   4.401   8.481 -1.1586  0.4988  1.7032
28886SOL    HW290701   4.365   4.252   8.495 -1.5650  0.4838  2.2082
28887SOL     OW90702   1.690   6.810   8.076  0.0956 -0.3311  0.4161
28887SOL    HW190703   1.670   6.717   8.066  3.2863 -0.8929 -2.8898
28887SOL    HW290704   1.648   6.852   8.001  1.9048  0.1742 -0.3674
28888SOL     OW90705  10.102   1.610   8.809  0.2273 -0.3051  0.1082
28888SOL    HW190706  10.042   1.550   8.853 -0.4979  2.1721  2.8429
28888SOL    HW290707  10.047   1.659   8.748  0.2948 -0.6121 -0.2049
28889SOL     OW90708   8.659   6.848   8.446 -0.0657 -0.2283  0.6940
28889SOL    HW190709   8.629   6.907   8.515  0.8453 -0.9446  1.7448
28889SOL    HW290710   8.698   6.775   8.493 -0.6572 -1.4064 -0.5916
28890SOL     OW90711   5.233   3.125   1.696 -0.2705 -0.4213 -0.2488
28890SOL    HW190712   5.267   3.212   1.676  1.5036 -0.6245  1.5298
28890SOL    HW290713   5.298   3.065   1.660 -1.1684 -1.0220 -0.9209
28891SOL     OW90714   0.207   4.802   2.233  0.9321 -0.0717 -0.3371
28891SOL    HW190715   0.149   4.761   2.169  1.2388  0.6146 -1.0644
28891SOL    HW290716   0.149   4.824   2.306  0.4753 -0.3505 -0.6107
28892SOL     OW90717   3.985   2.134   8.576  0.7308 -0.1392 -0.0133
28892SOL    HW190718   3.978   2.171   8.488  0.1169 -1.0329 -0.3534
28892SOL    HW290719   3.895   2.113   8.600  1.0032 -0.8028  0.4302
28893SOL     OW90720   3.713  10.223   5.046  0.1359  0.7151 -0.0227
28893SOL    HW190721   3.652  10.287   5.084 -0.6940  0.9499 -1.6877
28893SOL    HW290722   3.701  10.231   4.952 -0.1245 -2.0746 -0.2805
28894SOL     OW90723   8.041   9.015   4.532 -0.3295 -0.3209  0.1369
28894SOL    HW190724   8.078   8.933   4.499  0.6642  0.4841 -0.8191
28894SOL    HW290725   8.099   9.041   4.603  0.5253  0.5421 -0.8520
28895SOL     OW90726   7.374   0.495   6.093  0.1670 -0.0367  0.0068
28895SOL    HW190727   7.354   0.405   6.067 -0.0462  0.6221 -2.3724
28895SOL    HW290728   7.469   0.504   6.080  0.1045  0.2105 -0.3266
28896SOL     OW90729   3.018   5.888   3.947 -0.1038  0.3261  0.4180
28896SOL    HW190730   3.051   5.848   4.027  1.1648  0.0323 -0.2284
28896SOL    HW290731   2.965   5.962   3.977  1.5363  1.1058  1.5001
28897SOL     OW90732   6.831   5.029   8.026  0.1835 -0.2859  0.1049
28897SOL    HW190733   6.773   5.054   8.098 -0.1776  1.9420 -0.8859
28897SOL    HW290734   6.912   5.001   8.070  0.0058  1.1041  1.4135
28898SOL     OW90735   6.405   4.655   1.023  0.2252  0.5194 -0.1134
28898SOL    HW190736   6.350   4.652   1.101  1.2529  0.4108  0.6250
28898SOL    HW290737   6.434   4.564   1.010 -0.2252  0.4707 -0.8370
28899SOL     OW90738   8.626   8.265   6.220  0.2272 -0.4287  0.4633
28899SOL    HW190739   8.703   8.315   6.248  0.7578 -1.5959  1.1290
28899SOL    HW290740   8.638   8.178   6.257 -0.7182 -1.0529 -0.6247
28900SOL     OW90741   0.929   3.060   0.016  0.0608 -0.2996 -0.2646
28900SOL    HW190742   0.835   3.078   0.022 -0.4698 -1.4275 -3.1211
28900SOL    HW290743   0.971   3.144   0.033 -1.3253 -0.0509  2.4343
28901SOL     OW90744   0.576   8.184   2.478 -0.3056 -0.3237 -0.1461
28901SOL    HW190745   0.587   8.091   2.499 -0.0083 -0.0533  1.0119
28901SOL    HW290746   0.517   8.186   2.404  0.5954 -1.4858 -0.9277
28902SOL     OW90747   6.457   6.634   6.439 -0.8174  0.4939 -0.0242
28902SOL    HW190748   6.388   6.571   6.458 -0.4080 -1.0056 -2.9716
28902SOL    HW290749   6.447   6.702   6.506 -2.6505 -1.5824  1.9687
28903SOL     OW90750   5.313   6.922   6.886 -0.2534  0.3306  0.6077
28903SOL    HW190751   5.270   6.844   6.852 -0.1096 -0.1141  1.4225
28903SOL    HW290752   5.388   6.936   6.828 -2.2333  1.9895 -1.7801
28904SOL     OW90753   7.475   3.973   2.126 -0.0478  0.4624  0.1734
28904SOL    HW190754   7.419   3.897   2.112  1.8728 -0.7608 -1.6209
28904SOL    HW290755   7.426   4.046   2.088 -1.1304 -0.2282  0.1984
28905SOL     OW90756   4.279   9.235   1.940 -0.2841  0.4316 -0.8895
28905SOL    HW190757   4.236   9.192   1.866  1.0153  0.0709 -1.4646
28905SOL    HW290758   4.322   9.312   1.902  0.4478  0.2079 -0.5426
28906SOL     OW90759   2.557   7.044   7.883  0.2159 -0.0904 -0.0987
28906SOL    HW190760   2.581   7.062   7.793  0.0383  1.5037  0.1415
28906SOL    HW290761   2.639   7.051   7.932  0.0506  0.6293  0.0773
28907SOL     OW90762   0.169   3.420   7.792 -0.4617 -0.1738 -0.8629
28907SOL    HW190763   0.186   3.509   7.822 -2.0256 -0.3940  0.7837
28907SOL    HW290764   0.154   3.429   7.698  0.8213  1.0752 -0.9805
28908SOL     OW90765   7.751   9.747   8.357 -0.2182  0.0331 -0.1343
28908SOL    HW190766   7.780   9.832   8.389  0.3182  0.2731 -1.2095
28908SOL    HW290767   7.676   9.767   8.301 -1.2286 -0.3899  1.0505
28909SOL     OW90768   7.844   6.603   2.530  0.1284  0.5825 -0.6113
28909SOL    HW190769   7.876   6.660   2.599 -0.3521  1.2776 -0.9511
28909SOL    HW290770   7.778   6.655   2.484  0.6065  0.2214 -1.7447
28910SOL     OW90771  10.225   2.839   2.242 -0.7025  0.4195 -0.8049
28910SOL    HW190772  10.289   2.771   2.224 -0.6956  0.6252 -1.6177
28910SOL    HW290773  10.277   2.919   2.256 -0.7626  0.5182 -1.1359
28911SOL     OW90774   1.264  10.073   0.715  0.2243  0.0990 -0.1804
28911SOL    HW190775   1.212  10.012   0.662 -0.3922 -1.5431  2.1198
28911SOL    HW290776   1.203  10.102   0.784  1.7006 -0.1330  1.2925
28912SOL     OW90777   2.356   0.938   3.362 -0.3677 -0.0522 -0.7459
28912SOL    HW190778   2.303   0.940   3.442  0.3108  0.0677 -0.2948
28912SOL    HW290779   2.301   0.978   3.296 -0.5830  0.7025 -0.1197
28913SOL     OW90780   2.567   1.384   3.636  0.8719 -0.0848 -0.1665
28913SOL    HW190781   2.495   1.443   3.658 -0.1619 -0.8140 -1.4839
28913SOL    HW290782   2.539   1.299   3.669  2.1601  0.0193  1.3227
28914SOL     OW90783   6.892   6.687   9.329  0.0648 -0.0485 -0.4147
28914SOL    HW190784   6.972   6.731   9.300  0.0924 -0.4453 -0.9459
28914SOL    HW290785   6.903   6.596   9.301 -0.6603 -0.0614 -0.6773
28915SOL     OW90786   7.178   1.502   4.925  0.2055  0.4449  0.3909
28915SOL    HW190787   7.099   1.469   4.883  1.2120  1.0647 -2.1307
28915SOL    HW290788   7.149   1.581   4.970 -0.8009  0.0967  0.3881
28916SOL     OW90789   1.806   7.667   7.556  0.3492  0.2931 -0.3441
28916SOL    HW190790   1.848   7.709   7.481 -1.8802  0.2607 -1.7009
28916SOL    HW290791   1.867   7.598   7.583  2.5326  2.1468 -0.2178
28917SOL     OW90792   6.467   3.450   3.964 -0.0564  0.3585  0.0753
28917SOL    HW190793   6.391   3.423   3.912 -0.4648  0.8854  0.3816
28917SOL    HW290794   6.543   3.427   3.911 -0.4328 -0.2038 -0.2241
28918SOL     OW90795   0.929   4.985   9.175 -0.9329  0.5358 -0.1057
28918SOL    HW190796   0.909   4.942   9.092 -0.2217 -1.1021  0.5373
28918SOL    HW290797   0.847   4.980   9.225 -0.2392 -2.3934  0.9119
28919SOL     OW90798   6.625   8.870   8.335  0.3440  0.2531 -0.4098
28919SOL    HW190799   6.607   8.920   8.414  1.0245 -0.0360 -0.0592
28919SOL    HW290800   6.541   8.864   8.290  0.0914  1.0094 -0.0567
28920SOL     OW90801   2.947   1.326   2.151 -0.6871  0.4310 -0.0003
28920SOL    HW190802   2.990   1.283   2.225  2.8980  3.0028 -0.3590
28920SOL    HW290803   2.948   1.260   2.081  0.8534 -0.2911  0.6611
28921SOL     OW90804   3.822   5.330   9.287 -0.3372  0.1790  0.1830
28921SOL    HW190805   3.805   5.417   9.325  0.1381  1.2378 -1.8621
28921SOL    HW290806   3.782   5.333   9.201  0.2684 -1.4127 -0.1929
28922SOL     OW90807   8.722   2.612   5.304 -0.0881 -0.1763  0.1434
28922SOL    HW190808   8.628   2.625   5.290 -0.4824  0.3492  2.8538
28922SOL    HW290809   8.739   2.646   5.391  2.5720 -0.6927 -0.0783
28923SOL     OW90810   7.614   9.664   8.832  0.1761  0.3817  0.3997
28923SOL    HW190811   7.653   9.682   8.746  3.0558 -0.4547  1.4133
28923SOL    HW290812   7.573   9.578   8.822 -0.6089  0.8194 -0.4073
28924SOL     OW90813   8.260   2.041   5.627 -0.2185  0.1093 -0.0277
28924SOL    HW190814   8.294   2.084   5.549 -1.8345 -0.9750 -1.3936
28924SOL    HW290815   8.274   1.947   5.611 -2.6968 -0.3128 -0.1608
28925SOL     OW90816   6.057   8.411   6.007  0.3745 -0.0653 -0.3152
28925SOL    HW190817   6.027   8.324   6.033  3.4554 -1.5446 -1.2651
28925SOL    HW290818   5.986   8.445   5.952 -0.4320 -2.4959 -0.8844
28926SOL     OW90819   7.855   8.052   9.353  0.6394  0.0803  0.3115
28926SOL    HW190820   7.950   8.059   9.357  0.7141 -0.2842 -0.6136
28926SOL    HW290821   7.837   7.958   9.342  0.2578  0.2875 -1.0448
28927SOL     OW90822   7.209   9.762   4.806  0.0737 -0.1323 -0.2554
28927SOL    HW190823   7.121   9.749   4.843  0.3510 -0.6639  0.2431
28927SOL    HW290824   7.230   9.678   4.767  1.2741 -0.7784  1.6405
28928SOL     OW90825   4.420   6.187   0.411  0.0777 -0.1608 -0.1419
28928SOL    HW190826   4.329   6.161   0.400  0.2224 -0.4030 -0.8107
28928SOL    HW290827   4.444   6.228   0.328  1.0323 -1.5198 -0.5831
28929SOL     OW90828   1.121   9.804   7.276 -0.3946 -0.1159 -0.3917
28929SOL    HW190829   1.032   9.785   7.305  0.4518 -2.0176  1.2131
28929SOL    HW290830   1.174   9.795   7.356  1.4767 -1.0211 -1.6783
28930SOL     OW90831   4.166   8.569   6.457 -0.5495 -0.0851 -0.7376
28930SOL    HW190832   4.239   8.625   6.484 -1.4621  1.1333 -0.6914
28930SOL    HW290833   4.160   8.502   6.525 -0.2833  0.5762 -0.0449
28931SOL     OW90834   3.247   4.433   9.223 -0.0092  0.0165 -0.3285
28931SOL    HW190835   3.209   4.512   9.186 -0.4545 -0.7909 -1.6617
28931SOL    HW290836   3.177   4.368   9.218  0.9449 -0.9946 -1.1195
28932SOL     OW90837   3.730   3.793   7.003 -0.0663  0.4149 -0.2118
28932SOL    HW190838   3.669   3.822   6.934  0.1481  0.8087 -0.2377
28932SOL    HW290839   3.805   3.758   6.955 -0.1637  0.1630 -0.1796
28933SOL     OW90840   7.284   2.315   6.182  0.3024  0.1330  0.8413
28933SOL    HW190841   7.242   2.399   6.199 -0.3217 -0.0831  0.4176
28933SOL    HW290842   7.283   2.307   6.087 -2.0611 -1.5086  0.9040
28934SOL     OW90843   7.674   7.270   3.715  0.0106 -0.3221 -0.4229
28934SOL    HW190844   7.744   7.290   3.777 -2.3970 -1.0708  2.8166
28934SOL    HW290845   7.682   7.175   3.701 -0.5805 -0.4961  0.3395
28935SOL     OW90846   5.211   9.972   4.223  0.8077  0.0399 -0.5801
28935SOL    HW190847   5.203   9.972   4.128 -2.0814 -0.3278 -0.4126
28935SOL    HW290848   5.197  10.063   4.249  0.0909 -0.1104 -0.4291
28936SOL     OW90849   5.503   0.522   9.965  0.5832  0.6222 -0.0988
28936SOL    HW190850   5.407   0.531   9.968  0.4662 -0.1936 -0.8620
28936SOL    HW290851   5.527   0.557   9.879  0.6315 -1.7677 -1.1241
28937SOL     OW90852   9.895   8.529   7.851  0.1788  0.4783  0.1541
28937SOL    HW190853   9.967   8.585   7.880 -0.7529  1.6212  0.3265
28937SOL    HW290854   9.893   8.458   7.915  3.0345 -1.3029 -1.4885
28938SOL     OW90855   2.408   2.685   8.118  0.2644  0.1029 -0.1497
28938SOL    HW190856   2.409   2.631   8.197 -1.0239  0.6202  0.2551
28938SOL    HW290857   2.456   2.764   8.142 -0.3355  0.3664  0.2187
28939SOL     OW90858   5.981   4.839   2.759 -0.1235 -0.0881  0.4850
28939SOL    HW190859   5.990   4.865   2.667 -0.2897 -0.0544  0.4773
28939SOL    HW290860   6.018   4.911   2.809  1.5421 -0.8405  0.3989
28940SOL     OW90861   7.620   5.742   6.722 -0.6014  0.1698  0.4528
28940SOL    HW190862   7.567   5.717   6.646 -0.5721  0.6690  0.2630
28940SOL    HW290863   7.571   5.710   6.797  0.0710 -1.6150  0.1731
28941SOL     OW90864   7.599   1.386   1.603  0.8669  0.6226  0.6380
28941SOL    HW190865   7.585   1.332   1.681 -1.7257  2.3606  1.5085
28941SOL    HW290866   7.585   1.326   1.530  0.5494 -0.4407  1.5447
28942SOL     OW90867   8.234   0.682   1.711 -0.1547  0.2811 -0.0769
28942SOL    HW190868   8.325   0.696   1.685  0.0817 -2.7887 -1.3298
28942SOL    HW290869   8.239   0.637   1.795 -0.6094  1.5411  0.6485
28943SOL     OW90870   2.811  10.196   1.525  1.1048 -0.5070  0.1154
28943SOL    HW190871   2.892  10.243   1.546  0.8609  0.0302 -0.1382
28943SOL    HW290872   2.741  10.258   1.544  0.7649 -0.8497  0.0005
28944SOL     OW90873   8.646   7.150   1.708  0.3348 -0.1157  0.3891
28944SOL    HW190874   8.733   7.179   1.682  1.1145 -2.5102  0.0604
28944SOL    HW290875   8.589   7.177   1.635  1.1060  0.0065 -0.1839
28945SOL     OW90876   8.738   8.129   6.746  0.1540  0.4262 -0.5694
28945SOL    HW190877   8.796   8.186   6.695 -0.8315  0.7231 -1.3825
28945SOL    HW290878   8.696   8.188   6.809 -2.7566  1.2024 -3.0214
28946SOL     OW90879   4.046   6.222   7.659 -0.1588  0.4066 -0.2947
28946SOL    HW190880   3.959   6.256   7.637 -0.3326  1.4651  1.7522
28946SOL    HW290881   4.033   6.129   7.674 -0.9719  0.5590  0.0129
28947SOL     OW90882   2.368   2.740   4.940  0.0987  0.2746 -0.4091
28947SOL    HW190883   2.388   2.666   4.882 -1.7335  1.3191 -2.5081
28947SOL    HW290884   2.339   2.809   4.881  0.9384  2.4321  1.5584
28948SOL     OW90885   3.419   9.728   6.448  0.0678  0.9514  0.2813
28948SOL    HW190886   3.353   9.662   6.427  1.7853 -0.1580 -2.0213
28948SOL    HW290887   3.369   9.810   6.458 -1.6463  0.2138 -1.6037
28949SOL     OW90888   9.205   6.812   0.194  0.0052 -0.0594  0.0367
28949SOL    HW190889   9.141   6.883   0.208  0.7643  0.7041 -0.2714
28949SOL    HW290890   9.244   6.798   0.280  1.4324  1.4648 -0.3267
28950SOL     OW90891   0.020  10.202   8.121  0.8445  0.0304  0.0301
28950SOL    HW190892   0.067  10.149   8.186  0.8482  0.0226  0.0215
28950SOL    HW290893  -0.069  10.208   8.156  0.6476 -0.6188 -0.3432
28951SOL     OW90894   7.943   7.566   5.301 -0.2401 -0.0520 -0.4176
28951SOL    HW190895   7.899   7.535   5.380  0.9374  2.6238  1.4523
28951SOL    HW290896   8.010   7.500   5.283  1.1927  0.4605  2.4645
28952SOL     OW90897   9.558   6.324   4.103 -0.2569 -0.1941  0.7479
28952SOL    HW190898   9.560   6.389   4.033 -1.4573 -0.8058  0.1095
28952SOL    HW290899   9.648   6.319   4.135  0.5282 -0.5901 -1.3982
28953SOL     OW90900   6.668   8.364   1.755 -0.2933 -0.2775  0.1726
28953SOL    HW190901   6.602   8.386   1.821  2.4345  2.6806  2.1888
28953SOL    HW290902   6.716   8.290   1.794 -1.1929 -1.2541 -0.4931
28954SOL     OW90903   1.359  10.138   3.128 -1.1556  0.5253 -0.3146
28954SOL    HW190904   1.369  10.187   3.046 -0.1448  0.9576  0.0418
28954SOL    HW290905   1.449  10.119   3.155 -1.5107 -1.1497 -0.2047
28955SOL     OW90906   2.416   2.293   9.709 -0.4520 -0.0073  0.2423
28955SOL    HW190907   2.495   2.241   9.723  0.3594  1.0726 -0.1948
28955SOL    HW290908   2.396   2.280   9.616 -0.9392 -0.4809  0.4113
28956SOL     OW90909   6.534   0.756   5.331  0.0432 -0.3517  0.0619
28956SOL    HW190910   6.605   0.692   5.342  0.8282  0.7796  2.1979
28956SOL    HW290911   6.454   0.707   5.350  0.5588 -0.9161  0.8482
28957SOL     OW90912   4.083   5.458   3.875  0.8926  0.2935  0.6806
28957SOL    HW190913   4.145   5.524   3.905  1.4583  0.2548 -0.3541
28957SOL    HW290914   4.060   5.486   3.786  1.0993 -0.8623  0.2442
28958SOL     OW90915   0.278   0.477   4.053  0.0083 -0.0605  0.1044
28958SOL    HW190916   0.252   0.430   3.973  0.2653  2.5785 -1.6454
28958SOL    HW290917   0.363   0.515   4.031  1.1779 -1.0858  2.4958
28959SOL     OW90918   7.830   4.538  10.083 -0.2129 -0.0570 -0.0243
28959SOL    HW190919   7.797   4.475  10.146 -0.1761 -0.5374 -0.4806
28959SOL    HW290920   7.815   4.623  10.124  3.4432 -0.3972  2.5145
28960SOL     OW90921   8.533   9.090   9.382  0.4915 -0.0009 -1.4177
28960SOL    HW190922   8.511   9.026   9.314  0.2246 -0.7437 -0.6429
28960SOL    HW290923   8.449   9.128   9.408 -0.0582 -2.7568  1.4559
28961SOL     OW90924   4.466   4.977   1.808 -0.2444  0.1178  0.4256
28961SOL    HW190925   4.538   5.014   1.757  0.0344 -0.6141  0.2697
28961SOL    HW290926   4.389   5.025   1.778  0.2447  1.3216  1.0223
28962SOL     OW90927   7.319   8.732   7.338 -0.1027 -0.2576  0.1488
28962SOL    HW190928   7.345   8.667   7.403 -1.9173 -0.1080  1.0957
28962SOL    HW290929   7.313   8.814   7.387  0.1847  0.2202 -0.5999
28963SOL     OW90930   3.682   2.314   0.973 -0.6595 -0.2254  0.0693
28963SOL    HW190931   3.692   2.386   1.034 -1.4339 -0.3192  0.3169
28963SOL    HW290932   3.766   2.269   0.975 -0.1135  0.7482 -0.2004
28964SOL     OW90933   3.823   2.765   1.783  0.2523 -0.5124  0.2251
28964SOL    HW190934   3.917   2.744   1.784  0.3106 -0.2635  1.0346
28964SOL    HW290935   3.786   2.708   1.851 -0.1872 -0.6251 -0.1118
28965SOL     OW90936   7.999   6.693   3.597 -0.1228 -0.1682  0.2238
28965SOL    HW190937   7.959   6.622   3.547  1.4099 -1.2684  0.4968
28965SOL    HW290938   8.082   6.657   3.628  0.3950  1.5337  0.9319
28966SOL     OW90939   8.281   1.143   4.215 -0.4656  0.1040 -0.2107
28966SOL    HW190940   8.271   1.062   4.165  1.8555  0.2644 -1.0405
28966SOL    HW290941   8.326   1.117   4.295  1.4588  0.6756 -1.0460
28967SOL     OW90942   5.008   2.191   8.118  0.4638  0.1002 -0.4324
28967SOL    HW190943   5.008   2.273   8.068 -0.9767 -0.2864 -1.1042
28967SOL    HW290944   4.924   2.150   8.098  0.9088 -1.2717  0.3650
28968SOL     OW90945   0.908   3.956   1.781  0.5027  0.3755 -0.6055
28968SOL    HW190946   0.945   4.012   1.849  1.0804 -0.3723 -0.2819
28968SOL    HW290947   0.907   4.011   1.703 -0.5162  1.3635  0.0776
28969SOL     OW90948   2.442   0.943   2.481  0.1280  0.0555 -0.0182
28969SOL    HW190949   2.499   1.010   2.441  0.6361 -1.2953 -1.6970
28969SOL    HW290950   2.441   0.872   2.417 -1.7644 -0.8533  0.9565
28970SOL     OW90951   3.285   8.370   7.539 -0.1177 -0.2222 -0.1243
28970SOL    HW190952   3.268   8.335   7.452  1.3683 -0.6513 -0.2730
28970SOL    HW290953   3.200   8.400   7.570 -0.8646 -1.0628 -1.2796
28971SOL     OW90954   6.941   5.906   4.903 -0.3657  0.2243  0.1196
28971SOL    HW190955   6.952   5.829   4.958  1.3430  0.9748  0.9055
28971SOL    HW290956   6.969   5.878   4.816  0.5926  0.0449  0.4804
28972SOL     OW90957   5.877   7.694   2.339  0.2746  0.2090 -0.6099
28972SOL    HW190958   5.958   7.743   2.354  0.7508 -0.4233 -1.0086
28972SOL    HW290959   5.907   7.605   2.319 -0.6322 -1.2089  3.3769
28973SOL     OW90960   8.321   2.992   2.905 -0.0861 -0.0182 -0.7670
28973SOL    HW190961   8.359   2.909   2.876 -0.4950  0.0162 -1.4131
28973SOL    HW290962   8.250   2.966   2.965 -0.6854 -0.1648 -1.5295
28974SOL     OW90963   5.396   2.542   7.866 -0.3036  0.2978 -0.1755
28974SOL    HW190964   5.390   2.629   7.906 -1.0806  0.1325  0.0884
28974SOL    HW290965   5.489   2.520   7.870 -0.4522 -0.1510  2.4955
28975SOL     OW90966   7.138   7.406   2.103 -0.0231 -0.5447 -0.7423
28975SOL    HW190967   7.087   7.479   2.138  1.9522  1.3850 -1.6907
28975SOL    HW290968   7.097   7.385   2.020 -2.1436 -2.3171  0.6428
28976SOL     OW90969   0.087   4.080   1.136  0.2530  0.0563  0.0610
28976SOL    HW190970   0.028   4.066   1.062  0.2402  0.6939 -0.0559
28976SOL    HW290971   0.032   4.066   1.213 -0.4635  2.1087 -0.0263
28977SOL     OW90972   9.039   3.471   3.312  0.4879  0.3049  0.4457
28977SOL    HW190973   9.074   3.560   3.305 -0.5012  0.6642 -0.1772
28977SOL    HW290974   9.022   3.460   3.406 -1.0751  1.4834  0.3446
28978SOL     OW90975   0.739  10.006   5.236 -0.4137  0.2552 -0.3705
28978SOL    HW190976   0.740  10.049   5.150 -1.0132 -0.2666 -0.6396
28978SOL    HW290977   0.810   9.942   5.231  1.2420  1.9116  0.4196
28979SOL     OW90978   4.555   5.235   2.418  0.0715 -0.3186 -0.2314
28979SOL    HW190979   4.602   5.248   2.335  1.3564 -4.0299 -0.2707
28979SOL    HW290980   4.476   5.188   2.393 -1.3439  1.6291  0.3800
28980SOL     OW90981   3.728   5.673   2.630  0.1642 -0.3035 -0.5745
28980SOL    HW190982   3.718   5.766   2.613 -2.2343 -0.4798 -0.4943
28980SOL    HW290983   3.652   5.650   2.684  0.8883 -2.2226 -0.2817
28981SOL     OW90984   8.433   5.553   9.950 -0.0651 -0.5174  0.7282
28981SOL    HW190985   8.518   5.594   9.964 -0.2203 -0.1953  0.7589
28981SOL    HW290986   8.431   5.531   9.858 -0.4110  0.5784  0.4498
28982SOL     OW90987   9.820   2.818   6.907  0.0831 -0.8593 -0.2499
28982SOL    HW190988   9.751   2.757   6.933  0.4082 -1.0793  0.0981
28982SOL    HW290989   9.773   2.898   6.883 -0.1865 -0.2754  1.9715
28983SOL     OW90990   3.017   7.837   0.327  0.0166 -0.3384 -0.4931
28983SOL    HW190991   2.954   7.787   0.275 -0.4744  2.5750 -2.9931
28983SOL    HW290992   2.964   7.877   0.396  0.1478 -1.8697  0.5590
28984SOL     OW90993   6.813   8.204   2.738 -0.5494  0.0283 -0.1969
28984SOL    HW190994   6.730   8.226   2.780  0.6821  0.3368  2.2435
28984SOL    HW290995   6.791   8.134   2.676 -2.5869 -0.0165  0.5167
28985SOL     OW90996   7.697   1.996   8.520 -0.2372  0.1460 -0.4532
28985SOL    HW190997   7.769   2.026   8.465 -0.6155  1.1524 -0.4100
28985SOL    HW290998   7.739   1.938   8.584  1.0782  2.9755  1.4674
28986SOL     OW90999   0.033   4.728   5.378  0.0796 -0.4661 -0.5185
28986SOL    HW191000   0.064   4.743   5.467  1.8267  0.5890 -1.2377
28986SOL    HW291001  -0.015   4.645   5.382  0.2290 -0.4939  1.3590
28987SOL     OW91002   3.585   6.302   7.665 -0.6901  0.1129  0.0181
28987SOL    HW191003   3.676   6.283   7.642 -0.6178 -1.8951  1.7174
28987SOL    HW291004   3.587   6.391   7.699  0.2661  0.7840 -1.6413
28988SOL     OW91005   6.040   2.305   9.301  0.2365 -0.0197 -0.1795
28988SOL    HW191006   6.056   2.222   9.344 -0.7361 -0.7611 -1.1756
28988SOL    HW291007   6.125   2.330   9.264  0.1437 -1.6435 -1.6407
28989SOL     OW91008   9.914   4.284   2.409 -0.5674  0.0062  0.1537
28989SOL    HW191009   9.829   4.259   2.372 -0.3663  1.8587 -1.8066
28989SOL    HW291010   9.893   4.344   2.480 -0.8987 -0.3712  0.3806
28990SOL     OW91011   8.482   4.722   8.519  0.3903  0.3667 -0.7036
28990SOL    HW191012   8.532   4.667   8.458 -0.3859 -0.5746 -0.5076
28990SOL    HW291013   8.478   4.671   8.600 -1.7888 -0.1026 -1.0339
28991SOL     OW91014   4.712   5.270   2.656 -0.1246  0.6137 -0.0221
28991SOL    HW191015   4.641   5.267   2.592  1.1313  0.3411 -1.4312
28991SOL    HW291016   4.740   5.362   2.657  0.6434  0.3981 -0.7703
28992SOL     OW91017   1.720   7.857   9.122 -0.4391 -0.1680  0.2827
28992SOL    HW191018   1.670   7.782   9.154 -0.2806 -0.0129  0.9196
28992SOL    HW291019   1.758   7.827   9.039  1.5820 -1.6681  1.6389
28993SOL     OW91020   0.374   3.901   5.958 -0.3943 -0.2403  0.1950
28993SOL    HW191021   0.389   3.832   5.894  0.3379  0.0467  0.0466
28993SOL    HW291022   0.448   3.894   6.019  0.1944  0.9957 -0.3509
28994SOL     OW91023   4.433   5.392   2.140  0.5320 -0.0798 -0.0402
28994SOL    HW191024   4.474   5.358   2.060  1.1139  2.0539 -0.7226
28994SOL    HW291025   4.497   5.455   2.174 -1.5473  2.4655 -0.4762
28995SOL     OW91026   9.474   1.462   9.550 -0.1435  0.4916  0.0699
28995SOL    HW191027   9.384   1.466   9.582  0.3860 -0.9451  1.9143
28995SOL    HW291028   9.496   1.369   9.552  1.7847  0.9238  0.8429
28996SOL     OW91029  10.088   3.020   6.229  0.0309  0.4904 -0.4106
28996SOL    HW191030  10.163   3.032   6.171  0.3148 -1.5938 -0.5185
28996SOL    HW291031  10.018   3.072   6.188  1.2901  2.2817 -0.4234
28997SOL     OW91032   2.442   6.825   4.072  0.3785 -0.3487 -0.0868
28997SOL    HW191033   2.487   6.857   3.994 -0.2698  1.7590  0.3554
28997SOL    HW291034   2.403   6.742   4.044 -1.6910  1.3639 -2.7347
28998SOL     OW91035   0.778   2.257   2.666  0.1698  0.2338 -0.2258
28998SOL    HW191036   0.840   2.327   2.687  0.3517  0.4135 -1.2874
28998SOL    HW291037   0.830   2.192   2.617 -0.2166 -0.1651 -0.1191
28999SOL     OW91038   6.422   1.575  10.020  0.3543 -0.5975  0.0805
28999SOL    HW191039   6.494   1.569   9.958  1.2934 -1.0098  1.1836
28999SOL    HW291040   6.381   1.660  10.000  1.2026 -0.3046 -0.4891
29000SOL     OW91041   6.540   4.957   0.461  0.4716 -0.1029 -0.8637
29000SOL    HW191042   6.457   4.924   0.494 -0.4197  2.4390 -0.3486
29000SOL    HW291043   6.528   4.961   0.366  0.9129 -1.9193 -1.0362
29001SOL     OW91044   5.811   5.399   1.877 -0.3608  0.1568 -0.1615
29001SOL    HW191045   5.810   5.408   1.972  0.5676  1.3878 -0.2545
29001SOL    HW291046   5.870   5.325   1.860  0.9178  1.0896  0.1505
29002SOL     OW91047   8.278   5.899   6.956  0.0337 -0.1005  0.3858
29002SOL    HW191048   8.234   5.852   7.027 -0.7195 -1.4687 -0.9232
29002SOL    HW291049   8.331   5.966   7.000 -1.4778  0.0065  2.1366
29003SOL     OW91050   9.478   9.731   3.100  0.0378 -0.5024  0.4723
29003SOL    HW191051   9.540   9.800   3.123 -1.0437  0.7259 -0.1724
29003SOL    HW291052   9.524   9.650   3.122  0.5492  0.4302  3.2676
29004SOL     OW91053   2.020   0.936   0.744  0.3011  0.1235  0.1248
29004SOL    HW191054   2.048   0.890   0.665 -0.1943  0.0674 -0.0166
29004SOL    HW291055   2.015   1.028   0.717  3.0404  0.5964  0.8483
29005SOL     OW91056   8.290   9.114   3.608  0.1891  0.0416  0.2120
29005SOL    HW191057   8.330   9.056   3.672  0.6409  1.3372  1.1480
29005SOL    HW291058   8.208   9.142   3.649  0.8346  1.4753  0.6161
29006SOL     OW91059  10.042   5.598   5.193 -0.3547  0.0120 -0.7193
29006SOL    HW191060   9.978   5.551   5.246  0.3961  0.2029  0.3811
29006SOL    HW291061  10.095   5.529   5.153  1.3071 -0.1740  1.5846
29007SOL     OW91062   7.686   2.874   8.647 -0.5376  0.3834  0.3268
29007SOL    HW191063   7.643   2.923   8.577 -1.4630  0.7073  1.0907
29007SOL    HW291064   7.688   2.784   8.616 -1.2427  0.4678  0.0102
29008SOL     OW91065   5.866   8.904   2.288  0.0134 -0.1633  0.0088
29008SOL    HW191066   5.871   8.813   2.316 -2.4197 -0.1410  0.6834
29008SOL    HW291067   5.842   8.953   2.366  1.1667  1.0931 -0.3655
29009SOL     OW91068   8.546   5.270   4.232 -0.4572 -0.5738  0.2019
29009SOL    HW191069   8.529   5.276   4.138  2.9624 -2.6392 -0.6957
29009SOL    HW291070   8.601   5.346   4.251 -0.1631 -0.8014  0.2648
29010SOL     OW91071   9.172   7.708   5.801  0.3865  0.1156  0.8422
29010SOL    HW191072   9.142   7.699   5.892 -1.3850  0.8092  0.3493
29010SOL    HW291073   9.202   7.798   5.795  0.0268  0.2206  0.6073
29011SOL     OW91074   5.634   3.233   1.594 -0.2137  0.3491  0.4878
29011SOL    HW191075   5.694   3.290   1.547 -1.5104  1.6171  0.2836
29011SOL    HW291076   5.561   3.291   1.620 -0.4728 -0.7127  2.3573
29012SOL     OW91077   8.802   8.817   3.396 -0.1403  0.4995 -0.3483
29012SOL    HW191078   8.739   8.813   3.468  0.0348  3.2643  0.0692
29012SOL    HW291079   8.881   8.775   3.431  0.2332  2.5700  1.4756
29013SOL     OW91080   1.604   2.227   7.079  0.4966 -0.1991 -0.1221
29013SOL    HW191081   1.639   2.161   7.139 -0.5327 -0.2073  0.5027
29013SOL    HW291082   1.510   2.229   7.098  0.3535  0.7300 -0.8420
29014SOL     OW91083   9.438   6.367   2.705  0.2532  0.2635 -0.3074
29014SOL    HW191084   9.413   6.407   2.622 -0.6519  1.1942  0.3761
29014SOL    HW291085   9.388   6.286   2.709  0.7067 -0.0495 -0.8985
29015SOL     OW91086   7.708   4.044   2.247 -0.1447 -0.0529  0.8466
29015SOL    HW191087   7.768   4.042   2.172  1.7129 -1.4848  2.2506
29015SOL    HW291088   7.626   4.007   2.213  0.2647  0.4077 -0.7438
29016SOL     OW91089   8.017  10.241   9.243  0.4819  0.6169  0.1239
29016SOL    HW191090   7.929  10.217   9.273  0.8430  1.7090  2.2128
29016SOL    HW291091   8.005  10.266   9.151 -0.9301 -1.5689 -0.3597
29017SOL     OW91092   6.415   8.878   6.164 -0.0250  0.1280  0.0686
29017SOL    HW191093   6.370   8.962   6.162 -2.3242 -1.0188  0.7104
29017SOL    HW291094   6.487   8.888   6.101 -0.4733  2.4170 -0.1595
29018SOL     OW91095   3.478   9.675   8.708  0.2222  0.0507 -0.2437
29018SOL    HW191096   3.472   9.663   8.803 -0.0609  0.2711 -0.2341
29018SOL    HW291097   3.394   9.713   8.683  0.0284 -0.6499 -0.6844
29019SOL     OW91098   5.565   9.894   4.429  0.0899 -0.2179  0.1490
29019SOL    HW191099   5.616   9.855   4.358  0.0402 -1.7240  0.9074
29019SOL    HW291100   5.630   9.927   4.491  0.1278  0.5243 -0.2692
29020SOL     OW91101   9.546   2.564   8.185  0.1753  0.2832  0.2343
29020SOL    HW191102   9.452   2.577   8.171  0.1425  0.1931  0.3667
29020SOL    HW291103   9.586   2.585   8.101  0.1777  1.8418  0.5951
29021SOL     OW91104   6.429   2.860   0.832 -0.3964  0.4677 -0.2306
29021SOL    HW191105   6.341   2.823   0.832 -0.0805 -0.3747 -1.9630
29021SOL    HW291106   6.417   2.952   0.806 -0.8297  0.6100  0.4449
29022SOL     OW91107   5.056   3.832   2.148 -0.2440  0.2153  0.1140
29022SOL    HW191108   5.002   3.754   2.156 -0.5190  0.4267  0.3401
29022SOL    HW291109   5.060   3.850   2.054 -0.2324 -0.0345  0.0680
29023SOL     OW91110   8.097   5.327   3.200  0.1128 -0.8664  0.4035
29023SOL    HW191111   8.067   5.244   3.236 -0.7110 -0.9447 -0.4248
29023SOL    HW291112   8.118   5.308   3.109 -0.9549  0.0116 -0.0498
29024SOL     OW91113   2.081   6.644   3.368 -0.0319  0.5415 -0.4351
29024SOL    HW191114   2.055   6.705   3.437  0.0799  0.9451 -0.7442
29024SOL    HW291115   2.020   6.571   3.377 -0.0531  0.6112  0.0567
29025SOL     OW91116   0.675  10.029   6.677 -0.2217  0.4307 -0.1938
29025SOL    HW191117   0.653  10.117   6.646 -1.5391 -0.3463 -1.5799
29025SOL    HW291118   0.590   9.986   6.688  0.4481 -1.1626 -1.0455
29026SOL     OW91119   5.141   0.787   5.200 -0.3120  0.3664  0.0963
29026SOL    HW191120   5.230   0.753   5.204 -0.5351 -0.2499 -0.0534
29026SOL    HW291121   5.133   0.844   5.277  0.5030  1.1865 -0.4052
29027SOL     OW91122   1.822   0.538   4.055 -0.7711  0.2362  0.3378
29027SOL    HW191123   1.870   0.479   4.113  0.7289  1.0463 -0.0315
29027SOL    HW291124   1.860   0.624   4.071 -0.2377  0.4846 -1.8674
29028SOL     OW91125   7.957   0.677   0.052 -0.1279  0.0226  0.5743
29028SOL    HW191126   8.029   0.620   0.080  0.8080  1.4954  1.3130
29028SOL    HW291127   7.933   0.726   0.131 -0.1004  1.4615 -0.2622
29029SOL     OW91128   6.885   2.934   4.469 -0.0122 -0.1990 -0.2500
29029SOL    HW191129   6.919   2.943   4.380  0.9222 -0.1016  0.1072
29029SOL    HW291130   6.911   2.847   4.496 -1.2492 -0.6528 -0.4492
29030SOL     OW91131   9.683   7.536   1.257  0.2465 -0.4858 -0.0558
29030SOL    HW191132   9.693   7.548   1.351  1.5205  1.9275 -0.4346
29030SOL    HW291133   9.770   7.509   1.227  0.6811  1.6309 -0.8658
29031SOL     OW91134   9.255   8.654   1.700 -0.2552  0.0873  0.0518
29031SOL    HW191135   9.286   8.725   1.644 -1.5114 -0.0124 -0.7973
29031SOL    HW291136   9.273   8.685   1.789  0.5938  0.7995 -0.3516
29032SOL     OW91137   9.648   3.024   6.840 -0.0119  0.5669 -0.1763
29032SOL    HW191138   9.577   2.961   6.831  0.8840 -0.5095  0.0225
29032SOL    HW291139   9.621   3.079   6.913  0.2336 -1.0964  1.2499
29033SOL     OW91140   7.689   7.186   0.409  0.0779 -0.0349 -0.2815
29033SOL    HW191141   7.697   7.240   0.331 -1.9666  0.4063 -0.2427
29033SOL    HW291142   7.596   7.164   0.414  0.1511 -0.0987  2.0016
29034SOL     OW91143   7.107   7.775   7.796  0.4883  0.3014 -0.1944
29034SOL    HW191144   7.127   7.847   7.736 -1.1912  1.1333  0.1700
29034SOL    HW291145   7.188   7.761   7.845  1.0390  1.5402 -0.7078
29035SOL     OW91146   7.916   1.359   2.710 -0.4804  0.3399  0.2155
29035SOL    HW191147   7.876   1.327   2.629 -1.2023  0.4434  0.5245
29035SOL    HW291148   8.002   1.317   2.713  0.3448  1.7427 -1.5398
29036SOL     OW91149   9.021   6.581   2.458 -0.4206  0.6752 -0.2686
29036SOL    HW191150   9.008   6.534   2.376  0.5024 -1.1585  0.5855
29036SOL    HW291151   9.058   6.516   2.518  0.2355  2.3198  1.2000
29037SOL     OW91152   5.909   7.367   9.015  0.2789 -0.4037  0.6511
29037SOL    HW191153   5.834   7.421   8.992  0.1977 -0.5391  0.5962
29037SOL    HW291154   5.884   7.325   9.098 -0.7254 -2.3638 -0.5717
29038SOL     OW91155   5.114   5.818   7.016 -0.1573 -0.2185  0.2858
29038SOL    HW191156   5.020   5.798   7.016 -0.0634 -0.9416  2.6570
29038SOL    HW291157   5.155   5.740   6.981 -0.4315  0.4287 -1.6108
29039SOL     OW91158   1.089   0.293   6.366  0.5942  0.0724  0.0553
29039SOL    HW191159   1.104   0.347   6.443 -1.2918 -0.1600  0.6332
29039SOL    HW291160   1.066   0.207   6.401  1.8278 -0.6611 -0.8292
29040SOL     OW91161   0.045   0.002   3.586  0.2432  0.3960 -0.0863
29040SOL    HW191162   0.137  -0.021   3.569  0.8393  2.2052  0.3868
29040SOL    HW291163  -0.003  -0.039   3.515  1.4088 -0.6972 -0.2785
29041SOL     OW91164   8.878   2.432   2.646 -0.0014  0.5394  0.4111
29041SOL    HW191165   8.941   2.503   2.635 -0.0059  0.1770 -3.0620
29041SOL    HW291166   8.793   2.474   2.644  0.0065  0.5505 -1.3581
29042SOL     OW91167   8.268  10.030   1.351  0.1990 -0.5003 -0.1474
29042SOL    HW191168   8.302   9.954   1.397 -1.4313 -0.6238  0.9115
29042SOL    HW291169   8.297  10.105   1.404  1.5493 -0.3591 -1.0289
29043SOL     OW91170   7.157   7.840   2.915  0.2829 -0.2323  0.0569
29043SOL    HW191171   7.162   7.748   2.889  2.1314  0.2795 -1.6440
29043SOL    HW291172   7.084   7.875   2.865  0.9246 -0.3163 -0.9687
29044SOL     OW91173   8.225   6.629   5.263  0.4855  0.2983 -0.4237
29044SOL    HW191174   8.182   6.711   5.286  1.1747  0.2541  1.1744
29044SOL    HW291175   8.170   6.560   5.301  0.5718  0.0851 -0.6749
29045SOL     OW91176   0.693   3.798   3.226 -0.0183 -0.1559 -0.1316
29045SOL    HW191177   0.646   3.717   3.245 -1.7196  0.3889 -1.7578
29045SOL    HW291178   0.657   3.828   3.143 -1.3959  3.6229  1.5770
29046SOL     OW91179   6.952   0.709   1.159 -0.0480  0.0968 -0.3250
29046SOL    HW191180   7.003   0.760   1.096 -0.3273  1.3323  0.4017
29046SOL    HW291181   7.018   0.670   1.217  0.1621 -0.1031 -0.7004
29047SOL     OW91182   4.950   4.072   9.345  0.0201 -0.5802 -0.4975
29047SOL    HW191183   4.984   4.123   9.272 -0.6081  1.7727  0.7592
29047SOL    HW291184   5.026   4.059   9.403 -0.3324  1.2861  0.4382
29048SOL     OW91185   4.685   1.233   6.168 -0.2955 -0.0743  0.3941
29048SOL    HW191186   4.655   1.156   6.119  1.1903 -0.1025 -0.5273
29048SOL    HW291187   4.622   1.241   6.240 -0.0342 -2.6584  1.0308
29049SOL     OW91188   5.683   2.509   5.151  0.5482 -0.4329  0.2598
29049SOL    HW191189   5.744   2.494   5.224 -0.0232 -0.7177  0.6889
29049SOL    HW291190   5.738   2.506   5.073  1.1950  0.0201  0.6865
29050SOL     OW91191   5.785   2.265   2.415 -0.3758  0.3601  0.9245
29050SOL    HW191192   5.781   2.208   2.492  0.5108 -0.2389  0.5461
29050SOL    HW291193   5.806   2.206   2.343  0.6607  1.1751  0.5368
29051SOL     OW91194   0.295   6.178   9.298 -0.2280 -0.0829 -0.7537
29051SOL    HW191195   0.341   6.178   9.214 -0.5860  0.0315 -0.9484
29051SOL    HW291196   0.278   6.086   9.316  1.3289 -0.2578  0.0073
29052SOL     OW91197   6.691   0.774   1.116 -0.0478  0.1527  0.2488
29052SOL    HW191198   6.781   0.799   1.134 -0.1506  0.1494  0.7913
29052SOL    HW291199   6.667   0.824   1.038  0.7105 -0.5326 -0.4462
29053SOL     OW91200   5.709   6.946   3.607 -0.0886  0.0627  0.0450
29053SOL    HW191201   5.614   6.958   3.599 -0.1911 -0.4175  0.5094
29053SOL    HW291202   5.722   6.852   3.603  0.2885  0.0748  0.7963
29054SOL     OW91203   6.723   0.564   5.350 -0.2908 -0.3107 -0.2776
29054SOL    HW191204   6.776   0.597   5.422  1.1445 -1.0511 -0.9440
29054SOL    HW291205   6.700   0.475   5.376  0.2977 -0.6095 -0.7220
29055SOL     OW91206   5.143   2.842   8.480  0.9222  0.2617  0.2917
29055SOL    HW191207   5.134   2.787   8.558  0.2859  0.0303  0.0640
29055SOL    HW291208   5.228   2.883   8.489  2.2465 -2.1514 -0.3899
29056SOL     OW91209   1.821   5.734   0.773 -0.2592  0.2905 -0.1876
29056SOL    HW191210   1.762   5.685   0.831  1.4526 -0.2628  1.1656
29056SOL    HW291211   1.857   5.803   0.829  1.3470 -0.1912 -0.5886
29057SOL     OW91212   8.716   0.804   8.278  0.1870  0.3159 -0.2424
29057SOL    HW191213   8.795   0.818   8.329  0.1159  1.1307 -0.3476
29057SOL    HW291214   8.710   0.709   8.269  0.1217  0.1484  1.3810
29058SOL     OW91215   9.503   0.114   9.773 -0.3447  0.5502 -0.2376
29058SOL    HW191216   9.432   0.117   9.708  0.2175 -0.1782 -0.9120
29058SOL    HW291217   9.558   0.189   9.752 -0.7847  0.9766  0.1298
29059SOL     OW91218   1.195   5.681   8.725  0.3656 -0.2732 -0.4074
29059SOL    HW191219   1.116   5.634   8.754  1.2509 -2.3378 -1.1373
29059SOL    HW291220   1.256   5.672   8.798  0.4454 -0.0062 -0.4410
29060SOL     OW91221   3.544   6.797  10.288 -0.4296  0.3094  0.4979
29060SOL    HW191222   3.573   6.729  10.350 -0.0741  1.7633  1.9783
29060SOL    HW291223   3.497   6.860  10.341 -0.9944  1.1079 -0.9041
29061SOL     OW91224   3.234   2.272   0.617  0.1278  0.5707 -0.0008
29061SOL    HW191225   3.273   2.347   0.662  0.5985 -0.8122  2.0168
29061SOL    HW291226   3.157   2.309   0.571 -1.3670  1.8658  3.2518
29062SOL     OW91227   9.504   9.427   7.911 -0.6354 -0.6721 -0.6218
29062SOL    HW191228   9.552   9.463   7.836 -1.1533 -1.7042 -1.4860
29062SOL    HW291229   9.571   9.385   7.964 -0.4006 -0.9896 -1.1530
29063SOL     OW91230  10.087   9.335   6.494  0.1617  0.0165  0.6685
29063SOL    HW191231  10.007   9.332   6.440  0.5985  1.5143 -0.1349
29063SOL    HW291232  10.057   9.368   6.579 -0.1829 -0.1410  0.6119
29064SOL     OW91233   3.197   1.950   5.749 -0.4956  0.5956  0.6322
29064SOL    HW191234   3.236   1.969   5.663  0.4530  1.8856  1.3014
29064SOL    HW291235   3.245   2.007   5.809 -2.3958  1.0976  1.7504
29065SOL     OW91236   8.766   6.351   3.948  0.2792 -0.9316  0.2400
29065SOL    HW191237   8.822   6.352   4.025 -0.5104 -1.1059  0.8374
29065SOL    HW291238   8.688   6.303   3.976 -1.7720  2.2507  0.6412
29066SOL     OW91239   3.603   7.194   5.328 -0.0216  0.7789 -0.1788
29066SOL    HW191240   3.626   7.151   5.246  0.5531 -1.0195  0.8493
29066SOL    HW291241   3.514   7.227   5.314  0.0421  0.4355 -1.4910
29067SOL     OW91242   5.765   6.964   5.523 -0.2570 -0.4721  0.6183
29067SOL    HW191243   5.816   7.001   5.595  1.2408  0.1800 -0.7147
29067SOL    HW291244   5.678   7.002   5.533  0.2931  0.6405  1.3263
29068SOL     OW91245   1.274   6.018   4.209 -0.4207  0.2005 -0.0471
29068SOL    HW191246   1.200   6.072   4.179  1.0381  1.1294 -2.2106
29068SOL    HW291247   1.329   6.008   4.131  3.1300  1.8624  2.0236
29069SOL     OW91248   7.975   1.488   5.692 -0.4334 -0.0075 -0.6605
29069SOL    HW191249   8.005   1.398   5.682 -0.4194 -0.2681  1.3534
29069SOL    HW291250   8.054   1.541   5.683 -0.4147 -0.2042 -1.6826
29070SOL     OW91251   3.342   6.382   9.771  0.2661 -0.0923  0.0778
29070SOL    HW191252   3.388   6.466   9.782 -1.5111  1.1518 -1.3459
29070SOL    HW291253   3.391   6.338   9.702  0.2210  0.5369 -0.3673
29071SOL     OW91254   9.844   1.419   5.457 -0.2583 -0.0656  0.2274
29071SOL    HW191255   9.757   1.404   5.495 -0.3415  0.0351  0.0768
29071SOL    HW291256   9.867   1.335   5.417  0.1999 -0.4349  1.2400
29072SOL     OW91257   9.642   0.862   6.726  0.4915 -0.1895 -0.1290
29072SOL    HW191258   9.711   0.805   6.759  1.2065 -0.6301 -2.2378
29072SOL    HW291259   9.570   0.803   6.702  0.9164 -0.1624 -1.5536
29073SOL     OW91260   7.976   1.024   4.379  0.7065 -0.3046  0.6193
29073SOL    HW191261   7.939   1.067   4.456 -1.3547 -0.6275 -0.1121
29073SOL    HW291262   7.977   1.092   4.311  2.6447  0.0182  0.9266
29074SOL     OW91263   7.570   2.734   5.017  0.2773 -0.1424 -0.5900
29074SOL    HW191264   7.617   2.818   5.024 -1.7933  0.9540  1.3430
29074SOL    HW291265   7.541   2.731   4.925  1.7417  0.4446 -1.1110
29075SOL     OW91266   6.235   1.362   6.102  0.2043  0.0881 -0.5848
29075SOL    HW191267   6.327   1.352   6.074 -0.3677 -0.7672 -2.3508
29075SOL    HW291268   6.231   1.449   6.142  2.1535 -0.5628  1.1981
29076SOL     OW91269   4.090   5.200   9.299 -0.5725 -0.8450 -0.2762
29076SOL    HW191270   4.002   5.235   9.308  0.1189  0.9583 -0.1561
29076SOL    HW291271   4.139   5.242   9.370  0.6338 -0.9636 -1.0184
29077SOL     OW91272   7.897   3.656   1.686  0.1197 -0.5556  0.2517
29077SOL    HW191273   7.900   3.561   1.689  1.1885 -0.6550 -1.9580
29077SOL    HW291274   7.926   3.684   1.773  1.1802 -2.2330  0.4699
29078SOL     OW91275   8.959   6.363   4.484 -0.3660  0.4370  0.2675
29078SOL    HW191276   8.976   6.345   4.392 -0.2032  0.0822  0.3663
29078SOL    HW291277   8.946   6.277   4.524 -0.7682  0.6038  0.5134
29079SOL     OW91278  10.111   0.134   8.150  0.3476 -0.7750 -0.8296
29079SOL    HW191279  10.032   0.079   8.144 -0.3628  0.1416 -0.1657
29079SOL    HW291280  10.081   0.221   8.126  0.7561 -0.0791  1.0283
29080SOL     OW91281   0.544   2.338   5.338 -0.0843 -0.0087 -0.1956
29080SOL    HW191282   0.566   2.291   5.257  2.1867 -0.7581  0.7481
29080SOL    HW291283   0.570   2.428   5.321 -3.4360  0.8081 -1.6357
29081SOL     OW91284   3.349   0.537   0.026 -0.0121  0.0263  0.7656
29081SOL    HW191285   3.402   0.589  -0.035  0.8124 -1.1846  0.4174
29081SOL    HW291286   3.263   0.581   0.025  0.8705  1.8640  1.1470
29082SOL     OW91287   2.618   4.310   1.136 -0.3879 -0.1809 -0.4664
29082SOL    HW191288   2.643   4.343   1.050 -0.4504  0.1242 -0.3704
29082SOL    HW291289   2.531   4.272   1.123 -0.5932  0.2753 -0.4434
29083SOL     OW91290   8.669   6.313   7.870 -0.0368  0.2950 -0.4632
29083SOL    HW191291   8.665   6.393   7.922 -2.8745 -0.7478  1.1484
29083SOL    HW291292   8.593   6.319   7.811  0.4337 -0.6528 -1.1972
29084SOL     OW91293   8.161   3.310   2.133 -0.2542  0.5127 -0.1195
29084SOL    HW191294   8.103   3.282   2.062 -2.1868  1.4200  1.0330
29084SOL    HW291295   8.205   3.388   2.099  1.1950 -0.7887 -1.4015
29085SOL     OW91296   1.955   7.237   3.943 -0.1104  0.9947 -0.2657
29085SOL    HW191297   1.902   7.166   3.907 -0.2122  1.3851 -0.8998
29085SOL    HW291298   1.978   7.291   3.867 -1.0214  2.3100  0.3434
29086SOL     OW91299   8.893   7.925   6.687 -0.0215 -0.0345 -0.7028
29086SOL    HW191300   8.850   7.916   6.602 -1.9784 -1.2925  0.3492
29086SOL    HW291301   8.842   7.991   6.733  0.3258 -0.1923 -0.0844
29087SOL     OW91302   1.863   2.197   9.165  0.3602  0.2708 -0.6691
29087SOL    HW191303   1.893   2.275   9.212  0.8618  1.0195 -2.1640
29087SOL    HW291304   1.772   2.185   9.193  0.9795 -0.0430  1.3788
29088SOL     OW91305   7.712   6.697   7.392  0.2090 -0.4282 -0.4273
29088SOL    HW191306   7.751   6.781   7.414  1.4265 -1.1485  0.3166
29088SOL    HW291307   7.621   6.717   7.371  0.9687  1.3335 -2.3236
29089SOL     OW91308   2.648   7.738   9.465  0.3233 -0.0925 -0.3985
29089SOL    HW191309   2.570   7.751   9.518  0.6549  1.1394 -0.1683
29089SOL    HW291310   2.709   7.806   9.495  0.8307  0.0982 -1.7743
29090SOL     OW91311   8.804   8.481   0.506  0.3208  0.3876  0.1627
29090SOL    HW191312   8.761   8.538   0.442  0.4193 -0.0574 -0.3171
29090SOL    HW291313   8.898   8.495   0.493  0.3342  1.2484  1.1067
29091SOL     OW91314   8.387   0.399   2.382 -0.1750  0.1943  0.1645
29091SOL    HW191315   8.423   0.488   2.389  0.1872  0.0306  0.4217
29091SOL    HW291316   8.420   0.354   2.460  0.4147 -0.4400 -0.4371
29092SOL     OW91317   9.086   2.016   8.218  0.4997 -0.0184  0.5126
29092SOL    HW191318   9.022   2.036   8.286 -0.1639  3.2511 -0.8768
29092SOL    HW291319   9.171   2.039   8.257  0.5502 -1.4415  1.3158
29093SOL     OW91320  10.233   7.255   2.812 -0.1384 -0.1097  0.0356
29093SOL    HW191321  10.275   7.259   2.898 -2.5422 -0.6258  1.3305
29093SOL    HW291322  10.305   7.234   2.751  1.3856 -1.4643  2.1448
29094SOL     OW91323   3.944   2.064   3.030 -0.3178 -0.7141  0.1423
29094SOL    HW191324   3.962   1.973   3.053 -1.7291 -0.9374  0.4566
29094SOL    HW291325   3.989   2.115   3.097  0.6310 -1.1592 -0.1363
29095SOL     OW91326   6.335   9.279   5.108 -0.4242  0.4372  0.5967
29095SOL    HW191327   6.258   9.330   5.133 -0.2733  1.4336 -0.8443
29095SOL    HW291328   6.406   9.315   5.162 -0.5558  0.9608  0.4268
29096SOL     OW91329   0.681   4.631   6.863  0.2401 -0.8971  0.4651
29096SOL    HW191330   0.755   4.576   6.838  0.5389 -0.1909 -0.2618
29096SOL    HW291331   0.612   4.570   6.888 -0.0623 -1.6920 -2.0325
29097SOL     OW91332   7.892   8.393   5.946  0.6765  0.0030 -0.5016
29097SOL    HW191333   7.902   8.360   6.035  1.9366  0.6222 -0.3990
29097SOL    HW291334   7.971   8.364   5.901 -0.0053 -0.4063 -1.4603
29098SOL     OW91335  10.159   4.875   6.388 -0.3116 -0.0746 -0.2480
29098SOL    HW191336  10.092   4.820   6.430 -0.4644  0.7736  0.6620
29098SOL    HW291337  10.227   4.885   6.454  0.3426 -0.2647 -0.8872
29099SOL     OW91338   5.871   0.274   2.125 -0.3373 -0.0234  0.3501
29099SOL    HW191339   5.872   0.285   2.220 -0.9443  1.2954  0.2192
29099SOL    HW291340   5.893   0.181   2.112  1.6463  0.1936  1.6749
29100SOL     OW91341   9.401   2.945   7.963  0.1420  0.3120  0.6377
29100SOL    HW191342   9.345   3.007   8.010  0.2645 -0.2553  1.5535
29100SOL    HW291343   9.443   2.998   7.895 -1.3198  0.7863  0.0763
29101SOL     OW91344   9.646   4.150   3.530 -0.5775 -0.2673  0.7218
29101SOL    HW191345   9.677   4.239   3.547  0.7562 -0.8456  1.4605
29101SOL    HW291346   9.669   4.135   3.438 -0.1299 -0.1019  0.8023
29102SOL     OW91347   7.952   0.829   0.307  0.0582 -0.1780 -0.0841
29102SOL    HW191348   7.897   0.907   0.312  0.0794 -0.2055  0.6493
29102SOL    HW291349   7.940   0.786   0.392  1.6260  0.0937  0.3066
29103SOL     OW91350   9.968   0.508   7.810 -0.5473  0.7712 -0.0056
29103SOL    HW191351  10.044   0.558   7.781 -0.2823  0.2320 -0.2657
29103SOL    HW291352   9.995   0.468   7.892 -0.3437  0.1184 -0.3859
29104SOL     OW91353   0.827   4.453   4.115  0.1210 -0.1271  0.0369
29104SOL    HW191354   0.863   4.406   4.190  0.3876  1.5175  1.0039
29104SOL    HW291355   0.733   4.434   4.117  0.1978 -0.4660  0.4934
29105SOL     OW91356   7.417   2.058   5.041 -0.0874 -0.5442 -0.1430
29105SOL    HW191357   7.428   2.141   5.088 -2.3144  0.9844 -2.0963
29105SOL    HW291358   7.366   2.003   5.101 -1.3188  0.6897 -0.0116
29106SOL     OW91359   2.017  10.245   3.339  0.0770 -0.1091  0.0475
29106SOL    HW191360   2.067  10.314   3.295  2.1827 -0.3613  1.8551
29106SOL    HW291361   1.943  10.290   3.379  1.1584  1.0804  0.7975
29107SOL     OW91362   7.907   5.981   4.883  0.9490 -0.5605 -0.2327
29107SOL    HW191363   7.962   5.928   4.941 -0.0198 -0.7639  0.5133
29107SOL    HW291364   7.818   5.952   4.901  0.6178 -0.5057 -1.7158
29108SOL     OW91365   4.383   3.178   8.019 -0.2207  0.2236  0.4663
29108SOL    HW191366   4.337   3.139   7.944 -0.3642 -0.4263  0.8909
29108SOL    HW291367   4.317   3.234   8.060 -0.8618 -1.1829  1.4377
29109SOL     OW91368   1.923   6.331   6.976 -0.2489  0.2808 -0.2865
29109SOL    HW191369   1.974   6.332   7.057 -1.1715  3.0471  0.3726
29109SOL    HW291370   1.985   6.359   6.908 -0.4961  2.5110  0.3221
29110SOL     OW91371   0.697   8.307   8.953 -0.0252 -0.2366  0.3516
29110SOL    HW191372   0.740   8.340   9.032  0.1550 -1.5348  0.8204
29110SOL    HW291373   0.683   8.214   8.970 -2.2197 -0.0518 -0.1592
29111SOL     OW91374   8.985   6.498   2.189  0.2700 -0.0823  0.4234
29111SOL    HW191375   9.034   6.416   2.186  1.3061  0.5311  0.2650
29111SOL    HW291376   8.894   6.472   2.174  0.7040 -1.0969 -0.5820
29112SOL     OW91377  10.210   7.656   5.122  0.0518 -0.6372 -0.5251
29112SOL    HW191378  10.296   7.618   5.102  0.5905  0.6977 -0.8427
29112SOL    HW291379  10.227   7.749   5.132 -1.1194 -0.5429  0.8925
29113SOL     OW91380   1.260   1.713   4.701  0.0845  0.1592 -0.1234
29113SOL    HW191381   1.276   1.620   4.719  0.1196  0.0187 -0.8559
29113SOL    HW291382   1.228   1.748   4.784  0.1678 -0.4862  0.1883
29114SOL     OW91383   2.356   5.680   5.579 -0.2795  0.0994 -0.7109
29114SOL    HW191384   2.405   5.762   5.573  0.4748 -0.3111 -0.3498
29114SOL    HW291385   2.277   5.695   5.527 -0.5603  1.3468  0.0242
29115SOL     OW91386   8.997   9.287   8.264  0.4193 -0.4544  0.2850
29115SOL    HW191387   8.959   9.372   8.287  0.9959 -0.0756 -0.1449
29115SOL    HW291388   9.057   9.268   8.335  0.2396 -0.5365  0.4157
29116SOL     OW91389   7.447   2.075   9.458  0.1457  0.8148  0.2388
29116SOL    HW191390   7.357   2.079   9.424  1.1776 -1.1016 -3.2569
29116SOL    HW291391   7.485   2.160   9.436  0.4971 -0.0511 -2.9072
29117SOL     OW91392   5.911   8.892   7.421  0.7071 -0.1124 -0.3397
29117SOL    HW191393   5.955   8.942   7.352  0.3250 -1.1000 -1.3513
29117SOL    HW291394   5.920   8.801   7.393 -0.6035 -0.4408  0.2224
29118SOL     OW91395   2.277   8.200   7.481  0.0408  0.1621 -0.6107
29118SOL    HW191396   2.291   8.294   7.468  1.0136  0.1097 -0.0738
29118SOL    HW291397   2.363   8.161   7.464  1.4404  0.0083  4.9824
29119SOL     OW91398   3.553   7.340   0.463 -0.0336  0.2169 -0.1011
29119SOL    HW191399   3.559   7.252   0.501 -0.7046  0.2570  0.1118
29119SOL    HW291400   3.531   7.397   0.536 -1.4587  0.2773 -0.5559
29120SOL     OW91401   8.873   0.426   0.367  0.4927  0.0454  0.2938
29120SOL    HW191402   8.908   0.363   0.304  1.0650 -1.1978  1.8004
29120SOL    HW291403   8.815   0.482   0.315 -1.2252 -2.6306 -0.8674
29121SOL     OW91404   9.239   8.927   9.146 -0.7580 -0.3440 -0.3497
29121SOL    HW191405   9.163   8.871   9.157 -0.3293 -0.9394 -0.3448
29121SOL    HW291406   9.287   8.888   9.073  0.4486 -1.0347  0.7731
29122SOL     OW91407   7.180   0.122   2.838  0.2377 -0.1682  0.1847
29122SOL    HW191408   7.272   0.112   2.814  0.2365 -0.2815  0.2252
29122SOL    HW291409   7.165   0.054   2.904 -0.4738 -1.7001 -1.4809
29123SOL     OW91410   6.246   5.192   7.356  0.3229 -0.5263 -0.0859
29123SOL    HW191411   6.254   5.261   7.422 -0.6169 -0.2472 -0.2374
29123SOL    HW291412   6.152   5.190   7.337  0.6737  0.0293 -2.0740
29124SOL     OW91413   5.335   1.009   9.282  0.2000 -0.6675  0.6081
29124SOL    HW191414   5.403   1.067   9.316 -0.8571  1.4758 -0.6675
29124SOL    HW291415   5.292   0.975   9.360  0.5604  0.6884  1.4406
29125SOL     OW91416   2.777  10.130   6.602 -0.1918  0.3596 -0.0172
29125SOL    HW191417   2.860  10.106   6.643 -0.0612  1.4688  0.4113
29125SOL    HW291418   2.753  10.055   6.548 -1.3964 -2.1083  3.5841
29126SOL     OW91419   6.040   1.241   2.549 -0.3605  0.5002 -0.3878
29126SOL    HW191420   5.965   1.191   2.581 -0.3694  1.5389  1.2898
29126SOL    HW291421   6.014   1.268   2.461 -1.4648 -0.1458 -0.2823
29127SOL     OW91422   9.013   2.815   8.267  0.3146  0.1595  0.6042
29127SOL    HW191423   8.990   2.785   8.179  0.8872  0.1983  0.4351
29127SOL    HW291424   8.935   2.797   8.320 -0.2289  0.6333 -0.0252
29128SOL     OW91425   2.652   7.325   8.339  0.4689  0.7876 -0.3610
29128SOL    HW191426   2.742   7.346   8.365  1.0475 -0.7573 -1.0453
29128SOL    HW291427   2.655   7.320   8.244 -0.1647 -0.0438 -0.3483
29129SOL     OW91428   4.500   3.126   0.278 -0.0557  0.1237 -0.0565
29129SOL    HW191429   4.488   3.184   0.203 -0.6412 -0.3090 -0.3105
29129SOL    HW291430   4.412   3.114   0.313 -0.1796 -1.7175 -0.8616
29130SOL     OW91431   1.006   5.372   6.891  0.5022 -0.0092 -0.2135
29130SOL    HW191432   1.020   5.466   6.885  0.7313  0.0386  0.8800
29130SOL    HW291433   1.009   5.341   6.801 -0.1645  1.1122 -0.6328
29131SOL     OW91434   0.209   7.277   9.384 -0.3671 -0.2390 -0.2926
29131SOL    HW191435   0.266   7.267   9.460  0.9651  0.0787 -1.2179
29131SOL    HW291436   0.256   7.338   9.327 -2.5736  1.6662 -0.2112
29132SOL     OW91437   1.295   0.272   0.673 -0.5046  0.0888 -0.3224
29132SOL    HW191438   1.371   0.214   0.660 -0.4551  0.0880 -0.0448
29132SOL    HW291439   1.313   0.348   0.618 -0.0308  0.3377  0.1610
29133SOL     OW91440  10.136   2.359   9.754 -0.0900 -0.0557  0.4327
29133SOL    HW191441  10.122   2.392   9.843 -1.0279 -0.9402  0.6453
29133SOL    HW291442  10.100   2.427   9.698 -0.6550 -0.0402  0.7976
29134SOL     OW91443   9.848   3.527   8.492  0.2490  0.5456 -0.1377
29134SOL    HW191444   9.871   3.434   8.496  0.3660  0.5197 -1.2300
29134SOL    HW291445   9.927   3.572   8.523  0.8317  0.3336 -1.2383
29135SOL     OW91446   7.713   4.265   4.706 -0.2950 -0.1126 -0.1163
29135SOL    HW191447   7.769   4.283   4.782 -0.6955  0.0562  0.1412
29135SOL    HW291448   7.744   4.325   4.639  1.2648 -1.4843 -0.6995
29136SOL     OW91449   5.171   2.170   7.277  0.1921 -0.0916 -0.6743
29136SOL    HW191450   5.149   2.077   7.272  0.2736 -0.2663  1.2702
29136SOL    HW291451   5.138   2.198   7.363  1.0755  1.4253 -0.7863
29137SOL     OW91452   2.032   0.837   1.149 -0.1422 -0.4241  0.5805
29137SOL    HW191453   2.075   0.809   1.229  1.4027  0.0609 -0.0460
29137SOL    HW291454   1.945   0.797   1.153  0.6822 -2.2403  1.4394
29138SOL     OW91455   9.673   0.654   4.601 -0.4444 -0.2138  0.2822
29138SOL    HW191456   9.581   0.661   4.574 -0.5090  0.5346  0.6789
29138SOL    HW291457   9.723   0.682   4.525 -0.6311  2.1951  0.9616
29139SOL     OW91458   1.560   5.377  10.179  0.4296 -0.2522  0.0987
29139SOL    HW191459   1.654   5.391  10.187  0.4075 -0.5646  0.9724
29139SOL    HW291460   1.544   5.376  10.085  1.0787  1.2145 -0.0493
29140SOL     OW91461   0.468   9.304   1.021  0.1136  0.3159 -0.1677
29140SOL    HW191462   0.404   9.262   0.964 -0.0222  0.5759 -0.2076
29140SOL    HW291463   0.416   9.359   1.079  0.0427 -1.3353  1.4605
29141SOL     OW91464   9.234   3.994   1.867  0.1978 -0.1607 -0.0519
29141SOL    HW191465   9.275   3.990   1.780 -1.5813 -0.0530 -0.9544
29141SOL    HW291466   9.217   3.903   1.889  1.1315 -0.2227  0.4447
29142SOL     OW91467   4.864   8.046  10.222 -0.3532  0.3190 -0.7832
29142SOL    HW191468   4.910   7.984  10.278  1.5138  1.6656 -0.7456
29142SOL    HW291469   4.873   8.009  10.134  1.1018  0.6763 -0.8164
29143SOL     OW91470   6.304   6.793   7.668 -0.1085 -0.9487  0.0332
29143SOL    HW191471   6.267   6.706   7.661  1.6168 -1.8951  1.6919
29143SOL    HW291472   6.369   6.797   7.597 -1.5247 -0.2180 -1.2870
29144SOL     OW91473   1.527   0.189   7.372  0.3330 -0.3130  0.1624
29144SOL    HW191474   1.488   0.259   7.424  1.0069 -0.1542  0.4654
29144SOL    HW291475   1.560   0.233   7.294 -0.0999 -0.4528 -0.1082
29145SOL     OW91476   5.330   3.897   9.874 -0.7139  0.6995  0.2665
29145SOL    HW191477   5.265   3.832   9.899 -2.4570  2.7838  1.5220
29145SOL    HW291478   5.321   3.905   9.779 -1.9599  0.5678  0.3547
29146SOL     OW91479   1.203   2.652   8.065 -0.2435 -0.1128  0.4864
29146SOL    HW191480   1.207   2.706   7.986 -0.3525  0.4294  0.8398
29146SOL    HW291481   1.248   2.571   8.042  1.3783  0.7717  0.4391
29147SOL     OW91482   8.470   5.271   9.021 -0.6871 -0.2402 -0.2407
29147SOL    HW191483   8.387   5.278   9.069  0.3506 -1.9944  1.9487
29147SOL    HW291484   8.527   5.337   9.062 -0.0775 -1.1204  0.3503
29148SOL     OW91485  10.129   7.679   3.512  0.0004 -0.4097 -0.0515
29148SOL    HW191486  10.117   7.760   3.464 -3.1607  0.0273  1.2362
29148SOL    HW291487  10.169   7.706   3.595  0.0922 -0.3350 -0.1201
29149SOL     OW91488   4.777   0.328   2.978  0.6030  0.1884  0.3287
29149SOL    HW191489   4.800   0.338   3.070  1.7320  0.7695 -0.0001
29149SOL    HW291490   4.682   0.314   2.978  0.7175 -0.6942  1.6268
29150SOL     OW91491   7.648   9.338   5.074 -0.2381 -0.0453 -0.1232
29150SOL    HW191492   7.632   9.263   5.018  1.1410 -0.6030  0.1865
29150SOL    HW291493   7.717   9.309   5.134  1.1757  1.8224 -0.7519
29151SOL     OW91494   5.546   4.270   2.688 -0.2180  0.5314  0.3013
29151SOL    HW191495   5.597   4.336   2.735  0.8684 -0.9172  1.2580
29151SOL    HW291496   5.518   4.313   2.608  2.2375  1.5064 -0.1005
29152SOL     OW91497   7.943   1.031   9.409  0.2477  0.2362  0.1753
29152SOL    HW191498   7.900   1.115   9.398  1.4108  0.8030 -0.2720
29152SOL    HW291499   8.017   1.033   9.347  0.7292 -0.8085  0.6725
29153SOL     OW91500  10.191   4.398   1.557  0.1212 -0.7781 -0.2817
29153SOL    HW191501  10.202   4.375   1.465 -0.5073 -0.5569 -0.4180
29153SOL    HW291502  10.097   4.412   1.567  0.2288 -0.4353  0.3080
29154SOL     OW91503   3.275   3.255   4.267 -0.3992 -0.2918 -0.2490
29154SOL    HW191504   3.253   3.207   4.347 -0.0809 -0.6601 -0.3772
29154SOL    HW291505   3.347   3.206   4.229  0.4980  0.7695  0.0468
29155SOL     OW91506   6.145   4.222   5.647  0.1715  0.0768 -0.2237
29155SOL    HW191507   6.203   4.297   5.659  1.8596 -0.9028 -1.6282
29155SOL    HW291508   6.146   4.206   5.553  0.4183 -2.1014  0.0946
29156SOL     OW91509   1.480   1.031   4.268  0.4539  0.4097  0.2558
29156SOL    HW191510   1.520   1.117   4.258 -0.6794  1.0845  1.3183
29156SOL    HW291511   1.477   1.016   4.362 -0.4345 -0.2721  0.1369
29157SOL     OW91512   6.103   7.723   4.251 -0.1210  0.1046  0.0064
29157SOL    HW191513   6.194   7.697   4.238 -0.5364 -1.0555 -0.8295
29157SOL    HW291514   6.053   7.662   4.197 -1.5357 -0.4391  1.8116
29158SOL     OW91515   2.073   1.835   6.881  0.1470 -0.3176  0.1995
29158SOL    HW191516   1.998   1.877   6.840 -0.2792  0.0695  1.3225
29158SOL    HW291517   2.074   1.870   6.970  1.8572 -0.0615  0.1203
29159SOL     OW91518  10.119   8.309   2.879 -0.6851 -0.3200  0.0881
29159SOL    HW191519  10.073   8.283   2.958 -0.9369 -0.3512 -0.0673
29159SOL    HW291520  10.051   8.316   2.812 -0.5052 -0.0829 -0.0739
29160SOL     OW91521   2.141   2.188   3.281 -0.3837 -0.3113 -0.2641
29160SOL    HW191522   2.234   2.166   3.270 -0.2572  0.7090 -1.5122
29160SOL    HW291523   2.094   2.117   3.236 -0.1306  0.0310 -1.0881
29161SOL     OW91524   5.485   0.072   7.835  0.1536 -0.1253 -0.6694
29161SOL    HW191525   5.392   0.096   7.837 -0.4815 -2.3595 -0.6123
29161SOL    HW291526   5.501   0.047   7.743 -0.0549 -2.1957 -0.2073
29162SOL     OW91527   8.816   6.549  10.160  0.6690 -0.2868  0.0637
29162SOL    HW191528   8.848   6.459  10.158  1.0458 -0.1480 -0.2691
29162SOL    HW291529   8.866   6.591  10.230 -1.7846 -1.1594  2.5358
29163SOL     OW91530   5.214   9.573   6.500  0.0243 -0.3586 -0.3262
29163SOL    HW191531   5.268   9.651   6.484 -0.3341  0.1478  0.8503
29163SOL    HW291532   5.188   9.544   6.413 -0.4400  1.2696 -0.7652
29164SOL     OW91533   1.924   1.623   9.378 -0.6643 -0.3709 -0.2877
29164SOL    HW191534   1.976   1.637   9.457 -0.3245 -0.9682 -0.4040
29164SOL    HW291535   1.861   1.555   9.402 -2.6252  1.5515  0.4239
29165SOL     OW91536   1.096   7.523   8.720  0.1264 -0.0899 -0.3708
29165SOL    HW191537   1.103   7.475   8.803  1.2132  1.0476  0.2147
29165SOL    HW291538   1.020   7.580   8.732  0.2833  0.0742 -0.1596
29166SOL     OW91539   2.935   8.074   5.224  0.0706  0.0126  0.0900
29166SOL    HW191540   3.000   8.114   5.282 -0.4362  0.1484  0.5749
29166SOL    HW291541   2.987   8.034   5.154  0.5975  1.6718 -0.5238
29167SOL     OW91542   3.942   0.047   9.704  0.6486 -0.0090 -0.2131
29167SOL    HW191543   4.018   0.093   9.668 -0.2274  2.1183  0.5154
29167SOL    HW291544   3.881   0.040   9.630 -0.2025  2.2717  0.2088
29168SOL     OW91545   3.832   5.674   3.854  0.4255 -0.3526 -0.0760
29168SOL    HW191546   3.755   5.617   3.856  0.0616  0.0681 -1.1349
29168SOL    HW291547   3.870   5.659   3.768  0.1945  1.1417 -0.4729
29169SOL     OW91548   2.478   8.269   5.446  0.0665  0.1929  0.4636
29169SOL    HW191549   2.393   8.243   5.482  0.4654 -0.9279  0.6491
29169SOL    HW291550   2.512   8.332   5.509 -0.2369 -0.0366  0.8679
29170SOL     OW91551   6.077   0.623   3.584  0.3242  0.0937  0.3027
29170SOL    HW191552   6.100   0.705   3.629  0.8661  0.6487 -0.9471
29170SOL    HW291553   6.135   0.557   3.623 -0.8441  0.0375  2.0780
29171SOL     OW91554   1.964   4.817   0.995 -0.0700 -0.0307  0.1678
29171SOL    HW191555   1.934   4.868   0.919  3.0167  1.5193 -0.1410
29171SOL    HW291556   2.014   4.745   0.957 -0.3465 -0.5149  0.7123
29172SOL     OW91557  10.140   8.752   9.900  0.1354 -0.1316 -0.6210
29172SOL    HW191558  10.164   8.825   9.957  0.1185  0.1763 -1.0009
29172SOL    HW291559  10.111   8.683   9.960  0.9603 -0.1352 -0.2150
29173SOL     OW91560   6.292   6.737   2.127  0.1082  0.5374  0.2109
29173SOL    HW191561   6.215   6.695   2.165  1.2599 -0.6861  1.2764
29173SOL    HW291562   6.353   6.746   2.200  1.3357  0.6428 -0.7985
29174SOL     OW91563   3.071   7.700   7.614  0.1299 -0.2742 -0.0832
29174SOL    HW191564   2.989   7.672   7.572  0.3764 -0.7641 -0.2516
29174SOL    HW291565   3.068   7.660   7.701 -0.4929  0.9397  0.4849
29175SOL     OW91566   1.384   2.619   7.705 -0.4971  0.2118  0.2073
29175SOL    HW191567   1.383   2.525   7.691  0.9447  0.3783 -1.2929
29175SOL    HW291568   1.295   2.640   7.734 -1.3156 -1.3802 -1.0088
29176SOL     OW91569   0.159   9.691   8.618  0.2595  0.6454  0.1958
29176SOL    HW191570   0.226   9.624   8.606 -0.9119 -0.6178  0.4888
29176SOL    HW291571   0.173   9.724   8.707 -1.0070 -1.3884  1.2113
29177SOL     OW91572   4.369   8.840   2.986  0.2429 -0.5453 -0.2658
29177SOL    HW191573   4.418   8.776   3.038 -0.6802 -0.4820  0.7031
29177SOL    HW291574   4.332   8.789   2.914  0.2992 -0.9172 -0.0343
29178SOL     OW91575   7.257   5.260   5.394 -0.2863  0.3988  0.1695
29178SOL    HW191576   7.253   5.186   5.455  0.8837  0.0475 -0.1475
29178SOL    HW291577   7.186   5.317   5.421 -1.1717 -0.8006  0.4795
29179SOL     OW91578   7.256   2.963   0.818  0.2082 -0.2180 -0.1171
29179SOL    HW191579   7.224   3.016   0.892 -1.1524 -0.6004 -0.4032
29179SOL    HW291580   7.350   2.959   0.831  0.2156  1.3703  0.5089
29180SOL     OW91581   8.366   7.905   4.882  0.4156 -0.1083  0.5593
29180SOL    HW191582   8.319   7.898   4.965 -0.9304 -0.1120 -0.1715
29180SOL    HW291583   8.383   7.814   4.856 -0.1048 -0.1456  0.3313
29181SOL     OW91584   3.255   5.888  10.295 -0.7251 -0.0556 -0.3702
29181SOL    HW191585   3.190   5.959  10.290  0.2442  0.7937 -1.3736
29181SOL    HW291586   3.331   5.928  10.337 -0.8022 -1.0191  0.7057
29182SOL     OW91587   6.766   6.401   9.571  0.4330  0.5154 -0.1596
29182SOL    HW191588   6.736   6.429   9.484  0.9967  0.8635 -0.2488
29182SOL    HW291589   6.785   6.308   9.561  0.1225  0.4666 -0.3053
29183SOL     OW91590   4.963   7.810   9.566  0.2470 -0.0857  0.0792
29183SOL    HW191591   4.994   7.719   9.559  1.5115  0.3421 -0.1155
29183SOL    HW291592   5.038   7.863   9.537  1.4182  1.2731  4.7834
29184SOL     OW91593   4.020   8.162   7.111 -0.0423  0.6156 -0.3005
29184SOL    HW191594   4.098   8.111   7.089 -0.4187  0.7936 -2.1432
29184SOL    HW291595   4.054   8.244   7.146  0.5720  0.2223  0.0509
29185SOL     OW91596   3.934   5.171   7.890  0.1472 -0.2904  0.2273
29185SOL    HW191597   3.842   5.164   7.916  0.2448 -0.7071  0.4694
29185SOL    HW291598   3.941   5.116   7.812  0.2497 -0.4799  0.3691
29186SOL     OW91599   2.287   3.831   4.820  0.9380 -0.0783 -0.2044
29186SOL    HW191600   2.341   3.889   4.874 -1.3210  0.1638  1.9806
29186SOL    HW291601   2.273   3.754   4.875 -1.2536  0.0836 -0.4660
29187SOL     OW91602   1.380   1.510   0.904 -0.1091 -0.0757 -0.6721
29187SOL    HW191603   1.473   1.492   0.896 -0.2420 -0.7706 -0.7557
29187SOL    HW291604   1.338   1.435   0.862 -0.7089  0.0478 -0.2981
29188SOL     OW91605   6.097   6.337   1.060 -0.1969 -0.0380 -0.3536
29188SOL    HW191606   6.162   6.366   1.125 -0.1041 -1.1265  0.0546
29188SOL    HW291607   6.013   6.359   1.099 -0.1424 -0.7452  0.1755
29189SOL     OW91608   8.747   2.185   6.870 -0.2764  0.1040  0.0388
29189SOL    HW191609   8.670   2.216   6.917  0.0401  0.9502  0.0158
29189SOL    HW291610   8.714   2.114   6.815 -0.7546 -0.5053  1.1011
29190SOL     OW91611   5.359   3.413   9.679 -0.6347 -0.6254  0.2920
29190SOL    HW191612   5.325   3.502   9.691 -0.0739  0.3202 -3.5528
29190SOL    HW291613   5.450   3.418   9.709 -0.2080  0.5640 -1.0514
29191SOL     OW91614   0.808   0.278   7.638 -0.6495  0.2389 -0.0758
29191SOL    HW191615   0.887   0.251   7.686  0.7236  1.0385 -1.7944
29191SOL    HW291616   0.780   0.199   7.591  0.3763  0.4606 -1.0947
29192SOL     OW91617   3.738   0.824   8.604  0.1513 -0.4187  0.1254
29192SOL    HW191618   3.794   0.747   8.600 -2.0075 -2.0590 -0.2859
29192SOL    HW291619   3.736   0.847   8.697  2.0001  0.1444  0.0788
29193SOL     OW91620   1.556   4.050   0.541  0.1074 -0.5439  0.3477
29193SOL    HW191621   1.463   4.030   0.535  0.1537 -0.7763  0.3871
29193SOL    HW291622   1.560   4.145   0.543  0.0078 -0.4115 -2.1251
29194SOL     OW91623   1.776   5.843   4.284 -0.1691 -0.4359 -0.2914
29194SOL    HW191624   1.752   5.766   4.336  2.0304 -0.2101  1.1906
29194SOL    HW291625   1.872   5.845   4.287 -0.1150  1.4874 -1.6271
29195SOL     OW91626   1.158   7.402   1.245  0.1064  0.0788  0.1532
29195SOL    HW191627   1.250   7.422   1.264  0.0135  0.6057  0.0510
29195SOL    HW291628   1.131   7.344   1.316  0.1459  0.9652  0.9066
29196SOL     OW91629   0.605   3.356   6.776 -0.2064 -0.6879  0.4143
29196SOL    HW191630   0.510   3.343   6.772 -0.3393  0.5217 -0.7929
29196SOL    HW291631   0.618   3.418   6.848 -0.1114 -2.3733  1.9331
29197SOL     OW91632   9.172   2.036   2.480 -0.1275  0.5457 -0.1265
29197SOL    HW191633   9.082   2.066   2.488 -0.0242  0.5413  1.2440
29197SOL    HW291634   9.224   2.100   2.528  0.3026 -0.8140  1.3025
29198SOL     OW91635   8.518   3.460   7.713 -0.0251 -0.0624 -0.1318
29198SOL    HW191636   8.594   3.407   7.739 -0.5334  0.0120  1.6082
29198SOL    HW291637   8.540   3.549   7.741 -0.8002 -0.0715  0.5456
29199SOL     OW91638   0.222   2.564   8.020 -0.7477 -0.2604  0.2654
29199SOL    HW191639   0.206   2.539   8.111 -0.1491 -0.2016  0.3948
29199SOL    HW291640   0.168   2.641   8.006 -0.3222  0.1449  0.7910
29200SOL     OW91641   5.282   9.137   5.441 -0.2668  0.0696 -0.1034
29200SOL    HW191642   5.327   9.188   5.373  0.0624 -0.7390 -0.5203
29200SOL    HW291643   5.270   9.050   5.401  0.7669 -0.7176  1.1966
29201SOL     OW91644   9.002   4.070   6.598  0.1200  0.1153  1.0709
29201SOL    HW191645   9.030   4.018   6.674 -0.3878 -0.4317  0.8927
29201SOL    HW291646   9.033   4.158   6.617  1.9710 -0.4520  0.8978
29202SOL     OW91647   7.013   2.515   9.271  0.2118  0.4313 -0.2553
29202SOL    HW191648   7.040   2.601   9.240 -0.0394  0.3164 -0.7982
29202SOL    HW291649   7.094   2.474   9.302  0.0952  1.4812  1.5576
29203SOL     OW91650   1.516   4.889   7.561 -0.2125 -0.0627  0.2199
29203SOL    HW191651   1.560   4.810   7.593  2.4516  0.4440 -1.8629
29203SOL    HW291652   1.455   4.912   7.631 -2.0563 -4.5948  0.4085
29204SOL     OW91653   8.635   4.790   5.617 -0.3696  0.3955 -0.1980
29204SOL    HW191654   8.695   4.864   5.609  1.2647 -0.7479  0.8647
29204SOL    HW291655   8.638   4.766   5.709 -0.0817 -1.5875 -0.6614
29205SOL     OW91656   2.715   3.432   4.982  0.6188  0.0176  0.1529
29205SOL    HW191657   2.792   3.394   4.940  0.3537 -1.4644  0.9133
29205SOL    HW291658   2.749   3.503   5.036  1.4110 -0.3595  0.1684
29206SOL     OW91659   3.810   0.196   2.946  1.0919  0.6957 -0.0745
29206SOL    HW191660   3.895   0.193   2.903 -0.8118 -0.7135 -4.3132
29206SOL    HW291661   3.780   0.105   2.947 -0.4819  1.1684  1.1550
29207SOL     OW91662   5.981   1.056   6.883 -0.0417  0.3481 -0.1482
29207SOL    HW191663   5.985   1.019   6.795 -0.4317 -1.4115  0.5334
29207SOL    HW291664   5.908   1.010   6.925  0.9797  0.1455  1.5104
29208SOL     OW91665   3.936   0.994   2.248 -0.3693 -0.1509  0.1895
29208SOL    HW191666   3.858   0.992   2.304 -0.7542  0.2379 -0.3319
29208SOL    HW291667   3.906   0.962   2.163 -0.0882  0.4989 -0.1633
29209SOL     OW91668   1.457   9.280   9.154 -0.2190  0.6041 -0.2855
29209SOL    HW191669   1.499   9.275   9.068  0.2272  1.5036 -0.1409
29209SOL    HW291670   1.366   9.303   9.135 -0.4005 -0.3030 -0.5565
29210SOL     OW91671   1.231   2.843   7.837 -0.1600  0.0876 -0.5624
29210SOL    HW191672   1.265   2.876   7.920 -0.5879 -2.7110  0.8477
29210SOL    HW291673   1.275   2.895   7.770  3.2633 -0.1849  1.2917
29211SOL     OW91674  10.163   0.021   0.211 -0.5414 -0.0144  0.5721
29211SOL    HW191675  10.221   0.041   0.284  0.1371 -0.2547  0.1179
29211SOL    HW291676  10.119   0.104   0.192  1.8836  1.0405 -0.9946
29212SOL     OW91677   7.416   3.556   9.694  0.1159 -0.4560  0.0554
29212SOL    HW191678   7.390   3.600   9.614 -2.3216  0.7551  1.4176
29212SOL    HW291679   7.373   3.604   9.764  0.7169 -2.5265  1.9850
29213SOL     OW91680   0.279   2.630   4.774 -0.2354  0.2504 -0.5212
29213SOL    HW191681   0.305   2.612   4.865 -0.4929  2.0085 -0.0692
29213SOL    HW291682   0.190   2.596   4.767 -0.1701  0.0003 -0.1581
29214SOL     OW91683   0.847   5.979   0.347 -0.2447  0.1462 -0.2091
29214SOL    HW191684   0.805   5.926   0.414 -1.5573  1.1308 -0.2037
29214SOL    HW291685   0.776   6.034   0.313  0.6949  0.6399 -1.4301
29215SOL     OW91686   7.076   2.447   2.216 -0.2860  0.7423 -0.0569
29215SOL    HW191687   7.051   2.458   2.124  0.8218  2.0607 -0.2309
29215SOL    HW291688   7.018   2.379   2.249 -0.5673  0.1013 -1.7908
29216SOL     OW91689   1.146   1.711   5.761  0.0139 -0.5235  0.8250
29216SOL    HW191690   1.187   1.632   5.724  0.7320  1.2174 -2.5297
29216SOL    HW291691   1.220   1.769   5.780 -0.5611 -0.2844  2.4561
29217SOL     OW91692   4.705   8.780   4.746 -0.0357  0.2220 -0.0704
29217SOL    HW191693   4.681   8.811   4.658 -0.4694  0.9768  0.2984
29217SOL    HW291694   4.621   8.765   4.790  0.1245  1.7324  0.8436
29218SOL     OW91695   4.734   0.792   0.163 -0.6859  0.2618 -0.3901
29218SOL    HW191696   4.640   0.783   0.146 -0.5275  0.2585 -1.3345
29218SOL    HW291697   4.741   0.796   0.258 -1.7485  1.4133 -0.3410
29219SOL     OW91698   9.472   3.793   6.834 -0.2296 -0.2387 -0.0318
29219SOL    HW191699   9.392   3.834   6.869  0.8189  1.2003  0.7637
29219SOL    HW291700   9.519   3.864   6.791  0.2195 -1.2615 -1.3211
29220SOL     OW91701   2.827   2.368   6.231 -0.3136  0.3581 -0.1030
29220SOL    HW191702   2.872   2.304   6.176 -2.4047  0.8284 -2.5249
29220SOL    HW291703   2.893   2.434   6.251  0.9379 -0.7001 -0.5943
29221SOL     OW91704   5.553   3.988   4.952  0.0409 -0.1446  0.6532
29221SOL    HW191705   5.573   3.949   4.867  1.3891  1.1307  0.3415
29221SOL    HW291706   5.467   4.028   4.941  0.3246  0.2524 -0.2118
29222SOL     OW91707   8.174   3.898   3.197 -0.3949  0.7818 -0.0064
29222SOL    HW191708   8.137   3.867   3.114 -1.2476  1.0199  0.2843
29222SOL    HW291709   8.148   3.990   3.202  1.0415  1.2362 -0.2446
29223SOL     OW91710   3.759   2.644   2.017  0.0826  0.5840  0.3309
29223SOL    HW191711   3.763   2.637   2.113 -0.8809  1.8526  0.4771
29223SOL    HW291712   3.722   2.560   1.989 -2.1862  1.1885  1.2952
29224SOL     OW91713   3.363   5.630   0.530 -0.0168 -0.3718  0.1895
29224SOL    HW191714   3.347   5.676   0.613 -1.6165 -1.0124  0.2805
29224SOL    HW291715   3.312   5.679   0.465  0.0923 -0.6837 -0.1366
29225SOL     OW91716  10.023   5.193  10.144  0.5821  0.1339  0.6291
29225SOL    HW191717  10.092   5.196  10.209 -0.3214  1.1968  1.5930
29225SOL    HW291718   9.951   5.243  10.183 -0.7324 -0.9200 -0.3269
29226SOL     OW91719   5.478   5.285   4.891 -0.1925 -0.4837 -0.0508
29226SOL    HW191720   5.549   5.343   4.863 -1.0520 -0.3382 -2.0443
29226SOL    HW291721   5.517   5.197   4.890  0.4044 -0.2355  0.5244
29227SOL     OW91722   3.230   5.158   8.567  0.2230  0.2761 -0.0444
29227SOL    HW191723   3.223   5.231   8.505  0.8616 -0.4480 -1.0178
29227SOL    HW291724   3.140   5.129   8.581  0.0334  0.7390 -0.2797
29228SOL     OW91725   2.634   4.074   1.587 -0.3988  0.3807  0.3232
29228SOL    HW191726   2.631   4.031   1.672  0.1879 -0.1243  0.0923
29228SOL    HW291727   2.637   4.167   1.607  2.1250  0.2350  0.9395
29229SOL     OW91728   3.589   1.816   0.150 -0.0788  0.0281  0.3035
29229SOL    HW191729   3.673   1.788   0.114 -0.8434  0.5406 -2.1149
29229SOL    HW291730   3.594   1.911   0.152 -0.6060  0.0665  0.0403
29230SOL     OW91731   6.466   0.712   2.199  0.2071  0.0404  0.5646
29230SOL    HW191732   6.466   0.703   2.295  3.2526 -0.4248  0.6174
29230SOL    HW291733   6.514   0.635   2.168 -0.4035  0.3768 -1.3465
29231SOL     OW91734   0.934   2.601  10.095  0.5866  0.2697  0.1251
29231SOL    HW191735   0.968   2.568  10.178 -0.9338 -0.0775  0.6428
29231SOL    HW291736   0.914   2.693  10.112 -0.6958 -0.0522  0.4960
29232SOL     OW91737   0.295   9.962   3.642 -0.0480 -0.2031  0.5095
29232SOL    HW191738   0.389   9.979   3.647  0.2620 -1.6328  0.0178
29232SOL    HW291739   0.278   9.948   3.549 -1.2182  2.3468  0.2709
29233SOL     OW91740   4.345   8.411   0.802  0.2812  0.2383 -0.2035
29233SOL    HW191741   4.413   8.443   0.743 -0.4086  1.4412 -0.3786
29233SOL    HW291742   4.268   8.400   0.747  0.4128 -1.4962 -0.0815
29234SOL     OW91743   7.653   4.478   0.711 -0.2721  0.5570 -0.8445
29234SOL    HW191744   7.607   4.559   0.689 -1.9573 -0.2384 -0.4171
29234SOL    HW291745   7.634   4.465   0.804  2.3382  1.1055 -0.1636
29235SOL     OW91746   1.853   5.105   0.549  0.2196  0.2812 -0.0062
29235SOL    HW191747   1.846   5.058   0.466 -0.0390  2.4159 -1.2642
29235SOL    HW291748   1.782   5.169   0.547 -0.1307  0.0375  2.1331
29236SOL     OW91749   6.773   8.224   3.219  0.1387  0.1673  0.3514
29236SOL    HW191750   6.685   8.206   3.250  0.2604 -0.5211  0.3092
29236SOL    HW291751   6.804   8.141   3.183 -0.1353  0.9983 -1.9599
29237SOL     OW91752   3.279   6.073   0.878 -0.0379  0.0941  0.1260
29237SOL    HW191753   3.223   6.148   0.897  0.1255  0.1740  0.2970
29237SOL    HW291754   3.330   6.061   0.957  2.6943  2.1853 -1.1594
29238SOL     OW91755   3.779   7.107   0.691  0.3050 -0.3620  0.3442
29238SOL    HW191756   3.715   7.125   0.622  1.8998 -1.3032 -1.4755
29238SOL    HW291757   3.818   7.192   0.709 -1.0524  0.1349  1.1187
29239SOL     OW91758   3.659   8.042   9.090 -0.0883  0.4268 -0.1848
29239SOL    HW191759   3.735   8.003   9.132 -0.2713 -1.1892 -1.2793
29239SOL    HW291760   3.654   8.131   9.127  0.5577 -0.4218  2.1034
29240SOL     OW91761   3.069   1.813   4.708 -0.3859 -0.2669  0.0630
29240SOL    HW191762   3.135   1.855   4.652  0.6417 -1.4192  0.3810
29240SOL    HW291763   2.995   1.875   4.708  0.6428  1.0119 -0.3744
29241SOL     OW91764   2.889   1.253   0.119  0.2272  0.2812 -0.4424
29241SOL    HW191765   2.802   1.281   0.147  0.5111  0.4019  0.3416
29241SOL    HW291766   2.910   1.179   0.176  0.8834  0.6332 -0.2170
29242SOL     OW91767   9.614   2.313   7.566  0.2522  0.0378 -0.1150
29242SOL    HW191768   9.521   2.301   7.548 -0.5622  2.2498  2.1254
29242SOL    HW291769   9.634   2.247   7.632 -0.0047  0.2856  0.2104
29243SOL     OW91770   8.287   5.548  10.289 -0.2499 -0.0449  0.2105
29243SOL    HW191771   8.377   5.553  10.257 -0.1220 -0.2050  0.5444
29243SOL    HW291772   8.295   5.539  10.384 -0.6253  0.3143  0.2797
29244SOL     OW91773   8.561   0.435   8.895  0.0237  0.2884 -0.3068
29244SOL    HW191774   8.576   0.501   8.963 -2.9447  1.4864 -0.6825
29244SOL    HW291775   8.625   0.455   8.827 -1.1229  3.2117 -0.6561
29245SOL     OW91776   7.660   4.234   8.466  0.4584  0.9188  0.1244
29245SOL    HW191777   7.572   4.206   8.440  1.0228 -0.2831 -0.5433
29245SOL    HW291778   7.705   4.153   8.491  1.6065  1.4130 -0.2624
29246SOL     OW91779   0.562   9.710   5.079 -0.8032  0.3312 -0.1883
29246SOL    HW191780   0.518   9.723   4.995 -0.3309  0.7115 -0.3790
29246SOL    HW291781   0.564   9.796   5.119 -2.7894 -0.1588  1.1193
29247SOL     OW91782   7.084   0.500   8.876 -0.1260 -0.0157 -0.0614
29247SOL    HW191783   7.065   0.452   8.957  3.2927 -1.0424  0.2559
29247SOL    HW291784   7.056   0.590   8.895 -0.8772 -0.5601  1.6395
29248SOL     OW91785   0.729   5.285  10.015  0.0190  0.2710  0.0523
29248SOL    HW191786   0.791   5.271  10.086  1.4983  0.2749 -1.1713
29248SOL    HW291787   0.729   5.380  10.001  0.9325  0.1599 -0.9089
29249SOL     OW91788   0.402   4.844   1.335 -0.0373  0.5824  0.1771
29249SOL    HW191789   0.481   4.836   1.282 -0.5233  0.7421 -0.5752
29249SOL    HW291790   0.405   4.934   1.369  0.9076  0.1029  1.4628
29250SOL     OW91791   3.635   7.692   0.512 -0.0844  0.1109 -0.2059
29250SOL    HW191792   3.544   7.708   0.538 -0.2689  0.4683 -1.0277
29250SOL    HW291793   3.661   7.771   0.466  0.8922  0.3029  0.6539
29251SOL     OW91794   9.581  10.282  10.220 -0.2246 -0.0133  0.1066
29251SOL    HW191795   9.505  10.250  10.268  0.3214  0.4904  1.3596
29251SOL    HW291796   9.574  10.242  10.133 -1.8970  0.0093  0.1967
29252SOL     OW91797   0.069   1.268   5.902  0.1926 -0.4456  0.3174
29252SOL    HW191798   0.051   1.208   5.830 -0.5577 -0.3919  0.4581
29252SOL    HW291799   0.108   1.213   5.971  1.4778 -0.3959 -0.3356
29253SOL     OW91800   8.218   4.752   7.009 -0.3431  0.4025 -0.2551
29253SOL    HW191801   8.167   4.676   6.981 -0.3204  0.9013 -1.7471
29253SOL    HW291802   8.293   4.716   7.056 -1.2026 -0.4117  0.5295
29254SOL     OW91803   0.401   7.558   3.402  0.0993  0.2416  0.1296
29254SOL    HW191804   0.328   7.608   3.438  1.2258  2.0706  0.0070
29254SOL    HW291805   0.421   7.602   3.319  0.4149 -1.1186 -0.5283
29255SOL     OW91806   7.648   7.692   3.484  0.3136  0.1502 -0.4339
29255SOL    HW191807   7.577   7.711   3.423  1.0812  3.1403 -0.5632
29255SOL    HW291808   7.702   7.627   3.438 -0.6340  0.2212 -1.7055
29256SOL     OW91809   1.818   2.656   7.825 -0.0048  0.9259  0.4053
29256SOL    HW191810   1.884   2.628   7.888  0.8424  0.6673 -0.5682
29256SOL    HW291811   1.808   2.750   7.841 -0.3707  0.7270  1.4252
29257SOL     OW91812   0.732   0.679   3.383 -0.0044 -0.0876  0.4631
29257SOL    HW191813   0.657   0.619   3.385 -0.6271  0.6773  0.8014
29257SOL    HW291814   0.713   0.737   3.308  0.3066  0.0366  0.4813
29258SOL     OW91815   3.337   6.794   6.302  0.0479 -0.6373 -0.5944
29258SOL    HW191816   3.399   6.770   6.371  0.2627  0.4257 -0.3923
29258SOL    HW291817   3.312   6.884   6.323  0.5726 -0.0799 -2.2334
29259SOL     OW91818   8.210   2.027   4.377 -0.5243  0.8200 -0.3000
29259SOL    HW191819   8.137   1.986   4.330 -0.2737  0.6338 -0.5270
29259SOL    HW291820   8.288   1.983   4.344 -0.4851 -1.1245  2.0584
29260SOL     OW91821   3.140   1.460   5.491  0.2526  0.1593 -0.6283
29260SOL    HW191822   3.099   1.507   5.419  1.7546 -1.5107 -2.7077
29260SOL    HW291823   3.202   1.521   5.529 -1.0183  1.2712 -0.2620
29261SOL     OW91824   4.525   6.449   1.650 -0.3438 -0.4069 -0.0002
29261SOL    HW191825   4.565   6.532   1.625 -0.5061 -0.5211 -0.6399
29261SOL    HW291826   4.504   6.406   1.568 -0.0140 -1.2056  0.3221
29262SOL     OW91827   3.742   8.326   1.217 -0.0449 -0.1773  0.4472
29262SOL    HW191828   3.652   8.356   1.228  0.3863  1.0458  0.7705
29262SOL    HW291829   3.772   8.366   1.136  0.1524 -0.7423  0.2349
29263SOL     OW91830   7.221   2.579   6.230 -0.0051 -0.2937  0.2290
29263SOL    HW191831   7.143   2.580   6.286 -1.5079 -2.6282 -1.6555
29263SOL    HW291832   7.210   2.653   6.172 -0.1010  0.1908  0.8516
29264SOL     OW91833   7.983   8.757   5.570 -0.0300 -0.6387  0.7000
29264SOL    HW191834   7.897   8.728   5.600 -1.4184  1.6019 -0.7346
29264SOL    HW291835   8.032   8.774   5.650 -2.0247  0.8739  1.7011
29265SOL     OW91836   2.800   4.869   3.654 -0.1896  0.2207  0.1885
29265SOL    HW191837   2.732   4.896   3.716 -0.7764  1.7249 -1.0237
29265SOL    HW291838   2.804   4.774   3.662 -2.3544  0.0869  0.4265
29266SOL     OW91839   5.655   4.958   2.116 -0.1231  0.3212  0.3287
29266SOL    HW191840   5.629   4.980   2.206 -0.3908 -1.1150  0.6438
29266SOL    HW291841   5.750   4.967   2.115 -0.0009 -0.6660  1.0915
29267SOL     OW91842   7.219   0.546   2.058 -0.3679  0.1161  0.2699
29267SOL    HW191843   7.285   0.478   2.072  0.5432  1.2608  1.7760
29267SOL    HW291844   7.139   0.509   2.096 -0.0170 -0.3537  0.5703
29268SOL     OW91845   1.847   2.375   1.111  0.6396 -0.3332 -0.2435
29268SOL    HW191846   1.928   2.345   1.070  0.9242 -1.0558  0.8117
29268SOL    HW291847   1.869   2.462   1.145  1.5721 -1.2048  1.5752
29269SOL     OW91848   7.475   6.577   5.239  0.6396  0.6515  0.3778
29269SOL    HW191849   7.459   6.603   5.148  1.3407  0.1045  0.0837
29269SOL    HW291850   7.511   6.655   5.280 -2.0509  1.7246  0.9024
29270SOL     OW91851   6.236   8.436   9.327 -0.0917  0.1147  0.5244
29270SOL    HW191852   6.204   8.500   9.392  0.9846  0.2449  0.9515
29270SOL    HW291853   6.208   8.351   9.362 -3.0184  0.3733 -0.8887
29271SOL     OW91854   9.009   0.347   5.209  0.4459 -0.3299  0.2648
29271SOL    HW191855   9.089   0.358   5.158 -0.3781  0.3737 -0.9155
29271SOL    HW291856   8.938   0.353   5.145 -0.6519  1.0123  1.5295
29272SOL     OW91857   7.740   6.480   2.874  0.0874  0.5293 -0.0597
29272SOL    HW191858   7.662   6.426   2.873 -0.4875  1.3443 -0.5765
29272SOL    HW291859   7.786   6.460   2.793  1.5789 -1.5319  1.1816
29273SOL     OW91860   7.889   8.226   1.761 -0.3489 -0.5342  0.1057
29273SOL    HW191861   7.917   8.314   1.783  0.4354 -0.8355  0.3634
29273SOL    HW291862   7.807   8.237   1.714 -0.6488  0.2811  0.8076
29274SOL     OW91863   2.160   1.306   7.199  0.3038  0.0744  0.0975
29274SOL    HW191864   2.161   1.367   7.273 -1.6709  0.1699  0.0856
29274SOL    HW291865   2.078   1.324   7.154  0.6925 -1.1441 -1.1676
29275SOL     OW91866   2.302   8.590   7.877 -0.4368  0.3640 -0.5068
29275SOL    HW191867   2.210   8.597   7.902 -0.2873 -0.1166  0.1948
29275SOL    HW291868   2.339   8.529   7.940  0.2453  0.1484 -1.1106
29276SOL     OW91869   0.717   5.187   9.091  0.0139 -0.5828  0.0906
29276SOL    HW191870   0.625   5.187   9.117  0.3441  0.1295  1.3039
29276SOL    HW291871   0.717   5.146   9.004 -1.8317  2.0516 -1.2860
29277SOL     OW91872   3.539   6.508   3.249  0.5332 -0.4838  0.5298
29277SOL    HW191873   3.590   6.552   3.181  1.7403 -1.2163  0.9299
29277SOL    HW291874   3.462   6.476   3.204 -0.0520  1.4167  0.0865
29278SOL     OW91875   8.493   0.241   9.095  0.0972  0.0850  0.2748
29278SOL    HW191876   8.563   0.178   9.110  0.8152  1.1866  1.9032
29278SOL    HW291877   8.519   0.287   9.015  0.3902 -0.5949 -0.0281
29279SOL     OW91878   5.172   0.183   9.314 -0.4411  0.2933  0.4027
29279SOL    HW191879   5.143   0.121   9.381 -1.4520 -0.2148 -0.4943
29279SOL    HW291880   5.238   0.236   9.359  1.2000 -2.0368  0.9373
29280SOL     OW91881   9.408   8.603   3.035 -0.4167 -0.5688 -0.1287
29280SOL    HW191882   9.317   8.620   3.059 -0.4532  3.4640 -2.1415
29280SOL    HW291883   9.459   8.660   3.093  0.7338 -1.8234  0.1247
29281SOL     OW91884   1.407   3.810   8.269 -0.4925  0.5751 -0.2053
29281SOL    HW191885   1.351   3.823   8.193 -0.9380  0.6276  0.1252
29281SOL    HW291886   1.478   3.754   8.238 -1.8778 -1.3404 -0.1256
29282SOL     OW91887   1.209   6.673   6.404  0.2625 -0.0866  0.1155
29282SOL    HW191888   1.173   6.584   6.407 -0.5927  0.2599  0.3010
29282SOL    HW291889   1.211   6.701   6.496  0.2858  0.1858  0.0304
29283SOL     OW91890   7.661   6.865   2.756  0.6871 -0.2009  0.6692
29283SOL    HW191891   7.753   6.887   2.768  1.3820 -2.7914  0.6484
29283SOL    HW291892   7.659   6.770   2.752 -2.0635 -0.2512  1.0950
29284SOL     OW91893  10.203   0.192   2.018  0.0875 -0.2393 -0.2655
29284SOL    HW191894  10.263   0.265   2.038 -0.9837  0.1799  1.7465
29284SOL    HW291895  10.260   0.121   1.991  1.7141 -0.2845  2.8546
29285SOL     OW91896   3.988   3.645   7.321 -0.3684  0.1254 -0.1155
29285SOL    HW191897   4.023   3.703   7.255  2.7005 -2.1378 -0.7326
29285SOL    HW291898   4.011   3.686   7.405 -0.2372  0.8526 -0.5081
29286SOL     OW91899   7.764   7.756   7.370 -0.2455  0.0239 -0.4618
29286SOL    HW191900   7.701   7.827   7.363 -0.0363  0.2011 -0.5705
29286SOL    HW291901   7.827   7.787   7.435 -0.2874 -0.1652 -0.3294
29287SOL     OW91902   6.231   7.216   0.221 -0.5788 -0.5025  0.1257
29287SOL    HW191903   6.212   7.157   0.148  0.8059 -0.1943 -0.5264
29287SOL    HW291904   6.279   7.161   0.283 -0.7481 -0.4788  0.2767
29288SOL     OW91905   7.784   6.027   0.069 -0.1575 -0.3163 -0.6748
29288SOL    HW191906   7.718   6.075   0.019 -0.3034  0.3683  0.1531
29288SOL    HW291907   7.772   5.936   0.042 -1.5728 -0.2354 -0.4278
29289SOL     OW91908   8.183   6.455  10.046  0.3760 -0.1597 -0.4483
29289SOL    HW191909   8.118   6.390  10.073  1.9822 -0.9159  2.0125
29289SOL    HW291910   8.153   6.536  10.086  0.3458 -0.2681 -0.2461
29290SOL     OW91911   4.517   1.570   9.477 -0.0296 -0.1382 -0.0719
29290SOL    HW191912   4.479   1.550   9.562  0.8252 -2.9367 -0.2478
29290SOL    HW291913   4.442   1.574   9.417 -0.6700  2.2121  0.7816
29291SOL     OW91914   4.785   8.269   4.540 -0.2638  0.3538  0.3122
29291SOL    HW191915   4.865   8.221   4.563  0.5465  1.6491  0.3148
29291SOL    HW291916   4.769   8.326   4.616 -1.8496 -0.6763  0.7948
29292SOL     OW91917   3.744   2.597   2.289  0.7674  0.1550 -0.0636
29292SOL    HW191918   3.653   2.568   2.283  0.8789 -0.4911  1.0480
29292SOL    HW291919   3.795   2.517   2.299  1.2011  0.6062  1.8069
29293SOL     OW91920   2.752   5.051   5.737 -0.0942  0.4285  0.1855
29293SOL    HW191921   2.726   5.051   5.645 -0.3452 -0.1622  0.2576
29293SOL    HW291922   2.727   4.965   5.769  0.0975  0.5943  0.7803
29294SOL     OW91923   7.214   2.837   3.320 -0.0120 -0.7012 -0.0055
29294SOL    HW191924   7.302   2.825   3.356  0.7215 -3.8594 -2.4401
29294SOL    HW291925   7.159   2.852   3.397  2.5035  0.8795  1.6436
29295SOL     OW91926   2.009   1.457   8.160  0.3523 -0.0337  0.3657
29295SOL    HW191927   1.973   1.514   8.228 -1.7021 -0.1387 -0.5745
29295SOL    HW291928   2.008   1.509   8.080 -2.6814 -1.6214 -0.7833
29296SOL     OW91929   1.119   5.496   9.758  0.0443 -0.7083 -0.4068
29296SOL    HW191930   1.031   5.521   9.729 -0.1294 -0.8925 -0.0441
29296SOL    HW291931   1.156   5.449   9.684  0.4761  0.8159 -1.2121
29297SOL     OW91932   4.854   7.791   6.293 -0.1702 -0.4241  0.4112
29297SOL    HW191933   4.899   7.788   6.209  0.4481  0.0158  0.7211
29297SOL    HW291934   4.787   7.722   6.287  0.8870 -1.4597  0.1558
29298SOL     OW91935   6.433   5.841   3.217 -0.1475  0.3585 -0.1248
29298SOL    HW191936   6.418   5.777   3.147 -1.3665  0.7364 -0.2320
29298SOL    HW291937   6.449   5.924   3.171  1.2562  0.1914  0.0176
29299SOL     OW91938   1.930   9.286   3.112 -0.3856 -0.0032  0.4450
29299SOL    HW191939   1.860   9.263   3.172 -0.2382 -0.2244  0.5314
29299SOL    HW291940   1.978   9.356   3.156 -1.5765  1.3618 -0.3473
29300SOL     OW91941   4.393   0.112   4.517  0.8278 -0.2631  0.4610
29300SOL    HW191942   4.411   0.142   4.606 -3.9676  0.9021  1.3186
29300SOL    HW291943   4.338   0.034   4.529 -1.4786  0.9720 -1.3234
29301SOL     OW91944   1.570   8.265   1.815 -0.0570  0.1971 -0.1276
29301SOL    HW191945   1.586   8.287   1.723 -1.4171  0.0157 -0.4183
29301SOL    HW291946   1.584   8.347   1.862  0.2648  0.3807 -0.5342
29302SOL     OW91947   2.897   2.145   5.715 -0.2377 -0.1292 -0.5446
29302SOL    HW191948   2.948   2.096   5.650  0.4653  1.6264 -1.3854
29302SOL    HW291949   2.916   2.237   5.696 -0.0854  0.4655  2.1033
29303SOL     OW91950   4.490   3.215   3.885  0.6111  0.4017  0.4516
29303SOL    HW191951   4.506   3.282   3.951  0.4613 -0.7461  1.6941
29303SOL    HW291952   4.577   3.178   3.867  1.0167  2.1856 -1.7033
29304SOL     OW91953   7.369   6.074   0.812 -0.3001  0.2431 -0.3997
29304SOL    HW191954   7.420   6.042   0.738  0.6679 -2.2104  1.2135
29304SOL    HW291955   7.423   6.142   0.851  1.0344 -1.1365  0.2659
29305SOL     OW91956   2.806   8.343   2.559  0.0333  0.2889  0.4559
29305SOL    HW191957   2.772   8.354   2.648  0.7458  0.5403  0.7010
29305SOL    HW291958   2.782   8.424   2.514 -1.0836 -0.1894  0.1588
29306SOL     OW91959   5.173   0.633   1.455 -0.1482  0.2640  0.5951
29306SOL    HW191960   5.233   0.622   1.529  0.1692  0.4727  0.3706
29306SOL    HW291961   5.185   0.555   1.402  0.8410  0.8518 -0.0948
29307SOL     OW91962   2.001   5.927   4.743  0.5524  0.2317  0.2293
29307SOL    HW191963   2.007   5.833   4.759 -0.9099  0.1770  0.5984
29307SOL    HW291964   2.036   5.939   4.655  1.0613 -0.6061  0.3062
29308SOL     OW91965   6.709   8.957   6.080 -0.3910  0.5089 -0.0700
29308SOL    HW191966   6.677   8.976   6.168 -1.8456 -0.4675 -0.3547
29308SOL    HW291967   6.684   9.034   6.029 -2.4208 -0.2240 -0.2873
29309SOL     OW91968   0.441   3.370   9.386  0.0634 -0.2658 -0.0148
29309SOL    HW191969   0.453   3.463   9.404  2.2251 -0.2030 -1.3814
29309SOL    HW291970   0.387   3.367   9.307  1.0687 -0.0786 -0.7333
29310SOL     OW91971   2.920   9.631   4.379  0.0822 -0.4613 -0.0954
29310SOL    HW191972   3.004   9.668   4.406 -0.4394 -0.4166  1.5998
29310SOL    HW291973   2.883   9.595   4.460 -1.6110 -0.3117 -0.7647
29311SOL     OW91974   8.263   5.703   1.559 -0.3576  0.7507  0.4617
29311SOL    HW191975   8.244   5.712   1.466  0.7632  0.5685  0.2036
29311SOL    HW291976   8.188   5.654   1.594 -0.3701  0.0420 -0.5135
29312SOL     OW91977   6.470   8.038   8.019 -0.8302 -0.3313 -0.3055
29312SOL    HW191978   6.460   8.127   8.054  0.8185 -0.4506  0.5382
29312SOL    HW291979   6.523   8.049   7.940  1.5385 -0.7780  1.1536
29313SOL     OW91980   1.987   6.008   5.865  0.1033 -0.3408 -0.4771
29313SOL    HW191981   1.985   6.022   5.770 -1.9569  0.3068 -0.3861
29313SOL    HW291982   1.966   5.915   5.876 -2.3370  0.1452 -0.6177
29314SOL     OW91983   4.665   9.081   9.850 -0.4646  0.0604 -0.3464
29314SOL    HW191984   4.660   8.986   9.865  1.6547  0.1383  1.4359
29314SOL    HW291985   4.681   9.090   9.756  0.6006 -1.4525 -0.3497
29315SOL     OW91986   3.057   8.612   6.211 -0.2103 -0.2688  0.1692
29315SOL    HW191987   3.111   8.687   6.186 -0.2079 -0.5520 -0.7033
29315SOL    HW291988   3.053   8.558   6.132 -1.5385 -0.3885  0.3078
29316SOL     OW91989   6.243   6.017   3.084  0.8128  0.0802 -0.2278
29316SOL    HW191990   6.147   6.021   3.077  0.7744  0.0459  0.2247
29316SOL    HW291991   6.273   6.004   2.994  0.4645  1.3803 -0.5616
29317SOL     OW91992   5.402   7.050   6.340  0.4557  0.0632  0.2958
29317SOL    HW191993   5.469   6.982   6.356 -0.1246 -0.4150  0.7370
29317SOL    HW291994   5.387   7.046   6.245  1.1277  0.2501  0.1737
29318SOL     OW91995   2.549   8.918   6.085  0.2126 -0.3531  0.0729
29318SOL    HW191996   2.547   8.898   6.179  0.7742 -1.8359 -0.2068
29318SOL    HW291997   2.487   8.990   6.075 -3.6047 -3.1777  0.9197
29319SOL     OW91998   8.930   6.399   9.735 -0.1514  0.4859 -0.3500
29319SOL    HW191999   9.006   6.341   9.741 -0.5204 -0.0012 -0.3833
29319SOL    HW292000   8.863   6.356   9.788 -0.0893  1.4184  0.5090
29320SOL     OW92001   8.516   1.211   3.232 -0.0940  0.0272 -0.4861
29320SOL    HW192002   8.483   1.284   3.180 -0.0658  0.2766 -0.1591
29320SOL    HW292003   8.609   1.205   3.210  0.0692  0.5589  0.0224
29321SOL     OW92004   0.676   9.703  10.279 -0.8582 -0.5870  0.8462
29321SOL    HW192005   0.721   9.711  10.195 -1.6300 -0.1547  0.4554
29321SOL    HW292006   0.653   9.610  10.285  0.2280 -0.8488  1.1408
29322SOL     OW92007   0.280   5.110   8.881 -0.5179 -0.7865 -0.0495
29322SOL    HW192008   0.354   5.108   8.820  0.3535  2.2063  0.7392
29322SOL    HW292009   0.203   5.110   8.824  0.2738  2.1657 -1.3097
29323SOL     OW92010   7.281   0.735   7.973  0.0542 -0.5550  0.7327
29323SOL    HW192011   7.361   0.785   7.955 -0.4190 -0.0978 -0.1693
29323SOL    HW292012   7.304   0.677   8.045  1.7033 -1.6391 -0.5905
29324SOL     OW92013   6.588   5.138   6.249  0.3939  0.4285 -0.1252
29324SOL    HW192014   6.555   5.221   6.213  0.8697  0.8403  0.3543
29324SOL    HW292015   6.683   5.148   6.247  0.4664  1.0088  2.3619
29325SOL     OW92016   5.684   2.303   9.932 -0.2258  0.5198 -0.0073
29325SOL    HW192017   5.666   2.264   9.846 -0.1423  0.1344  0.1478
29325SOL    HW292018   5.697   2.396   9.913 -2.3205  0.8368 -0.1310
29326SOL     OW92019   4.554   7.601   6.081  0.1122 -0.2586  0.0417
29326SOL    HW192020   4.520   7.528   6.028  1.1660 -0.2194 -0.7202
29326SOL    HW292021   4.548   7.677   6.024  0.4915 -0.0572  0.2679
29327SOL     OW92022   8.544   3.495   8.113  0.5379 -0.0311  0.3641
29327SOL    HW192023   8.540   3.545   8.195  0.3256  0.8218 -0.1501
29327SOL    HW292024   8.469   3.526   8.063  1.0877  0.0130 -0.4560
29328SOL     OW92025   4.504   7.356   0.457 -0.2889 -0.0044 -0.0700
29328SOL    HW192026   4.453   7.317   0.387  0.0965  0.9134 -0.8939
29328SOL    HW292027   4.488   7.450   0.449  1.3222  0.2897 -0.2087
29329SOL     OW92028   4.056   0.076   1.976 -0.7433 -0.1926  0.7767
29329SOL    HW192029   4.126   0.092   2.040  0.0755  0.6858 -0.2866
29329SOL    HW292030   4.030  -0.015   1.991  1.6699 -1.0431  0.2524
29330SOL     OW92031   1.035   0.942   3.245  0.2825  0.0345  0.7122
29330SOL    HW192032   1.030   0.904   3.333  0.7469  0.5651  0.9763
29330SOL    HW292033   0.972   1.015   3.247  1.2291  0.8674  1.0377
29331SOL     OW92034   7.105   3.315   2.842  0.0462 -0.3674 -0.2900
29331SOL    HW192035   7.175   3.314   2.777  1.1525  0.8436  0.8160
29331SOL    HW292036   7.026   3.331   2.792  1.0593  2.0890 -1.2545
29332SOL     OW92037   0.962  10.224   8.903 -0.1833 -0.0623  0.4186
29332SOL    HW192038   0.986  10.316   8.892 -1.1249  0.1452 -0.0096
29332SOL    HW292039   1.033  10.176   8.860 -0.3660  0.5165 -0.5820
29333SOL     OW92040   2.569   0.206   2.678  0.2571  0.0123  0.0016
29333SOL    HW192041   2.643   0.156   2.713  1.9237  1.2780 -1.4986
29333SOL    HW292042   2.541   0.156   2.601  0.7119  0.4042 -0.4273
29334SOL     OW92043   7.470   7.393   0.590 -0.4543  0.6966 -0.5659
29334SOL    HW192044   7.439   7.303   0.580  0.8342  0.0080  1.1151
29334SOL    HW292045   7.563   7.384   0.611 -0.6218  2.3001  1.1343
29335SOL     OW92046   6.938   6.692   1.573  0.4472 -0.7790  0.3125
29335SOL    HW192047   6.918   6.603   1.543 -0.7464  0.0411 -1.5092
29335SOL    HW292048   6.934   6.687   1.668 -1.3901 -2.3020  0.2048
29336SOL     OW92049   7.484   1.187   9.792  0.1721 -0.3469 -0.2179
29336SOL    HW192050   7.575   1.179   9.818  0.0535 -1.8759 -0.1624
29336SOL    HW292051   7.444   1.105   9.820 -1.6907  1.0536  1.5293
29337SOL     OW92052   9.381   7.892   1.848 -0.4164 -0.4381 -0.1909
29337SOL    HW192053   9.404   7.890   1.941  1.3701 -2.4478 -0.5930
29337SOL    HW292054   9.447   7.837   1.806 -1.2293  0.3404 -2.6637
29338SOL     OW92055   9.373   4.025   4.145  0.6505  0.3542  0.1567
29338SOL    HW192056   9.448   4.044   4.089  1.5246 -4.4479 -0.7231
29338SOL    HW292057   9.301   4.006   4.085 -0.1285  0.9168  0.8779
29339SOL     OW92058   2.975   8.310   7.601 -0.2937  0.5984 -0.3825
29339SOL    HW192059   2.924   8.356   7.668  0.1786  1.8974 -0.9005
29339SOL    HW292060   2.974   8.368   7.525 -0.8024 -0.8397 -1.5226
29340SOL     OW92061   8.380   5.764   4.017  0.1641 -0.4383 -0.2360
29340SOL    HW192062   8.390   5.809   4.102 -0.6492  0.2435 -0.4830
29340SOL    HW292063   8.384   5.835   3.953  1.5657 -1.0409 -0.8351
29341SOL     OW92064   2.675   3.980   1.850 -0.3297  0.2844 -0.1941
29341SOL    HW192065   2.627   3.961   1.930 -0.0312  1.2306  0.2270
29341SOL    HW292066   2.728   4.057   1.871 -0.2813  0.5821 -1.3094
29342SOL     OW92067   5.066   0.964   1.540 -0.3277 -0.3883  1.0848
29342SOL    HW192068   5.094   0.914   1.616  1.1184 -0.5229  0.4927
29342SOL    HW292069   5.137   0.953   1.477 -1.1376  0.3684  0.0128
29343SOL     OW92070   6.795   1.900   8.048  0.3334 -0.6762  0.1434
29343SOL    HW192071   6.746   1.945   7.979 -2.4929  0.8797  2.9486
29343SOL    HW292072   6.760   1.810   8.047 -2.2217  0.1990  1.5648
29344SOL     OW92073   1.918   1.340   3.817  0.7727  0.3869 -0.5589
29344SOL    HW192074   1.907   1.392   3.897  1.1684 -1.3729  0.7106
29344SOL    HW292075   2.007   1.359   3.788  0.9431  0.3499 -0.0643
29345SOL     OW92076   2.377   8.262   8.263  0.7967 -0.0626  0.8500
29345SOL    HW192077   2.384   8.188   8.203  1.7217 -0.3373  1.2887
29345SOL    HW292078   2.360   8.223   8.349 -0.2930  0.3159  0.8259
29346SOL     OW92079   9.151   9.531   4.224 -0.4552  0.1529 -0.0350
29346SOL    HW192080   9.076   9.591   4.229  0.8943  2.0012 -0.9236
29346SOL    HW292081   9.205   9.554   4.300  0.3766  0.5120 -0.7263
29347SOL     OW92082   6.949   1.704   3.279  0.4691 -0.0180 -0.0593
29347SOL    HW192083   6.997   1.644   3.222  0.2876 -0.2159 -0.0053
29347SOL    HW292084   7.004   1.783   3.282  0.0381  0.3531 -1.2558
29348SOL     OW92085   5.102   2.831   3.360  0.5656 -0.2296 -0.2309
29348SOL    HW192086   5.056   2.785   3.290  0.4512 -0.9975  0.3306
29348SOL    HW292087   5.171   2.771   3.388 -0.3186 -0.5861  1.3058
29349SOL     OW92088   6.844   8.512   6.982 -0.5402  0.3620 -0.4518
29349SOL    HW192089   6.937   8.518   7.001 -0.6949 -0.8207  0.8011
29349SOL    HW292090   6.803   8.566   7.050 -0.8581 -0.6277  0.1686
29350SOL     OW92091   2.817   3.067  10.036  0.1921  0.8957  0.0865
29350SOL    HW192092   2.854   3.155  10.036  0.3742  0.8259  0.9987
29350SOL    HW292093   2.805   3.045  10.128  2.5593 -1.0478  0.0471
29351SOL     OW92094   6.514   1.278   6.567 -0.4335  0.9425 -0.3917
29351SOL    HW192095   6.587   1.340   6.563 -1.3810  2.0558 -1.2504
29351SOL    HW292096   6.477   1.279   6.479 -0.1648 -1.2929 -0.5976
29352SOL     OW92097   4.191   7.510   6.666 -0.3025 -0.1621 -0.2352
29352SOL    HW192098   4.106   7.506   6.710  0.1000  0.7887  0.6508
29352SOL    HW292099   4.177   7.463   6.583 -1.4989 -0.6033  0.1941
29353SOL     OW92100   0.819   1.662   3.870  0.0529  0.2860 -0.1091
29353SOL    HW192101   0.902   1.651   3.916 -0.5230 -1.8801  0.5195
29353SOL    HW292102   0.764   1.711   3.931  0.2113 -0.0890  0.3388
29354SOL     OW92103   8.626   2.633   6.347  0.2450  0.0162 -0.1254
29354SOL    HW192104   8.615   2.679   6.264  0.0847 -1.3500 -0.8921
29354SOL    HW292105   8.541   2.592   6.364  0.4568 -0.2318  0.3778
29355SOL     OW92106   2.199   5.938   0.091 -0.4248 -0.0696  0.2421
29355SOL    HW192107   2.254   5.961   0.016 -1.7775 -0.2035 -0.8450
29355SOL    HW292108   2.234   5.989   0.164  1.5496 -0.6639 -0.2144
29356SOL     OW92109   1.897   4.063   1.114  0.1908 -0.1616  0.1718
29356SOL    HW192110   1.886   4.022   1.028 -0.0816  0.0782  0.0931
29356SOL    HW292111   1.944   3.997   1.166  1.1407  0.0296 -0.4136
29357SOL     OW92112   4.793   8.738   6.878  0.2700  0.4667 -0.3785
29357SOL    HW192113   4.846   8.760   6.954 -0.1135  1.4550 -0.3871
29357SOL    HW292114   4.792   8.642   6.876  0.8546  0.4408  0.4539
29358SOL     OW92115  10.132   9.908   9.868  0.3344 -0.5692  0.0633
29358SOL    HW192116  10.136   9.812   9.865 -1.0967 -0.6473 -0.1168
29358SOL    HW292117  10.062   9.928   9.930  0.4358  0.3626 -0.1030
29359SOL     OW92118   1.932   0.833   4.445 -0.2418 -0.6282 -0.7074
29359SOL    HW192119   1.987   0.833   4.523 -0.0136 -0.7601 -0.8659
29359SOL    HW292120   1.895   0.921   4.441  1.0788 -0.0847 -1.3758
29360SOL     OW92121   6.354   8.463   5.171 -0.5272  0.0745 -0.4548
29360SOL    HW192122   6.287   8.424   5.116 -0.9132 -0.9131  0.6597
29360SOL    HW292123   6.423   8.396   5.175  0.1133  0.7041 -0.8498
29361SOL     OW92124   1.616   0.337   4.844  0.2845 -0.6381  0.3086
29361SOL    HW192125   1.704   0.327   4.880 -0.3001 -2.5354  1.3572
29361SOL    HW292126   1.615   0.281   4.767 -0.1495 -1.0844  0.6296
29362SOL     OW92127   5.616   2.825   8.202  0.9723  0.2436 -0.2352
29362SOL    HW192128   5.582   2.736   8.194  0.6392  0.4931 -1.8841
29362SOL    HW292129   5.607   2.863   8.115 -0.6262  2.5387  0.8166
29363SOL     OW92130   4.239   4.928   0.533 -0.1769  0.3872  0.1623
29363SOL    HW192131   4.240   5.020   0.506 -0.1942  0.3363 -0.0085
29363SOL    HW292132   4.316   4.919   0.589 -0.3132  0.5677  0.3823
29364SOL     OW92133   3.435   3.032   4.316  0.3671 -0.5790  0.3381
29364SOL    HW192134   3.431   3.100   4.383  0.0878 -0.4349  0.1748
29364SOL    HW292135   3.484   2.961   4.358  1.8465  0.2300  0.0609
29365SOL     OW92136   9.934   7.495   8.494  0.2774 -0.2291 -0.2870
29365SOL    HW192137   9.885   7.439   8.554  0.1782  0.2935  0.1276
29365SOL    HW292138   9.880   7.498   8.415  1.2251 -2.3047 -1.0797
29366SOL     OW92139   8.599   8.814   7.646 -0.0713  0.3275 -0.2052
29366SOL    HW192140   8.507   8.835   7.630 -0.6622 -2.3495 -0.6721
29366SOL    HW292141   8.644   8.845   7.567 -0.3826  2.4117  0.3788
29367SOL     OW92142   3.961   5.483   0.780 -0.7777 -0.1898  0.0661
29367SOL    HW192143   4.020   5.477   0.705  0.1073  1.7136  0.5477
29367SOL    HW292144   3.908   5.561   0.762  0.6443  1.3667  2.1652
29368SOL     OW92145   5.204   4.478   5.511 -0.7200 -0.0738  0.1580
29368SOL    HW192146   5.236   4.545   5.451 -0.5196  1.5311  1.9714
29368SOL    HW292147   5.195   4.399   5.457 -1.7545  1.5810 -2.2148
29369SOL     OW92148   0.454   0.274   9.329 -0.7897 -0.7956 -0.0557
29369SOL    HW192149   0.533   0.249   9.282 -0.9268 -1.1299 -0.1055
29369SOL    HW292150   0.441   0.205   9.394  0.5172  0.6158  1.8430
29370SOL     OW92151   3.431   8.261   5.251  0.0868 -0.4456 -0.5774
29370SOL    HW192152   3.370   8.188   5.257 -0.3884 -0.0645 -0.6798
29370SOL    HW292153   3.377   8.335   5.223 -0.0607  0.6982  2.4137
29371SOL     OW92154   1.993   2.651   1.884 -0.9849 -0.6984  0.1091
29371SOL    HW192155   2.055   2.665   1.812  0.6974  0.0079  1.6258
29371SOL    HW292156   1.981   2.557   1.888 -0.1470 -0.8290 -0.3228
29372SOL     OW92157   1.150   1.153   8.989  0.7964  0.0110 -0.1857
29372SOL    HW192158   1.194   1.152   8.904  1.7346 -0.0595  0.2768
29372SOL    HW292159   1.186   1.077   9.035 -1.4748 -1.3738 -0.5736
29373SOL     OW92160   4.500   4.965   0.686  0.1484 -0.7460  0.6614
29373SOL    HW192161   4.584   4.921   0.670 -0.4208 -1.9934  0.9736
29373SOL    HW292162   4.492   5.028   0.615  1.5244 -0.3334  0.8363
29374SOL     OW92163   7.785   3.650   4.891  0.3085 -0.1020  0.5110
29374SOL    HW192164   7.841   3.723   4.866 -0.6693  0.7789  0.8455
29374SOL    HW292165   7.824   3.615   4.971 -0.0242  0.9804  1.1645
29375SOL     OW92166   9.404   4.552   3.935  0.8766 -0.6082  0.1983
29375SOL    HW192167   9.427   4.571   4.026  0.5259 -1.6132  0.5230
29375SOL    HW292168   9.376   4.460   3.937 -0.5562 -0.2257 -0.6431
29376SOL     OW92169   8.469   1.176   2.384  0.3598  0.1866 -0.0676
29376SOL    HW192170   8.469   1.269   2.403 -0.0863  0.3742 -0.9197
29376SOL    HW292171   8.414   1.137   2.452  1.5963  0.3584  1.0604
29377SOL     OW92172   8.283   5.839   2.452 -0.1588 -0.0067 -0.0421
29377SOL    HW192173   8.220   5.835   2.523 -0.2432  2.4724  0.1264
29377SOL    HW292174   8.230   5.848   2.373 -0.0604  0.6624 -0.0413
29378SOL     OW92175   7.958   5.216   5.477  0.4055 -0.2611  0.2796
29378SOL    HW192176   7.996   5.151   5.537  0.5503  1.6984  2.4446
29378SOL    HW292177   8.034   5.255   5.433  0.8726  1.9009  2.7615
29379SOL     OW92178   7.875   7.821   4.205  0.1774 -0.0480  0.1393
29379SOL    HW192179   7.911   7.745   4.252  1.1548  0.5750  0.4403
29379SOL    HW292180   7.907   7.811   4.116 -0.1362 -0.2698  0.0528
29380SOL     OW92181   7.782   3.719   0.738 -0.3293 -0.0551  0.4935
29380SOL    HW192182   7.698   3.690   0.703 -0.6301 -1.8192  2.4496
29380SOL    HW292183   7.817   3.778   0.672 -1.9310 -1.2792 -1.5685
29381SOL     OW92184   2.000   5.502   1.247 -0.5664 -0.3297  0.5996
29381SOL    HW192185   1.909   5.521   1.227 -0.6765  0.7667  1.9240
29381SOL    HW292186   2.042   5.491   1.162 -1.6112  0.7719 -0.0916
29382SOL     OW92187   3.179   0.076   6.153  0.2978 -0.0821  0.2166
29382SOL    HW192188   3.257   0.104   6.106 -0.3428  1.7424  0.1584
29382SOL    HW292189   3.212   0.043   6.237  1.2160 -0.6703 -0.3597
29383SOL     OW92190   2.397   0.857   2.110  0.3955 -0.0536 -0.5980
29383SOL    HW192191   2.392   0.765   2.087  0.9405 -0.9187  2.3108
29383SOL    HW292192   2.306   0.886   2.117  0.2236 -0.2508 -1.7820
29384SOL     OW92193   6.940   0.840   0.902 -0.3128 -0.1431 -0.0304
29384SOL    HW192194   6.886   0.905   0.947 -0.3420 -0.7928  0.9002
29384SOL    HW292195   7.013   0.891   0.865 -1.4648  0.7205 -1.1901
29385SOL     OW92196   9.248   9.435   9.701  0.2889  0.1707  0.4880
29385SOL    HW192197   9.174   9.482   9.661 -0.1944  0.3670  1.5819
29385SOL    HW292198   9.237   9.449   9.795  1.3546 -0.3561  0.7025
29386SOL     OW92199   9.338   1.149   9.870  0.0670 -0.1509 -0.2906
29386SOL    HW192200   9.355   1.128   9.961 -2.4734  0.3637  0.3687
29386SOL    HW292201   9.273   1.085   9.842  0.7709 -0.2706 -1.7493
29387SOL     OW92202   3.362   0.381   7.418  0.2699  0.4907 -0.2308
29387SOL    HW192203   3.333   0.289   7.414 -0.6924  0.7916 -0.3499
29387SOL    HW292204   3.431   0.381   7.485 -0.6464 -0.0770  0.7335
29388SOL     OW92205   4.998   1.164   5.680  0.6751 -0.1239 -0.4621
29388SOL    HW192206   4.969   1.116   5.602 -0.1370  0.6568 -0.6550
29388SOL    HW292207   4.926   1.154   5.742  0.2479  1.2721 -0.6990
29389SOL     OW92208   9.243   9.970   5.761 -0.1532  0.0202  0.3422
29389SOL    HW192209   9.157  10.003   5.733  0.0709 -0.0647 -0.4873
29389SOL    HW292210   9.224   9.894   5.815 -0.6476  0.8726  1.3982
29390SOL     OW92211   1.074   5.889   6.839 -0.0558  0.4167  0.1604
29390SOL    HW192212   0.995   5.932   6.804 -1.0288  0.1797  1.9358
29390SOL    HW292213   1.096   5.941   6.917  0.5973 -0.4777  0.5821
29391SOL     OW92214   9.564   0.701   4.848 -0.2093  0.0091  0.4601
29391SOL    HW192215   9.515   0.618   4.844 -0.3924 -0.0349  2.5517
29391SOL    HW292216   9.632   0.691   4.781 -0.7029 -1.5174  0.1325
29392SOL     OW92217   3.319   8.578   5.685  0.4510 -0.2405  0.2876
29392SOL    HW192218   3.241   8.633   5.676  0.3031 -0.6024 -0.9269
29392SOL    HW292219   3.289   8.491   5.658  1.2162 -0.4401  0.0542
29393SOL     OW92220   2.607   2.090   2.079 -0.4239 -0.0825  0.2127
29393SOL    HW192221   2.691   2.062   2.117 -1.1814  0.7167  2.7203
29393SOL    HW292222   2.620   2.183   2.057 -0.2848 -0.2918 -0.6149
29394SOL     OW92223   7.087   4.196  10.043  0.1304  0.0219  0.0545
29394SOL    HW192224   7.156   4.131  10.029  0.8719  0.8781 -0.4057
29394SOL    HW292225   7.071   4.194  10.137  2.0869  1.0403  0.4693
29395SOL     OW92226   4.004   2.958  10.134 -0.2443  0.4252 -0.2382
29395SOL    HW192227   4.048   2.896  10.192  0.3416  2.2879  1.4256
29395SOL    HW292228   4.067   2.976  10.065  0.4715  0.8104  0.4960
29396SOL     OW92229   7.611   4.955   2.795  0.2489  0.0250 -0.8654
29396SOL    HW192230   7.621   4.977   2.703  1.5876  0.0300 -0.7406
29396SOL    HW292231   7.535   5.007   2.824 -0.6968 -0.5983 -2.1331
29397SOL     OW92232   8.644   7.930   0.098  0.1705  0.2687  0.5988
29397SOL    HW192233   8.668   7.873   0.025 -1.5505  1.2114 -0.7817
29397SOL    HW292234   8.577   7.881   0.145  0.7164 -0.0036  1.1120
29398SOL     OW92235   4.314   5.855   5.474 -0.4585 -0.0186  0.4221
29398SOL    HW192236   4.241   5.851   5.413  0.6275  0.1430 -0.9224
29398SOL    HW292237   4.367   5.929   5.445  2.0199 -2.0834 -0.7517
29399SOL     OW92238  10.072   2.078   7.032 -0.4318 -0.3017  0.6096
29399SOL    HW192239  10.119   2.151   7.072 -0.7434 -1.1743  2.7183
29399SOL    HW292240  10.046   2.110   6.946  1.5873  1.1747  0.4827
29400SOL     OW92241  10.231   3.100   2.924  0.5470 -0.3968 -0.6492
29400SOL    HW192242  10.167   3.030   2.906 -0.5441  0.5906 -0.7044
29400SOL    HW292243  10.243   3.144   2.840 -0.5237  0.8986 -0.1547
29401SOL     OW92244   7.329   2.698   5.329  0.4003 -0.0111  0.0757
29401SOL    HW192245   7.288   2.680   5.244  1.4972  0.9771 -0.6871
29401SOL    HW292246   7.421   2.674   5.317  0.4538 -0.3928  1.1754
29402SOL     OW92247   9.795   1.072   8.143 -0.2017  0.0231 -0.1760
29402SOL    HW192248   9.808   1.044   8.052  2.2316 -0.9341  0.4106
29402SOL    HW292249   9.793   0.990   8.193 -3.1992  0.4045  0.5500
29403SOL     OW92250   1.443   0.141   7.023  0.3100 -0.3887 -0.1748
29403SOL    HW192251   1.368   0.148   7.083  2.0189 -0.7789  2.1484
29403SOL    HW292252   1.451   0.229   6.985 -1.2270 -0.3112 -0.4031
29404SOL     OW92253   8.593   8.883   4.221 -0.0985 -0.2143 -0.5861
29404SOL    HW192254   8.645   8.963   4.219 -0.3236 -0.0113  0.7175
29404SOL    HW292255   8.630   8.831   4.293 -1.4325 -0.2258  0.1277
29405SOL     OW92256   3.992   0.717   7.988  0.6949 -0.5671  0.5932
29405SOL    HW192257   3.983   0.811   7.978  1.4960 -0.6779 -1.7665
29405SOL    HW292258   3.991   0.683   7.898  1.6953 -2.6718  1.3133
29406SOL     OW92259   6.603   4.520   2.493 -0.0394  0.1505 -0.5018
29406SOL    HW192260   6.578   4.572   2.570 -0.0766 -0.7623  0.1161
29406SOL    HW292261   6.660   4.579   2.443  1.5000  0.1621  1.1422
29407SOL     OW92262   9.349   4.592   0.775 -0.1206 -0.2007  0.5444
29407SOL    HW192263   9.270   4.539   0.779  0.4797 -1.1186  0.6715
29407SOL    HW292264   9.420   4.528   0.766  0.4930  0.6532 -1.1344
29408SOL     OW92265   1.685   9.816   1.141  0.0481 -0.6283 -0.4255
29408SOL    HW192266   1.735   9.790   1.063  0.9125  0.3699 -0.2223
29408SOL    HW292267   1.629   9.887   1.111 -0.4276 -0.9820 -0.3839
29409SOL     OW92268   0.114   8.946   4.394  0.2283  0.0302  0.1461
29409SOL    HW192269   0.163   8.955   4.476  0.7241 -0.8824 -0.0361
29409SOL    HW292270   0.182   8.941   4.327 -0.0452 -2.2032 -0.0248
29410SOL     OW92271   9.365   1.852   0.235 -0.2479 -0.4269  0.1033
29410SOL    HW192272   9.340   1.880   0.147  1.0068  1.8525  0.4127
29410SOL    HW292273   9.458   1.833   0.229 -0.2700 -0.8132  0.8317
29411SOL     OW92274   5.405   4.918   4.221  0.6348 -0.4643 -0.6239
29411SOL    HW192275   5.409   4.826   4.197  0.0837 -0.3683 -1.1133
29411SOL    HW292276   5.327   4.926   4.277  0.8944 -0.3615 -0.2716
29412SOL     OW92277   4.398   3.712   2.143 -0.1131  0.1766 -0.1402
29412SOL    HW192278   4.338   3.784   2.163  0.4580  0.7264 -0.3967
29412SOL    HW292279   4.388   3.699   2.048  0.4054  0.4859 -0.2414
29413SOL     OW92280   4.564  10.171   6.201 -0.2276 -0.1955  0.2230
29413SOL    HW192281   4.556  10.075   6.200 -2.4173 -0.0647 -0.1998
29413SOL    HW292282   4.486  10.202   6.155  1.0224  1.7933 -0.6770
29414SOL     OW92283  10.106   5.999   5.339  0.3190 -0.0377 -0.4067
29414SOL    HW192284  10.158   5.955   5.406 -1.1907  0.6436  1.3120
29414SOL    HW292285  10.056   5.928   5.297  2.7539 -0.7396 -2.3071
29415SOL     OW92286   8.226   6.782   1.051 -0.2838  0.1534 -0.6241
29415SOL    HW192287   8.172   6.703   1.059  0.3187 -0.1178  1.1965
29415SOL    HW292288   8.270   6.773   0.967 -1.5488 -0.5840 -1.2289
29416SOL     OW92289   9.342   5.153   9.945 -0.1009  0.7447 -0.5801
29416SOL    HW192290   9.324   5.126   9.855  0.9554 -1.3331 -0.2283
29416SOL    HW292291   9.397   5.231   9.936  1.7119 -0.5968 -1.8246
29417SOL     OW92292   4.627   0.641   0.743  0.0677 -0.1527 -0.7099
29417SOL    HW192293   4.591   0.729   0.739  2.0914  0.7186 -1.4644
29417SOL    HW292294   4.622   0.609   0.653  3.3036  1.0193 -1.4666
29418SOL     OW92295   6.133   8.537  10.005  0.3417 -0.0720  0.1286
29418SOL    HW192296   6.136   8.457   9.953  1.1399 -0.2583  0.4472
29418SOL    HW292297   6.180   8.601   9.953  0.3825 -0.0189  0.2309
29419SOL     OW92298   0.017   6.703   7.817  0.2844 -0.1200 -0.1104
29419SOL    HW192299   0.055   6.739   7.897 -0.4841 -0.9203  0.6261
29419SOL    HW292300  -0.002   6.780   7.763  0.7408  0.4272  0.4942
29420SOL     OW92301   5.267   2.233   1.360 -0.1357 -0.5215  0.5044
29420SOL    HW192302   5.296   2.239   1.269 -2.1149  1.1434 -0.0813
29420SOL    HW292303   5.334   2.281   1.409 -0.4591  0.9951 -0.4725
29421SOL     OW92304   6.241   9.972   6.280 -0.1785  0.0124  0.1511
29421SOL    HW192305   6.326   9.934   6.259  0.5886  0.3478  2.3715
29421SOL    HW292306   6.185   9.897   6.301 -0.1703 -0.1562 -0.4229
29422SOL     OW92307   8.018   8.663   4.889  0.1035 -0.0556  0.2215
29422SOL    HW192308   8.035   8.590   4.830 -1.2807 -2.3473  2.4474
29422SOL    HW292309   7.922   8.665   4.898  0.1567  1.4982  0.8995
29423SOL     OW92310   0.033   9.668   7.650 -0.6837  0.0049 -0.4690
29423SOL    HW192311   0.030   9.684   7.744  0.6444  1.0823 -0.5803
29423SOL    HW292312   0.035   9.573   7.641 -1.4945 -0.1223  0.5563
29424SOL     OW92313   3.469   8.054   9.559 -0.3237 -0.7552  0.3533
29424SOL    HW192314   3.483   8.017   9.472 -0.2626 -0.2040  0.1271
29424SOL    HW292315   3.400   8.001   9.598  0.5487 -1.8439  0.4716
29425SOL     OW92316   6.905   3.850   6.952  0.0492  0.3846 -0.0945
29425SOL    HW192317   6.863   3.804   6.880  3.2762  1.6555 -3.0558
29425SOL    HW292318   6.974   3.791   6.981 -0.6126  0.2936  1.3900
29426SOL     OW92319   9.349   3.257   6.761 -0.2972  0.2769 -0.2618
29426SOL    HW192320   9.339   3.351   6.745  1.3105  0.4913 -0.2253
29426SOL    HW292321   9.444   3.242   6.754 -0.4421 -1.1912  0.5447
29427SOL     OW92322   3.039   9.631  10.116  0.2155  0.2639 -0.8191
29427SOL    HW192323   2.989   9.647  10.036 -0.3215  0.2076 -0.4990
29427SOL    HW292324   2.992   9.561  10.160 -0.1110  1.0238  0.0705
29428SOL     OW92325   7.283   7.565   8.993 -0.2842 -0.1626  0.4374
29428SOL    HW192326   7.319   7.480   8.968  0.0707 -0.5442  2.1236
29428SOL    HW292327   7.360   7.619   9.009 -0.5044  0.5890 -0.8705
29429SOL     OW92328   6.919   2.236   3.412 -0.4690  0.1277  0.2405
29429SOL    HW192329   6.900   2.324   3.442 -0.1647  0.4271 -0.4283
29429SOL    HW292330   7.013   2.236   3.392 -0.3867 -0.4566  0.6110
29430SOL     OW92331   6.056   9.962   4.007  0.1267 -0.1740  0.3095
29430SOL    HW192332   6.095  10.042   3.971 -0.6532 -0.3727 -1.0653
29430SOL    HW292333   6.080   9.894   3.944  0.6175 -1.0091  1.3664
29431SOL     OW92334   4.585   1.591   3.875 -0.4211  0.3571  0.0367
29431SOL    HW192335   4.562   1.540   3.953 -0.1979  0.5154  0.2086
29431SOL    HW292336   4.678   1.610   3.887 -0.6383  1.3045  0.2673
29432SOL     OW92337   6.137   5.302   1.087 -0.1600 -0.6308 -0.1069
29432SOL    HW192338   6.102   5.233   1.031 -0.0006 -1.9078  1.2998
29432SOL    HW292339   6.165   5.256   1.166 -1.1850  1.2087  1.3967
29433SOL     OW92340   8.963   2.184   3.966  0.1723 -0.1897 -0.0715
29433SOL    HW192341   8.949   2.200   3.873  0.5858 -1.6772 -0.4107
29433SOL    HW292342   9.052   2.150   3.972  0.3407  0.3932  0.9422
29434SOL     OW92343   2.109   8.458   5.166  0.1746 -0.0375 -0.0146
29434SOL    HW192344   2.046   8.514   5.120  2.0253  1.2421 -1.1154
29434SOL    HW292345   2.187   8.458   5.110  1.1158 -1.7331  1.1981
29435SOL     OW92346   3.780   0.302   9.300 -0.3424  0.2109  0.1834
29435SOL    HW192347   3.835   0.224   9.291 -0.0588  0.4408 -0.0951
29435SOL    HW292348   3.841   0.375   9.296 -0.6842  0.4771 -0.2910
29436SOL     OW92349   8.811   2.198   2.863  0.3194  0.0031 -0.1006
29436SOL    HW192350   8.858   2.261   2.808  0.0297 -0.1044 -0.4740
29436SOL    HW292351   8.759   2.253   2.922 -1.6665  0.1511 -1.9045
29437SOL     OW92352   2.825   8.596   7.142  0.7555 -0.4146  0.2204
29437SOL    HW192353   2.781   8.637   7.068  1.3893  0.8723  0.5215
29437SOL    HW292354   2.895   8.657   7.165  1.7188 -1.6615  0.7327
29438SOL     OW92355   0.678   4.129   9.804  0.0762  0.1789 -0.7864
29438SOL    HW192356   0.764   4.090   9.787  0.7097  0.4764  1.3611
29438SOL    HW292357   0.697   4.205   9.860 -1.6085  0.0126  0.0733
29439SOL     OW92358   2.525   8.646   1.889 -0.3989  0.0281 -0.3014
29439SOL    HW192359   2.602   8.638   1.945  0.9411  0.3628 -2.0243
29439SOL    HW292360   2.521   8.738   1.865 -0.8456 -0.1297 -0.8696
29440SOL     OW92361   4.339  10.116   5.578  0.4474 -0.1882  0.0498
29440SOL    HW192362   4.255  10.159   5.591  0.6223 -0.0171  0.5999
29440SOL    HW292363   4.396  10.151   5.646  0.0888 -2.5915  1.7053
29441SOL     OW92364   5.389   6.747   2.646  0.0667 -0.2423 -0.3888
29441SOL    HW192365   5.343   6.675   2.602  0.6479 -1.9057  1.5796
29441SOL    HW292366   5.363   6.739   2.737  1.9576  0.6131  0.2680
29442SOL     OW92367   9.856   3.616   4.057  0.5497  0.5244 -0.1350
29442SOL    HW192368   9.800   3.569   3.996  1.6388 -1.7777  0.5365
29442SOL    HW292369   9.943   3.614   4.017  1.0984 -0.2414  1.0446
29443SOL     OW92370   0.335   6.974   4.468  0.3152 -0.3484 -0.0062
29443SOL    HW192371   0.316   6.885   4.440  2.1258 -1.3856  1.8381
29443SOL    HW292372   0.306   6.978   4.559 -3.4861  2.2835 -1.0589
29444SOL     OW92373   1.820   4.422   8.453  0.0216  0.0976 -0.1153
29444SOL    HW192374   1.824   4.454   8.543  1.2453  0.1245 -0.1674
29444SOL    HW292375   1.817   4.327   8.462 -0.6361  0.1138 -0.0454
29445SOL     OW92376   1.011   5.794   5.335  0.8787  0.3904 -0.4909
29445SOL    HW192377   0.946   5.861   5.314 -0.3201 -0.8352 -0.8591
29445SOL    HW292378   1.031   5.808   5.427  0.8087  1.3783 -0.6181
29446SOL     OW92379   2.270   4.568   1.108 -0.7037  0.3875  0.0088
29446SOL    HW192380   2.204   4.561   1.177 -2.0216 -0.1256 -1.2393
29446SOL    HW292381   2.224   4.609   1.035  0.4921  0.4204 -0.7532
29447SOL     OW92382   6.081   1.167   6.485  0.1105  0.4913 -0.1035
29447SOL    HW192383   6.007   1.151   6.544  0.7079  0.9817  0.8183
29447SOL    HW292384   6.157   1.165   6.542  0.5921  2.4080 -0.5855
29448SOL     OW92385   4.531   6.017   8.615  0.0026 -0.4762  0.3355
29448SOL    HW192386   4.482   6.072   8.676  0.3511  0.1243  0.0812
29448SOL    HW292387   4.465   5.959   8.577 -0.4178 -0.0623  0.4230
29449SOL     OW92388   0.116   0.265   6.663  0.0723  0.2231  0.4369
29449SOL    HW192389   0.077   0.346   6.631 -0.0947  0.1720  0.5117
29449SOL    HW292390   0.046   0.201   6.657  0.9152 -0.5928 -2.1885
29450SOL     OW92391   0.131   7.767   8.497 -0.2895 -0.2588  0.0496
29450SOL    HW192392   0.152   7.688   8.446 -2.3147  0.5724 -2.2973
29450SOL    HW292393   0.201   7.828   8.474 -0.5204 -0.2996 -0.8287
29451SOL     OW92394   3.657   2.808   8.958 -0.1883 -0.5181 -0.2603
29451SOL    HW192395   3.606   2.728   8.962 -1.5082  0.3231  3.0011
29451SOL    HW292396   3.725   2.797   9.025 -0.2977  0.9810  0.1406
29452SOL     OW92397   8.993   7.265   1.278  0.0714  0.3326  1.0795
29452SOL    HW192398   8.933   7.212   1.329 -0.5109 -1.1506 -0.9813
29452SOL    HW292399   8.942   7.295   1.203  1.1796  1.3781  0.7000
29453SOL     OW92400   7.418   1.206   4.826  0.2126 -0.2603 -0.5356
29453SOL    HW192401   7.487   1.266   4.796 -1.1788  1.9950  0.4807
29453SOL    HW292402   7.400   1.234   4.916 -1.4270 -1.3712 -0.4727
29454SOL     OW92403   2.771   5.391   4.693  0.0485 -0.5827 -0.0014
29454SOL    HW192404   2.854   5.343   4.688  0.7198  0.0353  3.1352
29454SOL    HW292405   2.765   5.418   4.785 -1.7918  2.6845 -0.9500
29455SOL     OW92406   9.393   6.628   7.932  0.3403  0.0386 -0.1426
29455SOL    HW192407   9.314   6.678   7.910  1.0818  1.1533 -0.3534
29455SOL    HW292408   9.360   6.549   7.973 -0.9062  0.3080 -0.5675
29456SOL     OW92409   9.705   4.987   2.777 -0.1565 -0.3054  0.2558
29456SOL    HW192410   9.657   4.915   2.735  1.0564 -0.5633 -0.7449
29456SOL    HW292411   9.787   4.993   2.727  0.1448  1.1892  0.8990
29457SOL     OW92412   1.766   3.750   1.063  0.4406 -0.3603 -0.3416
29457SOL    HW192413   1.760   3.763   0.968 -1.7787 -1.9927 -0.4832
29457SOL    HW292414   1.695   3.802   1.099 -0.0310 -1.3845  0.2334
29458SOL     OW92415   4.801   0.571   2.591 -0.3654  0.2478 -0.4303
29458SOL    HW192416   4.852   0.535   2.664 -0.0914 -0.0164 -0.7515
29458SOL    HW292417   4.864   0.580   2.519 -0.0752  2.6179  0.0137
29459SOL     OW92418   0.270   9.970   3.350  0.1536 -0.3341 -0.0053
29459SOL    HW192419   0.319   9.960   3.268 -0.2662 -2.1972 -0.0920
29459SOL    HW292420   0.246  10.062   3.353  0.6128 -0.1135 -1.7441
29460SOL     OW92421   2.338   4.953   5.019  0.1172  0.1389 -1.0201
29460SOL    HW192422   2.431   4.971   5.010  0.2372 -0.1286 -0.4029
29460SOL    HW292423   2.297   5.039   5.028  0.5198  0.2161  0.4591
29461SOL     OW92424   3.913   0.097   1.601  0.0018 -0.4122  0.4724
29461SOL    HW192425   3.867   0.032   1.548  1.4036 -2.0943  1.2217
29461SOL    HW292426   3.894   0.071   1.691  0.5786  0.2369  0.7849
29462SOL     OW92427   1.227   1.815   9.121  0.3534 -0.8863 -0.3651
29462SOL    HW192428   1.269   1.773   9.196 -0.5910  0.0367  0.7089
29462SOL    HW292429   1.300   1.844   9.066  1.2270  1.1674  1.7077
29463SOL     OW92430   5.500   4.326   6.340 -0.3875  0.1923  0.1727
29463SOL    HW192431   5.583   4.330   6.293  0.5960 -3.2583  1.3130
29463SOL    HW292432   5.525   4.319   6.433 -2.0648  1.1048  0.7432
29464SOL     OW92433   7.506   6.422   7.860 -0.2182  0.3953  0.2156
29464SOL    HW192434   7.434   6.486   7.856 -1.2097 -0.6522  0.7200
29464SOL    HW292435   7.575   6.467   7.909 -0.1376  1.7606 -1.0581
29465SOL     OW92436   4.352   4.043   2.510  0.7384 -0.0086 -0.3719
29465SOL    HW192437   4.373   4.077   2.423 -0.8315 -1.2208 -1.2635
29465SOL    HW292438   4.337   3.950   2.497  0.5760 -0.2420  1.2259
29466SOL     OW92439   6.471   1.072   9.482 -0.1352  0.4101  0.1979
29466SOL    HW192440   6.562   1.060   9.454 -0.5019 -0.5706 -0.6697
29466SOL    HW292441   6.434   1.132   9.418 -0.7533 -1.1901 -1.0215
29467SOL     OW92442   9.658   6.620   6.352  0.1502 -0.5487  1.0598
29467SOL    HW192443   9.644   6.539   6.303  0.3566  0.7751 -1.3579
29467SOL    HW292444   9.574   6.665   6.350  0.4185 -0.0350  1.0847
29468SOL     OW92445   4.309   4.232   5.485  0.0184  0.3728  0.0006
29468SOL    HW192446   4.335   4.173   5.555 -0.4284 -0.3714 -0.4495
29468SOL    HW292447   4.372   4.216   5.415  0.6354  1.3151  0.3166
29469SOL     OW92448   8.496   5.196   1.100  0.7937 -0.2311  0.1491
29469SOL    HW192449   8.558   5.140   1.147 -0.9647 -0.3872  2.4792
29469SOL    HW292450   8.512   5.284   1.135  0.0468 -0.1920  0.4019
29470SOL     OW92451   2.338   6.081   4.786 -0.4258 -0.5416  0.1757
29470SOL    HW192452   2.279   6.137   4.736 -1.0649 -1.7017 -0.3904
29470SOL    HW292453   2.395   6.040   4.721 -1.5691 -2.4196  0.2981
29471SOL     OW92454   6.116   9.811   4.527 -0.2537  0.0489  0.9679
29471SOL    HW192455   6.202   9.769   4.523  0.1576  0.7777  1.7650
29471SOL    HW292456   6.099   9.839   4.437  0.2429 -0.2800  0.7650
29472SOL     OW92457   2.283   0.179   0.714 -0.1177 -0.6848 -0.4583
29472SOL    HW192458   2.252   0.243   0.650 -3.0813 -1.0304  0.4426
29472SOL    HW292459   2.297   0.230   0.794  2.1216 -0.4956 -0.9118
29473SOL     OW92460   1.075   8.055   3.903  0.2559 -0.0525 -0.7090
29473SOL    HW192461   1.034   8.124   3.850  1.4679 -1.2260 -3.3691
29473SOL    HW292462   1.161   8.090   3.926  0.1438  0.0464 -0.4406
29474SOL     OW92463  10.286   7.534   6.905 -0.1991  0.1736  0.6469
29474SOL    HW192464  10.372   7.521   6.864 -0.3261  1.0435  0.0797
29474SOL    HW292465  10.304   7.587   6.983 -0.1077 -0.4747  1.0766
29475SOL     OW92466   5.389   0.887   6.204 -0.1224 -0.0920 -0.2716
29475SOL    HW192467   5.412   0.930   6.122 -0.3911  1.6227  0.5101
29475SOL    HW292468   5.339   0.953   6.253  1.0688 -0.6275  1.7796
29476SOL     OW92469   1.583   7.513   0.464 -0.3716 -0.0006  0.2659
29476SOL    HW192470   1.532   7.457   0.406  0.4516  1.1680 -1.7288
29476SOL    HW292471   1.663   7.464   0.481  0.1622  0.3328 -1.1271
29477SOL     OW92472   1.480   5.273   4.527  0.3220 -0.9387  0.0758
29477SOL    HW192473   1.515   5.278   4.438 -0.7789 -1.3707 -0.3933
29477SOL    HW292474   1.551   5.233   4.577  2.0236  1.7325  0.0209
29478SOL     OW92475   8.295   6.087   7.602  0.3241  0.2687 -0.0751
29478SOL    HW192476   8.300   6.088   7.506 -2.3739  1.1489 -0.3111
29478SOL    HW292477   8.276   6.178   7.626  1.5166  0.1735  1.3739
29479SOL     OW92478  10.108   2.327   5.488 -0.2730 -0.1146 -0.1964
29479SOL    HW192479  10.076   2.389   5.422 -0.0280 -1.1721 -1.3534
29479SOL    HW292480  10.184   2.286   5.447  0.6522  0.0863  1.2605
29480SOL     OW92481   6.875   9.223   3.103 -0.0362 -0.5027 -0.0621
29480SOL    HW192482   6.884   9.199   3.011  1.2355 -0.2193 -0.0270
29480SOL    HW292483   6.893   9.142   3.151  0.5721 -0.3636 -0.0424
29481SOL     OW92484   9.735   6.141   2.431  0.2958  0.0717 -0.3192
29481SOL    HW192485   9.799   6.122   2.362 -0.3880 -0.8441 -0.7233
29481SOL    HW292486   9.776   6.110   2.511  0.5642 -0.0655 -0.5095
29482SOL     OW92487   0.945   0.365   0.953 -0.3095 -0.0670 -0.1802
29482SOL    HW192488   0.927   0.375   0.860 -0.3107 -0.6460 -0.2435
29482SOL    HW292489   1.022   0.419   0.969  1.8637 -2.6616 -1.2372
29483SOL     OW92490   2.085   5.382   8.106  0.4690 -0.4957 -0.4397
29483SOL    HW192491   2.089   5.322   8.031  1.7344  1.4221 -2.0122
29483SOL    HW292492   2.145   5.453   8.083 -2.0162  2.1495  0.6178
29484SOL     OW92493   7.598   9.853   9.129  0.6967 -0.0776 -0.4857
29484SOL    HW192494   7.624   9.773   9.174 -2.8323 -1.1020  0.0570
29484SOL    HW292495   7.623   9.838   9.038  1.2773 -1.2119 -0.1664
29485SOL     OW92496   5.998   7.832   9.565 -0.2289 -0.3844 -0.4090
29485SOL    HW192497   6.082   7.876   9.578  0.2617 -1.1013 -1.1056
29485SOL    HW292498   6.015   7.767   9.498 -1.5518  0.0355 -1.1910
29486SOL     OW92499   7.349   9.108   9.278  0.2295 -0.2019  0.0746
29486SOL    HW192500   7.422   9.061   9.237  0.5546 -0.7720  1.2578
29486SOL    HW292501   7.361   9.199   9.251  2.1274 -0.0549  1.2255
29487SOL     OW92502  10.105   2.219   3.647 -0.0781 -0.4599 -0.4288
29487SOL    HW192503  10.014   2.235   3.622 -0.0302  0.3665 -0.1045
29487SOL    HW292504  10.107   2.234   3.741  0.3301 -0.7796 -0.3843
29488SOL     OW92505   1.652   9.130   1.845  0.3195 -0.4422  0.0887
29488SOL    HW192506   1.716   9.194   1.813  0.2339 -0.1084  0.5699
29488SOL    HW292507   1.706   9.058   1.879  0.4584  0.0506  0.9281
29489SOL     OW92508   6.496   0.030   4.656  0.0301  0.0343 -0.4818
29489SOL    HW192509   6.536   0.029   4.569 -1.4066  0.3081 -1.1848
29489SOL    HW292510   6.484  -0.062   4.678 -2.6813 -0.1059 -2.1276
29490SOL     OW92511   8.389   3.137   8.254 -0.2143 -0.4904 -0.3514
29490SOL    HW192512   8.440   3.071   8.301  1.7075  1.3235  0.2920
29490SOL    HW292513   8.365   3.201   8.321  0.5524  0.9531 -1.3950
29491SOL     OW92514   0.861   3.425   3.567  0.0259  0.2812  0.1038
29491SOL    HW192515   0.913   3.403   3.644  2.7477 -1.7900 -2.1267
29491SOL    HW292516   0.906   3.499   3.528  0.7440 -0.8440 -1.2741
29492SOL     OW92517   4.815   5.100   0.706  0.8704 -0.0412 -0.6533
29492SOL    HW192518   4.898   5.147   0.706  0.1530  1.2768 -0.5289
29492SOL    HW292519   4.834   5.018   0.750  1.5440  1.3301  1.8119
29493SOL     OW92520   7.547   4.981   3.324  0.1833  0.5726  0.1434
29493SOL    HW192521   7.589   4.895   3.314  0.6512  0.8964 -0.7702
29493SOL    HW292522   7.477   4.966   3.387  0.8530 -0.2727  0.7092
29494SOL     OW92523   5.221  10.065  10.007 -0.6407 -0.2555  0.3205
29494SOL    HW192524   5.200  10.099  10.094  1.1291 -2.4059  1.6802
29494SOL    HW292525   5.284  10.128   9.972 -1.4356  0.6778  0.5090
29495SOL     OW92526   2.304   1.731   4.063  0.4050 -0.4242 -0.3330
29495SOL    HW192527   2.353   1.773   3.992 -1.5991  0.7484 -1.1344
29495SOL    HW292528   2.294   1.800   4.129  0.7672 -0.9787  0.3040
29496SOL     OW92529   2.175   0.958   2.550 -0.2889 -0.1354 -0.1429
29496SOL    HW192530   2.134   0.984   2.468 -0.8353  1.2332  0.5197
29496SOL    HW292531   2.268   0.973   2.537 -0.4819  1.2208 -0.1608
29497SOL     OW92532   9.187   4.306   8.636  0.1768 -0.5521  0.2605
29497SOL    HW192533   9.257   4.259   8.591 -0.2592 -1.3722  0.4291
29497SOL    HW292534   9.179   4.389   8.589  0.7022 -0.7976 -0.2662
29498SOL     OW92535   8.919   3.318   5.030 -0.7505 -0.2798  0.4290
29498SOL    HW192536   8.935   3.275   5.114  1.5760 -4.5503 -1.8991
29498SOL    HW292537   9.002   3.359   5.008 -0.1506 -2.2101 -1.2029
29499SOL     OW92538   6.685   6.159   8.969 -0.0848 -0.1144  0.1021
29499SOL    HW192539   6.726   6.134   8.886  2.2337  2.4588  0.3233
29499SOL    HW292540   6.757   6.159   9.032 -1.6308 -1.1432  1.9791
29500SOL     OW92541   1.987  10.026   0.868 -0.1203 -0.6532  0.2857
29500SOL    HW192542   2.050  10.098   0.859 -0.8594 -0.1587 -1.3664
29500SOL    HW292543   2.032   9.950   0.830 -0.4497 -0.3064 -0.8659
29501SOL     OW92544   5.803   1.351   8.086  0.1409  0.1019 -0.0974
29501SOL    HW192545   5.868   1.281   8.089  0.3195  0.2866  1.7598
29501SOL    HW292546   5.794   1.379   8.177 -0.2309  2.2098 -0.7268
29502SOL     OW92547   0.815   0.745   2.926 -0.0384  0.4014  0.5242
29502SOL    HW192548   0.746   0.740   2.860 -0.0407  1.5244  0.4120
29502SOL    HW292549   0.790   0.819   2.982  0.7973  0.5034  0.7839
29503SOL     OW92550   8.867   4.463   9.783 -0.4682  0.4183 -0.4062
29503SOL    HW192551   8.826   4.438   9.866  0.3684 -1.0359 -0.3866
29503SOL    HW292552   8.902   4.380   9.749  2.1170  1.4789 -0.5819
29504SOL     OW92553   6.094   2.109   2.580 -0.0726  0.5875  0.0385
29504SOL    HW192554   6.122   2.198   2.558 -0.0734  0.8388  1.0204
29504SOL    HW292555   6.145   2.086   2.657 -0.0382 -0.2892 -0.2337
29505SOL     OW92556   4.262   5.464   1.852 -0.1439  0.1259  0.5245
29505SOL    HW192557   4.285   5.545   1.899  0.7274 -0.1191  0.5354
29505SOL    HW292558   4.346   5.430   1.821 -0.3903 -1.3220  1.3966
29506SOL     OW92559   5.416   4.004   1.832  0.3815  0.1098  0.2242
29506SOL    HW192560   5.505   4.010   1.867  0.8468  0.2086 -0.9253
29506SOL    HW292561   5.393   4.093   1.808 -0.4139  0.2345  1.3886
29507SOL     OW92562   8.182   2.740   4.208 -0.7373  0.2332 -0.3611
29507SOL    HW192563   8.271   2.707   4.194  0.2290  1.3268  2.4760
29507SOL    HW292564   8.142   2.676   4.266 -0.7077  1.1972  0.7785
29508SOL     OW92565   9.499   0.989   4.631  0.2897  1.0421 -0.0591
29508SOL    HW192566   9.441   0.965   4.704  2.0043  0.2851  1.1054
29508SOL    HW292567   9.501   0.911   4.576  0.4075  0.9725  0.0430
29509SOL     OW92568   0.403   5.516   7.417 -0.0930  0.1136 -0.0643
29509SOL    HW192569   0.383   5.442   7.473  0.6802  0.6756  0.9895
29509SOL    HW292570   0.336   5.582   7.438  0.6219  0.5984  0.7581
29510SOL     OW92571  10.146   4.532   5.403  0.0237 -0.0596  0.2407
29510SOL    HW192572  10.120   4.454   5.354 -0.6652  0.7727 -0.7654
29510SOL    HW292573  10.103   4.604   5.358 -0.3801  0.7892  1.8955
29511SOL     OW92574   2.954   5.197   1.711 -0.5502  0.1477  0.2681
29511SOL    HW192575   3.012   5.274   1.712 -2.5217  1.7356 -0.8878
29511SOL    HW292576   2.980   5.147   1.789  0.7032  2.0518  1.1599
29512SOL     OW92577   4.127   7.319   9.768  0.9968  0.5790 -0.0486
29512SOL    HW192578   4.207   7.324   9.821  0.9713 -2.5649  0.4398
29512SOL    HW292579   4.107   7.226   9.764 -2.0237  1.1860 -1.1534
29513SOL     OW92580   1.140   1.333   6.894  0.0892  0.3953  0.1589
29513SOL    HW192581   1.137   1.380   6.810 -0.2423  0.3169  0.1242
29513SOL    HW292582   1.053   1.347   6.932 -0.7053 -1.7050 -0.6940
29514SOL     OW92583   5.941   0.897   1.214  0.7435  0.6551  0.1437
29514SOL    HW192584   5.939   0.807   1.183 -1.3282  0.3410  1.0404
29514SOL    HW292585   6.029   0.928   1.191  1.4756 -1.5326 -0.2685
29515SOL     OW92586   8.837   9.231   5.832 -0.1109 -0.1868  0.7547
29515SOL    HW192587   8.927   9.265   5.828 -0.7267  1.6771  1.8579
29515SOL    HW292588   8.824   9.207   5.923 -0.6260 -0.8499  0.5183
29516SOL     OW92589   7.447  10.232   2.737  0.2263 -0.3633  0.4609
29516SOL    HW192590   7.477  10.236   2.647 -2.6566 -1.3004 -0.6550
29516SOL    HW292591   7.501  10.295   2.784  1.0494  1.0006 -2.1517
29517SOL     OW92592   5.021  10.265   9.041 -0.1791 -0.1305  0.2668
29517SOL    HW192593   4.974  10.302   8.965 -0.0903  1.4053  0.9311
29517SOL    HW292594   5.113  10.271   9.017 -0.1971 -1.5792 -0.3255
29518SOL     OW92595   2.732   5.578   2.332  0.2944 -0.2344 -0.1351
29518SOL    HW192596   2.705   5.622   2.413 -1.0030 -1.3191  0.0506
29518SOL    HW292597   2.653   5.577   2.278  0.4438 -1.7995 -0.3597
29519SOL     OW92598   9.545   5.571   8.076  0.0072 -0.0615  0.1068
29519SOL    HW192599   9.489   5.644   8.103 -0.3659 -0.8529  1.6062
29519SOL    HW292600   9.632   5.609   8.067 -0.4356  0.8384 -0.5243
29520SOL     OW92601   7.590   0.192   2.048 -0.1433  0.6968 -0.1308
29520SOL    HW192602   7.539   0.111   2.050 -0.8899  1.1552  0.0892
29520SOL    HW292603   7.605   0.214   2.140  0.7840  0.3714 -0.1969
29521SOL     OW92604   1.077   0.505   0.467  0.2731  0.0244 -0.0086
29521SOL    HW192605   1.140   0.554   0.520  0.8991  1.6919 -2.1392
29521SOL    HW292606   1.125   0.426   0.440  1.6371  1.3631 -1.7588
29522SOL     OW92607   8.231   9.225   7.022 -0.2435 -0.1481  0.3202
29522SOL    HW192608   8.305   9.280   6.999 -0.6327  0.8492  1.3439
29522SOL    HW292609   8.263   9.135   7.013  1.1239  0.2624  0.8550
29523SOL     OW92610   4.828   5.382   6.115  0.6579 -0.2345 -0.1347
29523SOL    HW192611   4.867   5.339   6.039  0.8477 -1.1308  0.4571
29523SOL    HW292612   4.755   5.433   6.079  2.3551  1.5417 -1.2748
29524SOL     OW92613   8.766   4.617   2.626 -0.2162 -0.3609 -0.4733
29524SOL    HW192614   8.696   4.676   2.597 -0.5919  0.0683  1.1593
29524SOL    HW292615   8.722   4.555   2.684  0.8189  0.3329  1.1229
29525SOL     OW92616   5.104   9.328   8.560  0.1612 -0.0997 -0.6267
29525SOL    HW192617   5.068   9.415   8.544 -1.6953 -0.7625 -0.2502
29525SOL    HW292618   5.117   9.324   8.655 -0.3595 -0.4272 -0.5605
29526SOL     OW92619   9.279   6.677   4.826  0.2429  0.7720 -0.0480
29526SOL    HW192620   9.373   6.679   4.807  0.3878 -1.2103  0.2323
29526SOL    HW292621   9.238   6.715   4.748  1.1557 -1.1677 -1.5638
29527SOL     OW92622   4.118   3.555   3.697 -0.2956 -0.2020 -0.0567
29527SOL    HW192623   4.204   3.514   3.684 -0.5767 -0.1648 -2.8095
29527SOL    HW292624   4.058   3.502   3.644 -1.4874  1.2071 -0.1987
29528SOL     OW92625   8.121   8.185   8.570  1.0104  0.0110  0.2592
29528SOL    HW192626   8.179   8.214   8.640 -1.6895  3.4884  1.3404
29528SOL    HW292627   8.166   8.209   8.489  2.6185 -0.7945  0.8790
29529SOL     OW92628   8.267   7.618   6.111 -0.3317  0.4192 -0.2672
29529SOL    HW192629   8.214   7.599   6.188 -1.3843 -0.1935 -1.1178
29529SOL    HW292630   8.242   7.707   6.085  0.8106  1.0495  0.6980
29530SOL     OW92631   8.909  10.250   6.955 -0.3666 -0.7002 -0.4765
29530SOL    HW192632   8.921  10.225   6.864 -0.1282  0.1393 -0.6907
29530SOL    HW292633   8.951  10.336   6.961  0.6064 -1.2340  0.6912
29531SOL     OW92634   7.541   3.701   2.576  1.0496 -0.2255  0.5724
29531SOL    HW192635   7.607   3.756   2.533  0.3057  0.6589  0.5386
29531SOL    HW292636   7.591   3.628   2.613  1.8166 -0.5977 -1.0891
29532SOL     OW92637   2.490   1.527   7.733 -0.6795 -0.0214 -0.3520
29532SOL    HW192638   2.545   1.535   7.655 -1.6248  0.6179 -0.9702
29532SOL    HW292639   2.498   1.435   7.758  0.3601 -0.0251 -0.6574
29533SOL     OW92640   5.957   2.487   3.647 -0.0622 -0.0724 -0.2081
29533SOL    HW192641   5.983   2.566   3.696  2.2276 -1.1483  0.4382
29533SOL    HW292642   5.978   2.508   3.556  1.1536 -0.1456  0.0440
29534SOL     OW92643   4.353   0.867   8.675 -0.1912 -0.6480 -0.2794
29534SOL    HW192644   4.264   0.831   8.673  0.1081 -1.3928 -1.4657
29534SOL    HW292645   4.344   0.953   8.634 -0.2108 -1.1539 -1.3750
29535SOL     OW92646   3.208   2.137   5.024 -0.5020 -0.4955 -0.4553
29535SOL    HW192647   3.114   2.151   5.012 -0.6987 -1.3703 -0.0151
29535SOL    HW292648   3.226   2.054   4.980 -0.2278 -1.0689  0.6845
29536SOL     OW92649   7.079   5.040   2.906  0.2692  0.5622  0.0028
29536SOL    HW192650   7.052   5.080   2.823 -0.3455  1.9710  0.8438
29536SOL    HW292651   7.000   5.037   2.959  0.8469  0.6102  0.8975
29537SOL     OW92652   5.214   7.126   0.569 -0.2150 -0.1138  0.1250
29537SOL    HW192653   5.251   7.205   0.531  2.7415 -2.3424 -2.1048
29537SOL    HW292654   5.282   7.059   0.558 -2.8535 -3.2348  1.0273
29538SOL     OW92655   8.067   6.949   3.636  0.1214  0.1805  0.7669
29538SOL    HW192656   8.027   6.863   3.626  1.3541 -0.3360  0.0301
29538SOL    HW292657   8.122   6.960   3.558  0.8221  1.1708  1.3683
29539SOL     OW92658   8.525   4.752   2.582  0.2938  0.4227 -0.3737
29539SOL    HW192659   8.458   4.728   2.518 -0.7860  0.9344  0.5542
29539SOL    HW292660   8.487   4.730   2.667  0.3902  2.7276  0.3327
29540SOL     OW92661   2.629   6.993   6.987  0.0690  0.4023  0.4936
29540SOL    HW192662   2.625   6.900   6.966  0.2022  0.4958  0.0612
29540SOL    HW292663   2.553   7.007   7.044  1.0663 -0.3538  2.0954
29541SOL     OW92664   7.581   7.789   0.893 -0.3891 -0.1920 -0.0777
29541SOL    HW192665   7.525   7.794   0.816  0.5933  0.2824 -0.7858
29541SOL    HW292666   7.635   7.711   0.878 -0.7378 -0.5559  0.5213
29542SOL     OW92667   3.959   0.417   0.518  0.1734 -0.4656  0.3055
29542SOL    HW192668   3.901   0.343   0.537  1.4538 -1.7526 -0.6372
29542SOL    HW292669   4.026   0.413   0.587 -0.8544  1.0918  1.4629
29543SOL     OW92670   6.846   1.635   8.374  0.0943 -0.1805 -0.0032
29543SOL    HW192671   6.910   1.706   8.368 -0.6688  0.6026  0.8116
29543SOL    HW292672   6.853   1.589   8.290  0.5775  0.8808 -0.5598
29544SOL     OW92673   9.787   4.416   7.064 -0.1434  0.0892  0.2510
29544SOL    HW192674   9.726   4.469   7.012  0.2237 -0.3095 -0.6120
29544SOL    HW292675   9.758   4.427   7.154 -1.5370 -0.1407 -0.1481
29545SOL     OW92676  10.152   3.457   5.543 -0.4407  0.4850  0.2782
29545SOL    HW192677  10.092   3.460   5.618 -1.6089  0.2755 -0.6268
29545SOL    HW292678  10.239   3.460   5.583 -1.0328  1.7051  1.5766
29546SOL     OW92679   5.382   0.151   3.904 -0.1257 -0.4242  0.2486
29546SOL    HW192680   5.452   0.129   3.965 -0.4121 -0.5425  0.5403
29546SOL    HW292681   5.351   0.237   3.933  0.7866  0.2510 -0.7028
29547SOL     OW92682   1.220   3.591   1.870 -0.1744  0.2840  0.2107
29547SOL    HW192683   1.153   3.570   1.804 -1.0461 -1.6666  1.6100
29547SOL    HW292684   1.171   3.612   1.949  0.8602  2.2554  0.3833
29548SOL     OW92685   1.398   1.730   7.778  0.8657  0.3198  0.2693
29548SOL    HW192686   1.471   1.669   7.787 -0.8467 -1.6874  1.2216
29548SOL    HW292687   1.351   1.701   7.700 -0.1278  0.2109  0.8940
29549SOL     OW92688   8.462   3.691   1.392  0.1125  0.4546  0.6603
29549SOL    HW192689   8.535   3.750   1.409  1.2024 -0.3830 -0.8886
29549SOL    HW292690   8.492   3.635   1.321 -1.7576 -0.4443  0.5124
29550SOL     OW92691   1.621   9.843   4.960  0.1583 -0.7951  0.8854
29550SOL    HW192692   1.590   9.915   5.015  0.4720 -1.5368  2.0708
29550SOL    HW292693   1.624   9.880   4.872  2.9838  1.5803  1.7742
29551SOL     OW92694   8.398   9.874   8.232  0.3824  0.5663 -0.0867
29551SOL    HW192695   8.454   9.855   8.307 -0.9597 -0.8654  0.6144
29551SOL    HW292696   8.360   9.960   8.251  2.0215  1.4065 -0.4206
29552SOL     OW92697   9.650   6.457   5.974 -0.0305 -0.0544  0.6637
29552SOL    HW192698   9.601   6.379   5.947  0.8988 -0.2379 -0.5580
29552SOL    HW292699   9.735   6.449   5.930 -0.0541  1.8376  0.2028
29553SOL     OW92700   8.478   1.341   5.620 -0.1113 -0.4084 -0.0040
29553SOL    HW192701   8.535   1.265   5.635  2.6215  1.5268  0.2313
29553SOL    HW292702   8.517   1.384   5.544  0.1124  2.1763  1.4672
29554SOL     OW92703   4.049   4.593   0.613  0.0625  0.1146 -0.4815
29554SOL    HW192704   4.101   4.571   0.536  1.1253  1.6176 -0.2468
29554SOL    HW292705   4.066   4.686   0.628 -0.8174  0.0703  1.0467
29555SOL     OW92706   2.028   3.288   6.662 -0.4823  0.0584  0.7107
29555SOL    HW192707   2.044   3.361   6.602  0.0894 -0.0511  0.7289
29555SOL    HW292708   2.105   3.233   6.654 -2.0647 -2.0695 -1.4367
29556SOL     OW92709   6.104   0.688   5.688 -0.0914 -0.2931  0.6110
29556SOL    HW192710   6.051   0.622   5.733 -0.7668 -0.2560 -0.0967
29556SOL    HW292711   6.105   0.762   5.748 -0.7887 -0.3232  0.6718
29557SOL     OW92712   1.885   8.458   3.435 -0.5859 -0.2101 -0.2357
29557SOL    HW192713   1.865   8.377   3.482 -1.2456  0.1865  0.1927
29557SOL    HW292714   1.837   8.451   3.353  1.3241 -1.3273 -1.3316
29558SOL     OW92715   6.889   4.336   1.648  1.0740  0.3721 -0.1159
29558SOL    HW192716   6.804   4.371   1.675  0.4156 -0.3879 -1.1122
29558SOL    HW292717   6.885   4.334   1.552  1.1245 -2.1753 -0.1369
29559SOL     OW92718   1.641   6.614   1.514 -0.1039 -0.1081 -0.1334
29559SOL    HW192719   1.632   6.694   1.462  2.1782  0.1301 -0.2613
29559SOL    HW292720   1.578   6.624   1.585  0.4045  2.0133  0.0832
29560SOL     OW92721   9.973   0.229   5.237 -0.4468  0.1608 -0.0751
29560SOL    HW192722   9.949   0.150   5.189 -0.4233  0.4841 -0.6299
29560SOL    HW292723   9.986   0.200   5.327  1.4128 -0.8225 -0.6057
29561SOL     OW92724   3.622   3.370   9.769 -0.2171 -0.5309  0.1784
29561SOL    HW192725   3.699   3.323   9.799 -0.4777 -1.1362 -0.0874
29561SOL    HW292726   3.608   3.339   9.680  0.2906  0.9171 -0.4302
29562SOL     OW92727   2.108   4.798   0.641 -0.5936 -0.4619  0.5287
29562SOL    HW192728   2.152   4.873   0.600 -0.8438 -0.9158 -0.5838
29562SOL    HW292729   2.021   4.831   0.664 -1.0620 -0.6670 -0.8614
29563SOL     OW92730   2.662   2.446   1.124 -0.2487 -0.2724  0.5561
29563SOL    HW192731   2.718   2.405   1.059 -1.2210 -0.1077 -0.4192
29563SOL    HW292732   2.606   2.376   1.157 -0.2409 -0.2130  0.6996
29564SOL     OW92733   2.142   0.849   8.852 -0.1184  0.1266  0.5808
29564SOL    HW192734   2.052   0.819   8.840  0.7585 -2.3207 -0.6429
29564SOL    HW292735   2.151   0.865   8.946 -1.9737  1.0045  0.6354
29565SOL     OW92736   8.711   3.115   1.300  0.1195 -0.0191 -0.0999
29565SOL    HW192737   8.769   3.190   1.283 -0.5746  0.9355  1.4473
29565SOL    HW292738   8.708   3.067   1.217  1.1276  1.2944 -0.9402
29566SOL     OW92739   3.345   1.883   4.230 -0.5808  0.1556  0.2517
29566SOL    HW192740   3.346   1.972   4.196  0.1951 -0.6590 -2.0592
29566SOL    HW292741   3.273   1.840   4.183  0.5626 -1.0281 -0.5060
29567SOL     OW92742   4.324   6.430   6.879  0.0083 -0.0450  0.1160
29567SOL    HW192743   4.331   6.409   6.786  0.8040  0.1642  0.1273
29567SOL    HW292744   4.230   6.442   6.893 -0.0297  1.0316 -0.9070
29568SOL     OW92745   6.723   9.600   1.803 -0.1243  0.1419 -0.1425
29568SOL    HW192746   6.649   9.646   1.765  1.2273  1.1988 -1.6771
29568SOL    HW292747   6.733   9.637   1.890 -1.2139  0.1756 -0.0195
29569SOL     OW92748   5.189   7.963   2.812 -0.1207  0.7260  0.3098
29569SOL    HW192749   5.100   7.999   2.812 -0.1944  0.6861 -2.0838
29569SOL    HW292750   5.178   7.872   2.839 -0.9219  0.5662 -0.4872
29570SOL     OW92751   3.655   9.743   2.988  0.4774 -0.5902 -0.1284
29570SOL    HW192752   3.608   9.786   3.058  2.0287 -1.2704  1.4032
29570SOL    HW292753   3.606   9.662   2.971  1.3311 -1.5883  1.8650
29571SOL     OW92754   7.755   2.296   1.587 -0.3877 -0.3995 -0.4911
29571SOL    HW192755   7.830   2.303   1.527 -1.3756  0.0218 -1.7353
29571SOL    HW292756   7.735   2.203   1.590 -0.6241 -0.3869 -1.2435
29572SOL     OW92757   9.887   6.843   1.188  0.2768 -0.3719  0.1011
29572SOL    HW192758   9.799   6.866   1.216 -0.1640 -0.1580 -1.4090
29572SOL    HW292759   9.893   6.748   1.203  0.3157 -0.1729  1.5314
29573SOL     OW92760   4.482   4.458   1.608  0.0976  0.3133 -0.3148
29573SOL    HW192761   4.474   4.492   1.519 -0.4722 -0.8301 -0.7240
29573SOL    HW292762   4.406   4.401   1.619  1.2163 -1.1453  0.1795
29574SOL     OW92763   2.690   4.787   0.441 -0.0467  0.0763  0.3528
29574SOL    HW192764   2.643   4.868   0.420 -0.4971 -0.3505 -0.3543
29574SOL    HW292765   2.771   4.793   0.391  0.8253  0.9448  1.7988
29575SOL     OW92766   2.991   9.998   2.485  0.1272 -0.3997  0.1913
29575SOL    HW192767   2.974  10.027   2.395 -0.0435 -0.0005  0.3490
29575SOL    HW292768   3.060   9.932   2.477  1.4411  0.9647 -0.0488
29576SOL     OW92769   4.831   2.085  10.227  0.0996  0.1107  0.4021
29576SOL    HW192770   4.780   2.149  10.179 -1.1837 -0.8058  0.4834
29576SOL    HW292771   4.856   2.130  10.308  0.2810  0.8930 -0.0785
29577SOL     OW92772   3.131   8.121   3.722  0.7161  0.3216  0.2979
29577SOL    HW192773   3.209   8.176   3.720  0.0846  1.2220 -0.7939
29577SOL    HW292774   3.162   8.036   3.752  1.8397  1.0761  1.3922
29578SOL     OW92775   0.871   6.805   2.911  0.2247 -0.0793  0.8709
29578SOL    HW192776   0.829   6.821   2.826  1.6137 -0.2207  0.1295
29578SOL    HW292777   0.942   6.869   2.915  1.5456 -1.4768  0.9317
29579SOL     OW92778   9.484   8.213   0.385  0.0512  0.4296 -0.9341
29579SOL    HW192779   9.496   8.120   0.401 -1.0863  0.4755  0.4102
29579SOL    HW292780   9.543   8.233   0.312  0.8664 -1.1692 -0.7547
29580SOL     OW92781   6.648  10.052  10.012 -0.1046 -0.6344  0.0771
29580SOL    HW192782   6.630   9.979   9.952 -2.4335  0.5178 -0.7491
29580SOL    HW292783   6.652  10.011  10.098  0.5204 -1.9742 -0.5524
29581SOL     OW92784   0.441   0.164   1.360 -0.2400  0.2977  0.0085
29581SOL    HW192785   0.505   0.221   1.403  0.6012 -1.1996  0.8282
29581SOL    HW292786   0.414   0.103   1.428 -1.2910 -0.1506 -0.7824
29582SOL     OW92787   6.076   1.973   2.349 -0.2865 -0.2923 -0.3200
29582SOL    HW192788   6.067   2.008   2.437 -0.0195 -0.2684 -0.3013
29582SOL    HW292789   6.043   2.042   2.292  0.5122  0.1190 -0.3022
29583SOL     OW92790   7.471   3.987   8.090 -0.3843 -0.4808  0.3771
29583SOL    HW192791   7.500   4.077   8.107 -2.1375  0.1090  0.4730
29583SOL    HW292792   7.398   3.997   8.028  0.3650 -1.9708 -0.8046
29584SOL     OW92793   3.845   9.691   1.490  0.0553 -0.6894 -0.0617
29584SOL    HW192794   3.841   9.644   1.407 -0.2035 -1.9965  0.6542
29584SOL    HW292795   3.932   9.672   1.525  0.2431  0.0299 -0.1232
29585SOL     OW92796   1.342   7.126   2.632  0.2124 -0.1480 -0.2190
29585SOL    HW192797   1.376   7.158   2.715 -0.2526 -3.0717  1.2276
29585SOL    HW292798   1.344   7.202   2.574  1.9362  1.6391  2.0102
29586SOL     OW92799   3.997   4.027   9.979 -0.4305 -0.3779 -0.3779
29586SOL    HW192800   4.015   4.098   9.917  1.1279 -1.5439 -1.3327
29586SOL    HW292801   3.916   3.987   9.946  0.3782 -0.9805 -1.7108
29587SOL     OW92802   4.138   1.800   5.267  0.0648  0.8910 -0.2919
29587SOL    HW192803   4.118   1.855   5.343  1.7103  0.7397  0.2993
29587SOL    HW292804   4.173   1.719   5.305 -0.2204  0.3299 -1.1984
29588SOL     OW92805   6.582   7.463   3.816  0.2581  0.1037  1.0846
29588SOL    HW192806   6.650   7.530   3.804  0.5746 -0.3205  0.4470
29588SOL    HW292807   6.626   7.380   3.797 -0.4715 -0.1646  0.5147
29589SOL     OW92808   7.569   4.538   1.696 -0.3703 -0.3692  0.1646
29589SOL    HW192809   7.509   4.515   1.766  1.0230  0.4285  1.6946
29589SOL    HW292810   7.594   4.454   1.657 -2.5176 -0.7051 -0.6247
29590SOL     OW92811   9.189   4.271   2.759  0.3435  0.5324  0.0469
29590SOL    HW192812   9.214   4.182   2.782  0.0963  0.5846  0.5435
29590SOL    HW292813   9.095   4.268   2.745 -0.4622  1.4147  3.9636
29591SOL     OW92814   6.485   9.694   6.544 -1.0142  0.3468  0.3410
29591SOL    HW192815   6.439   9.659   6.468 -1.8662  0.1206  0.9468
29591SOL    HW292816   6.548   9.756   6.508  0.0558 -1.2691 -0.7170
29592SOL     OW92817   0.744   9.997   5.738 -0.4545 -0.5105  0.5233
29592SOL    HW192818   0.703   9.921   5.779  0.4965 -0.2987  1.9396
29592SOL    HW292819   0.790   9.962   5.662 -1.7536 -1.0098 -0.0653
29593SOL     OW92820   7.742   1.344   8.772 -0.3546 -0.2212  0.1229
29593SOL    HW192821   7.703   1.263   8.804  0.2315 -0.4682  0.2198
29593SOL    HW292822   7.682   1.413   8.801 -0.0242 -0.4679  1.4731
29594SOL     OW92823   6.978   8.805   4.542 -0.3077 -0.5801  0.0585
29594SOL    HW192824   6.888   8.824   4.519 -1.5053 -0.9620  3.7542
29594SOL    HW292825   7.027   8.884   4.518 -1.7539 -0.0644 -1.2758
29595SOL     OW92826   5.593   5.824   3.065 -0.2657  0.3718  0.0034
29595SOL    HW192827   5.584   5.847   3.158  1.2064 -0.7176  0.4619
29595SOL    HW292828   5.667   5.877   3.035 -1.1410  1.2018 -0.7468
29596SOL     OW92829   7.242   7.877   4.468 -0.2431  0.4183 -0.1091
29596SOL    HW192830   7.190   7.956   4.455 -1.3587  0.0560  1.7798
29596SOL    HW292831   7.202   7.812   4.411 -1.2516  0.4144  0.5911
29597SOL     OW92832   9.629   2.809   8.638 -0.0060 -0.0805  0.3481
29597SOL    HW192833   9.568   2.773   8.574  2.5245 -0.7725 -1.8290
29597SOL    HW292834   9.662   2.733   8.686  0.5802  0.0328  0.1414
29598SOL     OW92835   3.068   9.281   9.335  0.0255  0.6903 -0.3532
29598SOL    HW192836   3.055   9.205   9.390  0.7291  0.3422 -0.6524
29598SOL    HW292837   3.154   9.267   9.295  0.5527  2.0503  0.2466
29599SOL     OW92838   1.963   6.597   8.446  0.0323 -0.1616  0.2449
29599SOL    HW192839   2.016   6.676   8.438 -1.1033  0.8236  1.7741
29599SOL    HW292840   1.973   6.570   8.537 -0.5082 -1.1084  0.0419
29600SOL     OW92841   4.526   0.523   1.747 -0.7219 -0.0675  0.5464
29600SOL    HW192842   4.529   0.428   1.739 -3.5569 -0.3553  1.7625
29600SOL    HW292843   4.497   0.554   1.662 -1.0863 -0.4067  0.5463
29601SOL     OW92844   1.010   2.595   9.801 -0.1851 -0.1333  0.1754
29601SOL    HW192845   0.973   2.597   9.889  1.1432 -0.1157  0.7591
29601SOL    HW292846   1.040   2.505   9.789  2.8559  0.6161  1.2000
29602SOL     OW92847   3.823   9.699   5.776  0.3673 -0.1434 -0.1772
29602SOL    HW192848   3.832   9.697   5.871  0.4339  2.0361 -0.0893
29602SOL    HW292849   3.762   9.770   5.759 -0.2954 -1.0305 -1.7557
29603SOL     OW92850   2.219   7.020   3.032 -0.2786  0.2820  0.0309
29603SOL    HW192851   2.202   7.100   3.083 -0.2940 -0.5093  1.3072
29603SOL    HW292852   2.311   6.999   3.051  0.2189  0.8618 -1.5777
29604SOL     OW92853   6.648   7.064   3.430 -0.5361 -0.1588  0.3623
29604SOL    HW192854   6.619   7.028   3.346  0.1593 -0.8272  0.3947
29604SOL    HW292855   6.743   7.071   3.422 -0.6658  1.9073  0.2897
29605SOL     OW92856   3.025   8.959   8.365  0.2843 -0.1903  0.2024
29605SOL    HW192857   3.097   8.970   8.427 -0.7080 -1.1880  1.6325
29605SOL    HW292858   2.973   9.038   8.374 -0.9797 -1.1709  2.2949
29606SOL     OW92859   3.579   8.829   8.884  0.1168 -0.5740 -0.4759
29606SOL    HW192860   3.534   8.802   8.964 -0.9999 -1.1805 -1.2815
29606SOL    HW292861   3.669   8.800   8.896  0.0167 -0.4919  0.6301
29607SOL     OW92862  10.117   4.221   0.054  0.5363 -0.2658 -0.1056
29607SOL    HW192863  10.036   4.220   0.003  0.8958  1.3645 -0.7517
29607SOL    HW292864  10.145   4.312   0.053  1.6042 -0.5488  1.3666
29608SOL     OW92865   2.832   1.047   7.722 -0.4181 -0.2862 -0.0203
29608SOL    HW192866   2.923   1.075   7.728 -0.6113  0.0455  2.0279
29608SOL    HW292867   2.783   1.115   7.769 -1.7108 -0.5908 -0.8676
29609SOL     OW92868   6.080   8.764   5.862  0.1686 -0.1868 -0.1976
29609SOL    HW192869   6.019   8.735   5.794 -0.3180  0.7919 -0.1981
29609SOL    HW292870   6.026   8.815   5.922  0.5402 -1.2004  1.0612
29610SOL     OW92871   4.895   2.331   4.633 -0.1926  0.1362 -0.2078
29610SOL    HW192872   4.881   2.424   4.653  0.4689  0.5977 -1.6967
29610SOL    HW292873   4.823   2.308   4.574  0.5229  0.1726 -1.1206
29611SOL     OW92874   4.169   8.428   1.797 -0.3910  0.5041  0.2521
29611SOL    HW192875   4.121   8.507   1.823 -0.0394  1.0366 -0.6512
29611SOL    HW292876   4.146   8.363   1.863 -0.0723  1.5827  1.4726
29612SOL     OW92877   8.025   7.368   0.611 -0.1537 -0.1035 -0.0904
29612SOL    HW192878   8.006   7.301   0.677  2.0106 -2.2141 -1.4248
29612SOL    HW292879   8.096   7.419   0.648  0.3603 -0.6289 -0.3328
29613SOL     OW92880   2.685   4.329   3.228  0.3873  0.7042  0.1031
29613SOL    HW192881   2.659   4.420   3.242 -1.3650  0.0736  1.3297
29613SOL    HW292882   2.634   4.301   3.151 -0.6903  0.2078  0.9637
29614SOL     OW92883   5.519   8.461   8.924  0.4477 -0.2523 -0.7292
29614SOL    HW192884   5.549   8.551   8.939  0.5626 -0.3257 -0.5089
29614SOL    HW292885   5.514   8.423   9.012 -0.1010 -0.3015 -0.7819
29615SOL     OW92886   7.797   9.573  10.125  0.0272 -0.2431 -1.0527
29615SOL    HW192887   7.781   9.530  10.041  2.1290 -1.3082 -0.9454
29615SOL    HW292888   7.844   9.509  10.178  0.0986  0.9448  0.4198
29616SOL     OW92889   1.547   2.130   1.010 -0.4637 -0.1685 -0.3297
29616SOL    HW192890   1.546   2.085   0.926 -0.1578  3.0623 -2.2108
29616SOL    HW292891   1.634   2.111   1.046 -1.0125 -2.5373 -0.0577
29617SOL     OW92892   7.360   9.435   8.661 -0.0252 -0.1442  0.1596
29617SOL    HW192893   7.401   9.512   8.622 -3.0482  1.5351 -0.0432
29617SOL    HW292894   7.360   9.369   8.592  3.0853 -0.6410  0.5013
29618SOL     OW92895   3.370   7.646   8.801 -0.1731  0.3215  0.0481
29618SOL    HW192896   3.302   7.602   8.749 -0.7064  1.1352  0.0448
29618SOL    HW292897   3.452   7.618   8.761 -0.3900 -2.0559  1.1105
29619SOL     OW92898   3.790   6.119   5.402  0.3857  0.3757 -0.2397
29619SOL    HW192899   3.856   6.070   5.451  0.4040 -0.1055 -0.7479
29619SOL    HW292900   3.800   6.091   5.312 -0.2355  0.6169 -0.3883
29620SOL     OW92901   2.862   5.450   8.198 -0.2925 -0.2082  0.9894
29620SOL    HW192902   2.945   5.475   8.238 -0.5038  0.7597  0.8446
29620SOL    HW292903   2.799   5.514   8.231 -0.4608  0.6986 -0.9555
29621SOL     OW92904   5.961  10.185   9.221  0.0958  0.2203 -0.2890
29621SOL    HW192905   5.945  10.242   9.297 -0.1600  0.4998 -0.5528
29621SOL    HW292906   5.874  10.166   9.187  0.1217 -0.9678  0.2574
29622SOL     OW92907   0.526   9.140   7.948  0.1622  0.4548 -0.5684
29622SOL    HW192908   0.462   9.210   7.938  0.9118  1.3866  0.8795
29622SOL    HW292909   0.606   9.183   7.977  0.9874 -0.8793 -0.7464
29623SOL     OW92910   6.875   8.118   0.111 -0.1872 -0.2610 -0.2644
29623SOL    HW192911   6.926   8.049   0.152 -1.1260 -1.1489 -0.5532
29623SOL    HW292912   6.940   8.179   0.077  0.6286 -0.3685  1.0609
29624SOL     OW92913   6.281   3.869   6.300 -0.3256  0.5979  0.1899
29624SOL    HW192914   6.219   3.810   6.344  0.2737  0.7875  1.3207
29624SOL    HW292915   6.236   3.894   6.219 -1.2897 -0.0885  0.4885
29625SOL     OW92916   8.594   0.352   5.232  0.0031  0.1519  0.3451
29625SOL    HW192917   8.596   0.305   5.148  1.5828 -1.2537  1.1212
29625SOL    HW292918   8.617   0.442   5.209  1.0770 -0.3530 -0.6834
29626SOL     OW92919   0.799   6.399   8.125 -0.1534  0.2713 -0.3263
29626SOL    HW192920   0.814   6.340   8.051 -0.7522 -0.6080  0.2318
29626SOL    HW292921   0.711   6.378   8.156  0.2953  0.1927  0.9945
29627SOL     OW92922   5.648   8.679   1.267  0.3705  0.3475  0.4594
29627SOL    HW192923   5.597   8.734   1.328  0.2293 -0.0207  0.6780
29627SOL    HW292924   5.699   8.622   1.324 -0.8649 -1.0273  0.2562
29628SOL     OW92925   5.059   2.251   1.105  0.4477 -0.1874  0.6069
29628SOL    HW192926   5.070   2.323   1.167 -0.9845  0.3121  0.3078
29628SOL    HW292927   5.120   2.271   1.034 -1.1459  1.7110 -0.3150
29629SOL     OW92928   8.056   4.133   5.960 -0.0012  0.7342  0.4474
29629SOL    HW192929   8.039   4.134   5.866 -0.6320  2.8210  0.5361
29629SOL    HW292930   8.151   4.133   5.968  0.0581  1.7781 -0.2093
29630SOL     OW92931   9.384   6.083   0.393 -0.3456 -0.3986 -0.1471
29630SOL    HW192932   9.313   6.035   0.351 -1.9779  0.9769  0.8836
29630SOL    HW292933   9.358   6.175   0.386  1.5871  0.1937 -0.1419
29631SOL     OW92934   2.428   6.165   1.851 -0.1589  0.1073  0.7253
29631SOL    HW192935   2.445   6.166   1.945  0.0518 -1.6464  0.7423
29631SOL    HW292936   2.335   6.144   1.843 -0.5799  1.9304  0.5391
29632SOL     OW92937   4.443   1.997   9.030 -0.5057 -0.3887 -0.9160
29632SOL    HW192938   4.392   1.983   9.110 -0.3177 -0.1118 -0.7475
29632SOL    HW292939   4.397   1.946   8.963 -0.9824 -0.1746 -0.7569
29633SOL     OW92940   0.240   9.256   6.555  0.8052 -0.2173 -0.3261
29633SOL    HW192941   0.335   9.251   6.564  1.1481 -1.2728 -3.3741
29633SOL    HW292942   0.226   9.331   6.498 -0.4841  1.4107  1.9441
29634SOL     OW92943   6.723   2.429   7.792  0.4985 -0.2974 -0.2768
29634SOL    HW192944   6.638   2.410   7.832 -0.5191  1.0933 -1.6739
29634SOL    HW292945   6.748   2.347   7.750 -0.9264 -0.3124 -1.1580
29635SOL     OW92946   7.918   3.217   3.690 -0.2635  0.1263 -0.2174
29635SOL    HW192947   7.982   3.253   3.629 -0.7821  1.9771  0.2714
29635SOL    HW292948   7.923   3.273   3.767 -1.9545 -0.1156  0.1137
29636SOL     OW92949   2.326   7.612   3.137 -0.1181 -0.3099  0.0572
29636SOL    HW192950   2.302   7.702   3.113  0.3454 -0.7950 -2.4751
29636SOL    HW292951   2.243   7.565   3.138 -0.1936 -0.1899 -0.2830
29637SOL     OW92952   9.552   8.960   6.655 -0.1928  0.0572  0.3297
29637SOL    HW192953   9.531   8.907   6.733 -1.4750  0.6946  0.4338
29637SOL    HW292954   9.505   9.042   6.668 -0.6170  0.0868 -1.2423
29638SOL     OW92955   7.996   3.562   2.592  0.2282 -0.9659  0.3050
29638SOL    HW192956   8.079   3.546   2.637 -0.4015 -3.6570  0.6577
29638SOL    HW292957   8.019   3.563   2.499  0.7729 -0.7643  0.4362
29639SOL     OW92958   3.975   2.931   0.647 -0.3709 -0.2761  0.0667
29639SOL    HW192959   3.894   2.937   0.696 -1.2755 -2.0093 -1.0888
29639SOL    HW292960   4.042   2.965   0.706 -2.1108  2.8532  0.4224
29640SOL     OW92961   3.497   3.215   0.143  0.4758  0.2755  0.0252
29640SOL    HW192962   3.541   3.219   0.058  1.9763  0.7026  0.7922
29640SOL    HW292963   3.563   3.181   0.203  0.1973  2.1086  1.4730
29641SOL     OW92964   3.044   2.165   1.984  0.1894 -0.2119  0.4821
29641SOL    HW192965   2.984   2.160   2.058  0.7735  0.4831  1.0221
29641SOL    HW292966   2.991   2.199   1.911 -0.4749 -1.2391  0.4670
29642SOL     OW92967   6.559   9.285   3.422  0.0460  0.7885  0.5636
29642SOL    HW192968   6.477   9.306   3.378 -0.2635 -0.4499  0.5071
29642SOL    HW292969   6.627   9.314   3.362 -0.3534  1.3909  0.3943
29643SOL     OW92970   5.804   6.380   8.542  0.1909 -0.2701 -0.7785
29643SOL    HW192971   5.817   6.440   8.469  0.5352 -0.5531 -0.9560
29643SOL    HW292972   5.799   6.293   8.501  1.4258 -0.5431 -0.3970
29644SOL     OW92973   6.868   3.352   0.467 -0.4125  0.0243 -0.5052
29644SOL    HW192974   6.872   3.267   0.511  1.0863  0.2222 -0.2242
29644SOL    HW292975   6.937   3.348   0.401  0.1551  1.2754 -0.0091
29645SOL     OW92976   5.776   1.166   2.818 -0.5037 -0.6702  0.1215
29645SOL    HW192977   5.814   1.251   2.842 -3.1726  0.1705  1.8178
29645SOL    HW292978   5.770   1.169   2.722  0.9498  0.3343  0.0304
29646SOL     OW92979   1.377   9.449   2.963 -0.3024 -0.0470  0.5853
29646SOL    HW192980   1.311   9.514   2.937  0.1210  0.9865  1.9412
29646SOL    HW292981   1.446   9.501   3.004  0.5035 -1.2857  0.8401
29647SOL     OW92982   7.416   8.859   8.162 -0.0523 -0.2445 -0.4051
29647SOL    HW192983   7.473   8.792   8.197 -0.6524 -0.9791 -0.7999
29647SOL    HW292984   7.424   8.932   8.223  1.1000 -0.4264 -0.3261
29648SOL     OW92985   8.202   0.362   4.738 -0.3032 -0.4700 -0.0343
29648SOL    HW192986   8.168   0.432   4.682  1.0648 -1.6586 -2.5674
29648SOL    HW292987   8.293   0.387   4.755  0.1880 -1.5262 -0.9293
29649SOL     OW92988   3.241   9.333   2.545 -0.0505 -0.5230  0.1602
29649SOL    HW192989   3.223   9.300   2.633  0.3362  1.2329  0.9339
29649SOL    HW292990   3.264   9.255   2.494 -0.4083 -1.5828  1.5686
29650SOL     OW92991   2.977   8.348   2.928 -0.4400  0.3404  0.2766
29650SOL    HW192992   2.967   8.255   2.907 -0.7550  0.2241  0.9104
29650SOL    HW292993   3.029   8.384   2.856  1.8504 -0.8283  1.2626
29651SOL     OW92994   2.633   3.194   1.174  0.7338  0.0279  0.0343
29651SOL    HW192995   2.665   3.151   1.254  1.0779  0.1800 -0.0171
29651SOL    HW292996   2.707   3.188   1.114  0.2995 -0.5591 -0.4628
29652SOL     OW92997   2.581   0.455   1.968  0.1012 -0.5445 -0.0096
29652SOL    HW192998   2.647   0.514   1.932  0.1217 -1.8151 -2.2015
29652SOL    HW292999   2.497   0.499   1.952  0.1845 -0.5922 -0.5711
29653SOL     OW93000   8.951   1.975   6.016  0.2237  0.1007 -0.0865
29653SOL    HW193001   9.020   2.037   5.994  1.4137 -1.9031 -2.4606
29653SOL    HW293002   8.870   2.019   5.991  0.8563  1.3533 -0.0191
29654SOL     OW93003   2.147   5.801   6.070 -0.0909 -0.3460  0.2673
29654SOL    HW193004   2.062   5.834   6.099  0.3753  0.8530  0.3436
29654SOL    HW293005   2.194   5.880   6.042 -0.6307 -1.3525 -4.2308
29655SOL     OW93006   3.626   5.717  10.090 -0.4086 -0.2395 -0.2628
29655SOL    HW193007   3.551   5.670  10.055  0.6258 -1.8575 -0.4123
29655SOL    HW293008   3.642   5.788  10.028 -0.9441 -0.7535 -0.9981
29656SOL     OW93009   9.449   5.930   7.116  0.4364 -0.0766 -0.0677
29656SOL    HW193010   9.477   5.860   7.057  0.9296  0.1145 -0.0688
29656SOL    HW293011   9.364   5.901   7.149  1.9154 -2.1427  2.2686
29657SOL     OW93012   3.898   9.045   7.772  0.3421  0.2069  0.1408
29657SOL    HW193013   3.891   8.980   7.842  2.6106 -1.8824 -1.4166
29657SOL    HW293014   3.978   9.093   7.792 -0.6091  1.6975  0.5401
29658SOL     OW93015   2.267   3.641   5.364 -0.1123 -0.1349  0.3964
29658SOL    HW193016   2.306   3.564   5.405  2.4177  1.2754  0.7826
29658SOL    HW293017   2.218   3.684   5.434 -0.2567 -0.5540  0.5579
29659SOL     OW93018   7.629   3.321   9.842 -0.4469  0.0547  0.2592
29659SOL    HW193019   7.697   3.330   9.909 -1.0420 -1.5406  1.1436
29659SOL    HW293020   7.612   3.410   9.813  1.9283  0.5204  0.0811
29660SOL     OW93021   9.624   4.814   7.776 -0.4356  0.0213  0.4720
29660SOL    HW193022   9.530   4.821   7.791 -0.3008 -0.1490  1.4678
29660SOL    HW293023   9.647   4.898   7.735 -1.2533 -0.5368 -1.1902
29661SOL     OW93024   1.688   3.883   0.326 -0.2506 -0.5411 -0.0495
29661SOL    HW193025   1.757   3.881   0.260  1.5479  0.6071  1.6645
29661SOL    HW293026   1.701   3.966   0.371 -2.2667 -0.6771  0.8879
29662SOL     OW93027   7.160   9.156   9.505  0.2761 -0.0945  0.0166
29662SOL    HW193028   7.193   9.163   9.415 -0.2141  0.8895 -0.0978
29662SOL    HW293029   7.194   9.233   9.549 -0.0150 -0.2438  0.5067
29663SOL     OW93030   8.893   7.519   6.209  0.6081 -0.2780  0.0208
29663SOL    HW193031   8.803   7.493   6.193  1.1927 -1.4350 -1.8324
29663SOL    HW293032   8.924   7.460   6.278  0.6541 -1.6648 -1.1401
29664SOL     OW93033   6.100   0.895   6.434  0.0388 -0.2839 -0.8624
29664SOL    HW193034   6.196   0.893   6.435  0.0455 -0.8558 -1.9243
29664SOL    HW293035   6.079   0.987   6.416  0.3692 -0.0786 -0.2526
29665SOL     OW93036   9.654   1.521   8.611 -0.4745  0.3027  0.4033
29665SOL    HW193037   9.563   1.529   8.583 -0.7356  0.5380  1.2771
29665SOL    HW293038   9.649   1.503   8.705  0.4076  1.7686  0.7650
29666SOL     OW93039   9.570   4.556   6.991  0.9286  0.1774  0.2652
29666SOL    HW193040   9.492   4.550   6.936  0.3698  0.2116  1.0287
29666SOL    HW293041   9.536   4.578   7.078  2.0142  3.6350 -0.0368
29667SOL     OW93042   1.368   8.159   7.535  0.3220 -0.1236 -0.8025
29667SOL    HW193043   1.391   8.066   7.530  0.1995 -0.2193  0.3106
29667SOL    HW293044   1.448   8.203   7.562  0.2744  0.0439 -0.9305
29668SOL     OW93045   2.935   5.494   4.096 -0.1257 -0.1497  0.2178
29668SOL    HW193046   2.902   5.562   4.155  2.1400  1.1946  0.0205
29668SOL    HW293047   3.026   5.519   4.078  0.0693 -1.9794 -1.7270
29669SOL     OW93048   8.016   5.921   2.343 -0.4224 -0.2620  0.0921
29669SOL    HW193049   8.019   5.861   2.418 -1.2975 -1.6947 -0.9509
29669SOL    HW293050   8.081   5.886   2.282 -0.9269 -0.1439 -0.5236
29670SOL     OW93051   0.342   2.276   1.992 -0.5002  0.2924 -0.7047
29670SOL    HW193052   0.254   2.312   1.981 -2.1841 -3.4099 -0.7756
29670SOL    HW293053   0.366   2.299   2.082 -0.8121  2.6007 -1.1387
29671SOL     OW93054   3.284   1.679   7.408 -0.4508  0.2442 -0.0997
29671SOL    HW193055   3.193   1.656   7.426  0.0626 -0.0869  2.5336
29671SOL    HW293056   3.333   1.598   7.427  0.6244  1.2083  1.5300
29672SOL     OW93057   9.676   2.340   4.628  0.3332  0.1207 -0.5528
29672SOL    HW193058   9.641   2.318   4.715 -2.2499 -0.2419 -1.6030
29672SOL    HW293059   9.696   2.255   4.589 -0.3554  0.1600 -1.0043
29673SOL     OW93060   5.977   3.424   0.706  0.1668  0.0593  0.1246
29673SOL    HW193061   6.072   3.432   0.699  0.1350  0.6908  0.3079
29673SOL    HW293062   5.959   3.434   0.799 -0.1314  0.6783  0.0110
29674SOL     OW93063   3.216   6.069   6.121  0.0875 -0.0433 -0.2684
29674SOL    HW193064   3.204   6.085   6.214  2.0298 -0.6699  0.1283
29674SOL    HW293065   3.252   6.151   6.086  2.2718 -0.7418  0.1805
29675SOL     OW93066  10.152  10.125   6.788 -0.3560 -0.5314  0.6219
29675SOL    HW193067  10.210  10.053   6.764  0.1858  0.4649 -1.2829
29675SOL    HW293068  10.076  10.082   6.827  0.3221 -2.0725  0.3285
29676SOL     OW93069   4.647   4.268   7.131 -0.5486 -0.0689  0.1276
29676SOL    HW193070   4.633   4.246   7.223  1.4506 -2.6794 -0.0824
29676SOL    HW293071   4.558   4.272   7.094 -1.3109 -1.6660  1.6268
29677SOL     OW93072   0.335   9.359   0.606  0.1341 -0.3384 -0.8117
29677SOL    HW193073   0.285   9.282   0.633 -0.4765 -0.0952 -1.2377
29677SOL    HW293074   0.427   9.332   0.613 -0.0295 -0.6733  0.3409
29678SOL     OW93075  10.008   2.062   4.665 -0.0490 -0.6184 -0.3224
29678SOL    HW193076  10.027   1.985   4.611  1.0279  0.0323 -0.9092
29678SOL    HW293077  10.088   2.115   4.661 -0.1817 -0.2216  1.3768
29679SOL     OW93078   8.646   2.446   2.938  0.4419 -0.0834 -0.4192
29679SOL    HW193079   8.617   2.402   2.858  1.0244  1.4256 -1.5039
29679SOL    HW293080   8.568   2.450   2.992 -0.3306  0.1116 -1.5039
29680SOL     OW93081   6.541   9.852   1.172 -0.2905 -0.7724  0.2246
29680SOL    HW193082   6.448   9.861   1.150 -0.7300 -0.7772  1.9815
29680SOL    HW293083   6.542   9.806   1.256  1.3043 -0.6632  0.3012
29681SOL     OW93084   6.921   2.543   3.015  0.1148  0.5127  0.2424
29681SOL    HW193085   6.907   2.456   2.979  4.2214  0.5166 -1.8951
29681SOL    HW293086   6.881   2.539   3.102 -1.8471 -2.6750 -0.6347
29682SOL     OW93087   8.691   9.107   3.323 -0.3133 -0.2624 -0.4868
29682SOL    HW193088   8.723   9.018   3.334 -1.5224 -0.5779  0.7104
29682SOL    HW293089   8.757   9.150   3.268  0.0710 -1.9899 -1.4243
29683SOL     OW93090   7.364   1.899   4.068 -0.5786  0.4815 -0.0597
29683SOL    HW193091   7.377   1.914   4.161 -0.8749  1.3017 -0.1463
29683SOL    HW293092   7.401   1.812   4.053 -2.6366 -0.7027  1.2650
29684SOL     OW93093   3.926   8.614   4.251  0.0537 -0.1202 -0.0157
29684SOL    HW193094   3.881   8.532   4.232 -0.1199  0.1539 -0.8404
29684SOL    HW293095   4.017   8.598   4.228  0.1520 -0.2917  0.4826
29685SOL     OW93096   1.966   5.670   1.616  0.5816  0.4358  0.3258
29685SOL    HW193097   1.901   5.736   1.590 -0.7027 -2.0781 -3.7856
29685SOL    HW293098   2.043   5.691   1.563  0.6338 -0.5729 -0.0065
29686SOL     OW93099   1.677  10.107   5.726 -0.2591 -0.6816 -0.3201
29686SOL    HW193100   1.618  10.032   5.719 -0.1142 -0.9368  1.0431
29686SOL    HW293101   1.651  10.164   5.653 -0.9046 -1.6685 -0.8881
29687SOL     OW93102   0.810   8.242   6.956 -0.2425 -0.0929 -0.5900
29687SOL    HW193103   0.816   8.253   7.051 -0.9516  1.1050 -0.6627
29687SOL    HW293104   0.814   8.331   6.921 -1.0244 -0.4451 -1.6196
29688SOL     OW93105   4.528   1.481   9.025  0.4208  0.8220  0.1096
29688SOL    HW193106   4.554   1.502   8.936  0.3570 -2.6017 -0.8819
29688SOL    HW293107   4.608   1.449   9.067  0.0997  0.7725  0.7002
29689SOL     OW93108   7.651   0.005   8.679 -0.4449 -0.3181 -0.1669
29689SOL    HW193109   7.623   0.082   8.629 -0.5477 -0.4696 -0.3433
29689SOL    HW293110   7.747   0.010   8.679 -0.4137 -0.7601 -1.0787
29690SOL     OW93111  10.238   6.335   6.739  0.0688  0.1619  0.4184
29690SOL    HW193112  10.203   6.268   6.681 -0.0574  0.1330  0.5278
29690SOL    HW293113  10.216   6.418   6.697  1.4080  0.1221 -0.4147
29691SOL     OW93114   2.730   0.567   9.286 -0.0914 -0.4634 -0.3598
29691SOL    HW193115   2.825   0.577   9.281 -0.0697 -0.3758  0.1632
29691SOL    HW293116   2.716   0.473   9.290 -0.0787 -0.5154 -1.3125
29692SOL     OW93117   0.535   3.855   0.975  0.0929  0.3908  0.1326
29692SOL    HW193118   0.466   3.896   0.923 -0.1287 -0.1079  0.0279
29692SOL    HW293119   0.499   3.770   0.998 -0.1628  0.9307  1.8370
29693SOL     OW93120   9.030   5.293   8.847 -0.0816 -0.1497 -0.2235
29693SOL    HW193121   9.088   5.305   8.771  0.2350 -0.6274 -0.0620
29693SOL    HW293122   9.019   5.199   8.854 -1.1684 -0.0509 -0.4545
29694SOL     OW93123   0.567   9.487   6.932 -0.5223 -0.2722 -0.0417
29694SOL    HW193124   0.523   9.506   7.015 -0.0850 -0.2340  0.1841
29694SOL    HW293125   0.649   9.536   6.936  0.3598 -1.7053  0.3044
29695SOL     OW93126   8.626   4.519   9.377 -0.3315  0.5132 -0.1019
29695SOL    HW193127   8.653   4.430   9.355 -1.3387 -0.1779  1.2838
29695SOL    HW293128   8.616   4.562   9.293  0.1743 -0.6843 -0.8036
29696SOL     OW93129   5.404   3.863   7.346 -0.0392 -0.1707 -0.4498
29696SOL    HW193130   5.326   3.877   7.292 -0.2553 -0.5610 -0.2455
29696SOL    HW293131   5.399   3.932   7.412  0.1908  0.2657 -0.8858
29697SOL     OW93132   5.943   7.812   0.621 -0.3400 -0.2630  0.4832
29697SOL    HW193133   6.007   7.881   0.607 -1.4138  1.2303  2.4119
29697SOL    HW293134   5.992   7.742   0.664  0.2069  0.4540  1.0523
29698SOL     OW93135   3.041  10.176   1.289  0.6015 -0.1938 -0.2702
29698SOL    HW193136   2.981  10.117   1.334  1.0269 -0.5096 -0.1107
29698SOL    HW293137   3.015  10.171   1.197 -1.4361  1.8138  0.1187
29699SOL     OW93138   6.535   1.420   7.019  0.3837 -0.2365 -0.0255
29699SOL    HW193139   6.607   1.359   7.002 -0.2839 -1.2209  0.5632
29699SOL    HW293140   6.502   1.395   7.106  0.1183  0.9975  0.2512
29700SOL     OW93141   9.045   5.653  10.259  0.2494 -0.8249  0.0086
29700SOL    HW193142   9.028   5.560  10.249  0.2987 -0.7753 -0.6029
29700SOL    HW293143   9.103   5.660  10.334 -0.0941 -1.2514  0.3117
29701SOL     OW93144   5.408   5.091   9.013 -0.5190 -0.3115 -0.1366
29701SOL    HW193145   5.427   5.010   9.061  0.9497 -0.8204 -1.4978
29701SOL    HW293146   5.320   5.115   9.042 -0.5096 -1.7151  1.2253
29702SOL     OW93147   1.462   6.729   1.118  0.1214 -0.2140  0.7468
29702SOL    HW193148   1.519   6.805   1.107  2.8571 -2.0133  1.7277
29702SOL    HW293149   1.446   6.724   1.212 -0.3168 -0.6703  0.6521
29703SOL     OW93150   4.045   4.077   7.603  0.1828 -0.2857 -0.6289
29703SOL    HW193151   4.108   4.082   7.675  0.6445  0.5539 -1.0805
29703SOL    HW293152   4.081   4.134   7.535  0.5638 -2.2372 -2.1687
29704SOL     OW93153   5.133   9.092   4.011 -0.4333  0.3325 -0.7482
29704SOL    HW193154   5.088   9.009   4.022  0.2163 -0.0517 -0.9558
29704SOL    HW293155   5.226   9.070   4.010 -0.2125  1.1553  0.0426
29705SOL     OW93156   7.825   4.568   6.825 -0.2766  0.0870  0.8830
29705SOL    HW193157   7.731   4.566   6.846 -0.3231  0.9017  0.7966
29705SOL    HW293158   7.831   4.528   6.739 -0.3562 -1.2822  1.4835
29706SOL     OW93159  10.246  10.021   1.528 -0.4467 -0.4846  0.0862
29706SOL    HW193160  10.232  10.094   1.588  0.4367 -0.4434  0.2619
29706SOL    HW293161  10.338  10.030   1.501  0.1679 -2.4582  1.3635
29707SOL     OW93162   2.569   2.036   5.417  0.1486  0.4057  0.0662
29707SOL    HW193163   2.634   2.017   5.349 -0.2026 -0.5684 -0.0110
29707SOL    HW293164   2.501   1.969   5.405 -0.8842  1.3949  0.1382
29708SOL     OW93165   3.631   0.636   6.362 -0.7718  0.7987 -0.3124
29708SOL    HW193166   3.641   0.648   6.456 -1.7017 -0.6214  0.0016
29708SOL    HW293167   3.580   0.712   6.333 -0.9055  0.9884  0.4177
29709SOL     OW93168   1.268   0.992   7.853  0.2747 -0.2353 -0.1287
29709SOL    HW193169   1.362   1.008   7.847 -0.0511  1.4775 -1.2328
29709SOL    HW293170   1.245   0.951   7.770 -0.0623 -0.0022 -0.1520
29710SOL     OW93171  10.268   7.385   9.505 -0.0171  0.6344  0.5291
29710SOL    HW193172  10.267   7.452   9.437  0.0173  1.6796  1.5273
29710SOL    HW293173  10.345   7.332   9.486 -0.3179  0.5677 -0.5583
29711SOL     OW93174   4.944   4.006   8.104  0.5929  0.2730  0.1582
29711SOL    HW193175   5.038   4.023   8.091  0.1419  1.3785 -1.9697
29711SOL    HW293176   4.926   4.042   8.191  2.0259  0.4876  0.4032
29712SOL     OW93177   1.373   2.513   7.163  0.5725 -0.5612 -0.0310
29712SOL    HW193178   1.287   2.546   7.190  1.0836  0.3169  0.5915
29712SOL    HW293179   1.361   2.418   7.156 -0.5932 -0.3936 -0.5545
29713SOL     OW93180   4.184   0.630  10.162  0.3533 -0.3803  0.3616
29713SOL    HW193181   4.186   0.725  10.149  1.1241 -0.6038 -1.4454
29713SOL    HW293182   4.117   0.599  10.102  2.3345 -1.2614 -1.5081
29714SOL     OW93183   6.572   1.136   4.200 -0.7526  1.6102 -0.1196
29714SOL    HW193184   6.571   1.050   4.159  3.5552  0.9445  0.6870
29714SOL    HW293185   6.533   1.122   4.287  0.2950  0.2818  0.1721
29715SOL     OW93186   4.444   7.107   9.028  0.7610 -0.3158  0.5415
29715SOL    HW193187   4.357   7.118   8.991 -0.6456 -2.4320  2.8988
29715SOL    HW293188   4.444   7.161   9.107  1.5389 -0.4470  0.6413
29716SOL     OW93189   0.237   7.126   7.863  0.3979  0.1931  0.0159
29716SOL    HW193190   0.276   7.158   7.781  0.5866  1.9623  0.7579
29716SOL    HW293191   0.143   7.141   7.853  0.1692 -1.3994 -0.6099
29717SOL     OW93192   2.963   7.015   0.979 -0.1686  0.0566  0.2592
29717SOL    HW193193   2.988   6.943   1.037 -0.3314 -2.0856 -2.1539
29717SOL    HW293194   2.876   7.041   1.010 -1.3498 -2.7119 -0.3793
29718SOL     OW93195   7.147   7.577   2.820 -0.0696 -0.3129  0.1960
29718SOL    HW193196   7.151   7.516   2.894  0.5035 -1.2492 -0.5839
29718SOL    HW293197   7.080   7.539   2.762  0.7572 -0.5699 -0.6029
29719SOL     OW93198   8.080   6.107   6.523  0.1928 -0.1674  0.1476
29719SOL    HW193199   8.145   6.108   6.593 -0.3051 -0.7736  0.6339
29719SOL    HW293200   8.125   6.146   6.448  0.6209  0.8170  0.8925
29720SOL     OW93201  10.216   0.936   6.957  0.4405  0.8189 -0.4635
29720SOL    HW193202  10.208   1.007   6.892  0.2875  0.2123 -1.1258
29720SOL    HW293203  10.127   0.902   6.966  0.9138 -1.2545 -2.4544
29721SOL     OW93204   1.018   8.316   3.755 -0.0568 -0.4727  0.2564
29721SOL    HW193205   0.934   8.328   3.711  1.2116 -0.2396 -2.2360
29721SOL    HW293206   1.008   8.362   3.839 -1.9053  0.8228 -0.6235
29722SOL     OW93207   0.632   5.224   4.833  0.2349  0.0707  0.6218
29722SOL    HW193208   0.717   5.210   4.793 -0.6559  0.1489 -1.4237
29722SOL    HW293209   0.615   5.145   4.885  0.6244 -0.9130 -0.7068
29723SOL     OW93210   1.037   2.598   1.343  0.3306  0.6406  0.5695
29723SOL    HW193211   1.050   2.599   1.438 -0.0819 -1.4719  0.7025
29723SOL    HW293212   0.987   2.518   1.327  0.7834  0.7160 -1.4759
29724SOL     OW93213  10.118   7.125   8.126 -0.2384  0.1628  0.4623
29724SOL    HW193214  10.029   7.137   8.157  0.3346  0.3536  2.0879
29724SOL    HW293215  10.151   7.214   8.110  0.0302  0.1507  0.9424
29725SOL     OW93216   0.094   8.725   2.276  0.5638 -0.1436  0.0062
29725SOL    HW193217   0.069   8.633   2.285 -0.7979  0.2447  0.4163
29725SOL    HW293218   0.051   8.769   2.349  0.9532  0.8686 -0.3539
29726SOL     OW93219   8.757   1.539   7.209  0.6529  0.0329  0.1303
29726SOL    HW193220   8.764   1.561   7.302 -1.5657 -0.6268  0.5141
29726SOL    HW293221   8.794   1.452   7.202 -1.1991 -0.8703  0.8856
29727SOL     OW93222   6.129   6.180   8.609 -0.0608  0.6371 -0.3139
29727SOL    HW193223   6.048   6.199   8.562 -0.0947 -0.4652 -0.7373
29727SOL    HW293224   6.160   6.266   8.639 -0.3222  1.3165 -1.8766
29728SOL     OW93225   2.472   3.613   7.211 -0.1056  0.2124 -0.0062
29728SOL    HW193226   2.453   3.689   7.156  0.0610  0.1981 -0.0836
29728SOL    HW293227   2.421   3.628   7.290 -1.5777 -0.5222 -0.7810
29729SOL     OW93228   7.618   0.878  10.239  1.3817 -0.5098 -0.3992
29729SOL    HW193229   7.573   0.862  10.157 -1.4540 -0.0801  0.9457
29729SOL    HW293230   7.628   0.792  10.279 -1.5213 -0.4267  0.7786
29730SOL     OW93231   8.366   3.337   8.450  0.5036  0.0343 -0.0561
29730SOL    HW193232   8.399   3.314   8.537  2.3701  0.1259 -0.6762
29730SOL    HW293233   8.406   3.422   8.431 -0.1227  0.1648 -0.8846
29731SOL     OW93234   8.511   4.277   4.642  1.1016 -0.1062  1.0131
29731SOL    HW193235   8.561   4.291   4.723  1.3649  0.7926  0.7026
29731SOL    HW293236   8.527   4.185   4.619  1.2923 -0.2732  1.7962
29732SOL     OW93237   3.083   1.557   2.294  0.1753 -0.2414  0.1047
29732SOL    HW193238   3.169   1.545   2.335 -0.4417 -2.3329  0.9058
29732SOL    HW293239   3.074   1.483   2.234 -2.2020 -1.8604  2.2201
29733SOL     OW93240   3.551   9.617   3.861 -0.6653 -0.0874  0.0810
29733SOL    HW193241   3.557   9.705   3.824  3.3057 -1.1112 -2.3621
29733SOL    HW293242   3.591   9.625   3.948 -0.2704  0.5331 -0.1485
29734SOL     OW93243   9.492   9.827   9.533 -0.2915 -0.2788  0.1363
29734SOL    HW193244   9.411   9.851   9.489  0.2256 -1.8820 -1.8395
29734SOL    HW293245   9.472   9.745   9.578  0.0205 -0.2266  0.3748
29735SOL     OW93246   7.594   4.208   0.599  0.3959 -0.0070 -0.5609
29735SOL    HW193247   7.602   4.302   0.613 -1.3990  0.1782 -0.5688
29735SOL    HW293248   7.514   4.198   0.548  1.4982 -1.4257 -2.1032
29736SOL     OW93249  10.160   6.421   6.387  0.0575 -0.1032 -0.3769
29736SOL    HW193250  10.154   6.413   6.291 -0.5248 -2.6973 -0.2045
29736SOL    HW293251  10.120   6.340   6.420 -0.1665  0.9455  2.0963
29737SOL     OW93252   1.790   2.524   6.210 -0.2562  0.0664 -0.1485
29737SOL    HW193253   1.803   2.478   6.127 -0.7310 -0.4873  0.0763
29737SOL    HW293254   1.721   2.475   6.254  0.3248  0.0680  0.7907
29738SOL     OW93255   6.161   2.381   4.644 -0.5175  0.3105  0.5702
29738SOL    HW193256   6.255   2.392   4.658 -0.4606 -0.4176  0.8193
29738SOL    HW293257   6.131   2.466   4.611  0.5646  0.0059 -1.3498
29739SOL     OW93258   5.765   1.257   4.570  0.4699 -0.0783  0.1576
29739SOL    HW193259   5.741   1.178   4.522  0.7780 -0.5353  0.7422
29739SOL    HW293260   5.684   1.307   4.577  0.4417  0.0745 -0.9579
29740SOL     OW93261   0.121   7.315   3.089  0.2339  0.2806 -0.6266
29740SOL    HW193262   0.123   7.402   3.129 -2.8228  0.5311 -0.7694
29740SOL    HW293263   0.134   7.255   3.163  0.2718  0.8376 -0.1704
29741SOL     OW93264   8.687   9.316   5.146  1.0157 -0.0312  0.4056
29741SOL    HW193265   8.759   9.291   5.088  0.8361 -0.0930  0.2049
29741SOL    HW293266   8.610   9.315   5.089  0.8253 -0.1657  0.6627
29742SOL     OW93267   0.312   1.102   0.704 -0.0559  0.2113  0.7194
29742SOL    HW193268   0.346   1.188   0.728  0.1683  0.0655  0.9387
29742SOL    HW293269   0.219   1.117   0.686 -0.3068  0.2971  1.9493
29743SOL     OW93270   8.585   5.540   7.044 -0.2073 -0.2287  0.2463
29743SOL    HW193271   8.527   5.592   6.990  0.9473  0.6902 -0.1637
29743SOL    HW293272   8.572   5.450   7.014 -0.5130  0.1134 -0.6786
29744SOL     OW93273   5.589   3.197  10.123  0.5689 -0.7037  0.0084
29744SOL    HW193274   5.609   3.166  10.035  1.9002 -0.4249  0.1956
29744SOL    HW293275   5.666   3.247  10.149  0.1464 -0.6907  1.2963
29745SOL     OW93276   9.278   1.484   2.891 -0.0673 -0.3668  0.6466
29745SOL    HW193277   9.197   1.507   2.935  0.3611  1.5424  0.5256
29745SOL    HW293278   9.345   1.491   2.959  0.3487  0.7463  0.1334
29746SOL     OW93279   1.881   0.318   4.244  0.3854 -0.1655  0.9917
29746SOL    HW193280   1.930   0.242   4.213  0.3888  0.3134 -0.2434
29746SOL    HW293281   1.934   0.355   4.314  1.2364 -0.3068  0.4280
29747SOL     OW93282   7.675   4.112   5.839 -0.3527 -0.0346 -0.1450
29747SOL    HW193283   7.690   4.123   5.745 -0.2641  1.5691  0.0203
29747SOL    HW293284   7.634   4.026   5.847  0.1311 -0.4347 -1.5886
29748SOL     OW93285   7.141   7.789   0.865  0.3625 -0.0191  0.3248
29748SOL    HW193286   7.132   7.758   0.775  1.4407  0.7726 -0.0728
29748SOL    HW293287   7.176   7.877   0.857 -0.4880  0.4570  1.5095
29749SOL     OW93288   4.320   1.484   3.865 -0.0518 -0.1178 -0.3185
29749SOL    HW193289   4.407   1.523   3.859  0.5695 -1.3692  0.0960
29749SOL    HW293290   4.262   1.557   3.884  1.0626  0.5979  0.4410
29750SOL     OW93291   9.135  10.232  10.186 -0.1994  0.1513 -0.1430
29750SOL    HW193292   9.074  10.304  10.201 -0.4174 -0.1820  0.5915
29750SOL    HW293293   9.093  10.180  10.118 -0.6533  0.0271  0.2224
29751SOL     OW93294   8.267   2.751   0.132  0.2472  0.0141  0.2027
29751SOL    HW193295   8.340   2.690   0.143  0.3465  0.3353  1.6151
29751SOL    HW293296   8.198   2.700   0.091  1.3372 -0.2297 -1.4235
29752SOL     OW93297   7.096   2.783   3.913 -0.3183 -0.5969 -0.1631
29752SOL    HW193298   7.169   2.722   3.902  2.0794  1.8933  0.5844
29752SOL    HW293299   7.079   2.783   4.007 -0.0175  0.1192 -0.0995
29753SOL     OW93300   5.455   1.945   8.114 -0.6076 -0.4459 -0.4632
29753SOL    HW193301   5.499   1.869   8.152  2.4730  0.9797 -0.8313
29753SOL    HW293302   5.456   1.928   8.020  0.6040  0.2276 -0.5944
29754SOL     OW93303   4.586   3.855   7.899  0.2936 -0.9578 -0.8353
29754SOL    HW193304   4.583   3.922   7.830  0.8456 -0.0734 -0.0151
29754SOL    HW293305   4.495   3.826   7.906 -0.0025 -0.1193 -1.0356
29755SOL     OW93306   4.117   8.331   4.967  0.4562 -0.2409 -0.1148
29755SOL    HW193307   4.141   8.259   4.908 -0.5436  0.8012 -1.8937
29755SOL    HW293308   4.194   8.343   5.023  0.9719 -2.0848 -0.3610
29756SOL     OW93309   7.893   5.119   0.939  0.3032  0.0080  0.2629
29756SOL    HW193310   7.915   5.165   0.858  0.1171  0.7261  0.6093
29756SOL    HW293311   7.977   5.102   0.981  0.5328 -1.7686 -0.7983
29757SOL     OW93312   4.243   8.487   0.454 -0.3437  0.0266  0.0630
29757SOL    HW193313   4.216   8.566   0.407  0.3272 -0.2559 -0.8234
29757SOL    HW293314   4.170   8.426   0.440  0.4937 -0.5989 -1.9986
29758SOL     OW93315   8.069   4.724   8.257 -0.3627 -0.0044 -0.8904
29758SOL    HW193316   8.083   4.675   8.176 -1.0257 -1.9409  0.1012
29758SOL    HW293317   8.157   4.739   8.292 -0.1046  0.3496 -1.6610
29759SOL     OW93318   5.347   3.574   0.695  0.3535  0.1790  0.5605
29759SOL    HW193319   5.417   3.597   0.633  0.2773 -0.5754  0.1759
29759SOL    HW293320   5.379   3.493   0.736  0.2768  0.5263  1.3111
29760SOL     OW93321   0.657   8.981   0.850  0.2426  0.1847 -0.2249
29760SOL    HW193322   0.605   8.907   0.881  0.7322  0.4423  1.2947
29760SOL    HW293323   0.728   8.989   0.914  1.1531  0.9374 -1.2826
29761SOL     OW93324   1.844   1.796   7.334  0.2455  0.0218  0.2472
29761SOL    HW193325   1.843   1.888   7.308  2.4271 -0.0701 -0.4233
29761SOL    HW293326   1.794   1.752   7.266 -2.2079  0.8273  1.4268
29762SOL     OW93327   4.054   1.212   1.536  0.4865 -0.1099 -0.3154
29762SOL    HW193328   3.981   1.270   1.558  1.3861  0.9274  0.0132
29762SOL    HW293329   4.126   1.242   1.592  0.7158 -2.1538  0.5558
29763SOL     OW93330   8.926   8.902   4.083  0.4366 -0.0306 -0.0113
29763SOL    HW193331   8.856   8.864   4.028  0.7631  0.8155 -1.0355
29763SOL    HW293332   9.004   8.852   4.059  0.3581 -0.4437  0.5595
29764SOL     OW93333  10.008   0.750   6.141 -0.0440 -0.1881 -0.0350
29764SOL    HW193334   9.993   0.669   6.093 -1.3026  0.7671 -1.3111
29764SOL    HW293335  10.089   0.786   6.103  0.6025 -0.8888  0.6401
29765SOL     OW93336   3.221   0.771   6.821 -1.3221  0.5080 -0.2849
29765SOL    HW193337   3.241   0.851   6.869 -0.0121  0.4108 -0.6238
29765SOL    HW293338   3.170   0.799   6.746  0.6635  1.3322 -1.4195
29766SOL     OW93339   8.075   4.277   9.497 -0.3874  0.1530  0.0240
29766SOL    HW193340   8.031   4.353   9.459 -0.8840 -0.2818 -0.2793
29766SOL    HW293341   8.164   4.308   9.516  0.0168  0.2798 -1.8673
29767SOL     OW93342   1.987   6.014   6.989  0.1143  0.3621 -0.2912
29767SOL    HW193343   1.907   6.050   7.027  0.2202  1.1078 -0.7426
29767SOL    HW293344   2.058   6.061   7.033  0.2476  0.9506 -1.1142
29768SOL     OW93345   7.980   9.939   1.407 -0.3139  0.2432  0.6546
29768SOL    HW193346   8.075   9.937   1.420  0.0345 -1.4580 -1.5422
29768SOL    HW293347   7.969   9.932   1.312 -2.6611  0.9571  0.8083
29769SOL     OW93348   0.787   8.889   5.328 -0.4536  0.1202  0.4234
29769SOL    HW193349   0.883   8.892   5.334 -0.3147  0.3979 -1.4071
29769SOL    HW293350   0.760   8.980   5.326 -0.6068  0.0645 -0.6820
29770SOL     OW93351   6.398   2.150   2.060  0.1639  0.9152 -0.1612
29770SOL    HW193352   6.324   2.097   2.090  0.3156  1.3595  1.0613
29770SOL    HW293353   6.383   2.162   1.966 -0.4359 -0.3794 -0.2460
29771SOL     OW93354   9.741   4.664   9.839 -0.0369  0.2902  0.0771
29771SOL    HW193355   9.783   4.578   9.846  1.3161  1.0005  1.2447
29771SOL    HW293356   9.769   4.696   9.753 -1.3041 -0.7827 -0.7731
29772SOL     OW93357   0.671   9.160   5.163  0.0512  0.1369  0.5148
29772SOL    HW193358   0.609   9.233   5.159 -0.3334 -0.2029  0.1979
29772SOL    HW293359   0.696   9.155   5.255  0.3316  0.8804  0.4787
29773SOL     OW93360   1.035   5.847   8.568 -0.2770 -0.5374  0.4411
29773SOL    HW193361   1.074   5.929   8.597 -3.5618  0.8660  1.2108
29773SOL    HW293362   1.086   5.779   8.614  1.0039  1.1550  1.6460
29774SOL     OW93363   0.480   3.566   5.947  0.1993 -0.1979 -0.5534
29774SOL    HW193364   0.525   3.624   5.885  0.2924 -1.2246 -1.4694
29774SOL    HW293365   0.550   3.534   6.004  0.4186 -0.6994 -1.0942
29775SOL     OW93366   9.247   2.007   1.292 -0.1660 -0.1871 -0.6145
29775SOL    HW193367   9.255   2.026   1.198  0.8977 -1.7705 -0.8853
29775SOL    HW293368   9.178   2.066   1.322 -0.3524  0.5491 -2.3327
29776SOL     OW93369   8.586   9.254   1.679  0.2704  0.0681  0.2574
29776SOL    HW193370   8.510   9.312   1.686  2.1275  2.6518  0.5768
29776SOL    HW293371   8.620   9.270   1.591  0.9457 -0.3736  0.4347
29777SOL     OW93372   9.302   9.875   8.713 -0.0340  0.0229 -0.0483
29777SOL    HW193373   9.276   9.834   8.796  0.3319 -1.3059 -0.5695
29777SOL    HW293374   9.377   9.823   8.683 -0.5780  0.0732 -1.5497
29778SOL     OW93375   8.500   0.876   9.008 -0.1485  0.2374  0.1750
29778SOL    HW193376   8.468   0.835   8.927 -1.3575  0.2865  0.6118
29778SOL    HW293377   8.422   0.910   9.050  0.8078  3.4182 -0.3465
29779SOL     OW93378   3.949   7.668   1.105  0.4229 -0.0274 -0.2683
29779SOL    HW193379   3.952   7.764   1.111  0.4199 -0.1061  1.3292
29779SOL    HW293380   3.856   7.647   1.107  0.4478 -0.1317  1.3996
29780SOL     OW93381   3.240   1.198   7.296  0.1037 -0.3438 -0.0825
29780SOL    HW193382   3.235   1.195   7.391  0.9822  0.8066  0.0125
29780SOL    HW293383   3.200   1.115   7.268 -0.0014 -0.7823  1.2751
29781SOL     OW93384   3.230   7.104   6.286 -0.1590 -0.3462 -0.2088
29781SOL    HW193385   3.143   7.129   6.318 -0.2838 -0.0015 -0.7997
29781SOL    HW293386   3.279   7.081   6.365 -0.3629  0.7689  0.2623
29782SOL     OW93387   5.542   7.372   6.233  0.1113 -0.1635 -0.0943
29782SOL    HW193388   5.578   7.460   6.244 -0.8098  0.0455  1.5824
29782SOL    HW293389   5.494   7.376   6.150  1.6594  0.3195 -1.0030
29783SOL     OW93390   9.428   4.889   3.815  0.3495 -0.2206 -0.1575
29783SOL    HW193391   9.460   4.842   3.738 -0.3692 -2.1117  0.6232
29783SOL    HW293392   9.482   4.857   3.887 -1.2624 -1.2381  0.6809
29784SOL     OW93393   9.294   7.563   6.477 -0.4256 -0.2029  0.2209
29784SOL    HW193394   9.238   7.638   6.454 -3.8487 -1.8311  2.4119
29784SOL    HW293395   9.327   7.585   6.564 -0.6672 -0.8257  0.4710
29785SOL     OW93396   0.690   4.616   1.398 -0.5908  0.3099 -0.0615
29785SOL    HW193397   0.696   4.689   1.337 -1.6459  1.0424  0.6908
29785SOL    HW293398   0.782   4.595   1.418 -0.2717  1.3613 -0.3534
29786SOL     OW93399   8.202   1.279   9.174 -0.2414  0.7083 -0.2265
29786SOL    HW193400   8.109   1.301   9.169  0.0549  1.9251 -0.5478
29786SOL    HW293401   8.204   1.184   9.164 -1.6065  0.3857  1.8621
29787SOL     OW93402   0.399   9.460   3.467 -0.0104  0.1282  0.3068
29787SOL    HW193403   0.417   9.531   3.528 -0.2145  0.3379  0.1229
29787SOL    HW293404   0.308   9.434   3.486 -0.8165  1.5573 -1.2574
29788SOL     OW93405   4.886   5.330   6.634  0.5833  0.6757 -0.1648
29788SOL    HW193406   4.816   5.385   6.668  0.9826  1.2424 -0.2611
29788SOL    HW293407   4.865   5.320   6.541  1.2898  1.8575 -0.4611
29789SOL     OW93408   1.187   0.488   7.590  0.2881 -0.4493  0.4228
29789SOL    HW193409   1.130   0.533   7.652  0.9755  0.4200  0.4541
29789SOL    HW293410   1.169   0.532   7.506  0.6375 -0.4136  0.3642
29790SOL     OW93411   8.832   8.083  10.216 -0.2329  0.2568  0.2180
29790SOL    HW193412   8.777   8.065  10.292 -0.5618  0.7691  0.1081
29790SOL    HW293413   8.902   8.019  10.221 -0.6415 -0.1696  0.5628
29791SOL     OW93414   4.877   5.536   2.089 -0.5231  0.7881 -0.2847
29791SOL    HW193415   4.863   5.629   2.107 -2.9278  0.7023 -1.2925
29791SOL    HW293416   4.904   5.533   1.997 -1.0670  0.4643 -0.4388
29792SOL     OW93417   2.777   3.694   5.095  0.6224 -0.3958 -0.7541
29792SOL    HW193418   2.812   3.781   5.116  1.1361 -0.9120  0.6350
29792SOL    HW293419   2.756   3.656   5.180 -0.3854 -1.3212 -1.3988
29793SOL     OW93420   0.364   2.509   5.094 -0.1672  0.0239 -0.6226
29793SOL    HW193421   0.399   2.578   5.151  1.1211 -0.5486 -0.6843
29793SOL    HW293422   0.440   2.455   5.072 -1.4851 -2.8454  1.3114
29794SOL     OW93423   1.912   6.358   7.329  0.0124  0.3196  0.7912
29794SOL    HW193424   1.846   6.321   7.387 -0.6283  0.5576  0.2416
29794SOL    HW293425   1.873   6.440   7.299 -0.2802 -0.4194 -1.0056
29795SOL     OW93426   7.898   4.842   6.898 -0.6401  0.7943 -0.5101
29795SOL    HW193427   7.911   4.872   6.808  2.0435  2.4238  0.3103
29795SOL    HW293428   7.894   4.746   6.890  1.4199  0.7635 -2.2350
29796SOL     OW93429   0.769   7.867   8.268 -0.0901 -0.7581 -0.4827
29796SOL    HW193430   0.852   7.914   8.258 -0.0911 -0.6209  0.1355
29796SOL    HW293431   0.709   7.932   8.305 -1.0357 -0.2781 -2.6892
29797SOL     OW93432   1.959   9.375   0.151  0.5564  0.0796  0.2609
29797SOL    HW193433   1.918   9.323   0.082 -1.6896  0.4790  1.1909
29797SOL    HW293434   2.035   9.415   0.110 -0.5693  0.1071 -1.9025
29798SOL     OW93435   0.223   8.197   0.240  0.4723 -0.4614 -0.0718
29798SOL    HW193436   0.257   8.138   0.172  1.5287 -0.3109  0.3069
29798SOL    HW293437   0.300   8.221   0.291  0.0340  1.0823 -0.0924
29799SOL     OW93438   7.050   4.945   5.190  0.8032  0.2029 -0.1526
29799SOL    HW193439   7.001   4.986   5.119  1.8159 -1.2114 -1.7570
29799SOL    HW293440   7.039   5.004   5.265 -1.5111  1.0098 -1.0462
29800SOL     OW93441   1.836   4.515   6.574  0.3354 -0.1012  0.6670
29800SOL    HW193442   1.882   4.470   6.645  1.9266 -0.8136 -0.7251
29800SOL    HW293443   1.798   4.444   6.522  2.3356  0.0567 -1.1965
29801SOL     OW93444   7.837   7.754   1.212  1.0017  0.0598 -0.0556
29801SOL    HW193445   7.877   7.770   1.127 -0.3106 -0.2228 -0.7479
29801SOL    HW293446   7.743   7.746   1.194  0.6339  0.4929  1.4818
29802SOL     OW93447   4.736   5.136   1.105 -0.2984 -0.1043 -0.0592
29802SOL    HW193448   4.778   5.193   1.169 -1.3356  0.7761 -0.1283
29802SOL    HW293449   4.790   5.057   1.104  0.4814  0.3919  0.9311
29803SOL     OW93450   0.396   4.845   4.029 -0.1955  0.4824  0.5590
29803SOL    HW193451   0.305   4.875   4.034  0.1458  2.0416 -1.4062
29803SOL    HW293452   0.390   4.751   4.011 -1.4860  0.8554 -1.1946
29804SOL     OW93453   2.715   3.878   3.562  0.5358  0.3579 -0.0346
29804SOL    HW193454   2.692   3.969   3.545  2.7348  0.9234 -0.3053
29804SOL    HW293455   2.724   3.873   3.657  0.7781  0.5234 -0.0485
29805SOL     OW93456   2.772   7.820   9.238 -0.8835 -0.2449  1.1120
29805SOL    HW193457   2.845   7.878   9.257 -1.8692  1.2077  0.6789
29805SOL    HW293458   2.743   7.789   9.323 -2.5632  2.7941  1.8089
29806SOL     OW93459   7.837   7.202   3.357  0.0675  0.1059 -0.5947
29806SOL    HW193460   7.743   7.185   3.367  0.3808 -0.6733  1.2935
29806SOL    HW293461   7.871   7.125   3.312 -0.3088  0.8126 -2.1751
29807SOL     OW93462   5.171   8.514   5.432  0.0300  0.0881  0.2322
29807SOL    HW193463   5.131   8.600   5.443 -1.1287 -0.5873  1.5052
29807SOL    HW293464   5.141   8.463   5.507 -0.1461 -1.7484 -1.0182
29808SOL     OW93465  10.154   1.888   0.806 -0.5843  0.5117  0.2219
29808SOL    HW193466  10.145   1.794   0.824 -0.0083  0.2600 -0.7179
29808SOL    HW293467  10.071   1.926   0.834 -0.6389 -0.2038  1.0669
29809SOL     OW93468   3.372   9.020   1.322  0.5326 -0.3498 -0.4804
29809SOL    HW193469   3.379   8.985   1.234  1.2890 -1.2656 -0.0766
29809SOL    HW293470   3.389   8.945   1.379  1.2401  0.4710  0.4341
29810SOL     OW93471   1.341   8.810  10.019 -0.0221  0.1670  0.4283
29810SOL    HW193472   1.349   8.897  10.057 -0.6649  1.2340 -1.7259
29810SOL    HW293473   1.391   8.753  10.078  1.5614  2.1985  1.1567
29811SOL     OW93474   3.000   0.222   5.144 -0.0050 -0.2575  0.1607
29811SOL    HW193475   3.027   0.170   5.068  0.9836 -0.1163  0.4069
29811SOL    HW293476   2.928   0.275   5.112  0.1518 -0.4776 -0.5811
29812SOL     OW93477   8.637   3.808   6.632  0.3443 -0.4417  0.7483
29812SOL    HW193478   8.731   3.811   6.611  0.6070  1.2556  1.9541
29812SOL    HW293479   8.634   3.777   6.723 -0.1543  0.8962  1.2007
29813SOL     OW93480   8.855   7.422   9.797  0.3165  0.4799 -0.7521
29813SOL    HW193481   8.861   7.380   9.711  0.6848 -0.7927 -0.1229
29813SOL    HW293482   8.945   7.446   9.818  0.1157  1.5762 -1.0840
29814SOL     OW93483   1.921   1.629   0.015  0.6244 -0.9271  0.1442
29814SOL    HW193484   1.832   1.595   0.014 -0.4437  1.6454  0.1738
29814SOL    HW293485   1.967   1.575   0.080 -1.6255 -0.6776  2.0653
29815SOL     OW93486   1.050   4.809   2.815 -0.0536  0.0796 -0.2666
29815SOL    HW193487   1.121   4.752   2.787  0.5072  0.1250  0.9608
29815SOL    HW293488   1.073   4.895   2.780 -0.2078 -0.1801 -1.0048
29816SOL     OW93489   1.316   4.693   1.974  0.0992  0.1576  0.1671
29816SOL    HW193490   1.292   4.776   1.935 -1.1012 -0.4678 -0.5025
29816SOL    HW293491   1.351   4.641   1.902  1.1393  0.1724  0.6399
29817SOL     OW93492   9.227   1.316   5.453  0.1140  0.0734  0.0476
29817SOL    HW193493   9.285   1.372   5.504  2.4135 -1.7146 -0.4571
29817SOL    HW293494   9.186   1.376   5.390  1.9648  1.3249 -0.0472
29818SOL     OW93495   7.709   8.106   8.595 -0.5456 -0.2498  0.9219
29818SOL    HW193496   7.764   8.175   8.557 -1.6530 -0.0422 -0.3955
29818SOL    HW293497   7.670   8.146   8.673  0.2456 -0.0057  1.1951
29819SOL     OW93498   9.107   4.828   9.879 -0.0526 -0.3077 -0.5676
29819SOL    HW193499   9.134   4.760   9.818 -2.0348 -0.5560 -1.2550
29819SOL    HW293500   9.011   4.825   9.877 -0.1769  0.8051  1.3167
29820SOL     OW93501   7.358   5.439   5.216 -0.0162 -0.0835 -0.2552
29820SOL    HW193502   7.367   5.352   5.254 -3.4389  0.0001  1.0891
29820SOL    HW293503   7.356   5.498   5.292 -1.9479  0.6550 -0.8286
29821SOL     OW93504   1.861   9.667   6.670 -0.1064  0.2124 -0.5161
29821SOL    HW193505   1.783   9.713   6.700  0.3043  0.6797 -0.1464
29821SOL    HW293506   1.829   9.584   6.635 -0.7957  0.5321 -0.6452
29822SOL     OW93507   5.812   3.708   0.932  0.4533  0.1789 -0.9849
29822SOL    HW193508   5.858   3.738   0.854  1.5181 -1.7324 -1.1424
29822SOL    HW293509   5.871   3.644   0.972 -2.2161 -2.9597 -1.5927
29823SOL     OW93510   8.565   9.131   8.294 -0.0769  0.3033  0.1719
29823SOL    HW193511   8.513   9.107   8.370  0.4250 -0.0311  0.4136
29823SOL    HW293512   8.619   9.204   8.323  0.9789 -0.5861  0.5060
29824SOL     OW93513   3.250   7.182   3.189 -0.9817  0.1886  0.1800
29824SOL    HW193514   3.287   7.270   3.197 -1.8882  0.4202  3.1362
29824SOL    HW293515   3.242   7.151   3.279  0.4774 -3.4847 -0.7492
29825SOL     OW93516   3.220   0.122   0.249  0.3282  0.5261  0.1803
29825SOL    HW193517   3.133   0.084   0.263 -0.1734  0.5350 -2.3833
29825SOL    HW293518   3.202   0.213   0.226  0.7038 -0.1093 -3.0626
29826SOL     OW93519   8.728   8.927   8.187  0.0155 -0.1574 -0.1018
29826SOL    HW193520   8.778   8.997   8.229 -1.6694  0.4461  1.0019
29826SOL    HW293521   8.637   8.946   8.210 -0.8086 -0.8843 -2.5133
29827SOL     OW93522   0.480   2.007   4.616  0.9466 -0.1504  0.5538
29827SOL    HW193523   0.395   2.002   4.659  0.3697 -0.3924 -0.5749
29827SOL    HW293524   0.483   2.095   4.578  0.7672 -0.4842 -0.2554
29828SOL     OW93525   0.682   2.234   5.545 -0.1419 -0.0877 -0.5445
29828SOL    HW193526   0.709   2.143   5.529  1.1998  0.1827  0.0563
29828SOL    HW293527   0.639   2.260   5.464  1.1087 -0.6890 -1.4445
29829SOL     OW93528   0.232  10.261   7.311  0.3525 -0.3648  0.6425
29829SOL    HW193529   0.149  10.263   7.265 -0.2820  0.1469  1.7629
29829SOL    HW293530   0.256  10.168   7.316 -0.0893 -0.5005  0.2066
29830SOL     OW93531   1.528   1.163   2.734 -0.2503 -0.0171  0.2204
29830SOL    HW193532   1.550   1.081   2.689  0.9738 -0.2502  1.1890
29830SOL    HW293533   1.454   1.198   2.684  0.5417 -0.6524 -1.4807
29831SOL     OW93534   7.192   4.582   1.624  0.4663 -0.4692 -0.2097
29831SOL    HW193535   7.209   4.550   1.713 -1.4345 -1.5077 -0.1743
29831SOL    HW293536   7.098   4.594   1.621  0.6378  0.7513 -1.7303
29832SOL     OW93537   9.891   1.715   5.110  0.0527  0.4657  0.5763
29832SOL    HW193538   9.919   1.682   5.196 -0.1665 -0.4881  0.2916
29832SOL    HW293539   9.796   1.705   5.110 -0.0509  1.3658  0.5800
29833SOL     OW93540   0.514  10.252   0.010  0.0966 -0.0354  0.1169
29833SOL    HW193541   0.437  10.196   0.006  0.9255 -1.1850 -0.2842
29833SOL    HW293542   0.539  10.252   0.102 -1.2338  1.5867  0.5268
29834SOL     OW93543   7.660   7.640   6.343  0.2009 -0.5166 -0.4795
29834SOL    HW193544   7.673   7.680   6.430  2.0469 -0.9452 -0.5144
29834SOL    HW293545   7.627   7.712   6.289  1.8048  0.5517 -0.1117
29835SOL     OW93546   4.795   3.512   0.302 -0.3044 -0.3422 -0.5720
29835SOL    HW193547   4.891   3.517   0.309 -0.2141 -2.0475 -0.2423
29835SOL    HW293548   4.776   3.543   0.214  0.4477  1.0298 -0.2705
29836SOL     OW93549   0.339   7.652   0.883 -0.4220  0.7365 -0.1841
29836SOL    HW193550   0.331   7.700   0.800 -0.3988  1.2437  0.1042
29836SOL    HW293551   0.422   7.605   0.876 -0.2495  1.0574 -0.3038
29837SOL     OW93552   9.481   9.093   3.462 -0.3832 -0.3027  0.3445
29837SOL    HW193553   9.449   9.073   3.374  0.0568  0.0056  0.1090
29837SOL    HW293554   9.553   9.031   3.476  0.5540  0.6459 -0.1280
29838SOL     OW93555   4.208   5.223   1.430  0.2555  0.5705 -0.5618
29838SOL    HW193556   4.259   5.304   1.424  1.6558 -0.3312 -1.6029
29838SOL    HW293557   4.119   5.252   1.449  1.0554  2.2350  0.9293
29839SOL     OW93558   9.643   2.103   6.085 -0.2636  0.2474  0.5146
29839SOL    HW193559   9.660   2.078   5.994  0.4043  1.2271  0.3559
29839SOL    HW293560   9.707   2.171   6.104 -2.6136  2.5612  0.6155
29840SOL     OW93561   8.518   8.765   5.979 -0.1256 -0.3132 -0.2805
29840SOL    HW193562   8.523   8.712   6.058 -2.0987  0.9677  0.7784
29840SOL    HW293563   8.448   8.828   5.996  0.4202  1.0035 -2.4614
29841SOL     OW93564   3.354   5.918   7.825 -0.3576  0.3496  0.5121
29841SOL    HW193565   3.323   5.996   7.779  2.5601  1.4635  0.2230
29841SOL    HW293566   3.400   5.952   7.901  0.7918 -1.0793  0.4997
29842SOL     OW93567   9.183   3.421   4.955  0.1226 -0.3203  0.2900
29842SOL    HW193568   9.143   3.465   4.880 -1.4135 -0.4151  1.0080
29842SOL    HW293569   9.230   3.490   5.002  0.7498 -0.1830 -0.5224
29843SOL     OW93570   6.019   2.639   9.990 -0.2293  0.3322 -0.7537
29843SOL    HW193571   5.962   2.570  10.023  0.9339  0.4084  1.6328
29843SOL    HW293572   6.031   2.698  10.064  2.0466  0.8963 -1.4795
29844SOL     OW93573   0.647   4.835   1.211 -0.9662  0.5222 -0.0273
29844SOL    HW193574   0.716   4.898   1.234 -0.6932  0.8820 -1.6820
29844SOL    HW293575   0.663   4.816   1.118 -0.8068 -2.3175  0.5175
29845SOL     OW93576   0.483   3.180   9.578  0.4935  0.8592  0.3065
29845SOL    HW193577   0.520   3.212   9.660  0.6226 -0.5950  0.8468
29845SOL    HW293578   0.487   3.255   9.518  2.5481  1.2776  0.9086
29846SOL     OW93579   5.750   4.692   4.328 -0.1085  0.2431  0.2091
29846SOL    HW193580   5.762   4.787   4.322  1.1985 -0.0101 -2.1856
29846SOL    HW293581   5.783   4.670   4.415 -0.4733  1.9601  0.8374
29847SOL     OW93582   7.036  10.213   3.245 -0.4433 -0.8360 -1.0574
29847SOL    HW193583   7.006  10.124   3.263  0.8687 -0.8221  1.7675
29847SOL    HW293584   7.084  10.239   3.324  0.8786  1.6880 -2.5484
29848SOL     OW93585   0.727   3.913   8.384 -0.0770 -0.0275  0.0188
29848SOL    HW193586   0.646   3.960   8.399 -0.5911 -0.6518 -0.7220
29848SOL    HW293587   0.795   3.969   8.422 -0.8008  0.6955  0.2726
29849SOL     OW93588   5.998   9.357   4.187 -0.2733  0.5624 -0.4043
29849SOL    HW193589   6.017   9.423   4.254 -1.5034 -1.6432  2.3022
29849SOL    HW293590   5.904   9.365   4.172 -0.3704 -0.3457 -0.3005
29850SOL     OW93591   7.483   9.693   3.473 -0.4913  0.6956 -0.2934
29850SOL    HW193592   7.500   9.743   3.393  0.8875 -0.8773 -1.0381
29850SOL    HW293593   7.397   9.653   3.459  0.5538 -1.1517 -1.9159
29851SOL     OW93594  10.238   7.812   0.311 -0.4025 -0.3724  0.4046
29851SOL    HW193595  10.278   7.895   0.285  0.7181 -1.1683 -0.4296
29851SOL    HW293596  10.202   7.830   0.399  0.2983  0.8309  0.4636
29852SOL     OW93597   9.181   2.918   2.960  0.4497 -0.3142 -0.1740
29852SOL    HW193598   9.151   3.008   2.966  1.6040  0.1155 -0.5241
29852SOL    HW293599   9.244   2.908   3.031  2.4431  0.0540 -1.8019
29853SOL     OW93600   3.398   9.788   7.825 -0.1910  0.2214 -0.0790
29853SOL    HW193601   3.324   9.801   7.884  0.2083 -1.4851  0.8656
29853SOL    HW293602   3.474   9.819   7.875  0.0606 -0.6290  0.1002
29854SOL     OW93603  10.101   7.137   6.120 -0.4146  0.0601 -0.0669
29854SOL    HW193604  10.035   7.108   6.183 -1.0967  1.5736 -0.0490
29854SOL    HW293605  10.078   7.228   6.101  1.1105  0.3202 -0.8060
29855SOL     OW93606   1.400   2.728   2.751 -0.3011  0.4086 -0.3409
29855SOL    HW193607   1.323   2.731   2.693 -0.2889 -0.6842 -0.4348
29855SOL    HW293608   1.364   2.735   2.839 -0.6149 -0.9993 -0.3335
29856SOL     OW93609   6.647   1.397   1.006 -0.1772  0.2685  0.3118
29856SOL    HW193610   6.736   1.389   0.971 -0.7584 -0.0033 -1.1680
29856SOL    HW293611   6.620   1.308   1.024 -0.0738  0.3703  0.9916
29857SOL     OW93612   4.291   3.651   2.742 -0.1422  0.5708 -0.2136
29857SOL    HW193613   4.379   3.683   2.761  0.3208 -0.2623 -0.8838
29857SOL    HW293614   4.285   3.567   2.787 -0.2838  0.2228 -0.8700
29858SOL     OW93615   5.043   7.891   6.978 -1.0022 -0.2285  0.2120
29858SOL    HW193616   4.967   7.945   6.955 -0.1567  0.1599 -1.8489
29858SOL    HW293617   5.118   7.940   6.945 -0.2323 -2.8776 -2.3414
29859SOL     OW93618   3.467   5.990   0.373  0.0191 -0.7821 -0.9243
29859SOL    HW193619   3.542   6.040   0.405 -0.1431 -0.2998 -1.2809
29859SOL    HW293620   3.391   6.034   0.412 -0.0619 -1.4637 -0.3081
29860SOL     OW93621   9.790   9.955   9.656  0.0550  0.2196  0.0760
29860SOL    HW193622   9.804  10.034   9.604 -0.1534  0.1322 -0.1137
29860SOL    HW293623   9.777   9.886   9.590 -0.9512  0.2361  0.2441
29861SOL     OW93624   4.956   9.906   2.303  0.1416  0.2464  0.4314
29861SOL    HW193625   5.013   9.947   2.237 -0.2902 -1.1094 -0.8543
29861SOL    HW293626   4.870   9.901   2.260 -0.3359  0.0160  1.3998
29862SOL     OW93627  10.152   4.189   5.691  0.0507 -0.6219 -0.6878
29862SOL    HW193628  10.128   4.281   5.703 -1.2414 -0.8465 -1.4277
29862SOL    HW293629  10.229   4.192   5.634 -0.1739 -0.0147 -0.9652
29863SOL     OW93630   0.679   7.888   6.323  0.9313  1.1556 -0.3341
29863SOL    HW193631   0.742   7.906   6.392  2.7421 -2.5314 -0.8140
29863SOL    HW293632   0.723   7.915   6.242  1.0951  0.4097 -0.4984
29864SOL     OW93633   2.271   3.472   1.050  0.6173 -0.4816 -0.6958
29864SOL    HW193634   2.207   3.439   0.987  0.1871 -1.1904  0.0969
29864SOL    HW293635   2.354   3.436   1.021  0.5473 -0.1500 -1.3149
29865SOL     OW93636   1.822   3.105   3.456  0.2894  0.7194  0.4239
29865SOL    HW193637   1.912   3.079   3.476 -0.3474 -1.8551  0.3075
29865SOL    HW293638   1.769   3.029   3.480 -1.5659  1.1324 -1.9624
29866SOL     OW93639   4.673   9.608   7.853  0.3068  0.7265 -0.3131
29866SOL    HW193640   4.732   9.671   7.894  1.6051 -1.2471  1.0763
29866SOL    HW293641   4.587   9.627   7.889  1.1445  0.0832  2.2071
29867SOL     OW93642   7.644   1.863   9.755  0.9793  0.3424  0.3699
29867SOL    HW193643   7.633   1.826   9.668  0.6778 -0.3111  0.6795
29867SOL    HW293644   7.621   1.955   9.745  1.3808  0.3703 -0.3329
29868SOL     OW93645   4.781   9.716   5.740  0.5186 -0.6111 -0.5313
29868SOL    HW193646   4.813   9.681   5.823  1.2827  0.4157 -0.3687
29868SOL    HW293647   4.825   9.664   5.673  2.5036  0.6839 -0.3105
29869SOL     OW93648   3.418   4.917  10.224  0.1442 -0.5271 -0.0977
29869SOL    HW193649   3.383   4.963  10.300 -0.2955 -2.0755  0.6688
29869SOL    HW293650   3.405   4.824  10.243  2.0135 -1.0537 -1.0864
29870SOL     OW93651   5.426   1.390   0.601 -0.2602 -0.3218 -0.4041
29870SOL    HW193652   5.336   1.393   0.635 -0.2299 -2.2004 -0.0781
29870SOL    HW293653   5.416   1.368   0.508 -0.1493  0.2254 -0.5516
29871SOL     OW93654   8.393   2.051   9.000  0.7844 -0.2009 -0.0475
29871SOL    HW193655   8.394   2.086   8.911  0.5310 -1.4382 -0.5500
29871SOL    HW293656   8.329   1.979   8.997  0.2063  0.2193  1.3254
29872SOL     OW93657   9.585   0.156   7.554  0.1659 -0.3460 -0.1440
29872SOL    HW193658   9.545   0.183   7.637 -0.4182  1.5869 -0.9888
29872SOL    HW293659   9.672   0.194   7.556 -0.0210  0.1158 -0.6058
29873SOL     OW93660   1.048   4.899   0.218  0.5703 -0.1232  0.3951
29873SOL    HW193661   1.115   4.935   0.160 -0.6659  0.2437 -0.8535
29873SOL    HW293662   1.094   4.833   0.270  1.4863 -1.4197 -1.9051
29874SOL     OW93663   2.328   9.165   9.244 -0.3192  0.4987  0.0244
29874SOL    HW193664   2.384   9.139   9.317 -2.5801 -1.3622  1.2537
29874SOL    HW293665   2.318   9.259   9.253  1.3573  0.6559  0.6200
29875SOL     OW93666   4.783   4.683   4.934  0.4607  0.1571  0.1979
29875SOL    HW193667   4.788   4.599   4.978  1.6583  0.2994  0.3668
29875SOL    HW293668   4.872   4.718   4.938  0.4359  0.5380 -1.6124
29876SOL     OW93669   6.874   0.531   4.939 -0.2230  0.0065 -0.2163
29876SOL    HW193670   6.824   0.553   4.860 -1.4617 -1.6828  0.0362
29876SOL    HW293671   6.942   0.470   4.909 -0.2125 -0.0431 -0.0945
29877SOL     OW93672   2.559   6.351   6.941 -0.2828  0.4553 -0.2404
29877SOL    HW193673   2.531   6.347   7.032 -0.5814 -0.6876 -0.3666
29877SOL    HW293674   2.654   6.338   6.945 -0.6956 -4.0796 -0.2940
29878SOL     OW93675   5.145   2.603  10.253  0.4771  0.0264  1.1055
29878SOL    HW193676   5.161   2.516  10.216 -0.2527  0.6718 -0.8747
29878SOL    HW293677   5.104   2.585  10.338 -0.9484 -1.6092  0.1601
29879SOL     OW93678   0.637   1.747   3.399  0.4103  0.3981  0.1581
29879SOL    HW193679   0.553   1.706   3.374  0.7731 -2.2647  2.6991
29879SOL    HW293680   0.669   1.787   3.319 -2.3538 -0.2526 -1.3985
29880SOL     OW93681   0.818   1.559   0.438  0.8746  0.5569  0.8104
29880SOL    HW193682   0.779   1.479   0.404  0.4922  0.9452  0.3227
29880SOL    HW293683   0.869   1.531   0.514  0.6383 -0.1256  0.7179
29881SOL     OW93684   8.747   7.731   4.620 -0.7216  0.5115 -0.5411
29881SOL    HW193685   8.687   7.711   4.692 -0.2148  2.5367  0.5175
29881SOL    HW293686   8.710   7.810   4.579  0.2164  0.6821 -1.0795
29882SOL     OW93687   7.301   7.003   9.438  0.5362  0.4242 -0.3387
29882SOL    HW193688   7.215   7.002   9.480  0.7796  1.0030  0.1912
29882SOL    HW293689   7.291   6.944   9.363  0.0321 -0.4817  0.4097
29883SOL     OW93690   4.290   5.528   4.176 -0.3730  0.1580 -0.4410
29883SOL    HW193691   4.251   5.608   4.210 -1.5617 -0.9696  1.0341
29883SOL    HW293692   4.379   5.552   4.151 -0.5024  1.7891  0.5474
29884SOL     OW93693   1.253   6.112   4.730 -0.3558  0.2910  0.0171
29884SOL    HW193694   1.277   6.069   4.812  0.7198  1.2474  0.2405
29884SOL    HW293695   1.166   6.080   4.710  0.6956 -2.6220 -0.3033
29885SOL     OW93696   5.203   8.172   1.624  0.2203 -0.5660 -0.4248
29885SOL    HW193697   5.198   8.101   1.560 -1.0218 -1.1485  0.2826
29885SOL    HW293698   5.170   8.249   1.577 -0.2336 -0.8814 -0.6352
29886SOL     OW93699   8.337   4.739   7.781  0.5331  0.3517  0.0101
29886SOL    HW193700   8.414   4.782   7.743  1.1796 -0.9472 -0.2109
29886SOL    HW293701   8.326   4.659   7.729 -0.3029 -0.0355  0.7544
29887SOL     OW93702   0.769   7.342   2.327 -0.1517 -0.0160 -0.6148
29887SOL    HW193703   0.853   7.328   2.283  0.1419 -1.1173  0.2286
29887SOL    HW293704   0.782   7.420   2.381  0.9326 -1.0957  0.7895
29888SOL     OW93705   7.598   9.309   7.554 -0.6821  0.0547 -0.1547
29888SOL    HW193706   7.590   9.214   7.545  0.6672 -0.0798 -0.1665
29888SOL    HW293707   7.684   9.322   7.593 -0.6323  1.2926 -0.6271
29889SOL     OW93708   7.951   2.870   0.714  0.5744 -0.5974  0.2187
29889SOL    HW193709   8.027   2.842   0.663  0.4273 -2.3688  0.9006
29889SOL    HW293710   7.951   2.811   0.790  1.0927  2.2037  2.6015
29890SOL     OW93711   4.558   2.482   9.906 -0.0792  0.0752  0.1887
29890SOL    HW193712   4.618   2.453   9.837  1.9189 -1.0453  2.2656
29890SOL    HW293713   4.473   2.448   9.880  0.9494 -1.8760 -0.8459
29891SOL     OW93714   6.947   7.525   7.007  0.0768  0.5395  0.1980
29891SOL    HW193715   6.899   7.464   7.063 -2.4807  1.0762 -1.2596
29891SOL    HW293716   6.879   7.572   6.959  2.1025  1.0781 -2.3481
29892SOL     OW93717   6.601  10.206   8.240  0.2017 -0.0376 -0.6853
29892SOL    HW193718   6.548  10.251   8.174 -2.0701  0.4796  1.3753
29892SOL    HW293719   6.679  10.261   8.248 -0.9181  1.6287 -0.7310
29893SOL     OW93720   7.079   6.990   3.526  0.0189 -0.4613  0.7634
29893SOL    HW193721   7.110   6.899   3.524  0.9300 -0.2736 -3.8240
29893SOL    HW293722   7.147   7.037   3.574  1.4365 -1.6667  0.0084
29894SOL     OW93723   8.108  10.088   3.890 -0.2331  0.3429  0.8422
29894SOL    HW193724   8.054  10.010   3.878 -2.5715  1.8373  1.1839
29894SOL    HW293725   8.161  10.093   3.810  0.0913 -1.6444  0.8870
29895SOL     OW93726   0.161   7.979   4.723 -0.2704  0.0799  0.1952
29895SOL    HW193727   0.242   8.025   4.700 -0.7543  0.9697  0.2575
29895SOL    HW293728   0.183   7.932   4.804  0.9352 -1.7518 -1.0897
29896SOL     OW93729   7.888   6.635   0.336 -0.0566  0.5124 -0.3989
29896SOL    HW193730   7.886   6.651   0.431  0.3903 -1.4077 -0.0153
29896SOL    HW293731   7.806   6.672   0.303 -2.1282 -2.0852  1.3723
29897SOL     OW93732   9.058   9.275   7.858 -0.1437 -0.3977 -0.0210
29897SOL    HW193733   9.093   9.229   7.782 -1.2243 -0.7690 -0.3154
29897SOL    HW293734   9.030   9.206   7.918 -0.3121 -0.1221  0.2245
29898SOL     OW93735  10.170   1.865   8.860 -0.0207 -0.2353  0.5954
29898SOL    HW193736  10.149   1.772   8.851 -0.0490 -0.4589  2.5186
29898SOL    HW293737  10.266   1.868   8.860 -0.0225 -0.2271  0.1755
29899SOL     OW93738   3.550   8.486   1.758 -0.0466 -0.4942 -0.0196
29899SOL    HW193739   3.478   8.535   1.798  1.3580  0.9699  0.8556
29899SOL    HW293740   3.567   8.414   1.818 -1.2349 -1.3022 -0.6153
29900SOL     OW93741   4.004   3.245   7.107  0.3396 -0.4462  0.9206
29900SOL    HW193742   4.039   3.160   7.131 -1.0742 -1.5853 -0.7526
29900SOL    HW293743   3.918   3.249   7.150  0.6159  0.3829  1.4232
29901SOL     OW93744   4.231   7.890   3.288  0.0485  0.3682  0.0186
29901SOL    HW193745   4.222   7.864   3.196 -0.3707  0.5256  0.0133
29901SOL    HW293746   4.325   7.884   3.305  0.3091  1.6904 -0.8210
29902SOL     OW93747   7.803   4.975   4.204  0.4407  0.5750 -0.2635
29902SOL    HW193748   7.722   4.939   4.167  0.4871 -0.0566  0.2420
29902SOL    HW293749   7.872   4.917   4.172  0.4854  0.0215  0.7891
29903SOL     OW93750   5.450   1.741   8.498  0.1342 -0.3230  0.0640
29903SOL    HW193751   5.457   1.829   8.460 -2.5296 -0.0190  0.1199
29903SOL    HW293752   5.479   1.683   8.428  0.3038  0.5162 -0.5819
29904SOL     OW93753   9.673   0.333   6.738 -0.7634  0.2786 -0.1608
29904SOL    HW193754   9.716   0.256   6.700 -0.1862 -0.3313  1.6037
29904SOL    HW293755   9.690   0.403   6.675 -0.4412 -0.8008 -1.3290
29905SOL     OW93756   5.750  10.266   9.729 -0.3807  0.8367 -0.1302
29905SOL    HW193757   5.661  10.291   9.754 -0.2117  0.9114  0.3959
29905SOL    HW293758   5.756  10.174   9.754 -0.3135  0.8263 -0.1858
29906SOL     OW93759   9.959   2.767   3.815  0.4463 -0.0819 -0.1265
29906SOL    HW193760   9.970   2.797   3.905 -0.2126 -0.6041  0.1415
29906SOL    HW293761   9.911   2.838   3.772 -0.5943 -0.4625  0.3510
29907SOL     OW93762   4.626   3.353   5.591 -0.3063  0.1065 -0.3116
29907SOL    HW193763   4.590   3.362   5.680 -0.7739  1.2358 -0.5962
29907SOL    HW293764   4.700   3.293   5.602  0.8969  1.7625  1.2199
29908SOL     OW93765   4.390   0.470   9.081 -0.4625 -0.7456 -0.5451
29908SOL    HW193766   4.368   0.559   9.052 -1.0750 -0.8363 -0.3809
29908SOL    HW293767   4.469   0.481   9.134  0.1499 -0.4583 -1.4950
29909SOL     OW93768   2.517   7.358   9.999  0.0817  0.3222  0.1200
29909SOL    HW193769   2.572   7.396  10.068  1.1025 -0.1134 -0.4390
29909SOL    HW293770   2.542   7.406   9.920 -0.9869  0.7243  0.0063
29910SOL     OW93771   1.171   5.022   9.252  0.4885 -0.5882  0.1401
29910SOL    HW193772   1.080   5.019   9.223  1.0899  1.3883 -2.2793
29910SOL    HW293773   1.205   5.106   9.219  2.8086 -0.5829  2.2077
29911SOL     OW93774   5.475   6.106   6.556  0.2481  0.7433 -0.1910
29911SOL    HW193775   5.513   6.094   6.643  3.1264 -1.2365 -1.5656
29911SOL    HW293776   5.547   6.139   6.502 -0.9876  0.4091 -2.1702
29912SOL     OW93777   2.724   9.911   5.585  0.2721 -0.1523  0.2119
29912SOL    HW193778   2.690   9.918   5.496 -1.9249 -0.1430  0.9779
29912SOL    HW293779   2.785   9.984   5.594 -0.5753  0.7140 -0.8406
29913SOL     OW93780   3.831   0.055   8.789  0.2850  0.5100 -0.1934
29913SOL    HW193781   3.895  -0.012   8.766  0.3999  1.1707 -1.8889
29913SOL    HW293782   3.844   0.124   8.724  0.5311  2.4495  1.7967
29914SOL     OW93783   0.629   3.915   2.952 -0.2380 -0.0607  0.1969
29914SOL    HW193784   0.669   3.878   2.874 -0.7787 -1.5685  0.6054
29914SOL    HW293785   0.548   3.865   2.964 -1.4167  1.7950  0.3364
29915SOL     OW93786   9.308   5.384   8.735 -0.7293 -0.4330  0.0466
29915SOL    HW193787   9.334   5.421   8.651  0.4348 -1.0156  0.1275
29915SOL    HW293788   9.361   5.304   8.743  1.2635  0.9990  2.5471
29916SOL     OW93789   2.979   0.480   0.718 -0.0518  0.2732  0.5653
29916SOL    HW193790   3.012   0.561   0.756 -0.8980  0.5607  0.7017
29916SOL    HW293791   2.884   0.488   0.722 -0.1636 -1.0645  1.3326
29917SOL     OW93792   2.147   5.890   2.529 -0.1467 -0.1221  0.4842
29917SOL    HW193793   2.182   5.954   2.466  1.5783 -1.0730  0.4025
29917SOL    HW293794   2.095   5.830   2.475 -0.8779  0.5712  0.3986
29918SOL     OW93795   9.721   3.261   0.104  0.1568  0.0022  0.3156
29918SOL    HW193796   9.800   3.234   0.057  1.1627  0.2114  1.7895
29918SOL    HW293797   9.715   3.355   0.088 -0.6642 -0.2596 -1.0065
29919SOL     OW93798   9.870   0.156   7.401  0.2644  0.6880 -0.5391
29919SOL    HW193799   9.959   0.124   7.388  0.4924  1.2924 -0.5263
29919SOL    HW293800   9.817   0.109   7.336  0.9403  1.7967 -1.9544
29920SOL     OW93801   2.144   1.182   1.530  0.2538 -0.6924  0.2001
29920SOL    HW193802   2.191   1.228   1.460  0.5230 -0.3212  0.6236
29920SOL    HW293803   2.212   1.133   1.576  0.7700  2.0056  2.5651
29921SOL     OW93804   7.121   8.289   5.354  0.8029 -0.6655  0.0281
29921SOL    HW193805   7.131   8.355   5.422 -1.3432  0.3265 -0.5295
29921SOL    HW293806   7.202   8.296   5.303 -0.2076  3.3550 -1.4497
29922SOL     OW93807   1.828   3.775   2.865  0.0298  0.7311  0.0144
29922SOL    HW193808   1.757   3.721   2.899  2.1166 -1.6188  1.0201
29922SOL    HW293809   1.854   3.730   2.784  1.8027  0.1680  0.8562
29923SOL     OW93810   2.767   7.803   5.354  0.2614 -0.0979 -0.2806
29923SOL    HW193811   2.760   7.884   5.404  0.5330 -1.4494  2.1313
29923SOL    HW293812   2.861   7.791   5.340  0.3557 -0.7414  0.7782
29924SOL     OW93813   8.735   0.677   6.058  0.5348  0.1823  0.0619
29924SOL    HW193814   8.760   0.603   6.003 -0.3184 -0.1640  0.1210
29924SOL    HW293815   8.666   0.643   6.114  1.5655  0.4613  1.5525
29925SOL     OW93816   7.257   9.699  10.293  0.1861 -0.2777 -0.3093
29925SOL    HW193817   7.272   9.789  10.321  0.8531  0.1755 -1.9702
29925SOL    HW293818   7.343   9.657  10.297 -0.3011 -1.1992  1.4967
29926SOL     OW93819   7.787   2.869   2.675  0.2474  0.1301  0.4877
29926SOL    HW193820   7.695   2.844   2.668  0.1387  0.5267  0.4623
29926SOL    HW293821   7.798   2.895   2.766 -0.0356  1.4807  0.1538
29927SOL     OW93822   0.739   6.525   1.455 -0.6113  0.4969 -0.1088
29927SOL    HW193823   0.694   6.564   1.530 -1.5050  0.6499 -0.7058
29927SOL    HW293824   0.670   6.513   1.389  0.0002 -0.3850 -0.6096
29928SOL     OW93825   7.874   9.368   1.672 -0.7243 -0.1229  0.0344
29928SOL    HW193826   7.849   9.330   1.589 -0.4462  1.0986 -0.6426
29928SOL    HW293827   7.854   9.301   1.737 -2.6304 -0.4250 -0.8090
29929SOL     OW93828   0.903   2.580   9.004 -0.0313 -0.9769 -0.5305
29929SOL    HW193829   0.950   2.575   9.087 -0.6097  0.4138 -0.0898
29929SOL    HW293830   0.953   2.524   8.944 -0.8714 -3.9201  1.3208
29930SOL     OW93831   1.090   8.266   9.580 -0.0869  0.5362  0.1202
29930SOL    HW193832   1.077   8.172   9.584 -0.5019  0.6131  0.7080
29930SOL    HW293833   1.045   8.294   9.500  0.0475  0.2374 -0.0603
29931SOL     OW93834   3.862  10.126   2.459 -0.3997 -0.0369  0.1378
29931SOL    HW193835   3.819  10.043   2.436  0.5055 -0.3894 -0.3178
29931SOL    HW293836   3.902  10.109   2.544 -0.2482 -0.0533  0.0629
29932SOL     OW93837   8.109   9.605   4.698 -0.4048  0.3539  0.6185
29932SOL    HW193838   8.102   9.648   4.613 -1.4860  2.0738  1.5156
29932SOL    HW293839   8.097   9.512   4.679 -0.6883  0.7052 -1.0903
29933SOL     OW93840   5.397   4.997   3.868  0.4484 -0.0401  0.2713
29933SOL    HW193841   5.306   5.018   3.887  0.6601  0.8710  0.3198
29933SOL    HW293842   5.401   4.901   3.872 -0.5943 -0.1149 -0.1871
29934SOL     OW93843   5.304   3.194   8.863  0.0579  0.0402  0.4271
29934SOL    HW193844   5.330   3.128   8.928  1.0599 -0.4301 -0.4349
29934SOL    HW293845   5.362   3.179   8.789  0.6072  2.1822  0.3774
29935SOL     OW93846   1.225   7.025   5.014 -0.3883 -0.0595 -0.2568
29935SOL    HW193847   1.137   7.002   5.046 -1.2195  2.3145 -0.6177
29935SOL    HW293848   1.238   6.968   4.939 -1.7867 -0.2241 -0.4177
29936SOL     OW93849   4.312   9.307   5.295 -0.0763 -0.4855  0.2008
29936SOL    HW193850   4.379   9.375   5.288  0.8892 -1.5383 -1.5735
29936SOL    HW293851   4.242   9.347   5.347  0.9891  1.4075  0.2592
29937SOL     OW93852   1.454   4.056   7.164 -0.3468  0.0239 -0.0104
29937SOL    HW193853   1.385   4.090   7.107  0.1529 -0.3011 -0.8180
29937SOL    HW293854   1.453   4.114   7.240  0.0067  1.4093 -1.0392
29938SOL     OW93855   6.013   5.083   8.063 -0.2097 -0.5552  0.8386
29938SOL    HW193856   6.019   4.991   8.087 -0.5544 -1.0738 -0.9179
29938SOL    HW293857   5.939   5.088   8.003 -0.4663  0.9586  1.2188
29939SOL     OW93858   9.367   2.214   7.463  0.1527 -0.3536 -0.8515
29939SOL    HW193859   9.294   2.270   7.492  0.3558 -0.6558  0.2794
29939SOL    HW293860   9.392   2.250   7.378 -0.1872  0.8274 -0.4659
29940SOL     OW93861   7.469   0.439   6.668  0.0640  0.4381 -0.3730
29940SOL    HW193862   7.461   0.486   6.751 -2.9236  0.2921 -0.4724
29940SOL    HW293863   7.416   0.361   6.679  2.0868 -1.1928 -1.4344
29941SOL     OW93864   9.686   3.878   8.713  0.0643 -0.0599  0.2021
29941SOL    HW193865   9.668   3.786   8.734 -1.2578  0.3184  0.8282
29941SOL    HW293866   9.602   3.912   8.682 -0.0462  1.4735  1.9906
29942SOL     OW93867   3.171   3.380   7.813 -0.5026 -0.2723 -0.3389
29942SOL    HW193868   3.085   3.385   7.772  0.6256  1.0057 -2.7099
29942SOL    HW293869   3.186   3.467   7.850 -0.1051 -0.3915 -0.2118
29943SOL     OW93870  10.164   8.750   9.632 -0.8600  0.6709 -1.1262
29943SOL    HW193871  10.092   8.711   9.583  0.7669 -2.5953 -1.1795
29943SOL    HW293872  10.142   8.736   9.724 -0.7749  0.6029 -1.1160
29944SOL     OW93873   1.673   3.451   0.998  0.1749  0.1575 -0.0136
29944SOL    HW193874   1.624   3.442   1.080  0.1355 -0.0466 -0.0600
29944SOL    HW293875   1.637   3.530   0.958  0.4331  0.4516  0.3281
29945SOL     OW93876  10.019   8.908   7.119 -0.7507 -0.4831  0.0794
29945SOL    HW193877  10.012   8.822   7.078 -1.0159  0.2014 -1.3900
29945SOL    HW293878   9.929   8.942   7.119 -0.8080 -0.5961  1.5613
29946SOL     OW93879   0.579   7.427   3.532  0.3295  0.3716  0.6511
29946SOL    HW193880   0.538   7.391   3.611 -0.9137 -1.3210 -0.7038
29946SOL    HW293881   0.506   7.463   3.482  0.4117 -2.3086 -1.6178
29947SOL     OW93882   5.228   6.591   9.195  0.1099 -1.1593  0.2247
29947SOL    HW193883   5.257   6.648   9.266 -1.0644  2.2312 -1.7714
29947SOL    HW293884   5.146   6.553   9.226 -0.1897 -0.0222  0.8730
29948SOL     OW93885   0.198   2.019   3.449 -0.3854 -0.6742  0.3626
29948SOL    HW193886   0.244   2.075   3.512 -0.9323 -0.2972  0.4316
29948SOL    HW293887   0.114   2.000   3.489 -0.1116 -1.7785  0.4535
29949SOL     OW93888   7.041   5.905   4.019  0.1479  0.0875  0.4967
29949SOL    HW193889   7.133   5.879   4.017  0.0705 -0.1474 -0.8526
29949SOL    HW293890   7.043   5.997   4.045  0.8086  0.2457 -0.0889
29950SOL     OW93891   4.684   3.646   8.859  0.4991 -0.0061 -0.0177
29950SOL    HW193892   4.614   3.638   8.924  0.4197 -1.9596 -0.2635
29950SOL    HW293893   4.641   3.633   8.775  1.0206 -0.3861 -0.2329
29951SOL     OW93894   0.357   0.342   1.129  0.2385  0.1682 -0.2131
29951SOL    HW193895   0.449   0.365   1.138  0.2984 -0.0944 -0.1147
29951SOL    HW293896   0.337   0.292   1.209  0.0304  0.1660 -0.2643
29952SOL     OW93897   9.543   9.690   2.072 -0.5361 -0.0536 -0.5671
29952SOL    HW193898   9.487   9.635   2.017 -2.6604  0.0277  1.3458
29952SOL    HW293899   9.559   9.637   2.150 -0.1045  0.9164  0.0252
29953SOL     OW93900   1.467   1.355   4.221  0.0313 -0.1115  0.1185
29953SOL    HW193901   1.395   1.293   4.209 -0.5670  0.8974 -1.8834
29953SOL    HW293902   1.439   1.434   4.176  1.9026  0.7176  0.3118
29954SOL     OW93903   4.946   7.473   0.912 -0.2550  0.1746 -0.1976
29954SOL    HW193904   5.022   7.529   0.930  0.7882 -1.1953 -0.1368
29954SOL    HW293905   4.951   7.458   0.817  1.0370 -1.8734  0.1288
29955SOL     OW93906   6.731   8.260   7.910 -0.4026 -1.0858 -0.1205
29955SOL    HW193907   6.785   8.209   7.971 -0.4359 -2.9690 -1.5788
29955SOL    HW293908   6.778   8.254   7.827 -0.5844  1.0615 -0.4296
29956SOL     OW93909   8.485   0.654   5.385 -0.2076 -0.1944  0.2029
29956SOL    HW193910   8.402   0.606   5.386  0.8738 -2.1520  0.9172
29956SOL    HW293911   8.517   0.645   5.295 -0.5867  0.2811  0.0131
29957SOL     OW93912   9.966   5.847   4.135 -0.3423 -0.6496  0.3635
29957SOL    HW193913   9.881   5.814   4.162 -0.2910 -2.1986 -1.1522
29957SOL    HW293914   9.948   5.896   4.055  0.1478 -0.8867  0.1017
29958SOL     OW93915   7.373   7.759   7.884 -0.1008  0.4088 -0.1052
29958SOL    HW193916   7.398   7.850   7.866  0.2421  0.5959  1.1976
29958SOL    HW293917   7.425   7.707   7.822  0.8814  1.0178  0.1853
29959SOL     OW93918   5.787   8.769   9.245  0.0125  0.3258  0.0703
29959SOL    HW193919   5.799   8.808   9.331 -0.1145 -0.0957  0.2825
29959SOL    HW293920   5.808   8.676   9.258  0.3630  0.3325 -0.4347
29960SOL     OW93921   9.160   9.619  10.132 -0.3159  0.5347 -0.2067
29960SOL    HW193922   9.138   9.659  10.048  0.9457  0.5692 -0.5414
29960SOL    HW293923   9.208   9.539  10.109  0.2788  0.6858  0.4720
29961SOL     OW93924   7.258   8.967   7.479 -0.0073 -0.3154  0.2548
29961SOL    HW193925   7.228   8.976   7.569  1.9981 -1.1915  1.0666
29961SOL    HW293926   7.284   9.056   7.453 -0.4511 -0.0859  0.5830
29962SOL     OW93927   2.687  10.007   9.334 -0.2150 -0.3244 -0.2030
29962SOL    HW193928   2.657  10.094   9.309 -1.4125 -1.4147 -2.9087
29962SOL    HW293929   2.780  10.006   9.310 -0.3322  0.0358 -0.6956
29963SOL     OW93930   0.201   3.050   9.139  0.1802  0.3760 -0.1029
29963SOL    HW193931   0.230   3.042   9.230 -0.2920  1.2390  0.1257
29963SOL    HW293932   0.124   3.106   9.143 -0.7026 -0.7465 -0.8778
29964SOL     OW93933   0.689   4.023   5.984 -0.1154  0.3664  0.0309
29964SOL    HW193934   0.752   4.036   5.913  0.2886  1.3425  0.5484
29964SOL    HW293935   0.721   3.946   6.030  0.1020  0.2355 -0.3296
29965SOL     OW93936   2.157   9.298   1.926 -0.1748 -0.2083 -0.3387
29965SOL    HW193937   2.140   9.272   2.016  1.7097 -0.5655 -0.0522
29965SOL    HW293938   2.249   9.325   1.925  0.3272 -1.7401 -2.4874
29966SOL     OW93939   5.701   9.683   6.675 -0.0013 -0.4843 -0.5185
29966SOL    HW193940   5.634   9.660   6.610 -0.3390  0.9424 -0.7046
29966SOL    HW293941   5.656   9.741   6.736  0.5478 -1.1278  0.5249
29967SOL     OW93942   0.194  10.029   8.283  0.1879  0.0119  0.6812
29967SOL    HW193943   0.278   9.994   8.257  0.5078  0.3883  1.1872
29967SOL    HW293944   0.184  10.003   8.375 -0.3907 -0.3042  0.5332
29968SOL     OW93945   8.244   5.294   1.967  0.2556 -0.4442 -0.1288
29968SOL    HW193946   8.309   5.364   1.972 -0.3013  0.4810 -3.5212
29968SOL    HW293947   8.285   5.227   1.913 -0.6371 -1.0529 -0.0721
29969SOL     OW93948   1.444   4.525   6.561 -0.0645 -0.2268 -0.0957
29969SOL    HW193949   1.451   4.437   6.524 -1.4249  0.1478 -1.3586
29969SOL    HW293950   1.350   4.538   6.575  0.1382  0.9319  0.3037
29970SOL     OW93951   4.526   6.558   6.999 -0.2792  0.2255 -0.4439
29970SOL    HW193952   4.442   6.513   6.984  0.3686 -0.9082 -0.8198
29970SOL    HW293953   4.506   6.651   6.987 -1.8661  0.1623  1.2474
29971SOL     OW93954   1.389   1.176   3.187 -0.7835  0.4228  0.3165
29971SOL    HW193955   1.346   1.097   3.154 -0.2743  0.2643  0.0221
29971SOL    HW293956   1.396   1.161   3.282 -0.3684 -0.0524  0.2195
29972SOL     OW93957   2.755   5.679  10.066  1.3727  0.1911  0.4229
29972SOL    HW193958   2.760   5.771  10.037 -0.2083  0.2006  0.0744
29972SOL    HW293959   2.820   5.672  10.136  0.3758  2.0505  1.6259
29973SOL     OW93960   8.951   6.646   3.124 -0.0331 -0.1376 -0.1934
29973SOL    HW193961   8.947   6.683   3.213 -2.5507 -0.2874 -0.1576
29973SOL    HW293962   8.964   6.552   3.138 -0.5597 -0.1801  0.0346
29974SOL     OW93963   2.801   4.523   2.880  0.1431  0.1091  0.3929
29974SOL    HW193964   2.771   4.583   2.948  0.5248  0.4321  0.2809
29974SOL    HW293965   2.723   4.507   2.826  0.0735  0.6250  0.3349
29975SOL     OW93966   8.349   9.109   2.379  0.2808  0.0011  0.1445
29975SOL    HW193967   8.428   9.151   2.345 -0.5552  0.8815 -0.7840
29975SOL    HW293968   8.374   9.018   2.393  0.9995 -0.1379 -1.7385
29976SOL     OW93969   0.371   2.517   2.819 -0.2841  0.2244  0.0364
29976SOL    HW193970   0.399   2.468   2.742  0.6769 -0.6246  0.8734
29976SOL    HW293971   0.319   2.455   2.869  0.8921  0.0219  1.0805
29977SOL     OW93972   2.543   4.182   2.520  0.3745  0.6060  0.1393
29977SOL    HW193973   2.462   4.166   2.472  0.4747  0.5450 -0.0104
29977SOL    HW293974   2.566   4.272   2.500  1.0989  0.1940 -0.9605
29978SOL     OW93975   4.904   7.268   0.534 -0.1467  0.2106 -0.3306
29978SOL    HW193976   4.955   7.223   0.467  0.7948 -2.7991  2.2236
29978SOL    HW293977   4.958   7.343   0.559  0.4622  0.1545 -1.3982
29979SOL     OW93978   1.002   6.001   1.946 -0.5067 -0.3569  0.3289
29979SOL    HW193979   1.066   6.039   2.006 -1.3570  0.0667  0.9826
29979SOL    HW293980   0.972   5.922   1.991  0.1151 -0.9859 -0.3294
29980SOL     OW93981   8.105   6.904   0.572 -0.2455  0.0053 -0.4599
29980SOL    HW193982   8.155   6.833   0.533 -0.9937 -0.9869  0.3330
29980SOL    HW293983   8.124   6.898   0.666 -1.2236  0.1031 -0.2406
29981SOL     OW93984   0.002   9.156   1.719  0.1364  0.2098 -0.0912
29981SOL    HW193985   0.035   9.153   1.630 -1.7777  1.4206 -0.9053
29981SOL    HW293986   0.012   9.066   1.751 -0.6291 -0.6427 -2.0866
29982SOL     OW93987   2.644   6.082   6.446  0.2617 -0.5050 -0.1219
29982SOL    HW193988   2.732   6.103   6.476 -0.2577 -1.5944  2.3612
29982SOL    HW293989   2.607   6.166   6.420  1.2633  0.3054  0.9765
29983SOL     OW93990   3.995   1.991   1.840  0.1380  0.0139  0.3646
29983SOL    HW193991   3.921   2.048   1.817  0.4335  0.5128  0.6345
29983SOL    HW293992   3.958   1.930   1.905 -0.3754 -0.6078 -0.4934
29984SOL     OW93993   0.466   1.312   3.326 -0.1377  0.1644  0.3276
29984SOL    HW193994   0.475   1.217   3.329 -0.3852  0.0933 -0.7555
29984SOL    HW293995   0.434   1.336   3.413 -1.0969 -0.8604  0.2784
29985SOL     OW93996   8.008   3.934   3.763 -0.4631  0.1784  0.4573
29985SOL    HW193997   8.085   3.911   3.711 -1.1483  2.2824 -1.6936
29985SOL    HW293998   8.033   4.015   3.808 -1.9219  2.0800 -1.8800
29986SOL     OW93999   9.984   1.188   9.962 -0.3597 -0.8012 -0.2855
29986SOL    HW194000   9.917   1.256   9.973 -1.4113 -2.1392  2.3272
29986SOL    HW294001   9.937   1.116   9.919  0.3181 -0.5518 -1.4902
29987SOL     OW94002   9.758   6.082   0.446 -0.3313  0.6373  0.1376
29987SOL    HW194003   9.817   6.126   0.385  0.5610  1.5136  1.5638
29987SOL    HW294004   9.812   6.018   0.491 -1.2939 -0.9494 -0.8876
29988SOL     OW94005   8.653   8.514   3.333  0.4334 -0.2700 -0.5098
29988SOL    HW194006   8.570   8.482   3.367  0.4773  1.3205  1.2391
29988SOL    HW294007   8.632   8.599   3.293  1.1606  0.0081 -0.3168
29989SOL     OW94008   5.024   6.367   3.046 -0.3187  0.4445 -0.3028
29989SOL    HW194009   4.968   6.408   2.980 -0.1265  0.6318 -0.3486
29989SOL    HW294010   5.111   6.402   3.029  0.3320 -1.6496 -1.7824
29990SOL     OW94011   5.436   9.896   3.576 -0.3994 -0.1548  0.7016
29990SOL    HW194012   5.395   9.978   3.604 -0.7321  0.2225 -0.8012
29990SOL    HW294013   5.401   9.830   3.636 -1.3814  0.5454  0.9288
29991SOL     OW94014   3.044   9.679   6.607 -0.5035  0.3180  0.0034
29991SOL    HW194015   2.948   9.670   6.605 -0.6498  1.5530  0.6746
29991SOL    HW294016   3.061   9.734   6.683  0.7611  0.0790 -0.0865
29992SOL     OW94017   4.498   2.432   4.626 -0.2301  0.0108 -0.5613
29992SOL    HW194018   4.488   2.401   4.716  0.0484  1.3903 -0.0289
29992SOL    HW294019   4.570   2.379   4.591 -1.1874 -1.4467 -0.4302
29993SOL     OW94020   0.767   1.220   0.916  0.1760 -0.2266  0.1641
29993SOL    HW194021   0.781   1.313   0.931  0.9405 -0.4784  1.1213
29993SOL    HW294022   0.851   1.179   0.936  0.2058 -1.0153 -1.4176
29994SOL     OW94023   4.832   9.711   6.905 -0.1971  1.0346  0.0827
29994SOL    HW194024   4.896   9.733   6.837 -0.5845  1.8606 -0.0259
29994SOL    HW294025   4.801   9.624   6.881 -0.9701  1.6738 -1.3098
29995SOL     OW94026   9.007   4.343   7.872  0.2064 -1.0395 -0.2180
29995SOL    HW194027   9.061   4.422   7.875 -0.0521 -0.8782  0.1759
29995SOL    HW294028   9.055   4.283   7.814  0.3436 -0.5528 -0.6069
29996SOL     OW94029   3.130   5.635   4.820  0.0669  0.1010  0.2261
29996SOL    HW194030   3.111   5.563   4.761  0.1356  1.3522 -1.3939
29996SOL    HW294031   3.225   5.642   4.820  0.0287  0.8218 -0.4621
29997SOL     OW94032   3.041   5.083   1.967 -0.1237 -0.0584 -0.3735
29997SOL    HW194033   3.092   5.159   1.996 -0.3535 -0.2552  0.6092
29997SOL    HW294034   3.059   5.016   2.034 -0.1277 -0.7810 -1.0804
29998SOL     OW94035   9.220   2.036   3.947 -0.4348  0.4479  0.2340
29998SOL    HW194036   9.211   1.976   3.872  0.8135  1.7593 -1.0328
29998SOL    HW294037   9.262   1.984   4.015 -0.7901 -0.5271 -0.2677
29999SOL     OW94038   1.060   7.358   8.960  0.0313  0.3110 -0.4552
29999SOL    HW194039   1.099   7.276   8.992  1.7206  1.3708  0.3036
29999SOL    HW294040   1.096   7.426   9.017 -2.4591  1.4749 -0.1169
30000SOL     OW94041   8.940   8.187   8.039  0.7183 -0.4672  0.6486
30000SOL    HW194042   8.862   8.212   8.088  0.6722  0.4480  0.1462
30000SOL    HW294043   8.907   8.155   7.955  0.8725  0.1345  0.3453
30001SOL     OW94044   9.863   0.042   4.443  0.0702 -0.4929 -0.9279
30001SOL    HW194045   9.904   0.035   4.529  1.1801 -2.4979 -1.5420
30001SOL    HW294046   9.936   0.035   4.381 -0.8779 -0.9136 -2.0308
30002SOL     OW94047   7.125   6.768   8.396  0.1521 -0.6227  0.2142
30002SOL    HW194048   7.050   6.711   8.378 -1.4547  1.2715  0.5433
30002SOL    HW294049   7.188   6.711   8.440 -1.0815 -2.2881 -0.0623
30003SOL     OW94050   2.005   0.293   3.817 -0.0044  0.3906 -0.0048
30003SOL    HW194051   2.052   0.375   3.833 -0.3468  0.4175  0.9067
30003SOL    HW294052   2.071   0.233   3.784  0.0457  1.3411 -1.7365
30004SOL     OW94053   3.683   9.682   9.241 -0.1627  0.1387 -0.6530
30004SOL    HW194054   3.770   9.692   9.203 -0.0549 -0.9019 -0.7087
30004SOL    HW294055   3.692   9.609   9.302 -0.5024  1.3163  0.8673
30005SOL     OW94056   3.950   7.615   9.974  0.6906  0.2667  0.1672
30005SOL    HW194057   3.906   7.659   9.902  1.0941 -0.8303 -0.7870
30005SOL    HW294058   3.881   7.596  10.038 -0.1945 -1.1283 -1.1453
30006SOL     OW94059   1.872   7.478   6.761  0.0370 -0.4844  1.0856
30006SOL    HW194060   1.825   7.431   6.692  0.4689 -0.4419  0.7535
30006SOL    HW294061   1.875   7.416   6.834 -0.5862 -0.4592  1.1352
30007SOL     OW94062   7.333   9.206   3.985  0.0040  0.1250  0.1646
30007SOL    HW194063   7.297   9.121   4.010  0.2163  0.7946  3.1171
30007SOL    HW294064   7.257   9.262   3.973 -0.2173 -0.6588 -3.1034
30008SOL     OW94065   4.858   1.026   4.222  0.5356 -0.5034  0.7301
30008SOL    HW194066   4.867   0.962   4.293  0.1127 -2.9593 -1.3067
30008SOL    HW294067   4.778   1.000   4.177  0.8347  0.9391 -0.7012
30009SOL     OW94068   8.407   3.663   9.840 -0.1188  0.2466 -0.0025
30009SOL    HW194069   8.477   3.639   9.900 -1.0428 -0.3326  0.8753
30009SOL    HW294070   8.379   3.750   9.868 -1.7076 -0.7014  1.5895
30010SOL     OW94071   2.378   1.988   5.129 -0.0741 -0.2433  0.3199
30010SOL    HW194072   2.350   2.052   5.063  0.4609  1.6967  1.8551
30010SOL    HW294073   2.465   1.960   5.100 -0.0476  0.2230 -0.0680
30011SOL     OW94074   7.526   8.091  10.022  1.1022  0.5868 -0.2122
30011SOL    HW194075   7.440   8.118   9.989  0.5585 -0.5918  0.1830
30011SOL    HW294076   7.569   8.173  10.046  0.5715  1.2915 -1.5276
30012SOL     OW94077   3.850   6.674   7.003  0.0151 -0.1284  0.5962
30012SOL    HW194078   3.855   6.589   7.047  0.0919 -0.8056 -0.6774
30012SOL    HW294079   3.764   6.674   6.961 -0.4346  0.8889  1.4520
30013SOL     OW94080   7.286   4.284   3.933  0.4357 -0.0805  0.1120
30013SOL    HW194081   7.352   4.215   3.934  0.2086 -0.3110 -0.5023
30013SOL    HW294082   7.333   4.362   3.902  0.7187  0.0723  0.9177
30014SOL     OW94083   7.944   9.829   1.936  0.2352 -0.4382  0.2027
30014SOL    HW194084   7.968   9.895   1.871 -0.3818  1.7435  2.0566
30014SOL    HW294085   7.849   9.819   1.926  0.2495 -0.6642  0.2841
30015SOL     OW94086   8.472   6.524   5.447 -0.1954  0.3327  0.5072
30015SOL    HW194087   8.405   6.561   5.389 -0.9805 -1.3588  0.2650
30015SOL    HW294088   8.521   6.463   5.392 -2.6755 -3.4249  2.0174
30016SOL     OW94089   1.335  10.008   6.681 -0.6081 -0.8833  0.4631
30016SOL    HW194090   1.389  10.085   6.699  0.2905 -1.7796  1.7127
30016SOL    HW294091   1.288   9.991   6.763 -1.7291 -0.9594 -0.1751
30017SOL     OW94092   9.792   3.057   5.444 -0.1570 -0.2239 -0.3196
30017SOL    HW194093   9.798   3.060   5.349 -2.1309  4.5172 -0.5733
30017SOL    HW294094   9.873   3.099   5.474  0.5138 -1.8100  0.1965
30018SOL     OW94095   3.908   6.458   7.159 -0.5090  0.2478  0.7983
30018SOL    HW194096   3.854   6.484   7.234 -0.7920  1.2864  0.2526
30018SOL    HW294097   3.929   6.367   7.176 -0.0380  0.6334  2.4605
30019SOL     OW94098   8.408   3.201   4.554  0.4177  0.5552  0.0045
30019SOL    HW194099   8.372   3.150   4.628  0.2207  0.5935 -0.0646
30019SOL    HW294100   8.458   3.137   4.504  0.3353  0.4722  0.0276
30020SOL     OW94101   1.295   0.304   0.361 -0.5234 -0.7431  0.1556
30020SOL    HW194102   1.355   0.238   0.325 -0.0153  0.0884 -0.5467
30020SOL    HW294103   1.341   0.387   0.349 -1.1289 -0.2578  1.0943
30021SOL     OW94104   4.995   1.914   2.232  0.3106 -0.3451 -0.1857
30021SOL    HW194105   4.917   1.922   2.287 -0.8480  0.1343 -1.8286
30021SOL    HW294106   5.054   1.858   2.283 -1.6060 -1.8192  0.5518
30022SOL     OW94107   0.095   2.367   5.080 -0.0336 -0.1455  0.1172
30022SOL    HW194108   0.178   2.414   5.092 -1.0423  1.6491  0.4622
30022SOL    HW294109   0.040   2.427   5.030  0.1126 -2.8719 -3.7421
30023SOL     OW94110   4.067   4.814   7.590  0.5309 -0.4754  0.9040
30023SOL    HW194111   3.978   4.846   7.578  0.7670 -0.0792  0.1763
30023SOL    HW294112   4.060   4.752   7.663 -0.1687  0.2160  1.4443
30024SOL     OW94113   5.815   4.944   9.541 -0.1739 -0.2158 -0.1827
30024SOL    HW194114   5.726   4.929   9.572 -0.6097  1.3226 -0.6310
30024SOL    HW294115   5.860   4.981   9.617 -0.8447  2.1433 -0.8542
30025SOL     OW94116   4.781   5.194   4.587 -0.0066  0.8746 -0.3081
30025SOL    HW194117   4.824   5.257   4.530  0.8752  2.2481  1.7632
30025SOL    HW294118   4.737   5.134   4.527  1.9528  1.4225 -2.4488
30026SOL     OW94119   6.850   0.370   1.485  0.2533  0.0871  0.1029
30026SOL    HW194120   6.942   0.361   1.511 -0.0896 -0.4626  1.2368
30026SOL    HW294121   6.840   0.463   1.466  1.7688 -0.2873 -3.1151
30027SOL     OW94122   9.978   2.381   0.758 -0.0776  0.0174 -0.3319
30027SOL    HW194123  10.015   2.371   0.670 -1.6128  0.6736 -1.0984
30027SOL    HW294124   9.884   2.386   0.743 -0.3201  0.8019  1.3104
30028SOL     OW94125   1.165   9.675   0.127 -0.3729 -0.1623  0.7645
30028SOL    HW194126   1.171   9.734   0.052 -1.5011  1.9181  2.2098
30028SOL    HW294127   1.237   9.700   0.184  0.2057 -1.4244  0.6198
30029SOL     OW94128   4.436   7.126   7.817  0.4561  0.2225  0.3493
30029SOL    HW194129   4.531   7.115   7.821  0.1550 -3.0250  2.2236
30029SOL    HW294130   4.403   7.037   7.800 -2.3048  0.9484  1.4561
30030SOL     OW94131   5.269   7.042  10.197  0.6877 -0.1526  0.0419
30030SOL    HW194132   5.273   7.106  10.126  0.6471  0.4632  0.5810
30030SOL    HW294133   5.218   6.969  10.161 -2.8257  1.7611  0.6290
30031SOL     OW94134   5.701   3.110   6.645  0.4056 -0.0920  0.0046
30031SOL    HW194135   5.730   3.176   6.581  1.6174  0.1076  0.7296
30031SOL    HW294136   5.606   3.110   6.637  0.5335 -0.9624 -2.7015
30032SOL     OW94137   4.723   0.706   3.741 -0.4886 -0.0538 -0.0666
30032SOL    HW194138   4.710   0.614   3.764 -0.8951 -0.1390 -0.6297
30032SOL    HW294139   4.773   0.742   3.815 -0.0994 -0.7846  0.0341
30033SOL     OW94140   3.956   9.988   6.833  0.0449  0.4264  0.0157
30033SOL    HW194141   4.041  10.031   6.822  0.3797  0.0426  1.0479
30033SOL    HW294142   3.949   9.931   6.756  0.0022  1.6124 -0.8996
30034SOL     OW94143   9.420   1.908   3.046  0.5339 -0.2174  0.3996
30034SOL    HW194144   9.400   1.922   2.954  1.9242 -1.0362 -0.0547
30034SOL    HW294145   9.506   1.948   3.059  0.6764 -0.7461  1.1695
30035SOL     OW94146   8.257   1.674   9.023  0.1821 -0.1202  0.3525
30035SOL    HW194147   8.208   1.756   9.012 -2.2202 -1.2576  1.7040
30035SOL    HW294148   8.204   1.608   8.977  2.3102 -0.9128 -1.1284
30036SOL     OW94149   0.602  10.003   7.794 -0.1642 -0.3742  0.4262
30036SOL    HW194150   0.682  10.048   7.769  1.0130 -1.2052  2.4451
30036SOL    HW294151   0.600  10.008   7.889 -1.6072 -1.8781  0.5239
30037SOL     OW94152   7.041   6.545  10.185 -0.4804  0.3555  0.3921
30037SOL    HW194153   7.032   6.579  10.096 -0.1706 -0.5027  0.0136
30037SOL    HW294154   7.135   6.540  10.200 -0.4421 -1.6168 -0.1186
30038SOL     OW94155   6.581   2.092   4.719  0.2368 -0.0965 -0.1448
30038SOL    HW194156   6.670   2.124   4.732  0.3277 -0.2866 -0.2926
30038SOL    HW294157   6.556   2.055   4.804  0.6521 -0.9075 -0.3595
30039SOL     OW94158   3.534   5.944   4.734  0.4319 -0.2374  0.0407
30039SOL    HW194159   3.622   5.939   4.773  0.4568 -1.0318 -0.1124
30039SOL    HW294160   3.509   6.036   4.744  1.9306  0.3684 -1.3310
30040SOL     OW94161   1.576   5.823   8.636 -0.0490 -0.5713  0.1387
30040SOL    HW194162   1.511   5.877   8.591 -0.1262 -0.0757  0.8227
30040SOL    HW294163   1.586   5.865   8.722 -0.2459 -1.7445  0.7490
30041SOL     OW94164   3.576   3.898   5.112  0.5023  0.1337  0.1410
30041SOL    HW194165   3.514   3.884   5.184 -1.3368 -2.7051 -1.7651
30041SOL    HW294166   3.526   3.948   5.048  1.1774  0.2783 -0.2760
30042SOL     OW94167   1.639   5.740   5.218  0.2835  0.1396  0.1453
30042SOL    HW194168   1.640   5.827   5.179  0.6372 -0.1650 -0.5398
30042SOL    HW294169   1.546   5.716   5.219  0.2867  0.0544 -0.7462
30043SOL     OW94170   0.240   9.706   1.096 -0.1332 -0.4496  0.4436
30043SOL    HW194171   0.285   9.651   1.033 -0.6369 -1.4863  0.9616
30043SOL    HW294172   0.289   9.788   1.096  0.5750 -0.8607 -0.4152
30044SOL     OW94173   8.044   2.681   4.514  0.0456  0.0635  0.4468
30044SOL    HW194174   8.027   2.689   4.608 -0.0774  0.5974  0.3832
30044SOL    HW294175   8.080   2.593   4.503  0.7285  0.2550  1.0924
30045SOL     OW94176   4.080   5.424   8.847  0.4238  0.0590  0.7597
30045SOL    HW194177   4.070   5.505   8.897  2.4200  0.5625  0.4094
30045SOL    HW294178   4.053   5.446   8.758  0.7679  0.2878  0.7108
30046SOL     OW94179   9.793   6.260   0.988  0.2449  0.0536  0.0504
30046SOL    HW194180   9.738   6.192   1.027 -1.2461  0.3477 -1.4529
30046SOL    HW294181   9.853   6.212   0.931  1.2588 -0.2167  1.2849
30047SOL     OW94182   0.580   8.014   7.687 -0.6386  0.5231  0.5902
30047SOL    HW194183   0.622   8.094   7.717  0.5353 -0.2766  1.1419
30047SOL    HW294184   0.594   8.013   7.592  1.0748  0.0085  0.8303
30048SOL     OW94185   3.013   3.325   1.822 -0.0948 -0.1487 -0.4099
30048SOL    HW194186   2.956   3.354   1.893  0.0535 -1.5367  0.3018
30048SOL    HW294187   3.085   3.387   1.823  0.5704 -0.8772  1.5351
30049SOL     OW94188  10.256   6.765   7.143  0.2917 -0.5445 -0.3487
30049SOL    HW194189  10.211   6.834   7.093 -1.5813 -1.1848  0.3794
30049SOL    HW294190  10.185   6.708   7.175  1.3756 -0.2773  2.8940
30050SOL     OW94191   8.120   3.652   4.469 -0.1696  0.5360 -0.2704
30050SOL    HW194192   8.114   3.674   4.561 -3.1136 -0.0834 -0.2153
30050SOL    HW294193   8.202   3.692   4.440  2.6410 -1.9969  3.2539
30051SOL     OW94194   5.250   2.456   3.030  0.1551  0.4202 -0.1604
30051SOL    HW194195   5.208   2.524   3.082  1.3515 -0.4456  2.0804
30051SOL    HW294196   5.201   2.377   3.048  1.1433 -0.0787  0.4421
30052SOL     OW94197   0.390   0.387   6.716  0.1936 -0.2610  0.4036
30052SOL    HW194198   0.304   0.417   6.747  0.2996  0.4993 -0.0081
30052SOL    HW294199   0.405   0.306   6.764 -0.6932 -0.3329  0.5872
30053SOL     OW94200   0.492   7.233   9.234 -0.0041  0.4910  0.7960
30053SOL    HW194201   0.428   7.204   9.169  0.8160 -0.6852  0.4828
30053SOL    HW294202   0.469   7.325   9.251 -1.3931  0.2722  0.2606
30054SOL     OW94203   1.927   7.785   3.770  0.0126  0.1925  0.2097
30054SOL    HW194204   1.960   7.817   3.686 -0.2123  1.1623  0.4740
30054SOL    HW294205   2.004   7.749   3.815  0.3027  0.5052 -0.0380
30055SOL     OW94206   5.873   4.832   0.489 -0.1961  0.7425 -0.1833
30055SOL    HW194207   5.809   4.812   0.421 -1.1915  0.3148  0.8421
30055SOL    HW294208   5.955   4.794   0.458 -1.1417 -1.4537 -0.1374
30056SOL     OW94209   0.839   1.169   8.393 -0.8977  0.6281  0.0947
30056SOL    HW194210   0.827   1.218   8.475  0.1397  1.9842 -0.5235
30056SOL    HW294211   0.840   1.237   8.325  0.2124 -0.3012 -0.8411
30057SOL     OW94212   7.259   2.894   0.182  0.5671  0.2823  0.5134
30057SOL    HW194213   7.219   2.960   0.125 -0.8289 -0.9818 -0.0494
30057SOL    HW294214   7.248   2.812   0.135  1.8738 -0.4221  1.3928
30058SOL     OW94215   5.452   4.823   9.467  0.0463  0.0349 -0.0636
30058SOL    HW194216   5.455   4.732   9.496 -0.8758  0.1561  0.4235
30058SOL    HW294217   5.489   4.873   9.540  0.8201  0.0465 -0.4415
30059SOL     OW94218   5.775   0.829   3.603 -0.4375  0.1942  0.4488
30059SOL    HW194219   5.867   0.804   3.610 -0.4325  0.2746  0.6697
30059SOL    HW294220   5.776   0.913   3.559 -0.3469  0.6299  1.2657
30060SOL     OW94221   7.743   7.829   1.689 -0.3930  0.2223  0.2699
30060SOL    HW194222   7.806   7.792   1.627  0.9589  0.7836  1.2616
30060SOL    HW294223   7.797   7.875   1.753 -1.8107  0.4627  1.3295
30061SOL     OW94224   9.154   2.383   3.772  0.0681 -0.1468  0.3452
30061SOL    HW194225   9.115   2.381   3.859  0.0416  1.1285  0.3950
30061SOL    HW294226   9.111   2.458   3.729  1.1300  0.1515 -0.2349
30062SOL     OW94227   9.753   1.448   7.766  0.2477  0.0792 -0.0378
30062SOL    HW194228   9.806   1.453   7.687  0.4780  2.2703  0.2165
30062SOL    HW294229   9.817   1.434   7.837  0.1034 -1.1278 -0.1167
30063SOL     OW94230   4.594   5.036  10.012 -0.6956 -0.1391 -0.1215
30063SOL    HW194231   4.523   4.975  10.031 -1.1694  0.4439  0.0221
30063SOL    HW294232   4.602   5.035   9.917 -1.9484  0.9384 -0.2638
30064SOL     OW94233   8.464   9.726   0.594  0.4043  0.3110 -0.2998
30064SOL    HW194234   8.519   9.720   0.516  3.7746  0.4647  1.8217
30064SOL    HW294235   8.495   9.806   0.638 -3.1671  1.6700  0.0573
30065SOL     OW94236   6.646   8.729   6.901  0.4139 -0.0553  0.7792
30065SOL    HW194237   6.586   8.656   6.919 -1.8553  1.0151 -1.7817
30065SOL    HW294238   6.726   8.687   6.870  0.2923 -1.4801  2.2475
30066SOL     OW94239  10.019   6.189   1.417 -0.5011 -0.5695 -0.1615
30066SOL    HW194240  10.071   6.234   1.484 -0.6684  0.0846 -0.4597
30066SOL    HW294241  10.083   6.141   1.365 -0.1674  0.2566 -0.5463
30067SOL     OW94242   9.344   9.130   2.911 -0.0413 -0.1112 -0.1124
30067SOL    HW194243   9.337   9.052   2.856 -2.7196  1.4366 -2.2813
30067SOL    HW294244   9.418   9.179   2.874  1.3856 -1.3692  0.9972
30068SOL     OW94245   0.807   3.390   7.146  0.0238  0.3420 -0.4947
30068SOL    HW194246   0.740   3.329   7.113 -0.1392  0.7034 -0.8342
30068SOL    HW294247   0.759   3.449   7.203  0.4293 -0.7502  1.0372
30069SOL     OW94248   1.447   8.923   9.381 -0.0636  0.3524 -0.2885
30069SOL    HW194249   1.404   8.997   9.423 -0.3306  0.2374 -0.3561
30069SOL    HW294250   1.522   8.961   9.336 -0.6150  0.7046 -0.9476
30070SOL     OW94251   0.171   1.480   7.743  0.1779 -0.3256  0.1160
30070SOL    HW194252   0.137   1.465   7.654  0.5622  1.3207 -0.3308
30070SOL    HW294253   0.177   1.392   7.780 -0.0220 -1.0595 -1.4767
30071SOL     OW94254   3.524   6.837   5.768  0.0630  0.3623  0.2868
30071SOL    HW194255   3.520   6.778   5.694 -4.3527 -0.1598  0.6838
30071SOL    HW294256   3.459   6.904   5.749  2.6184  3.4046  1.3473
30072SOL     OW94257   2.113   5.630   7.195 -0.1483  0.2132 -0.6693
30072SOL    HW194258   2.031   5.605   7.237 -0.1404 -0.8173 -1.2319
30072SOL    HW294259   2.153   5.693   7.256 -0.5848 -0.5040  0.3926
30073SOL     OW94260   0.542   4.570   0.147 -0.1934  0.3298 -0.3046
30073SOL    HW194261   0.585   4.621   0.079  0.4489  0.0998 -0.0763
30073SOL    HW294262   0.603   4.570   0.221 -1.4618  1.7646  0.8276
30074SOL     OW94263   2.241   4.782   8.001 -0.2577 -0.1982  0.7876
30074SOL    HW194264   2.331   4.752   8.016 -0.1817  0.0614  0.8622
30074SOL    HW294265   2.250   4.876   7.983 -0.2953 -0.5772 -1.4586
30075SOL     OW94266   7.032   7.874   5.261  0.1954  0.1430  0.0315
30075SOL    HW194267   7.092   7.906   5.193 -0.3808  0.1249 -0.4928
30075SOL    HW294268   7.067   7.911   5.343  0.7166  0.4197 -0.3080
30076SOL     OW94269   0.734   5.910   0.594  0.2901 -0.0105 -0.3880
30076SOL    HW194270   0.707   5.927   0.685 -0.6549 -0.1239 -0.6336
30076SOL    HW294271   0.815   5.860   0.602  0.6900  0.7218  0.3864
30077SOL     OW94272   2.029   1.225   1.800 -0.3032  0.2695  0.2384
30077SOL    HW194273   1.965   1.286   1.838 -0.3790 -0.1855  0.8369
30077SOL    HW294274   2.029   1.248   1.706 -3.0995 -1.2585 -0.2474
30078SOL     OW94275   8.458   8.577   6.492  0.0252 -0.2590 -0.2586
30078SOL    HW194276   8.476   8.666   6.524 -0.7217 -0.1071 -0.2425
30078SOL    HW294277   8.494   8.576   6.404 -0.1051  0.1174 -0.3197
30079SOL     OW94278   6.228   5.542   4.280 -0.7708 -0.2437 -0.3741
30079SOL    HW194279   6.250   5.560   4.188  1.3028  1.9773  0.4623
30079SOL    HW294280   6.264   5.456   4.297  1.1112  0.3748 -1.0162
30080SOL     OW94281   6.391   8.839   1.904  0.4222 -0.2010  0.1875
30080SOL    HW194282   6.349   8.895   1.839  0.6079 -1.4152 -1.0359
30080SOL    HW294283   6.485   8.847   1.885  0.4186 -1.3147 -0.3555
30081SOL     OW94284   0.375   0.387   7.754 -0.0917  0.3030  0.0195
30081SOL    HW194285   0.452   0.428   7.792  2.0854 -2.6216 -0.8843
30081SOL    HW294286   0.405   0.351   7.671 -1.6127 -3.3225  0.8477
30082SOL     OW94287   7.131   0.405   5.070 -0.3596 -0.4388 -0.1085
30082SOL    HW194288   7.083   0.369   5.145 -0.5246 -0.2067 -0.1034
30082SOL    HW294289   7.111   0.346   4.998 -1.9555  0.5355 -0.5158
30083SOL     OW94290   1.440   9.280   2.464 -0.0519 -0.0465 -0.0327
30083SOL    HW194291   1.444   9.241   2.376  0.2822 -1.4946  0.5931
30083SOL    HW294292   1.503   9.352   2.461 -0.6187  0.4349 -1.2005
30084SOL     OW94293   9.429   4.950   9.700  0.3651 -0.2188 -0.1981
30084SOL    HW194294   9.385   4.988   9.624 -0.3678 -0.0566  0.2950
30084SOL    HW294295   9.517   4.986   9.698  0.2673 -0.0034 -0.8142
30085SOL     OW94296   1.932  10.288   0.066  0.1102  0.1733  0.8025
30085SOL    HW194297   1.895  10.231  -0.002  1.7445 -0.8587  0.7072
30085SOL    HW294298   1.998  10.233   0.108  2.3542  2.2266  0.1618
30086SOL     OW94299   4.044   1.839   1.611 -0.1561 -0.3338  0.0223
30086SOL    HW194300   4.138   1.853   1.601 -0.1293  0.5594  1.3251
30086SOL    HW294301   4.026   1.861   1.702 -1.3793 -1.9793  0.2187
30087SOL     OW94302   2.815   3.878   1.473 -0.1417 -0.0862  0.6036
30087SOL    HW194303   2.738   3.935   1.466 -0.6370 -0.8717 -0.6342
30087SOL    HW294304   2.791   3.814   1.540 -0.6335 -0.4045  0.1343
30088SOL     OW94305   2.953   6.648   4.638 -0.1618  0.1004  0.1804
30088SOL    HW194306   2.980   6.732   4.676  0.7871  0.8835 -2.0752
30088SOL    HW294307   2.859   6.657   4.625 -0.7218 -0.5583  3.0716
30089SOL     OW94308   7.152   8.895   8.459  0.2803 -0.1397 -0.1001
30089SOL    HW194309   7.201   8.962   8.411  0.6738 -0.7925 -0.6104
30089SOL    HW294310   7.133   8.936   8.543  1.9397  0.0430  0.2206
30090SOL     OW94311   0.672   4.403   1.699 -0.1927  0.1754 -0.2260
30090SOL    HW194312   0.648   4.319   1.661 -0.2464  0.2823 -0.4332
30090SOL    HW294313   0.761   4.390   1.733 -0.2973 -0.0362 -0.0325
30091SOL     OW94314   2.577   9.649   8.767 -0.1809 -0.5264 -0.6350
30091SOL    HW194315   2.616   9.735   8.750  0.3487 -0.6532 -0.0855
30091SOL    HW294316   2.626   9.615   8.842 -1.1381 -0.8308 -0.1398
30092SOL     OW94317  10.095   2.077   8.608  0.6440  0.2145 -0.2174
30092SOL    HW194318  10.115   2.079   8.515  0.9758  1.3305 -0.1382
30092SOL    HW294319  10.128   1.992   8.638 -1.4708 -1.1596 -1.5229
30093SOL     OW94320   0.884   7.489   1.920 -0.2307  0.2117 -0.1772
30093SOL    HW194321   0.794   7.465   1.899  0.1681  0.4069 -2.3749
30093SOL    HW294322   0.922   7.514   1.836  1.1961  2.5012  1.0361
30094SOL     OW94323   7.179   2.983   6.108 -0.0514  0.1764  0.1399
30094SOL    HW194324   7.182   2.913   6.044 -0.6691 -0.0188  0.3154
30094SOL    HW294325   7.092   2.975   6.149 -0.5872  1.7153 -0.6111
30095SOL     OW94326   8.466   6.759   6.055  0.0947  0.2838  0.3659
30095SOL    HW194327   8.450   6.853   6.059  2.2499  0.6754  0.7241
30095SOL    HW294328   8.516   6.739   6.134  1.7294 -0.7150 -0.8538
30096SOL     OW94329   1.212   2.900   9.648 -0.0009  0.2530 -0.2437
30096SOL    HW194330   1.190   2.938   9.563 -0.9986  2.0358  0.7574
30096SOL    HW294331   1.140   2.926   9.705  0.3035 -1.4918  1.0074
30097SOL     OW94332   3.805   7.404   7.993 -0.3325  0.7250 -0.1771
30097SOL    HW194333   3.762   7.327   7.956  0.8706 -0.2116  0.3173
30097SOL    HW294334   3.839   7.451   7.917 -1.8436  1.2882 -0.5529
30098SOL     OW94335   3.239   1.878   4.956  0.3550 -0.2179 -0.1703
30098SOL    HW194336   3.298   1.848   4.886  1.2735  0.2786  0.3799
30098SOL    HW294337   3.180   1.804   4.970  0.6447 -0.6095 -0.9529
30099SOL     OW94338   6.912   2.925   2.957 -0.0730  0.2653 -0.0095
30099SOL    HW194339   6.859   2.988   2.907  0.2125 -0.2760 -1.0202
30099SOL    HW294340   6.860   2.845   2.958  0.8810 -0.4014 -1.3737
30100SOL     OW94341   2.187   6.195   4.571  0.4997 -0.0221 -0.1852
30100SOL    HW194342   2.194   6.108   4.531  0.9681  0.0600 -0.2896
30100SOL    HW294343   2.148   6.250   4.504  1.8592  0.2624 -0.7652
30101SOL     OW94344   0.865   0.071   1.690 -0.0645  0.4859 -0.2526
30101SOL    HW194345   0.810   0.044   1.617 -1.6030  3.2301 -0.2368
30101SOL    HW294346   0.925   0.135   1.652  2.4976 -1.6123 -0.0251
30102SOL     OW94347   6.716   5.129   4.059  0.4631  0.3816  0.2505
30102SOL    HW194348   6.755   5.059   4.006  0.2499  0.4477  0.0018
30102SOL    HW294349   6.747   5.210   4.018 -1.3217  0.4738 -1.0637
30103SOL     OW94350   8.942   1.806   8.410 -0.0055  0.2524 -0.0407
30103SOL    HW194351   9.002   1.871   8.448  1.9516 -0.5790 -1.5444
30103SOL    HW294352   8.981   1.722   8.434 -0.5384 -0.3065 -1.1047
30104SOL     OW94353   7.366   2.895  10.096  0.2385 -0.3143 -0.5718
30104SOL    HW194354   7.393   2.816  10.142  1.5498  1.3239  1.7553
30104SOL    HW294355   7.397   2.883  10.006  0.9457 -2.1704 -0.1268
30105SOL     OW94356   4.917   6.064   5.743 -0.2964 -0.2939  0.0708
30105SOL    HW194357   4.860   6.133   5.710 -0.2270 -0.3770 -0.2280
30105SOL    HW294358   4.896   6.058   5.836 -1.1100 -0.6397 -0.1245
30106SOL     OW94359   4.950   4.781   9.984  0.1358  0.4638  0.0902
30106SOL    HW194360   5.042   4.801   9.970 -0.1417  1.8494  0.1507
30106SOL    HW294361   4.928   4.719   9.914  1.3667 -0.7600  0.7305
30107SOL     OW94362   4.640   6.179   5.704 -0.4116 -0.1012  0.4148
30107SOL    HW194363   4.556   6.166   5.748 -1.5667  0.2747 -1.5434
30107SOL    HW294364   4.629   6.261   5.655  1.2166  0.1132  0.3517
30108SOL     OW94365   6.133   0.850  10.073  0.0781  0.1195  0.0063
30108SOL    HW194366   6.049   0.806  10.085 -0.2751  0.1538 -1.9028
30108SOL    HW294367   6.110   0.938  10.042  0.8113  0.7650  1.2328
30109SOL     OW94368   2.023   4.846   3.602 -0.3697  0.0176  0.3090
30109SOL    HW194369   1.957   4.898   3.648 -1.9862 -2.0698  0.5320
30109SOL    HW294370   1.990   4.756   3.607  0.3316 -0.5834 -3.2932
30110SOL     OW94371   7.099   6.745   9.158 -0.3522  0.0380 -0.1768
30110SOL    HW194372   7.129   6.655   9.145 -0.2341  0.2271 -1.2574
30110SOL    HW294373   7.038   6.761   9.086 -0.6144  0.7286  0.1877
30111SOL     OW94374   0.475   5.212   4.082 -0.3149 -0.0540  0.1151
30111SOL    HW194375   0.465   5.197   4.177  0.5116 -3.1471 -0.1690
30111SOL    HW294376   0.555   5.263   4.074 -0.2283 -0.0195  1.0702
30112SOL     OW94377   0.347   1.072   5.302  0.2322  0.9394  0.0207
30112SOL    HW194378   0.434   1.100   5.333  1.8354 -2.9119 -0.4746
30112SOL    HW294379   0.363   1.031   5.217 -1.5699 -2.0044  0.9385
30113SOL     OW94380   8.974   9.460   9.925  0.6862  0.1630 -0.2954
30113SOL    HW194381   8.961   9.550   9.896  0.4592 -0.3129 -1.7704
30113SOL    HW294382   8.937   9.407   9.854  1.3972 -1.0956  0.2467
30114SOL     OW94383   6.425   6.825   9.089  0.0472  0.0207  0.0162
30114SOL    HW194384   6.337   6.787   9.079 -0.4734  1.2525 -0.1735
30114SOL    HW294385   6.411   6.904   9.141  1.0831  0.1314  0.1457
30115SOL     OW94386   5.316  10.045   6.873 -0.1802 -0.0279  0.5812
30115SOL    HW194387   5.372  10.088   6.937 -1.1358 -0.1290  1.5153
30115SOL    HW294388   5.302  10.111   6.805  0.3888  0.2711  0.7508
30116SOL     OW94389   5.338   6.309   0.877  0.6626  0.7734 -0.4546
30116SOL    HW194390   5.339   6.238   0.812  1.8133  1.2567 -0.9715
30116SOL    HW294391   5.257   6.357   0.858  1.6000  1.6747 -2.3810
30117SOL     OW94392   4.667   6.144   8.080 -0.4523  0.4229 -0.2400
30117SOL    HW194393   4.717   6.224   8.065 -0.8172  0.3651 -2.0580
30117SOL    HW294394   4.629   6.155   8.167 -1.8944  3.0105 -1.0896
30118SOL     OW94395   3.494   9.669   4.978  0.5381  0.1162  0.5887
30118SOL    HW194396   3.425   9.604   4.979  0.7081 -0.0688  0.4153
30118SOL    HW294397   3.536   9.659   4.892 -0.3575  1.4341 -0.0464
30119SOL     OW94398   4.341   4.973  10.153  0.3315 -0.6455 -0.1452
30119SOL    HW194399   4.381   4.936  10.232 -1.1833  1.9473  1.9865
30119SOL    HW294400   4.294   4.899  10.114  2.2128 -2.3209  0.5527
30120SOL     OW94401   5.504   9.586   5.550 -0.1834  0.6365  0.0578
30120SOL    HW194402   5.593   9.622   5.546 -0.5860  1.6028 -0.5700
30120SOL    HW294403   5.477   9.580   5.458 -0.7948  0.4279  0.2483
30121SOL     OW94404   1.527   5.105   2.313  0.5950  0.4369  0.1594
30121SOL    HW194405   1.577   5.186   2.307 -1.0379  1.5736  1.0445
30121SOL    HW294406   1.463   5.111   2.243  1.3719 -0.7973 -0.6892
30122SOL     OW94407   8.455   1.900   9.504  0.1845  0.4610 -0.3494
30122SOL    HW194408   8.526   1.881   9.443 -0.9000 -0.7294 -1.3039
30122SOL    HW294409   8.441   1.994   9.498  1.9586  0.7930  0.2021
30123SOL     OW94410   9.242   9.462   8.617  0.4219 -0.1968 -0.2190
30123SOL    HW194411   9.180   9.399   8.582  0.6425 -2.9535  3.6124
30123SOL    HW294412   9.326   9.440   8.576 -0.0868 -0.2382 -1.2421
30124SOL     OW94413   1.273   5.367   9.562 -0.1153 -0.1124  0.0990
30124SOL    HW194414   1.335   5.301   9.592  0.8718  1.0105  0.6548
30124SOL    HW294415   1.283   5.368   9.467 -1.3422 -1.8710 -0.0878
30125SOL     OW94416   5.004   8.623   0.121 -0.5573  0.0587  0.4887
30125SOL    HW194417   4.912   8.609   0.143 -0.3410 -0.2421  1.2449
30125SOL    HW294418   5.016   8.581   0.035 -1.6983  2.2361 -0.8128
30126SOL     OW94419   4.725   9.685   5.352 -0.0293  0.9768 -0.3054
30126SOL    HW194420   4.789   9.708   5.284 -0.0736 -1.5963 -1.3261
30126SOL    HW294421   4.774   9.633   5.415 -0.6689  0.7517  0.0182
30127SOL     OW94422   8.412   1.819   2.520  0.3504  0.0684  0.5576
30127SOL    HW194423   8.419   1.747   2.583 -0.4829  0.1043  0.6992
30127SOL    HW294424   8.452   1.784   2.440  0.4532 -0.3541  0.7866
30128SOL     OW94425   3.655   5.575   1.376  0.2279 -0.1871 -0.0181
30128SOL    HW194426   3.575   5.627   1.376  0.8524  0.8166 -0.8054
30128SOL    HW294427   3.652   5.525   1.458 -1.0554  0.0443  0.0902
30129SOL     OW94428  10.243   3.182   6.385  1.1662  0.2362  0.1885
30129SOL    HW194429  10.300   3.117   6.425  1.2431 -0.1364 -0.5142
30129SOL    HW294430  10.173   3.130   6.344  0.2905  0.6860  1.0809
30130SOL     OW94431   4.340   0.589   0.483 -1.6972 -0.7612 -0.2790
30130SOL    HW194432   4.306   0.643   0.555 -1.0078 -0.8770  0.1427
30130SOL    HW294433   4.304   0.502   0.499 -2.3015 -0.5806 -0.6079
30131SOL     OW94434   6.035   4.723   7.033  0.2267  0.5993  0.0900
30131SOL    HW194435   5.999   4.741   6.947 -0.1184 -1.1815 -0.1851
30131SOL    HW294436   5.983   4.650   7.066  1.2143  0.3738  1.2324
30132SOL     OW94437   9.218   1.496   2.522 -0.7492  0.6847  0.3811
30132SOL    HW194438   9.239   1.501   2.429 -0.7933 -0.4844  0.2901
30132SOL    HW294439   9.302   1.511   2.566 -0.5069  0.1334  0.1185
30133SOL     OW94440  10.234   3.815   9.729 -0.0067 -0.4192  0.3466
30133SOL    HW194441  10.239   3.908   9.709  0.6074 -0.5964 -0.3747
30133SOL    HW294442  10.241   3.771   9.644 -2.4994 -1.0960  0.4080
30134SOL     OW94443   9.324   0.043   6.520  0.4926  0.3199 -0.0790
30134SOL    HW194444   9.386  -0.031   6.522  1.2479  0.9417  1.0132
30134SOL    HW294445   9.260   0.019   6.454  0.4980 -1.5032  0.5236
30135SOL     OW94446   9.503   2.147   9.164 -0.0803  0.3516 -0.7021
30135SOL    HW194447   9.571   2.123   9.101 -0.4655  0.9965 -1.3725
30135SOL    HW294448   9.545   2.133   9.249  0.2930 -0.9645 -1.0729
30136SOL     OW94449   0.032   6.966   2.365 -0.2971 -0.1829  0.7246
30136SOL    HW194450   0.052   6.948   2.457 -1.6836 -1.4682  0.8242
30136SOL    HW294451  -0.058   6.933   2.354 -0.0810 -0.2311 -1.1421
30137SOL     OW94452   2.391   9.159   6.556 -0.2958  0.0531 -0.0839
30137SOL    HW194453   2.313   9.138   6.505 -0.8910  0.0009  0.8336
30137SOL    HW294454   2.424   9.240   6.516 -1.0334  0.2869 -0.2458
30138SOL     OW94455   5.715   0.522   2.809  0.5233  0.2907 -0.1010
30138SOL    HW194456   5.774   0.534   2.884  0.0852 -0.8715  0.4604
30138SOL    HW294457   5.640   0.579   2.828  1.1932  1.3320 -0.5329
30139SOL     OW94458   2.381   2.157   2.296 -0.1802  0.2815 -0.8186
30139SOL    HW194459   2.332   2.090   2.344 -1.9471  0.3761 -2.3907
30139SOL    HW294460   2.471   2.149   2.329 -0.5512 -2.1204 -0.1920
30140SOL     OW94461   0.425   6.935   4.896 -1.0852 -0.6415  0.1665
30140SOL    HW194462   0.382   6.880   4.962  1.8561 -1.4566  1.6148
30140SOL    HW294463   0.493   6.982   4.945 -2.0601  2.7375 -1.4363
30141SOL     OW94464   1.928   8.616   1.354 -0.0063 -0.0218 -0.5391
30141SOL    HW194465   1.999   8.653   1.406  0.3385 -2.7542  1.1739
30141SOL    HW294466   1.854   8.674   1.370  0.9564  0.9755  0.4799
30142SOL     OW94467   2.294   3.284   6.944 -0.0895 -0.8030  0.4683
30142SOL    HW194468   2.208   3.244   6.929  0.2203 -1.7525  1.1431
30142SOL    HW294469   2.352   3.237   6.884 -0.2143  0.5878 -0.7964
30143SOL     OW94470   0.502   4.057   3.327 -0.4159  0.3324  0.1907
30143SOL    HW194471   0.597   4.068   3.315 -0.5927  0.3042 -1.5422
30143SOL    HW294472   0.494   3.995   3.399  1.0286 -2.2707 -1.6841
30144SOL     OW94473   6.212   9.407  10.142 -0.5556  0.1492 -0.5594
30144SOL    HW194474   6.182   9.498  10.136 -0.0601  0.2859 -1.1924
30144SOL    HW294475   6.308   9.414  10.140 -0.3637 -0.1930  2.4200
30145SOL     OW94476   5.860   3.914   8.120 -0.1739  0.0768  0.4617
30145SOL    HW194477   5.879   3.954   8.035 -1.3726 -0.0930  0.0880
30145SOL    HW294478   5.885   3.822   8.110  1.1052  0.3661  0.8075
30146SOL     OW94479   4.135  10.158   7.107 -0.3365  0.4515 -0.5683
30146SOL    HW194480   4.178  10.224   7.163 -0.8624  0.6838 -0.4278
30146SOL    HW294481   4.155  10.075   7.149 -1.6179  0.6888  0.6222
30147SOL     OW94482   1.889   9.268   2.481 -0.0448  0.0328 -0.2832
30147SOL    HW194483   1.889   9.178   2.447  3.8464  0.2640 -1.3645
30147SOL    HW294484   1.855   9.321   2.409 -0.0935 -0.3691 -0.5573
30148SOL     OW94485   0.855   4.315   0.374  0.1757  0.7936 -0.4954
30148SOL    HW194486   0.821   4.238   0.327 -0.3000  0.2314  0.7379
30148SOL    HW294487   0.914   4.356   0.311 -0.2326 -0.0857 -1.4965
30149SOL     OW94488   8.722   9.385   4.807 -0.9097 -0.0070 -0.1902
30149SOL    HW194489   8.632   9.382   4.841 -1.5709  0.9229 -1.7216
30149SOL    HW294490   8.770   9.323   4.861 -2.8179 -1.7021 -0.2954
30150SOL     OW94491   6.247   5.445   9.167  0.3047 -0.0652  0.4041
30150SOL    HW194492   6.259   5.516   9.229  0.0501  0.0003  0.3786
30150SOL    HW294493   6.162   5.463   9.125  0.1412 -0.4861  0.5433
30151SOL     OW94494   7.454   9.645   4.055  0.5789 -0.1424 -0.0935
30151SOL    HW194495   7.468   9.555   4.025  2.1441  0.2393 -0.5832
30151SOL    HW294496   7.442   9.695   3.974  0.9319  0.2785  0.1165
30152SOL     OW94497   9.269   9.007   2.481 -0.0915 -0.3421 -0.7173
30152SOL    HW194498   9.186   8.965   2.506 -0.1439  0.5309  0.6746
30152SOL    HW294499   9.273   8.997   2.386 -0.6313 -2.4958 -0.5807
30153SOL     OW94500   7.015   6.029   2.610 -0.0013 -0.0168 -0.0526
30153SOL    HW194501   6.928   6.046   2.646 -1.2637 -0.7458 -2.5200
30153SOL    HW294502   7.012   6.064   2.521  2.5094  0.6028  0.0177
30154SOL     OW94503   7.118   1.483   6.141  0.0111 -0.3101  0.2005
30154SOL    HW194504   7.209   1.490   6.173 -0.3295  0.0733  1.1165
30154SOL    HW294505   7.115   1.542   6.066  0.6681 -0.7721 -0.2108
30155SOL     OW94506   0.042   3.221   4.023 -0.0203  0.0777  0.2160
30155SOL    HW194507   0.118   3.215   4.082 -0.4293  1.3297  0.9145
30155SOL    HW294508  -0.034   3.215   4.081 -0.4942 -1.4009 -0.5017
30156SOL     OW94509   6.505   4.850   2.284 -0.4049 -0.0374 -0.2234
30156SOL    HW194510   6.555   4.769   2.281  0.2044  0.3225  0.1074
30156SOL    HW294511   6.567   4.919   2.260 -0.5388  0.4927  0.8713
30157SOL     OW94512   4.913   8.235   7.343  0.1895 -0.6271  0.3202
30157SOL    HW194513   4.953   8.254   7.258  0.6127  0.7245  0.8002
30157SOL    HW294514   4.968   8.165   7.379  1.1054  0.0145  0.2234
30158SOL     OW94515   9.673   2.984   9.189 -0.5992  0.0524  0.2173
30158SOL    HW194516   9.732   3.049   9.227  0.5296 -1.2948  0.8379
30158SOL    HW294517   9.711   2.963   9.104  0.6351 -1.7857  1.1578
30159SOL     OW94518   8.356   4.430   6.801 -0.1077  0.2215 -0.2136
30159SOL    HW194519   8.376   4.369   6.873 -2.8023 -1.3898 -0.7014
30159SOL    HW294520   8.442   4.453   6.765  1.1471 -1.3159  1.6056
30160SOL     OW94521   1.125   9.339   0.421 -0.1626  0.0507  0.4567
30160SOL    HW194522   1.159   9.361   0.334 -0.2595 -1.5769 -0.0164
30160SOL    HW294523   1.174   9.261   0.447 -0.0133  0.6052  1.9576
30161SOL     OW94524   5.860   8.567   3.279  0.1980 -0.7091  0.4144
30161SOL    HW194525   5.904   8.487   3.249  2.0191  0.8749 -1.3723
30161SOL    HW294526   5.809   8.596   3.204  4.1756  2.8828 -1.3033
30162SOL     OW94527  10.016   2.393   0.101  0.0564  0.3170 -0.1516
30162SOL    HW194528   9.929   2.404   0.064  0.2917 -1.4050 -1.2981
30162SOL    HW294529  10.015   2.306   0.141  1.2504  0.2639 -0.1839
30163SOL     OW94530   0.935   5.443   3.201  0.3029 -0.7012  0.1071
30163SOL    HW194531   1.017   5.408   3.169  1.5237  2.0041 -0.0001
30163SOL    HW294532   0.941   5.437   3.296  1.4415  1.0251  0.1845
30164SOL     OW94533   3.837   1.653   2.860 -0.1527  0.5012 -0.0296
30164SOL    HW194534   3.820   1.612   2.945 -0.4141  0.5718 -0.0486
30164SOL    HW294535   3.751   1.674   2.825 -0.2997 -2.7593 -1.9780
30165SOL     OW94536   4.752   8.982   6.147 -0.1238  0.0446  0.0066
30165SOL    HW194537   4.802   9.036   6.086 -0.2183 -1.3601 -1.3887
30165SOL    HW294538   4.813   8.913   6.173  0.8906  2.0757  3.8288
30166SOL     OW94539   7.978   0.507   5.155 -0.0772  0.5385  0.2024
30166SOL    HW194540   7.971   0.418   5.122  0.5817  0.8523 -0.8158
30166SOL    HW294541   7.912   0.556   5.107 -0.3165  0.6340  0.6294
30167SOL     OW94542   3.329   1.287   0.795 -0.1263  0.2013 -0.4030
30167SOL    HW194543   3.402   1.289   0.732 -1.0210  0.4719 -1.4690
30167SOL    HW294544   3.283   1.369   0.780 -2.3161 -1.2012 -1.8233
30168SOL     OW94545   7.529  10.127   4.019 -0.2801  0.0203 -0.1962
30168SOL    HW194546   7.520  10.049   4.074 -0.6425 -0.0088 -0.2911
30168SOL    HW294547   7.617  10.119   3.981 -0.6586 -0.8481 -0.9543
30169SOL     OW94548   4.851   2.774   2.912  0.1394  0.4250  0.1295
30169SOL    HW194549   4.845   2.835   2.838 -1.4810 -0.5928 -0.6424
30169SOL    HW294550   4.880   2.692   2.872 -0.7293 -0.1266  0.6151
30170SOL     OW94551   0.203   5.002   3.031  0.5574 -0.1699  0.0351
30170SOL    HW194552   0.206   4.907   3.029  0.2189 -0.1869 -1.8750
30170SOL    HW294553   0.288   5.029   2.997  0.4170  0.2006 -0.0267
30171SOL     OW94554   2.057   7.186   0.359  0.0919 -0.1678 -0.2371
30171SOL    HW194555   2.105   7.129   0.299 -0.9626 -0.8292 -0.4814
30171SOL    HW294556   1.973   7.141   0.373 -0.7643  1.3227 -0.4269
30172SOL     OW94557   3.229   7.129   2.449 -0.3006 -0.3317  0.0160
30172SOL    HW194558   3.316   7.134   2.489  0.4505  1.1899 -1.6584
30172SOL    HW294559   3.170   7.166   2.515  0.9299  2.2874 -0.2049
30173SOL     OW94560   4.347   5.735   8.860 -0.7963 -0.4815  0.3897
30173SOL    HW194561   4.319   5.689   8.781  1.2492 -1.1538 -0.0278
30173SOL    HW294562   4.403   5.672   8.906  1.7070  1.3185  0.0392
30174SOL     OW94563   1.911   0.944   6.777 -0.2176 -1.1105 -0.3145
30174SOL    HW194564   1.848   0.942   6.705 -0.2674 -1.5440 -0.2659
30174SOL    HW294565   1.970   0.870   6.758 -0.0359 -1.0246 -0.0857
30175SOL     OW94566   1.616   0.437   7.892  0.2988 -0.3102 -0.4736
30175SOL    HW194567   1.660   0.357   7.921  0.9143  0.5431  1.0502
30175SOL    HW294568   1.648   0.505   7.951  0.3218  1.2205 -2.1530
30176SOL     OW94569   6.314   1.453   7.928  0.2097  0.4061 -0.0677
30176SOL    HW194570   6.330   1.545   7.949  2.3626 -0.6639  3.9198
30176SOL    HW294571   6.366   1.436   7.850  1.2717  2.1639  0.2154
30177SOL     OW94572   0.051   0.325   9.305  0.5728 -0.2988  0.7374
30177SOL    HW194573  -0.037   0.305   9.272  1.4835  0.3692 -2.5474
30177SOL    HW294574   0.039   0.398   9.365 -1.0586  0.3433 -0.3059
30178SOL     OW94575   3.870   1.150   9.258 -0.1988  0.5217  1.0710
30178SOL    HW194576   3.775   1.139   9.259 -0.4489  2.1514 -0.4217
30178SOL    HW294577   3.890   1.199   9.338 -0.5359 -0.2133  1.6167
30179SOL     OW94578   8.330   0.618   2.654  0.6735  0.1555  0.6635
30179SOL    HW194579   8.280   0.538   2.641  1.2990  0.1436 -2.3203
30179SOL    HW294580   8.409   0.590   2.700  0.7342 -0.8932 -0.0482
30180SOL     OW94581   9.651   2.743   3.426 -0.2641 -0.5181 -0.7736
30180SOL    HW194582   9.594   2.668   3.409 -1.7427  0.3484  0.1558
30180SOL    HW294583   9.649   2.754   3.521 -0.2019  0.7772 -0.9059
30181SOL     OW94584   2.179   0.086   4.486 -0.3769  0.4668 -0.1963
30181SOL    HW194585   2.185  -0.008   4.471  1.2769  0.7025 -1.3451
30181SOL    HW294586   2.255   0.107   4.540 -1.5693  0.9450  1.3591
30182SOL     OW94587   6.371   0.735   8.692  0.3170  0.0275 -0.1223
30182SOL    HW194588   6.276   0.742   8.698  0.1649  1.6243 -2.9237
30182SOL    HW294589   6.404   0.805   8.748 -0.1331 -0.4891  0.8061
30183SOL     OW94590   0.283   0.572   6.362  0.1318 -0.2402  0.2542
30183SOL    HW194591   0.325   0.634   6.301  0.7507 -0.1816  0.7295
30183SOL    HW294592   0.190   0.573   6.336  0.3665 -0.1672 -0.6413
30184SOL     OW94593   7.750   8.051   2.701  0.4271 -0.3255  0.4915
30184SOL    HW194594   7.766   8.097   2.784  1.0299  0.5403 -0.0899
30184SOL    HW294595   7.673   7.997   2.719 -1.2423  1.9854  0.8070
30185SOL     OW94596   7.289   6.212   6.142 -0.0173 -0.3489  0.2441
30185SOL    HW194597   7.339   6.131   6.150  1.6478  0.5384 -0.7034
30185SOL    HW294598   7.296   6.236   6.049 -0.1934  1.0511  0.5640
30186SOL     OW94599   4.124  10.230   9.284 -0.1263  0.0610  0.2578
30186SOL    HW194600   4.168  10.144   9.278  0.6589  0.5083 -0.5988
30186SOL    HW294601   4.189  10.286   9.326 -1.0042  0.0183  1.7302
30187SOL     OW94602   0.457   9.868   4.388  0.3795  0.3070 -0.0280
30187SOL    HW194603   0.460   9.941   4.450  1.2099  0.6915 -0.5089
30187SOL    HW294604   0.523   9.889   4.322 -0.3111 -0.2235 -0.9116
30188SOL     OW94605   5.088   0.855   1.815  0.4265 -0.7082 -0.1253
30188SOL    HW194606   5.027   0.921   1.847  1.1830 -1.3807  3.0782
30188SOL    HW294607   5.046   0.771   1.836  0.3352 -1.2923 -2.3833
30189SOL     OW94608   6.093   6.533   4.711 -0.2512  0.2781  0.4772
30189SOL    HW194609   6.015   6.482   4.732 -0.5940  1.1826  1.4665
30189SOL    HW294610   6.095   6.535   4.615 -1.0959 -0.2635  0.4337
30190SOL     OW94611   8.148   2.022   3.249  0.3261 -0.0620  0.3152
30190SOL    HW194612   8.160   1.943   3.301  2.0674 -0.2671 -0.3117
30190SOL    HW294613   8.079   2.000   3.187 -0.2172 -0.5754  1.0878
30191SOL     OW94614   7.513   0.132   7.274 -0.0537 -0.1568 -0.2742
30191SOL    HW194615   7.472   0.087   7.201 -1.1197  0.0518  0.1865
30191SOL    HW294616   7.454   0.205   7.294  0.7822  0.4410  0.0920
30192SOL     OW94617   2.499   2.838   6.827  0.0477 -0.0501  0.3518
30192SOL    HW194618   2.593   2.818   6.828 -0.1627 -1.3032 -1.2301
30192SOL    HW294619   2.494   2.926   6.791  0.5908 -0.3418 -0.4779
30193SOL     OW94620   0.916   5.068   6.329 -0.5168 -0.0147  0.4467
30193SOL    HW194621   0.893   5.161   6.321 -0.5114 -0.1541 -2.1403
30193SOL    HW294622   0.841   5.022   6.291  0.0369 -0.9906  0.5120
30194SOL     OW94623   9.390   6.298   4.366  0.4542  0.2308  0.0262
30194SOL    HW194624   9.474   6.253   4.378 -0.1200 -0.6294  0.9503
30194SOL    HW294625   9.406   6.358   4.293  2.3736  1.3418  1.2798
30195SOL     OW94626   4.596   0.472   0.508  0.2003 -0.1130  0.2013
30195SOL    HW194627   4.545   0.392   0.523  0.4024 -0.1958  0.4516
30195SOL    HW294628   4.531   0.541   0.504  0.1166 -0.1177  1.2449
30196SOL     OW94629   3.068   1.763   0.690  0.1255  0.4111 -0.4805
30196SOL    HW194630   2.976   1.757   0.663  0.5149 -1.9325 -1.5069
30196SOL    HW294631   3.078   1.853   0.722 -2.8609  0.3347  0.9711
30197SOL     OW94632   1.165   3.482   4.817  0.4780  0.8038 -0.0567
30197SOL    HW194633   1.087   3.538   4.820  0.1693  0.3477  0.8319
30197SOL    HW294634   1.216   3.515   4.742  0.2790  2.2349  0.4046
30198SOL     OW94635   9.264   2.533   7.518 -0.1491  0.0370 -0.0513
30198SOL    HW194636   9.215   2.613   7.536 -0.8753 -0.2910 -0.5515
30198SOL    HW294637   9.227   2.468   7.578  1.4278  0.4050  1.4153
30199SOL     OW94638   7.708   9.472   5.359 -0.1731 -0.2665  0.1545
30199SOL    HW194639   7.767   9.404   5.326  1.0078  0.2266  1.1626
30199SOL    HW294640   7.705   9.537   5.290  0.6250 -0.2169  0.1560
30200SOL     OW94641   9.560   3.715   7.083 -0.5117  0.0841 -0.5647
30200SOL    HW194642   9.613   3.654   7.032  1.6424  2.0983 -0.8646
30200SOL    HW294643   9.519   3.772   7.018 -0.3081  0.6609 -0.1964
30201SOL     OW94644   8.564   9.456   4.137  0.1146 -0.0992 -0.0520
30201SOL    HW194645   8.628   9.482   4.204  1.1337  1.1447 -1.4330
30201SOL    HW294646   8.617   9.438   4.060 -1.0260 -1.6080 -0.5370
30202SOL     OW94647   6.451   7.109   1.624 -0.2339  0.2158 -0.4028
30202SOL    HW194648   6.503   7.035   1.656 -1.5995  0.3702  2.4574
30202SOL    HW294649   6.508   7.185   1.633  0.0549 -0.0264 -0.1735
30203SOL     OW94650   8.904   1.620   5.277  0.0992  0.1058  0.6274
30203SOL    HW194651   8.846   1.690   5.247  0.8951  1.2131  1.6103
30203SOL    HW294652   8.875   1.603   5.367 -0.7880 -1.6082  0.0674
30204SOL     OW94653   3.528   6.814   9.888 -0.0596 -0.2394  0.0204
30204SOL    HW194654   3.548   6.838   9.798  1.6852  1.3432  0.7487
30204SOL    HW294655   3.540   6.895   9.937 -1.3506 -0.9709  1.6305
30205SOL     OW94656   6.857   3.869   7.314 -0.0898  0.2147 -0.4482
30205SOL    HW194657   6.825   3.905   7.231  0.3564  0.8502 -0.3516
30205SOL    HW294658   6.952   3.864   7.302  0.1471  1.7272  0.5504
30206SOL     OW94659   8.883   0.480   5.956 -0.0407  0.0208  0.1411
30206SOL    HW194660   8.869   0.408   6.017  0.4280 -1.1553 -1.0746
30206SOL    HW294661   8.978   0.481   5.941  0.1461  1.7920  1.1614
30207SOL     OW94662   8.894   5.942   2.341  0.0852  0.1942  1.0349
30207SOL    HW194663   8.896   5.907   2.252 -1.0223 -0.3168  1.2008
30207SOL    HW294664   8.907   5.865   2.398 -1.2429  0.1959  1.3655
30208SOL     OW94665   0.669   0.162   5.613  0.3402 -0.3802 -0.3568
30208SOL    HW194666   0.759   0.159   5.645 -0.4346  0.5391  2.2213
30208SOL    HW294667   0.639   0.071   5.616  1.1650 -0.6904 -1.2441
30209SOL     OW94668   6.613   4.473   1.366  0.5774  0.1031  0.2621
30209SOL    HW194669   6.642   4.557   1.400 -0.3577  0.5034  0.0825
30209SOL    HW294670   6.519   4.469   1.386  0.4837 -0.6299 -0.2675
30210SOL     OW94671   0.411   5.057   8.649  0.2034 -0.5218 -0.5849
30210SOL    HW194672   0.442   5.144   8.626  1.1688 -0.6268  0.2505
30210SOL    HW294673   0.370   5.024   8.569 -0.0658  0.6388 -0.9435
30211SOL     OW94674   2.703   8.143   5.047  0.2871 -0.3400 -0.3364
30211SOL    HW194675   2.703   8.208   4.976  0.4974 -0.2803 -0.2816
30211SOL    HW294676   2.792   8.146   5.082 -0.5111  1.6429  1.7928
30212SOL     OW94677   5.321   3.981   3.956  0.1527  0.8369 -0.0795
30212SOL    HW194678   5.401   3.995   3.906  0.6165  0.3141  0.5003
30212SOL    HW294679   5.349   3.936   4.036 -0.7069  0.7064  0.1699
30213SOL     OW94680   3.241   3.675   3.646  0.0191  0.2818 -0.2003
30213SOL    HW194681   3.314   3.621   3.616  0.1060  0.9367 -1.2003
30213SOL    HW294682   3.178   3.612   3.681 -0.1387 -0.5458 -1.8946
30214SOL     OW94683   8.453   2.748   3.225  0.2639  0.7234  0.4317
30214SOL    HW194684   8.463   2.756   3.320 -0.2409 -0.1494  0.5765
30214SOL    HW294685   8.424   2.658   3.212 -1.6657  1.3837 -0.3591
30215SOL     OW94686   2.137  10.240   8.230  0.0365 -0.3526  0.0615
30215SOL    HW194687   2.075  10.219   8.161 -0.6488 -0.6681  0.7585
30215SOL    HW294688   2.223  10.233   8.188 -0.3829  0.0721 -0.9080
30216SOL     OW94689   5.658   8.672   6.435  0.3997  0.5668 -0.0059
30216SOL    HW194690   5.632   8.761   6.410 -1.3719  0.0302 -0.1508
30216SOL    HW294691   5.722   8.647   6.368  0.0948  1.3290 -0.6008
30217SOL     OW94692   0.542   9.424   0.028  0.3088  1.4514 -0.5140
30217SOL    HW194693   0.588   9.342   0.015 -0.2376  0.7909  1.4861
30217SOL    HW294694   0.468   9.402   0.084  0.5418  3.4080  0.6635
30218SOL     OW94695   9.163   0.482   5.534 -0.3719  0.9203  0.7168
30218SOL    HW194696   9.127   0.409   5.484  1.6075  1.4361 -1.6434
30218SOL    HW294697   9.100   0.497   5.604 -1.5383 -2.1067  0.4292
30219SOL     OW94698   1.388   4.363   2.328  0.9620 -0.3116 -0.4790
30219SOL    HW194699   1.331   4.331   2.398 -0.0011  1.8081 -0.2443
30219SOL    HW294700   1.329   4.381   2.255  1.4666  0.8798 -0.6074
30220SOL     OW94701   4.737   6.428   7.441  0.0893 -0.3806  0.0751
30220SOL    HW194702   4.680   6.496   7.477 -0.1724 -0.6081  0.0926
30220SOL    HW294703   4.796   6.475   7.382 -0.8458 -0.2877 -0.8160
30221SOL     OW94704   3.015   3.605   4.797  0.7414  0.1467 -0.1339
30221SOL    HW194705   3.090   3.643   4.843  1.4118  0.7278 -1.6131
30221SOL    HW294706   2.988   3.531   4.851  0.6982  1.4886  1.7825
30222SOL     OW94707   8.579   5.299   8.075 -0.2814 -0.0625 -0.2256
30222SOL    HW194708   8.496   5.261   8.045  0.3010 -0.4155 -1.4780
30222SOL    HW294709   8.619   5.230   8.128 -0.4109 -0.2077 -0.3128
30223SOL     OW94710   4.197   0.010   3.172  0.1609  0.7794  0.2039
30223SOL    HW194711   4.199   0.046   3.083 -0.1059  0.2740 -0.0147
30223SOL    HW294712   4.289  -0.004   3.194  0.2161  0.5735 -0.1408
30224SOL     OW94713   4.304   7.108   6.385 -0.0861  0.0347  0.3447
30224SOL    HW194714   4.272   7.040   6.444  1.8557  1.1009  2.7904
30224SOL    HW294715   4.251   7.185   6.404  1.2020  0.6698  1.5115
30225SOL     OW94716   5.642   0.801   4.563 -0.2600 -0.1806 -0.4198
30225SOL    HW194717   5.648   0.710   4.593 -0.1949  0.1807  0.7026
30225SOL    HW294718   5.550   0.824   4.575 -0.2476 -0.0541 -0.5727
30226SOL     OW94719   1.841   2.095   5.317 -0.2057  0.2904 -0.1021
30226SOL    HW194720   1.869   2.018   5.366  1.6952 -0.1745 -1.7526
30226SOL    HW294721   1.848   2.168   5.379 -0.8063 -0.6566  1.1162
30227SOL     OW94722   0.648   9.632   6.416  0.2826  0.2855  0.6450
30227SOL    HW194723   0.668   9.541   6.396  2.6219  0.8532  0.0365
30227SOL    HW294724   0.732   9.670   6.442 -0.0846  2.8556 -1.4914
30228SOL     OW94725   7.560   5.402   5.906 -0.7998 -0.4246 -0.4891
30228SOL    HW194726   7.645   5.441   5.884 -0.5459 -0.6774  0.0224
30228SOL    HW294727   7.496   5.456   5.860 -0.4166  0.2682 -0.2319
30229SOL     OW94728   9.043   8.577   2.891  0.5314  0.4972 -0.2806
30229SOL    HW194729   8.975   8.510   2.901  0.1913  1.0054  1.0798
30229SOL    HW294730   9.117   8.531   2.853  0.7117 -0.9485  1.6688
30230SOL     OW94731   1.759   7.502   8.417 -0.1221 -0.4249 -0.2003
30230SOL    HW194732   1.675   7.502   8.371 -1.7309  3.4815  2.2279
30230SOL    HW294733   1.741   7.456   8.499  0.8909 -1.7528 -0.6986
30231SOL     OW94734   6.773   5.850   2.777  0.0059 -0.2578 -0.6047
30231SOL    HW194735   6.756   5.937   2.742  0.3539 -0.3350 -0.9568
30231SOL    HW294736   6.866   5.850   2.799 -0.4960  0.3947  1.9816
30232SOL     OW94737   5.664   7.170   3.396  0.8602 -0.0857  0.1773
30232SOL    HW194738   5.757   7.190   3.382  1.0152  1.3337  2.5580
30232SOL    HW294739   5.663   7.079   3.425  1.6452  0.1283  0.9351
30233SOL     OW94740   0.251  10.120   1.449 -0.4671 -0.3483 -0.1505
30233SOL    HW194741   0.257  10.025   1.435 -1.3051 -0.4982  0.4534
30233SOL    HW294742   0.282  10.158   1.367 -0.2644 -1.1403 -0.4536
30234SOL     OW94743   3.155   8.357   8.617 -0.1219  0.1703  0.4716
30234SOL    HW194744   3.209   8.288   8.654 -0.4798  0.4639  1.5831
30234SOL    HW294745   3.201   8.384   8.538  0.3111 -0.9431  0.3181
30235SOL     OW94746   2.616   2.015   7.887  0.1802 -0.6575  0.0426
30235SOL    HW194747   2.686   2.060   7.935  0.3222  0.1116 -0.8445
30235SOL    HW294748   2.599   2.072   7.811 -2.4330 -0.0669  0.9772
30236SOL     OW94749   9.007   1.333   6.977 -0.2348  0.3151  0.1154
30236SOL    HW194750   8.921   1.297   6.997  0.0332 -1.1487 -1.2343
30236SOL    HW294751   9.045   1.273   6.913  1.2343  1.6878 -0.3855
30237SOL     OW94752   6.640   0.002   5.194 -0.5299 -0.7145  0.0295
30237SOL    HW194753   6.597   0.009   5.279  0.3983  0.6855  0.4049
30237SOL    HW294754   6.727   0.038   5.208  0.1261 -1.7464 -1.1916
30238SOL     OW94755   9.078   0.062   1.681  0.5626 -0.1018 -0.1394
30238SOL    HW194756   9.047  -0.001   1.615  0.0273  1.0121 -0.9777
30238SOL    HW294757   9.116   0.007   1.749 -0.7594 -1.4007 -0.3804
30239SOL     OW94758   6.652   9.267   3.787  0.1500 -0.3405 -0.4302
30239SOL    HW194759   6.572   9.225   3.817  0.1688  1.3771  2.4287
30239SOL    HW294760   6.720   9.236   3.847  0.6020  1.8260  0.2769
30240SOL     OW94761   2.737   7.695   5.741 -0.0006  0.3325 -0.1780
30240SOL    HW194762   2.672   7.745   5.692  0.3828  0.9548 -0.0720
30240SOL    HW294763   2.785   7.645   5.675  0.1938  0.7948 -0.3904
30241SOL     OW94764   0.797   7.070   4.237  0.1187  0.1499  0.3883
30241SOL    HW194765   0.812   7.064   4.143 -0.1817 -1.9377  0.4070
30241SOL    HW294766   0.813   6.981   4.269  0.4297  0.8622  2.3532
30242SOL     OW94767   3.632   4.630   7.344 -0.1427  0.1988 -0.5597
30242SOL    HW194768   3.647   4.572   7.419 -1.0849  1.6799  0.8210
30242SOL    HW294769   3.653   4.717   7.377 -2.4668  1.1414 -1.3747
30243SOL     OW94770   6.901   1.740   4.683  0.1932 -0.3364 -0.7594
30243SOL    HW194771   6.958   1.677   4.640 -0.5110 -2.1552  0.8085
30243SOL    HW294772   6.815   1.698   4.683 -0.2150  0.4263  0.6980
30244SOL     OW94773   9.606   8.573   3.463  0.0165 -0.3911 -0.0952
30244SOL    HW194774   9.688   8.555   3.417  0.6308  0.2464  0.7081
30244SOL    HW294775   9.566   8.487   3.477  0.3416 -0.6727 -0.8495
30245SOL     OW94776   7.653   1.786   0.466  0.5094  0.1221  0.2621
30245SOL    HW194777   7.571   1.832   0.483 -1.1750 -1.8850 -1.7362
30245SOL    HW294778   7.684   1.822   0.384  0.5096 -0.5204 -0.0280
30246SOL     OW94779   0.020   1.571   5.516  0.0761 -0.3298  0.1833
30246SOL    HW194780  -0.062   1.610   5.548 -0.7446 -0.8855 -1.1968
30246SOL    HW294781   0.088   1.627   5.554 -1.0211  1.9367 -0.9691
30247SOL     OW94782   8.021   7.359   8.947 -0.4461 -0.3356 -0.4054
30247SOL    HW194783   8.064   7.324   9.025 -0.6538 -1.0903 -0.6282
30247SOL    HW294784   8.092   7.374   8.885 -0.3346 -0.1647 -0.2389
30248SOL     OW94785   7.090   5.657   1.369 -0.1495 -0.1020  0.6117
30248SOL    HW194786   7.160   5.600   1.402  1.6205  1.7236  0.2176
30248SOL    HW294787   7.097   5.650   1.274  0.1029  0.7806  0.5643
30249SOL     OW94788   7.135   7.456  10.132 -0.6444  0.2345  0.1303
30249SOL    HW194789   7.151   7.378  10.080  0.7069  0.0972  0.6992
30249SOL    HW294790   7.126   7.424  10.222 -2.1603  0.5490  0.1226
30250SOL     OW94791   1.024   9.273   3.641 -0.0309  0.4494 -0.0884
30250SOL    HW194792   0.993   9.344   3.696  3.1716  0.7451  1.5812
30250SOL    HW294793   0.981   9.195   3.676 -0.4702  1.0454  0.7382
30251SOL     OW94794   0.633   1.886   9.631  0.4061 -0.1363 -0.3000
30251SOL    HW194795   0.640   1.936   9.549 -0.6397  1.1251  0.3396
30251SOL    HW294796   0.720   1.891   9.670  0.2395  1.5618 -0.0739
30252SOL     OW94797   8.715   5.118   9.958 -0.3017  0.2224  0.6142
30252SOL    HW194798   8.722   5.078   9.871 -0.3853  0.7647  0.3529
30252SOL    HW294799   8.745   5.050  10.018 -1.3767 -0.5825  0.2675
30253SOL     OW94800   3.934   1.586   5.131  0.3252 -0.3300  0.2391
30253SOL    HW194801   3.980   1.670   5.132 -0.3528  0.0793 -1.4189
30253SOL    HW294802   3.860   1.598   5.191  0.1395  0.3084 -0.1141
30254SOL     OW94803   7.057   7.902   0.482 -0.7831  0.7104 -0.2283
30254SOL    HW194804   7.052   7.969   0.550 -0.3483  1.2445 -0.7143
30254SOL    HW294805   7.098   7.945   0.408  0.5141 -0.3914 -0.1916
30255SOL     OW94806   0.312   2.324   9.424  0.0319  0.1115  0.2595
30255SOL    HW194807   0.375   2.395   9.436 -1.2482  1.2004  0.8308
30255SOL    HW294808   0.235   2.351   9.474 -0.8547 -1.2325 -0.2991
30256SOL     OW94809   4.465   7.651   5.129 -0.4557  0.3151 -0.1989
30256SOL    HW194810   4.550   7.661   5.172 -0.1604  1.7845 -1.0637
30256SOL    HW294811   4.451   7.556   5.124  1.1326  0.0518 -0.0667
30257SOL     OW94812   2.126   5.725   1.365 -0.5124  0.1517  0.4111
30257SOL    HW194813   2.221   5.723   1.359 -0.5392  0.5480 -0.2145
30257SOL    HW294814   2.097   5.641   1.330 -0.4779  0.8332 -1.3080
30258SOL     OW94815   8.909   2.972   2.759 -0.4226  0.4864  0.3422
30258SOL    HW194816   8.968   3.042   2.786 -0.5517  1.0430 -0.7529
30258SOL    HW294817   8.879   2.999   2.672 -1.4615 -0.3108  0.4434
30259SOL     OW94818   3.685   4.253   6.530 -0.0040  0.2181  0.3444
30259SOL    HW194819   3.607   4.198   6.530  0.2596 -0.2404 -1.5453
30259SOL    HW294820   3.670   4.316   6.601 -2.6973  0.9543 -0.7197
30260SOL     OW94821   7.664   3.768   7.395 -0.4308  0.0605 -0.4554
30260SOL    HW194822   7.582   3.739   7.435 -0.2029  0.8779  0.6711
30260SOL    HW294823   7.723   3.693   7.406 -0.6656 -0.0835 -0.1363
30261SOL     OW94824   6.748   3.594   5.525 -0.2714 -0.2328 -0.1533
30261SOL    HW194825   6.706   3.675   5.495  1.8496  1.1924  0.5003
30261SOL    HW294826   6.751   3.602   5.620  0.5146 -0.7696 -0.1236
30262SOL     OW94827   1.460   5.484   1.857  0.1851  0.0530 -0.2364
30262SOL    HW194828   1.523   5.414   1.872 -1.6296 -1.5765  0.1650
30262SOL    HW294829   1.494   5.531   1.781  2.9810  0.6313  1.2323
30263SOL     OW94830   0.997   0.583   9.010 -0.6786  0.0665  0.0338
30263SOL    HW194831   0.929   0.538   8.960  0.7492 -1.8583 -0.2742
30263SOL    HW294832   0.956   0.665   9.037 -2.4736 -0.1567 -1.7724
30264SOL     OW94833  10.122   3.011   9.360 -0.3347 -0.5158 -0.1750
30264SOL    HW194834  10.086   3.095   9.388 -1.3065 -1.2689  0.9792
30264SOL    HW294835  10.055   2.947   9.384  1.0630 -1.8005  0.5422
30265SOL     OW94836   9.554   0.712   3.533  0.3635  0.0717 -0.3022
30265SOL    HW194837   9.508   0.736   3.613 -1.5294 -0.1989 -1.2448
30265SOL    HW294838   9.643   0.690   3.561  0.4529  2.2593  1.3787
30266SOL     OW94839   2.320   0.072   7.380  0.1286  0.1068  0.1174
30266SOL    HW194840   2.398   0.117   7.348  0.3642  0.5107  1.2214
30266SOL    HW294841   2.270   0.139   7.426 -0.7996 -0.1876 -0.4288
30267SOL     OW94842   4.900   8.958   1.530  0.3347 -0.0385  0.1997
30267SOL    HW194843   4.851   8.944   1.449  0.6228  3.5947 -0.8289
30267SOL    HW294844   4.972   9.016   1.503  1.3213  0.0547  2.8060
30268SOL     OW94845   2.627   6.624   7.559  0.3699 -0.1513 -0.1661
30268SOL    HW194846   2.676   6.676   7.495  0.0633 -1.0263 -1.1360
30268SOL    HW294847   2.642   6.668   7.643  0.3072  1.3585 -0.9243
30269SOL     OW94848   4.465   6.331   4.993 -0.0266  0.3778 -0.5969
30269SOL    HW194849   4.528   6.290   5.052 -0.5044  0.5500  0.0456
30269SOL    HW294850   4.518   6.389   4.938  0.4286  0.2036 -0.3477
30270SOL     OW94851   3.482   8.686   4.347 -0.5027 -0.2187  0.2580
30270SOL    HW194852   3.474   8.781   4.355 -0.5278 -0.3647  3.6406
30270SOL    HW294853   3.567   8.666   4.386 -1.6821 -1.7158  2.2693
30271SOL     OW94854  10.035   3.675   8.607 -0.1704 -0.1130  0.3565
30271SOL    HW194855  10.029   3.770   8.603  0.7239 -0.0767 -0.4100
30271SOL    HW294856  10.116   3.654   8.559  0.0597 -1.1948  1.1771
30272SOL     OW94857   7.738   8.980   3.759 -0.0311 -0.1078  0.5791
30272SOL    HW194858   7.817   8.959   3.709 -1.7226 -1.2745 -1.7797
30272SOL    HW294859   7.706   9.061   3.720 -0.4654 -0.1105  0.9270
30273SOL     OW94860   0.995   5.602   8.880 -0.5076 -0.3555 -0.2074
30273SOL    HW194861   1.028   5.655   8.953 -1.7683  0.1128  0.0567
30273SOL    HW294862   0.923   5.552   8.918  1.1567 -2.9367 -0.2546
30274SOL     OW94863   1.244   9.597   9.304  0.1773  0.2286 -0.2940
30274SOL    HW194864   1.249   9.584   9.210  1.2255 -2.6420  0.0497
30274SOL    HW294865   1.301   9.672   9.321  2.7758 -1.2557 -1.7012
30275SOL     OW94866   0.726  10.021   3.968 -0.1920  0.5220 -0.8812
30275SOL    HW194867   0.724  10.093   3.904  1.1157  0.8742 -0.5614
30275SOL    HW294868   0.771   9.950   3.922  0.3048  0.6062 -0.5365
30276SOL     OW94869   0.724   8.064   1.392  0.1646  0.5333  0.5882
30276SOL    HW194870   0.663   8.009   1.440 -0.3095 -0.8506 -1.4376
30276SOL    HW294871   0.669   8.125   1.342  0.4517  0.0100 -0.4006
30277SOL     OW94872   7.085   3.758   9.387  0.0285 -0.0923  0.4487
30277SOL    HW194873   7.179   3.742   9.382  0.0202  0.0606 -0.4278
30277SOL    HW294874   7.045   3.673   9.370  0.0059  0.0948 -0.4639
30278SOL     OW94875   8.291   8.386   0.918  0.4932 -0.3231 -0.0695
30278SOL    HW194876   8.294   8.482   0.920 -2.6935 -0.0812 -1.0942
30278SOL    HW294877   8.306   8.363   0.826 -2.0824 -0.4912 -0.5106
30279SOL     OW94878   2.548  10.199   4.875  0.5060  0.0211 -0.1633
30279SOL    HW194879   2.506  10.213   4.960 -0.3576 -0.4601 -0.4966
30279SOL    HW294880   2.514  10.269   4.819 -1.6929 -1.6362 -1.0682
30280SOL     OW94881   2.987   6.406   9.179  0.3934  0.2602  0.1061
30280SOL    HW194882   3.076   6.386   9.208  0.4687  0.4820  0.0273
30280SOL    HW294883   2.956   6.473   9.240  0.2969  0.2159  0.1050
30281SOL     OW94884   3.155   5.864   2.463 -0.6717  0.4578 -0.0168
30281SOL    HW194885   3.110   5.948   2.470  0.6164  1.2378 -0.8536
30281SOL    HW294886   3.240   5.885   2.425  0.0604 -1.0971  0.6684
30282SOL     OW94887   8.909   9.878   7.848 -0.2797 -0.1612 -0.2587
30282SOL    HW194888   8.870   9.919   7.770 -2.8899 -0.7876  0.6415
30282SOL    HW294889   9.003   9.880   7.830 -0.6893  0.9249 -2.8262
30283SOL     OW94890   6.766   3.037   5.462  0.4272  0.1792 -0.2334
30283SOL    HW194891   6.841   3.054   5.405  0.7569 -0.2980  0.0552
30283SOL    HW294892   6.784   2.951   5.500  0.4133  0.6741  0.9056
30284SOL     OW94893   8.137   0.119   1.463 -0.3031  0.4263  0.0913
30284SOL    HW194894   8.125   0.030   1.496  0.7080  0.0019 -0.6403
30284SOL    HW294895   8.206   0.112   1.397 -0.9903  1.5642 -0.8044
30285SOL     OW94896   3.042   9.251   0.755 -0.4173 -0.2225 -0.4179
30285SOL    HW194897   3.063   9.200   0.834 -0.5381 -0.4262 -0.5152
30285SOL    HW294898   3.116   9.234   0.696  0.3332  0.9794  0.1399
30286SOL     OW94899   0.596   8.955   8.382 -0.1226 -0.0184  0.2561
30286SOL    HW194900   0.598   8.874   8.433 -1.5415 -1.1828 -1.3847
30286SOL    HW294901   0.504   8.966   8.359  0.3507  0.8842 -1.3484
30287SOL     OW94902   6.668   8.652   1.779  0.0819  0.0018 -0.1334
30287SOL    HW194903   6.604   8.690   1.719  0.1446  0.1619 -0.1016
30287SOL    HW294904   6.667   8.559   1.760 -1.0989 -0.1911  0.7440
30288SOL     OW94905   7.321   7.673   5.562  0.3515 -0.2766 -0.3282
30288SOL    HW194906   7.354   7.722   5.487  3.0308  0.1436  0.9843
30288SOL    HW294907   7.400   7.639   5.605 -1.0424 -0.4690  2.3000
30289SOL     OW94908   9.228   7.776   4.787  0.0452  0.1712  0.2718
30289SOL    HW194909   9.250   7.797   4.878 -1.5760 -3.9981  1.8523
30289SOL    HW294910   9.138   7.806   4.776 -0.3496 -0.8269  0.6694
30290SOL     OW94911   0.294   4.425   0.986  0.2660 -0.1626 -0.1728
30290SOL    HW194912   0.233   4.468   0.927 -0.4863 -1.1042 -0.1129
30290SOL    HW294913   0.380   4.459   0.962  0.0026 -0.6968 -1.9684
30291SOL     OW94914   8.141   2.058   1.188 -0.0394  0.4297  0.2102
30291SOL    HW194915   8.203   2.024   1.252  0.5520  1.0721 -0.0069
30291SOL    HW294916   8.058   2.063   1.234  0.1921  0.0611  0.6661
30292SOL     OW94917   6.722   2.649   7.195 -0.0035  0.7480  0.0634
30292SOL    HW194918   6.664   2.649   7.119  1.2162  2.6571 -0.9572
30292SOL    HW294919   6.806   2.618   7.161  0.4163  1.0996  0.7502
30293SOL     OW94920   0.136   2.483   5.957 -0.6643 -0.0202  0.0846
30293SOL    HW194921   0.186   2.516   6.031 -0.4402  0.0786 -0.1091
30293SOL    HW294922   0.125   2.390   5.976  0.3578 -0.2385 -0.2877
30294SOL     OW94923  10.061   6.704   2.093  0.1622 -0.1646  0.2827
30294SOL    HW194924  10.053   6.612   2.116  2.1109 -0.2031  0.9199
30294SOL    HW294925  10.144   6.711   2.047 -0.3540  1.1504 -0.5305
30295SOL     OW94926   4.754   3.915   7.117 -0.4859 -0.6958 -0.2087
30295SOL    HW194927   4.781   3.998   7.078 -0.5967 -0.7690 -0.4442
30295SOL    HW294928   4.658   3.916   7.111 -0.6912  0.3079  2.1201
30296SOL     OW94929   1.983   7.808   4.446  0.5321  0.4952 -0.6153
30296SOL    HW194930   1.964   7.798   4.540  0.6201  1.3582 -0.4976
30296SOL    HW294931   2.079   7.810   4.442  0.5285  0.4259 -0.7308
30297SOL     OW94932   6.057   2.621   2.384 -0.5590  0.1160  0.2619
30297SOL    HW194933   6.010   2.704   2.393  0.1846  0.7063 -1.1344
30297SOL    HW294934   6.145   2.639   2.416 -0.2329  0.0225 -0.5727
30298SOL     OW94935   3.512   5.266   7.370  0.1487  0.3516 -0.7219
30298SOL    HW194936   3.540   5.346   7.326 -1.3345  0.8003 -0.8820
30298SOL    HW294937   3.509   5.200   7.301  2.0131 -0.0445 -0.4741
30299SOL     OW94938   5.695   7.529   7.363 -0.1722 -0.2645  0.5348
30299SOL    HW194939   5.770   7.559   7.311  0.7965 -2.1458  0.7305
30299SOL    HW294940   5.619   7.546   7.308  0.5552  0.2792 -0.3299
30300SOL     OW94941   8.820   9.744   4.987  0.3782 -0.3583  0.2606
30300SOL    HW194942   8.911   9.715   4.980  0.0226 -1.5033  0.0753
30300SOL    HW294943   8.784   9.691   5.059 -0.6737 -1.4501 -1.0092
30301SOL     OW94944   4.679   4.097   6.068  0.1442 -0.4631  0.3307
30301SOL    HW194945   4.754   4.155   6.078  1.0401 -1.8695  2.3708
30301SOL    HW294946   4.685   4.066   5.978  2.4788 -1.1382  0.6587
30302SOL     OW94947   6.346   1.684   5.417 -0.1060  0.5062  0.7640
30302SOL    HW194948   6.392   1.600   5.423  1.6113  1.3090 -0.2490
30302SOL    HW294949   6.373   1.732   5.495 -0.0331  0.5968  0.6839
30303SOL     OW94950   3.812   9.307  10.261  0.1240 -0.1709 -0.1686
30303SOL    HW194951   3.824   9.343  10.173  1.6421 -0.5052 -0.1259
30303SOL    HW294952   3.882   9.346  10.312 -0.2296 -0.6426  0.6870
30304SOL     OW94953   8.877   3.787   0.672 -0.2410 -0.1056  0.2984
30304SOL    HW194954   8.919   3.712   0.714 -0.2001  0.6381  1.6806
30304SOL    HW294955   8.924   3.798   0.590 -1.0341 -2.2982 -0.5193
30305SOL     OW94956   3.802  10.267   4.295  0.0794 -0.3486  0.1188
30305SOL    HW194957   3.794  10.256   4.389 -0.4515  0.5164  0.1918
30305SOL    HW294958   3.860  10.197   4.267  0.9358 -0.1050  1.2079
30306SOL     OW94959   0.627   0.159   4.976 -0.2057  0.0965  0.8282
30306SOL    HW194960   0.691   0.170   4.905 -1.9124 -3.1348 -1.4189
30306SOL    HW294961   0.560   0.225   4.957 -1.8342 -2.1898 -2.1895
30307SOL     OW94962   6.616   9.995   1.887 -0.0308 -0.7885  0.0924
30307SOL    HW194963   6.683  10.003   1.819  0.4382 -1.4041  0.4764
30307SOL    HW294964   6.621  10.078   1.935  1.2846 -1.2647  0.8497
30308SOL     OW94965   7.063   1.319   2.004  0.2352 -0.1785 -0.3136
30308SOL    HW194966   6.978   1.355   1.978 -0.3507 -1.9399 -0.9880
30308SOL    HW294967   7.053   1.301   2.098  1.3789  3.4990  0.7101
30309SOL     OW94968   6.741   9.600  10.028  0.5458  0.6000  0.2590
30309SOL    HW194969   6.751   9.623  10.120  1.3486  0.5130  0.2036
30309SOL    HW294970   6.800   9.525  10.016 -1.5814 -1.1845  0.3238
30310SOL     OW94971   6.297   7.761   9.543  0.5366  0.4734  0.5961
30310SOL    HW194972   6.339   7.799   9.466  1.0305  0.1978  0.7252
30310SOL    HW294973   6.324   7.817   9.616  2.0419 -0.6384  0.9355
30311SOL     OW94974   5.058   8.239   4.617 -0.4494 -0.0572  0.3487
30311SOL    HW194975   5.082   8.212   4.706 -0.0681 -0.1497  0.2211
30311SOL    HW294976   5.140   8.234   4.568 -1.0847 -2.3877 -0.6257
30312SOL     OW94977   2.514   7.070   3.155  0.0287 -0.3294  0.2468
30312SOL    HW194978   2.457   7.049   3.229  0.8258 -0.0678  0.9529
30312SOL    HW294979   2.584   7.005   3.159 -0.2710 -0.7364 -0.6999
30313SOL     OW94980   8.970   4.484   1.781  0.7814 -0.0986  0.0556
30313SOL    HW194981   9.059   4.516   1.762  0.4870  0.9136  0.3503
30313SOL    HW294982   8.965   4.400   1.735  2.0676 -0.4139  0.4522
30314SOL     OW94983   3.651   8.649   3.024  0.0543  0.0339 -0.2566
30314SOL    HW194984   3.711   8.619   2.955  0.9060  1.9292 -0.4131
30314SOL    HW294985   3.705   8.705   3.080 -1.4902  1.6510 -0.2855
30315SOL     OW94986   2.893   3.329   8.581 -0.0617 -0.3125  0.1946
30315SOL    HW194987   2.822   3.275   8.547  0.6071  0.0357 -1.9718
30315SOL    HW294988   2.972   3.277   8.563  0.4001  0.3455  0.3069
30316SOL     OW94989   3.195   0.516   6.935  0.1705  0.4713  0.0677
30316SOL    HW194990   3.219   0.596   6.888 -1.0690  0.0732 -1.3258
30316SOL    HW294991   3.255   0.449   6.902  1.2073  0.8029  1.2332
30317SOL     OW94992   2.650   6.163   3.092 -0.0004 -0.0179 -0.1747
30317SOL    HW194993   2.600   6.163   3.174  0.2357 -0.5238 -0.0222
30317SOL    HW294994   2.622   6.083   3.048  1.5312 -0.9561  0.4636
30318SOL     OW94995   0.803   4.162   0.144  0.2259 -0.0323  0.1871
30318SOL    HW194996   0.770   4.174   0.055  0.5855  1.6023  0.2610
30318SOL    HW294997   0.770   4.076   0.170 -2.1411  0.5945 -0.5446
30319SOL     OW94998   2.309   5.468   7.070 -0.1789  0.4544  0.1352
30319SOL    HW194999   2.354   5.409   7.130  0.7646  0.0194 -0.9753
30319SOL    HW295000   2.232   5.497   7.119 -1.1962 -2.4042  0.3927
30320SOL     OW95001   5.775  10.279   7.559  0.5508  0.4615  0.5626
30320SOL    HW195002   5.826  10.209   7.519  0.2060  0.7985 -0.4986
30320SOL    HW295003   5.723  10.316   7.487  0.7833  1.8568  1.0688
30321SOL     OW95004   5.726   4.860   1.447 -0.1008 -0.2530  0.3174
30321SOL    HW195005   5.723   4.946   1.490 -0.9033 -0.5628  0.9186
30321SOL    HW295006   5.740   4.798   1.519 -1.3693 -0.7714  0.1483
30322SOL     OW95007   5.527   0.155   4.178 -0.0218 -0.3858  0.5646
30322SOL    HW195008   5.464   0.146   4.249  1.3253  1.1749  2.0801
30322SOL    HW295009   5.586   0.080   4.188  0.6168  0.2315  1.6416
30323SOL     OW95010   5.119   2.650   7.452 -0.5522 -0.0863 -0.0007
30323SOL    HW195011   5.030   2.628   7.423 -0.1476 -0.2829 -1.1501
30323SOL    HW295012   5.172   2.644   7.372  0.4778  0.1153  0.6541
30324SOL     OW95013   2.248   0.785   5.276 -0.3947 -0.1712  0.5164
30324SOL    HW195014   2.222   0.723   5.208 -1.1981  0.6923  0.0257
30324SOL    HW295015   2.207   0.867   5.251  0.8074  0.6215  1.0612
30325SOL     OW95016   2.003   8.054   0.689  0.2540  0.0144 -0.0906
30325SOL    HW195017   2.051   8.136   0.681  1.1136 -0.4872 -0.1023
30325SOL    HW295018   2.068   7.986   0.674 -0.0111 -0.7338  1.8632
30326SOL     OW95019   4.412   6.363   5.926  0.1309 -0.3355  0.3871
30326SOL    HW195020   4.391   6.300   5.857  0.2368  0.9438 -0.8320
30326SOL    HW295021   4.501   6.341   5.953  0.3462 -0.3984 -0.3728
30327SOL     OW95022   3.340   1.553   1.373 -0.0692 -0.2266  0.4798
30327SOL    HW195023   3.307   1.639   1.397 -1.7767 -0.3396 -1.2140
30327SOL    HW295024   3.274   1.492   1.404  0.6240 -0.8533  0.7676
30328SOL     OW95025   9.282   9.676   8.466  0.1403  0.5660  0.7547
30328SOL    HW195026   9.266   9.626   8.546 -0.7105  1.3064  1.0644
30328SOL    HW295027   9.292   9.610   8.398 -0.8950 -0.0353  1.1634
30329SOL     OW95028   6.203   2.584   9.306  0.2527  0.0243  0.3400
30329SOL    HW195029   6.293   2.563   9.331 -0.5807 -1.4419  2.4718
30329SOL    HW295030   6.151   2.560   9.383 -1.9026  1.4390 -0.5796
30330SOL     OW95031   3.785   7.630   0.763 -0.2707 -0.3798  0.1730
30330SOL    HW195032   3.739   7.668   0.689  1.5946  0.4005 -0.6455
30330SOL    HW295033   3.731   7.653   0.839 -1.1151  0.6592 -0.7058
30331SOL     OW95034   9.019   1.770   6.227  0.3868 -0.0370 -0.1532
30331SOL    HW195035   9.075   1.771   6.305  0.5136  0.3621 -0.2448
30331SOL    HW295036   9.032   1.856   6.188 -0.7276  0.2837  0.1399
30332SOL     OW95037   8.424   8.182   0.760 -0.2357  0.8418 -0.0157
30332SOL    HW195038   8.365   8.208   0.689 -0.2190  1.0951  0.0622
30332SOL    HW295039   8.490   8.126   0.718 -1.8118 -1.3771  0.2527
30333SOL     OW95040   5.327   1.749   7.542 -0.3706 -0.0584  0.6089
30333SOL    HW195041   5.418   1.778   7.551 -0.5435  0.7346 -0.0368
30333SOL    HW295042   5.281   1.791   7.615  0.3278 -3.0590  2.9297
30334SOL     OW95043   9.257   5.696   5.447 -0.1271  0.5924 -0.3174
30334SOL    HW195044   9.195   5.769   5.460 -1.6927 -0.5720 -0.8616
30334SOL    HW295045   9.227   5.628   5.507  0.2726 -0.1993 -0.9857
30335SOL     OW95046   0.095   8.084   9.360 -0.5252  0.3906 -0.1600
30335SOL    HW195047   0.003   8.112   9.359 -0.8710 -0.7127 -1.8545
30335SOL    HW295048   0.144   8.166   9.350 -1.3705  0.8436 -0.7839
30336SOL     OW95049   2.563   6.988   7.451  0.4582  0.2826 -0.1144
30336SOL    HW195050   2.516   7.063   7.413 -1.9986 -0.1790  1.7176
30336SOL    HW295051   2.588   7.018   7.538  1.9659 -0.1418 -0.3844
30337SOL     OW95052   3.555   9.714   4.666 -0.0134  0.2615  0.3704
30337SOL    HW195053   3.582   9.675   4.583  0.2555  0.7344  0.2352
30337SOL    HW295054   3.532   9.804   4.644 -0.8991  0.1138  0.6310
30338SOL     OW95055   5.682   1.117   7.264  0.3910 -0.1900 -0.2639
30338SOL    HW195056   5.618   1.132   7.333 -2.2898 -0.2898 -2.5381
30338SOL    HW295057   5.685   1.199   7.215  2.2030 -0.1236 -0.1139
30339SOL     OW95058   9.824   0.622   6.566 -0.6132  0.7410 -0.0675
30339SOL    HW195059   9.872   0.565   6.626 -0.8890 -0.1455 -0.6697
30339SOL    HW295060   9.890   0.656   6.506 -0.4897  0.8411  0.1258
30340SOL     OW95061   1.297   5.933   5.284  0.4855 -0.1250  0.4955
30340SOL    HW195062   1.206   5.912   5.301 -0.4196  1.5379 -1.7438
30340SOL    HW295063   1.317   6.006   5.342 -0.2720  0.8006 -0.3780
30341SOL     OW95064   4.140   9.023   1.020 -0.5655 -0.0836  0.3973
30341SOL    HW195065   4.134   9.019   1.116 -0.7833  0.2965  0.3988
30341SOL    HW295066   4.206   9.089   1.003  0.4355 -1.0729  0.2999
30342SOL     OW95067   7.539   3.505   0.112  0.0346 -0.2393 -0.0853
30342SOL    HW195068   7.465   3.450   0.137 -0.1384 -1.2566 -2.5597
30342SOL    HW295069   7.597   3.446   0.064  2.0669  0.7375  1.0554
30343SOL     OW95070   6.619   6.062   1.498 -0.1151 -0.0169 -0.3422
30343SOL    HW195071   6.539   6.108   1.471 -0.5186 -1.3232 -1.5263
30343SOL    HW295072   6.678   6.071   1.423  0.0790 -0.7595 -0.2879
30344SOL     OW95073   2.048   5.390   7.604 -0.0489 -0.0444 -0.0841
30344SOL    HW195074   2.092   5.314   7.565  1.3483 -0.0453  1.3674
30344SOL    HW295075   2.002   5.431   7.531  0.9983 -1.0289 -1.3523
30345SOL     OW95076   7.977   3.761   9.525  0.2520 -0.4404 -0.0079
30345SOL    HW195077   7.960   3.786   9.616 -4.5497 -1.5572 -0.3655
30345SOL    HW295078   8.013   3.841   9.485 -0.0841  0.9186  2.2266
30346SOL     OW95079   9.201   2.565   9.563 -0.4133  0.6363 -0.0374
30346SOL    HW195080   9.155   2.489   9.599 -0.6956  0.0072 -1.6342
30346SOL    HW295081   9.171   2.570   9.472 -0.1636  2.4897 -0.0499
30347SOL     OW95082   0.211   8.426   0.083  0.1576  0.2532  0.6028
30347SOL    HW195083   0.204   8.350   0.140 -1.0302 -0.4198 -0.3887
30347SOL    HW295084   0.131   8.476   0.100 -0.4270 -0.1743 -0.7303
30348SOL     OW95085   7.127   1.857   7.932  0.2561  0.2430  0.1612
30348SOL    HW195086   7.054   1.836   7.989  0.5483  0.6346  0.6908
30348SOL    HW295087   7.149   1.774   7.889  0.0115 -0.0456  0.5904
30349SOL     OW95088   9.143   4.371   1.210 -0.1829  0.2420 -0.1993
30349SOL    HW195089   9.139   4.276   1.218  0.1246  0.3641  2.9403
30349SOL    HW295090   9.226   4.395   1.253 -1.5287  2.0221  1.6316
30350SOL     OW95091   9.452   5.204   7.202  0.0036  0.0703  0.4216
30350SOL    HW195092   9.359   5.202   7.183 -0.3589  0.7007  1.9188
30350SOL    HW295093   9.463   5.143   7.274  0.5350  0.8061  0.9839
30351SOL     OW95094   8.487   5.742   6.887 -0.0314  0.2568 -0.0103
30351SOL    HW195095   8.412   5.797   6.909  0.0132  0.4338 -0.2909
30351SOL    HW295096   8.557   5.804   6.868  0.4573  0.0856  1.1575
30352SOL     OW95097   0.490   5.417   1.674 -0.1102 -0.0232 -0.1205
30352SOL    HW195098   0.423   5.433   1.740 -1.3940 -0.1829 -1.3493
30352SOL    HW295099   0.487   5.493   1.617  0.3791 -0.2964 -0.5231
30353SOL     OW95100   3.982   0.342   1.462  0.4802  0.3155  0.3574
30353SOL    HW195101   3.953   0.265   1.512 -1.2098 -0.1797 -1.2578
30353SOL    HW295102   4.046   0.307   1.400 -1.4437 -0.1878 -1.4547
30354SOL     OW95103   6.575   0.110   3.038 -0.2128  0.5747 -0.5552
30354SOL    HW195104   6.536   0.151   3.115 -1.0263  1.5940 -1.4575
30354SOL    HW295105   6.661   0.080   3.066 -0.4115  1.1211  0.6816
30355SOL     OW95106   5.588   6.488   2.637  0.3820  0.0985  0.2467
30355SOL    HW195107   5.545   6.503   2.721  1.2823 -0.8826  0.9062
30355SOL    HW295108   5.671   6.534   2.643  1.5754 -1.9862  0.9166
30356SOL     OW95109   4.769   7.775   2.799 -0.5167 -0.1472  0.4516
30356SOL    HW195110   4.678   7.748   2.785 -0.1224 -0.9225 -0.7542
30356SOL    HW295111   4.812   7.697   2.832  0.2256 -0.5419 -1.3080
30357SOL     OW95112   5.305   9.796   6.759 -0.0445  0.0005 -0.5586
30357SOL    HW195113   5.360   9.786   6.681  1.2724  1.3114  0.1574
30357SOL    HW295114   5.328   9.883   6.793 -0.6926 -0.4922  1.2093
30358SOL     OW95115   7.067   8.953   5.728 -0.0704  0.0739  0.4813
30358SOL    HW195116   7.043   9.021   5.666  2.7930  1.4593  0.7090
30358SOL    HW295117   7.094   9.001   5.807  2.3786 -1.2085  0.5319
30359SOL     OW95118   0.811   5.992   5.514 -0.3740 -0.0509  0.7677
30359SOL    HW195119   0.884   5.932   5.532 -0.8553 -0.9559 -0.2038
30359SOL    HW295120   0.734   5.947   5.549 -1.1657 -1.3388 -2.3262
30360SOL     OW95121   4.945   8.745   4.817 -0.3167 -0.5392 -0.2805
30360SOL    HW195122   4.858   8.762   4.781 -0.8888 -2.0580  0.2639
30360SOL    HW295123   4.969   8.659   4.782  0.8549 -0.2733 -0.1948
30361SOL     OW95124   9.729   5.637   8.886 -0.5732 -0.6376 -0.2073
30361SOL    HW195125   9.772   5.722   8.870  0.1494 -0.7002  1.2038
30361SOL    HW295126   9.685   5.648   8.970 -0.3451 -1.7033  0.0688
30362SOL     OW95127   0.786   2.690   1.549  0.2051  0.4342 -0.4038
30362SOL    HW195128   0.798   2.694   1.644 -2.5213  1.3083 -0.0030
30362SOL    HW295129   0.845   2.756   1.514  0.6328  0.6955  0.7683
30363SOL     OW95130   2.213   2.224   4.495 -0.4535 -0.8160 -0.7641
30363SOL    HW195131   2.184   2.133   4.502  0.1760 -0.9115  1.4342
30363SOL    HW295132   2.309   2.219   4.503 -0.3495  0.0031 -1.3235
30364SOL     OW95133   3.786  10.220   4.550 -0.2701  0.0745  0.3402
30364SOL    HW195134   3.694  10.227   4.577 -0.7123 -0.0904 -1.0720
30364SOL    HW295135   3.834  10.268   4.618 -1.6764  2.9634 -0.5596
30365SOL     OW95136   7.382   8.561   7.533 -0.7105 -0.2682 -0.5107
30365SOL    HW195137   7.438   8.530   7.604 -0.6564 -0.2462 -0.5442
30365SOL    HW295138   7.303   8.592   7.577 -0.4059  0.3664 -0.4043
30366SOL     OW95139   9.449   6.802   4.324 -0.1910  0.1696 -0.6913
30366SOL    HW195140   9.463   6.889   4.363  1.6885  0.4114 -1.8034
30366SOL    HW295141   9.414   6.821   4.237 -1.1026 -0.2594 -0.4289
30367SOL     OW95142   0.645   1.267   0.033 -0.2463  0.3271  0.5651
30367SOL    HW195143   0.639   1.178   0.067 -1.7015 -0.1591 -0.8242
30367SOL    HW295144   0.712   1.262  -0.035  0.3571  0.5389  1.1332
30368SOL     OW95145   9.673   5.853   3.801  0.3915  0.1135 -0.1305
30368SOL    HW195146   9.607   5.877   3.866  0.9103  0.5164  0.2552
30368SOL    HW295147   9.678   5.757   3.806  1.3496  0.2154  1.3606
30369SOL     OW95148   5.974   4.514   4.079  0.6383 -0.2729  0.0522
30369SOL    HW195149   5.927   4.450   4.025 -1.8857  1.0267  0.5700
30369SOL    HW295150   6.006   4.464   4.154 -1.0204 -1.0218  0.3023
30370SOL     OW95151   5.402   0.698   8.359  0.2548  0.8001  0.1411
30370SOL    HW195152   5.359   0.773   8.317  0.6354  1.4937  0.9496
30370SOL    HW295153   5.493   0.726   8.369  0.5571 -0.0542 -0.1807
30371SOL     OW95154   1.520   4.977   4.877  0.0016  0.0866 -0.5628
30371SOL    HW195155   1.467   4.898   4.869  0.4255 -0.1398 -1.2226
30371SOL    HW295156   1.595   4.951   4.930 -0.7218  0.5072  0.7039
30372SOL     OW95157   7.830   0.843   9.562  0.3129 -0.0553 -0.4463
30372SOL    HW195158   7.900   0.778   9.559  0.3566  0.0204 -1.0841
30372SOL    HW295159   7.871   0.925   9.535 -0.4394 -0.3916 -2.8796
30373SOL     OW95160   4.872   0.296   7.370 -0.4678  0.3539 -0.2260
30373SOL    HW195161   4.847   0.251   7.289  0.2552 -2.5749  1.0777
30373SOL    HW295162   4.790   0.301   7.421 -0.4142 -0.1169 -0.0924
30374SOL     OW95163   5.941   4.777   3.350 -0.0208  0.6830  0.3302
30374SOL    HW195164   5.882   4.807   3.419 -0.9499 -0.9451  0.2822
30374SOL    HW295165   5.885   4.731   3.288  1.1248  0.2174 -0.3949
30375SOL     OW95166   8.321   6.681   7.084  0.2280  0.0808  0.3085
30375SOL    HW195167   8.355   6.625   7.154  0.7782  1.5542  1.2632
30375SOL    HW295168   8.290   6.760   7.129  1.6252  1.5626 -1.1866
30376SOL     OW95169   3.230   1.549   9.966  0.5852 -0.3417 -0.0616
30376SOL    HW195170   3.174   1.511   9.898 -1.2275  1.5670  0.2667
30376SOL    HW295171   3.282   1.615   9.921 -1.5244  1.8311  0.4778
30377SOL     OW95172   7.366   7.070   9.958 -0.3728 -0.0813 -0.1160
30377SOL    HW195173   7.355   7.100  10.048 -1.9740 -1.1915  0.1148
30377SOL    HW295174   7.396   7.147   9.910  1.9836  0.1772  1.6071
30378SOL     OW95175   3.707   5.086   3.552 -0.3403 -0.3613  0.5918
30378SOL    HW195176   3.738   5.175   3.571  3.5430 -0.6539 -2.9755
30378SOL    HW295177   3.646   5.097   3.479  0.9584 -0.6350 -0.5586
30379SOL     OW95178   7.150   4.851   4.495 -0.0511  0.0021 -0.6432
30379SOL    HW195179   7.137   4.905   4.416  0.9190  0.0664 -0.7711
30379SOL    HW295180   7.117   4.765   4.471 -0.7097  0.2801 -0.7684
30380SOL     OW95181   1.822   4.294   2.168  0.2284  0.4001 -0.1899
30380SOL    HW195182   1.773   4.231   2.116  1.9821 -0.4974 -0.8123
30380SOL    HW295183   1.773   4.376   2.158 -1.4119 -0.5500 -0.3451
30381SOL     OW95184   7.956   6.771   8.206  0.0491 -0.3209 -0.5360
30381SOL    HW195185   8.002   6.837   8.154 -1.4450  1.2927  0.1015
30381SOL    HW295186   7.867   6.771   8.172 -0.8689  0.4994  1.6926
30382SOL     OW95187   8.219   3.444   0.505 -0.0445  0.4354  0.3369
30382SOL    HW195188   8.180   3.381   0.566  0.6489  0.4588  0.8199
30382SOL    HW295189   8.297   3.476   0.551  0.9151 -0.1017 -0.8666
30383SOL     OW95190   6.474   8.255   9.696  0.2136 -0.4981 -0.1955
30383SOL    HW195191   6.387   8.270   9.733  0.0837 -0.7346 -0.3939
30383SOL    HW295192   6.517   8.196   9.757  0.7236  0.6461  0.5833
30384SOL     OW95193   8.710   7.878   5.235 -0.6448  0.5896  0.3845
30384SOL    HW195194   8.765   7.924   5.172 -1.0475  1.7942  0.8919
30384SOL    HW295195   8.759   7.799   5.257 -0.1540  0.5289 -0.8547
30385SOL     OW95196   7.286   1.377   4.588  0.0513  0.4262  0.0053
30385SOL    HW195197   7.301   1.373   4.494 -0.8740 -0.8476 -0.1139
30385SOL    HW295198   7.339   1.306   4.624  0.5984  1.0675  0.4844
30386SOL     OW95199   1.990   0.225   4.664 -0.2778  0.6611  0.4475
30386SOL    HW195200   2.018   0.152   4.720  1.0668  1.6609  1.1284
30386SOL    HW295201   2.038   0.212   4.582  1.0161  1.4750  1.0404
30387SOL     OW95202   8.126   1.473   3.790  0.1027  0.2373  0.1400
30387SOL    HW195203   8.079   1.554   3.810  1.6677  1.0181  0.8338
30387SOL    HW295204   8.186   1.496   3.720  0.4249 -0.3835  0.2016
30388SOL     OW95205   0.564   9.992   7.519 -0.0559  0.1360 -0.0339
30388SOL    HW195206   0.573   9.996   7.614  0.0703 -1.5908  0.0619
30388SOL    HW295207   0.501  10.061   7.497 -1.7260 -0.8341  1.5329
30389SOL     OW95208   5.766   5.998   2.080  0.1480  0.6120 -0.1568
30389SOL    HW195209   5.728   5.978   1.994 -0.3594  1.1177 -0.0515
30389SOL    HW295210   5.842   6.053   2.061  0.5209  0.0496 -0.3304
30390SOL     OW95211   4.973   6.511   4.185 -0.4340  0.0271 -0.2281
30390SOL    HW195212   5.044   6.548   4.132  0.8914  0.6039  1.8377
30390SOL    HW295213   4.926   6.453   4.125  1.5124 -0.0342 -1.7850
30391SOL     OW95214   0.445   3.894   1.775 -0.2684  0.3963 -0.0852
30391SOL    HW195215   0.420   3.816   1.726 -0.3387  0.7487 -0.6157
30391SOL    HW295216   0.367   3.915   1.827 -0.5466  0.6140 -0.5897
30392SOL     OW95217   3.359   6.411   7.556  0.0685  0.3778  0.1888
30392SOL    HW195218   3.367   6.486   7.615  1.1089  0.6536 -0.2716
30392SOL    HW295219   3.437   6.358   7.573 -0.0069  0.0701 -0.3809
30393SOL     OW95220   6.740   1.060   5.805 -0.4550  0.4834 -0.3516
30393SOL    HW195221   6.827   1.099   5.812  0.1596 -0.9477  0.1984
30393SOL    HW295222   6.722   1.024   5.891 -1.3579  0.2489 -0.6245
30394SOL     OW95223   5.039   7.384   6.437  0.2191  0.5589 -0.2859
30394SOL    HW195224   5.016   7.304   6.389 -0.8036 -0.2576  1.4872
30394SOL    HW295225   5.134   7.390   6.430  0.2827 -0.6683 -0.6468
30395SOL     OW95226   9.171   2.437   7.096 -0.7300 -0.0298 -0.1042
30395SOL    HW195227   9.089   2.394   7.073 -1.5385  0.6945  1.2270
30395SOL    HW295228   9.146   2.528   7.113  0.5630  0.4850 -0.7829
30396SOL     OW95229   1.295   2.221   9.956 -0.6567 -0.5280 -0.2586
30396SOL    HW195230   1.340   2.294   9.913  1.5047 -1.3180  0.5041
30396SOL    HW295231   1.251   2.175   9.885 -1.3740  1.0047 -0.8656
30397SOL     OW95232   4.362   4.098   2.005 -1.0197 -0.1458 -0.0691
30397SOL    HW195233   4.377   4.192   1.993 -2.9503 -0.0119 -1.9959
30397SOL    HW295234   4.384   4.059   1.920 -1.2091 -1.3158  0.3980
30398SOL     OW95235   2.896   3.497   3.135  0.6711  0.3292 -0.4383
30398SOL    HW195236   2.882   3.575   3.188 -2.1208 -0.6717  0.4731
30398SOL    HW295237   2.961   3.446   3.184  2.2135  1.8239 -0.8449
30399SOL     OW95238   8.794   3.382   8.109  0.1432  0.7945 -0.6479
30399SOL    HW195239   8.835   3.459   8.069 -0.2734 -0.0485 -2.8188
30399SOL    HW295240   8.703   3.408   8.125  0.2682  1.0767 -0.3704
30400SOL     OW95241   9.472   3.551   3.672 -0.1315 -0.6100  0.4238
30400SOL    HW195242   9.393   3.604   3.663  0.4222 -0.0716 -2.0682
30400SOL    HW295243   9.442   3.461   3.657 -0.1689 -0.2901 -1.7840
30401SOL     OW95244   9.691   2.775   4.361 -0.1527 -0.2956 -0.0039
30401SOL    HW195245   9.711   2.700   4.416 -1.0949  0.3824  1.3392
30401SOL    HW295246   9.598   2.793   4.378  0.1348  1.3744 -0.0032
30402SOL     OW95247   6.193   5.003   5.923  0.2046  0.0167 -0.3385
30402SOL    HW195248   6.188   5.097   5.944  1.1399  0.1066 -0.4687
30402SOL    HW295249   6.130   4.962   5.981  1.0549  0.5322  0.9772
30403SOL     OW95250   0.162   9.961   1.868 -0.9094 -0.2749  0.2564
30403SOL    HW195251   0.148   9.884   1.812 -0.9658  0.4917 -0.8219
30403SOL    HW295252   0.250   9.949   1.903 -1.0183 -0.9622  0.3138
30404SOL     OW95253   0.376   2.839   3.919 -0.2127 -0.4989 -0.4866
30404SOL    HW195254   0.345   2.762   3.873  0.3486  0.8188 -3.2489
30404SOL    HW295255   0.298   2.892   3.933 -0.3515 -0.8019 -0.0996
30405SOL     OW95256   7.923   3.004   0.379  0.0195  0.0696  0.5072
30405SOL    HW195257   8.015   3.013   0.403 -0.2678  2.2507  1.1003
30405SOL    HW295258   7.899   2.915   0.406  2.1303 -0.8474 -0.4495
30406SOL     OW95259   5.875   1.604   7.472  0.9774  0.3933 -0.1534
30406SOL    HW195260   5.783   1.578   7.475  0.8507  0.5549 -1.8991
30406SOL    HW295261   5.910   1.561   7.394  1.8716  1.8833 -0.6135
30407SOL     OW95262   7.669   6.375   1.457  0.4514  0.0153 -0.1417
30407SOL    HW195263   7.737   6.326   1.504  0.4361 -1.3055 -1.4400
30407SOL    HW295264   7.653   6.324   1.377 -1.2303  0.9234 -0.4313
30408SOL     OW95265   7.871   3.340   8.239 -0.7176 -0.0902 -0.0135
30408SOL    HW195266   7.958   3.373   8.220 -0.4351 -0.4347  0.6505
30408SOL    HW295267   7.877   3.246   8.223 -1.1868 -0.0025 -0.7368
30409SOL     OW95268   5.195   9.192   7.804  0.4582 -0.5097 -0.0128
30409SOL    HW195269   5.257   9.150   7.864 -0.5533 -1.0020  0.7150
30409SOL    HW295270   5.202   9.286   7.823  1.8771 -0.4289 -0.8231
30410SOL     OW95271   5.512   1.969   4.611 -0.0019 -0.2944 -0.0935
30410SOL    HW195272   5.450   1.990   4.681  1.6821  0.6708  1.1903
30410SOL    HW295273   5.553   1.887   4.639 -0.3673 -0.6910 -0.7084
30411SOL     OW95274   2.240   8.619   2.586  0.7732 -0.2477 -0.0861
30411SOL    HW195275   2.290   8.540   2.563 -0.6654 -0.8180 -1.4459
30411SOL    HW295276   2.149   8.595   2.568  0.3766  2.0087 -1.3938
30412SOL     OW95277   1.465   6.107   0.639  0.5154  0.1233 -0.4283
30412SOL    HW195278   1.413   6.039   0.681  0.9551  1.0829  1.7921
30412SOL    HW295279   1.457   6.183   0.696  0.4549  1.8252 -2.5579
30413SOL     OW95280   1.722   3.725   9.788  0.8467 -0.0491 -0.1278
30413SOL    HW195281   1.746   3.633   9.787 -0.4476 -0.4038 -0.8964
30413SOL    HW295282   1.646   3.730   9.846  0.4130  0.3790 -0.7060
30414SOL     OW95283   2.794   7.050   8.871 -0.5652  0.3762 -0.2528
30414SOL    HW195284   2.767   6.975   8.924  1.1249 -0.2166 -0.1664
30414SOL    HW295285   2.887   7.061   8.892 -0.5960  2.0028 -0.8679
30415SOL     OW95286   7.621   8.716   2.504  0.5676  0.0590 -0.3966
30415SOL    HW195287   7.599   8.669   2.424 -0.9598  0.7762 -0.4441
30415SOL    HW295288   7.701   8.765   2.482 -0.1255  0.6742 -1.6895
30416SOL     OW95289   3.488   7.340   8.765  0.2295 -0.0706 -0.1265
30416SOL    HW195290   3.485   7.423   8.718 -3.4929 -0.7461 -1.4594
30416SOL    HW295291   3.571   7.300   8.738  1.2738  2.3982 -0.8485
30417SOL     OW95292  10.275   1.722   3.668 -0.2711 -0.3392 -0.4515
30417SOL    HW195293  10.184   1.700   3.687 -0.6402 -0.8084 -2.5308
30417SOL    HW295294  10.320   1.638   3.658  0.2056 -0.1107 -0.3057
30418SOL     OW95295   0.547   5.419   3.359 -0.1842  0.2209 -0.7468
30418SOL    HW195296   0.588   5.444   3.277 -2.9189 -0.6171 -2.4996
30418SOL    HW295297   0.543   5.323   3.355 -0.0112  0.1402  0.5802
30419SOL     OW95298   6.601   3.565   1.989  0.4224  0.2020 -0.5463
30419SOL    HW195299   6.631   3.487   2.037  2.9204  1.0556 -0.5796
30419SOL    HW295300   6.579   3.628   2.058  1.1744  0.4372 -0.5212
30420SOL     OW95301   7.772   5.579   5.563  0.1775  0.5412  0.1603
30420SOL    HW195302   7.811   5.611   5.482  0.0114 -1.2755 -0.7056
30420SOL    HW295303   7.683   5.614   5.564 -0.4824 -0.9291 -1.4761
30421SOL     OW95304   5.941   9.889   0.488  0.3403 -0.2434  0.0833
30421SOL    HW195305   6.027   9.928   0.501  0.2561  0.5179 -1.4537
30421SOL    HW295306   5.914   9.918   0.401 -1.8333  0.2305  0.8479
30422SOL     OW95307   6.685   1.264   8.083 -0.4029  0.2019 -0.0289
30422SOL    HW195308   6.734   1.182   8.074  0.8393  0.6155  2.1228
30422SOL    HW295309   6.710   1.315   8.005  0.5997 -0.5998 -0.2583
30423SOL     OW95310   3.148   8.324   4.002 -0.1258 -0.4106 -0.5611
30423SOL    HW195311   3.054   8.328   4.023 -0.3383  2.2495 -1.5632
30423SOL    HW295312   3.167   8.230   3.995 -2.9775 -1.0331 -1.4042
30424SOL     OW95313   6.466   6.297   1.934  0.5701  0.6599  0.4285
30424SOL    HW195314   6.417   6.287   1.852 -0.1192  0.0470  0.9093
30424SOL    HW295315   6.473   6.392   1.946 -1.5480  0.7826  0.9610
30425SOL     OW95316   2.728   9.137   2.788  0.2207 -0.2335  0.0245
30425SOL    HW195317   2.785   9.110   2.859 -0.4901 -0.9745  0.3185
30425SOL    HW295318   2.640   9.112   2.816 -0.3958  1.7138 -0.0049
30426SOL     OW95319   0.469  10.238   3.034  0.1968 -0.6906 -0.0504
30426SOL    HW195320   0.555  10.278   3.022 -0.1609  0.1130  0.0274
30426SOL    HW295321   0.475  10.192   3.118  1.3120 -2.6955 -1.1496
30427SOL     OW95322   7.970  10.241  10.272 -0.7263  0.2322  0.0584
30427SOL    HW195323   7.920  10.198  10.203 -1.1721 -0.0794  0.5702
30427SOL    HW295324   8.035  10.176  10.299  0.9291  1.0959 -1.5523
30428SOL     OW95325   4.475   9.604   2.235  0.0731 -0.3619 -0.7370
30428SOL    HW195326   4.492   9.519   2.276 -2.3298 -0.4504  0.2258
30428SOL    HW295327   4.521   9.667   2.290 -0.6130 -0.7882  0.3704
30429SOL     OW95328   6.118   6.936   1.810 -0.8569  0.1709 -0.2872
30429SOL    HW195329   6.095   6.960   1.899 -1.7093 -1.2348 -0.0949
30429SOL    HW295330   6.185   6.869   1.819 -0.7804  0.1862 -0.7003
30430SOL     OW95331   9.672   5.505   5.182 -0.3656  0.5152  0.8314
30430SOL    HW195332   9.740   5.475   5.243  0.6202  0.2556 -0.3531
30430SOL    HW295333   9.680   5.600   5.182 -0.3679  0.5168  1.1050
30431SOL     OW95334   6.160   9.498   5.698  0.1861 -0.1421 -0.2445
30431SOL    HW195335   6.118   9.463   5.777  0.1899 -0.1869 -0.2626
30431SOL    HW295336   6.252   9.471   5.706  0.1383 -0.3437 -0.3772
30432SOL     OW95337   3.270   2.132   1.859 -0.4306 -0.5233 -0.6628
30432SOL    HW195338   3.182   2.166   1.874 -0.2648 -0.3027 -0.1668
30432SOL    HW295339   3.259   2.066   1.791 -0.7582  0.4990 -1.6169
30433SOL     OW95340   3.888   7.668   4.139  0.0335  0.3188 -0.1485
30433SOL    HW195341   3.919   7.580   4.117  0.3216  0.4990 -0.4772
30433SOL    HW295342   3.806   7.654   4.185  0.7973 -0.1900  1.1106
30434SOL     OW95343   0.930   3.250   8.397 -0.0403  0.2482 -0.1422
30434SOL    HW195344   0.955   3.158   8.409 -1.1585 -0.5967 -3.3498
30434SOL    HW295345   1.009   3.293   8.366  0.1510  0.0648  0.0877
30435SOL     OW95346   9.727   3.574   3.570 -0.3072  0.0306 -0.1728
30435SOL    HW195347   9.756   3.647   3.624 -2.5580  1.7941 -1.1548
30435SOL    HW295348   9.651   3.539   3.617 -0.6758 -0.1298 -0.8793
30436SOL     OW95349  10.131   5.584   6.634  0.0384 -0.4499  1.1577
30436SOL    HW195350  10.194   5.512   6.635  0.7854  0.1725  0.5333
30436SOL    HW295351  10.185   5.662   6.643 -0.3221  0.3017 -1.9531
30437SOL     OW95352   4.068   4.411   2.211  0.5609 -0.3513  0.9214
30437SOL    HW195353   4.018   4.365   2.144  1.1443 -1.1920  1.0467
30437SOL    HW295354   4.010   4.413   2.288  0.6863 -1.2581  1.0458
30438SOL     OW95355   4.759   8.632   5.250 -0.3314 -0.2335  0.0145
30438SOL    HW195356   4.694   8.635   5.320  1.3638  1.0799  1.6576
30438SOL    HW295357   4.797   8.544   5.255 -2.3056 -1.2114 -1.3449
30439SOL     OW95358   8.174   6.286   0.658 -0.2975 -0.3639 -0.0219
30439SOL    HW195359   8.083   6.291   0.688 -0.2123  2.1438  0.0378
30439SOL    HW295360   8.226   6.300   0.736  0.0006  2.3225 -0.6263
30440SOL     OW95361   4.962   2.626   8.407  0.0374  0.4201 -0.2613
30440SOL    HW195362   4.959   2.537   8.442  1.1776  0.3316 -0.3451
30440SOL    HW295363   5.031   2.669   8.458  0.2513  0.9264 -0.9671
30441SOL     OW95364   1.929   5.036  10.147  0.1468 -0.0846 -0.2404
30441SOL    HW195365   1.922   5.045  10.052 -1.7112 -0.4668 -0.1829
30441SOL    HW295366   1.989   5.104  10.174  2.1348 -1.0915 -1.8683
30442SOL     OW95367   9.416   2.080   9.580  0.2656 -0.4035 -0.5911
30442SOL    HW195368   9.431   2.106   9.671 -0.2563 -1.4453 -0.1823
30442SOL    HW295369   9.357   2.147   9.545  0.2063 -0.1706 -0.0592
30443SOL     OW95370   8.011   6.548   2.320  0.3270 -0.0644 -0.2697
30443SOL    HW195371   7.935   6.572   2.373  0.0703 -0.6983 -0.3477
30443SOL    HW295372   7.979   6.483   2.258  0.6059  0.7236 -1.2776
30444SOL     OW95373   0.898   5.313   5.102  0.1131  0.1054 -0.7703
30444SOL    HW195374   0.866   5.391   5.146 -0.3856 -0.3090 -0.3926
30444SOL    HW295375   0.834   5.297   5.032  1.0769  0.9573 -1.9011
30445SOL     OW95376  10.129   9.943   1.201 -0.6387  0.0118  0.7157
30445SOL    HW195377  10.050   9.899   1.231  0.4100 -1.6377  1.2313
30445SOL    HW295378  10.120  10.033   1.232 -2.2690 -0.1569  0.8021
30446SOL     OW95379  10.123   7.669   5.909 -0.8027 -1.0001 -0.4240
30446SOL    HW195380  10.168   7.617   5.976  0.9247  0.7081 -0.1508
30446SOL    HW295381  10.037   7.686   5.947  0.6769  1.3467  2.2946
30447SOL     OW95382   9.820   8.776   9.173 -0.1097  0.1157 -0.6081
30447SOL    HW195383   9.749   8.751   9.114 -1.2207  1.6558  0.0213
30447SOL    HW295384   9.853   8.859   9.138  0.6374 -0.0113 -0.2395
30448SOL     OW95385   2.799   9.426   5.832  0.5792  0.0505  0.2670
30448SOL    HW195386   2.848   9.502   5.800  0.3109 -0.2540 -0.8969
30448SOL    HW295387   2.725   9.418   5.772  1.0490 -1.6122 -0.1295
30449SOL     OW95388   5.705   1.623   0.803 -0.2514  0.2682  0.1096
30449SOL    HW195389   5.668   1.678   0.872 -2.1727 -0.9112  0.0980
30449SOL    HW295390   5.754   1.683   0.747 -0.0027  1.4901  1.6062
30450SOL     OW95391   0.013   7.351   2.310 -0.1681  0.4791 -0.4711
30450SOL    HW195392  -0.022   7.429   2.352  1.3336  0.6352  0.5958
30450SOL    HW295393   0.031   7.291   2.383 -0.7189 -0.6311 -1.2132
30451SOL     OW95394   9.465   2.570   3.355  0.1588 -0.1621 -0.2549
30451SOL    HW195395   9.445   2.562   3.262 -1.7226 -0.3058  0.1090
30451SOL    HW295396   9.410   2.503   3.397 -0.7848  1.4006  1.1319
30452SOL     OW95397   4.899   3.698   3.819  0.2284 -0.3303 -0.6337
30452SOL    HW195398   4.925   3.682   3.728 -0.2358 -0.0905 -0.8117
30452SOL    HW295399   4.915   3.792   3.832  3.2368 -0.8819  0.4999
30453SOL     OW95400   1.008   9.259   6.874  0.1662  0.3798  0.1557
30453SOL    HW195401   0.954   9.225   6.803  1.3112 -0.5708 -0.3004
30453SOL    HW295402   0.948   9.267   6.948 -0.8049  0.3132 -0.6118
30454SOL     OW95403   3.663   1.509   9.140 -0.8054  0.9563 -0.2668
30454SOL    HW195404   3.625   1.548   9.061 -0.7116 -2.5041 -2.2250
30454SOL    HW295405   3.754   1.492   9.116 -0.9213 -0.6469  0.3733
30455SOL     OW95406   4.396   9.787   3.259  0.2112  0.1885  0.0484
30455SOL    HW195407   4.360   9.700   3.245  1.8503 -0.3334 -1.2067
30455SOL    HW295408   4.378   9.834   3.178  1.2913  0.2882 -0.1444
30456SOL     OW95409   9.923   9.216   5.424 -0.1879 -0.3454 -0.0454
30456SOL    HW195410   9.993   9.196   5.487  1.5289 -0.0201 -1.7672
30456SOL    HW295411   9.864   9.273   5.473  2.5386  2.2216  0.5465
30457SOL     OW95412   2.795   0.639   9.979 -0.4867 -0.8190 -0.1874
30457SOL    HW195413   2.850   0.636   9.901 -1.6927  0.8195 -1.1638
30457SOL    HW295414   2.713   0.599   9.953 -0.0875 -2.5444  1.0319
30458SOL     OW95415   1.881   4.911   0.721  0.5703 -0.5408 -0.1453
30458SOL    HW195416   1.798   4.865   0.726  0.1923  0.2389  1.4478
30458SOL    HW295417   1.861   4.994   0.679  0.5239 -0.3334  0.2801
30459SOL     OW95418   1.616  10.114   3.215 -0.6379  0.0504  0.1242
30459SOL    HW195419   1.627  10.185   3.278  3.1628 -1.1623  1.0749
30459SOL    HW295420   1.679  10.133   3.146  1.3108 -2.7263  0.9161
30460SOL     OW95421   1.873   8.859   4.169  0.0823 -0.0736  0.4629
30460SOL    HW195422   1.868   8.948   4.134  0.6096 -1.0360 -2.2700
30460SOL    HW295423   1.957   8.855   4.215 -0.1387  0.9277  0.9829
30461SOL     OW95424   2.198   9.590   7.090  0.1428 -0.1172  0.0116
30461SOL    HW195425   2.260   9.659   7.116  0.1797 -0.2568  0.3005
30461SOL    HW295426   2.119   9.610   7.140  1.0838 -1.9623  2.4301
30462SOL     OW95427   2.693   9.288   9.873 -0.1647  0.0762 -0.0390
30462SOL    HW195428   2.681   9.300   9.779 -1.5236 -2.6849 -0.3287
30462SOL    HW295429   2.611   9.249   9.903  0.4929  0.2443  2.1732
30463SOL     OW95430   1.289   9.820   1.750  0.4218 -0.4529  0.0221
30463SOL    HW195431   1.200   9.804   1.719 -0.1961  0.3428  1.2941
30463SOL    HW295432   1.285   9.804   1.844  1.6607 -0.5320  0.0762
30464SOL     OW95433   0.598   2.327   4.028 -0.0433  0.1288 -0.1411
30464SOL    HW195434   0.524   2.386   4.038 -0.7108 -0.9153  1.3639
30464SOL    HW295435   0.582   2.257   4.091  2.5596  0.2068  0.7087
30465SOL     OW95436   2.312   3.841   3.507  0.2163  0.4528 -0.1896
30465SOL    HW195437   2.404   3.842   3.483  0.5619  1.0929  1.0929
30465SOL    HW295438   2.274   3.771   3.454  1.5387 -0.1627 -0.3477
30466SOL     OW95439   9.913   4.617   5.084 -0.2619  0.5080  0.0060
30466SOL    HW195440   9.861   4.585   5.010  0.2713 -0.1846 -0.0840
30466SOL    HW295441   9.872   4.700   5.109 -1.0310  0.2681 -0.4443
30467SOL     OW95442   7.475   2.677  10.234  0.0571 -0.2462 -0.0754
30467SOL    HW195443   7.570   2.681  10.233  0.0770 -0.5498  0.2824
30467SOL    HW295444   7.455   2.596  10.282 -0.3954  1.1295  2.2152
30468SOL     OW95445   7.756   8.916   8.123  0.2287  0.4554 -0.0913
30468SOL    HW195446   7.732   8.922   8.216 -1.9470  1.5681 -0.6632
30468SOL    HW295447   7.752   8.822   8.103  0.9888  0.1782  0.9892
30469SOL     OW95448   1.345   6.566   4.923 -0.2605  0.2737  0.6302
30469SOL    HW195449   1.289   6.504   4.970 -1.4303 -0.5320 -1.6748
30469SOL    HW295450   1.284   6.617   4.869  1.0820 -0.0766 -1.3335
30470SOL     OW95451   6.396   6.465   9.637  0.1133  0.2682 -0.1287
30470SOL    HW195452   6.439   6.411   9.703  1.4451 -0.1055 -1.2450
30470SOL    HW295453   6.453   6.459   9.560 -1.0024  1.2717 -1.0841
30471SOL     OW95454   5.202   4.034   1.325  0.1556  0.0090  0.4023
30471SOL    HW195455   5.191   4.103   1.390  1.1156  0.0039  0.5890
30471SOL    HW295456   5.131   3.972   1.343 -1.3311  1.4158 -0.4110
30472SOL     OW95457   8.349   6.272   9.078 -0.3812 -0.4032 -0.2545
30472SOL    HW195458   8.325   6.363   9.096 -0.7603  0.1225 -2.9268
30472SOL    HW295459   8.405   6.277   9.000  0.0798 -2.4196 -0.1151
30473SOL     OW95460   7.002   9.177   9.186 -0.5507  0.0046  0.5815
30473SOL    HW195461   6.964   9.184   9.099  0.8920  0.9712 -0.0199
30473SOL    HW295462   6.928   9.184   9.246 -1.5597 -0.6767 -0.5596
30474SOL     OW95463   7.351   8.261   6.327 -0.9055  0.3013  0.0898
30474SOL    HW195464   7.315   8.196   6.388 -1.4670  1.7362  1.3482
30474SOL    HW295465   7.358   8.341   6.379 -0.1221  1.2261 -1.3896
30475SOL     OW95466   7.949   0.799   7.317  0.6238 -0.0426 -0.0224
30475SOL    HW195467   7.862   0.823   7.286  0.9321  0.0941 -0.8143
30475SOL    HW295468   8.007   0.816   7.242  0.8081 -3.7809 -0.8934
30476SOL     OW95469   7.460   2.029   0.525 -0.4582 -0.0880  0.6850
30476SOL    HW195470   7.544   2.068   0.500 -0.0296  0.0068  2.1795
30476SOL    HW295471   7.397   2.065   0.463  0.6888 -0.6105 -0.8322
30477SOL     OW95472   1.738   1.287   1.613 -0.1735 -0.3559 -0.3907
30477SOL    HW195473   1.669   1.333   1.659  1.3481  1.0376  0.6140
30477SOL    HW295474   1.707   1.281   1.523 -1.8786 -0.3858  0.1737
30478SOL     OW95475   6.754   6.136   7.722  0.2567  0.4828 -0.1033
30478SOL    HW195476   6.710   6.081   7.657 -0.3793  0.1622  0.5862
30478SOL    HW295477   6.705   6.121   7.803  1.6953  0.0100  0.7194
30479SOL     OW95478   8.427   3.556   2.553  0.0220 -0.1404 -0.1192
30479SOL    HW195479   8.422   3.519   2.464  0.7992 -1.2949  0.2879
30479SOL    HW295480   8.508   3.519   2.589 -0.2649  0.3479  1.0650
30480SOL     OW95481   5.974   6.886   9.707  0.4066  0.7611 -0.3079
30480SOL    HW195482   5.952   6.978   9.692 -0.7425  0.5381 -0.1045
30480SOL    HW295483   5.995   6.882   9.800  1.6266  1.0258 -0.5583
30481SOL     OW95484   4.278   9.546   2.509  0.0774 -0.3422  0.4861
30481SOL    HW195485   4.221   9.473   2.483  0.1167  0.0695 -0.8179
30481SOL    HW295486   4.359   9.532   2.460 -0.4184  1.3180 -0.9397
30482SOL     OW95487   1.217   3.882   1.931 -0.0126  0.0809  0.2407
30482SOL    HW195488   1.172   3.962   1.908  0.8691  0.2398 -1.0274
30482SOL    HW295489   1.295   3.881   1.876  0.4107 -1.2471  0.8098
30483SOL     OW95490   7.446   0.257   6.366  0.3554  0.4218  0.2002
30483SOL    HW195491   7.374   0.291   6.418  0.4743  0.5104  0.3080
30483SOL    HW295492   7.435   0.162   6.370 -1.5674  0.4321 -2.3412
30484SOL     OW95493   7.710   4.618   3.597 -0.2062  0.1193  0.3094
30484SOL    HW195494   7.624   4.648   3.568  1.5324  3.4262 -2.1482
30484SOL    HW295495   7.718   4.530   3.561 -2.1470  0.1518 -0.3254
30485SOL     OW95496   1.190   9.006   0.035  0.2160  0.2264  0.4088
30485SOL    HW195497   1.216   9.033   0.123 -0.1144 -0.0299  0.5883
30485SOL    HW295498   1.166   8.914   0.045 -1.5049  0.6408  0.4125
30486SOL     OW95499  10.082   8.614   8.568 -0.1854 -0.1920  0.4401
30486SOL    HW195500  10.120   8.566   8.642  2.9714  2.8869  1.0744
30486SOL    HW295501  10.018   8.673   8.609  2.2648  2.2209  1.0595
30487SOL     OW95502   2.403   0.477   0.274 -0.1878 -0.0911  0.2262
30487SOL    HW195503   2.327   0.426   0.302 -0.2991  0.3327  0.7079
30487SOL    HW295504   2.431   0.435   0.193  1.1564 -2.4323  1.7691
30488SOL     OW95505   1.343   0.698   3.242  0.4521 -0.4479 -0.1996
30488SOL    HW195506   1.381   0.633   3.182  1.1699  1.1859 -1.5864
30488SOL    HW295507   1.363   0.782   3.202 -1.5716  0.6246  0.8851
30489SOL     OW95508   4.981   6.312   1.329 -0.1276  0.3136  0.1670
30489SOL    HW195509   4.911   6.292   1.266  0.3167  1.9298 -0.9290
30489SOL    HW295510   4.935   6.337   1.409 -0.7748  0.3711 -0.2129
30490SOL     OW95511   7.838   1.709   8.401  0.1649 -0.0588  0.1992
30490SOL    HW195512   7.927   1.674   8.405  0.8128  1.6240  1.8195
30490SOL    HW295513   7.816   1.729   8.492 -0.1571  3.6007 -0.5501
30491SOL     OW95514   4.430   9.508   3.817 -0.2461 -0.3272  0.1744
30491SOL    HW195515   4.460   9.515   3.726 -0.8894  2.6202  0.0979
30491SOL    HW295516   4.385   9.424   3.821 -0.2481 -0.5091 -2.2673
30492SOL     OW95517   1.050   3.721   0.297 -0.0675 -0.5682  0.1502
30492SOL    HW195518   1.129   3.760   0.335  0.4644 -0.1905 -1.2547
30492SOL    HW295519   1.069   3.628   0.292  1.1094 -0.2866 -1.8740
30493SOL     OW95520   3.674   1.569   8.794 -0.0739 -0.1491  0.0984
30493SOL    HW195521   3.600   1.601   8.846  0.3284  0.9562  0.0268
30493SOL    HW295522   3.659   1.606   8.707 -0.9015 -2.2269 -0.6881
30494SOL     OW95523   6.483   5.556   5.811  0.1817  0.1786 -0.3126
30494SOL    HW195524   6.566   5.530   5.851 -1.7006 -1.9659  2.6752
30494SOL    HW295525   6.447   5.622   5.871 -0.1630  1.3779 -1.7730
30495SOL     OW95526   3.759   2.493  10.166 -0.4402 -0.5529 -0.6522
30495SOL    HW195527   3.806   2.447  10.235 -0.1130 -0.1226 -0.5784
30495SOL    HW295528   3.667   2.490  10.194 -0.3513 -0.6646 -0.3618
30496SOL     OW95529   8.982   5.625   8.149  0.6748  0.2532  0.7370
30496SOL    HW195530   8.909   5.575   8.113  0.5332 -0.5511  2.0933
30496SOL    HW295531   8.960   5.716   8.129 -1.1684  0.1079  1.8765
30497SOL     OW95532   0.873   6.409   3.731 -0.6481 -0.5085  0.3473
30497SOL    HW195533   0.934   6.410   3.657  0.0053 -0.1734  0.8843
30497SOL    HW295534   0.899   6.484   3.785 -1.4567 -0.4303  0.6520
30498SOL     OW95535   3.014   0.597   1.786  0.1905  0.6046  0.4635
30498SOL    HW195536   3.079   0.594   1.717 -1.0908  0.1414 -0.7727
30498SOL    HW295537   3.065   0.593   1.867  1.6325 -1.4588 -0.4497
30499SOL     OW95538   2.953   9.288   5.563  0.5949  0.0508 -0.5887
30499SOL    HW195539   2.958   9.205   5.515 -0.7371 -0.4835  0.1302
30499SOL    HW295540   2.867   9.323   5.540 -0.4224 -0.5901  1.9032
30500SOL     OW95541   0.429   8.307   7.190  0.6626  0.4293 -0.7572
30500SOL    HW195542   0.376   8.263   7.256  1.9743  0.6957  0.5414
30500SOL    HW295543   0.396   8.397   7.188 -0.0918  0.1426 -1.2601
30501SOL     OW95544   0.233  10.210   2.111 -0.6208  0.1361 -0.0900
30501SOL    HW195545   0.290  10.142   2.074  0.5852  0.5852  0.8854
30501SOL    HW295546   0.214  10.267   2.036  0.8389  0.3877 -0.3153
30502SOL     OW95547   2.447   9.674   0.154 -0.1949 -0.1273 -0.6677
30502SOL    HW195548   2.514   9.740   0.171 -0.6491  0.1041  0.2604
30502SOL    HW295549   2.490   9.612   0.095  0.0996  1.2080 -1.9207
30503SOL     OW95550   0.405   2.881   1.253 -0.7024 -0.9805 -0.3560
30503SOL    HW195551   0.452   2.848   1.176 -1.3613 -2.2406 -0.2330
30503SOL    HW295552   0.462   2.859   1.327  0.3033  0.9074 -0.4837
30504SOL     OW95553   5.820   0.684   5.418  0.4126  0.0265 -0.3003
30504SOL    HW195554   5.812   0.778   5.435 -1.0238 -0.1669  0.2945
30504SOL    HW295555   5.913   0.669   5.407  0.6752  1.5159 -0.3651
30505SOL     OW95556   8.703   3.660   2.508  0.1227 -0.4586 -0.1727
30505SOL    HW195557   8.747   3.641   2.590  1.0883 -2.1307 -1.0412
30505SOL    HW295558   8.617   3.694   2.534  1.7317  2.7597  1.5631
30506SOL     OW95559   2.204   2.708   0.247  0.0751  0.1010 -0.3662
30506SOL    HW195560   2.279   2.652   0.229  0.1623  0.3518 -0.8050
30506SOL    HW295561   2.130   2.661   0.208  0.0807  0.0854 -0.3581
30507SOL     OW95562   0.427   9.794   0.152  0.0720 -0.3407  0.0677
30507SOL    HW195563   0.509   9.789   0.102  1.2289 -1.6097  1.9914
30507SOL    HW295564   0.429   9.719   0.210 -3.4705 -1.6064 -1.1819
30508SOL     OW95565   6.037   7.931   2.292  0.1893  0.0132  0.5041
30508SOL    HW195566   6.014   7.978   2.372  0.7897 -1.8541  1.8347
30508SOL    HW295567   6.125   7.961   2.271  1.6161 -2.2059  2.7865
30509SOL     OW95568   8.494   0.179   1.575 -0.2884  0.5342 -0.1221
30509SOL    HW195569   8.409   0.196   1.616 -0.8490  0.0784 -1.0504
30509SOL    HW295570   8.555   0.237   1.620 -1.1219  0.9608  0.4776
30510SOL     OW95571  10.249   2.193   2.293 -0.5062 -0.5154  0.6312
30510SOL    HW195572  10.239   2.257   2.363 -0.6006 -0.4573  0.5637
30510SOL    HW295573  10.166   2.195   2.246 -0.2218 -0.1157  0.1399
30511SOL     OW95574   8.519   1.219   8.152 -0.2115  0.0839 -0.2626
30511SOL    HW195575   8.577   1.144   8.138  1.1807  1.0159  0.2680
30511SOL    HW295576   8.453   1.187   8.213  1.2058 -0.3274  1.1206
30512SOL     OW95577   5.022   5.637   7.347  0.1201 -0.0428 -0.2254
30512SOL    HW195578   5.008   5.614   7.256 -0.5272  2.1836 -0.7673
30512SOL    HW295579   5.094   5.581   7.376  0.2705 -0.8629 -2.0579
30513SOL     OW95580   6.738   9.556   8.002  0.6626 -0.6958 -0.6268
30513SOL    HW195581   6.742   9.533   8.095 -0.3020  0.3303 -0.3019
30513SOL    HW295582   6.657   9.608   7.994  1.9244  1.2617 -1.5677
30514SOL     OW95583   1.393   5.893   3.504  0.1403 -0.1891  0.2669
30514SOL    HW195584   1.437   5.854   3.428  0.9160  0.6638  0.2536
30514SOL    HW295585   1.300   5.885   3.485  0.3057 -1.0959 -0.2011
30515SOL     OW95586   1.062   4.132   0.971 -0.5393 -0.2084  0.4589
30515SOL    HW195587   1.048   4.112   0.879 -1.3497  1.7979  0.1030
30515SOL    HW295588   1.143   4.086   0.994  0.5270  0.4809 -1.6774
30516SOL     OW95589   4.797   2.436   5.942  0.5852  0.2713 -0.5118
30516SOL    HW195590   4.708   2.437   5.905  0.1827  1.0110  0.4220
30516SOL    HW295591   4.810   2.345   5.971  0.2136  0.1068 -0.8536
30517SOL     OW95592   1.264   4.455   2.087  0.1981 -0.1061 -0.2731
30517SOL    HW195593   1.185   4.471   2.137  0.2620 -0.1884 -0.1453
30517SOL    HW295594   1.277   4.534   2.035  0.0287 -0.0965 -0.2991
30518SOL     OW95595   7.037   2.063   9.578  0.1768  0.2817 -0.5420
30518SOL    HW195596   7.088   2.134   9.617  0.0930 -0.4478  0.9597
30518SOL    HW295597   6.994   2.021   9.652 -2.5009  0.7472 -1.7056
30519SOL     OW95598   3.022   9.128   5.043  0.2559 -0.0200  0.1143
30519SOL    HW195599   3.024   9.057   4.979 -0.3501  0.1346 -0.0864
30519SOL    HW295600   3.087   9.104   5.109  0.7563 -0.2723 -0.4653
30520SOL     OW95601   2.493   3.696   3.766 -0.1746 -0.6622  0.1214
30520SOL    HW195602   2.404   3.664   3.780  0.2016 -0.9903  2.1029
30520SOL    HW295603   2.546   3.618   3.758  0.1675 -0.5108  0.7998
30521SOL     OW95604   5.161   4.418   5.084 -0.7108  0.5517 -0.0313
30521SOL    HW195605   5.170   4.409   4.989  1.3187 -0.2860  0.1654
30521SOL    HW295606   5.232   4.478   5.109  1.7842 -2.6230  1.3128
30522SOL     OW95607   5.126   9.427   3.395  0.0097  0.0339 -0.8968
30522SOL    HW195608   5.136   9.521   3.407  1.3761  0.1695 -2.6410
30522SOL    HW295609   5.207   9.399   3.352  0.1450 -2.1592  0.6094
30523SOL     OW95610   3.644   0.664   9.430 -0.1198 -0.2256  0.4669
30523SOL    HW195611   3.629   0.685   9.338  0.0234  0.5295  0.6155
30523SOL    HW295612   3.734   0.691   9.447 -0.6971  1.2769  1.2861
30524SOL     OW95613   5.803   3.605   4.524 -0.4218  0.2016  0.0419
30524SOL    HW195614   5.716   3.568   4.540 -1.3912  0.5860 -3.4290
30524SOL    HW295615   5.785   3.692   4.487  1.4542  0.4184 -0.4393
30525SOL     OW95616   2.906   9.569   1.305  0.1731  0.2436 -0.2208
30525SOL    HW195617   2.811   9.571   1.321 -0.1960 -1.0509 -1.9334
30525SOL    HW295618   2.924   9.650   1.257 -0.1814  0.2040 -0.4246
30526SOL     OW95619  10.098   3.775   5.941 -0.1241  0.3490 -0.0723
30526SOL    HW195620  10.045   3.848   5.911 -1.3151 -0.1148  0.8498
30526SOL    HW295621  10.170   3.816   5.990  0.1901  0.9579 -1.0148
30527SOL     OW95622   0.987   8.869   3.038  0.5378  0.1359 -0.3489
30527SOL    HW195623   0.997   8.870   2.943  0.8405 -0.0324 -0.3177
30527SOL    HW295624   1.074   8.889   3.073  0.2787  0.8969 -0.1125
30528SOL     OW95625   1.944  10.058  10.165  0.4021 -0.4115  0.0512
30528SOL    HW195626   2.000  10.006  10.221  1.0314 -0.9944 -1.0821
30528SOL    HW295627   1.885   9.995  10.124  1.1822 -0.2803 -1.3458
30529SOL     OW95628   2.203   4.481   8.502  0.4306  0.2569 -0.1807
30529SOL    HW195629   2.173   4.534   8.576 -0.5653  0.3934 -0.6762
30529SOL    HW295630   2.266   4.538   8.456  1.9540 -0.2386  1.1736
30530SOL     OW95631   2.469   3.489   4.411 -0.1376 -0.5026  0.5978
30530SOL    HW195632   2.420   3.429   4.354  2.4923 -1.1284 -1.1579
30530SOL    HW295633   2.414   3.498   4.489 -2.5932 -1.8302 -0.8376
30531SOL     OW95634   1.823   3.600   5.971  0.3212 -0.2945  0.0880
30531SOL    HW195635   1.891   3.643   6.024 -1.6557  1.3072  1.4619
30531SOL    HW295636   1.786   3.670   5.918 -0.7172 -0.9818 -0.1257
30532SOL     OW95637   4.070   7.391   9.514 -0.1320  0.7225  0.2015
30532SOL    HW195638   4.052   7.480   9.543 -0.5754  0.1352  1.8552
30532SOL    HW295639   4.105   7.347   9.591  2.3897  0.0697 -1.2241
30533SOL     OW95640   7.985   8.726   9.730  0.3563 -0.3637 -0.5398
30533SOL    HW195641   7.925   8.799   9.747 -0.3618 -0.6714 -1.6626
30533SOL    HW295642   7.997   8.685   9.816  0.2789  0.6900 -0.0006
30534SOL     OW95643   4.171   4.050   1.726 -0.3471 -0.3231 -0.0711
30534SOL    HW195644   4.163   3.986   1.797  1.0882 -1.1829 -0.6498
30534SOL    HW295645   4.189   3.997   1.649  3.1980  0.8302 -0.1812
30535SOL     OW95646   5.794   8.936   1.516  0.6028  0.9536 -0.4982
30535SOL    HW195647   5.798   8.851   1.560  1.2444  0.8797 -0.6726
30535SOL    HW295648   5.711   8.935   1.469 -0.5392  1.4209  1.4376
30536SOL     OW95649   8.571   5.882  10.189  0.9628 -0.1139  0.1213
30536SOL    HW195650   8.530   5.798  10.169 -0.2289  0.8405 -1.7080
30536SOL    HW295651   8.528   5.945  10.130  1.5531  1.8581  1.6666
30537SOL     OW95652   6.836   2.208   9.816 -0.6196 -0.2563  0.0975
30537SOL    HW195653   6.773   2.236   9.883  1.0634  0.3047  1.5078
30537SOL    HW295654   6.828   2.273   9.746 -1.4913 -0.1272  0.3102
30538SOL     OW95655   3.557   8.707   3.479 -0.2722 -0.0300 -0.6709
30538SOL    HW195656   3.542   8.640   3.546 -1.9307 -0.4762 -1.4587
30538SOL    HW295657   3.643   8.744   3.502 -0.3970 -0.7719  1.1726
30539SOL     OW95658   1.022   2.155   3.198  0.6567  0.4390  0.4100
30539SOL    HW195659   0.966   2.215   3.150  0.7573  0.3917  0.2324
30539SOL    HW295660   1.047   2.088   3.134  2.1236  1.2706  0.0652
30540SOL     OW95661   5.080   7.255   8.119  0.0272 -0.2851  0.6440
30540SOL    HW195662   5.039   7.282   8.201 -1.0652  1.9056 -0.5288
30540SOL    HW295663   5.135   7.329   8.093  0.4863 -0.9981 -0.5140
30541SOL     OW95664   9.879   1.912   8.897 -0.1407  0.4068 -0.4589
30541SOL    HW195665   9.969   1.906   8.867 -0.4226 -0.5492 -1.1824
30541SOL    HW295666   9.829   1.860   8.833 -1.3699  1.8847 -0.7668
30542SOL     OW95667   4.774   5.940   9.729  0.1005 -0.4423 -0.1608
30542SOL    HW195668   4.835   5.950   9.803 -0.9657  0.6216  0.6192
30542SOL    HW295669   4.690   5.920   9.771 -0.6650  0.8373 -1.0374
30543SOL     OW95670   5.668   0.181   6.648 -0.8857  0.0447  0.1681
30543SOL    HW195671   5.586   0.167   6.600  0.1181  0.4845 -1.7918
30543SOL    HW295672   5.728   0.117   6.610  0.2950  1.2613 -0.0458
30544SOL     OW95673   4.460   0.848   3.085 -0.5482  0.1764 -0.1567
30544SOL    HW195674   4.534   0.904   3.105 -0.7839 -0.2224  2.0350
30544SOL    HW295675   4.444   0.800   3.166 -2.5375 -0.5172 -0.9155
30545SOL     OW95676   3.058   0.962   7.196  0.3576 -0.1643  0.6211
30545SOL    HW195677   3.000   0.972   7.272  0.5085 -0.9897  0.8517
30545SOL    HW295678   3.031   0.879   7.156  0.1142  0.3816 -0.3760
30546SOL     OW95679   6.142   3.881  10.234  0.1406 -0.4755 -0.0252
30546SOL    HW195680   6.074   3.941  10.205 -0.8486 -1.7647 -0.4630
30546SOL    HW295681   6.163   3.829  10.156 -0.0066 -1.5979  0.6660
30547SOL     OW95682   0.851   9.042   3.764  0.0213  0.2226 -0.2606
30547SOL    HW195683   0.900   9.064   3.843  0.1363  0.7204 -0.4631
30547SOL    HW295684   0.760   9.058   3.787 -0.0408 -0.5709  0.0738
30548SOL     OW95685   3.361   9.998   6.122 -0.0999 -0.2351 -0.0606
30548SOL    HW195686   3.405   9.936   6.063  0.7333  1.3295 -1.1537
30548SOL    HW295687   3.281   9.952   6.148  0.4409 -1.7409 -0.8817
30549SOL     OW95688   6.240   7.868   0.948 -0.2595  0.5746 -0.0326
30549SOL    HW195689   6.205   7.955   0.931 -1.9088 -0.2505 -1.1985
30549SOL    HW295690   6.332   7.882   0.969 -0.5580  2.5983  0.0882
30550SOL     OW95691   2.213   6.896   6.934 -0.2701 -0.2935 -0.0107
30550SOL    HW195692   2.282   6.921   6.995  0.9158  0.3838 -1.5486
30550SOL    HW295693   2.183   6.811   6.965  0.9258 -0.3901  0.9787
30551SOL     OW95694   1.067   7.362   4.795 -0.0865 -0.1321  0.2178
30551SOL    HW195695   1.135   7.418   4.832  0.3400 -0.5808  0.1327
30551SOL    HW295696   1.113   7.309   4.730 -0.4764 -0.5737  0.2933
30552SOL     OW95697   4.019   3.258   6.024  0.0705  0.1873  0.6071
30552SOL    HW195698   4.109   3.234   6.043  0.1820  0.3491  0.2973
30552SOL    HW295699   4.012   3.252   5.928 -0.6282 -1.1755  0.7067
30553SOL     OW95700   9.953   4.768  10.086 -0.1180  0.4077 -0.1642
30553SOL    HW195701   9.881   4.712  10.056  0.4508 -0.3219 -0.2127
30553SOL    HW295702   9.973   4.824  10.011 -1.0702  1.0900  0.0731
30554SOL     OW95703   3.243   3.235   3.631  0.1085  0.1294 -0.1376
30554SOL    HW195704   3.277   3.175   3.698 -1.2731 -0.5515 -0.0267
30554SOL    HW295705   3.164   3.273   3.670 -0.4794  0.0484 -1.2209
30555SOL     OW95706   8.172   7.232   0.363 -0.0836 -0.0349  0.3497
30555SOL    HW195707   8.103   7.290   0.330  0.1640 -0.5337 -1.1114
30555SOL    HW295708   8.124   7.161   0.406 -0.3857  1.3785  2.4937
30556SOL     OW95709   9.384   5.773   8.177 -0.2439  0.2126  0.8190
30556SOL    HW195710   9.352   5.732   8.258 -0.8534  0.4963  0.7268
30556SOL    HW295711   9.306   5.811   8.137  0.0495  0.0666  0.0854
30557SOL     OW95712   4.107   9.993   9.478  0.1404 -0.2244 -0.1955
30557SOL    HW195713   4.022   9.967   9.442 -0.7643 -1.7341  2.7050
30557SOL    HW295714   4.085  10.038   9.560  2.1117  1.6197 -0.6089
30558SOL     OW95715   5.853   0.264   9.356 -0.1988 -0.6640  0.1256
30558SOL    HW195716   5.790   0.315   9.307 -0.1952 -0.6384  0.1477
30558SOL    HW295717   5.801   0.201   9.406 -0.1583 -1.3233 -0.6326
30559SOL     OW95718   7.168   7.296   4.874  0.0817 -0.8609  0.0111
30559SOL    HW195719   7.213   7.217   4.904 -0.3943 -0.6204  1.4017
30559SOL    HW295720   7.237   7.362   4.870  0.8530 -1.6935 -2.8364
30560SOL     OW95721   2.935   2.717   0.399  0.1299  0.4487 -0.0985
30560SOL    HW195722   2.990   2.793   0.416  0.1133  0.5919 -0.6638
30560SOL    HW295723   2.989   2.661   0.342  0.6913 -0.6249  1.4387
30561SOL     OW95724   8.500   0.328   1.850  0.0174 -0.1550  0.0077
30561SOL    HW195725   8.528   0.253   1.903 -1.9710 -0.1355  1.2030
30561SOL    HW295726   8.414   0.302   1.815  0.6072  0.4518 -2.0077
30562SOL     OW95727   0.850   3.206   4.036  0.0977  0.7425 -0.0394
30562SOL    HW195728   0.881   3.229   4.124  2.0995 -0.5889 -0.3316
30562SOL    HW295729   0.789   3.134   4.051  3.7924 -2.7186  0.2003
30563SOL     OW95730   3.323   7.842   1.609  0.3774  0.7380  0.3139
30563SOL    HW195731   3.377   7.914   1.576  0.1820  1.5457  1.7050
30563SOL    HW295732   3.385   7.772   1.630  0.6477  0.8192 -0.1911
30564SOL     OW95733   3.782   9.923   6.347  0.1343  0.5485  0.6949
30564SOL    HW195734   3.852   9.970   6.301  0.1923 -0.7300 -0.5770
30564SOL    HW295735   3.703   9.974   6.327  0.4490  1.0991  0.8170
30565SOL     OW95736   6.419   4.142   0.975  0.1186 -0.4207 -0.0536
30565SOL    HW195737   6.388   4.073   1.033  0.8233 -0.5736  0.1564
30565SOL    HW295738   6.364   4.135   0.897  0.4994 -1.5402 -0.2443
30566SOL     OW95739   2.185   4.751   9.997 -0.0913 -0.6287  0.0743
30566SOL    HW195740   2.100   4.771   9.957 -0.6817 -0.8755  1.1732
30566SOL    HW295741   2.172   4.765  10.091  1.3916  0.3785  0.1802
30567SOL     OW95742  10.187   3.337  10.046  0.4437 -0.5567 -0.1869
30567SOL    HW195743  10.232   3.414  10.010  1.5324 -0.7337  0.7315
30567SOL    HW295744  10.243   3.263  10.022 -0.5733 -1.0933 -1.0274
30568SOL     OW95745   6.085   8.398   7.767 -0.0338  0.6529  0.4317
30568SOL    HW195746   6.055   8.450   7.692 -2.6573  0.0887  0.9872
30568SOL    HW295747   6.091   8.309   7.734  0.4931  0.6655  0.4847
30569SOL     OW95748   8.253   6.057   6.741 -0.1464 -0.3723 -0.7629
30569SOL    HW195749   8.311   6.110   6.795 -0.9060  1.9207 -2.0879
30569SOL    HW295750   8.219   5.990   6.800 -0.3535  1.5487  1.4057
30570SOL     OW95751   0.020   9.417   6.325  0.1367 -0.0191  0.1969
30570SOL    HW195752  -0.043   9.399   6.395 -0.4400  0.0510 -0.2987
30570SOL    HW295753  -0.033   9.442   6.250  0.7372 -0.3842 -0.3637
30571SOL     OW95754   4.404  10.260   9.678  0.2655 -0.0083 -0.3172
30571SOL    HW195755   4.333  10.241   9.616  0.5609 -0.7713 -0.4292
30571SOL    HW295756   4.484  10.255   9.626  0.4085  0.9955 -0.2240
30572SOL     OW95757   6.160   8.067   9.676  0.1033  0.1074  0.5043
30572SOL    HW195758   6.232   8.010   9.702  1.3222  2.1075  1.8598
30572SOL    HW295759   6.090   8.048   9.739 -0.1303 -0.9812 -0.0618
30573SOL     OW95760   5.195   3.134   4.119  0.5563 -0.3380 -0.3329
30573SOL    HW195761   5.273   3.111   4.170  0.7111 -0.2111 -0.5141
30573SOL    HW295762   5.133   3.167   4.184 -0.8551 -4.0619  0.5185
30574SOL     OW95763   4.465   5.692   8.389  0.3447 -0.0525 -0.0713
30574SOL    HW195764   4.450   5.730   8.475  0.4170  1.0422 -0.5255
30574SOL    HW295765   4.386   5.714   8.339  0.1912 -0.9017 -0.2173
30575SOL     OW95766   6.430   9.474   0.609 -1.2246  0.3727 -0.0261
30575SOL    HW195767   6.382   9.391   0.611 -1.5654  0.5283 -1.1788
30575SOL    HW295768   6.405   9.518   0.690 -1.9133 -0.1693  0.0636
30576SOL     OW95769   7.916   2.156  10.143 -0.6190  0.4290 -0.5077
30576SOL    HW195770   7.888   2.100  10.071  0.7863 -1.2417  0.1919
30576SOL    HW295771   7.896   2.245  10.112 -0.4082 -0.2427 -2.7857
30577SOL     OW95772   6.503   1.352   6.083  0.2031 -0.0234 -0.3993
30577SOL    HW195773   6.564   1.281   6.105 -0.1236 -1.0214 -2.4877
30577SOL    HW295774   6.546   1.399   6.011 -0.8982  0.1021 -0.9849
30578SOL     OW95775   7.904   0.045   8.742  0.7747 -0.2220  0.1769
30578SOL    HW195776   7.995   0.059   8.770  0.8216  2.4050 -1.0078
30578SOL    HW295777   7.854   0.111   8.790 -0.6650 -2.0262  1.2654
30579SOL     OW95778   4.037   4.418   6.740  0.0911  0.1936 -0.3257
30579SOL    HW195779   4.042   4.388   6.649  1.5337  0.3104 -0.3046
30579SOL    HW295780   4.034   4.337   6.791 -0.2051  0.1211 -0.4582
30580SOL     OW95781   4.693   7.216   9.518 -0.0173  0.3451 -0.1098
30580SOL    HW195782   4.661   7.143   9.466 -2.7963  0.8757  0.6952
30580SOL    HW295783   4.656   7.202   9.605  0.9119  1.7483  0.5490
30581SOL     OW95784   0.757   9.904   2.015  0.0691  0.2439 -0.2300
30581SOL    HW195785   0.786   9.965   1.947  1.1878 -0.9618 -0.8796
30581SOL    HW295786   0.734   9.960   2.089  0.9417  1.4513 -0.8405
30582SOL     OW95787   9.703   9.817   9.186 -0.4808  0.3888  0.2353
30582SOL    HW195788   9.757   9.869   9.246 -0.1837 -0.6133  0.8641
30582SOL    HW295789   9.653   9.759   9.244  0.3470 -1.1251 -0.4997
30583SOL     OW95790   2.308   2.205   2.007 -0.1617  0.2717 -0.0058
30583SOL    HW195791   2.337   2.178   2.094 -1.3651 -1.0397  0.0350
30583SOL    HW295792   2.274   2.293   2.019 -1.5145 -0.3729  1.1739
30584SOL     OW95793   8.907   4.092   1.260 -0.1548  0.4395  0.5175
30584SOL    HW195794   8.897   4.044   1.342  3.4072  2.8622  2.6381
30584SOL    HW295795   8.868   4.177   1.276 -0.2769  0.6247 -0.6801
30585SOL     OW95796   5.363   7.868   7.504 -0.1418 -0.0449 -0.8895
30585SOL    HW195797   5.449   7.897   7.474 -0.2935  1.3790  0.0051
30585SOL    HW295798   5.357   7.899   7.594 -1.3509 -0.6676 -0.7385
30586SOL     OW95799   4.963   4.414   3.085 -0.0773  0.5636 -0.0995
30586SOL    HW195800   4.872   4.388   3.068  0.7610 -2.3775 -0.6008
30586SOL    HW295801   5.007   4.405   3.000  0.8448  1.3603  0.2734
30587SOL     OW95802   3.123   6.352   3.399  0.4804  0.4633  0.2011
30587SOL    HW195803   3.080   6.437   3.405  0.2366  0.2660  2.0638
30587SOL    HW295804   3.081   6.300   3.468  3.4049  0.1157  1.8593
30588SOL     OW95805   1.800   0.187   2.938 -0.3520 -0.7477  0.0358
30588SOL    HW195806   1.873   0.230   2.896 -0.7704 -0.8846 -0.8583
30588SOL    HW295807   1.820   0.190   3.031  0.4035 -0.0916 -0.1434
30589SOL     OW95808   5.181   5.660   4.412 -0.2413  0.1121  0.0009
30589SOL    HW195809   5.137   5.585   4.451  1.1391 -0.0136  1.4238
30589SOL    HW295810   5.262   5.624   4.375  0.5380  0.9134  0.8819
30590SOL     OW95811   7.216   5.741   1.786  0.0043 -0.0523 -0.5533
30590SOL    HW195812   7.155   5.755   1.859  3.2983 -1.4693  2.8114
30590SOL    HW295813   7.262   5.825   1.776 -0.1404  0.0086 -0.7223
30591SOL     OW95814   9.386   4.023   3.252  0.4521  0.1683  0.0081
30591SOL    HW195815   9.346   4.083   3.314 -0.3706  0.2015 -0.5343
30591SOL    HW295816   9.480   4.034   3.264  0.3142  1.7113 -0.2311
30592SOL     OW95817   0.338   6.037   4.033  0.5283 -0.8953  0.8168
30592SOL    HW195818   0.305   6.002   3.950  0.8870 -1.2600  0.8291
30592SOL    HW295819   0.431   6.015   4.034  0.6970 -0.1942  0.9590
30593SOL     OW95820   7.980   5.600   9.341  0.3191 -0.1758  1.4471
30593SOL    HW195821   7.901   5.625   9.293  0.0366 -0.9329  1.5092
30593SOL    HW295822   7.947   5.553   9.418  0.8585 -1.4771  0.9061
30594SOL     OW95823   7.172   7.389   0.136 -0.0408 -0.0487  0.6586
30594SOL    HW195824   7.182   7.294   0.129  1.5216  0.1458 -0.2236
30594SOL    HW295825   7.209   7.411   0.222  0.4707 -0.1429  0.4657
30595SOL     OW95826   2.847   4.285   7.069 -0.5345 -0.5572  0.2027
30595SOL    HW195827   2.839   4.218   7.136 -3.0464 -0.6142 -0.0445
30595SOL    HW295828   2.776   4.266   7.007 -1.3263  2.2457  0.0955
30596SOL     OW95829   9.615  10.124   4.994  0.3839  0.1428 -0.0641
30596SOL    HW195830   9.587  10.206   4.952 -0.2172 -0.2723 -0.4962
30596SOL    HW295831   9.558  10.057   4.956  0.9064 -0.4897  0.2392
30597SOL     OW95832   3.971   9.272   8.855 -0.1711 -0.3782  0.0856
30597SOL    HW195833   3.892   9.272   8.801  0.4244 -0.3659 -0.8029
30597SOL    HW295834   4.042   9.255   8.794  0.5570 -0.0577  0.8214
30598SOL     OW95835  10.100   1.241   3.559 -0.0528 -0.3363  0.5933
30598SOL    HW195836  10.073   1.235   3.650 -0.9188 -0.3107  0.3420
30598SOL    HW295837  10.020   1.226   3.508  0.7385 -2.1241 -0.2068
30599SOL     OW95838   4.335   4.344   6.299  0.2352 -0.3333 -0.0593
30599SOL    HW195839   4.335   4.310   6.389  0.2851 -2.0082 -0.6588
30599SOL    HW295840   4.339   4.266   6.244 -0.7319  0.6181 -1.5453
30600SOL     OW95841   1.075   1.529   8.331  0.2730 -0.0198  0.7755
30600SOL    HW195842   1.132   1.452   8.332  0.7423  0.2507 -0.8229
30600SOL    HW295843   1.135   1.602   8.313 -0.4329  0.4135  0.1401
30601SOL     OW95844   1.926   4.178   3.144  1.0012  0.0727  0.3809
30601SOL    HW195845   2.002   4.162   3.088  1.7247  0.6310  1.1812
30601SOL    HW295846   1.852   4.180   3.084  1.6780  0.0171 -0.4736
30602SOL     OW95847   7.174   3.345   9.327 -0.5351 -0.0203 -0.0387
30602SOL    HW195848   7.171   3.322   9.234 -0.9146 -2.9817  0.6161
30602SOL    HW295849   7.268   3.352   9.347 -0.4103 -0.8265 -0.3347
30603SOL     OW95850   8.987   4.293   4.603  0.4668  0.1565  0.7457
30603SOL    HW195851   8.908   4.320   4.556  0.3491 -0.3952  0.6154
30603SOL    HW295852   9.007   4.367   4.660  1.9515  1.8654 -1.7965
30604SOL     OW95853   7.354   7.816   1.356 -0.2817  0.1960  0.1143
30604SOL    HW195854   7.354   7.816   1.452 -1.0162  0.6035  0.1188
30604SOL    HW295855   7.366   7.907   1.331 -2.2285  0.4125 -0.1560
30605SOL     OW95856   8.017   8.038   9.673 -0.2222  0.6280  0.3765
30605SOL    HW195857   8.054   8.042   9.585 -2.0127 -0.6743 -0.4994
30605SOL    HW295858   7.987   8.127   9.691 -2.1366  0.4095 -1.4301
30606SOL     OW95859   3.216   2.103   3.094 -0.0104 -0.0916  0.5773
30606SOL    HW195860   3.164   2.066   3.166 -1.8932 -0.1609 -0.7551
30606SOL    HW295861   3.298   2.054   3.096 -0.7711 -1.3750  1.5190
30607SOL     OW95862   0.323   4.514   2.769  0.1273  0.0964  0.6687
30607SOL    HW195863   0.298   4.568   2.844 -0.1603  0.5564  0.2413
30607SOL    HW295864   0.403   4.554   2.736 -0.5599  0.8024 -0.1849
30608SOL     OW95865   5.577   6.424   0.881  0.2357  0.0166 -0.0962
30608SOL    HW195866   5.488   6.398   0.858  0.3665 -2.3666  1.6649
30608SOL    HW295867   5.605   6.359   0.946  2.9719  1.1654  0.0226
30609SOL     OW95868   6.830   7.878   3.543  0.4147  0.0369 -0.2993
30609SOL    HW195869   6.773   7.952   3.523  2.1174  0.8605 -2.5118
30609SOL    HW295870   6.917   7.916   3.555  1.5068 -1.5879 -2.3435
30610SOL     OW95871   6.569   1.473   1.465 -0.3674  0.3873  0.0657
30610SOL    HW195872   6.632   1.542   1.483 -0.4026  0.5756 -0.5143
30610SOL    HW295873   6.544   1.440   1.551  1.2412 -0.3558  0.2795
30611SOL     OW95874   7.824   0.815   8.030  0.0146 -0.0373 -0.1569
30611SOL    HW195875   7.843   0.826   7.937  0.0296  0.1375 -0.1324
30611SOL    HW295876   7.864   0.730   8.053 -2.5938 -1.6187 -1.0173
30612SOL     OW95877   4.662   9.981   9.247 -0.3760 -0.0215  0.6314
30612SOL    HW195878   4.607   9.903   9.253 -1.1988  0.3113 -1.5143
30612SOL    HW295879   4.741   9.951   9.202  0.2008 -0.0118  1.6158
30613SOL     OW95880   0.425   3.302   3.923 -0.1904 -0.2675  0.0656
30613SOL    HW195881   0.514   3.299   3.888  0.4915  0.5382  1.6341
30613SOL    HW295882   0.372   3.340   3.853  1.0820  1.1266 -0.1771
30614SOL     OW95883   2.039   5.202   8.782 -0.3602 -0.2281  0.9157
30614SOL    HW195884   2.001   5.290   8.788  0.4436  0.1605  0.4485
30614SOL    HW295885   2.116   5.206   8.838  1.7989  0.5295 -1.8833
30615SOL     OW95886   5.146   7.485  10.078 -0.3723  0.3783  0.2841
30615SOL    HW195887   5.115   7.550  10.014  0.8041  1.5596  0.8644
30615SOL    HW295888   5.066   7.448  10.115 -1.0776  1.3768 -0.1888
30616SOL     OW95889   3.489   5.502   8.648  0.2684  0.5194 -0.7441
30616SOL    HW195890   3.545   5.430   8.676  0.8296  0.2690 -2.4171
30616SOL    HW295891   3.549   5.576   8.637  0.2227  0.3947 -2.0170
30617SOL     OW95892   5.380   5.447   7.015 -0.2603 -0.0070  0.1680
30617SOL    HW195893   5.358   5.505   7.088 -0.0497  1.4550 -0.8771
30617SOL    HW295894   5.345   5.492   6.938  1.4410 -0.4016 -0.8788
30618SOL     OW95895   2.754   7.804   0.169 -0.0062  0.2768 -0.4292
30618SOL    HW195896   2.746   7.883   0.223 -0.5089  1.0415 -1.5797
30618SOL    HW295897   2.665   7.771   0.164  0.0729  0.1002 -0.6314
30619SOL     OW95898   8.378   9.303   4.510  0.0559  0.1090 -0.0663
30619SOL    HW195899   8.317   9.306   4.437  0.0987  1.2572 -0.0740
30619SOL    HW295900   8.357   9.221   4.556 -2.6349  1.2474  0.9007
30620SOL     OW95901   2.676   3.070   5.852 -0.2260  0.3412  0.0166
30620SOL    HW195902   2.734   3.036   5.784 -0.1645  1.1636 -0.3547
30620SOL    HW295903   2.594   3.023   5.840 -0.3321  0.7246 -0.8660
30621SOL     OW95904   6.962   2.104   9.312 -0.4106  0.2713 -0.9001
30621SOL    HW195905   6.915   2.186   9.299 -1.1130  0.0035 -0.1188
30621SOL    HW295906   7.010   2.116   9.394 -0.2863 -0.0040 -0.9300
30622SOL     OW95907   9.894   2.191   9.172 -0.0554 -0.2241 -0.3473
30622SOL    HW195908   9.801   2.183   9.148 -0.5099 -1.8472  1.6690
30622SOL    HW295909   9.936   2.117   9.130 -0.5997 -2.2254  2.3389
30623SOL     OW95910   9.336   1.515   6.744  0.0028 -0.0647  0.5798
30623SOL    HW195911   9.269   1.582   6.735  1.8199  1.5444 -2.3269
30623SOL    HW295912   9.414   1.562   6.771  1.3186 -0.8996 -1.4874
30624SOL     OW95913   7.442   4.870   0.258  0.2701  0.2239 -0.4397
30624SOL    HW195914   7.355   4.908   0.270  0.1980  0.0989 -0.5623
30624SOL    HW295915   7.439   4.831   0.170  0.1294 -0.6346 -0.0642
30625SOL     OW95916   8.810   2.217   4.410 -0.0590 -0.2744  0.1772
30625SOL    HW195917   8.813   2.312   4.425 -0.8336 -0.3462  0.8898
30625SOL    HW295918   8.872   2.181   4.473  1.1840 -0.1742 -0.9462
30626SOL     OW95919   0.913   1.320  10.196 -0.3834 -0.4111  0.5348
30626SOL    HW195920   0.934   1.254  10.262  1.0853 -0.1316  0.3630
30626SOL    HW295921   0.948   1.402  10.232  1.2229 -0.3960 -0.9508
30627SOL     OW95922   6.883   0.275   9.781  0.1791  0.4674 -1.0447
30627SOL    HW195923   6.811   0.265   9.844  0.2498 -0.2275 -1.0645
30627SOL    HW295924   6.960   0.241   9.827  0.3499  0.5265 -1.2842
30628SOL     OW95925   5.937   7.408   8.578 -0.5796  0.0664  0.2761
30628SOL    HW195926   5.975   7.463   8.510  0.0367 -2.4704 -1.5785
30628SOL    HW295927   5.951   7.319   8.547 -1.8957 -1.1637  2.9142
30629SOL     OW95928   1.125   6.874   4.544 -0.5380 -0.1236  0.0799
30629SOL    HW195929   1.060   6.937   4.576 -0.4477  1.9766 -3.3012
30629SOL    HW295930   1.086   6.840   4.463  0.9863 -1.7070 -0.0290
30630SOL     OW95931   3.237   0.441   4.187 -0.3867  0.2560  0.5626
30630SOL    HW195932   3.229   0.383   4.111 -1.7068 -0.7352  1.4139
30630SOL    HW295933   3.318   0.414   4.230 -0.0059  0.3425 -0.0902
30631SOL     OW95934   8.921   6.105   8.480 -0.1369 -0.2852  0.2820
30631SOL    HW195935   8.889   6.022   8.442 -0.3327 -0.5330  0.9721
30631SOL    HW295936   9.015   6.093   8.488 -0.0610 -0.1417 -0.3338
30632SOL     OW95937   0.864   7.817   4.179 -0.1083  0.1419  0.0568
30632SOL    HW195938   0.951   7.854   4.167  0.4184 -0.6640  1.2706
30632SOL    HW295939   0.872   7.757   4.253 -0.8203 -2.7852 -2.0429
30633SOL     OW95940   1.564   9.039   1.514 -0.2312  0.0137 -0.3487
30633SOL    HW195941   1.508   8.963   1.529 -0.0331 -0.1485 -0.4462
30633SOL    HW295942   1.521   9.087   1.443  0.5745 -0.9213 -1.5058
30634SOL     OW95943   4.277   6.474   2.757 -0.2020  0.2978  0.3022
30634SOL    HW195944   4.245   6.397   2.710 -1.3047  1.4377 -0.8895
30634SOL    HW295945   4.360   6.496   2.715 -0.8292  0.8815 -0.6497
30635SOL     OW95946   5.216   7.226   9.394  0.3735  0.0107  0.3412
30635SOL    HW195947   5.241   7.315   9.368 -1.5865 -0.0183 -1.9874
30635SOL    HW295948   5.182   7.186   9.314 -1.3038 -1.9365  1.9049
30636SOL     OW95949   6.448   2.250   5.853 -0.1654  0.6008 -0.6366
30636SOL    HW195950   6.535   2.211   5.845  0.2185  1.6086 -1.6186
30636SOL    HW295951   6.398   2.187   5.905  1.3810  0.3927  0.6993
30637SOL     OW95952   7.145   1.505   3.107 -0.4967 -0.4451  0.3030
30637SOL    HW195953   7.194   1.425   3.086 -0.6555 -0.1884 -1.1488
30637SOL    HW295954   7.058   1.490   3.070 -1.7846 -1.1062  3.2831
30638SOL     OW95955   3.051   4.894   5.576  0.0767  0.0413  0.3762
30638SOL    HW195956   3.067   4.952   5.502  3.5038  1.5428  2.0641
30638SOL    HW295957   3.017   4.952   5.644  0.9086 -0.4399  1.2187
30639SOL     OW95958   2.276   7.336   3.852  0.4403 -0.0337  0.4661
30639SOL    HW195959   2.255   7.312   3.942  0.5979  0.4959  0.6422
30639SOL    HW295960   2.208   7.398   3.827  0.8139  0.3810  0.4671
30640SOL     OW95961   2.743   8.364   1.614 -0.2468 -0.3243  0.4419
30640SOL    HW195962   2.821   8.407   1.649  0.1686 -0.1140 -0.6933
30640SOL    HW295963   2.676   8.375   1.682  0.7184 -0.5415  1.4375
30641SOL     OW95964   5.456   2.430   3.422 -0.3674  0.1158 -0.3779
30641SOL    HW195965   5.503   2.424   3.339 -0.0055 -1.6956 -0.0806
30641SOL    HW295966   5.521   2.464   3.484  0.8706 -2.8649  0.1510
30642SOL     OW95967   4.627   3.782   8.243 -0.4637  0.3275  0.4698
30642SOL    HW195968   4.662   3.697   8.218 -1.0054  0.0246  0.7105
30642SOL    HW295969   4.686   3.814   8.311 -0.0021  0.3484  0.0595
30643SOL     OW95970   2.803   7.064   8.000 -0.2369 -0.5116 -0.3148
30643SOL    HW195971   2.833   6.995   8.060 -0.1452 -0.8414 -0.7298
30643SOL    HW295972   2.824   7.146   8.045 -0.5312 -0.7566  0.2747
30644SOL     OW95973   8.011   8.734   6.216  0.0012 -0.1567  0.3079
30644SOL    HW195974   7.977   8.672   6.152  2.6183 -0.7919 -0.5797
30644SOL    HW295975   7.994   8.693   6.301  1.5146 -2.0760 -0.2576
30645SOL     OW95976   2.804   9.921   0.906 -0.8864 -0.4481 -0.3112
30645SOL    HW195977   2.823   9.836   0.867  0.9417  0.3479 -1.2714
30645SOL    HW295978   2.782   9.901   0.997 -0.3212 -1.9249 -0.4690
30646SOL     OW95979   3.005   0.604   9.285  0.3542  0.2318  0.2553
30646SOL    HW195980   3.026   0.686   9.240  1.5947  0.8423  1.8653
30646SOL    HW295981   3.033   0.536   9.223  1.5167  1.0339 -0.1500
30647SOL     OW95982   7.521   6.232   2.664  0.0977  0.3739 -0.2272
30647SOL    HW195983   7.506   6.288   2.741 -0.2131  1.4582 -1.0563
30647SOL    HW295984   7.548   6.148   2.701  1.7597  1.3967  1.0629
30648SOL     OW95985  10.133   1.274   4.446  0.8705 -0.1251 -0.2806
30648SOL    HW195986  10.106   1.223   4.522  1.1167 -0.5931 -0.5045
30648SOL    HW295987  10.217   1.236   4.420 -0.3103 -1.6219 -2.2629
30649SOL     OW95988   1.051  10.007   8.354  0.2240 -0.3492 -0.5039
30649SOL    HW195989   0.976   9.955   8.383 -0.8333  1.1419 -0.4517
30649SOL    HW295990   1.027  10.098   8.375  2.1147  0.1577 -0.3560
30650SOL     OW95991   5.754   3.844   6.456 -0.2660  0.6645  0.3061
30650SOL    HW195992   5.816   3.876   6.521 -0.0568  0.2377  0.3196
30650SOL    HW295993   5.722   3.923   6.412  0.2208  0.8930  0.3576
30651SOL     OW95994   5.667   8.399   7.657  0.1057 -0.0259 -0.1591
30651SOL    HW195995   5.615   8.423   7.581 -0.7952  1.5093  0.8750
30651SOL    HW295996   5.691   8.307   7.642  1.0550  0.5863 -2.8594
30652SOL     OW95997   2.703   0.459   8.991  0.6338 -0.1018  0.1982
30652SOL    HW195998   2.695   0.493   9.080 -0.3781 -2.0294  0.9206
30652SOL    HW295999   2.658   0.523   8.936  0.4244  0.6336  1.2003
30653SOL     OW96000   8.484   8.232   1.448  0.0149 -0.2950  0.2615
30653SOL    HW196001   8.450   8.145   1.470 -1.5549  0.1809 -0.1450
30653SOL    HW296002   8.512   8.226   1.357 -1.3925 -0.0416 -0.2154
30654SOL     OW96003   5.486   9.336   7.234  0.3942 -0.2585 -0.4678
30654SOL    HW196004   5.562   9.288   7.267  0.2833  0.5417  1.0366
30654SOL    HW296005   5.522   9.418   7.200  0.1094  0.7085  1.4664
30655SOL     OW96006   5.197   4.234   5.341 -0.4607 -0.7936  0.5272
30655SOL    HW196007   5.171   4.289   5.267 -0.7611  0.1027  1.2864
30655SOL    HW296008   5.115   4.205   5.379 -0.3468 -0.0241  1.4017
30656SOL     OW96009   4.516   2.240   8.708 -0.0785 -0.2103 -0.2085
30656SOL    HW196010   4.436   2.195   8.736 -0.4908 -0.2093 -1.3187
30656SOL    HW296011   4.497   2.267   8.618  0.6240  1.0984  0.0177
30657SOL     OW96012   1.224   8.208   4.708  0.0978  0.2291 -0.4432
30657SOL    HW196013   1.269   8.170   4.632 -2.9314 -0.9215 -1.8325
30657SOL    HW296014   1.228   8.140   4.775 -0.7826 -0.4760 -1.0821
30658SOL     OW96015   8.442   9.384   0.542 -0.1470  0.0227  0.3316
30658SOL    HW196016   8.371   9.443   0.568  0.2657  1.0118 -0.7062
30658SOL    HW296017   8.404   9.297   0.548 -0.6657  0.3258  2.2591
30659SOL     OW96018   2.442   6.079   3.281  0.0627 -0.1097  0.2184
30659SOL    HW196019   2.381   6.147   3.251  0.0893 -0.3391 -0.3752
30659SOL    HW296020   2.397   5.997   3.261  1.6390 -0.3930 -2.7727
30660SOL     OW96021   0.969  10.255   2.367 -0.3194 -0.2281 -0.5458
30660SOL    HW196022   0.971  10.162   2.345  3.1164 -0.9065  1.7734
30660SOL    HW296023   0.899  10.263   2.432 -0.1712 -1.4203 -0.2141
30661SOL     OW96024   4.429   2.035   6.557  0.2941  0.1996  0.4581
30661SOL    HW196025   4.360   2.098   6.537 -0.4946 -1.0673 -1.0497
30661SOL    HW296026   4.384   1.964   6.604  1.3334  1.0785  3.0016
30662SOL     OW96027   2.763   2.944   0.344 -0.1140 -0.2304 -0.1778
30662SOL    HW196028   2.796   2.969   0.258 -1.9709  0.5172 -0.7293
30662SOL    HW296029   2.835   2.896   0.385  1.3454  0.7310 -1.5340
30663SOL     OW96030   4.746   5.795   2.097 -0.3069  0.2838  0.0619
30663SOL    HW196031   4.776   5.878   2.060  0.2442  0.5026  0.9596
30663SOL    HW296032   4.712   5.818   2.184  2.6825 -0.7678  1.6601
30664SOL     OW96033   6.845   2.062   4.252  0.1103 -0.1210 -0.4910
30664SOL    HW196034   6.940   2.051   4.262  0.0613  0.0971  0.3234
30664SOL    HW296035   6.827   2.149   4.288 -0.5246 -0.5611  0.2968
30665SOL     OW96036   6.138   2.002   4.098  0.1460  0.0641  0.1178
30665SOL    HW196037   6.112   1.955   4.178  0.0715 -1.3526 -0.7044
30665SOL    HW296038   6.230   1.979   4.086  0.8209  2.0819  0.9853
30666SOL     OW96039   1.295   5.257  10.204 -0.3917 -0.3820 -0.1221
30666SOL    HW196040   1.253   5.290  10.125 -0.4480  0.8696  0.4209
30666SOL    HW296041   1.388   5.277  10.192 -0.8249  4.1426  2.0500
30667SOL     OW96042   4.068   1.734   2.415  0.0048  0.1283 -0.4392
30667SOL    HW196043   4.061   1.640   2.431 -1.9699  0.3526  0.3006
30667SOL    HW296044   4.148   1.760   2.460  1.0243 -1.3195 -1.3523
30668SOL     OW96045   6.145   8.403   3.571  0.5265  0.2330  0.2206
30668SOL    HW196046   6.106   8.482   3.533  1.4182  0.2443 -0.7286
30668SOL    HW296047   6.081   8.334   3.552  0.2151  0.5362  0.1432
30669SOL     OW96048   5.562   7.259   9.574  0.4051  0.4174  0.1958
30669SOL    HW196049   5.631   7.289   9.633  0.9537  1.0708 -0.7393
30669SOL    HW296050   5.523   7.340   9.540 -0.8221  0.0584  0.6942
30670SOL     OW96051  10.075   2.671   1.485 -0.2036  0.2407  0.3209
30670SOL    HW196052  10.113   2.724   1.555  0.6135 -0.1005  0.1375
30670SOL    HW296053  10.130   2.594   1.479 -0.2213  0.2890 -0.7386
30671SOL     OW96054   2.961   7.029   4.520  0.5218 -0.3556  0.4117
30671SOL    HW196055   2.866   7.027   4.536  0.1622 -0.7965 -1.4793
30671SOL    HW296056   2.998   6.976   4.590 -0.6632 -0.4418  1.0062
30672SOL     OW96057   4.378   0.699   3.731  0.2097  0.7709 -0.1819
30672SOL    HW196058   4.343   0.681   3.643 -0.1824  1.1130 -0.1021
30672SOL    HW296059   4.465   0.735   3.716  0.2571  0.5604 -0.4191
30673SOL     OW96060   2.833   6.564   1.053  0.1588 -0.0653  0.2238
30673SOL    HW196061   2.916   6.550   1.098  1.4661 -1.2910 -2.3510
30673SOL    HW296062   2.858   6.579   0.961 -2.4089  0.8757 -0.4095
30674SOL     OW96063   9.135   9.044   1.727 -0.3578  0.2444 -0.3271
30674SOL    HW196064   9.207   9.037   1.664  1.2026 -1.4361  1.5223
30674SOL    HW296065   9.057   9.057   1.672  1.0959  0.4306 -2.4946
30675SOL     OW96066   5.074   4.237   7.970 -0.5885 -0.3286 -0.1057
30675SOL    HW196067   5.112   4.150   7.964  2.6432  1.0271 -3.4095
30675SOL    HW296068   5.095   4.267   8.059 -0.9484 -2.4961  0.7684
30676SOL     OW96069   2.111   2.470   7.792  0.0226  0.4439 -0.0053
30676SOL    HW196070   2.151   2.553   7.818  0.5247  0.4336 -0.7358
30676SOL    HW296071   2.139   2.409   7.860 -2.3031  1.3348  1.9118
30677SOL     OW96072   5.749   5.537   4.205 -0.0092  0.2301  0.1055
30677SOL    HW196073   5.657   5.534   4.228  0.4094 -0.2925  1.8085
30677SOL    HW296074   5.793   5.488   4.274  1.7061  1.7090  0.1274
30678SOL     OW96075   1.067   9.944   6.614 -0.1922 -0.6370  0.4175
30678SOL    HW196076   1.160   9.964   6.619 -0.0725 -0.7489 -1.0324
30678SOL    HW296077   1.062   9.850   6.633 -0.3317 -0.1680  3.1408
30679SOL     OW96078   6.853   4.361   7.859 -0.6102 -0.2320  0.2071
30679SOL    HW196079   6.807   4.353   7.942  0.1086  0.1726  0.6565
30679SOL    HW296080   6.935   4.313   7.872 -0.3808  0.0416 -0.1835
30680SOL     OW96081   2.154   8.109   4.423 -0.4174  0.2306  0.0108
30680SOL    HW196082   2.060   8.101   4.439 -0.5543 -1.6814 -1.3889
30680SOL    HW296083   2.160   8.129   4.329  0.5761 -2.0417 -0.4727
30681SOL     OW96084   4.630   3.696   2.384  0.0215  0.0192  0.0140
30681SOL    HW196085   4.654   3.745   2.463  1.2525 -0.8162  0.1842
30681SOL    HW296086   4.576   3.757   2.334  4.0890  2.9513 -1.4073
30682SOL     OW96087   8.925   4.202   8.707 -0.6188  0.2569 -0.3265
30682SOL    HW196088   9.008   4.241   8.679 -0.1000  0.2786  1.1658
30682SOL    HW296089   8.900   4.145   8.635 -0.0606  1.3514 -1.4238
30683SOL     OW96090  10.259   5.433   1.445  0.2394 -0.0513  0.4679
30683SOL    HW196091  10.346   5.466   1.426  0.2640 -0.9000 -1.0066
30683SOL    HW296092  10.274   5.355   1.498  0.3679 -0.0921  0.3702
30684SOL     OW96093   7.304   3.826   3.837 -0.0352 -0.2272 -0.7328
30684SOL    HW196094   7.381   3.770   3.842 -1.6016 -2.4103  1.7916
30684SOL    HW296095   7.234   3.768   3.805 -1.6403  0.2200  1.6489
30685SOL     OW96096   5.666   3.400   0.601  0.2365  0.3205  0.2173
30685SOL    HW196097   5.596   3.353   0.644 -0.1775  0.7349  0.0096
30685SOL    HW296098   5.708   3.451   0.670  1.7590 -1.5744  0.7820
30686SOL     OW96099   0.164   4.469   5.562 -0.3672  0.0918 -0.0967
30686SOL    HW196100   0.186   4.460   5.469  0.1575 -1.3331  0.1494
30686SOL    HW296101   0.150   4.380   5.593 -1.1093  0.5906  1.0691
30687SOL     OW96102   9.969   5.118   6.119  0.0297 -0.0062 -0.7551
30687SOL    HW196103   9.949   5.190   6.059  0.9467  1.1681  0.3119
30687SOL    HW296104   9.890   5.111   6.174  0.0750  0.4353 -0.6275
30688SOL     OW96105   2.544   3.038   4.758 -0.0381  0.6582  0.1011
30688SOL    HW196106   2.600   2.997   4.824  1.4535  2.4441  0.0228
30688SOL    HW296107   2.455   3.013   4.782  0.7269 -2.0799  0.3805
30689SOL     OW96108   5.931   6.659   1.369 -0.3392 -0.1093 -0.0686
30689SOL    HW196109   6.001   6.686   1.309  0.2673 -1.4297  0.0167
30689SOL    HW296110   5.960   6.689   1.455 -0.2176 -0.0335 -0.1357
30690SOL     OW96111   0.812   2.984   9.179 -0.2613  0.0239 -0.2986
30690SOL    HW196112   0.838   2.891   9.177 -0.4027 -0.0196 -0.1758
30690SOL    HW296113   0.717   2.981   9.185 -0.2230  0.1682  0.4730
30691SOL     OW96114   8.564   4.869   7.715 -0.2296  0.2954 -0.2573
30691SOL    HW196115   8.616   4.886   7.636 -0.2825  0.4372 -0.2630
30691SOL    HW296116   8.544   4.956   7.749 -0.1247  0.2323 -0.0329
30692SOL     OW96117   9.115   0.340   7.905  0.7051  0.0270 -0.1997
30692SOL    HW196118   9.184   0.356   7.841  1.2388  0.5195  0.4763
30692SOL    HW296119   9.159   0.347   7.990  0.0365 -0.7291  0.2177
30693SOL     OW96120   5.467   8.682   7.954 -0.1223 -0.5144 -0.1698
30693SOL    HW196121   5.428   8.758   7.910  0.0643 -0.0385  0.4636
30693SOL    HW296122   5.477   8.710   8.045 -1.7737 -1.9442  0.5027
30694SOL     OW96123   6.997   4.426   2.218  0.0056  0.3970  0.3265
30694SOL    HW196124   6.975   4.337   2.246 -0.3771  0.0087 -1.1577
30694SOL    HW296125   6.927   4.451   2.158  0.8603  1.1725 -0.3780
30695SOL     OW96126   3.380   9.694   1.974 -0.3172 -0.1872 -0.2897
30695SOL    HW196127   3.408   9.614   1.929  0.9940  0.1487 -0.0915
30695SOL    HW296128   3.334   9.745   1.907  0.5781 -0.2205 -0.9390
30696SOL     OW96129   2.423   2.608  10.057 -0.2560  0.8755  0.2038
30696SOL    HW196130   2.505   2.650  10.084  1.7832 -1.8456 -1.1517
30696SOL    HW296131   2.416   2.531  10.113 -0.8556  0.0963 -0.8976
30697SOL     OW96132   0.021   1.133   0.679  0.2013 -0.3051 -0.5031
30697SOL    HW196133  -0.046   1.065   0.685 -2.2609  1.9817 -0.1339
30697SOL    HW296134   0.032   1.148   0.585 -0.9812  0.3309 -0.5550
30698SOL     OW96135   9.183   0.531   5.905 -0.3304 -0.0106 -0.7233
30698SOL    HW196136   9.265   0.571   5.933  0.1730 -0.0129 -2.1026
30698SOL    HW296137   9.207   0.441   5.883 -0.7929 -0.1330 -0.7389
30699SOL     OW96138   4.255   3.874   1.517  0.3426 -0.1656 -0.0531
30699SOL    HW196139   4.208   3.791   1.520  1.6409 -0.9116  0.9159
30699SOL    HW296140   4.192   3.936   1.481 -0.8812 -1.4195 -0.1685
30700SOL     OW96141   2.767   6.195   2.279 -0.1460 -0.1438  0.2387
30700SOL    HW196142   2.757   6.288   2.300 -1.0282 -0.7573  3.0019
30700SOL    HW296143   2.851   6.171   2.318 -0.5195 -0.7615  0.6795
30701SOL     OW96144   4.654   3.032   7.288  0.6051  0.0889  0.3884
30701SOL    HW196145   4.653   3.123   7.316 -0.1576  0.2864 -0.2358
30701SOL    HW296146   4.566   3.017   7.254  0.4051 -1.1709  1.3762
30702SOL     OW96147   5.120   5.246   7.987 -0.0332 -0.2462 -0.0260
30702SOL    HW196148   5.159   5.323   7.945  1.1384 -0.8881 -0.1494
30702SOL    HW296149   5.143   5.255   8.080 -0.1011 -0.3324 -0.0003
30703SOL     OW96150   1.643   8.569   7.914 -0.1405 -0.5502 -0.6470
30703SOL    HW196151   1.671   8.578   8.005 -0.4343 -0.7990 -0.5283
30703SOL    HW296152   1.723   8.580   7.863 -0.0674  0.1441 -0.3894
30704SOL     OW96153   9.580   6.584   4.855 -0.3972  0.2041 -0.0201
30704SOL    HW196154   9.575   6.535   4.772 -1.1778  0.2286  0.0032
30704SOL    HW296155   9.551   6.521   4.921 -1.1179  0.6042  0.0483
30705SOL     OW96156   8.762   3.670   4.176 -0.4376  0.5577  0.1806
30705SOL    HW196157   8.736   3.753   4.136  1.4144  0.7052 -0.8260
30705SOL    HW296158   8.840   3.691   4.227  0.5709 -0.6876 -0.7801
30706SOL     OW96159   8.256   0.919   2.494 -0.0837  0.4733 -0.3088
30706SOL    HW196160   8.288   0.833   2.519 -0.6346  0.7061  1.2806
30706SOL    HW296161   8.281   0.977   2.566 -1.8601  1.1480 -0.1846
30707SOL     OW96162   3.533   7.279   3.708 -0.1631 -0.0348  0.7417
30707SOL    HW196163   3.491   7.363   3.687  1.6834  1.3654  2.2270
30707SOL    HW296164   3.480   7.244   3.780 -0.2679  0.4562  0.9143
30708SOL     OW96165   4.064   4.096   1.391 -0.1393  0.2107 -0.3971
30708SOL    HW196166   4.036   4.066   1.304 -1.9046  0.0426  0.1831
30708SOL    HW296167   4.092   4.186   1.377 -1.6032  0.6088 -0.9590
30709SOL     OW96168   7.669   0.107   4.737  0.2340 -0.4416  0.9451
30709SOL    HW196169   7.695   0.018   4.715  0.4216 -0.1367 -0.1184
30709SOL    HW296170   7.729   0.163   4.687 -0.3431  0.2759  1.0320
30710SOL     OW96171   0.579   6.911   6.292 -0.5511 -0.1229  0.3757
30710SOL    HW196172   0.600   6.980   6.230 -0.5074 -1.2660 -0.9300
30710SOL    HW296173   0.501   6.943   6.337  0.0117  1.1762  0.4843
30711SOL     OW96174   7.616   4.761   0.689  0.2889  0.6353 -0.0848
30711SOL    HW196175   7.689   4.767   0.751  0.9938  1.0240 -0.9377
30711SOL    HW296176   7.657   4.767   0.603 -0.4184 -2.0919 -0.7025
30712SOL     OW96177   3.836   3.561   9.194  0.0524  0.2601  0.2569
30712SOL    HW196178   3.865   3.469   9.188  0.1288  0.0655  2.6514
30712SOL    HW296179   3.761   3.566   9.135  0.3439 -1.2025 -0.2915
30713SOL     OW96180   3.561   5.518   0.370 -0.3926  0.4167 -0.0723
30713SOL    HW196181   3.498   5.570   0.419 -1.8122 -0.5506 -0.8307
30713SOL    HW296182   3.618   5.480   0.438 -0.5822  1.3187  0.6108
30714SOL     OW96183   3.049  10.066   1.910 -0.4683  0.2303  0.5589
30714SOL    HW196184   3.101  10.119   1.849 -3.3877  1.8611 -0.7200
30714SOL    HW296185   2.969  10.044   1.861 -2.3243  0.3684  3.2902
30715SOL     OW96186   3.154   2.338   9.655 -0.2233  0.3995 -0.3195
30715SOL    HW196187   3.240   2.364   9.690 -0.1480  0.7939 -0.7865
30715SOL    HW296188   3.172   2.313   9.564 -0.4283 -0.5552 -0.0995
30716SOL     OW96189  10.112   2.524   5.820  0.1067  0.3766 -0.3487
30716SOL    HW196190  10.136   2.431   5.810  0.5733  0.4083  0.3601
30716SOL    HW296191  10.117   2.559   5.731 -0.5340 -0.3763 -0.7013
30717SOL     OW96192   4.103   9.619   9.902  0.2601 -0.0627 -0.3462
30717SOL    HW196193   4.124   9.701   9.856  2.0984  0.4130  1.2246
30717SOL    HW296194   4.188   9.584   9.928 -0.6219 -1.3366  0.9413
30718SOL     OW96195   7.719   3.313   6.574 -0.3621  0.2166  0.7008
30718SOL    HW196196   7.789   3.347   6.519  0.2116 -1.2790  0.4784
30718SOL    HW296197   7.763   3.263   6.642 -1.1550  0.5705  1.5062
30719SOL     OW96198   1.198   8.505   2.904 -0.9358  0.3571  0.1632
30719SOL    HW196199   1.181   8.432   2.963 -0.3116  0.4637  0.4861
30719SOL    HW296200   1.112   8.541   2.884 -1.2163 -0.2249  0.3071
30720SOL     OW96201   8.143   1.662   2.776  0.1577 -0.5269 -0.1010
30720SOL    HW196202   8.114   1.611   2.852 -1.6381  0.3237 -0.1716
30720SOL    HW296203   8.179   1.597   2.715 -1.9669 -1.7301 -0.1520
30721SOL     OW96204   1.498   5.709   7.670 -0.8010 -0.4714 -0.2911
30721SOL    HW196205   1.493   5.620   7.635 -0.7439 -1.2832  1.6435
30721SOL    HW296206   1.425   5.715   7.732  0.3392  0.1343  1.0585
30722SOL     OW96207   1.464   3.275   0.494  0.0165  0.0955  0.0287
30722SOL    HW196208   1.473   3.186   0.461  1.4627  1.0264 -2.3463
30722SOL    HW296209   1.402   3.268   0.566 -1.0484 -2.5943 -1.0276
30723SOL     OW96210   0.680   1.948   7.172 -0.2003 -1.2642  0.1570
30723SOL    HW196211   0.623   1.929   7.246  0.4773 -0.4198  0.9038
30723SOL    HW296212   0.726   2.028   7.196  1.4197 -2.0047 -0.3659
30724SOL     OW96213   7.235   8.873   7.848  0.3557  0.0486  0.5982
30724SOL    HW196214   7.210   8.805   7.785  0.6552  0.4421  0.0564
30724SOL    HW296215   7.315   8.910   7.813  2.3848 -1.8968  2.8444
30725SOL     OW96216   0.041   9.384   8.633 -0.2600  0.0126  0.5587
30725SOL    HW196217   0.038   9.471   8.673  1.1447 -0.2521  1.2798
30725SOL    HW296218  -0.009   9.394   8.552 -2.5418  0.7459  1.9655
30726SOL     OW96219   5.620   4.581   1.865  0.0848 -0.3828  0.0163
30726SOL    HW196220   5.666   4.611   1.787  0.4902 -1.2672 -0.0998
30726SOL    HW296221   5.558   4.651   1.885  0.4505  0.1560 -0.6979
30727SOL     OW96222   4.072   6.009   1.205 -0.2231  0.2626 -0.6973
30727SOL    HW196223   4.008   5.941   1.185 -1.5777  1.0420  0.7514
30727SOL    HW296224   4.123   6.020   1.124 -1.3073 -1.0325 -1.5860
30728SOL     OW96225   2.370   5.344   2.821  0.7735 -0.5492  0.2948
30728SOL    HW196226   2.327   5.429   2.808 -0.7248 -0.5918  3.8190
30728SOL    HW296227   2.300   5.280   2.814  1.3441 -1.2129  0.4956
30729SOL     OW96228   7.930   9.684   1.059 -0.7164 -0.0966  0.4302
30729SOL    HW196229   7.960   9.671   0.969 -0.2001 -0.9523  0.7192
30729SOL    HW296230   7.920   9.779   1.067 -1.6277 -0.0681 -0.7995
30730SOL     OW96231   7.676   6.301   5.607  0.5447 -0.5278  0.3093
30730SOL    HW196232   7.602   6.261   5.654 -1.1580  1.3646 -0.6018
30730SOL    HW296233   7.663   6.395   5.619  0.8974 -0.0203 -2.6281
30731SOL     OW96234   2.673   8.806   2.780  0.1622  0.2965  0.3360
30731SOL    HW196235   2.762   8.843   2.789  0.3006  0.2494 -0.6786
30731SOL    HW296236   2.676   8.757   2.698 -1.1552  1.3507 -0.3823
30732SOL     OW96237   3.156   8.181   6.302  0.2898 -0.3181 -0.0086
30732SOL    HW196238   3.195   8.157   6.218  0.6893  0.5128 -0.0728
30732SOL    HW296239   3.220   8.151   6.367 -0.1192 -1.1499  0.0092
30733SOL     OW96240   4.499   7.183   4.606 -0.1989  0.1760  0.4568
30733SOL    HW196241   4.424   7.128   4.582  0.6140 -2.0272  2.6288
30733SOL    HW296242   4.460   7.256   4.654 -1.1507  0.7407 -1.0658
30734SOL     OW96243   2.975   7.628   4.690  0.0603  0.2737  0.0826
30734SOL    HW196244   2.883   7.651   4.699 -0.0890 -0.2212 -0.1505
30734SOL    HW296245   2.998   7.654   4.601  1.1211  3.7222  1.2309
30735SOL     OW96246   4.791   5.311   7.244  0.6552 -0.0970  0.0815
30735SOL    HW196247   4.733   5.295   7.318  1.6185 -0.4589  0.7768
30735SOL    HW296248   4.769   5.399   7.213 -0.4626 -0.3466  0.1335
30736SOL     OW96249   0.276   9.404   3.117 -0.6043 -0.5370  0.5015
30736SOL    HW196250   0.223   9.380   3.194  1.2616 -2.9519  1.1930
30736SOL    HW296251   0.326   9.480   3.145 -0.5292 -0.9115  1.4399
30737SOL     OW96252   1.582   4.348   8.981  0.2777  0.5935 -0.0605
30737SOL    HW196253   1.549   4.363   9.069  0.6278 -0.9680  0.3785
30737SOL    HW296254   1.670   4.311   8.995 -0.5118 -1.8085 -0.9391
30738SOL     OW96255   7.536   3.440   4.390 -0.2791  0.9837  0.1050
30738SOL    HW196256   7.460   3.396   4.352 -1.5858  1.4049  2.0459
30738SOL    HW296257   7.603   3.372   4.395 -1.5945 -0.3122  1.1755
30739SOL     OW96258  10.077   9.662   1.871  0.8032  0.1729 -0.3533
30739SOL    HW196259  10.032   9.592   1.823  1.4080 -0.2953 -0.2566
30739SOL    HW296260  10.151   9.685   1.815  0.6902  0.6319 -0.3126
30740SOL     OW96261   1.296   3.039   1.771 -0.6065 -0.2162  0.0194
30740SOL    HW196262   1.231   3.048   1.701  0.8931  1.3827 -1.2433
30740SOL    HW296263   1.266   3.099   1.839 -0.7410  0.1085 -0.3224
30741SOL     OW96264   9.361   9.582   8.229  0.0085  0.8486 -0.4280
30741SOL    HW196265   9.442   9.623   8.200  0.4999 -0.3786 -0.8695
30741SOL    HW296266   9.346   9.511   8.166  0.3978 -1.0680  1.5231
30742SOL     OW96267   7.681   9.702   2.207  0.2670 -0.1125 -0.1169
30742SOL    HW196268   7.765   9.655   2.202  1.0613  1.1970  0.4754
30742SOL    HW296269   7.646   9.677   2.293  0.6480  0.3033  0.1625
30743SOL     OW96270   5.798   1.764   9.144 -0.2115 -0.0798 -0.2484
30743SOL    HW196271   5.795   1.821   9.220 -0.2321  1.5150 -1.4046
30743SOL    HW296272   5.855   1.692   9.170 -2.6154 -1.2478  2.3294
30744SOL     OW96273   1.995  10.195   2.397  0.1418 -0.5856 -0.2374
30744SOL    HW196274   1.956  10.161   2.316 -0.1796  0.8372 -0.7032
30744SOL    HW296275   1.921  10.217   2.453  0.3546 -1.0220  0.2277
30745SOL     OW96276   1.588   3.022   5.885  0.1571  0.3368  0.3972
30745SOL    HW196277   1.513   3.010   5.944 -0.0897 -0.9825 -0.1441
30745SOL    HW296278   1.567   3.101   5.835 -0.0677  0.9348  1.3978
30746SOL     OW96279   5.622   2.862   9.166  0.1887  0.2181  0.5108
30746SOL    HW196280   5.674   2.842   9.243  0.5627 -0.8962 -0.0149
30746SOL    HW296281   5.646   2.952   9.144  1.8672 -0.2400  0.3165
30747SOL     OW96282   3.067   0.859   6.543 -0.3480 -0.4182 -0.1986
30747SOL    HW196283   3.037   0.768   6.550  0.7433 -0.7166  0.9696
30747SOL    HW296284   3.008   0.899   6.479 -1.3755 -1.7216 -0.1050
30748SOL     OW96285   0.981   9.678   9.365  0.3699 -0.7756 -0.0256
30748SOL    HW196286   1.062   9.627   9.357 -0.2653 -2.1053  1.3625
30748SOL    HW296287   0.973   9.695   9.459 -0.3905  0.3276 -0.2731
30749SOL     OW96288   0.750   2.714   1.202 -0.1225 -0.4701  0.3386
30749SOL    HW196289   0.752   2.622   1.230 -1.0159 -0.6926 -0.2537
30749SOL    HW296290   0.807   2.759   1.263  1.9423 -1.7331 -0.5528
30750SOL     OW96291   6.635   8.468   0.059  0.3720 -0.0426 -0.2724
30750SOL    HW196292   6.593   8.384   0.039  0.8610 -0.0788 -1.1838
30750SOL    HW296293   6.614   8.484   0.152 -0.7454 -0.5755 -0.4159
30751SOL     OW96294   1.129   4.732   6.354  0.1758 -0.1310 -0.5730
30751SOL    HW196295   1.075   4.722   6.433 -0.0976  0.8566 -0.6273
30751SOL    HW296296   1.065   4.749   6.284  0.5261  0.5252 -0.7324
30752SOL     OW96297   1.746   4.824  10.160  0.0517 -0.1335 -0.1192
30752SOL    HW196298   1.650   4.829  10.167  0.0834 -0.5660  0.6927
30752SOL    HW296299   1.775   4.915  10.165 -0.3194  0.0086 -0.4558
30753SOL     OW96300   1.715   9.258   1.210  0.7740 -0.4512 -0.2502
30753SOL    HW196301   1.689   9.280   1.299  0.9232 -0.3396 -0.2329
30753SOL    HW296302   1.645   9.202   1.177 -0.3020  1.1276 -0.7708
30754SOL     OW96303   8.824   5.447   3.320  0.2997 -0.4022  0.4412
30754SOL    HW196304   8.741   5.410   3.349 -0.5541  0.5196 -0.6964
30754SOL    HW296305   8.807   5.475   3.230  2.4529 -2.0795 -0.5966
30755SOL     OW96306   6.465   8.049   1.115 -0.3694 -0.1474 -0.2606
30755SOL    HW196307   6.406   8.026   1.187  0.3077  0.9200  0.6687
30755SOL    HW296308   6.543   8.083   1.158  0.0134  0.6182 -1.5077
30756SOL     OW96309   4.622   0.478   9.550  0.1194  0.6320  0.3351
30756SOL    HW196310   4.684   0.446   9.484 -0.9255 -1.3558  0.2258
30756SOL    HW296311   4.554   0.523   9.499  0.2605  0.7247  0.2279
30757SOL     OW96312   4.375   2.268   5.098 -0.2077  0.3417 -0.6428
30757SOL    HW196313   4.282   2.255   5.115 -0.5343  1.9607 -0.9879
30757SOL    HW296314   4.417   2.189   5.131 -1.4493  0.6175  1.7969
30758SOL     OW96315   5.870   6.583   4.523 -0.2224 -0.0296 -0.4293
30758SOL    HW196316   5.933   6.630   4.469  0.0587 -0.2351 -0.2829
30758SOL    HW296317   5.887   6.491   4.504  0.2015 -0.1219  0.3634
30759SOL     OW96318   5.084   3.399   5.939 -0.1738  0.0870 -0.0268
30759SOL    HW196319   5.088   3.314   5.984 -1.4254 -0.8972 -1.6564
30759SOL    HW296320   4.990   3.413   5.924  0.0912  1.3163 -0.6039
30760SOL     OW96321   7.184   7.555   7.561  0.0228 -0.2418  0.5276
30760SOL    HW196322   7.231   7.563   7.478  1.3409 -3.0055  0.8901
30760SOL    HW296323   7.092   7.553   7.536  0.3955 -1.1700 -0.9096
30761SOL     OW96324   8.865   2.222   6.236 -0.5839  0.1538  0.1032
30761SOL    HW196325   8.942   2.252   6.189  0.2535 -2.4408 -0.3737
30761SOL    HW296326   8.854   2.285   6.307  2.5524  0.1681  0.7317
30762SOL     OW96327   5.414   5.915   9.925 -0.2622 -0.2837  0.3664
30762SOL    HW196328   5.424   6.000   9.968  0.0093 -0.7487  1.2497
30762SOL    HW296329   5.328   5.884   9.954  0.0765 -0.7620  0.8876
30763SOL     OW96330   9.881   3.134   7.576  0.1181 -0.1901  0.4518
30763SOL    HW196331   9.961   3.172   7.539 -1.2213  0.5922 -1.8312
30763SOL    HW296332   9.871   3.178   7.660  0.1021  2.5926 -0.8825
30764SOL     OW96333   0.608   2.919   8.790  0.4453 -0.1125 -0.6270
30764SOL    HW196334   0.659   2.854   8.839  0.9388 -0.0204 -1.0050
30764SOL    HW296335   0.530   2.934   8.843  0.4346 -0.8511 -0.4292
30765SOL     OW96336   0.045   3.132   7.365  0.1338  0.0608 -0.0720
30765SOL    HW196337   0.131   3.096   7.345 -0.2297 -1.5013  1.0030
30765SOL    HW296338  -0.011   3.101   7.293  0.0561 -0.6435  0.2823
30766SOL     OW96339   2.351   3.041   0.512 -0.5064 -0.1734 -0.1673
30766SOL    HW196340   2.391   3.008   0.432 -0.8143 -0.5324 -0.1747
30766SOL    HW296341   2.299   3.117   0.484  1.3311  1.2267  0.0527
30767SOL     OW96342   9.385   5.532   2.985  0.1238 -0.1908  0.0766
30767SOL    HW196343   9.461   5.544   2.928 -0.4276  0.6145 -0.5148
30767SOL    HW296344   9.379   5.438   2.997 -0.1862 -0.4710 -1.8579
30768SOL     OW96345   7.538   7.891   4.872 -0.3980  0.5443  0.0553
30768SOL    HW196346   7.444   7.908   4.879 -0.5377 -0.0168 -0.3452
30768SOL    HW296347   7.544   7.819   4.808  0.2354 -0.1171  0.8405
30769SOL     OW96348   0.724   0.011  10.150  0.1315 -0.9609  0.1716
30769SOL    HW196349   0.701  -0.020  10.062 -1.5966  1.1526 -0.2158
30769SOL    HW296350   0.644  -0.001  10.201 -0.3421  1.8108  0.2248
30770SOL     OW96351   0.850   0.502   7.483  0.0757 -0.0399 -0.4224
30770SOL    HW196352   0.940   0.530   7.495  0.5969 -1.9297  0.4012
30770SOL    HW296353   0.842   0.423   7.535 -1.4812 -1.0500 -2.0601
30771SOL     OW96354   2.995   5.521   5.199  0.0148 -0.3309  0.1557
30771SOL    HW196355   3.054   5.454   5.165  0.5242  0.3744 -0.3964
30771SOL    HW296356   2.967   5.488   5.285  1.2532 -0.6708  0.4496
30772SOL     OW96357   0.972   4.648   8.894  0.1411  0.1678  0.3854
30772SOL    HW196358   0.971   4.690   8.808 -0.4408 -1.1076 -0.2540
30772SOL    HW296359   1.058   4.605   8.898 -0.5065 -1.2721 -0.3449
30773SOL     OW96360   7.188   7.653   8.573  0.7353  0.4554  0.2954
30773SOL    HW196361   7.209   7.673   8.482  0.3548  0.6492  0.2504
30773SOL    HW296362   7.251   7.704   8.624  1.1553  0.1050  0.1394
30774SOL     OW96363   0.042  10.183   5.215 -0.4828 -0.2732 -0.1490
30774SOL    HW196364  -0.026  10.185   5.148 -0.9774  1.8299  0.3247
30774SOL    HW296365   0.020  10.256   5.273  2.4177  0.7854 -0.2293
30775SOL     OW96366   6.513   0.978   7.433  0.2834  0.0082 -0.0867
30775SOL    HW196367   6.491   0.938   7.349 -2.7410 -2.2348  1.5688
30775SOL    HW296368   6.558   0.909   7.482 -1.5026 -0.1569  1.4484
30776SOL     OW96369   7.316   7.468   1.312 -0.1611  0.0250 -0.8801
30776SOL    HW196370   7.247   7.515   1.357  1.6878  0.2370  1.9733
30776SOL    HW296371   7.345   7.527   1.243 -2.1479  0.2824 -1.5484
30777SOL     OW96372   3.966   2.053   0.189  0.3083 -0.2627  0.5878
30777SOL    HW196373   3.960   1.976   0.245  0.8024 -2.0627 -1.7071
30777SOL    HW296374   3.974   2.018   0.100 -0.6721  2.4492 -0.6807
30778SOL     OW96375   0.140   5.333   9.835  0.0256 -0.0355  0.1225
30778SOL    HW196376   0.189   5.397   9.783  1.2196 -0.6718  0.4301
30778SOL    HW296377   0.171   5.248   9.804 -1.0267 -0.4589  0.2087
30779SOL     OW96378   2.444  10.021   2.851 -0.2899  0.7841  0.3954
30779SOL    HW196379   2.355  10.036   2.818 -0.2228 -0.7126 -0.5617
30779SOL    HW296380   2.494   9.992   2.775  0.0252 -2.1402  1.5955
30780SOL     OW96381   2.773   8.426   7.763  0.3986  0.7349 -0.1383
30780SOL    HW196382   2.694   8.448   7.712  0.7506  1.2960 -0.4629
30780SOL    HW296383   2.761   8.472   7.846 -0.3035 -0.4040  0.4062
30781SOL     OW96384   7.421   5.237   4.892 -0.0884  0.0363  0.4652
30781SOL    HW196385   7.486   5.171   4.914  1.6058  0.9078 -1.4888
30781SOL    HW296386   7.383   5.263   4.975  0.6323 -1.9511  1.4725
30782SOL     OW96387   0.486   6.053   4.600  0.0343  0.2412 -0.0819
30782SOL    HW196388   0.445   5.986   4.546  1.1218 -0.9171  0.4989
30782SOL    HW296389   0.569   6.072   4.557  0.3118  0.2720  0.4610
30783SOL     OW96390   3.213   2.313   9.254 -0.5168 -0.2205 -0.4454
30783SOL    HW196391   3.196   2.340   9.164 -1.1345 -0.4943 -0.4136
30783SOL    HW296392   3.297   2.353   9.275  0.0764 -0.8816 -1.4440
30784SOL     OW96393   2.908   9.723   6.196 -0.5604 -0.0259 -0.2401
30784SOL    HW196394   2.859   9.734   6.114 -0.3494 -1.2240 -0.5519
30784SOL    HW296395   2.860   9.655   6.243 -1.1323  1.2004  1.0161
30785SOL     OW96396   8.163   3.933   7.990  0.4205 -0.0972 -0.1643
30785SOL    HW196397   8.079   3.897   7.961  1.2010 -3.1075  0.9525
30785SOL    HW296398   8.226   3.906   7.923  0.7257  1.3026 -0.4903
30786SOL     OW96399   4.933   1.596   0.178 -0.0067 -0.0578  0.4420
30786SOL    HW196400   5.003   1.657   0.155  0.7089 -1.0049  0.0347
30786SOL    HW296401   4.872   1.648   0.231 -0.8801  1.7804 -2.1568
30787SOL     OW96402   5.867   7.695   9.847  0.3895 -0.2333  0.2558
30787SOL    HW196403   5.808   7.673   9.775  0.5843 -1.7029  0.5185
30787SOL    HW296404   5.809   7.718   9.920  0.1041 -1.9839  0.6081
30788SOL     OW96405   8.924   2.078   3.395 -0.4241 -0.1935  0.3545
30788SOL    HW196406   8.861   2.044   3.331 -0.2609 -0.2771  0.2369
30788SOL    HW296407   8.877   2.147   3.440 -0.6615 -0.3730  0.3874
30789SOL     OW96408   0.705   8.305   0.435 -0.2514 -0.3955 -0.6429
30789SOL    HW196409   0.611   8.290   0.425 -0.3489  0.0396 -0.3644
30789SOL    HW296410   0.745   8.246   0.370 -0.7244 -0.3802 -0.9536
30790SOL     OW96411   4.825   2.669   4.408 -0.1116  0.4985 -0.5471
30790SOL    HW196412   4.824   2.591   4.465 -0.9310  0.6845 -0.3001
30790SOL    HW296413   4.913   2.704   4.419 -0.1668  0.3793  0.4188
30791SOL     OW96414   9.778   6.036   7.625  0.1182 -0.5089 -1.0124
30791SOL    HW196415   9.818   6.015   7.709  0.8622 -1.6658 -1.6313
30791SOL    HW296416   9.727   5.959   7.603 -0.8833  0.1779 -1.1735
30792SOL     OW96417   2.522   0.760   3.225  0.2895  0.2831  0.3997
30792SOL    HW196418   2.474   0.693   3.275 -1.1165  0.0855 -1.1018
30792SOL    HW296419   2.455   0.799   3.168  2.1201 -1.1902 -3.1061
30793SOL     OW96420   6.739   3.542   1.135 -0.7408 -0.1020 -0.0018
30793SOL    HW196421   6.795   3.598   1.189 -2.0551  0.5800  0.7046
30793SOL    HW296422   6.796   3.468   1.111  0.8150  1.1482 -0.3501
30794SOL     OW96423   1.836   3.378   3.007 -0.9079 -0.2040 -0.3365
30794SOL    HW196424   1.842   3.382   2.912  3.1990  2.8762 -0.2263
30794SOL    HW296425   1.902   3.314   3.033 -0.4133  0.6008  0.4481
30795SOL     OW96426   7.820   7.340   8.501 -0.3827  0.0149  0.1931
30795SOL    HW196427   7.856   7.361   8.587 -0.4460  0.7073  0.0525
30795SOL    HW296428   7.738   7.389   8.497 -0.5050 -0.2145 -0.1634
30796SOL     OW96429   9.144   1.316   8.625  0.7840 -0.4724 -0.1814
30796SOL    HW196430   9.131   1.221   8.622  1.1774 -0.4891 -2.3450
30796SOL    HW296431   9.116   1.341   8.714 -0.6239 -2.4093 -0.0191
30797SOL     OW96432   7.351   6.392   0.660  0.1701 -0.7419  0.2923
30797SOL    HW196433   7.418   6.399   0.729  0.3803  1.7271 -0.0982
30797SOL    HW296434   7.273   6.363   0.707  0.7836 -0.9454  1.2323
30798SOL     OW96435   1.644   2.739   9.989  0.2732  0.5499  0.0026
30798SOL    HW196436   1.646   2.662   9.932  0.2792  1.2662 -0.9931
30798SOL    HW296437   1.593   2.711  10.065  1.0818 -0.7219  0.0997
30799SOL     OW96438   0.343   6.838   8.340  0.4356  0.3316  0.0145
30799SOL    HW196439   0.281   6.777   8.299  0.0787 -0.0044  1.0341
30799SOL    HW296440   0.300   6.866   8.420  2.6196 -1.8608  2.1071
30800SOL     OW96441   6.780   0.265   8.896  0.2205 -0.4558 -0.3356
30800SOL    HW196442   6.817   0.248   8.982 -1.0934 -0.8556  0.1719
30800SOL    HW296443   6.726   0.343   8.908  0.8205  0.0842 -1.0459
30801SOL     OW96444   4.966   2.562   2.781  0.6908  0.2151 -0.4448
30801SOL    HW196445   4.929   2.535   2.697  0.5133 -0.3257 -0.1979
30801SOL    HW296446   5.051   2.518   2.785  0.3364 -0.4413  0.0261
30802SOL     OW96447   0.597   9.286   9.390 -0.0051  0.2388  0.0455
30802SOL    HW196448   0.513   9.256   9.353 -0.4186  0.1614  1.0160
30802SOL    HW296449   0.576   9.369   9.431  0.5925  0.6354 -0.4415
30803SOL     OW96450   8.847   6.881   3.030  0.1517  0.5440  0.6475
30803SOL    HW196451   8.763   6.838   3.013  0.2634  0.4409  0.3491
30803SOL    HW296452   8.903   6.810   3.063  0.1769  0.5764  0.6747
30804SOL     OW96453   7.691   8.787   1.891 -0.1777 -0.4711  0.4607
30804SOL    HW196454   7.599   8.776   1.865  0.1475 -0.0004 -0.9771
30804SOL    HW296455   7.712   8.706   1.938 -0.3857 -2.1483 -2.1353
30805SOL     OW96456  10.093   5.115   6.822  0.2023  0.0333 -0.5449
30805SOL    HW196457  10.173   5.090   6.870  0.2405  0.3238 -0.4596
30805SOL    HW296458  10.032   5.142   6.891  0.0005 -0.2614 -0.6032
30806SOL     OW96459   5.462   0.416   3.730  0.0109 -0.4185  0.0635
30806SOL    HW196460   5.387   0.467   3.762  0.5689  0.0384  0.6655
30806SOL    HW296461   5.451   0.330   3.771 -2.2712 -1.6954 -2.8213
30807SOL     OW96462   3.513   8.779   6.320  0.0184  0.3819 -0.4059
30807SOL    HW196463   3.567   8.751   6.394 -1.1971 -0.4942  0.1932
30807SOL    HW296464   3.451   8.707   6.308  0.2043  0.4954 -2.3133
30808SOL     OW96465   6.074   0.518   8.907 -0.3784  0.1030 -0.3153
30808SOL    HW196466   5.986   0.549   8.887 -2.2005 -2.9303  2.1745
30808SOL    HW296467   6.090   0.548   8.996  0.9467  0.1949 -0.5608
30809SOL     OW96468   6.444   9.289   1.966 -0.3696 -0.0347  0.9269
30809SOL    HW196469   6.478   9.379   1.965 -1.2608  0.3170 -0.5116
30809SOL    HW296470   6.378   9.289   2.035 -0.4140  0.4282  0.8857
30810SOL     OW96471   0.036   0.960   1.917  0.1174  0.2305 -0.7391
30810SOL    HW196472   0.082   0.934   1.837 -0.4106 -0.2174 -0.8984
30810SOL    HW296473   0.085   0.918   1.988  0.9998  1.1820 -0.7549
30811SOL     OW96474   7.657   5.314  10.140 -0.2477  0.6135 -0.1723
30811SOL    HW196475   7.658   5.357  10.055  0.8703  0.4183 -0.2735
30811SOL    HW296476   7.723   5.244  10.133 -0.4133  0.3495  0.7262
30812SOL     OW96477   5.697   7.536   9.691  0.3900 -0.5672  0.0273
30812SOL    HW196478   5.696   7.485   9.772  0.6783 -0.0204  0.3803
30812SOL    HW296479   5.605   7.562   9.678  0.6862  1.4436  1.5396
30813SOL     OW96480   4.275   0.412   3.486  0.1419 -0.1610  0.1004
30813SOL    HW196481   4.297   0.430   3.395  2.1804  0.4531  0.6573
30813SOL    HW296482   4.222   0.332   3.483  0.2474 -0.1986 -1.5926
30814SOL     OW96483  10.273   1.940   1.748 -0.6872 -0.4544 -0.3267
30814SOL    HW196484  10.288   1.975   1.661  0.8521 -0.7003 -0.1876
30814SOL    HW296485  10.210   1.869   1.735  0.0449 -0.9362 -1.3322
30815SOL     OW96486   8.615   2.729   8.146 -0.3393 -1.6357  0.0941
30815SOL    HW196487   8.591   2.645   8.185  1.3786 -2.0913  0.2639
30815SOL    HW296488   8.698   2.753   8.189  0.4201 -1.0193 -1.6041
30816SOL     OW96489   9.334   1.339   7.066  0.1189  0.2030 -0.0756
30816SOL    HW196490   9.416   1.289   7.063  0.2527  0.4528 -1.4495
30816SOL    HW296491   9.362   1.430   7.072 -0.0578  0.2763 -0.3479
30817SOL     OW96492   8.539   0.638   3.870  0.1859 -0.1835 -0.1947
30817SOL    HW196493   8.595   0.596   3.804  0.3709 -0.8364  0.3676
30817SOL    HW296494   8.596   0.649   3.946 -0.2321 -0.1286  0.1128
30818SOL     OW96495   8.249   1.524   4.033  0.1018  0.1635 -0.2237
30818SOL    HW196496   8.178   1.523   4.096  0.4477  0.1641  0.1723
30818SOL    HW296497   8.211   1.490   3.952  0.1273 -1.6788  0.4963
30819SOL     OW96498   3.723   2.958   0.803 -0.0031 -0.2729 -0.2940
30819SOL    HW196499   3.696   3.033   0.856  3.1791  1.4141 -0.8081
30819SOL    HW296500   3.716   2.883   0.862 -1.6375  0.6774  0.7847
30820SOL     OW96501   5.156   8.811   2.727 -0.1710  0.3278  0.4283
30820SOL    HW196502   5.244   8.799   2.692 -0.8587  0.3820 -1.3954
30820SOL    HW296503   5.152   8.903   2.752 -0.2053  0.7378 -1.0035
30821SOL     OW96504   1.956   8.731   5.692  0.1286 -0.5829 -0.1042
30821SOL    HW196505   1.888   8.794   5.669 -1.2427 -2.1058 -0.4585
30821SOL    HW296506   2.016   8.732   5.617 -0.9915 -1.1267 -1.0499
30822SOL     OW96507   0.321   0.035   9.994  0.0610 -0.0685  0.2811
30822SOL    HW196508   0.285   0.017   9.907  0.4258  1.8550 -0.3125
30822SOL    HW296509   0.350  -0.050  10.025 -2.2644 -1.2398 -0.4413
30823SOL     OW96510   5.144   1.623   8.665  0.0645 -0.2811  0.3551
30823SOL    HW196511   5.053   1.600   8.646 -0.4413  2.2908 -0.7888
30823SOL    HW296512   5.144   1.719   8.666  2.7790 -0.2210  0.3213
30824SOL     OW96513   2.935   3.577   8.418  0.5231 -0.4963 -0.3310
30824SOL    HW196514   2.858   3.561   8.363 -0.9724  0.2873  1.4133
30824SOL    HW296515   2.940   3.500   8.475 -0.0629  0.2062  0.7158
30825SOL     OW96516   0.445   2.349   9.040 -0.4252 -0.2663 -0.5492
30825SOL    HW196517   0.431   2.428   8.989 -0.9705  0.1032  0.1485
30825SOL    HW296518   0.536   2.353   9.068  0.0483 -0.7650 -1.9526
30826SOL     OW96519   0.872   9.844   4.924  0.1235  0.2103  0.0447
30826SOL    HW196520   0.893   9.805   5.009 -0.3152  1.1845  0.6187
30826SOL    HW296521   0.883   9.772   4.862  2.4782 -0.0070  0.6311
30827SOL     OW96522   4.593   2.215   2.241 -0.1565  0.3674 -0.0522
30827SOL    HW196523   4.525   2.202   2.175  0.7000 -0.8270 -0.7361
30827SOL    HW296524   4.619   2.306   2.230 -2.9261  1.4911  1.5227
30828SOL     OW96525   4.238   9.987   2.735  0.2189  0.5095  0.2133
30828SOL    HW196526   4.245   9.892   2.746  0.3118  0.6410  1.4308
30828SOL    HW296527   4.317  10.011   2.687 -0.9488 -0.3083 -2.2758
30829SOL     OW96528   3.995   8.894   5.515 -0.0883 -0.0815 -0.3951
30829SOL    HW196529   4.006   8.800   5.502 -0.1264 -0.4584  1.8518
30829SOL    HW296530   3.906   8.912   5.486  0.9482 -0.0059 -4.0248
30830SOL     OW96531   5.213   4.916   9.926  0.1841 -0.2461 -0.6868
30830SOL    HW196532   5.231   5.005   9.893  3.0397 -0.5060 -0.0821
30830SOL    HW296533   5.222   4.923  10.021  0.4457 -1.1698 -0.6320
30831SOL     OW96534   0.560   4.344   4.132  0.0879  0.2757  0.1820
30831SOL    HW196535   0.575   4.292   4.211  2.3725  0.2914 -0.1709
30831SOL    HW296536   0.466   4.338   4.117 -0.0844 -1.5953  1.6202
30832SOL     OW96537   9.056   2.837   3.794 -0.2697 -0.2178  0.1341
30832SOL    HW196538   8.995   2.832   3.720  0.0854 -0.1487 -0.1673
30832SOL    HW296539   9.075   2.745   3.816  2.0285 -0.3100 -1.8789
30833SOL     OW96540   6.859   5.537   6.858 -0.2945  0.2441  0.0793
30833SOL    HW196541   6.843   5.629   6.839 -2.5631  0.3541  2.0004
30833SOL    HW296542   6.883   5.536   6.951 -1.3528 -1.1561  0.3755
30834SOL     OW96543   3.754   0.664   9.883 -0.0183  0.0355  0.0661
30834SOL    HW196544   3.837   0.643   9.927  0.2675  0.0695 -0.4548
30834SOL    HW296545   3.770   0.747   9.840 -0.2856 -0.0222 -0.1452
30835SOL     OW96546   9.968   8.828   4.607  0.6188 -0.4465  0.5225
30835SOL    HW196547   9.962   8.757   4.672  3.4047 -1.3115 -0.0403
30835SOL    HW296548  10.034   8.798   4.545  0.4844  1.8593 -0.8395
30836SOL     OW96549   8.630   6.476   2.712  0.0556  0.0091 -0.6356
30836SOL    HW196550   8.675   6.554   2.680  0.7037 -0.9551 -2.1870
30836SOL    HW296551   8.681   6.448   2.788  0.8813  0.0884 -1.1489
30837SOL     OW96552   8.618   2.070   2.693 -0.2797 -0.0747 -0.2547
30837SOL    HW196553   8.693   2.110   2.737  0.3827  0.8684 -2.1221
30837SOL    HW296554   8.589   2.137   2.630 -1.5113 -1.1471 -0.8732
30838SOL     OW96555   0.493   5.064  10.256 -0.0773 -0.3835 -0.3406
30838SOL    HW196556   0.507   4.978  10.218  1.2477  0.1222 -1.0449
30838SOL    HW296557   0.416   5.098  10.210  0.9848 -0.1327 -1.9839
30839SOL     OW96558   6.179   1.331   5.336 -0.8429  0.8450  0.5908
30839SOL    HW196559   6.108   1.314   5.398 -0.3839 -0.1866  0.8581
30839SOL    HW296560   6.255   1.351   5.391 -0.4475 -0.0170  0.3684
30840SOL     OW96561   4.084   6.438   5.397 -0.1180  0.2103 -0.2174
30840SOL    HW196562   4.033   6.497   5.341  0.1104 -0.6626 -1.3732
30840SOL    HW296563   4.019   6.378   5.433 -0.2473  0.6964  0.3865
30841SOL     OW96564   1.048   3.211   7.213 -0.2463 -0.2613 -0.5005
30841SOL    HW196565   0.975   3.266   7.185  0.4941  0.4058 -1.1634
30841SOL    HW296566   1.006   3.133   7.249 -1.2825 -0.1291 -1.3534
30842SOL     OW96567   7.480   0.271   3.041  0.1145 -0.2830  0.0324
30842SOL    HW196568   7.394   0.311   3.058 -0.0066 -0.5550  0.0705
30842SOL    HW296569   7.530   0.285   3.121 -0.4220 -1.4782  0.6086
30843SOL     OW96570   8.978   7.435   9.346 -0.0240  0.0735  0.0935
30843SOL    HW196571   9.003   7.380   9.273 -0.2541 -1.0970  0.8714
30843SOL    HW296572   9.060   7.475   9.375  0.0534  0.6295 -0.8487
30844SOL     OW96573   0.599   8.705   2.083  0.7621 -0.2653 -0.0730
30844SOL    HW196574   0.530   8.639   2.093  1.1293 -0.5169  0.9732
30844SOL    HW296575   0.582   8.746   1.998  0.2138 -1.3430 -0.4932
30845SOL     OW96576   9.966   9.278   3.186  0.5194  0.5565 -0.3621
30845SOL    HW196577   9.983   9.184   3.181 -0.3363  0.2427  1.6237
30845SOL    HW296578   9.890   9.292   3.129 -0.2261 -0.2318  0.4103
30846SOL     OW96579   6.415   0.591   1.585  0.4325 -0.0934  0.1332
30846SOL    HW196580   6.365   0.666   1.616  0.0211 -0.1031 -0.4742
30846SOL    HW296581   6.478   0.627   1.522 -0.9941 -0.4230 -1.5826
30847SOL     OW96582   8.173   9.508   5.227  0.3429 -0.7948  0.1467
30847SOL    HW196583   8.201   9.436   5.284 -0.1312 -0.3178  1.0040
30847SOL    HW296584   8.124   9.566   5.285 -1.0685 -0.8192 -0.9863
30848SOL     OW96585   3.393   7.791   2.169 -0.4081 -0.3705  0.2028
30848SOL    HW196586   3.456   7.820   2.234 -0.5546  0.3964  0.0049
30848SOL    HW296587   3.350   7.871   2.138 -1.5081 -0.8837  0.3585
30849SOL     OW96588   8.674   8.959   8.831 -0.3511  0.2808 -0.5317
30849SOL    HW196589   8.670   8.957   8.735  0.3327  1.4859 -0.6041
30849SOL    HW296590   8.767   8.972   8.851 -0.1492 -2.0283  0.3767
30850SOL     OW96591   6.634   9.619   4.938 -0.1461  0.2294 -0.1053
30850SOL    HW196592   6.702   9.577   4.885 -1.7670 -1.6653 -0.8391
30850SOL    HW296593   6.570   9.650   4.874 -0.9739  0.0982  0.6373
30851SOL     OW96594   4.125   2.156   6.799  0.1753  0.1154 -0.6091
30851SOL    HW196595   4.030   2.158   6.791  0.2360  0.2720 -1.3120
30851SOL    HW296596   4.151   2.078   6.751  0.3599 -0.2789  0.1100
30852SOL     OW96597   1.785   8.348   9.657  0.1334  0.7642 -0.1005
30852SOL    HW196598   1.783   8.254   9.639  1.5301  0.6860  0.0471
30852SOL    HW296599   1.721   8.361   9.727 -0.1795 -0.0502 -0.2296
30853SOL     OW96600   0.056   7.578   0.996  0.1816  0.2113 -0.1715
30853SOL    HW196601   0.039   7.539   0.910 -0.5346  2.3107 -1.0497
30853SOL    HW296602   0.148   7.561   1.013  0.1688 -0.8130 -1.0123
30854SOL     OW96603   1.311   7.208   4.337  0.4205  0.7596 -0.0680
30854SOL    HW196604   1.395   7.235   4.300 -0.1502  0.1427 -1.9511
30854SOL    HW296605   1.290   7.126   4.292  0.9699 -1.6907  3.7167
30855SOL     OW96606  10.136   5.826   7.399  0.0001 -0.5961 -0.2079
30855SOL    HW196607  10.199   5.783   7.457  1.1690  0.1928 -0.8472
30855SOL    HW296608  10.054   5.777   7.411  0.9983 -2.3281 -0.1461
30856SOL     OW96609   2.726   8.201   2.831 -0.4635  0.1103 -0.2068
30856SOL    HW196610   2.688   8.163   2.910 -0.3885 -0.5199 -0.4742
30856SOL    HW296611   2.706   8.295   2.838 -0.7515  0.0091  0.3890
30857SOL     OW96612   0.658   2.104   3.309  0.4594 -0.2312  0.0051
30857SOL    HW196613   0.688   2.085   3.220  0.7525 -0.1943  0.0954
30857SOL    HW296614   0.564   2.118   3.300  0.6199  0.6036 -0.4280
30858SOL     OW96615   5.721   7.040   1.304 -0.3361 -0.4974 -0.6664
30858SOL    HW196616   5.799   7.033   1.358 -1.9716 -0.5445  1.8448
30858SOL    HW296617   5.694   6.949   1.288 -2.3330 -0.6167  2.4605
30859SOL     OW96618   3.266   9.842   9.846  0.1440 -0.4710  0.1827
30859SOL    HW196619   3.347   9.880   9.810 -0.0388 -0.8349 -0.6275
30859SOL    HW296620   3.196   9.887   9.799 -0.1003 -0.7713  0.2582
30860SOL     OW96621   3.379   4.322   0.727 -0.0622  0.7623 -0.0080
30860SOL    HW196622   3.462   4.293   0.764  0.1382  1.6605  0.2571
30860SOL    HW296623   3.381   4.293   0.636 -0.4279 -1.2160  0.5684
30861SOL     OW96624   7.541   0.738   3.780  0.3805 -0.4560 -0.3917
30861SOL    HW196625   7.461   0.760   3.827  1.1987  1.2885  0.2455
30861SOL    HW296626   7.548   0.643   3.789 -1.4342 -0.6129 -0.2008
30862SOL     OW96627   0.148   5.613   8.510  0.3512 -0.6073  0.8878
30862SOL    HW196628   0.192   5.657   8.437  0.8033 -3.7673 -0.9546
30862SOL    HW296629   0.064   5.658   8.519  1.5854  1.8920  0.6167
30863SOL     OW96630   0.520   4.487   0.855 -0.4660 -0.7274  0.4929
30863SOL    HW196631   0.519   4.517   0.764 -0.3137 -2.1529  0.0092
30863SOL    HW296632   0.608   4.509   0.886 -0.6736  0.1946  0.4597
30864SOL     OW96633   3.319   0.888   4.883 -0.2671 -0.4661 -0.8273
30864SOL    HW196634   3.296   0.931   4.966 -0.0560 -1.9438  0.0539
30864SOL    HW296635   3.400   0.931   4.855 -1.7068  1.8553 -1.7068
30865SOL     OW96636   8.958   0.676   3.810  0.2861  0.0343  0.3710
30865SOL    HW196637   9.043   0.679   3.765  0.0596  0.1333 -0.0586
30865SOL    HW296638   8.899   0.726   3.753  0.0411  0.3494  0.8923
30866SOL     OW96639   0.507   4.581   0.577  0.5080  0.4522 -0.1427
30866SOL    HW196640   0.588   4.586   0.525  0.8824 -2.0498  0.0438
30866SOL    HW296641   0.447   4.532   0.521 -0.6580  1.6303  0.0349
30867SOL     OW96642   8.264   9.208   4.142 -0.6902  0.4541 -0.1009
30867SOL    HW196643   8.294   9.145   4.207  0.7885  0.8501 -0.3617
30867SOL    HW296644   8.180   9.173   4.111 -1.6073  0.4370  2.2195
30868SOL     OW96645   0.697   4.089   2.168  0.3026  0.4315 -0.0173
30868SOL    HW196646   0.605   4.115   2.169  0.9538  2.9144  0.4370
30868SOL    HW296647   0.700   4.019   2.102 -1.7656  0.7559 -0.5477
30869SOL     OW96648   8.715   3.665   9.708 -0.5399  0.0070  0.2273
30869SOL    HW196649   8.677   3.697   9.790  2.6196  2.3025  1.0150
30869SOL    HW296650   8.716   3.742   9.651  1.6388 -0.2600 -0.1702
30870SOL     OW96651   3.273   5.337   0.639  0.0503  0.7118  0.7918
30870SOL    HW196652   3.286   5.430   0.660 -0.8521  0.6501  1.7736
30870SOL    HW296653   3.345   5.292   0.683  0.8644  0.9931 -0.2331
30871SOL     OW96654   9.376   7.325   0.068  0.5388  0.5901  0.1174
30871SOL    HW196655   9.427   7.252   0.032 -0.9615 -0.0568 -0.8293
30871SOL    HW296656   9.299   7.282   0.106 -0.6384  1.6790 -0.9303
30872SOL     OW96657   6.716   5.358   9.158 -0.3823  0.4103 -0.5663
30872SOL    HW196658   6.638   5.325   9.112 -0.0624 -0.5879 -0.4207
30872SOL    HW296659   6.787   5.349   9.094  0.3083 -2.1099  0.4131
30873SOL     OW96660   7.320   8.822   3.830 -0.7264 -0.0394  0.2611
30873SOL    HW196661   7.310   8.878   3.907 -1.3181  0.5093 -0.2031
30873SOL    HW296662   7.231   8.795   3.807 -0.6265  0.2794 -0.5607
30874SOL     OW96663   6.793   7.268   1.189 -1.3604  0.5343  0.1162
30874SOL    HW196664   6.848   7.202   1.232  0.9920  1.1051 -1.7575
30874SOL    HW296665   6.797   7.344   1.247  0.2977  0.7118 -0.1705
30875SOL     OW96666   8.836   9.369   0.940 -0.2833 -0.2053  0.1216
30875SOL    HW196667   8.770   9.437   0.927  1.2153  1.0811 -1.2468
30875SOL    HW296668   8.902   9.410   0.996  0.3583 -0.7218 -0.2451
30876SOL     OW96669   1.033   6.674   5.418 -0.7090 -0.1616  0.0706
30876SOL    HW196670   1.095   6.692   5.489 -0.1102 -1.5003 -0.0906
30876SOL    HW296671   0.949   6.705   5.452 -0.6175 -1.5908  1.7703
30877SOL     OW96672   3.506   4.880   9.933 -0.1288 -0.0496 -0.3764
30877SOL    HW196673   3.536   4.878   9.842 -2.5587  1.6051 -1.3366
30877SOL    HW296674   3.452   4.801   9.942  0.9184 -0.7377 -0.0277
30878SOL     OW96675   1.308   6.950   5.610  0.1305 -0.0109 -0.3601
30878SOL    HW196676   1.255   7.030   5.608  0.1599 -0.0011 -1.0197
30878SOL    HW296677   1.370   6.964   5.681 -1.5572 -0.5471  1.3015
30879SOL     OW96678   2.370   4.930   8.969 -0.0603 -0.1208 -0.1827
30879SOL    HW196679   2.329   4.912   8.884  0.2656  0.9628 -0.5824
30879SOL    HW296680   2.402   5.020   8.962  2.1586 -0.8076  0.2036
30880SOL     OW96681   9.710   3.228   9.484  1.1499  0.1567  0.0417
30880SOL    HW196682   9.670   3.141   9.481 -0.5224  0.7678  1.9980
30880SOL    HW296683   9.701   3.262   9.395  0.6077 -1.1451 -0.4260
30881SOL     OW96684   8.021   6.542   3.247 -0.4666  0.2592  0.5455
30881SOL    HW196685   7.952   6.486   3.212 -1.1157  0.7819  0.9557
30881SOL    HW296686   8.041   6.505   3.333  2.2144 -1.9584 -0.8784
30882SOL     OW96687   7.911   4.851   8.970 -0.0379  0.0348 -0.5257
30882SOL    HW196688   7.929   4.777   8.913 -0.5960 -1.3840  1.0435
30882SOL    HW296689   7.997   4.877   9.004  0.1189 -0.1056 -0.8099
30883SOL     OW96690   8.554   3.157   1.994  0.1842  0.1551 -0.2570
30883SOL    HW196691   8.593   3.073   1.969  1.6976  0.9821 -0.8419
30883SOL    HW296692   8.465   3.154   1.959  0.5769 -0.7729 -1.2299
30884SOL     OW96693   4.956   5.971   1.033  0.0581 -0.7289 -0.2550
30884SOL    HW196694   4.871   5.925   1.028 -0.3509  0.0637 -0.7516
30884SOL    HW296695   4.967   5.990   1.126 -1.0393  0.4681 -0.3345
30885SOL     OW96696   1.721   5.448   0.145  0.0534 -0.3830  0.4937
30885SOL    HW196697   1.675   5.510   0.089  0.4239 -0.3006  0.2772
30885SOL    HW296698   1.707   5.481   0.234 -0.3825 -0.4125  0.4372
30886SOL     OW96699   1.388   9.835   2.600  0.0032 -0.0501 -0.7341
30886SOL    HW196700   1.326   9.878   2.541  0.3469 -0.5476 -1.4632
30886SOL    HW296701   1.335   9.770   2.646 -0.3254  0.5277 -0.2727
30887SOL     OW96702   8.679   2.320   3.243 -0.5589  0.1947  0.2489
30887SOL    HW196703   8.747   2.367   3.195 -0.4713 -1.7675 -1.7059
30887SOL    HW296704   8.598   2.363   3.217 -0.3002  0.7424  0.3317
30888SOL     OW96705   1.173   0.532   1.378 -0.1965  0.5659 -0.2468
30888SOL    HW196706   1.091   0.499   1.412 -1.2785  1.9979 -1.3018
30888SOL    HW296707   1.221   0.454   1.350 -1.2023 -0.2933  0.3462
30889SOL     OW96708   0.979   9.629   6.030 -0.1845 -0.1497  0.3285
30889SOL    HW196709   0.949   9.638   5.939  1.4896 -0.0497 -0.2442
30889SOL    HW296710   0.926   9.693   6.078 -1.1336 -0.2372 -0.5615
30890SOL     OW96711   8.582   7.300   1.452 -0.0449  0.1913  0.5956
30890SOL    HW196712   8.534   7.372   1.492 -2.5318 -0.6920 -0.6377
30890SOL    HW296713   8.592   7.325   1.360  2.5108  0.6280  0.9163
30891SOL     OW96714   5.664   1.603   5.910  0.2471 -1.1425 -0.7103
30891SOL    HW196715   5.717   1.544   5.857 -0.3457 -0.7139 -1.8143
30891SOL    HW296716   5.601   1.546   5.955 -0.7110 -1.3434 -2.2194
30892SOL     OW96717   5.189   2.813   2.960  0.1767  0.0672 -0.0171
30892SOL    HW196718   5.136   2.820   2.880 -0.2700  1.0068  0.3520
30892SOL    HW296719   5.197   2.903   2.992  1.6195 -0.1149  0.1934
30893SOL     OW96720   1.332   3.843   9.973 -0.0684  0.3657 -0.1602
30893SOL    HW196721   1.292   3.929   9.987 -0.6129  0.1085 -0.1176
30893SOL    HW296722   1.263   3.780   9.995  0.3983 -0.0893  0.0409
30894SOL     OW96723   8.645   3.307   3.903 -0.2050  0.5120 -0.2218
30894SOL    HW196724   8.684   3.393   3.915  0.8265 -0.0993  0.9126
30894SOL    HW296725   8.611   3.308   3.813  0.7595  1.7116 -0.5847
30895SOL     OW96726   2.360   4.169   6.777 -0.0645 -0.8994  0.9450
30895SOL    HW196727   2.292   4.154   6.843 -1.3092 -1.0287 -0.3333
30895SOL    HW296728   2.349   4.261   6.752 -2.2319 -1.7703 -1.8352
30896SOL     OW96729   2.157   1.615   8.564  0.3989 -0.0232  0.3067
30896SOL    HW196730   2.098   1.606   8.639  0.6443  0.4309  0.5561
30896SOL    HW296731   2.103   1.593   8.488 -0.7815  2.6161  0.2762
30897SOL     OW96732   8.047   2.861   7.187  0.0192 -0.0615  0.1221
30897SOL    HW196733   8.044   2.873   7.092  1.0287 -1.2608 -0.0950
30897SOL    HW296734   8.106   2.929   7.218  2.2628 -1.5792 -0.5518
30898SOL     OW96735   2.932   5.824   8.482 -0.6601  0.2297  0.1515
30898SOL    HW196736   2.979   5.906   8.469 -0.9678  0.2398 -0.9501
30898SOL    HW296737   2.945   5.776   8.401 -1.6371 -0.2288  0.2601
30899SOL     OW96738   6.751   8.628   0.676  0.4521  0.0288 -0.5121
30899SOL    HW196739   6.725   8.718   0.658 -0.7036 -0.2659 -0.3864
30899SOL    HW296740   6.673   8.588   0.715  1.1368 -0.8664 -0.0342
30900SOL     OW96741   5.466   5.588   3.528  0.1969 -0.0406  0.0710
30900SOL    HW196742   5.384   5.563   3.572 -0.2092 -1.1996 -1.2550
30900SOL    HW296743   5.530   5.595   3.598 -0.7276 -0.5016  0.9878
30901SOL     OW96744   3.092  10.159   9.028 -0.2555  0.3655 -0.3397
30901SOL    HW196745   3.070  10.096   8.959 -1.5032 -0.4504  0.7679
30901SOL    HW296746   3.172  10.201   8.997 -0.1744 -0.7707 -1.7622
30902SOL     OW96747   5.557   0.545   0.856  0.2451  0.4760  0.5812
30902SOL    HW196748   5.614   0.533   0.932 -2.4055  2.0909  3.0381
30902SOL    HW296749   5.571   0.635   0.829 -0.0375  0.4160  0.2271
30903SOL     OW96750   1.910   3.617   4.114 -0.0333  0.2726 -0.0098
30903SOL    HW196751   1.996   3.622   4.074 -0.1096 -0.1969 -0.2285
30903SOL    HW296752   1.853   3.581   4.046 -0.2614 -0.0797  0.3637
30904SOL     OW96753   6.733  10.113   9.207 -0.0857 -0.4380 -0.2426
30904SOL    HW196754   6.769  10.106   9.118 -0.4169 -0.2862 -0.3892
30904SOL    HW296755   6.768  10.036   9.252  0.7506 -0.0869 -0.2629
30905SOL     OW96756   0.736   4.063   5.326  0.1208  0.6300 -0.0774
30905SOL    HW196757   0.696   4.147   5.347 -0.2241  0.2781  0.7335
30905SOL    HW296758   0.747   4.064   5.231  1.9205  2.3799  0.0829
30906SOL     OW96759   9.198   1.082   5.302  0.1629  0.2807 -0.1704
30906SOL    HW196760   9.221   1.161   5.351  0.3850 -0.7142  1.4114
30906SOL    HW296761   9.161   1.023   5.368 -0.8214 -0.6205 -1.4706
30907SOL     OW96762   2.465   5.838   8.789  0.1025 -0.0739  0.7358
30907SOL    HW196763   2.393   5.793   8.834  0.0729 -1.5699 -0.6863
30907SOL    HW296764   2.479   5.786   8.709  1.0827  1.6481 -0.2651
30908SOL     OW96765   8.469  10.159   7.938 -0.3030 -0.0282  0.2067
30908SOL    HW196766   8.375  10.144   7.927 -0.2101 -0.7478  0.2961
30908SOL    HW296767   8.510  10.076   7.911  0.2541  0.0190  0.8730
30909SOL     OW96768   0.250   7.470   6.058 -0.2849  0.2951  0.1243
30909SOL    HW196769   0.209   7.534   6.116  0.4380  1.1629 -0.2843
30909SOL    HW296770   0.249   7.512   5.972  1.5419  0.4345  0.1178
30910SOL     OW96771   7.407   2.646   2.072  0.0283  0.6661  0.4341
30910SOL    HW196772   7.436   2.621   1.984  0.7330  0.7103  0.6421
30910SOL    HW296773   7.318   2.679   2.060 -1.6444 -3.3682  0.3466
30911SOL     OW96774   9.994   6.222   2.026  0.0429 -0.5915  0.1010
30911SOL    HW196775  10.043   6.276   2.088  0.7746 -1.3588  0.2038
30911SOL    HW296776   9.949   6.285   1.970  0.2372  0.1183  0.7263
30912SOL     OW96777   7.566   4.236   6.265 -0.5356 -0.4389  0.4286
30912SOL    HW196778   7.583   4.299   6.335 -2.6689 -0.6054  1.1784
30912SOL    HW296779   7.584   4.283   6.184  2.1008 -0.2765  1.0309
30913SOL     OW96780   9.806   9.601   8.066 -0.3736 -0.3359  0.1156
30913SOL    HW196781   9.834   9.544   7.994 -0.9391 -0.3039 -0.1294
30913SOL    HW296782   9.882   9.658   8.082 -0.5056  0.1597 -0.9498
30914SOL     OW96783   1.960   6.231   5.231 -0.2598  0.0603  0.0623
30914SOL    HW196784   1.888   6.169   5.242 -1.9272  1.7373 -0.8852
30914SOL    HW296785   2.019   6.189   5.167 -0.3029 -1.3654  0.9165
30915SOL     OW96786   3.533   0.071   1.990  0.1780 -0.2126  0.0029
30915SOL    HW196787   3.522   0.096   2.081 -0.0932  0.8720 -0.3179
30915SOL    HW296788   3.548   0.153   1.943 -0.3397 -0.6738 -1.0171
30916SOL     OW96789   1.142   3.348   6.627  0.3158 -0.0485 -0.0767
30916SOL    HW196790   1.150   3.444   6.628  0.3912 -0.0368 -1.0810
30916SOL    HW296791   1.206   3.320   6.562  2.4569 -1.0138  2.2874
30917SOL     OW96792   8.530   8.102   6.419 -0.5299 -0.0089 -0.2451
30917SOL    HW196793   8.605   8.045   6.433 -1.8637 -1.9023 -0.3368
30917SOL    HW296794   8.536   8.168   6.487  1.1190 -0.2103 -0.1640
30918SOL     OW96795   4.117   2.224   3.172  0.1278  0.0920  0.1175
30918SOL    HW196796   4.151   2.163   3.238  1.9761 -1.9832 -2.5197
30918SOL    HW296797   4.193   2.246   3.119 -1.0064  2.8146 -0.5469
30919SOL     OW96798   7.440   0.957   5.660  0.1156  0.0109  0.4783
30919SOL    HW196799   7.434   0.989   5.570 -0.4305 -1.5170 -0.0610
30919SOL    HW296800   7.517   1.001   5.696  1.2463 -0.4451 -1.2227
30920SOL     OW96801   9.473   5.895   5.431  0.2357  0.4162 -0.0061
30920SOL    HW196802   9.483   5.990   5.425 -0.9415  0.4931 -1.7677
30920SOL    HW296803   9.381   5.883   5.452  0.6115 -0.3451  1.2592
30921SOL     OW96804   8.519   8.243   3.746 -0.5261  0.1169 -0.2595
30921SOL    HW196805   8.567   8.309   3.796  1.2572 -2.4003  1.5620
30921SOL    HW296806   8.566   8.237   3.663  0.4389 -0.1320  0.2942
30922SOL     OW96807   4.845   7.482   3.465  0.0945  0.5446  0.4801
30922SOL    HW196808   4.768   7.425   3.460  0.0945  0.4521  1.3687
30922SOL    HW296809   4.828   7.551   3.400 -0.3692  0.0907  0.1137
30923SOL     OW96810   1.218   1.251   4.156 -0.2515 -0.0769 -0.1258
30923SOL    HW196811   1.161   1.187   4.200  2.1469 -1.6995  0.7946
30923SOL    HW296812   1.175   1.335   4.171 -2.0509 -1.1463  1.0869
30924SOL     OW96813   2.572   7.894   6.320  0.2490 -0.0763 -0.0816
30924SOL    HW196814   2.577   7.988   6.338  1.5100 -0.1259 -0.0809
30924SOL    HW296815   2.535   7.888   6.232 -2.3141  0.3015  0.8666
30925SOL     OW96816  10.287   2.188   1.893 -0.5521  0.0625 -0.2379
30925SOL    HW196817  10.216   2.169   1.953  0.3108  0.2210  0.8621
30925SOL    HW296818  10.295   2.109   1.839 -0.3298 -0.7050  0.8880
30926SOL     OW96819   9.451   3.967   8.604 -0.0999 -0.1405 -0.0986
30926SOL    HW196820   9.442   3.924   8.518 -1.5638  1.7506 -0.9842
30926SOL    HW296821   9.458   4.060   8.583  2.9614  0.1641  1.7327
30927SOL     OW96822   6.892   0.782   2.222 -0.6925  0.9689 -0.0743
30927SOL    HW196823   6.816   0.795   2.166 -0.5900  1.2811 -0.1460
30927SOL    HW296824   6.905   0.867   2.264  0.9386  1.5889 -1.7218
30928SOL     OW96825   9.939   4.671   1.297  0.1979  0.4091  0.0046
30928SOL    HW196826   9.955   4.629   1.213 -0.2125  1.3149 -0.5385
30928SOL    HW296827   9.963   4.763   1.283  2.5737  0.1416  1.5815
30929SOL     OW96828   4.772   3.365   6.162  0.1125 -0.5178 -0.1227
30929SOL    HW196829   4.821   3.288   6.132 -0.2787 -0.2916 -1.4347
30929SOL    HW296830   4.839   3.432   6.176  0.3672 -0.8150  0.0910
30930SOL     OW96831   6.543   6.927   2.304 -0.2119  0.2247 -0.6500
30930SOL    HW196832   6.546   6.982   2.226  1.5959  1.3332  0.1395
30930SOL    HW296833   6.521   6.987   2.375 -0.4404 -0.5075 -0.0859
30931SOL     OW96834   8.957   6.422   5.919  0.2121 -1.1189  0.4564
30931SOL    HW196835   8.949   6.361   5.991 -0.9481 -1.6069 -0.0583
30931SOL    HW296836   8.867   6.431   5.885 -0.0936  2.4274  1.7880
30932SOL     OW96837   0.889   7.411   6.621  0.9782  0.5557  0.2953
30932SOL    HW196838   0.891   7.380   6.531  1.6313  2.3621 -0.3700
30932SOL    HW296839   0.844   7.496   6.616 -2.3322 -0.8909  2.2745
30933SOL     OW96840   6.138   0.100  10.100  0.2232 -0.3680  0.0389
30933SOL    HW196841   6.098   0.051  10.029  0.0592 -0.7526  0.3916
30933SOL    HW296842   6.209   0.148  10.059  0.0196 -0.4486 -0.4160
30934SOL     OW96843   3.569   2.106   2.937 -0.2125  0.3067  0.1620
30934SOL    HW196844   3.637   2.162   2.900 -0.3702 -0.0947 -0.7887
30934SOL    HW296845   3.554   2.140   3.025  0.3829  1.1331 -0.0439
30935SOL     OW96846   6.843   3.640   8.414  0.2226 -0.4272  0.2401
30935SOL    HW196847   6.907   3.710   8.431 -0.1837 -0.0167  0.0925
30935SOL    HW296848   6.758   3.684   8.416  0.0416 -0.6794 -1.1258
30936SOL     OW96849   1.454   3.793   7.852  0.3012 -0.1964 -0.5428
30936SOL    HW196850   1.501   3.875   7.835 -1.1830  0.4319 -1.9005
30936SOL    HW296851   1.522   3.732   7.881  1.7145  1.0498 -1.0878
30937SOL     OW96852   5.397   5.463   9.248  0.5142  0.1128  0.3042
30937SOL    HW196853   5.395   5.506   9.334  0.0770  0.0030  0.3497
30937SOL    HW296854   5.306   5.462   9.219  0.6674  0.2072 -0.1941
30938SOL     OW96855   0.483   2.794   4.175 -0.0984 -0.0485 -0.1147
30938SOL    HW196856   0.444   2.844   4.103 -2.5293 -0.8552  0.5451
30938SOL    HW296857   0.501   2.859   4.242  3.3604  0.9285 -1.7443
30939SOL     OW96858   0.575  10.236   4.818  0.0768  0.0212 -0.4408
30939SOL    HW196859   0.646  10.186   4.858 -0.4733 -0.2298  0.2478
30939SOL    HW296860   0.580  10.322   4.860 -0.2963 -0.1388 -0.0577
30940SOL     OW96861   5.419   5.165   6.939  0.4535 -0.3236  0.1365
30940SOL    HW196862   5.463   5.111   7.005  2.0489 -0.1611 -0.7599
30940SOL    HW296863   5.411   5.251   6.981  0.7350 -0.4273  0.4115
30941SOL     OW96864   7.059   3.449   0.274 -0.0808  0.0090  0.5038
30941SOL    HW196865   7.106   3.528   0.300  0.0426  0.1218 -0.0452
30941SOL    HW296866   7.110   3.377   0.311 -1.7905  0.2066  3.6729
30942SOL     OW96867   9.347   7.037   7.843 -0.1710 -0.0307 -0.5784
30942SOL    HW196868   9.358   7.116   7.894  2.3679 -0.6430 -0.0525
30942SOL    HW296869   9.377   6.966   7.900  0.5497 -1.0083 -2.0888
30943SOL     OW96870   1.731   9.569   9.695 -0.2968  0.0128  0.3287
30943SOL    HW196871   1.672   9.596   9.765  0.9847  0.0045  1.4644
30943SOL    HW296872   1.809   9.624   9.707 -0.8684  1.6206 -2.5060
30944SOL     OW96873   8.012   6.918   1.873 -0.2563 -0.4654  0.8752
30944SOL    HW196874   7.942   6.863   1.838 -0.0890  0.9119 -1.9289
30944SOL    HW296875   7.995   6.922   1.967 -3.6493 -0.5655  0.3771
30945SOL     OW96876   7.230   8.396   8.698 -0.4947  0.1014 -0.1984
30945SOL    HW196877   7.208   8.305   8.720 -2.2108  0.0140 -1.9607
30945SOL    HW296878   7.289   8.424   8.768  2.2994 -3.1793 -0.9319
30946SOL     OW96879   4.573   5.131   0.201 -0.1069  0.4944 -0.3969
30946SOL    HW196880   4.654   5.120   0.252 -0.3112  0.6111 -0.0431
30946SOL    HW296881   4.561   5.226   0.196 -0.2080  0.4778 -0.4731
30947SOL     OW96882   9.801   0.683   2.091  0.1018 -0.3335  0.1877
30947SOL    HW196883   9.739   0.710   2.159  0.6018  1.9425 -0.1869
30947SOL    HW296884   9.887   0.698   2.130  0.4800 -2.4778  0.3197
30948SOL     OW96885   9.953   5.560   4.722 -0.5043 -0.1916 -0.8235
30948SOL    HW196886  10.012   5.603   4.784 -1.0528  0.1511 -0.5319
30948SOL    HW296887   9.982   5.469   4.721 -0.5876 -0.2385  0.0653
30949SOL     OW96888   4.709   9.566   0.541 -0.2594  0.6416 -0.6163
30949SOL    HW196889   4.753   9.635   0.590  2.4407  2.6555 -5.2729
30949SOL    HW296890   4.780   9.516   0.501 -2.2228 -2.9325 -0.1186
30950SOL     OW96891   1.049   4.620   5.377 -0.1835  0.2337 -0.0065
30950SOL    HW196892   0.979   4.663   5.328  0.3402  0.0873 -0.8834
30950SOL    HW296893   1.126   4.675   5.362 -0.2603  0.8798  1.6383
30951SOL     OW96894   7.974   0.257   7.474  0.3147  0.3416  0.4547
30951SOL    HW196895   7.905   0.282   7.412  1.0376 -0.3298 -0.6544
30951SOL    HW296896   7.985   0.334   7.530 -0.1361  1.0985 -0.4671
30952SOL     OW96897   6.394   9.220   4.859 -0.2745  0.1223  0.6773
30952SOL    HW196898   6.372   9.245   4.948  1.2529 -1.7737  1.6660
30952SOL    HW296899   6.485   9.248   4.848 -0.5911  0.7577 -0.4796
30953SOL     OW96900   4.690   7.719   6.701  0.5086 -0.0680  0.1901
30953SOL    HW196901   4.598   7.701   6.681 -0.0800  1.9263  0.9281
30953SOL    HW296902   4.719   7.776   6.630  0.5112  1.1099  1.1135
30954SOL     OW96903   6.077   3.733   5.298 -0.2983 -0.1961  0.2519
30954SOL    HW196904   6.061   3.801   5.363 -0.7550 -0.9334  0.9193
30954SOL    HW296905   6.173   3.729   5.290 -0.2607  0.2709  0.4658
30955SOL     OW96906   5.995   6.920   6.522 -0.3528 -0.5674  0.5604
30955SOL    HW196907   6.039   6.846   6.479  0.9361  0.6923 -0.4357
30955SOL    HW296908   6.067   6.977   6.550 -1.3031  0.6812  0.5699
30956SOL     OW96909   7.573   8.290   2.543 -0.0537 -0.4254 -0.7774
30956SOL    HW196910   7.490   8.334   2.526  0.0069  0.0983  0.1801
30956SOL    HW296911   7.608   8.270   2.457 -0.2507  1.1292 -1.2528
30957SOL     OW96912   3.599   0.975   5.924  0.7426  0.1193 -0.3764
30957SOL    HW196913   3.510   0.948   5.947  0.7025 -0.0361 -0.7119
30957SOL    HW296914   3.588   1.036   5.851  0.9859 -0.8489 -1.2319
30958SOL     OW96915   4.900   9.759   3.877 -0.7347 -0.1118  0.4727
30958SOL    HW196916   4.916   9.804   3.794 -0.5648  0.1551  0.6497
30958SOL    HW296917   4.941   9.814   3.943  2.1760 -2.0305  0.4251
30959SOL     OW96918   9.866   9.665   9.590 -0.5967 -0.0548 -0.3002
30959SOL    HW196919   9.806   9.640   9.661 -1.0454  0.5175 -0.4687
30959SOL    HW296920   9.949   9.623   9.613 -0.6961  0.2204  0.6401
30960SOL     OW96921   3.465   9.796   5.965 -0.4790 -0.0236  0.5934
30960SOL    HW196922   3.450   9.712   5.922  1.6111 -1.0377  1.6804
30960SOL    HW296923   3.510   9.849   5.898  1.4383 -1.0751  0.9974
30961SOL     OW96924   5.508   4.123   1.230 -0.2915 -0.6049  0.1854
30961SOL    HW196925   5.469   4.037   1.239  2.5311 -2.0419 -0.0649
30961SOL    HW296926   5.483   4.152   1.143 -1.3361 -1.1057  0.3044
30962SOL     OW96927   8.597   2.754   3.474 -0.4572 -0.8498  0.7285
30962SOL    HW196928   8.572   2.674   3.520 -2.1201 -0.7532  0.0607
30962SOL    HW296929   8.586   2.824   3.539  2.3223 -1.2259  1.7472
30963SOL     OW96930   0.767   5.947   8.623  0.1707 -0.2466  0.5549
30963SOL    HW196931   0.862   5.937   8.630  0.0963 -1.0925  0.4466
30963SOL    HW296932   0.752   5.970   8.532  0.1167 -2.3363 -0.0103
30964SOL     OW96933   7.336   5.577   9.672  0.0098 -0.1501  0.3046
30964SOL    HW196934   7.375   5.664   9.669 -0.3422  0.0440 -3.8197
30964SOL    HW296935   7.252   5.586   9.626 -1.5701 -2.0733  2.5753
30965SOL     OW96936   9.926   9.569   6.317 -0.3731  0.0460  0.6945
30965SOL    HW196937   9.951   9.544   6.406  1.1015  1.3738  0.6955
30965SOL    HW296938   9.937   9.664   6.315  1.1535 -0.1122 -1.3198
30966SOL     OW96939   3.365   5.492   7.159  0.3287  0.2105  0.6818
30966SOL    HW196940   3.442   5.517   7.108 -0.2272  2.1048  0.6969
30966SOL    HW296941   3.331   5.414   7.116  1.9469 -0.3597  0.3693
30967SOL     OW96942   2.765   7.064   3.666  0.0759 -0.2547  0.2908
30967SOL    HW196943   2.825   7.139   3.663  0.5072 -0.6072 -0.0224
30967SOL    HW296944   2.802   7.002   3.603 -0.3701 -0.6631  0.4307
30968SOL     OW96945   4.115   1.351   7.485  0.1945 -0.0331 -0.2301
30968SOL    HW196946   4.024   1.357   7.456 -0.1754 -1.6492  0.4701
30968SOL    HW296947   4.147   1.441   7.484 -1.2744  0.5071 -0.9109
30969SOL     OW96948   9.985   4.559   6.783 -0.4392  0.0098  0.5755
30969SOL    HW196949   9.975   4.543   6.689  0.5000 -0.3993  0.5320
30969SOL    HW296950   9.919   4.505   6.824 -0.3222 -0.4363  0.1875
30970SOL     OW96951   6.582   8.772   0.331  0.2232 -0.1492 -0.0625
30970SOL    HW196952   6.565   8.781   0.237 -1.8017  1.1903  0.3643
30970SOL    HW296953   6.556   8.857   0.368  0.1441 -0.9551  1.8184
30971SOL     OW96954   8.080   0.240   4.968  0.3766 -0.6902  0.2608
30971SOL    HW196955   8.122   0.285   4.895  0.4638 -0.7561  0.2695
30971SOL    HW296956   8.015   0.182   4.927 -0.5330  0.2674  0.3133
30972SOL     OW96957   8.549   4.902   8.788  0.4186  0.1336  0.1185
30972SOL    HW196958   8.604   4.826   8.770  0.5114 -0.3404  2.1575
30972SOL    HW296959   8.496   4.912   8.709  0.9776 -1.5359 -0.5256
30973SOL     OW96960   0.778   4.472   9.038  0.5019  0.0070  0.1184
30973SOL    HW196961   0.868   4.496   9.058  1.0613 -1.6213 -0.3431
30973SOL    HW296962   0.725   4.531   9.093  1.8209  0.9256  0.4502
30974SOL     OW96963   8.588   3.941   0.399  0.0105 -0.5272 -0.1677
30974SOL    HW196964   8.634   3.996   0.337 -0.0578 -1.5773 -1.1824
30974SOL    HW296965   8.559   4.001   0.468  0.9196  0.4995 -0.6528
30975SOL     OW96966   2.562   4.559   1.882  0.2905 -0.1935 -0.0264
30975SOL    HW196967   2.651   4.554   1.847 -0.0602 -1.7674 -0.7906
30975SOL    HW296968   2.572   4.547   1.977  0.8419 -1.3285 -0.2103
30976SOL     OW96969   3.739   6.658   8.726  0.3918 -0.4963  0.1849
30976SOL    HW196970   3.786   6.624   8.802  0.9496 -0.8725 -0.3128
30976SOL    HW296971   3.669   6.711   8.762  0.1076 -1.3867  0.9773
30977SOL     OW96972   8.009   3.468   6.649  0.2334  0.5014 -0.1962
30977SOL    HW196973   8.022   3.423   6.566  1.4900 -0.7375  0.6275
30977SOL    HW296974   8.068   3.543   6.647  0.5221  0.2702 -0.2806
30978SOL     OW96975   6.658   6.214   2.231 -0.4949  0.2044  0.3954
30978SOL    HW196976   6.609   6.270   2.290 -1.2665 -0.2294  0.1797
30978SOL    HW296977   6.723   6.272   2.191 -2.5502  1.4731 -1.3436
30979SOL     OW96978  10.068   6.600   3.909 -0.1700  0.2827 -0.4169
30979SOL    HW196979  10.142   6.615   3.851  0.2537  2.4133  0.5735
30979SOL    HW296980  10.080   6.663   3.980 -0.9825 -1.8084  1.6981
30980SOL     OW96981   0.025  10.098   3.130  0.2555  0.6453  0.2521
30980SOL    HW196982   0.067  10.068   3.049 -1.5515 -0.3865 -0.3569
30980SOL    HW296983  -0.066  10.070   3.122 -0.2604  1.5959  2.1232
30981SOL     OW96984   9.526   3.315   2.755  0.5271 -0.0957  0.0673
30981SOL    HW196985   9.598   3.291   2.814 -0.0811 -1.2387  0.3901
30981SOL    HW296986   9.563   3.305   2.667  0.9161 -0.1797  0.2379
30982SOL     OW96987   6.198   4.626   8.151 -0.2730  0.1282 -0.0357
30982SOL    HW196988   6.141   4.551   8.133  1.8477 -1.2008 -1.9563
30982SOL    HW296989   6.195   4.678   8.071  2.3081 -0.8601 -0.8888
30983SOL     OW96990   4.810  10.198   3.803 -0.2810  0.2521 -0.1492
30983SOL    HW196991   4.857  10.245   3.872 -0.1069 -0.8237  0.4766
30983SOL    HW296992   4.755  10.265   3.763  0.1850  1.0632  0.5281
30984SOL     OW96993   5.825  10.006   0.025  0.3294  1.1014 -0.0122
30984SOL    HW196994   5.738  10.035   0.053 -0.8042  0.0352 -2.2048
30984SOL    HW296995   5.829   9.914   0.050  0.0393  0.6441 -1.5391
30985SOL     OW96996   8.236   5.980   2.977  0.0166  0.1704  0.1681
30985SOL    HW196997   8.309   6.027   2.938  1.9529 -0.9637  2.1495
30985SOL    HW296998   8.174   6.048   3.001 -0.3768  1.0530 -2.9189
30986SOL     OW96999   1.374   0.302   9.000 -0.1416 -0.9219  0.4993
30986SOL    HW197000   1.397   0.339   9.085  1.9435 -0.7482 -0.0883
30986SOL    HW297001   1.456   0.300   8.951 -1.5174  0.5316 -2.1111
30987SOL     OW97002   6.054   5.445   7.075  0.5988  0.2775 -0.3378
30987SOL    HW197003   6.009   5.516   7.029  0.3388  0.9134  0.8633
30987SOL    HW297004   6.002   5.430   7.154 -0.0158 -2.0715 -1.1102
30988SOL     OW97005   7.113   5.847   6.290 -0.2067  0.3340 -0.6195
30988SOL    HW197006   7.189   5.810   6.245  0.2315  1.9361 -1.2558
30988SOL    HW297007   7.149   5.918   6.344 -1.0201 -0.1149  0.5541
30989SOL     OW97008   4.493   7.856   1.654  0.1936  0.0007 -0.2642
30989SOL    HW197009   4.520   7.948   1.663  0.3702 -0.2015  1.6337
30989SOL    HW297010   4.458   7.850   1.565 -0.0108  1.9505 -0.3559
30990SOL     OW97011   3.308   4.738   6.223 -0.1288 -0.8139 -0.7003
30990SOL    HW197012   3.381   4.798   6.207 -1.8030  2.3294  2.1732
30990SOL    HW297013   3.303   4.732   6.318 -2.4586 -2.4510 -0.8466
30991SOL     OW97014   4.249   1.168   9.864  0.2729 -0.4597 -0.3329
30991SOL    HW197015   4.168   1.183   9.912  0.5845 -0.3290  0.1608
30991SOL    HW297016   4.223   1.167   9.772 -0.6308 -2.5298 -0.1101
30992SOL     OW97017   0.484   4.225   7.522 -0.4320 -0.2065 -0.3743
30992SOL    HW197018   0.431   4.153   7.557  0.3639 -0.0646  1.2135
30992SOL    HW297019   0.550   4.182   7.468  0.5080 -0.8013  1.1649
30993SOL     OW97020   9.934   1.697   4.491  0.7824  0.4092  0.3708
30993SOL    HW197021   9.877   1.742   4.428  1.1000  1.7480  1.0154
30993SOL    HW297022   9.934   1.606   4.461  0.7302  0.9578 -1.4290
30994SOL     OW97023   4.908   0.801   2.383  0.2311  0.5908  0.1523
30994SOL    HW197024   4.967   0.735   2.348 -1.0797 -2.0531  2.4632
30994SOL    HW297025   4.957   0.841   2.455  0.2164  0.3952  0.2738
30995SOL     OW97026   2.968   4.612   2.676 -0.1319 -0.1933  0.0464
30995SOL    HW197027   2.917   4.595   2.755 -1.8060  1.9870 -0.4780
30995SOL    HW297028   3.057   4.626   2.708 -0.4636 -0.8667  1.3558
30996SOL     OW97029   3.199   4.733   7.471  0.7142 -0.5950  0.2404
30996SOL    HW197030   3.168   4.822   7.451 -1.2789 -0.7107  2.3770
30996SOL    HW297031   3.249   4.742   7.552  0.3455 -1.4312  0.5708
30997SOL     OW97032   2.124   4.308   6.447 -0.3908 -0.2838  0.2845
30997SOL    HW197033   2.149   4.343   6.532 -1.6801 -0.1516  0.6407
30997SOL    HW297034   2.100   4.217   6.465 -0.1774 -0.4019 -0.0266
30998SOL     OW97035   6.269   8.136  10.157  0.1422 -0.4699  0.3305
30998SOL    HW197036   6.255   8.219  10.110 -0.6555 -0.8836 -0.1773
30998SOL    HW297037   6.181   8.109  10.185  0.3489 -1.3329  0.1728
30999SOL     OW97038   2.309   9.121   1.735  0.3255  0.0000 -0.5446
30999SOL    HW197039   2.390   9.148   1.777  0.1429  0.9522 -0.7854
30999SOL    HW297040   2.245   9.189   1.759 -1.0842 -1.9474  1.6731
31000SOL     OW97041   3.942   2.794   4.628  0.2047 -0.5506  0.6374
31000SOL    HW197042   3.941   2.832   4.716  0.8793 -0.2874  0.5425
31000SOL    HW297043   3.885   2.718   4.633 -2.7525  1.4819  0.3600
31001SOL     OW97044   5.017   2.283   4.912 -0.6773  0.1648  0.6853
31001SOL    HW197045   4.996   2.302   4.821 -1.5736 -3.1356  0.0892
31001SOL    HW297046   5.112   2.299   4.919 -0.9825  2.8653 -0.0245
31002SOL     OW97047   5.193   9.305   6.282 -0.1119 -0.3021  0.3646
31002SOL    HW197048   5.232   9.230   6.237  0.4774  0.5403 -0.5761
31002SOL    HW297049   5.178   9.369   6.213  0.3113  0.8241  1.2856
31003SOL     OW97050   7.129   4.571   6.457 -0.0772  0.4122  0.1114
31003SOL    HW197051   7.156   4.642   6.514 -0.6255  0.9057 -0.2296
31003SOL    HW297052   7.046   4.600   6.420  0.7222  0.5375 -1.6802
31004SOL     OW97053   3.231   4.694   4.761  0.5239 -0.3345 -0.0578
31004SOL    HW197054   3.306   4.751   4.775  1.4127 -1.5549  0.2914
31004SOL    HW297055   3.235   4.670   4.669  0.1909  0.0989 -0.1877
31005SOL     OW97056   8.971   7.488   8.513  0.0861  0.1391  0.5771
31005SOL    HW197057   8.891   7.533   8.484 -1.0987 -2.3520 -0.3071
31005SOL    HW297058   8.996   7.433   8.439  0.2370 -2.1914  2.2510
31006SOL     OW97059   1.599   6.188   5.023 -0.5321 -0.8756  0.0638
31006SOL    HW197060   1.510   6.222   5.032  0.2347  1.2294  0.2593
31006SOL    HW297061   1.623   6.209   4.933  0.2498 -0.1182  0.4336
31007SOL     OW97062   9.020   6.870   7.360 -0.1944  0.8371  0.0036
31007SOL    HW197063   9.017   6.950   7.412  1.0771  1.0245 -0.1926
31007SOL    HW297064   9.057   6.897   7.275 -1.6377  0.4176 -0.7949
31008SOL     OW97065   3.846   3.147   7.551 -0.0953 -0.3322 -0.1530
31008SOL    HW197066   3.758   3.129   7.585 -0.1503 -2.2006 -1.1742
31008SOL    HW297067   3.895   3.175   7.628 -0.8122 -2.2809  1.1086
31009SOL     OW97068   8.081   4.030   6.310  0.0036 -0.3246  0.2808
31009SOL    HW197069   8.139   4.091   6.265  0.6337 -0.9521  0.2211
31009SOL    HW297070   7.993   4.065   6.297  0.1762 -0.4336 -1.3548
31010SOL     OW97071   6.147   2.871   3.606 -0.4100 -0.5470 -0.1050
31010SOL    HW197072   6.061   2.837   3.630 -0.0460  0.6570  3.5291
31010SOL    HW297073   6.204   2.794   3.607 -1.0517 -1.0399 -0.4726
31011SOL     OW97074   2.078   9.481   1.104 -0.1696  0.0049 -0.0858
31011SOL    HW197075   2.172   9.478   1.087 -0.2837 -0.5221 -0.6678
31011SOL    HW297076   2.069   9.463   1.198  0.1715 -2.8001 -0.4936
31012SOL     OW97077   9.723   8.005   2.100 -0.1196  0.3091 -0.0850
31012SOL    HW197078   9.629   7.994   2.111  0.0521 -0.3557  0.8108
31012SOL    HW297079   9.762   7.930   2.145  0.8988  1.6442  1.3856
31013SOL     OW97080   3.644   5.694   5.478 -0.3337  0.0826  0.4813
31013SOL    HW197081   3.659   5.778   5.521  1.2324  0.2896 -0.3599
31013SOL    HW297082   3.610   5.637   5.547  0.2541  0.9232  1.5018
31014SOL     OW97083   9.320   6.714   2.343  0.0711  0.2687  0.1308
31014SOL    HW197084   9.395   6.765   2.313  0.5985  0.5733  1.8203
31014SOL    HW297085   9.257   6.780   2.372 -0.3235 -0.0050 -0.1120
31015SOL     OW97086   9.195   3.865   7.654 -0.1542  0.7199  0.3639
31015SOL    HW197087   9.104   3.884   7.632 -0.2880  0.4334  0.6568
31015SOL    HW297088   9.246   3.900   7.580 -0.5099  0.7538  0.1336
31016SOL     OW97089   7.722   3.285   4.460 -0.0418 -0.0886  0.0696
31016SOL    HW197090   7.768   3.209   4.424  1.9021  0.4265  1.3101
31016SOL    HW297091   7.789   3.353   4.467 -0.6955  0.4043  2.9222
31017SOL     OW97092   0.580   9.128   2.150 -0.5185 -0.0459 -0.2229
31017SOL    HW197093   0.673   9.105   2.154 -0.4769  0.2548  0.9630
31017SOL    HW297094   0.576   9.217   2.186 -1.3947 -0.4992  0.8512
31018SOL     OW97095   5.472   4.411   6.839 -0.0509 -0.4090 -0.0260
31018SOL    HW197096   5.565   4.388   6.844 -0.1125 -0.9961 -1.2660
31018SOL    HW297097   5.471   4.507   6.838  0.4644 -0.3790  1.0048
31019SOL     OW97098   9.149   0.761   7.034  0.7231  0.0944  0.0429
31019SOL    HW197099   9.098   0.803   7.103  2.5033  0.5175  1.1545
31019SOL    HW297100   9.188   0.833   6.985 -0.9189 -0.1783 -1.7960
31020SOL     OW97101   7.327   6.529   2.955  0.0489 -0.5804  0.2262
31020SOL    HW197102   7.243   6.489   2.933 -0.7980  1.3842 -0.4013
31020SOL    HW297103   7.348   6.584   2.880  0.5744  0.9497  1.4317
31021SOL     OW97104   2.660   8.753   9.700 -1.0358 -0.2864 -0.8210
31021SOL    HW197105   2.620   8.683   9.751  0.7893 -1.5150 -0.9448
31021SOL    HW297106   2.734   8.710   9.656 -0.2238  1.5915 -1.3821
31022SOL     OW97107   1.443   2.338   7.412  0.9717  0.6693  0.0754
31022SOL    HW197108   1.519   2.281   7.401  1.5672  1.6625 -1.3595
31022SOL    HW297109   1.385   2.314   7.339  0.7709  1.1977  0.0594
31023SOL     OW97110   9.311   1.921   5.370  0.3035  0.3664  0.0366
31023SOL    HW197111   9.282   1.925   5.461  2.4844  0.9994  0.7562
31023SOL    HW297112   9.366   1.843   5.365  1.6079  1.2697 -0.2586
31024SOL     OW97113   3.702   0.138   8.409 -0.2777 -0.4222  0.0972
31024SOL    HW197114   3.653   0.080   8.467 -0.0798 -0.5809  0.1065
31024SOL    HW297115   3.756   0.079   8.357 -0.4934 -0.2849 -0.2864
31025SOL     OW97116   7.723   1.521   2.454 -0.2829 -0.0460 -0.1831
31025SOL    HW197117   7.707   1.581   2.381 -0.8085  0.5409  0.4018
31025SOL    HW297118   7.757   1.576   2.524  0.0022 -0.5645  0.0929
31026SOL     OW97119   0.895   8.946   7.148 -0.2402 -0.5510 -0.5004
31026SOL    HW197120   0.916   8.937   7.055  1.2984  1.0443 -0.3624
31026SOL    HW297121   0.800   8.938   7.152 -0.5081  0.9225 -2.4497
31027SOL     OW97122   2.769   4.164   1.322  0.1581  0.0163 -0.2805
31027SOL    HW197123   2.732   4.166   1.410 -1.3032 -1.9200 -0.7655
31027SOL    HW297124   2.724   4.234   1.274  1.1752  1.2719  0.5498
31028SOL     OW97125   8.776   7.601   5.938  0.1095  0.5774 -0.3716
31028SOL    HW197126   8.694   7.551   5.939 -0.3607  1.3130  1.6121
31028SOL    HW297127   8.844   7.534   5.932 -0.5367 -0.3360  1.5746
31029SOL     OW97128   0.700   7.426   2.949  0.5480 -0.0793  0.2632
31029SOL    HW197129   0.734   7.515   2.959 -0.2061  0.0490  2.0014
31029SOL    HW297130   0.612   7.438   2.915  0.3379 -0.1295  0.7767
31030SOL     OW97131   5.209   6.350   7.117  0.1479  0.1992 -0.1927
31030SOL    HW197132   5.144   6.331   7.185  0.2504  3.9970  1.2065
31030SOL    HW297133   5.286   6.300   7.143 -0.2721  0.4707  1.7714
31031SOL     OW97134   7.051   2.815   8.928 -0.2328 -0.2162  0.0571
31031SOL    HW197135   7.082   2.893   8.973 -1.0691 -0.1818  0.5855
31031SOL    HW297136   7.120   2.750   8.944 -0.8426 -0.4253  2.0192
31032SOL     OW97137   1.486   5.639   6.908 -0.0457  0.0788 -0.5239
31032SOL    HW197138   1.565   5.687   6.885 -0.5042  1.6791  1.0195
31032SOL    HW297139   1.518   5.557   6.945  0.7361 -1.4092 -4.0823
31033SOL     OW97140   2.379   8.952   4.610 -0.1091  0.1299 -0.2022
31033SOL    HW197141   2.401   8.870   4.565  1.1472  0.2027  0.2456
31033SOL    HW297142   2.452   9.011   4.590 -0.2147  0.6188  0.7986
31034SOL     OW97143   7.755   5.770   0.008  0.1562  0.1058  0.3930
31034SOL    HW197144   7.692   5.769   0.081  1.7797 -1.0226  1.8611
31034SOL    HW297145   7.769   5.678  -0.012  1.4315  0.3416  0.1734
31035SOL     OW97146   4.670   3.278   6.965 -0.7956 -0.0937  0.2724
31035SOL    HW197147   4.624   3.299   6.884 -2.0837  0.6240  1.1558
31035SOL    HW297148   4.604   3.287   7.033  0.3745 -0.2231  1.4620
31036SOL     OW97149   3.458   2.683   8.802 -0.0153 -0.2327  0.0499
31036SOL    HW197150   3.402   2.734   8.860 -0.4100 -2.7608  2.0479
31036SOL    HW297151   3.424   2.701   8.714 -2.2442  0.3508  0.9752
31037SOL     OW97152   9.615   5.644   5.437  0.0675 -0.3340 -0.0461
31037SOL    HW197153   9.553   5.598   5.494 -0.4794  1.7966  1.2285
31037SOL    HW297154   9.575   5.730   5.424  1.2956  0.0196 -1.8286
31038SOL     OW97155   6.007   6.156   1.383  0.0651 -0.0592 -0.3452
31038SOL    HW197156   6.076   6.198   1.434 -0.0229 -0.8404  0.4456
31038SOL    HW297157   5.925   6.185   1.424  0.0220 -1.9687  1.0698
31039SOL     OW97158   2.698  10.026   3.534  0.6017  0.6797  0.0775
31039SOL    HW197159   2.659   9.947   3.498 -0.4551  0.6143  1.3057
31039SOL    HW297160   2.641  10.097   3.503  0.6506  0.7952  0.2499
31040SOL     OW97161   3.029   2.039   5.494  1.0290  0.0725  0.0719
31040SOL    HW197162   3.027   2.017   5.401  0.2452  0.6608 -0.0607
31040SOL    HW297163   3.049   2.132   5.497 -2.1409  0.8630  0.2984
31041SOL     OW97164   6.444   6.862   9.723 -0.3825  0.5202 -0.2149
31041SOL    HW197165   6.463   6.773   9.754  3.4697  0.8520 -1.1901
31041SOL    HW297166   6.404   6.905   9.799 -2.7051 -2.0492  0.1619
31042SOL     OW97167   8.807   7.518   2.359  0.6009  0.9670  0.2132
31042SOL    HW197168   8.824   7.604   2.320 -0.2574  0.3930 -1.4953
31042SOL    HW297169   8.769   7.538   2.445  1.1830  2.2762  0.1949
31043SOL     OW97170   3.259   6.282   1.871 -0.0983 -0.3884 -0.4660
31043SOL    HW197171   3.165   6.278   1.884 -0.4435  2.2004 -1.5420
31043SOL    HW297172   3.270   6.323   1.785  1.9768  0.8249  0.2875
31044SOL     OW97173   3.140   9.962   9.491  0.1586  0.1562  0.0836
31044SOL    HW197174   3.230   9.930   9.492 -0.1655 -1.3416 -3.8282
31044SOL    HW297175   3.139  10.031   9.425 -1.8474 -1.1233 -1.3293
31045SOL     OW97176   9.892   8.104   0.859  0.3429  0.4910  0.1821
31045SOL    HW197177   9.805   8.114   0.821  0.2824  0.8743  0.4196
31045SOL    HW297178   9.904   8.009   0.867  0.2363  0.4153 -0.5129
31046SOL     OW97179   9.418   1.114   0.678  0.5505 -0.6695 -0.0285
31046SOL    HW197180   9.407   1.066   0.596 -0.5025  0.1370 -0.3858
31046SOL    HW297181   9.336   1.162   0.688  1.2216  0.3333  0.7864
31047SOL     OW97182   3.502   9.238   9.068  0.0757  0.1372 -0.4486
31047SOL    HW197183   3.414   9.271   9.085  0.4629  2.2135 -2.0287
31047SOL    HW297184   3.542   9.233   9.155 -1.2193  0.2904  0.1820
31048SOL     OW97185   6.603   2.820   5.834 -0.2725 -0.7301 -0.1544
31048SOL    HW197186   6.612   2.727   5.856  0.5532 -1.0277 -1.6084
31048SOL    HW297187   6.659   2.866   5.897 -1.2044 -1.1281  1.0052
31049SOL     OW97188   5.913   2.064   3.213 -0.1204  0.2703  0.1276
31049SOL    HW197189   5.899   2.014   3.294 -0.2134 -0.6114 -0.4214
31049SOL    HW297190   5.909   2.156   3.241 -1.0605 -0.0074  0.9734
31050SOL     OW97191   9.691   2.518   5.205 -0.2356  0.2700 -0.5626
31050SOL    HW197192   9.711   2.469   5.125 -1.9743  1.0995 -1.5654
31050SOL    HW297193   9.736   2.601   5.193 -0.9598  0.6111 -0.9594
31051SOL     OW97194   8.703   0.965   9.151  0.6050  0.4871 -0.1639
31051SOL    HW197195   8.770   1.006   9.096 -0.3382  1.7938 -0.4128
31051SOL    HW297196   8.630   0.949   9.091  0.1131  0.5539  0.4116
31052SOL     OW97197   9.193   7.561   1.702  0.1332 -0.1004  0.2515
31052SOL    HW197198   9.172   7.470   1.681 -1.3296 -0.2594  2.1820
31052SOL    HW297199   9.271   7.580   1.650  0.1516 -2.2683 -0.6097
31053SOL     OW97200   4.997   6.569   1.933  0.2282 -0.4478  0.2582
31053SOL    HW197201   5.051   6.605   2.003  1.4384 -0.4804 -0.6325
31053SOL    HW297202   4.923   6.630   1.926  0.2540 -0.2688  1.3290
31054SOL     OW97203   8.734   2.642   5.564 -0.0105 -0.4466  0.2264
31054SOL    HW197204   8.719   2.580   5.636  1.1232 -0.2069  0.6828
31054SOL    HW297205   8.719   2.728   5.604  2.3452 -0.1850  0.7087
31055SOL     OW97206   8.418   9.082   8.504 -0.1171 -0.2052 -0.5351
31055SOL    HW197207   8.341   9.024   8.504 -0.4429  0.1473 -2.6578
31055SOL    HW297208   8.387   9.161   8.547 -0.3461 -0.7597  0.3510
31056SOL     OW97209   2.707   8.611  10.266 -0.3268  0.2780 -0.0309
31056SOL    HW197210   2.770   8.540  10.280 -0.3730 -0.0994 -1.5732
31056SOL    HW297211   2.760   8.691  10.267  0.1534 -0.0126 -1.0215
31057SOL     OW97212   8.808   7.180   5.445  0.2232 -0.3469  0.0823
31057SOL    HW197213   8.892   7.172   5.490  0.2664 -0.5449 -0.0322
31057SOL    HW297214   8.770   7.092   5.449 -0.3962 -0.0550  0.9437
31058SOL     OW97215   5.439   6.587   9.033 -0.1835 -0.0433 -0.0521
31058SOL    HW197216   5.503   6.655   9.050 -1.0715  0.7405  0.2474
31058SOL    HW297217   5.372   6.599   9.100 -0.0113 -1.6864  0.4764
31059SOL     OW97218   5.257   6.441   0.204  0.1830  0.0141  0.0093
31059SOL    HW197219   5.213   6.488   0.275  1.4436 -2.0973  2.3475
31059SOL    HW297220   5.317   6.506   0.167 -0.8632  1.3147  0.5022
31060SOL     OW97221   9.772   9.946   7.823 -0.1655 -0.4339 -0.4907
31060SOL    HW197222   9.785  10.039   7.803  0.8578 -0.7442 -1.3379
31060SOL    HW297223   9.833   9.929   7.895  0.5652 -0.7355 -1.1727
31061SOL     OW97224   1.531   0.514   9.557 -0.5300 -0.4881  0.8953
31061SOL    HW197225   1.462   0.462   9.599 -1.1454  1.4138  2.4241
31061SOL    HW297226   1.594   0.450   9.525 -1.7880 -2.1924  1.6626
31062SOL     OW97227   6.168   7.417   9.106  0.0821  0.2760  0.3473
31062SOL    HW197228   6.223   7.339   9.106 -1.2998 -0.8318  2.4218
31062SOL    HW297229   6.080   7.383   9.087 -0.5416  1.3023  1.2933
31063SOL     OW97230   5.115   8.340   8.613 -0.1703 -0.4455  0.1960
31063SOL    HW197231   5.195   8.310   8.570 -1.8083 -0.3821 -3.1556
31063SOL    HW297232   5.134   8.430   8.640  1.6230 -1.2127  1.7582
31064SOL     OW97233   1.653   1.531   8.851  0.4151  0.6797  0.1332
31064SOL    HW197234   1.668   1.626   8.853 -1.4607  0.9999  1.1002
31064SOL    HW297235   1.578   1.517   8.908 -1.8319 -0.9450 -2.9132
31065SOL     OW97236   2.941   5.161   5.892  0.2267  0.0762  0.2627
31065SOL    HW197237   2.872   5.119   5.840  0.9216  1.1838 -1.6284
31065SOL    HW297238   2.914   5.146   5.983 -1.0145 -1.9525 -0.3699
31066SOL     OW97239   4.928   6.338   6.024 -0.4326 -0.0462  0.5068
31066SOL    HW197240   4.995   6.311   5.961 -2.0410  0.2654 -1.4518
31066SOL    HW297241   4.957   6.301   6.107  1.6545 -0.7176 -0.4414
31067SOL     OW97242  10.011   2.604   9.611  0.1193  0.4578 -0.0180
31067SOL    HW197243   9.978   2.689   9.639 -0.2038  0.2528  0.2203
31067SOL    HW297244   9.974   2.591   9.524  0.7398  0.8779 -0.3556
31068SOL     OW97245   7.690   6.874   4.519 -0.1135  0.1556  0.4682
31068SOL    HW197246   7.650   6.842   4.600 -0.1673  2.1747  1.2927
31068SOL    HW297247   7.655   6.963   4.509 -0.0967 -0.0284 -1.7807
31069SOL     OW97248   0.331   8.228   6.249 -0.2217  0.0384 -0.4729
31069SOL    HW197249   0.339   8.133   6.259  0.9538 -0.1235 -2.3335
31069SOL    HW297250   0.269   8.239   6.176 -1.8435  0.8009  0.9462
31070SOL     OW97251   4.641   9.832   7.517 -0.1657  0.1661 -0.7040
31070SOL    HW197252   4.698   9.878   7.578  1.1568 -1.3409 -0.7445
31070SOL    HW297253   4.630   9.893   7.444  0.6315  0.8301 -0.2828
31071SOL     OW97254   0.870   5.285   8.580  0.0575  0.1074 -0.0355
31071SOL    HW197255   0.784   5.250   8.553 -0.5307 -1.3753  3.1664
31071SOL    HW297256   0.852   5.376   8.604  0.0050  0.5947 -1.8121
31072SOL     OW97257   0.494   8.470   8.859 -0.5180  0.2725 -0.4513
31072SOL    HW197258   0.502   8.543   8.921  0.0224  0.3125 -0.5617
31072SOL    HW297259   0.568   8.413   8.880 -0.7511 -0.0761 -0.5857
31073SOL     OW97260   6.976   4.931   0.414  0.4609 -0.3178  0.0862
31073SOL    HW197261   6.922   4.855   0.436 -2.0680  1.3808  0.1202
31073SOL    HW297262   6.969   4.988   0.490  1.4359  0.4338 -0.3688
31074SOL     OW97263   5.175   7.500   8.060  0.2740 -0.0615 -0.5308
31074SOL    HW197264   5.237   7.553   8.010  0.4084 -0.6425 -0.9945
31074SOL    HW297265   5.091   7.543   8.048  0.2269 -0.4482 -1.6315
31075SOL     OW97266   0.706   4.379  10.250  0.4097  0.2369  0.9232
31075SOL    HW197267   0.676   4.409  10.336 -1.2389 -0.4498  0.6383
31075SOL    HW297268   0.636   4.407  10.190  0.1630 -1.6751  0.2406
31076SOL     OW97269   0.036   3.883   0.416  0.1777  0.1107 -0.2489
31076SOL    HW197270  -0.005   3.943   0.353  0.4187 -1.1172 -1.6354
31076SOL    HW297271  -0.033   3.822   0.441 -0.1490  1.0898  1.3950
31077SOL     OW97272   7.106   4.994   4.260 -0.2780 -0.2934 -0.8591
31077SOL    HW197273   7.078   4.975   4.170 -1.0980  0.4518 -0.7704
31077SOL    HW297274   7.169   5.065   4.251  0.6071 -1.0779 -0.9458
31078SOL     OW97275   8.355   7.919   0.796 -0.5320  0.4195  0.1784
31078SOL    HW197276   8.405   7.877   0.866  0.8565 -1.0469 -1.5840
31078SOL    HW297277   8.387   8.009   0.793  1.5213 -0.2766 -0.3948
31079SOL     OW97278   3.043  10.239   8.480 -0.4492  0.4740 -0.0755
31079SOL    HW197279   2.956  10.235   8.519 -0.8561 -0.6733 -1.0532
31079SOL    HW297280   3.092  10.299   8.537 -1.6317  0.5009  0.9518
31080SOL     OW97281   8.187   9.379   4.970  0.1798 -0.1579  0.6578
31080SOL    HW197282   8.165   9.295   5.011  1.9601 -0.6588  0.6735
31080SOL    HW297283   8.122   9.440   5.005 -3.7250 -2.1414 -2.3116
31081SOL     OW97284   7.128   2.056   3.567 -0.0497 -0.5112  0.6905
31081SOL    HW197285   7.065   2.077   3.636  0.1873 -1.7272  1.3204
31081SOL    HW297286   7.210   2.093   3.598 -0.1545 -0.1732  0.5655
31082SOL     OW97287   4.648   5.516   2.232 -0.3814 -0.2288 -0.4253
31082SOL    HW197288   4.718   5.513   2.167 -0.0165 -0.2610 -0.0299
31082SOL    HW297289   4.692   5.530   2.315 -0.7668 -1.0956 -0.0571
31083SOL     OW97290   0.421   4.767   6.560 -0.6401  0.5583  0.2801
31083SOL    HW197291   0.348   4.744   6.618 -1.2920  2.3087  0.2131
31083SOL    HW297292   0.380   4.816   6.489  0.4056  0.1204 -0.6466
31084SOL     OW97293   6.137   6.656   6.134 -0.1407  0.2622 -0.2260
31084SOL    HW197294   6.223   6.615   6.147  0.4078  1.7300  1.2765
31084SOL    HW297295   6.117   6.641   6.042  0.6613 -2.0529 -0.0933
31085SOL     OW97296   2.396   1.116   9.608  0.2699 -0.0655  0.2534
31085SOL    HW197297   2.406   1.209   9.588  0.3249 -0.3638 -1.2503
31085SOL    HW297298   2.445   1.071   9.539  1.1280 -1.2093  1.5473
31086SOL     OW97299   4.657   9.330   7.856  0.4209 -0.5606 -0.1176
31086SOL    HW197300   4.613   9.337   7.941 -1.0933  1.3234 -0.9731
31086SOL    HW297301   4.672   9.421   7.829  0.3086 -1.0850 -2.1411
31087SOL     OW97302   9.951   8.697   4.889  0.3716  0.6663 -0.1391
31087SOL    HW197303   9.942   8.612   4.932  1.7712  0.4935 -0.1383
31087SOL    HW297304  10.036   8.730   4.918 -0.0139  1.9366 -0.3827
31088SOL     OW97305   0.264   6.283   4.084  0.5305 -0.6406  0.7485
31088SOL    HW197306   0.189   6.308   4.030  2.4849  1.4011 -1.2337
31088SOL    HW297307   0.275   6.189   4.069  0.9313 -0.1661 -2.4393
31089SOL     OW97308   3.965   5.468   7.830 -0.4848  0.8633  0.0659
31089SOL    HW197309   3.912   5.422   7.895  0.3027 -0.6492 -0.3351
31089SOL    HW297310   3.902   5.526   7.786 -1.7220 -0.4871 -0.0327
31090SOL     OW97311   9.505   7.071   6.962 -0.4644  0.1938 -0.1648
31090SOL    HW197312   9.429   7.117   6.929  0.5283  2.3257  0.3799
31090SOL    HW297313   9.564   7.139   6.995  1.5811 -1.3647 -0.3134
31091SOL     OW97314   2.981   2.832   2.689 -0.1642 -0.2311  0.2034
31091SOL    HW197315   2.904   2.814   2.635 -1.1364 -0.4464  1.6165
31091SOL    HW297316   3.009   2.746   2.720  0.1778 -0.0800  0.3182
31092SOL     OW97317   4.780   7.628   7.734 -0.3351  0.2150  0.6715
31092SOL    HW197318   4.871   7.609   7.711  1.3170  5.0819  1.9822
31092SOL    HW297319   4.736   7.643   7.650 -0.8483 -4.3493 -0.1562
31093SOL     OW97320   8.761   6.060   9.328  0.5717  0.0063 -0.6595
31093SOL    HW197321   8.778   6.139   9.379  0.8106 -0.3382 -0.1979
31093SOL    HW297322   8.738   5.994   9.394  1.1492 -0.5179 -0.9755
31094SOL     OW97323   2.392   1.509   2.753  0.0779 -0.6497 -0.3572
31094SOL    HW197324   2.328   1.498   2.823  0.2081 -2.5950 -0.4906
31094SOL    HW297325   2.340   1.513   2.673  0.0066  0.2133 -0.2756
31095SOL     OW97326   8.195   5.244   2.987  0.3706 -0.0598 -0.2405
31095SOL    HW197327   8.276   5.196   2.967 -0.4752 -1.0591 -1.3803
31095SOL    HW297328   8.127   5.198   2.937 -0.3670  2.7835 -2.0903
31096SOL     OW97329   1.361   7.381   0.356  0.1259 -0.5562  0.3745
31096SOL    HW197330   1.285   7.331   0.327 -0.0953 -0.8458  1.4125
31096SOL    HW297331   1.327   7.469   0.371  0.4838 -0.0883 -1.3052
31097SOL     OW97332   0.677   4.842   9.590  0.3284  0.2975 -0.0358
31097SOL    HW197333   0.619   4.779   9.548  0.2266 -0.9421  1.8407
31097SOL    HW297334   0.660   4.924   9.545 -2.5328 -0.1217  0.0839
31098SOL     OW97335   9.090   5.429   0.361 -0.1636  0.0216  0.5893
31098SOL    HW197336   9.032   5.364   0.321  1.4235 -0.8750 -0.3846
31098SOL    HW297337   9.106   5.395   0.450  1.2011 -1.3786 -0.1306
31099SOL     OW97338   1.250   2.155   2.293 -0.2542 -0.5076 -0.4394
31099SOL    HW197339   1.268   2.243   2.261  1.6011  0.5756  3.1137
31099SOL    HW297340   1.325   2.103   2.263  0.5510  0.0575  0.5466
31100SOL     OW97341   7.251   8.245   9.088  0.1766 -0.2080 -0.5341
31100SOL    HW197342   7.292   8.322   9.049 -0.1602  0.8642  1.1766
31100SOL    HW297343   7.176   8.226   9.031  0.7806  0.1580 -1.4723
31101SOL     OW97344   9.901   5.721   2.934 -0.2937 -0.3991  0.0036
31101SOL    HW197345   9.940   5.805   2.911  1.3142 -0.1672  3.1447
31101SOL    HW297346   9.968   5.657   2.911  0.0163 -0.4388  0.9662
31102SOL     OW97347   2.717   1.888   1.880 -0.1011 -0.2920  0.0335
31102SOL    HW197348   2.784   1.896   1.811  0.3386 -0.7538  0.3976
31102SOL    HW297349   2.752   1.939   1.953  0.2747 -1.2614  0.5366
31103SOL     OW97350   5.196   1.336   3.196  0.3398 -0.4469  0.0662
31103SOL    HW197351   5.139   1.408   3.170  1.9468  0.3148 -1.5524
31103SOL    HW297352   5.204   1.344   3.291  1.4401  2.3315 -0.1686
31104SOL     OW97353   1.847   3.655   5.495  0.0023 -0.0024  0.5699
31104SOL    HW197354   1.765   3.702   5.483  0.2933  0.3175 -0.2346
31104SOL    HW297355   1.883   3.689   5.577 -1.6061 -1.5720  2.0179
31105SOL     OW97356   8.762   1.630   6.144 -0.1189 -0.2917  0.1256
31105SOL    HW197357   8.857   1.636   6.151  0.0154  0.4286 -1.6608
31105SOL    HW297358   8.738   1.699   6.082 -1.4086 -2.4598 -2.0266
31106SOL     OW97359   1.868   2.261   5.773 -0.2105 -0.4834 -0.1431
31106SOL    HW197360   1.804   2.196   5.741  1.9429 -2.5836 -0.4901
31106SOL    HW297361   1.935   2.263   5.705  0.6793  0.8134  0.7276
31107SOL     OW97362   8.859   7.482   5.536  0.0124  0.0649 -0.1949
31107SOL    HW197363   8.768   7.453   5.543  0.0160  0.4233  2.1151
31107SOL    HW297364   8.910   7.401   5.543 -0.0898 -0.1196 -1.3444
31108SOL     OW97365   4.273   7.456   8.691 -0.2799 -0.0381 -0.1425
31108SOL    HW197366   4.266   7.392   8.620  0.6003 -0.1789 -0.1169
31108SOL    HW297367   4.229   7.414   8.765 -0.7761 -0.0961 -0.4660
31109SOL     OW97368   0.934   0.223   3.174 -0.2086  0.0139  0.4010
31109SOL    HW197369   0.973   0.253   3.092  0.3394 -2.2257 -0.2319
31109SOL    HW297370   0.984   0.145   3.197 -1.2474 -0.1843  2.1539
31110SOL     OW97371   9.738   3.538   0.049 -0.4364  0.0509  0.0619
31110SOL    HW197372   9.686   3.618   0.057  1.6429  1.3804  1.1020
31110SOL    HW297373   9.783   3.546  -0.035  0.3716  0.3618  0.5181
31111SOL     OW97374   7.989   0.477   0.898  0.3235  0.2970  0.2037
31111SOL    HW197375   7.994   0.550   0.960  0.4848  1.9018 -1.5804
31111SOL    HW297376   8.070   0.483   0.847  1.4961 -2.6632  1.5036
31112SOL     OW97377   7.282   1.866   5.177  0.6800  0.7119  0.0463
31112SOL    HW197378   7.214   1.813   5.136  1.3436  0.1464 -0.3540
31112SOL    HW297379   7.355   1.805   5.190  1.8316  1.7078 -1.3126
31113SOL     OW97380   0.498   4.133   1.676  0.3326 -0.5485 -0.4984
31113SOL    HW197381   0.494   4.053   1.728 -1.0292  0.0530  0.3746
31113SOL    HW297382   0.447   4.197   1.725  1.4082  0.8853 -1.1685
31114SOL     OW97383   6.943   7.480   2.648  0.1064  0.0736 -0.5175
31114SOL    HW197384   6.961   7.473   2.554  1.0264  2.6215 -0.6168
31114SOL    HW297385   6.874   7.545   2.654  1.3160  1.3100  0.6094
31115SOL     OW97386   1.570   9.290  10.287  0.3444 -0.1494  0.0389
31115SOL    HW197387   1.655   9.275  10.248  0.5176  1.2348 -0.1809
31115SOL    HW297388   1.558   9.218  10.349  0.8961 -1.3164 -1.1714
31116SOL     OW97389   0.800   0.506   3.032  0.3827 -0.8007  0.5097
31116SOL    HW197390   0.781   0.586   2.982 -0.0943 -0.6446  0.9361
31116SOL    HW297391   0.833   0.444   2.966 -2.2765 -1.3438 -0.4219
31117SOL     OW97392   0.896   9.367   7.999 -0.6190  0.0022 -0.2140
31117SOL    HW197393   0.920   9.358   7.907  0.2226 -0.1350  0.0096
31117SOL    HW297394   0.884   9.277   8.030  0.7930 -0.0543  0.2319
31118SOL     OW97395  10.039   9.326   7.447 -0.4815 -1.3168  0.1618
31118SOL    HW197396   9.980   9.251   7.459 -0.3926 -1.3315  0.5093
31118SOL    HW297397  10.050   9.332   7.352  0.9438 -2.8774  0.1692
31119SOL     OW97398   3.903   9.884   9.341  0.1956 -0.3327  0.8000
31119SOL    HW197399   3.876   9.903   9.251  1.2678 -0.7233  0.3869
31119SOL    HW297400   3.824   9.900   9.393 -0.9509 -1.7569 -0.4026
31120SOL     OW97401   0.165   0.026   3.170  0.1658  0.0988  0.0819
31120SOL    HW197402   0.112  -0.053   3.156  0.2123  0.2992 -1.4390
31120SOL    HW297403   0.205   0.013   3.255 -2.6659  0.1404  1.5595
31121SOL     OW97404   4.292   1.803   8.207 -0.7129  0.1620  0.0956
31121SOL    HW197405   4.224   1.841   8.153 -1.6996  0.1577  1.2941
31121SOL    HW297406   4.360   1.870   8.212 -0.9776  0.4759 -0.4711
31122SOL     OW97407   6.131   8.114   7.027  0.5413  0.0864  0.0673
31122SOL    HW197408   6.152   8.090   7.117  3.3262  1.2882 -0.1547
31122SOL    HW297409   6.206   8.084   6.976 -0.1444  1.0254 -1.5669
31123SOL     OW97410   7.117   3.723  10.178 -0.5498  0.1998  0.6465
31123SOL    HW197411   7.083   3.735  10.266 -0.7124  0.8367  0.5000
31123SOL    HW297412   7.157   3.636  10.179  0.9866  0.8958  1.8258
31124SOL     OW97413   3.171   4.764   3.169 -0.2115 -0.9862 -0.0973
31124SOL    HW197414   3.108   4.693   3.163 -1.0608 -0.3624  1.0005
31124SOL    HW297415   3.224   4.742   3.246  1.2316 -1.7295 -1.2631
31125SOL     OW97416   4.922   4.354   2.461 -0.5413 -0.7151  0.4378
31125SOL    HW197417   4.927   4.449   2.476 -0.1871 -0.2588 -2.0144
31125SOL    HW297418   4.828   4.336   2.454 -0.6828  0.4868 -3.7475
31126SOL     OW97419   7.134   2.212   8.512 -0.1993 -0.0702  0.5640
31126SOL    HW197420   7.227   2.212   8.487 -0.5450  0.4649 -0.8406
31126SOL    HW297421   7.122   2.296   8.557  0.0220 -0.1891  0.8464
31127SOL     OW97422   6.670   4.959   1.590 -0.0858 -0.1536 -0.3859
31127SOL    HW197423   6.717   4.948   1.672  0.9881  1.7164 -0.6960
31127SOL    HW297424   6.705   5.040   1.553 -0.1629 -1.2107 -2.9563
31128SOL     OW97425   8.782   7.977   8.943  0.2385  0.3194  0.3578
31128SOL    HW197426   8.789   8.064   8.984 -0.9927  0.6945 -0.1792
31128SOL    HW297427   8.782   7.916   9.016  2.7250  0.6078  0.7007
31129SOL     OW97428   7.070   9.399   3.577  0.1695 -0.0618  0.3561
31129SOL    HW197429   7.143   9.376   3.519  0.7646  0.6019  0.8193
31129SOL    HW297430   7.087   9.350   3.657 -0.6602 -0.9882 -0.0175
31130SOL     OW97431   8.631   7.089   0.720 -0.7440  0.6595 -0.1644
31130SOL    HW197432   8.590   7.034   0.786 -0.8503 -0.0933 -0.8387
31130SOL    HW297433   8.646   7.030   0.646  1.5076  0.9302  0.0284
31131SOL     OW97434   3.790   1.062   8.445 -0.5919 -0.2605 -0.1796
31131SOL    HW197435   3.753   0.985   8.487 -2.8378  0.5331 -0.6066
31131SOL    HW297436   3.764   1.135   8.500 -0.3952  0.4258 -0.9704
31132SOL     OW97437   4.261   1.470   9.006 -0.2230  0.1147  0.0440
31132SOL    HW197438   4.230   1.474   9.096 -2.3068 -3.4633 -0.3211
31132SOL    HW297439   4.357   1.472   9.013 -0.3447  0.0735  2.3273
31133SOL     OW97440   1.617   9.197   8.225  0.3836 -0.0128 -0.0865
31133SOL    HW197441   1.658   9.115   8.251 -1.6702 -1.1620 -0.2165
31133SOL    HW297442   1.685   9.245   8.177  1.3622 -2.0525 -0.8454
31134SOL     OW97443   1.308   9.439   6.684  0.3771 -0.4038  0.4097
31134SOL    HW197444   1.338   9.527   6.706  0.5544 -0.2707 -0.3694
31134SOL    HW297445   1.214   9.449   6.666  0.1883 -0.5450  1.2262
31135SOL     OW97446   3.762   8.088   7.144  0.0630 -0.3052  0.4440
31135SOL    HW197447   3.744   8.081   7.238 -0.4323 -0.0247  0.3740
31135SOL    HW297448   3.842   8.141   7.139  0.2640 -0.5827  0.7195
31136SOL     OW97449   1.539   5.814   8.168  0.0479  0.4614 -0.3021
31136SOL    HW197450   1.462   5.816   8.226 -0.1946 -0.2889 -0.5839
31136SOL    HW297451   1.579   5.729   8.185 -0.5665 -0.1940 -1.8984
31137SOL     OW97452   9.932  10.149   7.496 -0.5559  0.2917  0.1609
31137SOL    HW197453   9.985  10.192   7.430  0.6926 -1.1043  0.2068
31137SOL    HW297454   9.892  10.075   7.451  2.3370 -2.2350  1.4315
31138SOL     OW97455   6.305   2.240   9.414  0.2727  0.5149 -0.2830
31138SOL    HW197456   6.386   2.292   9.403  0.3882  0.5180  0.5544
31138SOL    HW297457   6.282   2.251   9.506 -0.5390  0.2886 -0.4560
31139SOL     OW97458   7.689   7.654   8.347  0.0852 -1.1746 -0.4519
31139SOL    HW197459   7.649   7.672   8.433 -0.0506  1.2120 -0.9303
31139SOL    HW297460   7.616   7.665   8.285  0.4288 -1.7267 -0.9543
31140SOL     OW97461   3.274  10.152   1.623  0.0085  0.3392  0.6160
31140SOL    HW197462   3.282  10.216   1.553  2.1658 -0.0185  0.4575
31140SOL    HW297463   3.314  10.195   1.699 -0.0037 -0.2083  0.9367
31141SOL     OW97464   4.839   9.710   8.516  0.0391  0.2450 -0.3509
31141SOL    HW197465   4.836   9.735   8.608 -0.3428 -0.9239 -0.0335
31141SOL    HW297466   4.920   9.751   8.483  1.6740 -1.5557  1.1961
31142SOL     OW97467   7.295   4.030   1.143  0.2763 -0.6700  0.6384
31142SOL    HW197468   7.275   3.937   1.135  0.9882 -0.8674  0.9617
31142SOL    HW297469   7.358   4.047   1.073  0.0182 -0.3873  0.4723
31143SOL     OW97470   8.579   4.175   2.048 -0.9527 -0.2362  0.2691
31143SOL    HW197471   8.646   4.239   2.073  2.3697 -3.3472  0.2216
31143SOL    HW297472   8.497   4.224   2.048  1.3686  4.1382 -0.5355
31144SOL     OW97473   5.614   5.257   3.427 -0.1892  0.1923 -0.0816
31144SOL    HW197474   5.579   5.237   3.515  0.6322  0.7913  0.3855
31144SOL    HW297475   5.542   5.301   3.383 -0.9956 -1.0690 -0.0985
31145SOL     OW97476   3.076   7.737   4.918 -0.2843  0.6874 -0.0774
31145SOL    HW197477   3.068   7.672   4.988  2.5659  0.4895  0.1973
31145SOL    HW297478   3.039   7.694   4.841  0.4586 -0.8337  0.3725
31146SOL     OW97479   8.126   4.623   1.292 -0.7091  0.3146 -0.0065
31146SOL    HW197480   8.065   4.652   1.225 -0.3196  2.0665  0.3446
31146SOL    HW297481   8.076   4.629   1.374 -0.7317 -0.3751  0.0316
31147SOL     OW97482   0.585   0.471   1.095  0.3269  0.3370  0.0758
31147SOL    HW197483   0.578   0.498   1.003  1.4302 -0.6787 -0.3219
31147SOL    HW297484   0.592   0.553   1.143  0.6158  0.8543 -0.8197
31148SOL     OW97485   3.185   8.679   0.589  0.5333 -0.6845  0.1267
31148SOL    HW197486   3.141   8.641   0.665 -0.3969 -0.0399 -0.0687
31148SOL    HW297487   3.131   8.755   0.566  0.5291 -1.1348 -1.4634
31149SOL     OW97488   3.541   6.751   9.601  0.8718  0.3156 -0.2276
31149SOL    HW197489   3.472   6.816   9.588 -0.9565 -0.9322  2.4364
31149SOL    HW297490   3.529   6.688   9.530 -1.1734 -0.1601  0.4635
31150SOL     OW97491   4.358   3.525   5.687  0.0196  0.4624 -0.2330
31150SOL    HW197492   4.415   3.450   5.705  1.2159  1.5390  0.6377
31150SOL    HW297493   4.334   3.558   5.773 -0.0998  1.3679 -0.6033
31151SOL     OW97494   6.032   8.762   9.630  0.0811 -0.1451  0.2244
31151SOL    HW197495   5.941   8.735   9.620 -0.8592  3.0016 -1.1297
31151SOL    HW297496   6.029   8.835   9.691  1.7442 -0.1400  0.3511
31152SOL     OW97497   9.994   1.528   6.457  0.3254  0.4428 -0.4534
31152SOL    HW197498   9.941   1.583   6.515  1.7108  0.5426  0.7578
31152SOL    HW297499  10.043   1.590   6.404  0.1131  0.3485 -0.7662
31153SOL     OW97500   8.044   6.427   3.503 -0.5870 -0.4800 -0.3679
31153SOL    HW197501   8.114   6.365   3.485 -0.0091  0.3775 -1.1811
31153SOL    HW297502   7.972   6.374   3.537  0.4681 -1.3685  0.5698
31154SOL     OW97503   6.380   5.829   6.608  0.5648 -0.1324 -0.4488
31154SOL    HW197504   6.379   5.855   6.701 -0.7797  0.8591 -0.7172
31154SOL    HW297505   6.470   5.846   6.580  0.4226  1.7970  0.0977
31155SOL     OW97506   7.408   0.760   4.957  0.3881  0.1930 -0.5865
31155SOL    HW197507   7.418   0.753   5.052 -1.2625  0.9553 -0.3154
31155SOL    HW297508   7.347   0.690   4.934 -0.8557  1.2678 -0.7327
31156SOL     OW97509   5.563   8.389   1.915  0.2151  0.0210  0.9186
31156SOL    HW197510   5.510   8.331   1.862 -0.4469 -1.4828  3.0642
31156SOL    HW297511   5.508   8.466   1.931  0.1386  0.1390  0.0974
31157SOL     OW97512   4.426   4.549   0.761 -0.1575  0.1683  0.2744
31157SOL    HW197513   4.463   4.475   0.807 -2.3162 -1.3365 -0.2437
31157SOL    HW297514   4.354   4.579   0.817  0.1483  1.3476  0.0790
31158SOL     OW97515   6.018   7.733   5.834 -0.0968  0.2221  0.0482
31158SOL    HW197516   5.924   7.734   5.850 -0.3208  0.9855 -1.1837
31158SOL    HW297517   6.040   7.824   5.816  0.4771 -0.2406 -1.8052
31159SOL     OW97518   9.339   3.760   2.079  0.5091 -0.2490 -0.5497
31159SOL    HW197519   9.411   3.753   2.142  0.8442  1.0283 -0.7564
31159SOL    HW297520   9.379   3.737   1.995 -0.1556 -2.8902 -0.2353
31160SOL     OW97521   6.389   2.946   5.687 -0.5052 -0.2100  0.0611
31160SOL    HW197522   6.388   2.935   5.592 -0.6353 -2.0064  0.2238
31160SOL    HW297523   6.475   2.914   5.714 -1.0727 -1.3262  0.6631
31161SOL     OW97524   9.959   8.352   6.404 -0.2105  0.3824 -0.6711
31161SOL    HW197525  10.044   8.342   6.448 -0.5650 -0.8317 -0.2214
31161SOL    HW297526   9.928   8.438   6.431  0.4267  0.4224 -0.0199
31162SOL     OW97527   4.641   0.240   9.753 -0.0310 -0.5821 -0.6049
31162SOL    HW197528   4.649   0.334   9.767  2.1649 -0.1251 -3.6888
31162SOL    HW297529   4.551   0.228   9.723 -0.6069  0.3662  0.6594
31163SOL     OW97530   8.917   5.018   2.014  0.9213 -0.1806  0.1212
31163SOL    HW197531   8.955   5.022   2.102  0.0100 -1.4780  0.6155
31163SOL    HW297532   8.935   4.928   1.985 -4.5648 -2.2486  1.8256
31164SOL     OW97533   8.613   2.666   7.152  0.3931 -0.6891  0.0475
31164SOL    HW197534   8.581   2.579   7.174  0.1444 -0.9442 -1.2392
31164SOL    HW297535   8.539   2.709   7.109  0.4720  0.2060  0.7733
31165SOL     OW97536   6.069   6.616   2.207 -0.7326 -0.4133  0.6009
31165SOL    HW197537   5.986   6.662   2.199 -0.8348 -0.7243 -0.1662
31165SOL    HW297538   6.045   6.524   2.220 -0.5269 -0.7694 -1.2433
31166SOL     OW97539   5.470  10.230   8.733  0.5428  0.3184  1.1209
31166SOL    HW197540   5.507  10.152   8.693 -0.8819  0.3288 -0.2977
31166SOL    HW297541   5.398  10.255   8.676  0.7427  2.4868  1.7202
31167SOL     OW97542   9.477   5.433   8.307  0.1190  0.9207 -0.0582
31167SOL    HW197543   9.388   5.405   8.286 -0.1867  0.7469  1.3888
31167SOL    HW297544   9.517   5.449   8.221 -0.6950 -0.8009 -0.8182
31168SOL     OW97545   9.183  10.206   3.132  0.0208  0.0887  0.1303
31168SOL    HW197546   9.258  10.186   3.187 -0.1875  2.0451  1.2288
31168SOL    HW297547   9.217  10.262   3.063 -0.4816  1.6454  1.0786
31169SOL     OW97548   6.697   7.285   9.317 -0.0564 -0.2946  0.0986
31169SOL    HW197549   6.755   7.242   9.254  1.1527  1.7368 -0.2608
31169SOL    HW297550   6.669   7.365   9.273 -1.4893 -0.2123  1.0886
31170SOL     OW97551   1.249   3.072   8.049  0.4382  0.3515 -0.2737
31170SOL    HW197552   1.289   3.078   8.135 -0.0846  2.5856 -0.1162
31170SOL    HW297553   1.158   3.045   8.067  0.4731  0.3005 -0.1720
31171SOL     OW97554   8.718   8.778   2.315 -0.0435 -0.5549 -0.2791
31171SOL    HW197555   8.636   8.733   2.333 -0.1644  0.0860  0.8779
31171SOL    HW297556   8.786   8.720   2.350 -0.1208 -0.3670  0.1911
31172SOL     OW97557   1.895   1.524   5.188  0.1330  0.3418  0.1556
31172SOL    HW197558   1.937   1.477   5.116  0.7791  0.3054  0.5504
31172SOL    HW297559   1.824   1.466   5.215 -1.1849  1.0787 -1.5102
31173SOL     OW97560  10.292   0.486   3.182 -0.0065 -0.6669  0.0316
31173SOL    HW197561  10.372   0.510   3.228 -0.3224 -0.6455  0.5774
31173SOL    HW297562  10.280   0.393   3.202 -1.3587 -0.1568  1.9049
31174SOL     OW97563   0.914   0.873   1.156  0.0615  0.3759  0.0440
31174SOL    HW197564   0.819   0.868   1.149  0.1215 -3.0696 -0.2081
31174SOL    HW297565   0.941   0.924   1.080 -1.4765 -1.5912 -1.9643
31175SOL     OW97566   3.103   3.331   5.493  0.1659 -0.5701  0.3904
31175SOL    HW197567   3.039   3.387   5.536 -0.1417 -2.8314  3.1284
31175SOL    HW297568   3.180   3.388   5.480 -1.0164  1.1475  0.5525
31176SOL     OW97569   6.053   0.774   4.967  0.5656  0.0441 -0.0833
31176SOL    HW197570   6.026   0.701   5.023 -0.5229  0.0304 -0.5819
31176SOL    HW297571   6.003   0.761   4.887  0.3885  1.3137 -0.1949
31177SOL     OW97572   9.599   9.098   1.596  0.1257  0.2931  0.0577
31177SOL    HW197573   9.668   9.120   1.534 -0.3493  2.5553  0.2506
31177SOL    HW297574   9.637   9.116   1.682 -0.4819  0.8938  0.2023
31178SOL     OW97575   7.177   8.272   8.408 -0.0787 -0.3233  0.2318
31178SOL    HW197576   7.125   8.341   8.367 -0.3986 -1.0797 -0.6614
31178SOL    HW297577   7.137   8.190   8.377  1.2773 -0.9186  0.0007
31179SOL     OW97578   4.231   6.461  10.000  0.0795  0.2973  0.3404
31179SOL    HW197579   4.140   6.432   9.994  0.6424 -1.7756  1.0510
31179SOL    HW297580   4.270   6.435   9.917  0.6419 -1.3409  1.0682
31180SOL     OW97581   0.264   5.217   3.936  0.2267 -0.2001  0.1881
31180SOL    HW197582   0.338   5.229   3.995  1.4475  1.4577 -1.5313
31180SOL    HW297583   0.295   5.153   3.871 -0.9624 -1.7294  1.0582
31181SOL     OW97584   9.644   2.110   5.798  0.3314 -0.2541  0.4122
31181SOL    HW197585   9.572   2.134   5.739  0.3516  1.8732  1.1717
31181SOL    HW297586   9.651   2.015   5.789 -0.9818 -0.2432 -1.4869
31182SOL     OW97587   0.834   6.014   7.340 -0.0258  0.1204  0.4299
31182SOL    HW197588   0.873   5.960   7.408 -0.8426 -0.3061  0.5706
31182SOL    HW297589   0.860   5.973   7.258  0.0969  0.0305  0.5140
31183SOL     OW97590   2.313   2.208   7.630  0.0727 -0.1821 -0.0762
31183SOL    HW197591   2.238   2.254   7.593 -1.7065 -1.8629  1.1893
31183SOL    HW297592   2.309   2.120   7.592 -0.3941 -1.1985  2.1435
31184SOL     OW97593   2.724   2.531   6.423 -0.2853  0.9437  0.2529
31184SOL    HW197594   2.720   2.609   6.368  1.3117  0.3538 -0.7686
31184SOL    HW297595   2.748   2.460   6.363 -1.9100 -0.3959  1.1160
31185SOL     OW97596   6.976   0.820   5.934  0.1014 -0.7143 -0.2595
31185SOL    HW197597   7.049   0.862   5.889 -0.1915  2.0169  1.5395
31185SOL    HW297598   7.012   0.738   5.968  1.7665 -0.3084 -0.9530
31186SOL     OW97599   2.688   4.212   6.820  0.8350 -0.1784 -0.1055
31186SOL    HW197600   2.634   4.269   6.764  1.8049  0.7390 -0.1253
31186SOL    HW297601   2.673   4.124   6.785  0.0812  0.1713 -0.7012
31187SOL     OW97602   9.375   6.872   5.100  0.4501 -0.2659  0.0331
31187SOL    HW197603   9.438   6.864   5.029  0.4787  3.6267 -0.6167
31187SOL    HW297604   9.426   6.860   5.180  1.2049 -0.9567 -0.5401
31188SOL     OW97605   6.581   2.711   3.458  0.0133  0.3334  0.0930
31188SOL    HW197606   6.527   2.665   3.522  1.0131 -1.6716 -0.3944
31188SOL    HW297607   6.653   2.650   3.440  1.7072  2.3357 -0.2825
31189SOL     OW97608   3.881   9.546   3.305 -0.0349  0.1140  0.0465
31189SOL    HW197609   3.823   9.573   3.376 -0.0590 -0.9420  0.4537
31189SOL    HW297610   3.853   9.456   3.285  1.2903 -0.3260  0.0768
31190SOL     OW97611   1.536   4.016   1.593 -0.6275  0.0833 -0.0118
31190SOL    HW197612   1.456   4.009   1.644  0.4931 -0.7146  1.7219
31190SOL    HW297613   1.529   3.946   1.528 -0.9083 -0.6443  0.7805
31191SOL     OW97614   8.357   4.553   9.445  0.2470  0.1365  0.0117
31191SOL    HW197615   8.348   4.548   9.540  1.1723  1.3980  0.1930
31191SOL    HW297616   8.442   4.515   9.426  0.0464 -0.1526 -0.3269
31192SOL     OW97617   8.954   5.245   4.086 -0.5709 -0.2800 -0.0814
31192SOL    HW197618   8.911   5.209   4.164 -0.5795 -0.2812 -0.0863
31192SOL    HW297619   8.952   5.340   4.098 -1.8112 -0.2073 -0.7244
31193SOL     OW97620   1.309   7.353   7.951  0.6134 -0.0814 -0.2020
31193SOL    HW197621   1.396   7.313   7.952  0.4682 -0.4497 -1.1187
31193SOL    HW297622   1.251   7.281   7.928  0.0132  0.0904  0.7193
31194SOL     OW97623   8.320   5.721   8.329 -0.5892  0.0406 -0.1138
31194SOL    HW197624   8.248   5.669   8.295  1.3313 -1.6257 -1.9860
31194SOL    HW297625   8.278   5.794   8.374 -3.3924 -1.1673 -0.5442
31195SOL     OW97626   0.380   8.570   2.285  0.0919  0.5997  0.5082
31195SOL    HW197627   0.436   8.611   2.351  1.5678  1.7113 -1.3199
31195SOL    HW297628   0.305   8.630   2.277  0.5745  1.1910  0.2699
31196SOL     OW97629   0.721   8.460   9.632 -0.3237  0.4301  0.6384
31196SOL    HW197630   0.670   8.536   9.660 -0.4083  1.3593 -1.8240
31196SOL    HW297631   0.812   8.483   9.653 -0.4744  0.6190  1.0999
31197SOL     OW97632   9.492   1.120   5.853 -0.5448 -0.4629  0.0804
31197SOL    HW197633   9.409   1.105   5.898 -0.7744 -2.1193 -0.8408
31197SOL    HW297634   9.551   1.053   5.888  0.6022  1.0069  1.1006
31198SOL     OW97635   9.066   9.925   3.930 -0.3987  0.4667  0.6173
31198SOL    HW197636   9.114   9.950   4.010 -0.3608  1.1127  0.4010
31198SOL    HW297637   8.979   9.964   3.942 -0.0589  1.5023 -0.1291
31199SOL     OW97638   7.184   1.091   8.055 -0.3066  0.3153 -0.2093
31199SOL    HW197639   7.199   1.090   7.961  0.1826 -0.5186 -0.1286
31199SOL    HW297640   7.150   1.004   8.075 -0.6553  0.5678  0.3562
31200SOL     OW97641   3.680   5.918   8.364  0.2586  0.3572  0.2153
31200SOL    HW197642   3.676   5.844   8.303 -1.6668 -0.1120  0.8358
31200SOL    HW297643   3.692   5.995   8.308  1.1490 -0.3008 -0.5281
31201SOL     OW97644   6.816   9.191   0.351  0.0260  0.5517 -0.1054
31201SOL    HW197645   6.845   9.213   0.263  2.3697  2.4536  1.0259
31201SOL    HW297646   6.721   9.203   0.348 -0.0588 -0.3370 -2.5629
31202SOL     OW97647   8.050   1.724   5.447 -0.0083 -0.9318  0.5923
31202SOL    HW197648   8.019   1.634   5.455 -1.8601 -0.4378 -0.3628
31202SOL    HW297649   8.083   1.731   5.358 -0.2213 -0.5824  0.5357
31203SOL     OW97650  10.181   7.278   7.470  0.9629  0.2799  0.7285
31203SOL    HW197651  10.141   7.191   7.466  0.6926  0.3628  1.4947
31203SOL    HW297652  10.241   7.280   7.395 -0.9188  0.4006 -0.8680
31204SOL     OW97653   4.520   4.749   5.625  0.2409 -0.0268  0.0734
31204SOL    HW197654   4.519   4.736   5.530 -0.1766 -1.4340  0.2420
31204SOL    HW297655   4.427   4.743   5.651  0.4161 -0.3218  0.6473
31205SOL     OW97656   4.750   9.469   3.673  0.4673 -0.0859  0.1991
31205SOL    HW197657   4.732   9.518   3.593  1.5301  0.7727  0.4727
31205SOL    HW297658   4.734   9.531   3.744  1.2142 -0.3140  0.5779
31206SOL     OW97659   1.852   3.906   9.004 -0.3659 -0.4922 -0.6436
31206SOL    HW197660   1.768   3.861   8.999 -0.0695 -1.0374 -0.7173
31206SOL    HW297661   1.914   3.840   9.035  0.7796 -1.1629 -3.9338
31207SOL     OW97662   3.036   2.352   7.373  0.4821 -0.2625  0.2667
31207SOL    HW197663   2.945   2.369   7.399  0.4287  1.9824 -1.1168
31207SOL    HW297664   3.085   2.350   7.455 -0.6213 -0.1431  0.9445
31208SOL     OW97665  10.091   0.980   5.011 -0.5500  0.1468 -0.0178
31208SOL    HW197666  10.058   0.964   4.922  3.7888 -1.6230 -1.5645
31208SOL    HW297667  10.173   1.028   4.998  1.1180 -1.6473  2.8288
31209SOL     OW97668   7.844   5.823   1.608  0.0506  0.0596  0.0616
31209SOL    HW197669   7.794   5.742   1.593 -0.2099  0.3989 -1.0511
31209SOL    HW297670   7.912   5.798   1.671  1.8423 -1.8494 -2.3972
31210SOL     OW97671   1.509   0.793   9.964 -0.1901 -0.4436 -0.8148
31210SOL    HW197672   1.552   0.713   9.994 -0.1484 -0.0763  0.1129
31210SOL    HW297673   1.489   0.776   9.871 -0.6067 -1.7024 -0.5085
31211SOL     OW97674   7.343   4.780   4.199 -0.2798  0.1618 -0.1481
31211SOL    HW197675   7.248   4.771   4.193 -0.1249 -1.7614 -0.4817
31211SOL    HW297676   7.364   4.752   4.289  0.1595 -2.1868 -0.9050
31212SOL     OW97677   2.145   2.233   7.252 -0.1800  0.6774 -0.2233
31212SOL    HW197678   2.088   2.186   7.313 -1.3631 -0.7157 -2.2772
31212SOL    HW297679   2.086   2.270   7.187  1.1475  0.2571 -1.7426
31213SOL     OW97680   5.945   3.551   8.823  0.7221 -0.2429  0.0534
31213SOL    HW197681   6.029   3.514   8.795  1.1395 -0.2068  1.2015
31213SOL    HW297682   5.967   3.611   8.894 -0.3941 -1.3634  1.4124
31214SOL     OW97683   7.696   3.351   6.973  0.1114 -0.3769 -0.5648
31214SOL    HW197684   7.613   3.337   6.927  0.4100  1.1266 -1.6210
31214SOL    HW297685   7.760   3.300   6.923 -0.1436 -1.6111  0.3028
31215SOL     OW97686   9.612   0.679   9.991  0.7480  0.0581  0.5252
31215SOL    HW197687   9.697   0.722   9.979  0.2475  0.7592 -0.7552
31215SOL    HW297688   9.626   0.617  10.062  1.4101  2.6572  2.8370
31216SOL     OW97689   5.534   6.669   6.552  0.4191 -0.4506  0.1849
31216SOL    HW197690   5.555   6.578   6.572  0.9547 -0.3425  0.1246
31216SOL    HW297691   5.439   6.669   6.539  0.5695 -1.2698 -1.1812
31217SOL     OW97692   7.659   5.664   4.233  0.2954 -0.7528  0.1556
31217SOL    HW197693   7.711   5.598   4.188  0.6776 -0.0259 -0.4999
31217SOL    HW297694   7.687   5.660   4.324  0.2601 -1.5397  0.1317
31218SOL     OW97695   3.064   9.752   0.732 -0.2728  1.0277  0.0539
31218SOL    HW197696   3.050   9.843   0.705  0.0212  0.9427 -0.4052
31218SOL    HW297697   3.118   9.758   0.810  0.5250  1.2253 -0.5034
31219SOL     OW97698  10.179  10.069   2.683  0.0358  0.7245  0.5572
31219SOL    HW197699  10.138  10.130   2.622 -0.9523  0.9438  1.4088
31219SOL    HW297700  10.122  10.070   2.760  0.8622 -0.0834  1.2056
31220SOL     OW97701   6.253  10.028   0.200  0.0354  0.2027  0.2974
31220SOL    HW197702   6.324   9.976   0.162 -0.3394 -0.0390 -0.0925
31220SOL    HW297703   6.252  10.109   0.149 -1.7697 -0.9311 -1.6565
31221SOL     OW97704   0.473   5.153   9.928  0.5015 -0.1673  0.2452
31221SOL    HW197705   0.560   5.172   9.963  1.3537 -0.0015 -1.7986
31221SOL    HW297706   0.454   5.228   9.871 -1.5192  0.3687  1.5025
31222SOL     OW97707   8.951   6.637   1.176  0.6931 -0.7126 -0.4803
31222SOL    HW197708   8.997   6.596   1.250  0.2536 -0.4475 -0.0487
31222SOL    HW297709   8.968   6.730   1.187 -0.7183 -0.5098  0.2514
31223SOL     OW97710   1.501   1.232   1.044  0.6509  0.0606 -0.0886
31223SOL    HW197711   1.450   1.170   1.095 -0.4900 -0.4490 -1.7575
31223SOL    HW297712   1.462   1.317   1.064  0.4260 -0.0913  0.1298
31224SOL     OW97713   8.359   9.745   7.965  0.6424 -0.6617 -0.1758
31224SOL    HW197714   8.342   9.803   8.039  0.9900 -0.3519 -0.3363
31224SOL    HW297715   8.326   9.792   7.889  2.1895 -0.0249 -0.5005
31225SOL     OW97716   8.165   9.712   8.261 -0.5303 -0.2184  0.3232
31225SOL    HW197717   8.096   9.779   8.260 -1.1951 -0.8921 -0.9610
31225SOL    HW297718   8.246   9.761   8.244 -0.9341  0.3468 -0.0361
31226SOL     OW97719   7.339   3.958   0.570  0.2858 -0.0896  0.7675
31226SOL    HW197720   7.248   3.974   0.595 -0.2257 -1.0891 -0.3659
31226SOL    HW297721   7.361   4.031   0.512  0.6259  0.7973  1.9569
31227SOL     OW97722   9.591   3.236   2.485  0.0999 -0.5947 -0.4799
31227SOL    HW197723   9.635   3.204   2.406  0.7703 -0.4019 -0.1912
31227SOL    HW297724   9.502   3.254   2.456  0.2417 -0.8603 -1.1121
31228SOL     OW97725   4.505   3.144   9.841  1.0048 -0.5008 -0.4578
31228SOL    HW197726   4.574   3.081   9.860 -0.4881 -1.9672  0.4205
31228SOL    HW297727   4.480   3.179   9.926 -0.2671 -1.0815 -0.5558
31229SOL     OW97728   9.759   9.408   2.182 -0.0321 -0.1163 -0.8571
31229SOL    HW197729   9.794   9.391   2.095 -1.3495 -0.4823 -1.3355
31229SOL    HW297730   9.687   9.345   2.192  0.7604 -0.8015  0.9184
31230SOL     OW97731   9.763   6.617   6.605  0.0808 -0.0648 -0.0791
31230SOL    HW197732   9.765   6.606   6.510 -0.4937  0.3503 -0.1469
31230SOL    HW297733   9.814   6.544   6.639  0.1753 -0.2940 -0.7041
31231SOL     OW97734   6.919   2.103   9.040 -0.7184  0.5437  0.6863
31231SOL    HW197735   6.907   2.072   9.130 -0.0811 -0.2237  0.5159
31231SOL    HW297736   6.897   2.028   8.986 -2.8634  1.5100  0.0950
31232SOL     OW97737   1.460   2.475   1.638  0.3376 -0.1128 -0.2200
31232SOL    HW197738   1.457   2.454   1.545 -0.4473  1.8133 -0.6552
31232SOL    HW297739   1.540   2.527   1.648  0.8741 -1.0265  0.3579
31233SOL     OW97740   7.344   0.865   9.683 -0.3481  0.0208  0.1941
31233SOL    HW197741   7.377   0.836   9.768  1.7771  0.0237 -0.5690
31233SOL    HW297742   7.298   0.789   9.648  1.6701 -1.1486 -0.0579
31234SOL     OW97743   5.613   3.998   2.664  0.5610 -0.0199  0.5509
31234SOL    HW197744   5.577   4.085   2.647  1.7110  0.0604 -1.8281
31234SOL    HW297745   5.590   3.947   2.587 -1.2836 -2.3332  2.4627
31235SOL     OW97746   5.425   5.546   5.050 -0.4898 -0.0466 -0.5174
31235SOL    HW197747   5.445   5.620   4.993  0.8451 -0.2255 -0.3172
31235SOL    HW297748   5.431   5.469   4.994  1.1049 -0.2484 -0.1205
31236SOL     OW97749   7.033   4.206   3.457  0.6392 -0.2091 -0.1296
31236SOL    HW197750   6.992   4.206   3.544 -0.4497  1.2593 -0.5941
31236SOL    HW297751   7.061   4.116   3.443 -1.1849 -0.9734  0.8437
31237SOL     OW97752   7.225   8.827   6.092  0.5372  0.3888 -0.3669
31237SOL    HW197753   7.150   8.885   6.074  0.8811  0.8014 -0.4990
31237SOL    HW297754   7.188   8.754   6.142  0.1863  0.9899  0.2700
31238SOL     OW97755   2.867   1.198   6.559 -0.0793  0.1004 -0.2388
31238SOL    HW197756   2.846   1.185   6.466  1.7238 -1.0638 -0.5483
31238SOL    HW297757   2.807   1.140   6.605  1.5223 -2.3527 -1.0094
31239SOL     OW97758   6.749   0.144   7.593  0.2173 -0.3052 -0.1624
31239SOL    HW197759   6.731   0.138   7.687 -1.4044 -0.1064 -0.4415
31239SOL    HW297760   6.809   0.071   7.576  0.3374 -0.4951  0.9708
31240SOL     OW97761   1.894   8.351   6.763  0.0175  0.7781 -0.5184
31240SOL    HW197762   1.852   8.385   6.842  0.2999  0.2214 -0.1302
31240SOL    HW297763   1.832   8.285   6.730  0.5602 -0.0125  0.0305
31241SOL     OW97764   7.885   9.370   2.071 -0.0527 -0.3486  0.0327
31241SOL    HW197765   7.807   9.348   2.020  0.7401 -1.8622 -0.5908
31241SOL    HW297766   7.860   9.355   2.162 -0.8891  0.5161 -0.0390
31242SOL     OW97767   8.475   8.228   2.468 -0.1470  0.6592 -0.1753
31242SOL    HW197768   8.519   8.143   2.462  0.1992  0.8897 -1.0701
31242SOL    HW297769   8.545   8.292   2.455 -0.7954  1.0282 -2.2875
31243SOL     OW97770   2.232   7.167   5.700  0.3129  0.0855 -0.4138
31243SOL    HW197771   2.226   7.080   5.738 -1.7055 -0.5181 -1.9296
31243SOL    HW297772   2.142   7.201   5.702  0.9567  1.9398 -0.3370
31244SOL     OW97773   8.463   8.963   1.982 -0.8807 -0.2957 -0.2200
31244SOL    HW197774   8.374   8.936   2.005 -0.2791 -1.8002  0.5030
31244SOL    HW297775   8.469   8.951   1.888 -1.8682  1.2278 -0.5145
31245SOL     OW97776  10.265   5.361   5.183 -0.0445  0.4923 -0.1885
31245SOL    HW197777  10.341   5.336   5.129  0.1317  1.1055 -0.2259
31245SOL    HW297778  10.265   5.297   5.254 -0.9761 -1.0775 -1.5167
31246SOL     OW97779   2.164   5.236   9.889 -0.3125 -0.5106 -0.5272
31246SOL    HW197780   2.258   5.236   9.870 -0.3555  0.4906 -0.7523
31246SOL    HW297781   2.158   5.249   9.984 -0.2561  2.9998 -0.8861
31247SOL     OW97782   0.973   9.309   8.810  0.4141  0.9247 -0.3826
31247SOL    HW197783   0.893   9.339   8.767 -1.3253  0.9552  2.6064
31247SOL    HW297784   0.975   9.215   8.795 -1.0467  0.6861  0.7195
31248SOL     OW97785   3.567   1.549   2.192  0.0191  0.1593  0.2075
31248SOL    HW197786   3.582   1.478   2.129  1.0299 -0.5522  1.2047
31248SOL    HW297787   3.620   1.622   2.159  0.4988 -0.1924  0.1837
31249SOL     OW97788   1.460   5.783   4.664 -0.2718 -0.4124 -0.7182
31249SOL    HW197789   1.481   5.691   4.647 -1.6381 -0.8234 -0.3292
31249SOL    HW297790   1.485   5.829   4.584  3.6238 -0.5201  0.2323
31250SOL     OW97791   4.595   1.695   5.172  0.6781 -0.8274 -0.8191
31250SOL    HW197792   4.559   1.715   5.085  2.7277 -0.6304 -1.6822
31250SOL    HW297793   4.519   1.671   5.225 -0.8155  0.5602 -2.2308
31251SOL     OW97794   1.960   3.760   7.527 -0.0214 -0.0407 -0.5881
31251SOL    HW197795   1.934   3.698   7.595 -0.4139 -0.0308 -0.7273
31251SOL    HW297796   2.056   3.756   7.526 -0.0454 -0.7918 -0.7291
31252SOL     OW97797   4.633   8.611   2.239 -0.5503 -0.1893 -0.2506
31252SOL    HW197798   4.603   8.566   2.159  1.3388 -0.5354 -0.8103
31252SOL    HW297799   4.579   8.574   2.308  1.6742 -4.5061 -0.4188
31253SOL     OW97800   3.374   5.219   6.075  1.0544 -0.4007 -0.2649
31253SOL    HW197801   3.329   5.188   5.997  1.4302 -0.0004 -0.6475
31253SOL    HW297802   3.430   5.146   6.102  1.1523 -0.4276 -0.5459
31254SOL     OW97803   1.944   4.018   2.449 -0.1055 -0.0708  0.4368
31254SOL    HW197804   1.975   3.928   2.453  0.5606  0.1836  1.1149
31254SOL    HW297805   1.934   4.036   2.356  0.5979 -0.5605  0.2618
31255SOL     OW97806   4.982   4.263   2.215 -0.8243  0.4271  0.3912
31255SOL    HW197807   4.965   4.305   2.300  2.8139  2.5692  0.2960
31255SOL    HW297808   5.045   4.194   2.235 -2.0826 -0.9795 -0.2976
31256SOL     OW97809   9.025   7.228   7.145 -0.3346  0.2972  0.4544
31256SOL    HW197810   9.115   7.259   7.132 -0.5795  0.2939 -1.7050
31256SOL    HW297811   9.035   7.135   7.167  0.2731 -1.2005 -4.7227
31257SOL     OW97812   6.766   8.718   7.154  0.1147 -0.1181 -0.3641
31257SOL    HW197813   6.770   8.781   7.226  5.2899  1.7524 -1.8567
31257SOL    HW297814   6.713   8.762   7.087 -3.3889 -1.2149  1.4188
31258SOL     OW97815   6.551   6.290   6.131  0.1617  0.0092  0.1003
31258SOL    HW197816   6.634   6.273   6.086 -0.4002 -0.7475 -0.6702
31258SOL    HW297817   6.558   6.240   6.212 -0.5144 -2.1301 -1.0851
31259SOL     OW97818  10.199   2.493   9.235  0.0101  0.2528 -0.4199
31259SOL    HW197819  10.152   2.451   9.307  0.2050  0.9838  0.1400
31259SOL    HW297820  10.284   2.449   9.233 -0.0131  0.2018 -0.2383
31260SOL     OW97821   6.677   6.824   4.259 -0.4401  0.0078  0.7130
31260SOL    HW197822   6.606   6.793   4.315  0.3730 -2.3214  0.5702
31260SOL    HW297823   6.658   6.786   4.173 -1.5012  3.2735 -0.6430
31261SOL     OW97824   9.822   8.488   4.706 -0.3974 -0.1745 -0.3816
31261SOL    HW197825   9.763   8.414   4.722 -0.4184 -0.0330  0.2037
31261SOL    HW297826   9.809   8.546   4.780 -0.5632  0.5471 -0.9636
31262SOL     OW97827   6.307   7.841   1.963 -0.1649  0.1531 -0.0796
31262SOL    HW197828   6.284   7.838   1.870  1.7626  0.8548 -0.6128
31262SOL    HW297829   6.290   7.752   1.994 -1.9086  0.1922 -0.7968
31263SOL     OW97830   6.909   9.729   4.634 -0.1354 -0.2474  0.3826
31263SOL    HW197831   6.949   9.678   4.564 -0.3330 -0.1940  0.2301
31263SOL    HW297832   6.951   9.815   4.628 -1.1788  0.2102 -0.5963
31264SOL     OW97833   4.082   3.812   5.463  0.3121  0.1505 -0.3304
31264SOL    HW197834   4.032   3.890   5.440 -0.1567  0.1378  0.5923
31264SOL    HW297835   4.113   3.829   5.552  0.9613 -0.3483 -0.4505
31265SOL     OW97836   1.338   5.521   1.023 -0.1757 -0.0553 -0.2675
31265SOL    HW197837   1.256   5.521   0.973  0.3029  2.5527 -1.2066
31265SOL    HW297838   1.318   5.571   1.102  0.5394  0.8461 -0.6340
31266SOL     OW97839   8.481   1.425   7.342 -0.5038 -0.2614 -0.0111
31266SOL    HW197840   8.416   1.488   7.373  1.3777  3.2942 -2.5741
31266SOL    HW297841   8.435   1.375   7.274 -1.0370  0.9517 -0.5601
31267SOL     OW97842   5.110   6.672   1.212 -0.8109  0.0299  0.3763
31267SOL    HW197843   5.140   6.620   1.287 -2.7467 -0.5906  0.7822
31267SOL    HW297844   5.071   6.608   1.153  0.5268  0.5347 -1.1305
31268SOL     OW97845   0.127   5.868   1.150 -0.0833 -0.2957 -0.1281
31268SOL    HW197846   0.106   5.775   1.151 -0.5565 -0.1923  0.9012
31268SOL    HW297847   0.134   5.890   1.057 -0.3183 -1.2737 -0.3912
31269SOL     OW97848   3.891   1.032   1.758 -0.3905 -0.2791  0.1240
31269SOL    HW197849   3.852   1.106   1.712 -2.0814  0.9293  3.2193
31269SOL    HW297850   3.985   1.050   1.758 -0.5090  0.4896 -1.3365
31270SOL     OW97851   0.649   4.687   3.610 -0.3200 -0.6754  0.2402
31270SOL    HW197852   0.609   4.773   3.605 -1.1218 -1.0122  0.6011
31270SOL    HW297853   0.662   4.660   3.519  1.2311  0.4000  0.1240
31271SOL     OW97854   2.300   5.241   0.760  0.8447  0.4005 -0.0847
31271SOL    HW197855   2.391   5.229   0.735  0.5187 -1.4191 -0.6070
31271SOL    HW297856   2.286   5.177   0.830 -0.2289  0.0445 -0.6009
31272SOL     OW97857   8.281   2.015   8.585  0.0002  0.2849 -0.5802
31272SOL    HW197858   8.201   1.972   8.615 -1.9150  2.7516 -1.8255
31272SOL    HW297859   8.313   2.062   8.662  0.8762 -1.4904  0.1904
31273SOL     OW97860   0.758   4.718   6.090 -0.4050 -0.3146 -0.2805
31273SOL    HW197861   0.717   4.787   6.037  0.8250  1.1510  0.6038
31273SOL    HW297862   0.685   4.668   6.125 -1.3533  0.7195 -0.7136
31274SOL     OW97863   6.195   7.669   0.742 -0.0856 -0.4000 -0.4466
31274SOL    HW197864   6.241   7.680   0.660  0.0659  2.2409 -0.0855
31274SOL    HW297865   6.221   7.744   0.795 -2.4780 -0.4036  0.8858
31275SOL     OW97866   7.420   4.251   3.564 -0.0446  0.2926 -0.2209
31275SOL    HW197867   7.472   4.207   3.497  0.0580  0.0617  0.0091
31275SOL    HW297868   7.483   4.273   3.632 -0.0983  0.7874 -0.3282
31276SOL     OW97869   4.355   3.502   1.077 -0.9564  0.0962 -0.2031
31276SOL    HW197870   4.370   3.491   0.983 -0.0365 -0.4101 -0.0072
31276SOL    HW297871   4.380   3.592   1.095 -1.8876  0.4359 -0.5813
31277SOL     OW97872   9.947   0.603   4.481  0.0781 -0.5098  0.0224
31277SOL    HW197873  10.017   0.639   4.534  0.2183  0.0038 -0.5007
31277SOL    HW297874   9.976   0.514   4.461  1.8637  0.5002 -2.3484
31278SOL     OW97875   3.763   7.927   3.537  0.0131  0.7363 -0.2091
31278SOL    HW197876   3.682   7.919   3.486  0.5837  1.2144 -1.2213
31278SOL    HW297877   3.820   7.980   3.482  0.5618  1.4856  1.0579
31279SOL     OW97878   5.354   0.342   5.272 -0.7194  0.1179  0.1954
31279SOL    HW197879   5.441   0.379   5.259 -0.5365  0.3495  1.8712
31279SOL    HW297880   5.368   0.266   5.329 -1.4864 -0.5527 -0.4868
31280SOL     OW97881   1.613   9.782   9.417 -0.3966 -0.3387  0.3275
31280SOL    HW197882   1.518   9.782   9.405 -0.3749 -3.5774 -0.9198
31280SOL    HW297883   1.625   9.809   9.509 -2.6531 -1.3345  0.9893
31281SOL     OW97884   9.281   5.433   9.172 -0.0022  0.0035  0.0218
31281SOL    HW197885   9.218   5.443   9.100  1.6103 -0.7284 -1.5688
31281SOL    HW297886   9.250   5.494   9.239 -1.4153  0.9320 -1.3914
31282SOL     OW97887   9.514   7.657   4.657  0.0070  0.3541  0.2474
31282SOL    HW197888   9.437   7.652   4.599  0.8039  1.6008 -0.9842
31282SOL    HW297889   9.484   7.709   4.732 -0.0338  1.9799 -0.8477
31283SOL     OW97890   3.526   4.852   3.595  0.4516  0.0230  0.0891
31283SOL    HW197891   3.489   4.900   3.669  0.6996  0.5435 -0.1170
31283SOL    HW297892   3.610   4.896   3.578  0.2037  0.1889 -0.7651
31284SOL     OW97893   7.123   0.767   6.625 -0.5869 -0.7977  0.0763
31284SOL    HW197894   7.194   0.772   6.561 -0.9773 -1.4829 -0.4249
31284SOL    HW297895   7.082   0.854   6.622 -1.1474 -1.0752 -1.2697
31285SOL     OW97896   6.978   6.377   3.530 -0.2317 -0.3555 -0.3076
31285SOL    HW197897   6.944   6.333   3.452  0.2690  2.7996 -2.4724
31285SOL    HW297898   7.070   6.350   3.533 -0.1745 -0.2665 -1.0052
31286SOL     OW97899   1.439   5.212   0.130  0.5816  0.7715  0.0043
31286SOL    HW197900   1.502   5.284   0.126  0.6036  0.7410 -0.1719
31286SOL    HW297901   1.365   5.242   0.076 -0.1315  1.3818  1.2556
31287SOL     OW97902   7.436   0.878   1.829 -0.1081 -0.0870 -0.6369
31287SOL    HW197903   7.460   0.947   1.890  0.6661  0.6452 -1.7295
31287SOL    HW297904   7.460   0.797   1.875 -0.7220  0.3605  0.5179
31288SOL     OW97905   3.882   8.176   4.703  0.2855  0.0585 -0.1184
31288SOL    HW197906   3.926   8.113   4.645 -1.7583 -1.5068 -0.0875
31288SOL    HW297907   3.839   8.122   4.769 -0.7908  1.5529  0.4589
31289SOL     OW97908   3.941   6.127   8.020  0.0385  0.0322 -0.6389
31289SOL    HW197909   3.885   6.063   7.975  0.8248 -0.5310 -0.8421
31289SOL    HW297910   3.952   6.091   8.108 -1.4519  1.1035  0.0189
31290SOL     OW97911   1.530   0.085   0.255 -0.1051  0.1440 -0.3506
31290SOL    HW197912   1.589   0.126   0.192  1.4377 -0.1813  0.8460
31290SOL    HW297913   1.581   0.015   0.295 -2.5376 -2.8557 -2.0602
31291SOL     OW97914   8.052   0.562   3.824 -0.0879  0.0737  0.5363
31291SOL    HW197915   7.990   0.496   3.855 -0.9082  1.0874  1.1433
31291SOL    HW297916   8.128   0.553   3.881  0.4460 -1.3291 -0.3484
31292SOL     OW97917   5.532   3.406   8.288  0.3854  0.2104  0.1838
31292SOL    HW197918   5.608   3.411   8.346  0.1615 -0.5196  0.5593
31292SOL    HW297919   5.462   3.448   8.337 -0.0553 -1.2747  0.9000
31293SOL     OW97920   2.534   8.716   4.386  0.3856 -0.5357  0.2842
31293SOL    HW197921   2.622   8.753   4.379  1.0317 -1.7940  1.3756
31293SOL    HW297922   2.507   8.701   4.295  0.0718  2.5358 -0.2164
31294SOL     OW97923   9.733   3.575   0.400  0.1285  0.4281 -0.3112
31294SOL    HW197924   9.731   3.670   0.388 -1.4483  0.5499  0.5950
31294SOL    HW297925   9.728   3.539   0.312 -2.9448  1.2415 -0.6109
31295SOL     OW97926   0.326   4.073   4.459  0.4359 -0.1140 -0.0387
31295SOL    HW197927   0.309   4.016   4.384 -0.4589 -1.7663  1.3468
31295SOL    HW297928   0.284   4.155   4.437 -1.7030 -1.2698 -0.4827
31296SOL     OW97929   1.776   1.693   9.952  0.2736 -0.1247 -0.0694
31296SOL    HW197930   1.858   1.652   9.980  0.7578  0.1646 -1.0434
31296SOL    HW297931   1.802   1.779   9.918 -0.7241  1.1156  2.0363
31297SOL     OW97932   2.336   4.628   0.541  0.0247 -0.1454 -0.6644
31297SOL    HW197933   2.388   4.700   0.578 -0.8080 -0.5836  1.5173
31297SOL    HW297934   2.245   4.653   0.558 -0.2930 -1.4747 -0.2726
31298SOL     OW97935   3.863   1.921   7.032  0.1206 -0.1509  0.2223
31298SOL    HW197936   3.949   1.908   7.073  0.3432 -0.9020 -0.4537
31298SOL    HW297937   3.801   1.883   7.093  0.2986  0.0664  0.5446
31299SOL     OW97938   1.051   3.627   7.637 -0.3046 -0.3686 -0.1338
31299SOL    HW197939   0.963   3.590   7.641 -0.4342 -0.0198  0.2797
31299SOL    HW297940   1.046   3.693   7.568 -1.2259  1.8601  1.9581
31300SOL     OW97941   1.031   3.830   0.047 -0.5267  0.0029  0.1126
31300SOL    HW197942   1.097   3.768   0.016 -0.4296 -0.3805  1.0520
31300SOL    HW297943   0.999   3.792   0.129 -3.6316 -1.0513 -1.4298
31301SOL     OW97944   3.952   2.019   7.880 -0.3797  0.0566 -0.4149
31301SOL    HW197945   4.022   1.972   7.926  1.0271  2.5279  0.1374
31301SOL    HW297946   3.967   1.999   7.787  0.9785  0.4086 -0.2921
31302SOL     OW97947   3.776   6.564   5.868 -0.2429  0.2609  0.3435
31302SOL    HW197948   3.756   6.567   5.775  0.1113 -4.9994 -0.2124
31302SOL    HW297949   3.871   6.576   5.873 -0.2898  0.7588  0.0890
31303SOL     OW97950   2.920   7.165   5.781 -0.0266  0.2138  0.2323
31303SOL    HW197951   2.825   7.174   5.771 -0.0589 -0.0028  0.3401
31303SOL    HW297952   2.950   7.134   5.696 -0.1625 -0.5533  0.4560
31304SOL     OW97953   9.384   4.387   7.697 -0.0469 -0.0100 -0.4294
31304SOL    HW197954   9.290   4.402   7.708 -0.0006  0.2232 -0.3661
31304SOL    HW297955   9.392   4.353   7.608 -0.3160 -1.0739 -0.0612
31305SOL     OW97956   6.365   6.583   4.211 -0.1199  0.1604 -0.7033
31305SOL    HW197957   6.368   6.547   4.122  0.1421  0.5414 -0.8547
31305SOL    HW297958   6.377   6.508   4.268  0.6211  0.0235 -1.0194
31306SOL     OW97959   7.205   9.598   4.182 -0.1767 -0.9089  0.3980
31306SOL    HW197960   7.216   9.689   4.211  0.4568 -0.2674 -1.7047
31306SOL    HW297961   7.272   9.585   4.116 -2.5614 -1.7049 -2.0509
31307SOL     OW97962   6.223   7.330   2.486 -0.5770 -0.2941  0.2198
31307SOL    HW197963   6.298   7.342   2.545  0.7717 -0.5318 -1.3707
31307SOL    HW297964   6.176   7.254   2.522  1.0403 -1.3561  0.2046
31308SOL     OW97965   3.817   6.279   2.331 -0.7286 -0.2794 -0.3664
31308SOL    HW197966   3.846   6.286   2.422 -1.1250  0.1109 -0.2662
31308SOL    HW297967   3.756   6.352   2.319 -1.1067 -0.6500 -0.7844
31309SOL     OW97968   6.311   6.006   5.712 -0.2093  0.1588 -0.3467
31309SOL    HW197969   6.370   6.012   5.788 -1.3009  0.5708  0.4897
31309SOL    HW297970   6.369   5.984   5.639  0.8909 -0.1192  0.5746
31310SOL     OW97971   8.005   3.417   1.528 -0.0282 -0.4982  0.5832
31310SOL    HW197972   7.944   3.488   1.509 -1.2860 -1.4353  0.9564
31310SOL    HW297973   7.984   3.391   1.618  1.8147 -0.0008  1.1958
31311SOL     OW97974   8.265   2.736   2.531 -0.2120 -0.3945 -0.4526
31311SOL    HW197975   8.312   2.652   2.531  0.6325  0.0612  0.5452
31311SOL    HW297976   8.226   2.741   2.619 -0.2116  0.2847 -0.4898
31312SOL     OW97977   9.697   5.490   4.841 -0.6662 -0.0784 -0.1735
31312SOL    HW197978   9.790   5.495   4.822  0.1043 -0.9490  2.8459
31312SOL    HW297979   9.669   5.582   4.848 -0.2303  0.1916 -1.7345
31313SOL     OW97980   2.638   5.786   9.713  0.2175  0.1169  0.4775
31313SOL    HW197981   2.689   5.838   9.775 -1.4887  1.8489  0.5122
31313SOL    HW297982   2.591   5.851   9.660 -0.6981 -1.3771 -0.6221
31314SOL     OW97983   5.181   5.693   5.273  0.0558 -1.0911 -0.0151
31314SOL    HW197984   5.184   5.686   5.178 -2.7918 -1.7832 -0.1669
31314SOL    HW297985   5.097   5.654   5.297 -0.5565  1.4340  2.5586
31315SOL     OW97986  10.187   6.099   6.572  0.1951  0.3857 -0.2822
31315SOL    HW197987  10.275   6.083   6.539 -0.6459 -2.7981 -1.3552
31315SOL    HW297988  10.134   6.110   6.493 -0.8277 -0.7480  0.2189
31316SOL     OW97989   3.113   9.247   3.677  0.5012  0.0376 -0.9568
31316SOL    HW197990   3.146   9.159   3.696 -0.0643  0.4155  2.6481
31316SOL    HW297991   3.030   9.232   3.632  0.4496 -1.2936 -0.4686
31317SOL     OW97992   5.229   0.076   7.919 -0.4588  0.5011 -0.7016
31317SOL    HW197993   5.221  -0.014   7.951  0.7391 -0.2372 -2.2910
31317SOL    HW297994   5.165   0.082   7.848  0.1368  0.5592 -1.2469
31318SOL     OW97995   6.882   8.284   7.385  0.0131  0.3592  0.3801
31318SOL    HW197996   6.814   8.246   7.440 -0.8651  0.3528 -0.6736
31318SOL    HW297997   6.873   8.379   7.397  0.9187  0.3235  1.5013
31319SOL     OW97998   6.025   2.427   8.818  0.2763 -0.0215 -0.2997
31319SOL    HW197999   5.994   2.420   8.909 -0.6859 -1.1282 -0.6816
31319SOL    HW298000   6.119   2.412   8.823  0.3696  0.7958  0.6102
31320SOL     OW98001   8.281   5.066   4.002 -0.5615 -0.1593  0.5852
31320SOL    HW198002   8.201   5.100   3.963 -0.2699 -1.6301 -1.4624
31320SOL    HW298003   8.351   5.120   3.964 -0.4114 -0.4202  0.4859
31321SOL     OW98004   9.435  10.228   4.646 -0.4360  0.1379 -0.3699
31321SOL    HW198005   9.530  10.213   4.653 -0.6511 -0.8849  0.6708
31321SOL    HW298006   9.397  10.141   4.641 -1.4287  0.4546  0.9320
31322SOL     OW98007   1.033   7.736   6.708  0.0182  0.2545 -0.0061
31322SOL    HW198008   1.025   7.819   6.755  0.9607 -1.2092  3.0373
31322SOL    HW298009   0.952   7.688   6.730 -0.4447  0.2344 -1.5911
31323SOL     OW98010   9.748   3.662   5.394 -0.4362 -0.1882 -0.4063
31323SOL    HW198011   9.739   3.569   5.414 -0.1550 -0.2905 -0.7466
31323SOL    HW298012   9.729   3.707   5.477  0.9306 -0.6118  0.1599
31324SOL     OW98013   3.204   0.260   5.290  0.1228  0.1340 -0.2411
31324SOL    HW198014   3.118   0.263   5.248 -0.1994 -0.0479  0.3979
31324SOL    HW298015   3.201   0.331   5.355  0.6266  0.4275 -0.5324
31325SOL     OW98016   2.001   7.366   1.671  0.2327  0.0526  0.3248
31325SOL    HW198017   1.971   7.435   1.730 -0.0937 -0.2005  0.4591
31325SOL    HW298018   2.041   7.301   1.728  0.3954  0.0573  0.2152
31326SOL     OW98019   4.833   7.442   2.163  0.3858  0.2541 -0.2009
31326SOL    HW198020   4.747   7.466   2.128 -0.2901  0.1640  1.3125
31326SOL    HW298021   4.851   7.507   2.231  1.4760  0.2023 -0.4136
31327SOL     OW98022   0.327   1.222   6.638 -0.4485 -0.3579  0.0282
31327SOL    HW198023   0.388   1.262   6.577 -0.6027  2.0264  1.3271
31327SOL    HW298024   0.266   1.174   6.582  0.6224  0.0031 -1.5220
31328SOL     OW98025   9.674   7.329   9.691  0.4041 -0.3873 -0.1112
31328SOL    HW198026   9.728   7.299   9.764  0.5393 -1.0631 -0.4772
31328SOL    HW298027   9.731   7.388   9.642  0.4450 -0.2406  0.1122
31329SOL     OW98028   6.193   6.634   7.401 -0.6917 -0.1294 -0.6419
31329SOL    HW198029   6.210   6.550   7.358 -0.9769 -0.8795  0.6859
31329SOL    HW298030   6.202   6.616   7.494  1.9430  1.8949 -0.3707
31330SOL     OW98031   5.581   6.453   0.412  0.1467  0.2783  0.1765
31330SOL    HW198032   5.618   6.386   0.470  0.5661  0.1394 -0.2475
31330SOL    HW298033   5.528   6.508   0.470 -0.2784 -0.4675  0.5219
31331SOL     OW98034   9.583   8.735   7.379 -0.6782 -0.0497 -0.2167
31331SOL    HW198035   9.520   8.797   7.415 -0.0534  0.9651 -0.8395
31331SOL    HW298036   9.555   8.722   7.289 -0.8223 -0.7115 -0.0837
31332SOL     OW98037   8.982   5.458   7.473 -0.6832  0.3382  0.0861
31332SOL    HW198038   8.960   5.521   7.405 -1.7378  1.1555  1.1276
31332SOL    HW298039   8.913   5.392   7.468  1.2819 -1.7103 -2.0566
31333SOL     OW98040   4.460   7.651   0.501  0.0783 -0.8945 -0.2638
31333SOL    HW198041   4.414   7.670   0.583  1.7886  1.5775  0.2402
31333SOL    HW298042   4.451   7.732   0.450 -0.4953 -2.1978 -2.3468
31334SOL     OW98043   4.417   3.570   9.942  0.6189 -0.3099  0.6448
31334SOL    HW198044   4.364   3.621   9.881  1.8517  0.3747  0.1221
31334SOL    HW298045   4.477   3.520   9.887  0.7978 -0.7673  1.2434
31335SOL     OW98046   8.717   8.269   8.173  0.1364 -0.1259  0.2217
31335SOL    HW198047   8.708   8.351   8.222 -0.5879 -0.2446  0.2957
31335SOL    HW298048   8.687   8.291   8.084  1.3121  0.0537 -0.1553
31336SOL     OW98049   0.484   6.536   3.780 -0.0981 -0.4668  0.1276
31336SOL    HW198050   0.576   6.525   3.803 -0.6249 -3.3788  1.2459
31336SOL    HW298051   0.474   6.493   3.695 -0.5587 -0.8005  0.3442
31337SOL     OW98052   6.607   8.487   0.367  0.5541 -0.3103 -0.6706
31337SOL    HW198053   6.575   8.577   0.361  0.0129 -0.4877 -0.4737
31337SOL    HW298054   6.701   8.494   0.350  0.5450  0.3142 -0.4787
31338SOL     OW98055   8.787   1.496   5.514 -0.4207 -0.0355 -0.4752
31338SOL    HW198056   8.830   1.449   5.585  0.3715  0.9276 -0.2996
31338SOL    HW298057   8.741   1.428   5.464 -0.1566 -0.8452  0.3660
31339SOL     OW98058   8.650   3.921   4.070  0.2368  0.0384 -0.9766
31339SOL    HW198059   8.723   3.981   4.056 -0.3346  0.8266 -0.6129
31339SOL    HW298060   8.625   3.891   3.982 -1.1072  2.2998 -1.4300
31340SOL     OW98061   1.888   3.245   7.611  0.3030 -0.7449 -0.1419
31340SOL    HW198062   1.972   3.214   7.646  0.1148 -1.1743 -0.0559
31340SOL    HW298063   1.849   3.295   7.683 -0.4697 -2.3434  0.6144
31341SOL     OW98064   5.310   9.216   7.065  0.4614 -0.2815  0.0904
31341SOL    HW198065   5.326   9.297   7.113 -0.5832  0.1723 -0.2999
31341SOL    HW298066   5.396   9.175   7.058  0.7255 -0.1404  1.9314
31342SOL     OW98067   4.836   5.313   1.300  0.0797 -0.3993 -0.4962
31342SOL    HW198068   4.756   5.365   1.295 -1.0561 -2.0455 -0.1895
31342SOL    HW298069   4.880   5.342   1.380 -1.3411 -0.9858  0.5326
31343SOL     OW98070   8.669   5.496   9.506  0.0403  0.2967  0.2831
31343SOL    HW198071   8.701   5.553   9.436  0.2399  0.3475  0.4159
31343SOL    HW298072   8.612   5.552   9.559 -0.8308  0.0335 -0.3436
31344SOL     OW98073   2.670   2.773   3.320  0.1412  0.1623  0.3685
31344SOL    HW198074   2.734   2.834   3.285  1.0077 -0.9022  0.0540
31344SOL    HW298075   2.702   2.687   3.294 -2.1817 -0.3386 -1.0833
31345SOL     OW98076   0.069   0.005   4.346 -0.4488 -0.2336 -0.4182
31345SOL    HW198077   0.036  -0.020   4.260 -0.2914  1.0659 -0.8756
31345SOL    HW298078   0.164   0.007   4.335 -0.4274 -0.1061 -0.2086
31346SOL     OW98079   6.375   0.188   2.847 -0.3513  0.0374 -0.3448
31346SOL    HW198080   6.435   0.129   2.893 -1.1361 -1.3520 -1.0390
31346SOL    HW298081   6.346   0.138   2.771  0.7157  2.1525 -2.2801
31347SOL     OW98082   4.668   1.345   5.911  0.0304  0.2080 -0.0170
31347SOL    HW198083   4.710   1.346   5.997 -0.1851  0.8393  0.0820
31347SOL    HW298084   4.739   1.363   5.849  0.5754 -2.1005 -0.1633
31348SOL     OW98085   4.621   1.160   2.428 -0.4509 -0.1392  0.0043
31348SOL    HW198086   4.643   1.120   2.513 -2.8110  0.6254  1.0620
31348SOL    HW298087   4.695   1.138   2.372  1.5330 -0.1567  2.4184
31349SOL     OW98088   8.124   0.161   2.573  0.4382 -0.1229 -0.4148
31349SOL    HW198089   8.177   0.108   2.513  0.5905 -0.0318 -0.3607
31349SOL    HW298090   8.054   0.102   2.601  0.6060 -0.2953 -0.3572
31350SOL     OW98091   9.644   9.628   9.371  0.6662  0.5669 -0.1284
31350SOL    HW198092   9.571   9.584   9.415  0.9048  0.2971 -0.0015
31350SOL    HW298093   9.658   9.708   9.421  0.0193  0.9511 -0.5475
31351SOL     OW98094   2.453   9.785   7.686  0.1151  0.3885  0.5750
31351SOL    HW198095   2.390   9.810   7.619  0.2789  0.6837  0.5288
31351SOL    HW298096   2.538   9.808   7.648  0.2150  0.4504  0.8370
31352SOL     OW98097   5.192   0.125   3.715  0.4739  0.2006 -0.0999
31352SOL    HW198098   5.206   0.041   3.671 -1.4863 -0.7143  0.8874
31352SOL    HW298099   5.266   0.133   3.775  0.7615 -0.7513 -0.3073
31353SOL     OW98100   8.954   3.173   1.840  0.2567  0.5675  0.0804
31353SOL    HW198101   9.002   3.186   1.759 -0.8312  1.8255 -0.4041
31353SOL    HW298102   8.966   3.080   1.861  1.6793  0.5336 -0.7620
31354SOL     OW98103   8.401   7.858   1.668  0.1580 -0.2763  0.1501
31354SOL    HW198104   8.403   7.928   1.602  1.0069 -0.3175  0.1192
31354SOL    HW298105   8.315   7.866   1.709 -0.8090 -0.9002 -1.6593
31355SOL     OW98106   9.050   5.993   1.253 -0.0130 -0.2905 -0.5207
31355SOL    HW198107   9.073   5.907   1.289  0.6129  1.1977  2.9863
31355SOL    HW298108   9.127   6.019   1.203  0.4230 -1.0874 -0.2846
31356SOL     OW98109   6.803   4.168   4.548 -0.1607 -0.9941  0.2816
31356SOL    HW198110   6.780   4.092   4.602  0.7007 -1.6318 -0.2210
31356SOL    HW298111   6.872   4.136   4.490 -0.9025 -0.2652 -1.0606
31357SOL     OW98112   9.962   8.962   3.565  0.7150  0.2736 -0.0884
31357SOL    HW198113   9.941   9.011   3.645  1.0973  0.3719 -0.0467
31357SOL    HW298114  10.024   8.895   3.594 -1.1310 -1.3899  0.2009
31358SOL     OW98115   5.257   9.595   2.626 -0.4275 -0.5781 -1.0090
31358SOL    HW198116   5.262   9.579   2.532  1.2323 -2.1017 -0.6930
31358SOL    HW298117   5.317   9.668   2.641  0.3216 -1.1987 -0.9597
31359SOL     OW98118   0.109   6.363   5.757 -0.1428  0.5245  0.0647
31359SOL    HW198119   0.122   6.290   5.698  0.9475  1.0271 -0.3615
31359SOL    HW298120   0.071   6.324   5.836 -0.0688 -0.4060 -0.3469
31360SOL     OW98121   0.436   3.222   8.300  0.2760 -0.5037  0.4123
31360SOL    HW198122   0.417   3.316   8.291  1.2083 -0.3226  0.2302
31360SOL    HW298123   0.497   3.218   8.374  2.9078 -0.5656 -1.6080
31361SOL     OW98124   7.387   7.424   7.194 -0.1979 -0.1541  0.1368
31361SOL    HW198125   7.473   7.412   7.236 -0.2045  0.6462  0.4003
31361SOL    HW298126   7.346   7.494   7.244 -0.1454  0.9447 -1.2917
31362SOL     OW98127   6.227   4.938   9.170  0.4159  0.4218 -0.1837
31362SOL    HW198128   6.229   4.979   9.257 -1.4597  1.3548 -0.5293
31362SOL    HW298129   6.270   5.001   9.113  0.6445  0.3152 -0.1310
31363SOL     OW98130   5.224   6.557   2.532  0.1190 -0.1715  0.3291
31363SOL    HW198131   5.161   6.626   2.511  0.1102 -0.3892 -0.3984
31363SOL    HW298132   5.278   6.549   2.453 -0.4382 -1.6049  0.0524
31364SOL     OW98133   5.530   9.894   9.433 -0.3893  0.7775 -0.4736
31364SOL    HW198134   5.447   9.904   9.480  0.2244  1.1607  0.5744
31364SOL    HW298135   5.507   9.849   9.352 -1.5021  0.1622  0.1644
31365SOL     OW98136   7.746   6.641   8.570  0.7768  0.3519 -0.0446
31365SOL    HW198137   7.667   6.608   8.526  0.7206  0.2229  0.1534
31365SOL    HW298138   7.713   6.712   8.626  0.7007 -0.1623  0.5666
31366SOL     OW98139   0.433   7.335   3.758 -0.4784 -0.0865  0.0193
31366SOL    HW198140   0.410   7.321   3.850 -0.8783 -1.1087 -0.2296
31366SOL    HW298141   0.348   7.337   3.713 -0.2146 -1.4448 -0.5739
31367SOL     OW98142   7.362   1.804   0.630 -0.4455  0.3014  0.4697
31367SOL    HW198143   7.380   1.893   0.600  1.3352  0.2631  1.2974
31367SOL    HW298144   7.343   1.755   0.550  2.0500  0.6648 -0.4368
31368SOL     OW98145   2.248   6.118   2.905 -0.1470 -0.0337 -0.8438
31368SOL    HW198146   2.251   6.028   2.938 -0.1734  0.0196 -0.6932
31368SOL    HW298147   2.264   6.110   2.811  1.6559 -0.0517 -0.5760
31369SOL     OW98148   9.919   9.139   1.173  0.4755 -0.2014  0.3314
31369SOL    HW198149   9.967   9.126   1.091 -1.3178 -0.1341 -0.7775
31369SOL    HW298150   9.982   9.182   1.231  1.4776  0.7552 -1.3768
31370SOL     OW98151   6.927   4.998   6.060 -0.1345 -0.1779  0.3808
31370SOL    HW198152   7.006   5.004   6.006  0.0105  0.7985  0.6763
31370SOL    HW298153   6.955   5.027   6.147 -0.2568 -2.1667  1.1237
31371SOL     OW98154   2.033   2.074   1.016  0.1790 -0.6474  0.5304
31371SOL    HW198155   2.086   2.152   0.999  0.4572 -0.3410  2.5352
31371SOL    HW298156   1.977   2.065   0.939 -0.0598  1.7079  0.3696
31372SOL     OW98157   5.102   0.915   0.863  0.0071  0.4325 -0.3857
31372SOL    HW198158   5.118   0.958   0.947  1.3136  0.4545 -0.6160
31372SOL    HW298159   5.080   0.986   0.803 -0.6784  0.4439 -0.1295
31373SOL     OW98160   2.766   4.410   5.949 -0.2485 -0.7063 -0.4229
31373SOL    HW198161   2.842   4.453   5.909 -0.5640 -0.2559 -0.5427
31373SOL    HW298162   2.705   4.397   5.877 -1.2220  0.9688  0.0458
31374SOL     OW98163   2.877   4.453   9.019  0.3031 -0.2790 -0.1716
31374SOL    HW198164   2.944   4.497   9.070  0.5813 -1.0936  0.1812
31374SOL    HW298165   2.795   4.473   9.064  0.2729  0.8250 -0.6760
31375SOL     OW98166   9.221   3.538   9.826  0.2415  0.3763 -0.1741
31375SOL    HW198167   9.283   3.593   9.875 -1.5640  1.8410  0.5730
31375SOL    HW298168   9.163   3.502   9.893 -1.5799  1.5049 -1.0778
31376SOL     OW98169   0.750   0.791   8.553  0.4901  0.1199  0.0264
31376SOL    HW198170   0.708   0.707   8.566  0.2726  0.1837 -0.2593
31376SOL    HW298171   0.756   0.801   8.458  0.7210  0.3216  0.0605
31377SOL     OW98172   2.428   9.240   7.572  0.2041 -0.2478 -0.8309
31377SOL    HW198173   2.515   9.262   7.606  0.8581  0.1516 -2.7024
31377SOL    HW298174   2.445   9.172   7.506 -0.7551  0.7318 -2.1145
31378SOL     OW98175   0.720   6.848   4.779 -0.7451  0.0540  0.6843
31378SOL    HW198176   0.693   6.914   4.715  0.9629  0.4479  0.3379
31378SOL    HW298177   0.731   6.768   4.727  0.6917  0.3862  0.4484
31379SOL     OW98178   5.238   2.049   2.124 -0.0988 -0.1225  0.1656
31379SOL    HW198179   5.209   2.136   2.097 -0.3028 -0.5780 -1.1571
31379SOL    HW298180   5.160   1.994   2.116  0.3637 -0.7136 -0.3761
31380SOL     OW98181   4.594   6.822   3.981  0.2417 -0.4397 -0.4724
31380SOL    HW198182   4.563   6.905   3.947 -0.3370 -0.7658 -0.7392
31380SOL    HW298183   4.658   6.791   3.916 -0.9789 -1.1410 -1.3731
31381SOL     OW98184   4.948   5.950   9.047  0.4398 -0.3441  0.3204
31381SOL    HW198185   4.995   5.952   9.130  0.0979  0.5613  0.5058
31381SOL    HW298186   4.899   5.868   9.049  0.5854 -0.4220  0.9257
31382SOL     OW98187   2.013   1.099   6.394  0.4270 -0.6845 -0.4811
31382SOL    HW198188   2.009   1.192   6.417 -0.0786 -1.3294  2.3603
31382SOL    HW298189   2.107   1.082   6.382  0.5228  0.1559 -1.0683
31383SOL     OW98190   8.957   1.292   3.905 -0.3627  0.4328  0.4714
31383SOL    HW198191   8.901   1.223   3.870 -0.5368  1.1153 -0.6468
31383SOL    HW298192   9.040   1.282   3.857 -0.6949  1.5517 -0.3628
31384SOL     OW98193   3.389   3.498   3.516  0.0039  0.1482 -0.0672
31384SOL    HW198194   3.451   3.494   3.443 -2.0539  0.1294 -1.9605
31384SOL    HW298195   3.351   3.410   3.520  0.3057  0.0609  1.2711
31385SOL     OW98196   2.250   5.801   7.352  0.6052  0.1588 -0.5441
31385SOL    HW198197   2.231   5.895   7.351  2.4913  0.5882  0.0580
31385SOL    HW298198   2.245   5.776   7.444  0.1897 -0.3364 -0.6940
31386SOL     OW98199   7.369   5.454   8.003  0.5718  0.2176 -0.5091
31386SOL    HW198200   7.447   5.417   8.043  1.7299  0.6671 -2.2353
31386SOL    HW298201   7.351   5.534   8.053  1.2106  0.1072 -0.0940
31387SOL     OW98202   2.018   6.190   2.220  0.4368  0.0884 -0.2570
31387SOL    HW198203   2.024   6.174   2.125  0.1889 -0.4647 -0.1848
31387SOL    HW298204   2.100   6.156   2.255  0.2013 -0.4138 -0.1848
31388SOL     OW98205   0.379   8.878   5.497 -0.3253 -0.4912  0.5098
31388SOL    HW198206   0.401   8.967   5.526 -1.3698 -0.3644  0.9600
31388SOL    HW298207   0.338   8.890   5.411  1.7885 -0.7766 -0.6059
31389SOL     OW98208   6.104   5.674   7.873 -0.9015 -0.0082  0.1286
31389SOL    HW198209   6.072   5.587   7.852 -1.2415 -0.0565  0.8128
31389SOL    HW298210   6.077   5.688   7.964  0.1483  0.3494  0.4021
31390SOL     OW98211   9.509   8.328   3.266 -0.0843 -0.0928 -0.0159
31390SOL    HW198212   9.584   8.269   3.258  0.2973  0.2388  0.9339
31390SOL    HW298213   9.481   8.344   3.176 -0.3351 -1.8878 -0.3013
31391SOL     OW98214   3.562   3.448   2.014  0.5149 -0.3270  0.0561
31391SOL    HW198215   3.552   3.402   2.098 -0.0293 -0.0339  0.1582
31391SOL    HW298216   3.634   3.404   1.971  0.1261 -1.1538  0.2381
31392SOL     OW98217   2.000   6.268   4.282 -0.6627  0.2688 -0.3123
31392SOL    HW198218   1.983   6.306   4.368  1.1824  0.2112  0.1052
31392SOL    HW298219   2.094   6.279   4.269 -0.7226 -0.7769 -1.8194
31393SOL     OW98220  10.159   2.220   6.039  0.0218  0.0551 -0.4136
31393SOL    HW198221  10.237   2.164   6.045  0.2582  0.4568  0.4146
31393SOL    HW298222  10.135   2.217   5.947  1.1798  0.1436 -0.7379
31394SOL     OW98223   5.103   2.918   8.992  0.6691 -0.3063 -0.4375
31394SOL    HW198224   5.094   2.849   9.057  0.5122 -1.5915 -1.7684
31394SOL    HW298225   5.198   2.931   8.983  0.6860  1.2315  1.3607
31395SOL     OW98226   0.339   3.790   6.433 -0.1897 -0.1094 -0.2352
31395SOL    HW198227   0.396   3.814   6.360 -1.2710 -0.1463 -1.1158
31395SOL    HW298228   0.256   3.833   6.414 -0.3024  0.4329  1.3284
31396SOL     OW98229   3.756   0.389   7.711  0.0563  0.0733 -0.0027
31396SOL    HW198230   3.728   0.443   7.785 -1.6692 -1.2535  0.3809
31396SOL    HW298231   3.824   0.333   7.745  0.3164  0.4881  0.1697
31397SOL     OW98232   9.708   4.601   0.697  0.2956  0.0143  0.7933
31397SOL    HW198233   9.715   4.696   0.689 -0.7717  0.0530  0.0406
31397SOL    HW298234   9.697   4.585   0.790  0.0615  0.6612  0.8807
31398SOL     OW98235   8.188   6.879   5.354 -0.3562  0.1671  0.4735
31398SOL    HW198236   8.123   6.848   5.417  0.9593 -0.0873  1.7636
31398SOL    HW298237   8.272   6.872   5.401  0.4110  2.1598 -0.5048
31399SOL     OW98238   2.866   4.618   9.358  0.2743 -0.0820  0.0570
31399SOL    HW198239   2.845   4.698   9.311 -1.2550 -0.5881 -0.1859
31399SOL    HW298240   2.791   4.561   9.343 -0.0905 -0.4523  2.7215
31400SOL     OW98241   7.460   9.381   3.712  0.0678 -0.1713 -0.4175
31400SOL    HW198242   7.397   9.372   3.640 -1.0044 -0.4104  0.5190
31400SOL    HW298243   7.407   9.410   3.786  1.4607  1.9951 -0.1942
31401SOL     OW98244   7.245   6.166   2.241 -0.6473 -0.5581 -0.0202
31401SOL    HW198245   7.299   6.149   2.164 -0.1634 -0.2800  0.2494
31401SOL    HW298246   7.308   6.167   2.314 -1.4969 -5.1145  1.0860
31402SOL     OW98247   4.499   6.041   5.374 -0.0114  0.4295 -0.1176
31402SOL    HW198248   4.582   6.024   5.332 -1.0046  0.3115 -2.1507
31402SOL    HW298249   4.465   6.119   5.330 -1.2335  0.1402  0.2515
31403SOL     OW98250   9.216   2.508   4.650  0.2652  0.3973 -0.0590
31403SOL    HW198251   9.177   2.499   4.737 -0.0295  1.8414 -0.0238
31403SOL    HW298252   9.305   2.538   4.668  0.5102 -0.2006 -0.2410
31404SOL     OW98253   5.835   6.270   4.490 -0.2256 -0.1722  0.2655
31404SOL    HW198254   5.807   6.258   4.399 -0.4190  0.8316  0.1810
31404SOL    HW298255   5.783   6.206   4.539 -0.6411 -0.2365 -0.2464
31405SOL     OW98256   0.026   7.018   5.990 -0.4626 -0.1408  0.0771
31405SOL    HW198257  -0.045   7.053   6.044 -0.5949  0.0599 -0.2227
31405SOL    HW298258  -0.013   6.943   5.945 -0.3197 -0.3777  0.3456
31406SOL     OW98259   6.311   3.197   6.864  0.6645 -0.4877 -0.3761
31406SOL    HW198260   6.221   3.222   6.887  0.8544  0.1162 -0.2622
31406SOL    HW298261   6.323   3.112   6.906  0.6131  0.0686  0.8214
31407SOL     OW98262   2.531   1.440   6.591  0.0297  0.4227  0.0852
31407SOL    HW198263   2.627   1.445   6.599 -0.1719  3.3726  2.6776
31407SOL    HW298264   2.505   1.373   6.653  0.3562  0.7846  0.6234
31408SOL     OW98265   2.084   9.800   7.872 -0.4770  0.2629  0.4060
31408SOL    HW198266   2.150   9.732   7.884  0.2483  0.4311 -2.0280
31408SOL    HW298267   2.058   9.792   7.780 -2.0910  1.7626  0.6857
31409SOL     OW98268   9.108   0.102   9.092  0.3666  0.4744 -0.0093
31409SOL    HW198269   9.114   0.188   9.134 -1.2890  0.0903  1.1300
31409SOL    HW298270   9.195   0.064   9.101  0.8796  1.6883  0.2428
31410SOL     OW98271   1.461   5.790   3.265  0.6467 -0.4984 -0.3288
31410SOL    HW198272   1.501   5.833   3.190  0.3315 -1.1151 -0.8582
31410SOL    HW298273   1.433   5.705   3.232 -1.0111 -0.1286  0.0462
31411SOL     OW98274   5.258   1.407   6.935 -0.1293 -0.1625  0.4516
31411SOL    HW198275   5.293   1.431   6.849  1.3536 -0.2985  1.0012
31411SOL    HW298276   5.164   1.393   6.919  0.0931 -0.0521 -1.1115
31412SOL     OW98277   4.476   2.016   8.182  0.4956 -0.1124 -0.6497
31412SOL    HW198278   4.439   2.034   8.096  2.9694 -1.1224 -2.0322
31412SOL    HW298279   4.549   2.077   8.191  1.4173 -1.2573 -0.1028
31413SOL     OW98280   9.679   4.084   1.540  0.0966  0.5742  0.4799
31413SOL    HW198281   9.590   4.067   1.572  0.5510 -2.0861  0.5823
31413SOL    HW298282   9.669   4.156   1.477 -2.3713 -0.5374 -0.5324
31414SOL     OW98283   0.596   5.885   6.712 -0.1708 -0.3111 -0.0894
31414SOL    HW198284   0.581   5.815   6.775 -0.2495  0.1125  0.3705
31414SOL    HW298285   0.522   5.945   6.725 -0.5955 -0.5912 -1.1074
31415SOL     OW98286   9.273   5.781   4.858  0.1703  0.0587 -0.3756
31415SOL    HW198287   9.222   5.848   4.904  2.1804  0.2565  1.7257
31415SOL    HW298288   9.227   5.700   4.877  0.1439  0.3271  0.8142
31416SOL     OW98289   8.223   5.356   6.419 -0.3294  0.4129 -0.6126
31416SOL    HW198290   8.135   5.340   6.387  0.3869 -0.5739 -2.1952
31416SOL    HW298291   8.257   5.427   6.365 -0.3792  1.3048  0.4835
31417SOL     OW98292   5.399   1.541   8.734 -0.2078  0.1109 -0.5080
31417SOL    HW198293   5.430   1.565   8.647  0.1230 -1.8607 -0.9753
31417SOL    HW298294   5.304   1.556   8.730 -0.1523  0.3380 -1.1021
31418SOL     OW98295   8.107   3.286   4.591 -0.1144  0.2420 -0.3339
31418SOL    HW198296   8.151   3.297   4.506  0.6900  0.6593  0.1290
31418SOL    HW298297   8.168   3.323   4.655 -0.5069 -0.5041  0.4861
31419SOL     OW98298   4.279   5.853   3.081 -0.1125 -0.4484  0.0330
31419SOL    HW198299   4.361   5.805   3.095 -0.1842 -0.2725  1.0804
31419SOL    HW298300   4.297   5.941   3.114 -0.4600 -0.1570 -0.5298
31420SOL     OW98301   3.152   0.971   7.938  0.1818 -0.4417  0.3380
31420SOL    HW198302   3.111   1.049   7.899  2.3539 -0.1308 -1.5858
31420SOL    HW298303   3.190   1.002   8.020 -0.5694  0.0538  0.5058
31421SOL     OW98304   3.042   7.727   5.323  0.2746  0.2388 -0.1269
31421SOL    HW198305   3.013   7.669   5.253  1.1161 -1.1452  0.6305
31421SOL    HW298306   3.119   7.771   5.288  2.2506 -2.3114  0.6895
31422SOL     OW98307   2.218   0.730  10.196 -0.4063 -0.8334 -0.1895
31422SOL    HW198308   2.176   0.645  10.210 -1.0974 -0.5042 -0.2275
31422SOL    HW298309   2.178   0.763  10.116 -0.5021 -0.2513  0.0991
31423SOL     OW98310   2.341   8.758   7.082 -0.4196  0.0409 -0.2370
31423SOL    HW198311   2.402   8.693   7.118 -0.7022  0.1556  0.4604
31423SOL    HW298312   2.358   8.756   6.987 -1.5330 -2.1942 -0.4637
31424SOL     OW98313   5.041   9.752   8.908 -0.1268  0.6284  0.3115
31424SOL    HW198314   4.963   9.797   8.874  0.0718 -0.3324 -1.5355
31424SOL    HW298315   5.076   9.705   8.832 -0.3273 -2.6659  2.0669
31425SOL     OW98316   6.704   0.831   5.067  0.1106  0.1420  0.6265
31425SOL    HW198317   6.781   0.807   5.119 -0.3810  0.1949  1.3843
31425SOL    HW298318   6.642   0.867   5.130 -0.0650  1.2703 -0.1460
31426SOL     OW98319   8.442   5.058   2.365 -0.1805  0.5728  0.2757
31426SOL    HW198320   8.438   5.154   2.358  1.2943  0.6605  0.2026
31426SOL    HW298321   8.431   5.027   2.275 -1.2006  0.6330  0.3709
31427SOL     OW98322   0.854   9.129   6.672 -0.0826  0.3819 -0.0712
31427SOL    HW198323   0.780   9.096   6.620  0.1335 -0.0315 -0.1268
31427SOL    HW298324   0.921   9.150   6.606 -0.3267  1.2385 -0.0596
31428SOL     OW98325   3.303   1.052   1.855  0.1202  0.2785  0.4825
31428SOL    HW198326   3.237   1.040   1.787 -1.1267  0.6156  1.6061
31428SOL    HW298327   3.254   1.053   1.937  1.7730 -2.0958  1.6001
31429SOL     OW98328   8.360   8.328   6.931  0.1223  0.3619 -0.5460
31429SOL    HW198329   8.285   8.359   6.881  0.8611 -0.7623 -2.4550
31429SOL    HW298330   8.326   8.256   6.984 -0.5497  1.1928  0.1787
31430SOL     OW98331   3.693   6.565   5.608 -0.0108  0.2399 -0.0601
31430SOL    HW198332   3.704   6.471   5.595  0.9097  0.1697  1.0358
31430SOL    HW298333   3.622   6.589   5.549  1.0264 -0.7686 -1.7944
31431SOL     OW98334   2.947  10.125   0.995 -0.0158 -0.5759 -0.2807
31431SOL    HW198335   2.991  10.184   0.935  0.0916  0.2945  0.6243
31431SOL    HW298336   2.901  10.063   0.938  2.6548 -1.7871 -1.2623
31432SOL     OW98337   4.346   7.586   3.400 -0.2762 -0.2468  0.0073
31432SOL    HW198338   4.301   7.565   3.318  2.1516 -1.0014 -1.2417
31432SOL    HW298339   4.414   7.648   3.374  1.4029 -1.5207  1.1441
31433SOL     OW98340   5.561   7.589   0.002  0.3697  0.3380  0.3280
31433SOL    HW198341   5.491   7.597  -0.062  0.6338  0.1009  0.0090
31433SOL    HW298342   5.535   7.648   0.073 -0.8785 -0.7753  0.8619
31434SOL     OW98343   4.212   7.157   5.980 -0.2534  0.6176 -0.2042
31434SOL    HW198344   4.222   7.247   6.010 -0.6089  1.3085 -1.9964
31434SOL    HW298345   4.143   7.162   5.913  0.6270 -0.7547 -1.2632
31435SOL     OW98346   6.572   5.615   0.202  0.1515  0.3552 -0.5484
31435SOL    HW198347   6.493   5.669   0.201  0.0779  0.2466 -0.6149
31435SOL    HW298348   6.644   5.679   0.198  0.0843  0.4681 -4.3663
31436SOL     OW98349   7.150   7.004   4.164  0.1110  0.1763 -0.5035
31436SOL    HW198350   7.106   6.919   4.172  1.9719 -0.8765 -0.7977
31436SOL    HW298351   7.137   7.047   4.248 -1.8450  0.1263 -0.7461
31437SOL     OW98352   4.387   9.984   4.510 -0.4237 -0.0626  0.0737
31437SOL    HW198353   4.368   9.908   4.565 -2.2741 -0.5215 -1.1125
31437SOL    HW298354   4.418   9.947   4.427 -0.2012  0.5253 -0.1114
31438SOL     OW98355   6.618   3.380  10.289 -0.3242  0.1288 -0.4426
31438SOL    HW198356   6.672   3.301  10.284 -0.7163 -0.2220  0.5952
31438SOL    HW298357   6.671   3.447  10.246  0.8971 -0.2338  0.4247
31439SOL     OW98358   8.543   8.389   5.808 -0.0778 -0.2587  0.6150
31439SOL    HW198359   8.612   8.371   5.744 -1.6946  0.6051 -1.4900
31439SOL    HW298360   8.529   8.484   5.802  0.0041 -0.0710  2.6275
31440SOL     OW98361   5.881   3.637   2.614 -0.2416  0.2479  0.5286
31440SOL    HW198362   5.860   3.722   2.575 -2.6540 -0.0940  0.9223
31440SOL    HW298363   5.825   3.575   2.569 -0.0788 -0.8023  1.7150
31441SOL     OW98364   5.494   3.403   7.715 -0.1607  0.6900  0.6518
31441SOL    HW198365   5.430   3.332   7.703  0.0296  0.6090  0.0753
31441SOL    HW298366   5.526   3.392   7.805 -2.2302  1.7924  1.6093
31442SOL     OW98367   3.160   4.183   0.191 -0.3759  0.3624  0.5756
31442SOL    HW198368   3.127   4.164   0.103  2.1163  0.6457 -0.5058
31442SOL    HW298369   3.093   4.149   0.249 -1.8808 -0.3038 -1.4279
31443SOL     OW98370   0.786   3.323   2.644  0.3072 -0.2745 -0.2624
31443SOL    HW198371   0.834   3.288   2.569  3.2951 -0.4516  1.5603
31443SOL    HW298372   0.731   3.251   2.674  0.9092 -0.9980 -0.8525
31444SOL     OW98373   3.707   5.266   8.293  0.1678  0.0350  0.6132
31444SOL    HW198374   3.689   5.182   8.336 -0.1393  0.6748  1.7516
31444SOL    HW298375   3.621   5.309   8.288  0.4116  0.5136  0.5116
31445SOL     OW98376   7.077   4.123   5.117 -0.6097 -0.1502  0.8788
31445SOL    HW198377   7.014   4.178   5.162 -0.9842  0.0626  0.1117
31445SOL    HW298378   7.038   4.107   5.031  0.6646  0.5411  0.1376
31446SOL     OW98379   2.311   9.100   7.982  0.2203 -0.4095  0.4214
31446SOL    HW198380   2.239   9.047   7.948 -0.6426  0.2270  1.2070
31446SOL    HW298381   2.388   9.045   7.971 -0.3887 -1.1364 -0.3712
31447SOL     OW98382   8.658   1.455   9.454 -0.3234 -0.0830 -0.2638
31447SOL    HW198383   8.659   1.385   9.390 -2.2562 -0.3724 -0.0318
31447SOL    HW298384   8.644   1.411   9.538 -0.9772  0.5151 -0.0435
31448SOL     OW98385   8.901   4.992  10.163 -0.2955  0.7706 -0.0311
31448SOL    HW198386   8.933   5.045  10.090 -0.6419 -0.2046 -0.9191
31448SOL    HW298387   8.966   5.004  10.232  1.7953 -0.7763 -1.5975
31449SOL     OW98388   4.636   7.996   6.138 -0.0754 -0.4663  0.6357
31449SOL    HW198389   4.646   7.986   6.233 -2.0933 -1.4002  0.8003
31449SOL    HW298390   4.548   8.030   6.127  0.4124  0.3828 -0.9061
31450SOL     OW98391   2.798   7.330   6.473 -0.5655  0.0630 -0.4066
31450SOL    HW198392   2.734   7.259   6.471 -1.0484  0.4488  0.7205
31450SOL    HW298393   2.762   7.396   6.415 -2.5739  1.3812  2.1528
31451SOL     OW98394   7.732   4.940   1.162 -0.8019 -0.2703 -0.7884
31451SOL    HW198395   7.699   4.882   1.229 -0.4290 -1.0795 -1.2866
31451SOL    HW298396   7.800   4.991   1.205 -0.7047 -0.6420 -0.5020
31452SOL     OW98397   8.881   9.367  10.187  0.1094 -0.0645  0.3245
31452SOL    HW198398   8.934   9.412  10.120  0.1965 -1.7029 -0.7877
31452SOL    HW298399   8.904   9.410  10.269  1.2912  0.9033 -0.4750
31453SOL     OW98400   3.329   9.988   8.693  0.1146 -0.2849  0.4650
31453SOL    HW198401   3.358   9.994   8.784 -2.3798  0.6871  1.2731
31453SOL    HW298402   3.308   9.895   8.681 -0.5171 -0.2497  1.2272
31454SOL     OW98403   1.804   7.665   3.088 -0.0341 -0.0473  0.2168
31454SOL    HW198404   1.813   7.652   2.994 -1.2116  0.3005  0.0422
31454SOL    HW298405   1.877   7.722   3.112 -0.1312  0.4352 -0.6102
31455SOL     OW98406   6.095   3.558   5.599 -0.0601 -0.2089  0.1200
31455SOL    HW198407   6.166   3.618   5.575 -0.9946  0.6018 -0.6896
31455SOL    HW298408   6.061   3.592   5.681 -0.9974  0.7791 -0.6475
31456SOL     OW98409   2.993   5.052   5.117  0.2591 -0.2272  0.3961
31456SOL    HW198410   2.962   4.977   5.169  0.0242  0.2685  0.9798
31456SOL    HW298411   3.015   5.014   5.032  1.0069 -1.1258  0.9651
31457SOL     OW98412   5.622   1.195   5.487  0.0886 -0.6845 -0.3249
31457SOL    HW198413   5.549   1.253   5.509  0.8338 -0.6020  2.2852
31457SOL    HW298414   5.697   1.254   5.479  0.8005 -1.1838  2.0794
31458SOL     OW98415   6.854   2.150   4.632  0.8218  0.1996  0.2488
31458SOL    HW198416   6.918   2.085   4.605 -0.9299 -0.5087 -2.5850
31458SOL    HW298417   6.829   2.195   4.552 -1.8905  0.7234  1.2623
31459SOL     OW98418   4.676   6.368   2.837 -0.0172 -0.1373  0.0254
31459SOL    HW198419   4.752   6.332   2.792 -0.5002 -0.1316 -0.8078
31459SOL    HW298420   4.690   6.345   2.929  0.9974 -0.1221 -0.1084
31460SOL     OW98421   2.977   2.332   6.942 -0.5141 -0.2930 -0.1878
31460SOL    HW198422   3.044   2.265   6.926 -1.5543 -1.2581 -0.7006
31460SOL    HW298423   2.941   2.311   7.028 -1.3481 -0.8786 -0.6605
31461SOL     OW98424   1.072   4.063   0.178 -0.2137 -0.3753 -0.3651
31461SOL    HW198425   1.076   3.993   0.112 -1.5455  1.6192 -2.7020
31461SOL    HW298426   0.982   4.093   0.175  0.6307  2.3498 -0.4738
31462SOL     OW98427   9.932   7.539   5.340 -0.0871 -0.2825 -0.0210
31462SOL    HW198428   9.934   7.592   5.261  0.7129  1.3943  1.0628
31462SOL    HW298429  10.021   7.545   5.376 -0.5277 -0.6642  1.2065
31463SOL     OW98430   9.655   5.502   1.186 -0.2595  0.3142 -0.2520
31463SOL    HW198431   9.709   5.548   1.122 -0.5113 -2.0932 -2.3177
31463SOL    HW298432   9.709   5.428   1.215 -0.0259  1.4897  2.6690
31464SOL     OW98433   2.342   0.184   4.940  0.2453  0.0516 -0.4198
31464SOL    HW198434   2.370   0.107   4.989  1.1185  0.7323  0.1771
31464SOL    HW298435   2.356   0.160   4.848  3.1662  0.4480 -0.1588
31465SOL     OW98436   6.740   8.930   4.451  0.3472  0.6244  0.1512
31465SOL    HW198437   6.645   8.927   4.447  0.4001 -1.2700 -0.4215
31465SOL    HW298438   6.761   9.024   4.451 -1.4605  1.0690 -0.6451
31466SOL     OW98439   7.412   4.378   7.398 -0.2826  0.6094 -0.4401
31466SOL    HW198440   7.400   4.473   7.389  4.8741  1.5350 -0.7918
31466SOL    HW298441   7.420   4.364   7.492  0.9231  0.9545 -0.4737
31467SOL     OW98442   4.959   0.878   8.962 -0.1987 -0.3144  0.0892
31467SOL    HW198443   4.982   0.966   8.990 -0.6223 -0.5913  1.3686
31467SOL    HW298444   4.881   0.889   8.908  1.0172  0.2959 -1.6301
31468SOL     OW98445   8.436   4.666   2.840  0.5490  0.2720  0.1510
31468SOL    HW198446   8.430   4.648   2.934 -1.6896 -0.0449 -0.0056
31468SOL    HW298447   8.433   4.580   2.798 -4.5789  0.4231 -0.3652
31469SOL     OW98448   4.052   1.298   6.929  0.1095 -0.0783  0.7534
31469SOL    HW198449   3.983   1.290   6.863 -0.0368  2.3729  0.5312
31469SOL    HW298450   4.008   1.276   7.011 -0.0883 -1.6597  0.2715
31470SOL     OW98451   0.748   9.145   1.332  0.0271  0.0927 -0.4387
31470SOL    HW198452   0.707   9.228   1.357  0.5255  0.4641 -0.8351
31470SOL    HW298453   0.709   9.081   1.392  0.7066  0.8419  0.8593
31471SOL     OW98454   9.337   3.984   2.837 -0.1619  0.2004  0.2926
31471SOL    HW198455   9.269   3.992   2.905 -1.6588 -2.0066 -0.8262
31471SOL    HW298456   9.316   3.902   2.792  2.7603 -0.1056 -0.7075
31472SOL     OW98457   8.422   7.155   4.470  0.3438  0.0534  0.3654
31472SOL    HW198458   8.404   7.222   4.535  2.3511 -0.3041  1.3605
31472SOL    HW298459   8.372   7.079   4.498 -0.1721  0.4385  0.4940
31473SOL     OW98460   9.470   0.389   0.853  0.5072  0.1274 -0.1146
31473SOL    HW198461   9.473   0.325   0.782  1.3746  0.0344  0.0001
31473SOL    HW298462   9.494   0.340   0.932 -0.6357  0.1889  0.2830
31474SOL     OW98463   2.469   2.813   2.116 -0.1124 -0.0586 -0.1053
31474SOL    HW198464   2.388   2.860   2.136  0.1649  0.3917 -0.0372
31474SOL    HW298465   2.492   2.843   2.028  0.8448  1.0570  0.4991
31475SOL     OW98466   5.266   8.276   3.358  0.2563  0.3202 -0.0448
31475SOL    HW198467   5.273   8.181   3.360 -0.8766  0.1796 -1.2760
31475SOL    HW298468   5.173   8.293   3.339  0.4241  1.6673  0.2305
31476SOL     OW98469   1.592   7.291   0.257  0.0681 -0.0363  0.2628
31476SOL    HW198470   1.622   7.249   0.337 -0.6196  1.8378  1.5682
31476SOL    HW298471   1.503   7.321   0.277  0.5195  2.0144 -0.5416
31477SOL     OW98472   4.005   1.816   4.601  0.1484 -0.1338  0.3105
31477SOL    HW198473   4.059   1.757   4.654  0.3446 -0.0027  0.2584
31477SOL    HW298474   4.059   1.894   4.590  0.0014 -0.0567  0.1406
31478SOL     OW98475   2.100   6.321   5.456 -0.6550  0.0287  0.5648
31478SOL    HW198476   2.045   6.301   5.380  0.1597  0.1984 -0.0794
31478SOL    HW298477   2.144   6.402   5.433  3.8393 -2.5864 -1.2144
31479SOL     OW98478   7.820   1.544   7.055  0.3284 -0.5085 -0.3065
31479SOL    HW198479   7.898   1.559   7.109 -0.7886 -1.2505  1.6079
31479SOL    HW298480   7.841   1.465   7.004  1.0744 -0.3217 -0.2936
31480SOL     OW98481   4.461   9.801   7.243  0.6402 -0.5056 -0.2081
31480SOL    HW198482   4.423   9.727   7.196 -0.1307  0.3350 -0.9215
31480SOL    HW298483   4.556   9.787   7.237  0.5044 -1.4506 -0.2841
31481SOL     OW98484   7.164   2.795   1.130  0.1123 -0.3582  0.2448
31481SOL    HW198485   7.113   2.873   1.153 -1.7903 -1.1918 -0.9609
31481SOL    HW298486   7.148   2.734   1.202 -0.4947 -0.5719 -0.0696
31482SOL     OW98487   9.687   4.940   9.389 -0.5724 -0.5218 -0.0368
31482SOL    HW198488   9.597   4.943   9.357 -0.7832 -0.7212  0.5391
31482SOL    HW298489   9.738   4.983   9.319 -1.4795  2.3098  0.8903
31483SOL     OW98490   3.769   9.725   0.513 -0.0964 -0.0610  0.1728
31483SOL    HW198491   3.737   9.783   0.583 -0.5532  0.9797 -0.8654
31483SOL    HW298492   3.704   9.656   0.507  0.2799 -0.5228  1.2085
31484SOL     OW98493   5.910   7.612   0.240  0.5753 -0.1987 -0.1494
31484SOL    HW198494   5.875   7.614   0.151 -0.3903  1.1995  0.2295
31484SOL    HW298495   5.960   7.531   0.245 -1.0789 -1.3333 -1.3115
31485SOL     OW98496   8.369   0.276   8.610  0.2054  0.2148 -0.3196
31485SOL    HW198497   8.447   0.305   8.657  0.5317  0.1444 -0.8085
31485SOL    HW298498   8.401   0.208   8.551 -0.8036 -2.5960  2.1023
31486SOL     OW98499   1.066   6.697   2.195  0.0158 -0.6165 -0.3289
31486SOL    HW198500   0.971   6.704   2.185  0.0291  2.1177  0.7958
31486SOL    HW298501   1.078   6.663   2.283  0.0752  0.4058  0.0637
31487SOL     OW98502   4.471   5.693   1.316  0.4426 -0.5058  0.0355
31487SOL    HW198503   4.442   5.773   1.361  0.0299 -0.9479  0.5728
31487SOL    HW298504   4.443   5.705   1.225 -0.1408 -0.2812  0.2367
31488SOL     OW98505   7.343   3.302   0.096 -0.6710  0.4608  0.4019
31488SOL    HW198506   7.267   3.269   0.144 -0.3160  1.4422  1.7114
31488SOL    HW298507   7.346   3.249   0.016 -2.6020  0.2594  0.4059
31489SOL     OW98508   4.906   1.689   8.931 -0.0656 -0.0660  0.1532
31489SOL    HW198509   4.861   1.769   8.956 -0.3665 -0.1966  0.0439
31489SOL    HW298510   4.835   1.626   8.915  0.1195 -0.0623 -0.7672
31490SOL     OW98511   5.933   9.164   7.530  0.3520 -0.2987  0.2037
31490SOL    HW198512   5.973   9.141   7.446  2.1801  0.9517  0.6736
31490SOL    HW298513   5.935   9.083   7.581  2.3633 -0.3023  0.2020
31491SOL     OW98514   2.808   4.912   2.472  0.2008  0.5613  0.4446
31491SOL    HW198515   2.756   4.864   2.407 -1.2574  1.0189  1.2392
31491SOL    HW298516   2.817   4.850   2.544  1.3817  0.2381  0.0399
31492SOL     OW98517   0.616   4.872   2.150  0.8501  0.8442 -0.4956
31492SOL    HW198518   0.526   4.871   2.183  1.4249  1.4724  1.1803
31492SOL    HW298519   0.606   4.884   2.055 -0.8976 -1.6674 -0.7354
31493SOL     OW98520   7.708   1.409   2.154  0.5549 -0.1184  0.0817
31493SOL    HW198521   7.703   1.498   2.119 -0.4096 -0.3663 -0.4488
31493SOL    HW298522   7.801   1.398   2.177  0.8168  0.7817 -0.4714
31494SOL     OW98523   9.706   7.374   5.436  0.0560  0.0751 -0.4468
31494SOL    HW198524   9.706   7.379   5.531 -1.3521  1.3585 -0.4786
31494SOL    HW298525   9.787   7.328   5.414  0.3643 -0.3023  1.3595
31495SOL     OW98526   2.332   2.201   4.217 -0.0866  0.3149  0.1844
31495SOL    HW198527   2.342   2.294   4.234 -0.2977  0.3186  0.2971
31495SOL    HW298528   2.265   2.196   4.149  0.4790  0.2811 -0.3724
31496SOL     OW98529   5.071   4.506   3.305 -0.0319 -0.1882  0.5729
31496SOL    HW198530   5.160   4.472   3.304 -0.0660 -0.2711 -0.2338
31496SOL    HW298531   5.037   4.489   3.217 -0.7582  0.0680  0.7901
31497SOL     OW98532  10.090   5.958  10.032  0.0531  0.3045  0.5910
31497SOL    HW198533  10.080   5.865  10.010 -0.1274  0.5215 -0.2502
31497SOL    HW298534  10.014   5.978  10.086  0.4131 -0.1823  1.3137
31498SOL     OW98535   4.334   2.680   3.458  0.0590  1.0363 -0.4525
31498SOL    HW198536   4.392   2.618   3.502 -2.1390  0.8795  2.5206
31498SOL    HW298537   4.378   2.765   3.467  1.0465  0.5629 -0.6796
31499SOL     OW98538   7.019   0.296   2.362 -0.8416  0.3076 -0.3717
31499SOL    HW198539   7.015   0.319   2.454  1.9777  0.1850 -0.1248
31499SOL    HW298540   6.996   0.376   2.316 -2.2898  0.3638  0.4092
31500SOL     OW98541   2.545   8.589   7.215 -0.4168  0.0329 -0.6754
31500SOL    HW198542   2.555   8.494   7.207  0.5431  0.2718 -2.9990
31500SOL    HW298543   2.635   8.623   7.216 -0.7529  0.9539  0.0014
31501SOL     OW98544   8.628   8.909   8.547  0.1842 -0.0541 -0.3595
31501SOL    HW198545   8.542   8.931   8.512  0.5608  1.1920 -0.5788
31501SOL    HW298546   8.680   8.989   8.534  1.5086 -0.9321 -0.6596
31502SOL     OW98547   6.533   8.563   4.554  0.1138  0.0377  0.3579
31502SOL    HW198548   6.620   8.575   4.517 -0.0223 -1.5187 -0.5406
31502SOL    HW298549   6.480   8.531   4.481 -0.7813 -0.7126  1.3089
31503SOL     OW98550   5.423   3.323   3.644  0.2185 -0.6033  0.2702
31503SOL    HW198551   5.387   3.362   3.564  0.8269 -2.5342 -1.0188
31503SOL    HW298552   5.492   3.384   3.672 -0.3077  0.3204 -0.4087
31504SOL     OW98553   9.531   7.855   9.905 -1.0227  0.3113  0.2908
31504SOL    HW198554   9.460   7.889   9.850 -0.2402  1.9518  0.2368
31504SOL    HW298555   9.592   7.814   9.843 -1.4364 -0.2358  0.2377
31505SOL     OW98556   9.545   2.857   7.178  0.2161 -0.4485  0.7266
31505SOL    HW198557   9.458   2.877   7.143  0.8902  2.5354  0.4719
31505SOL    HW298558   9.528   2.811   7.260 -1.4946 -2.0338 -0.4307
31506SOL     OW98559   0.064   3.767   2.995  0.2754  0.0915  0.4228
31506SOL    HW198560   0.093   3.811   2.915 -0.2852  1.3316  0.8753
31506SOL    HW298561   0.053   3.837   3.059 -0.5342 -0.7186  1.2128
31507SOL     OW98562   8.003   3.427   7.850 -0.3870 -0.7007  0.2224
31507SOL    HW198563   8.091   3.392   7.860  0.1676 -0.0529 -1.9587
31507SOL    HW298564   8.015   3.516   7.818 -1.8384 -0.1419  1.1112
31508SOL     OW98565   7.191   8.944   0.619  0.0815  0.4846 -0.0516
31508SOL    HW198566   7.213   8.894   0.540 -0.3388  0.5598 -0.2215
31508SOL    HW298567   7.239   8.900   0.689 -0.5630 -0.3861 -0.1366
31509SOL     OW98568   0.484   8.549   5.063  0.1287 -0.1771  0.1553
31509SOL    HW198569   0.511   8.460   5.085 -1.8329 -0.4840  1.6196
31509SOL    HW298570   0.542   8.606   5.113  1.1147 -0.6133 -0.4623
31510SOL     OW98571   6.807   5.338   6.704 -0.9577 -0.1112 -0.1299
31510SOL    HW198572   6.748   5.375   6.638  0.8680 -0.3966 -2.0190
31510SOL    HW298573   6.824   5.410   6.764 -1.8851  0.4442 -0.5150
31511SOL     OW98574   1.645   4.914   0.331  0.7341  0.5721 -0.6763
31511SOL    HW198575   1.734   4.949   0.332  0.4200  1.3717  0.0954
31511SOL    HW298576   1.657   4.819   0.329  1.5967  0.6833 -1.3685
31512SOL     OW98577   4.937   8.509   3.553 -0.2055  0.3389 -0.5071
31512SOL    HW198578   4.938   8.546   3.465  2.0763  1.7848  0.0405
31512SOL    HW298579   4.899   8.578   3.608  0.1228  0.1916 -0.0841
31513SOL     OW98580   5.085   6.146   7.697 -0.2021  0.3046  0.5329
31513SOL    HW198581   5.123   6.127   7.611 -2.2074  0.4974 -0.4618
31513SOL    HW298582   5.054   6.237   7.689 -1.1248  0.0527  1.1661
31514SOL     OW98583   5.197   0.192   8.751  0.1987 -0.5806 -0.0401
31514SOL    HW198584   5.108   0.190   8.717  0.5802  2.2547 -1.5063
31514SOL    HW298585   5.242   0.121   8.705 -1.2476 -2.0484  0.7244
31515SOL     OW98586   6.082   9.030   5.694 -0.2514  0.3451 -0.3774
31515SOL    HW198587   6.023   9.089   5.646  0.7470  1.7670  0.0488
31515SOL    HW298588   6.054   8.942   5.670 -2.3918  0.9741 -0.3393
31516SOL     OW98589   5.172   6.938   4.914  0.0613 -0.2372  0.0242
31516SOL    HW198590   5.166   7.031   4.937 -1.1173 -0.9284  2.8902
31516SOL    HW298591   5.219   6.898   4.987 -0.1461 -2.0255 -0.7660
31517SOL     OW98592   7.442   1.421   8.276 -0.5270  0.3366  0.0071
31517SOL    HW198593   7.391   1.501   8.286  0.5661  0.9674  0.6172
31517SOL    HW298594   7.528   1.442   8.312  0.1213 -0.7639 -0.8441
31518SOL     OW98595   2.502   9.309   8.939  0.1784  0.0796  0.4250
31518SOL    HW198596   2.428   9.304   8.880 -0.2546 -2.8954  1.0736
31518SOL    HW298597   2.464   9.327   9.025  0.3712 -0.0525  0.5392
31519SOL     OW98598   9.616   9.513   6.506 -0.0013 -0.3490  0.2860
31519SOL    HW198599   9.624   9.607   6.526 -1.3353 -0.2343  0.4113
31519SOL    HW298600   9.691   9.473   6.550  1.3175  0.7830 -0.8286
31520SOL     OW98601   1.531   2.698   6.259 -0.2558  0.4314 -0.6334
31520SOL    HW198602   1.570   2.666   6.340 -0.2420 -1.5332 -1.3779
31520SOL    HW298603   1.479   2.774   6.286 -0.4266 -0.3032  1.2511
31521SOL     OW98604   4.956   4.082   1.819  0.3838 -0.0047 -0.3553
31521SOL    HW198605   4.924   4.078   1.729 -1.4146 -1.0479  0.2680
31521SOL    HW298606   4.909   4.155   1.858 -1.4981 -1.6178  0.6031
31522SOL     OW98607  10.091   1.852   2.179 -0.1082 -0.2998 -0.2430
31522SOL    HW198608  10.063   1.770   2.219  0.9606 -0.6785 -0.2575
31522SOL    HW298609  10.028   1.866   2.108  1.8946 -3.1773 -2.8388
31523SOL     OW98610   7.796   2.791   3.267  0.2413 -0.2557 -0.4058
31523SOL    HW198611   7.774   2.809   3.358 -0.3879  0.0654 -0.6159
31523SOL    HW298612   7.768   2.700   3.253 -3.6360  0.9448 -1.4304
31524SOL     OW98613   2.861   3.459   2.825  0.0578  0.3025  0.6272
31524SOL    HW198614   2.817   3.464   2.910  0.4643 -0.4651  0.8852
31524SOL    HW298615   2.921   3.385   2.833 -1.4760 -1.2273 -1.0553
31525SOL     OW98616   7.154   9.310   9.997 -0.0220  0.4024  0.1468
31525SOL    HW198617   7.215   9.330   9.926 -0.0415  2.0140  0.5423
31525SOL    HW298618   7.168   9.381  10.061 -0.9213 -0.2915  1.1490
31526SOL     OW98619   3.063  10.152   6.658  0.4071  0.1010  0.6457
31526SOL    HW198620   3.026  10.221   6.713 -0.4411 -0.2567  0.5311
31526SOL    HW298621   3.150  10.136   6.696  0.8410  1.5981  0.3474
31527SOL     OW98622   2.619   5.977   6.168  0.2138 -0.6893  0.0782
31527SOL    HW198623   2.577   5.906   6.217 -1.0515  0.0457  0.1213
31527SOL    HW298624   2.683   6.014   6.228 -0.0557 -0.9546  0.5343
31528SOL     OW98625   6.349   6.870   5.989 -0.1164  0.1372 -0.1889
31528SOL    HW198626   6.434   6.838   5.960 -0.6173 -0.9186 -0.5340
31528SOL    HW298627   6.328   6.816   6.065 -0.2766  0.7082  0.1775
31529SOL     OW98628   0.511   0.903   7.021  0.4782  0.0043 -0.3704
31529SOL    HW198629   0.467   0.818   7.010  1.1440 -0.4418  0.3126
31529SOL    HW298630   0.598   0.889   6.983  0.2460  0.7102 -1.2004
31530SOL     OW98631   8.804   7.638   9.331  0.0908 -0.2868  0.0149
31530SOL    HW198632   8.727   7.592   9.365 -0.7600  0.9575 -0.1771
31530SOL    HW298633   8.863   7.567   9.304  0.0090 -1.2930  2.2490
31531SOL     OW98634   5.144   1.492   9.810 -0.1011 -0.6267 -0.0602
31531SOL    HW198635   5.050   1.495   9.792 -0.2990 -3.8415 -0.0695
31531SOL    HW298636   5.176   1.414   9.764  2.4014 -0.1592  0.6910
31532SOL     OW98637   5.202   6.290   8.988  0.4690  0.0745  0.2719
31532SOL    HW198638   5.261   6.291   9.063  1.7059  2.8499 -0.5942
31532SOL    HW298639   5.261   6.284   8.912 -0.5703  0.0344 -0.5542
31533SOL     OW98640   0.977   8.288   2.833  0.3865  0.3231 -0.7631
31533SOL    HW198641   0.964   8.383   2.828  3.2501  0.8371 -0.0030
31533SOL    HW298642   1.049   8.276   2.896 -0.2919 -2.4180 -0.3541
31534SOL     OW98643   5.516   8.277  10.097 -0.0513 -0.1651 -0.0180
31534SOL    HW198644   5.466   8.337  10.152 -0.0838 -0.4432  0.2586
31534SOL    HW298645   5.595   8.326  10.073  0.4836 -0.4131  1.1753
31535SOL     OW98646  10.008   4.032   0.426 -0.1065 -0.6029  0.2813
31535SOL    HW198647   9.999   3.964   0.492 -2.5563  0.9084  1.6431
31535SOL    HW298648   9.920   4.043   0.390  0.6893  0.2703 -1.5858
31536SOL     OW98649   7.004   9.486   0.390 -0.0919  0.7759 -0.3763
31536SOL    HW198650   6.913   9.513   0.378  0.0282  1.1948 -0.3935
31536SOL    HW298651   7.006   9.445   0.476 -0.6931 -1.0447 -1.1753
31537SOL     OW98652   3.538   2.892   9.602 -0.2210 -0.7071  0.1240
31537SOL    HW198653   3.632   2.901   9.587 -0.5818 -0.8443 -2.7567
31537SOL    HW298654   3.529   2.897   9.697  2.4862  1.1716  0.4138
31538SOL     OW98655   4.618   3.300   7.406  0.5946 -0.2831  0.2499
31538SOL    HW198656   4.638   3.286   7.498  2.6450 -0.6444 -0.2097
31538SOL    HW298657   4.687   3.359   7.375 -0.7087  0.7687 -0.8144
31539SOL     OW98658   2.347   7.157   0.733  0.2398  0.1429 -0.5004
31539SOL    HW198659   2.345   7.168   0.828 -0.9199 -1.5303 -0.2834
31539SOL    HW298660   2.275   7.211   0.701 -0.4900 -0.6330 -0.2216
31540SOL     OW98661   0.195   6.881   9.588 -0.2677 -0.1379 -0.4569
31540SOL    HW198662   0.277   6.902   9.543 -0.4330  1.8215  0.0878
31540SOL    HW298663   0.131   6.941   9.551 -0.6012  0.9369  1.7021
31541SOL     OW98664   6.180   2.234   4.433 -0.3997 -0.2966  0.2499
31541SOL    HW198665   6.102   2.271   4.392  1.5468  2.0058 -1.7049
31541SOL    HW298666   6.189   2.281   4.516 -1.2646 -0.8819  0.6900
31542SOL     OW98667   8.082   5.329   6.686  0.0778 -0.2085  0.0170
31542SOL    HW198668   7.993   5.338   6.652 -0.3801 -0.0615  1.2009
31542SOL    HW298669   8.138   5.362   6.616 -0.8218  0.0393 -0.6044
31543SOL     OW98670   8.746   5.568   0.501 -0.5922 -0.0771  0.2113
31543SOL    HW198671   8.777   5.516   0.427 -1.5995  1.7146 -1.5833
31543SOL    HW298672   8.692   5.508   0.551  1.1652 -1.7027  0.2789
31544SOL     OW98673   0.353   7.199   3.981  0.2979 -0.3206 -0.4003
31544SOL    HW198674   0.268   7.163   4.009 -0.0418 -0.1959 -1.2198
31544SOL    HW298675   0.417   7.155   4.036 -0.2098 -1.3283 -0.5872
31545SOL     OW98676   4.109   2.107   2.154 -0.0480 -0.0467 -0.6450
31545SOL    HW198677   4.058   2.159   2.092 -1.0348  1.0871  1.0260
31545SOL    HW298678   4.043   2.057   2.203  0.6159 -0.1785  0.1288
31546SOL     OW98679   5.500   4.399   1.616 -0.4536 -0.0277  0.0430
31546SOL    HW198680   5.538   4.424   1.532 -1.8913  2.0014 -0.0727
31546SOL    HW298681   5.547   4.452   1.681 -1.6243  0.9584  0.1164
31547SOL     OW98682   2.972   3.953   5.644 -0.5052 -0.6056  0.4623
31547SOL    HW198683   2.970   4.010   5.567 -2.3227  1.1522  1.7098
31547SOL    HW298684   3.063   3.922   5.648 -0.1155  0.0727 -1.7831
31548SOL     OW98685   6.873   6.436   3.908  0.2196  0.2410 -0.3793
31548SOL    HW198686   6.826   6.409   3.829 -0.0523  0.7823 -0.4113
31548SOL    HW298687   6.950   6.484   3.875  0.5866 -0.3071 -0.3233
31549SOL     OW98688   3.095   1.451   9.761 -0.6094 -0.4032  0.2197
31549SOL    HW198689   3.150   1.451   9.682  1.0850  1.0532  1.3149
31549SOL    HW298690   3.008   1.475   9.729 -0.1583 -0.7048 -1.3229
31550SOL     OW98691   3.175   4.260   6.366 -0.3147  0.1485  0.3106
31550SOL    HW198692   3.172   4.304   6.451 -0.2097  1.1560 -0.1932
31550SOL    HW298693   3.112   4.307   6.312  0.4488  0.2755 -0.5044
31551SOL     OW98694   8.774   3.843   8.100  0.2360  0.4646  0.0947
31551SOL    HW198695   8.864   3.875   8.099  1.1280 -1.8529  0.5644
31551SOL    HW298696   8.755   3.821   8.009  1.1075 -1.3810  0.3060
31552SOL     OW98697   7.604   6.003   4.564 -0.4494 -0.3766 -0.2769
31552SOL    HW198698   7.608   6.028   4.657  0.4243 -0.5732 -0.2511
31552SOL    HW298699   7.578   6.083   4.519 -0.2305 -0.1052  0.0699
31553SOL     OW98700   4.884   9.788   4.640  0.0629  0.1025  0.0103
31553SOL    HW198701   4.912   9.728   4.571  0.1356  2.1409 -1.8418
31553SOL    HW298702   4.789   9.791   4.632 -0.0530 -0.6449  0.9149
31554SOL     OW98703   0.227   3.570   5.299  0.2236 -0.5931  0.8190
31554SOL    HW198704   0.281   3.550   5.376 -0.9269 -1.1290  1.5288
31554SOL    HW298705   0.253   3.506   5.233  0.5120 -0.7978  1.1302
31555SOL     OW98706   3.386   4.536   7.016  0.0009 -0.1481 -0.1683
31555SOL    HW198707   3.404   4.610   7.073 -2.1317  1.0402 -0.9585
31555SOL    HW298708   3.378   4.461   7.076 -0.3662  0.7192  0.8913
31556SOL     OW98709   6.524   4.982   0.192  0.0830  0.6991  0.3331
31556SOL    HW198710   6.432   5.003   0.179 -0.1379  0.2630  1.1101
31556SOL    HW298711   6.569   5.024   0.119 -0.6403  1.5848  0.3863
31557SOL     OW98712   3.395   0.730   4.573 -0.1685  0.5048 -0.3077
31557SOL    HW198713   3.321   0.682   4.611 -0.2582 -0.4143 -1.6019
31557SOL    HW298714   3.443   0.665   4.522  1.3674  1.1581  0.2353
31558SOL     OW98715   9.702   2.693   1.688 -0.1392  0.4729  0.0532
31558SOL    HW198716   9.637   2.690   1.759 -0.0728  0.9219  0.1377
31558SOL    HW298717   9.770   2.751   1.721 -0.0763  0.6335 -0.3578
31559SOL     OW98718   9.248   3.093   9.264  0.2201 -0.5004  0.3167
31559SOL    HW198719   9.256   3.038   9.342  0.3207  0.7584  1.2244
31559SOL    HW298720   9.202   3.038   9.201 -2.6762 -0.5582  2.2902
31560SOL     OW98721   1.999   7.251   3.451 -0.1547 -0.0206 -0.5704
31560SOL    HW198722   1.952   7.236   3.533  0.4441 -0.4264 -0.2853
31560SOL    HW298723   2.025   7.343   3.454  3.5659 -0.9129  1.7798
31561SOL     OW98724   9.243   6.681  10.084 -0.0134  0.1605  0.5418
31561SOL    HW198725   9.320   6.667  10.029 -0.4532  1.1094 -0.3463
31561SOL    HW298726   9.222   6.594  10.118  0.3906 -0.4065 -0.6240
31562SOL     OW98727   1.733   5.967   5.635 -0.0472 -0.3446 -0.2137
31562SOL    HW198728   1.700   5.878   5.648 -1.0205 -0.0149 -0.4053
31562SOL    HW298729   1.682   6.021   5.695  1.0923 -0.0109  0.4992
31563SOL     OW98730   0.261   7.395   5.602 -0.6987  0.3997 -0.4203
31563SOL    HW198731   0.181   7.394   5.654 -1.7051 -1.7808 -1.8235
31563SOL    HW298732   0.252   7.319   5.544  0.8999  1.9464 -2.8929
31564SOL     OW98733   4.363  10.036   3.474 -0.1034  0.3689  0.0262
31564SOL    HW198734   4.325   9.971   3.416 -1.4826  1.4302 -0.3178
31564SOL    HW298735   4.399  10.103   3.415 -0.2257  0.7518  0.3764
31565SOL     OW98736   3.862   1.547   8.445  0.5934  0.0967  0.1198
31565SOL    HW198737   3.902   1.583   8.366  1.2342  0.6905  0.7025
31565SOL    HW298738   3.769   1.570   8.438  0.2633 -1.5181 -1.3687
31566SOL     OW98739   2.883   3.096   7.494  0.2734  0.1779  0.5865
31566SOL    HW198740   2.965   3.146   7.494  0.5317 -0.2348 -0.6799
31566SOL    HW298741   2.815   3.163   7.487  0.4654  0.5326  1.7891
31567SOL     OW98742   2.272   7.166   4.665  0.4846 -0.4897  0.0947
31567SOL    HW198743   2.304   7.084   4.702 -2.5237 -0.7296  2.5688
31567SOL    HW298744   2.310   7.234   4.720 -1.3504 -0.6583  1.6856
31568SOL     OW98745   7.996   1.127   3.601 -0.0895  0.1710  0.0272
31568SOL    HW198746   7.957   1.059   3.655 -0.6806 -0.7437 -1.4831
31568SOL    HW298747   8.064   1.082   3.551  0.1619  0.8891 -0.2983
31569SOL     OW98748   1.374   2.926   3.740  0.0239  0.2345  0.0066
31569SOL    HW198749   1.309   2.861   3.713  0.0621  0.2494 -0.1223
31569SOL    HW298750   1.413   2.889   3.819  0.9589 -0.5323 -0.7839
31570SOL     OW98751   7.992   6.786   5.520 -0.3039  0.4330  0.3307
31570SOL    HW198752   8.002   6.757   5.611 -1.6288  0.7742  0.6013
31570SOL    HW298753   7.916   6.737   5.488  0.0716  0.4164 -0.5612
31571SOL     OW98754   6.177   6.582   0.876 -0.6533 -0.1533 -0.1402
31571SOL    HW198755   6.128   6.507   0.910  0.4119 -0.2638  1.2477
31571SOL    HW298756   6.268   6.552   0.873 -0.5736  0.1019 -2.4828
31572SOL     OW98757   1.638   5.287   4.316 -0.1588 -0.3362 -0.3351
31572SOL    HW198758   1.699   5.222   4.352  0.1836  0.0321 -0.2394
31572SOL    HW298759   1.662   5.294   4.223 -0.7514 -0.9611 -0.5443
31573SOL     OW98760   9.853   4.470   4.382 -0.4753  0.3687  0.2310
31573SOL    HW198761   9.862   4.551   4.333 -1.5434 -0.7911 -2.0013
31573SOL    HW298762   9.876   4.401   4.320  3.3960 -1.0498  2.8307
31574SOL     OW98763   6.458   1.065   4.919 -0.0584  0.8208  0.0720
31574SOL    HW198764   6.465   1.012   4.998  0.7281  1.9700  0.8006
31574SOL    HW298765   6.509   1.018   4.853 -0.8640 -0.2346  0.1795
31575SOL     OW98766   2.197   3.922   7.315  0.4372 -0.2008  0.5596
31575SOL    HW198767   2.271   3.929   7.255  0.6891  0.2084  0.9094
31575SOL    HW298768   2.221   3.852   7.375  0.4532 -0.2035  0.5497
31576SOL     OW98769   2.753   9.137   9.213  0.0761  0.2135 -0.7961
31576SOL    HW198770   2.770   9.207   9.276 -1.6349  0.5306 -0.6418
31576SOL    HW298771   2.726   9.062   9.267 -1.3740  0.4790 -1.0946
31577SOL     OW98772   4.192   6.665   0.489  0.1935  0.7053 -0.0298
31577SOL    HW198773   4.135   6.629   0.557 -0.0595  0.8568 -0.1578
31577SOL    HW298774   4.156   6.631   0.407 -0.5687  1.9100 -0.2185
31578SOL     OW98775   1.065   3.768   7.422 -0.1898 -0.0894  0.1448
31578SOL    HW198776   1.137   3.803   7.370  0.2377 -1.0654  0.0573
31578SOL    HW298777   1.015   3.845   7.449  2.3897  0.9036  2.5052
31579SOL     OW98778   2.912   2.863   3.212  0.1080  0.1785 -0.1046
31579SOL    HW198779   2.918   2.906   3.127  2.4930  1.0173  0.3957
31579SOL    HW298780   2.932   2.932   3.276  0.4695 -0.8696  0.9676
31580SOL     OW98781   1.279   1.261   0.300  0.5871  0.5652  0.0599
31580SOL    HW198782   1.272   1.175   0.260  0.2326  0.4929  0.2722
31580SOL    HW298783   1.372   1.272   0.318  1.2530  1.7204 -3.2855
31581SOL     OW98784  10.200   0.594   4.721  0.5332 -0.0564 -0.3404
31581SOL    HW198785  10.114   0.624   4.749 -0.0623 -1.2613 -0.7841
31581SOL    HW298786  10.193   0.498   4.720  2.5091 -0.3000  1.5398
31582SOL     OW98787   5.446   9.156   0.916 -0.9379 -0.1609  0.4976
31582SOL    HW198788   5.361   9.147   0.874 -1.4327  0.1760  1.3933
31582SOL    HW298789   5.439   9.236   0.967  0.6840  1.1194 -1.1545
31583SOL     OW98790  10.220   3.601   0.159 -0.2953  0.0816  0.6050
31583SOL    HW198791  10.207   3.593   0.253 -4.0935 -1.1925  0.1319
31583SOL    HW298792  10.216   3.512   0.126 -2.6057  0.6922 -1.0180
31584SOL     OW98793   9.455   1.001   7.108  0.0899 -0.3237 -0.1787
31584SOL    HW198794   9.540   0.958   7.114 -0.0068 -0.6962 -1.2417
31584SOL    HW298795   9.439   1.034   7.196  1.1869 -0.5217  0.1187
31585SOL     OW98796   2.988   6.810   8.922  0.1328 -0.2328 -0.2012
31585SOL    HW198797   2.939   6.751   8.980 -0.6283 -0.1633 -0.7659
31585SOL    HW298798   3.063   6.838   8.975 -0.4731 -0.2875  0.7020
31586SOL     OW98799   0.547   7.633   9.067  0.1308  0.2927  0.1333
31586SOL    HW198800   0.573   7.574   8.997 -1.2491 -1.1095  0.7512
31586SOL    HW298801   0.479   7.689   9.028 -2.1445 -1.8271  0.7696
31587SOL     OW98802   8.974   8.927   2.862 -0.2071 -0.1055  0.6731
31587SOL    HW198803   8.949   9.018   2.879 -2.3860 -0.8443  1.7229
31587SOL    HW298804   8.975   8.886   2.949 -0.5878 -1.4070  0.0784
31588SOL     OW98805   7.465   8.355   3.909 -0.7490  0.3539 -0.0477
31588SOL    HW198806   7.551   8.384   3.939 -0.9622  0.0165  0.9250
31588SOL    HW298807   7.403   8.416   3.949 -0.9863  0.4293 -0.5212
31589SOL     OW98808   2.254   0.733   7.290 -0.1046 -0.6338 -0.7836
31589SOL    HW198809   2.217   0.771   7.210 -1.1169 -1.2359 -0.6146
31589SOL    HW298810   2.192   0.758   7.359  0.8805  0.0773 -0.1347
31590SOL     OW98811   3.140   5.538   0.426  0.0193 -0.1144  0.6689
31590SOL    HW198812   3.214   5.512   0.480 -0.3975 -1.1593  0.7742
31590SOL    HW298813   3.153   5.490   0.344 -1.3116 -1.5513  1.2411
31591SOL     OW98814   8.743   9.175   7.632  0.0777  0.1259 -0.0655
31591SOL    HW198815   8.665   9.142   7.587  0.1507  1.4924 -1.2931
31591SOL    HW298816   8.709   9.226   7.705 -0.2258  0.8463 -0.6857
31592SOL     OW98817  10.080  10.197   2.929  0.0072  0.0835  0.1178
31592SOL    HW198818  10.084  10.229   3.020 -1.0167 -1.6638  0.8335
31592SOL    HW298819  10.010  10.248   2.888 -0.0272  0.3704  0.5252
31593SOL     OW98820   1.740   5.974   5.105 -0.1488 -0.0836  0.1839
31593SOL    HW198821   1.700   5.903   5.056 -1.0340  0.6005 -0.1099
31593SOL    HW298822   1.688   6.052   5.083  0.5186  0.5728  0.8365
31594SOL     OW98823   7.293   7.728   1.867 -0.0557  0.6129 -0.1311
31594SOL    HW198824   7.329   7.780   1.795  0.5624  0.8641  0.3555
31594SOL    HW298825   7.239   7.662   1.824 -1.0981  1.8320 -0.7575
31595SOL     OW98826   6.890   0.423   4.156 -0.2826 -0.5590  0.0005
31595SOL    HW198827   6.848   0.509   4.147  1.6842  0.3598 -1.1852
31595SOL    HW298828   6.887   0.386   4.068  1.1156 -0.5580 -0.0678
31596SOL     OW98829   5.218   0.538   5.410 -0.3017  0.8829 -0.2494
31596SOL    HW198830   5.253   0.477   5.344 -0.8724  0.2650  0.0131
31596SOL    HW298831   5.142   0.493   5.446 -0.6682  1.7142  0.0271
31597SOL     OW98832   8.860   5.326   3.625 -0.3725 -0.3369  0.2800
31597SOL    HW198833   8.930   5.390   3.635 -0.7120 -0.1295  1.4718
31597SOL    HW298834   8.898   5.243   3.655 -0.1446 -0.5691 -0.6200
31598SOL     OW98835   8.185   9.461   8.135  0.5785 -0.9066  0.2242
31598SOL    HW198836   8.195   9.394   8.203  2.2410 -0.5595  0.3690
31598SOL    HW298837   8.188   9.544   8.183  0.6268 -0.6902 -0.1508
31599SOL     OW98838   1.126   7.505   7.574 -0.1867  0.1880  0.2585
31599SOL    HW198839   1.095   7.415   7.563  0.9806 -0.1282 -0.6281
31599SOL    HW298840   1.221   7.499   7.566 -0.1719  1.6811 -1.2689
31600SOL     OW98841   2.583   2.431   4.414  0.1244 -0.3434  0.3729
31600SOL    HW198842   2.535   2.504   4.453 -2.7892 -1.9327  0.0183
31600SOL    HW298843   2.574   2.444   4.319  0.2284 -0.8118  0.2995
31601SOL     OW98844   0.904  10.228   3.818 -0.4254 -0.4342 -0.0696
31601SOL    HW198845   0.925  10.209   3.910 -0.8087  1.2104  0.3893
31601SOL    HW298846   0.984  10.204   3.771  0.1480 -0.3526  0.8194
31602SOL     OW98847   8.708   6.521   8.075  0.6389  0.7625  0.2844
31602SOL    HW198848   8.685   6.603   8.120 -2.2327  1.2890 -1.8683
31602SOL    HW298849   8.703   6.454   8.144  1.5299  2.1209  1.7631
31603SOL     OW98850   8.948   2.249   0.841  0.5264 -0.4415 -0.3904
31603SOL    HW198851   8.901   2.313   0.788 -0.7959  0.1599  1.3976
31603SOL    HW298852   8.943   2.168   0.790 -0.5601  0.1436 -1.2655
31604SOL     OW98853   4.175   9.778   6.604  0.0441 -0.1781 -0.4410
31604SOL    HW198854   4.190   9.849   6.666 -0.1170  0.1638 -0.7885
31604SOL    HW298855   4.083   9.788   6.578 -0.4473 -1.4591  0.6868
31605SOL     OW98856   7.194   0.133   1.478 -0.3469  0.1759 -0.1960
31605SOL    HW198857   7.234   0.075   1.544 -1.0131 -0.3007 -0.2036
31605SOL    HW298858   7.251   0.125   1.402 -0.3953 -0.4215 -0.1739
31606SOL     OW98859   8.210   0.054   0.608 -0.2108 -0.0422  0.0354
31606SOL    HW198860   8.286   0.023   0.559  0.3567  2.1613 -0.5864
31606SOL    HW298861   8.149   0.087   0.541 -1.0528 -0.3553  0.6208
31607SOL     OW98862   0.425   7.890   2.362 -0.2254  0.1192 -0.1937
31607SOL    HW198863   0.447   7.816   2.306  1.7955  1.0435 -0.6937
31607SOL    HW298864   0.477   7.877   2.442 -0.0060  0.8804 -0.2043
31608SOL     OW98865   2.531   4.666   5.423 -0.2450 -0.0725  0.8030
31608SOL    HW198866   2.568   4.671   5.511 -0.1418 -0.3054  0.7747
31608SOL    HW298867   2.457   4.606   5.431 -0.1527 -0.2004  0.7029
31609SOL     OW98868  10.285   4.065   4.814 -0.2971 -0.4890 -0.2115
31609SOL    HW198869  10.342   4.111   4.752 -1.5335 -0.7751 -1.6535
31609SOL    HW298870  10.279   3.976   4.779 -2.9415 -0.0461 -1.1744
31610SOL     OW98871   4.327   4.396   7.146 -0.1134  0.0566 -0.1259
31610SOL    HW198872   4.240   4.405   7.186 -0.6319 -0.0438 -1.2137
31610SOL    HW298873   4.326   4.309   7.106  0.3990  0.1556 -0.3542
31611SOL     OW98874   3.886   5.631   2.893  0.4078  0.1872  0.0860
31611SOL    HW198875   3.858   5.700   2.834  0.2285  1.3137  1.4233
31611SOL    HW298876   3.934   5.676   2.962 -0.0502 -0.9604  1.2055
31612SOL     OW98877   4.760   9.773   8.782 -0.0008  0.3026 -0.4048
31612SOL    HW198878   4.702   9.837   8.824 -0.1123 -0.2156  0.2534
31612SOL    HW298879   4.705   9.695   8.770  0.8862 -0.7001  1.5164
31613SOL     OW98880   8.401   6.632   5.849  0.6656 -0.1961  0.4868
31613SOL    HW198881   8.431   6.664   5.933  1.7389  1.8842 -0.6178
31613SOL    HW298882   8.371   6.710   5.802  1.1418 -1.1190 -1.4746
31614SOL     OW98883   7.676   1.240   5.117 -0.2586 -0.0980  0.1282
31614SOL    HW198884   7.645   1.329   5.134  0.1959 -0.3450  2.6686
31614SOL    HW298885   7.600   1.185   5.132  0.2024 -0.3407  1.7705
31615SOL     OW98886   7.465   1.367   7.165 -0.1570  0.3017  0.3912
31615SOL    HW198887   7.449   1.397   7.254  1.3415  0.4974  0.6146
31615SOL    HW298888   7.423   1.433   7.109 -0.6178  0.4727  0.9364
31616SOL     OW98889   5.599   7.249   2.780  0.1091  0.3117 -0.1134
31616SOL    HW198890   5.530   7.287   2.726  0.4704  2.3160  0.7664
31616SOL    HW298891   5.679   7.262   2.729  0.3302  1.4142  0.4949
31617SOL     OW98892   8.386   9.061   6.716  0.8148 -0.3704  0.1478
31617SOL    HW198893   8.321   9.124   6.684 -0.5909 -1.4170  0.8346
31617SOL    HW298894   8.431   9.107   6.786 -0.2575 -0.1363  0.6989
31618SOL     OW98895   9.196   3.651   7.857 -0.1809  0.5077  0.4783
31618SOL    HW198896   9.177   3.574   7.803 -0.7704  0.5831  0.5775
31618SOL    HW298897   9.216   3.720   7.794  2.3316 -0.1804  0.3768
31619SOL     OW98898   7.498   5.040   6.239  0.6390 -0.3024 -0.1256
31619SOL    HW198899   7.457   5.075   6.160 -0.7383 -2.1125 -0.2768
31619SOL    HW298900   7.589   5.024   6.213  0.4227 -0.0782 -1.0647
31620SOL     OW98901   0.707   8.391   7.290  0.5590 -0.3025 -0.1850
31620SOL    HW198902   0.626   8.347   7.264  0.9912 -1.2080 -0.0460
31620SOL    HW298903   0.679   8.461   7.349 -0.2802  0.6617 -1.6815
31621SOL     OW98904   1.604   6.824   0.587 -0.4339 -0.0820 -0.1350
31621SOL    HW198905   1.694   6.853   0.600 -1.0469  0.9979  2.4425
31621SOL    HW298906   1.556   6.860   0.663 -2.7641 -1.7157 -0.7150
31622SOL     OW98907   6.094   0.823   0.778 -0.1431 -0.3860 -0.3358
31622SOL    HW198908   6.010   0.782   0.796  0.2837 -0.7244  0.9855
31622SOL    HW298909   6.100   0.824   0.682 -0.8705 -1.9605 -0.4318
31623SOL     OW98910   2.487   6.598   0.419  0.6947  0.5201  0.4190
31623SOL    HW198911   2.481   6.503   0.408  1.1342  0.3336  1.6218
31623SOL    HW298912   2.571   6.612   0.461 -0.3959  1.2118  2.4937
31624SOL     OW98913   1.990   6.268   8.774  0.7061 -0.2812 -0.0586
31624SOL    HW198914   1.904   6.303   8.800  0.3904  0.7076 -2.2674
31624SOL    HW298915   1.978   6.173   8.778 -0.2185 -0.1606  0.4666
31625SOL     OW98916   8.966   1.002   2.940 -0.3249  0.2178 -0.4462
31625SOL    HW198917   9.007   0.966   2.861  0.5125 -0.0727  0.1070
31625SOL    HW298918   8.948   1.093   2.917  1.5565  0.6477 -0.4006
31626SOL     OW98919   0.898   4.996   0.555 -0.5259  0.2934  0.0117
31626SOL    HW198920   0.803   4.979   0.557 -0.5231  0.2589 -0.1665
31626SOL    HW298921   0.917   5.015   0.463 -0.2847 -0.1183 -0.0243
31627SOL     OW98922   0.695   2.076   0.491 -0.1751  0.1490 -0.3022
31627SOL    HW198923   0.752   2.076   0.567 -0.1537 -0.5542 -0.3115
31627SOL    HW298924   0.624   2.016   0.514 -1.0627  1.2104 -0.1835
31628SOL     OW98925   0.179   2.493   7.163  0.7379  0.3132  0.0468
31628SOL    HW198926   0.149   2.489   7.254  2.6917 -1.0611  0.7001
31628SOL    HW298927   0.113   2.443   7.114 -0.2885  0.9998  0.6873
31629SOL     OW98928   9.848   9.523   8.871  0.0615 -0.3890  0.2745
31629SOL    HW198929   9.774   9.469   8.899 -1.7378  1.9656  0.3521
31629SOL    HW298930   9.883   9.560   8.952  0.2854 -0.2277  0.1042
31630SOL     OW98931   6.072   8.981   1.526  0.1575  0.4491 -0.7406
31630SOL    HW198932   6.093   8.914   1.592  1.0967  1.0950 -0.3599
31630SOL    HW298933   5.979   8.968   1.507  0.0837 -0.3015  0.0869
31631SOL     OW98934   4.222   2.263   2.353  0.1943 -0.2023  0.2371
31631SOL    HW198935   4.146   2.260   2.411 -1.9095 -0.3383 -2.3133
31631SOL    HW298936   4.199   2.205   2.281  1.5585  1.7379 -1.9230
31632SOL     OW98937   0.386   3.901   4.680  0.6919  0.2666  0.2686
31632SOL    HW198938   0.352   3.963   4.615  0.5476 -0.2172 -0.1199
31632SOL    HW298939   0.480   3.922   4.685  0.8926 -0.3078 -0.7986
31633SOL     OW98940   0.877   7.262   4.986  0.0212 -0.3850  0.6132
31633SOL    HW198941   0.931   7.298   4.915 -1.2943 -0.2169 -0.3520
31633SOL    HW298942   0.931   7.270   5.064  0.9006  0.9780 -0.0874
31634SOL     OW98943   7.254   1.254   3.037  0.0720  0.2920  0.3910
31634SOL    HW198944   7.323   1.225   3.096  0.0404 -1.2384 -0.2744
31634SOL    HW298945   7.296   1.261   2.952 -0.4102  0.0928  0.1312
31635SOL     OW98946   6.700   6.560   5.931  0.2936 -0.0487  0.5417
31635SOL    HW198947   6.683   6.472   5.964  3.5999 -0.3143  1.8384
31635SOL    HW298948   6.793   6.560   5.908  0.1631  2.8193 -0.4120
31636SOL     OW98949   2.549   2.717   2.406 -0.2274  0.7189 -0.3284
31636SOL    HW198950   2.528   2.740   2.315  1.4994 -2.2560 -1.6534
31636SOL    HW298951   2.468   2.731   2.454 -1.7821  0.5679 -2.7509
31637SOL     OW98952   1.985   1.487   7.372 -0.0633  0.1455  0.0354
31637SOL    HW198953   1.893   1.468   7.357  0.0740  0.3267 -1.1704
31637SOL    HW298954   1.991   1.509   7.465 -1.2048  0.0061  0.1531
31638SOL     OW98955   1.191   5.491   7.519  0.4699  0.1648 -0.3246
31638SOL    HW198956   1.141   5.570   7.496  0.4286 -0.3884 -2.3852
31638SOL    HW298957   1.161   5.469   7.607 -0.6292  1.5926 -0.2895
31639SOL     OW98958   4.090  10.111   7.550  0.3144  0.2659  0.6377
31639SOL    HW198959   4.077  10.205   7.562 -1.4694  0.4830 -2.2601
31639SOL    HW298960   4.185  10.100   7.552  0.6277  2.3419 -0.1489
31640SOL     OW98961   8.102   7.981   3.223  0.4512  0.4459 -0.0738
31640SOL    HW198962   8.171   7.984   3.158 -0.8942 -2.8728 -1.9397
31640SOL    HW298963   8.027   8.023   3.181 -0.5332 -2.0403 -0.9938
31641SOL     OW98964   5.910  10.093   8.210  0.1503 -0.1963  0.0599
31641SOL    HW198965   5.828  10.046   8.225  0.8624 -1.5310 -0.0266
31641SOL    HW298966   5.885  10.172   8.162 -0.9912 -1.0417 -0.7945
31642SOL     OW98967   2.470   4.511   1.290  0.1522 -0.2960 -0.5676
31642SOL    HW198968   2.521   4.436   1.260 -1.0435 -2.0880  1.6393
31642SOL    HW298969   2.411   4.531   1.218  1.2293 -0.7403 -1.6037
31643SOL     OW98970   8.846   7.975   7.851 -0.2102  0.0023  0.1278
31643SOL    HW198971   8.774   7.912   7.849 -0.0117 -0.2229 -0.0728
31643SOL    HW298972   8.835   8.026   7.770 -0.2865  0.1279  0.2176
31644SOL     OW98973   7.762  10.189   1.673 -0.4900 -0.4774  0.2561
31644SOL    HW198974   7.855  10.193   1.653 -0.2497  0.0681  1.3999
31644SOL    HW298975   7.737  10.279   1.695 -1.5097 -0.4427 -0.9165
31645SOL     OW98976   4.230   6.660   6.693 -0.5579  0.3349 -0.5896
31645SOL    HW198977   4.141   6.686   6.717  0.6012  2.1633  2.3341
31645SOL    HW298978   4.243   6.576   6.737 -0.5564  0.5116 -0.2485
31646SOL     OW98979   7.153   4.232   2.802  0.4258 -0.2693 -0.5460
31646SOL    HW198980   7.143   4.306   2.742 -0.4015 -0.7743 -1.0527
31646SOL    HW298981   7.194   4.269   2.880 -1.6896  1.1272 -0.0273
31647SOL     OW98982   3.951   3.459   1.300 -0.5863 -0.3919 -0.0489
31647SOL    HW198983   3.981   3.475   1.390 -1.1753  0.8073 -0.0418
31647SOL    HW298984   3.856   3.468   1.305 -0.5428  0.9101 -1.0068
31648SOL     OW98985  10.109  10.033   8.335 -0.3795 -0.3429  0.4393
31648SOL    HW198986  10.019  10.042   8.367 -0.4053 -0.2797  0.3507
31648SOL    HW298987  10.162  10.029   8.415 -0.5378 -1.2465  0.5029
31649SOL     OW98988   9.523   5.207   2.790 -0.2139  0.2983 -0.8105
31649SOL    HW198989   9.611   5.223   2.825 -0.4591  0.4168 -0.2369
31649SOL    HW298990   9.517   5.112   2.783 -0.4604  0.2098  0.2938
31650SOL     OW98991   0.599   4.631   4.831 -0.2578 -0.2056  0.2748
31650SOL    HW198992   0.571   4.542   4.850 -0.2821 -0.1114  0.6828
31650SOL    HW298993   0.533   4.687   4.873  0.0136  0.0086  0.4171
31651SOL     OW98994   0.049   6.999   4.740 -0.3217 -0.1134  0.1336
31651SOL    HW198995   0.058   6.904   4.736 -1.9447 -0.2765 -0.4481
31651SOL    HW298996   0.036   7.026   4.649  0.8297  0.7701  0.2061
31652SOL     OW98997   5.677   5.545   3.259  0.0907  0.4317 -0.5635
31652SOL    HW198998   5.630   5.610   3.311 -0.4895  0.6952 -1.3945
31652SOL    HW298999   5.652   5.461   3.297 -0.4728  0.6125 -0.5223
31653SOL     OW99000   3.021   9.746   1.710 -0.5010 -0.1748 -0.2993
31653SOL    HW199001   3.052   9.802   1.638 -0.0461  1.2989  0.9827
31653SOL    HW299002   2.928   9.767   1.718  0.0216  1.8080  1.3114
31654SOL     OW99003   7.591   2.052   6.643  0.2627  0.3493 -0.3237
31654SOL    HW199004   7.513   2.108   6.637  0.4322  0.5310 -0.9040
31654SOL    HW299005   7.624   2.048   6.553 -1.2854 -2.8869 -0.8831
31655SOL     OW99006   2.879   6.998   7.709  0.1138  0.0885  0.0958
31655SOL    HW199007   2.879   7.045   7.793 -0.6143  1.6808 -0.7444
31655SOL    HW299008   2.942   6.927   7.722  1.1012  1.1528  1.5308
31656SOL     OW99009   0.014   9.004   8.882 -0.0030  0.2895 -0.2659
31656SOL    HW199010  -0.005   9.051   8.801 -1.5677  0.7602  0.3501
31656SOL    HW299011  -0.048   8.930   8.882  0.9616 -0.5409 -0.1787
31657SOL     OW99012   4.166   9.567   7.275 -0.3046  0.0101 -0.2844
31657SOL    HW199013   4.210   9.590   7.356 -0.9192  1.3145 -0.3068
31657SOL    HW299014   4.237   9.546   7.214  0.1671 -0.7416  0.4996
31658SOL     OW99015   8.547  10.053   0.325 -0.0265 -0.3071 -0.2774
31658SOL    HW199016   8.561   9.963   0.354  2.2091 -0.9034 -2.7384
31658SOL    HW299017   8.519  10.045   0.234 -2.9024  1.4972  0.3182
31659SOL     OW99018   6.454   8.148   0.556 -0.2418 -0.4824  0.8389
31659SOL    HW199019   6.431   8.059   0.530 -0.0248 -1.3098  3.2555
31659SOL    HW299020   6.435   8.152   0.650  1.4423  1.4393  1.1743
31660SOL     OW99021   4.666   9.441   4.971  0.4883  0.0020 -0.2254
31660SOL    HW199022   4.677   9.351   4.942 -0.3061 -0.2929  0.3651
31660SOL    HW299023   4.575   9.447   4.999  0.2931  1.2148 -1.0237
31661SOL     OW99024   4.054   6.288   3.718 -0.1825  0.0574  0.1758
31661SOL    HW199025   4.056   6.304   3.623  0.8849  1.5296  0.4158
31661SOL    HW299026   3.969   6.247   3.733 -0.4565 -0.0175 -1.3873
31662SOL     OW99027   9.783   3.449   6.399  0.0646  0.3412  0.2309
31662SOL    HW199028   9.846   3.413   6.337 -1.8465 -2.3445 -0.3648
31662SOL    HW299029   9.818   3.425   6.485  0.0719 -0.7851 -0.0720
31663SOL     OW99030   7.956   1.932   5.619 -0.2574 -0.2638  0.2502
31663SOL    HW199031   7.988   2.020   5.602  1.2500 -0.8101  0.0725
31663SOL    HW299032   7.990   1.879   5.546  0.1451 -1.2602  1.1296
31664SOL     OW99033   2.185   3.950   1.339 -0.0521 -0.0303 -0.3347
31664SOL    HW199034   2.100   3.913   1.313 -0.4032  1.1538 -0.9381
31664SOL    HW299035   2.247   3.878   1.328 -0.9511 -0.8702 -0.0249
31665SOL     OW99036   8.070   4.793   7.682  0.3982 -0.6557 -0.1813
31665SOL    HW199037   8.021   4.721   7.723 -0.8404 -1.0215 -2.2178
31665SOL    HW299038   8.161   4.776   7.707 -0.0249 -2.1943  0.4436
31666SOL     OW99039   3.206   5.001   3.621  0.1413  0.6696 -0.9237
31666SOL    HW199040   3.253   4.945   3.559 -0.9979 -0.5147 -0.7545
31666SOL    HW299041   3.230   5.091   3.596  1.0246  0.1546 -1.9814
31667SOL     OW99042   9.010  10.255   2.748  0.1578 -0.2230 -0.2229
31667SOL    HW199043   8.939  10.308   2.787 -1.3624  0.2622 -3.3159
31667SOL    HW299044   8.982  10.164   2.761 -0.4999 -0.0601 -0.4611
31668SOL     OW99045   0.925   3.354  10.233  0.0781 -0.2685 -0.1809
31668SOL    HW199046   0.960   3.427  10.284  0.9233 -1.7013  1.3865
31668SOL    HW299047   1.000   3.321  10.184  0.0908 -1.0474  0.3421
31669SOL     OW99048   0.854   9.706   7.298  0.8020  0.1559  0.2315
31669SOL    HW199049   0.770   9.693   7.343  0.4087 -2.6275 -1.0515
31669SOL    HW299050   0.854   9.798   7.273 -1.9417  0.2397  0.2208
31670SOL     OW99051   9.834   9.106   0.455  0.2614 -1.0911  0.5549
31670SOL    HW199052   9.894   9.160   0.404 -0.7716  0.5976  1.0632
31670SOL    HW299053   9.822   9.027   0.402  0.4188 -0.0599 -1.0929
31671SOL     OW99054   5.759   3.804   2.836 -0.0773 -0.3315  0.0482
31671SOL    HW199055   5.744   3.888   2.793 -1.4183 -0.5988 -0.0242
31671SOL    HW299056   5.844   3.775   2.802  0.4906  1.0538  0.2003
31672SOL     OW99057   8.334   0.904   5.263  0.6435 -0.0741  0.6793
31672SOL    HW199058   8.324   0.810   5.281  0.2623  0.1946  1.9831
31672SOL    HW299059   8.409   0.931   5.316  0.3722  0.4790  0.7918
31673SOL     OW99060   7.165   2.099   5.413  0.4237  0.6282  0.1663
31673SOL    HW199061   7.088   2.058   5.453 -0.9756  1.7836 -1.2173
31673SOL    HW299062   7.209   2.027   5.369 -0.0679  0.0068  0.6557
31674SOL     OW99063   2.126   3.603   3.971  0.2768  0.6809 -0.0440
31674SOL    HW199064   2.162   3.518   3.945  0.3293  0.9780 -0.9908
31674SOL    HW299065   2.139   3.659   3.894 -1.0999  1.1421  0.0354
31675SOL     OW99066   1.297   9.828   7.058 -0.4490 -0.4277  0.4786
31675SOL    HW199067   1.227   9.818   7.122 -0.6920 -2.2462 -0.0025
31675SOL    HW299068   1.253   9.852   6.977 -0.4975 -1.2627  0.2505
31676SOL     OW99069   4.639   5.213  10.238  0.3865  0.9128 -0.1259
31676SOL    HW199070   4.559   5.198  10.288  0.2561  0.2788 -0.5232
31676SOL    HW299071   4.636   5.150  10.167  2.0297 -0.2540  0.7636
31677SOL     OW99072   9.907   3.431   4.659 -0.1239  0.1843  0.7901
31677SOL    HW199073   9.894   3.522   4.631  1.2505  0.4318  0.8480
31677SOL    HW299074   9.942   3.387   4.582 -1.0697 -0.3799  0.6757
31678SOL     OW99075   3.289   2.531   6.889  1.0385 -0.3212  0.1436
31678SOL    HW199076   3.368   2.502   6.843  0.5373 -2.9630  0.8165
31678SOL    HW299077   3.302   2.503   6.979 -0.2575  0.0768  0.4694
31679SOL     OW99078   4.905   7.810   4.805  0.0143  0.1715 -0.4461
31679SOL    HW199079   4.880   7.747   4.872  0.8300  1.0477  0.7368
31679SOL    HW299080   4.988   7.776   4.771 -0.3802 -0.2520 -1.0079
31680SOL     OW99081   2.327   7.781   0.945  0.5501  0.3082  0.3684
31680SOL    HW199082   2.348   7.698   0.902 -0.4090  0.8192 -1.1983
31680SOL    HW299083   2.381   7.846   0.900  0.2746  0.7279  0.6310
31681SOL     OW99084   9.975   7.248   3.179 -0.1121  0.2653 -0.6062
31681SOL    HW199085  10.014   7.332   3.154 -1.3929  0.7427 -1.1153
31681SOL    HW299086   9.880   7.265   3.179 -0.3175 -0.4482  1.9589
31682SOL     OW99087   0.018   4.968   4.918  0.0930 -0.3397  0.5877
31682SOL    HW199088  -0.048   4.958   4.849  0.1071 -1.1902  0.6802
31682SOL    HW299089   0.005   4.891   4.974 -0.1484  0.5208  1.7342
31683SOL     OW99090   5.854   0.040   8.054  0.1410 -0.4086  0.0362
31683SOL    HW199091   5.828   0.132   8.050 -2.0490 -0.9619  0.6498
31683SOL    HW299092   5.838   0.007   7.965  0.8545 -0.2491 -0.1633
31684SOL     OW99093   7.453   9.100   8.317  0.4374 -0.6758  0.0684
31684SOL    HW199094   7.397   9.137   8.385  0.6389  0.2174 -0.2394
31684SOL    HW299095   7.496   9.176   8.277  0.1948 -1.1504 -1.1588
31685SOL     OW99096   0.431   0.202   8.564 -0.0666  0.4235  0.1451
31685SOL    HW199097   0.383   0.282   8.587  0.3795  1.0873 -1.1451
31685SOL    HW299098   0.407   0.185   8.473  1.5970  0.3784 -0.3035
31686SOL     OW99099   5.195   9.774   1.776 -0.3633  0.4897 -0.0317
31686SOL    HW199100   5.160   9.731   1.854 -1.0644 -1.4932 -1.3511
31686SOL    HW299101   5.193   9.706   1.708  0.5249  2.0379 -1.7069
31687SOL     OW99102   3.339   5.430   7.658  0.7129  0.2201  0.1673
31687SOL    HW199103   3.379   5.509   7.695 -1.5611  1.7144 -0.3942
31687SOL    HW299104   3.364   5.431   7.566 -0.1507  0.8916 -0.0741
31688SOL     OW99105   5.149   8.132   3.743 -0.5946 -0.2051 -0.2274
31688SOL    HW199106   5.228   8.126   3.689 -0.2818 -0.3093  0.2339
31688SOL    HW299107   5.083   8.170   3.685 -0.6189 -1.4577 -1.0519
31689SOL     OW99108   4.837   1.792   5.227 -0.3577  0.1792 -0.4772
31689SOL    HW199109   4.750   1.751   5.232 -0.6976  0.9389  0.1114
31689SOL    HW299110   4.898   1.720   5.244 -0.8292 -0.5082 -1.6000
31690SOL     OW99111   4.478   9.933   4.888 -0.3321  0.4801 -0.0506
31690SOL    HW199112   4.561   9.889   4.908 -0.5572 -0.1204 -0.3946
31690SOL    HW299113   4.431   9.870   4.833 -1.9892 -0.1860  2.0041
31691SOL     OW99114   3.597   0.764   1.552  0.3744  0.0899 -0.0601
31691SOL    HW199115   3.690   0.760   1.528  0.8180 -2.1086  1.6522
31691SOL    HW299116   3.595   0.819   1.630  0.2174  0.2113 -0.1496
31692SOL     OW99117   5.762   3.770  10.155  0.6160  0.1288  0.0871
31692SOL    HW199118   5.698   3.731  10.214  1.4031 -1.0997  0.1722
31692SOL    HW299119   5.723   3.762  10.068 -0.8436  2.5431  0.4300
31693SOL     OW99120   8.214   3.569   2.041 -0.1415  0.3608 -0.0240
31693SOL    HW199121   8.256   3.655   2.031  1.1237 -0.0724  1.3014
31693SOL    HW299122   8.235   3.522   1.961  0.6952  0.6608  0.0161
31694SOL     OW99123   1.163   3.663   1.119 -0.5274  0.1854  0.4219
31694SOL    HW199124   1.197   3.710   1.195  1.2254 -1.1326  0.5142
31694SOL    HW299125   1.068   3.665   1.131 -0.3894  1.5561  1.6733
31695SOL     OW99126   1.012   2.697   1.105  0.6093 -0.1458 -0.0381
31695SOL    HW199127   1.035   2.661   1.191 -0.7447 -0.2648  0.2916
31695SOL    HW299128   0.921   2.671   1.092  0.9961 -0.7277 -1.8317
31696SOL     OW99129   1.641   4.052   0.899  0.0010 -0.1223  0.1828
31696SOL    HW199130   1.718   4.107   0.882 -0.1176  0.2770  0.9294
31696SOL    HW299131   1.659   3.971   0.850  0.9578 -0.0854  0.4500
31697SOL     OW99132   7.816   7.071   1.540  0.0826 -0.3301 -0.3134
31697SOL    HW199133   7.866   6.992   1.518 -0.3132 -0.1565 -1.9504
31697SOL    HW299134   7.825   7.080   1.635  1.6357 -1.3181 -0.3472
31698SOL     OW99135   6.133   2.330   0.831  0.0353 -0.4354 -0.3069
31698SOL    HW199136   6.183   2.281   0.896  0.1922  0.2031  0.0623
31698SOL    HW299137   6.191   2.337   0.756  0.0707 -0.6775 -0.3021
31699SOL     OW99138   5.229  10.198   3.177  0.1074  0.0334  0.5006
31699SOL    HW199139   5.249  10.105   3.194 -1.1979  0.1827  3.5548
31699SOL    HW299140   5.314  10.237   3.157  0.7540 -1.7226 -0.4248
31700SOL     OW99141   6.125   7.404   1.374  0.0279 -0.1446 -0.1318
31700SOL    HW199142   6.208   7.356   1.382  0.2164  0.4033  1.8814
31700SOL    HW299143   6.065   7.358   1.434  0.2703  2.1177  2.0251
31701SOL     OW99144   9.714   2.116   0.580 -0.0856  0.3838 -0.1594
31701SOL    HW199145   9.629   2.092   0.615 -0.9063  1.3524 -1.3989
31701SOL    HW299146   9.728   2.206   0.609  0.6933  0.1073  0.3519
31702SOL     OW99147   7.654   5.809   0.818  0.0524 -0.1691 -0.3802
31702SOL    HW199148   7.721   5.860   0.771 -0.8338 -0.0619 -1.5637
31702SOL    HW299149   7.629   5.740   0.756 -0.1096 -0.9187  0.5019
31703SOL     OW99150   7.123   0.771   2.581  0.1643  0.4946 -0.1938
31703SOL    HW199151   7.163   0.736   2.660 -0.3133  1.6151  0.5524
31703SOL    HW299152   7.050   0.825   2.611 -1.8858 -1.3263 -1.4894
31704SOL     OW99153   5.955   4.177   5.899  0.4946  0.2144  0.1441
31704SOL    HW199154   6.022   4.193   5.833 -0.1539  2.1580 -0.1180
31704SOL    HW299155   5.990   4.107   5.953  2.0719  0.1865 -0.8589
31705SOL     OW99156  10.241   8.347   6.890  0.2602  0.2350  0.0929
31705SOL    HW199157  10.285   8.321   6.971  0.3551 -1.7766 -0.5555
31705SOL    HW299158  10.148   8.353   6.914  0.4286  0.8940  0.6159
31706SOL     OW99159   6.820   3.073   6.458  0.1540  0.2572 -0.0514
31706SOL    HW199160   6.772   3.153   6.438  1.0647  0.7731 -0.2297
31706SOL    HW299161   6.830   3.073   6.553  0.7892  0.7405 -0.1131
31707SOL     OW99162   8.333   5.666   1.892  0.4120  0.6743  0.3075
31707SOL    HW199163   8.320   5.697   1.803  2.0875  1.2926  0.2286
31707SOL    HW299164   8.422   5.630   1.892 -0.1090 -0.7230  1.3566
31708SOL     OW99165   2.672   8.061   7.417 -0.0205 -0.3905  0.0695
31708SOL    HW199166   2.705   8.133   7.364  0.2223 -1.0513 -0.7027
31708SOL    HW299167   2.598   8.026   7.367  0.2396 -1.0465  0.1274
31709SOL     OW99168   7.187   3.679   0.424 -0.3910 -0.1609 -0.1532
31709SOL    HW199169   7.265   3.734   0.433 -1.4448  1.5450 -0.8936
31709SOL    HW299170   7.154   3.667   0.513  0.5161 -0.6410  0.1321
31710SOL     OW99171   2.622   3.724   4.693  0.2591  0.1581 -0.2714
31710SOL    HW199172   2.653   3.634   4.683 -0.4589 -0.2249  0.7354
31710SOL    HW299173   2.602   3.732   4.787  3.0773  2.2864  0.2712
31711SOL     OW99174   1.960  10.121   1.135  0.2347  0.0385  0.1757
31711SOL    HW199175   1.985  10.200   1.087  3.2726 -1.1594 -0.4093
31711SOL    HW299176   1.866  10.110   1.116 -0.0851  2.9921 -0.3843
31712SOL     OW99177   1.325   1.716   8.482 -0.1334 -0.3206  0.4432
31712SOL    HW199178   1.256   1.667   8.527 -0.6777 -0.8126 -0.8746
31712SOL    HW299179   1.336   1.670   8.398  1.5100 -0.0010  0.4511
31713SOL     OW99180   1.356   3.748   9.692  0.4444 -0.3261 -0.0314
31713SOL    HW199181   1.421   3.679   9.692  3.5347  2.3323  0.5641
31713SOL    HW299182   1.328   3.755   9.784 -1.3932 -1.9797 -0.4140
31714SOL     OW99183   4.754   6.949   0.725  0.1214 -0.0678  0.2576
31714SOL    HW199184   4.696   6.995   0.785  0.0430 -0.6606  0.6503
31714SOL    HW299185   4.819   6.907   0.782  0.8634  0.4815 -0.1653
31715SOL     OW99186   4.450   8.974   8.495 -0.0872  0.7225 -0.6156
31715SOL    HW199187   4.499   9.000   8.417 -0.9242 -0.2202 -1.4796
31715SOL    HW299188   4.504   8.905   8.534 -1.3002 -1.3623 -2.3658
31716SOL     OW99189   0.676   6.514   5.422 -0.6365 -0.6057 -0.4653
31716SOL    HW199190   0.636   6.514   5.509 -0.2677 -0.0288 -0.2963
31716SOL    HW299191   0.670   6.604   5.392  2.2868 -0.0342  0.3659
31717SOL     OW99192   0.245   8.694   6.584 -0.2092  0.1524 -0.3819
31717SOL    HW199193   0.162   8.738   6.561 -0.6706 -0.3031  0.3827
31717SOL    HW299194   0.218   8.615   6.630  0.6480 -0.3226 -0.6785
31718SOL     OW99195   8.184   1.703   7.958  0.1375 -0.3290  0.1222
31718SOL    HW199196   8.279   1.701   7.944  0.2012  0.1432  0.4549
31718SOL    HW299197   8.153   1.772   7.900  0.2441  0.7825  1.3418
31719SOL     OW99198   3.085   6.109   8.713  0.2495  0.3193 -0.4373
31719SOL    HW199199   3.064   6.171   8.643 -1.6361 -2.0975 -2.2001
31719SOL    HW299200   3.178   6.088   8.700  0.7268  2.1636 -0.2443
31720SOL     OW99201   6.428   6.854   6.589  0.1649 -0.0141  0.1873
31720SOL    HW199202   6.500   6.913   6.612 -2.9466  3.7602  1.1279
31720SOL    HW299203   6.396   6.821   6.673 -1.5155  1.3960  0.1396
31721SOL     OW99204   3.283   1.096   6.500 -0.2983 -0.1452 -0.5326
31721SOL    HW199205   3.229   1.035   6.551 -0.5021  0.5016  0.0449
31721SOL    HW299206   3.372   1.078   6.528 -0.4100  0.2228  0.0964
31722SOL     OW99207   4.073   8.508   9.468  0.4068 -0.1803 -0.5675
31722SOL    HW199208   4.038   8.459   9.542 -1.1428  0.6921 -0.6907
31722SOL    HW299209   4.047   8.457   9.391 -0.6813  0.4913 -0.6610
31723SOL     OW99210   9.884   6.388   3.424  0.4153  0.1489  0.1806
31723SOL    HW199211   9.806   6.372   3.476 -0.4608  0.8037 -0.8810
31723SOL    HW299212   9.872   6.336   3.344  0.5404  1.0599 -0.4565
31724SOL     OW99213   6.487   2.681   6.285 -0.5810  0.3681  0.3254
31724SOL    HW199214   6.406   2.719   6.251 -1.1973 -1.9804 -1.0723
31724SOL    HW299215   6.556   2.732   6.245 -1.3060  2.4871  1.6176
31725SOL     OW99216   5.717   9.596   8.934 -0.0477 -0.1337 -0.6482
31725SOL    HW199217   5.629   9.625   8.958 -0.3140 -0.1737 -1.5156
31725SOL    HW299218   5.748   9.545   9.009 -0.4794  0.4806 -0.0451
31726SOL     OW99219   7.129   9.805   7.943  0.1692  0.1605 -0.9260
31726SOL    HW199220   7.210   9.771   7.906  1.3073  0.0751  1.4589
31726SOL    HW299221   7.099   9.737   8.002 -1.1855  0.5659 -1.1156
31727SOL     OW99222   5.993   5.998   6.682 -0.2101 -0.5902  0.6608
31727SOL    HW199223   6.049   5.959   6.615  1.1873  0.3129  1.2459
31727SOL    HW299224   5.904   5.988   6.648  0.2123 -2.6976  0.0244
31728SOL     OW99225   1.710   7.169   7.586  0.0939  0.0269  0.2833
31728SOL    HW199226   1.624   7.155   7.623 -0.4083 -0.0924 -0.8797
31728SOL    HW299227   1.734   7.085   7.547  0.8829 -0.0361  0.8590
31729SOL     OW99228   7.398   0.616   6.437  0.4599 -0.2843 -0.1789
31729SOL    HW199229   7.397   0.539   6.380 -0.4071 -0.6683  0.3266
31729SOL    HW299230   7.401   0.580   6.526 -1.1269  0.2093  0.1057
31730SOL     OW99231   8.480   4.270   8.634 -0.2270  0.6784 -0.0886
31730SOL    HW199232   8.414   4.269   8.704 -0.4881 -0.0773 -0.3361
31730SOL    HW299233   8.507   4.179   8.624 -0.7746  0.6362 -1.5021
31731SOL     OW99234   7.295   7.960   6.826 -0.1974  0.3547  0.2952
31731SOL    HW199235   7.330   7.976   6.914  1.4643 -1.7838  0.1203
31731SOL    HW299236   7.206   7.928   6.841 -1.3015  3.3894  0.9118
31732SOL     OW99237   3.156   3.181   0.931  0.1894 -0.1567  0.3389
31732SOL    HW199238   3.158   3.269   0.895  1.5458 -0.4042 -0.2264
31732SOL    HW299239   3.210   3.186   1.010  2.2948 -0.9726 -0.9560
31733SOL     OW99240   1.704   0.131   7.069  0.4267  0.1712 -0.0416
31733SOL    HW199241   1.753   0.061   7.026  1.6846 -0.5601  2.3805
31733SOL    HW299242   1.613   0.103   7.063  0.8848 -1.6839  0.7958
31734SOL     OW99243   8.953   8.957   4.371 -0.2865 -0.2152 -0.6298
31734SOL    HW199244   8.902   9.028   4.332  0.4595  1.4018  1.1826
31734SOL    HW299245   8.955   8.889   4.303 -1.6883  1.1577 -2.1376
31735SOL     OW99246   2.451   7.447   0.276 -0.5732  0.0812  0.2690
31735SOL    HW199247   2.426   7.448   0.183 -1.3417 -0.1183  0.4599
31735SOL    HW299248   2.435   7.356   0.303 -0.1168  0.0796  0.5365
31736SOL     OW99249   0.495   8.632   3.925  0.1827  0.0335  0.0981
31736SOL    HW199250   0.430   8.566   3.946  0.1195 -0.6908 -2.1606
31736SOL    HW299251   0.494   8.638   3.830  1.0351  2.4513  0.1721
31737SOL     OW99252   5.550   5.447   2.108 -0.6891 -0.4849 -0.2118
31737SOL    HW199253   5.534   5.368   2.058  0.7890 -0.8653 -0.1212
31737SOL    HW299254   5.645   5.452   2.117 -0.8699 -0.3053  2.3300
31738SOL     OW99255   1.854   9.289   8.870 -0.2469 -0.4499 -0.1440
31738SOL    HW199256   1.843   9.258   8.780 -0.5301 -0.1948 -0.1989
31738SOL    HW299257   1.921   9.358   8.863  0.1367 -0.8129 -0.0739
31739SOL     OW99258   6.080   6.427   9.381 -0.0085  0.0082 -0.2475
31739SOL    HW199259   6.140   6.368   9.335  1.5493  0.0079  1.6559
31739SOL    HW299260   6.079   6.394   9.471 -0.7941  1.6156  0.3693
31740SOL     OW99261   0.115   9.174   2.790 -0.1267  0.3833  0.2819
31740SOL    HW199262   0.156   9.117   2.725 -0.6930 -1.1594  1.2134
31740SOL    HW299263   0.028   9.193   2.754 -0.4772 -0.5503  0.5853
31741SOL     OW99264   0.167   6.501   7.670 -0.2196 -0.0969 -0.0086
31741SOL    HW199265   0.091   6.455   7.635 -0.6755 -0.0507  0.9145
31741SOL    HW299266   0.131   6.584   7.704  0.5332  0.8185 -1.3447
31742SOL     OW99267   7.264   0.432   3.130 -0.2307 -0.1019  0.1021
31742SOL    HW199268   7.320   0.508   3.113 -0.7275  0.3892  0.6140
31742SOL    HW299269   7.175   0.467   3.131 -0.4841 -0.7280  0.1473
31743SOL     OW99270   4.967   0.146   5.668 -0.0350  0.1329 -0.5593
31743SOL    HW199271   4.969   0.070   5.725  0.6598 -0.3879 -1.2538
31743SOL    HW299272   4.903   0.205   5.708  1.1611  0.2532  1.3535
31744SOL     OW99273   6.944   7.861   1.801  0.8348 -0.4971  0.3683
31744SOL    HW199274   6.898   7.849   1.884  1.7249  0.2129  0.9827
31744SOL    HW299275   6.996   7.782   1.791  0.3018 -0.8363  0.1874
31745SOL     OW99276   8.919   0.823   8.440  0.4362  0.0752  0.9399
31745SOL    HW199277   8.989   0.760   8.424  1.6197  0.9827  2.3107
31745SOL    HW299278   8.924   0.841   8.534 -1.4560  0.3898  1.0067
31746SOL     OW99279   8.973  10.209   4.648  0.0121 -0.6148 -0.1832
31746SOL    HW199280   9.051  10.236   4.599  1.1027 -1.9058  0.7687
31746SOL    HW299281   8.927  10.148   4.590  1.0801 -1.8217  0.1965
31747SOL     OW99282   4.550   8.681   4.196 -0.2639 -0.1126 -0.3252
31747SOL    HW199283   4.545   8.620   4.270  0.2066 -2.0897 -1.8584
31747SOL    HW299284   4.643   8.700   4.187 -0.4987  1.8736  0.8922
31748SOL     OW99285   1.253   1.405   1.594  0.1340 -0.5188  0.5397
31748SOL    HW199286   1.237   1.490   1.636 -1.9887 -0.8547  0.4911
31748SOL    HW299287   1.278   1.347   1.666  1.9027  0.1641  0.5372
31749SOL     OW99288   1.294   1.957   4.565  0.2204 -0.2514  0.3005
31749SOL    HW199289   1.233   1.938   4.494 -0.2508 -0.6671  0.8128
31749SOL    HW299290   1.313   1.872   4.604 -0.9830  0.1559  1.8593
31750SOL     OW99291   9.944   7.165   7.243  0.0083  0.4438 -0.6793
31750SOL    HW199292   9.853   7.160   7.273 -0.1240  1.4684 -0.8926
31750SOL    HW299293   9.949   7.246   7.193  1.3141  0.9725  0.2607
31751SOL     OW99294   0.520   6.509   8.110 -0.2225  0.0486  0.2889
31751SOL    HW199295   0.434   6.518   8.069  0.9520  2.0952 -1.9801
31751SOL    HW299296   0.572   6.460   8.046  0.6716  0.0672  0.9873
31752SOL     OW99297   4.983   6.825   9.830  0.9168  0.7961  0.2757
31752SOL    HW199298   4.991   6.868   9.745 -1.6209  0.8460 -0.0263
31752SOL    HW299299   4.982   6.732   9.809  1.3366  0.7656  0.3814
31753SOL     OW99300   7.575   3.008   5.777 -0.5519  0.4276 -0.0432
31753SOL    HW199301   7.594   2.957   5.698  1.6664 -1.4735  1.5857
31753SOL    HW299302   7.560   3.097   5.745 -1.0676 -0.5209 -2.6913
31754SOL     OW99303  10.276   5.814   8.825 -0.0244  0.1625  0.1236
31754SOL    HW199304  10.250   5.722   8.820  0.4229 -0.0317  1.2533
31754SOL    HW299305  10.357   5.814   8.875 -0.1525  1.1963  0.3593
31755SOL     OW99306   4.383   3.052   0.974 -0.3371  0.3401 -1.4345
31755SOL    HW199307   4.440   2.990   1.019 -1.4685  1.1459  1.3259
31755SOL    HW299308   4.441   3.098   0.914  1.5854 -0.0553  0.0152
31756SOL     OW99309   0.180   3.944   9.061  0.2263  1.0311  0.2821
31756SOL    HW199310   0.226   3.942   8.977  0.2955  1.8649  0.2981
31756SOL    HW299311   0.119   4.017   9.054 -0.6596  0.3250  0.5013
31757SOL     OW99312   7.911   7.596   8.180 -0.2733  0.2862  0.1792
31757SOL    HW199313   7.904   7.501   8.172  1.0924 -0.0189  1.9431
31757SOL    HW299314   7.840   7.620   8.239 -1.6630  0.6431 -1.5494
31758SOL     OW99315   4.961   0.670   8.205 -0.2626  0.0697  0.1559
31758SOL    HW199316   4.963   0.684   8.299  1.1118  1.0623  0.0181
31758SOL    HW299317   4.894   0.731   8.173 -0.7157 -0.2553  0.4786
31759SOL     OW99318   5.541   8.889   2.892 -0.3507 -0.3417 -0.1872
31759SOL    HW199319   5.567   8.814   2.945  0.9757  0.2800  0.0817
31759SOL    HW299320   5.583   8.964   2.933 -2.9135  0.8403  0.4856
31760SOL     OW99321   7.244   0.483   0.468 -0.8675 -0.3836 -0.6758
31760SOL    HW199322   7.294   0.523   0.539  0.3941 -0.2997 -1.5693
31760SOL    HW299323   7.197   0.410   0.509 -0.1701 -0.3314  0.2395
31761SOL     OW99324   2.308  10.000   0.009 -0.3361  0.4578  0.1733
31761SOL    HW199325   2.387  10.001  -0.044 -0.1934  1.7436  0.3903
31761SOL    HW299326   2.263   9.919  -0.016 -0.0425  0.8086 -1.5692
31762SOL     OW99327   6.879   1.697   6.510  0.3541  0.2920 -0.8007
31762SOL    HW199328   6.944   1.731   6.449 -0.0791  1.0983 -0.8271
31762SOL    HW299329   6.823   1.772   6.529  0.2991 -0.0272  0.3519
31763SOL     OW99330   9.823   7.289   7.951 -0.1948  0.0778 -0.3154
31763SOL    HW199331   9.776   7.206   7.959 -0.9360  0.1279 -3.1002
31763SOL    HW299332   9.759   7.355   7.976 -0.0588 -0.0698  0.4726
31764SOL     OW99333   7.035   9.969   4.600 -0.1900 -0.2158  0.4172
31764SOL    HW199334   7.091  10.046   4.610 -1.5308  0.9815 -0.8473
31764SOL    HW299335   6.960  10.000   4.550 -2.0876 -1.6985  2.1339
31765SOL     OW99336   4.748   1.155   7.192  0.0451 -0.0684  0.2920
31765SOL    HW199337   4.822   1.144   7.132  1.5186  2.3002  1.5168
31765SOL    HW299338   4.787   1.149   7.279 -1.6200 -0.9343  1.0147
31766SOL     OW99339   3.750   3.447   4.858 -0.0005  0.6708  0.4858
31766SOL    HW199340   3.719   3.503   4.929 -0.4978 -0.3346  1.0768
31766SOL    HW299341   3.702   3.365   4.869  0.4932  0.2287 -0.5443
31767SOL     OW99342   1.618   5.969   6.543  0.2211  0.4900 -0.2433
31767SOL    HW199343   1.622   6.022   6.464 -0.8174 -0.1265 -0.7250
31767SOL    HW299344   1.695   5.996   6.594  1.4315  0.2246 -1.8780
31768SOL     OW99345   4.312   0.616   3.057  0.0515  0.5347  0.4957
31768SOL    HW199346   4.364   0.679   3.007  1.0905 -1.4006 -1.0078
31768SOL    HW299347   4.229   0.661   3.074  0.0266  1.6547 -2.1535
31769SOL     OW99348   0.839   5.042   3.699  0.1212  0.1502 -0.2598
31769SOL    HW199349   0.886   4.960   3.716 -1.6105 -0.4884  1.9815
31769SOL    HW299350   0.775   5.020   3.632  2.1152  0.7363 -2.4844
31770SOL     OW99351   8.454   9.582   5.658  0.0038 -0.5630  0.2914
31770SOL    HW199352   8.478   9.673   5.638  2.0157 -1.2444 -0.7241
31770SOL    HW299353   8.421   9.548   5.575 -2.4183 -0.3418  1.0886
31771SOL     OW99354   5.920   7.487   5.143 -0.1864 -0.4521  0.2037
31771SOL    HW199355   5.902   7.537   5.063  0.7506  0.0185  0.2757
31771SOL    HW299356   5.854   7.418   5.143 -0.2445 -0.4179 -0.9435
31772SOL     OW99357   2.806   8.943   1.118  0.4271  0.3546  0.1397
31772SOL    HW199358   2.882   8.941   1.175  1.6248 -0.1200 -1.3878
31772SOL    HW299359   2.814   9.025   1.069  0.9250 -0.4638 -1.2163
31773SOL     OW99360   3.005   2.577   2.767 -0.3091 -0.0722  0.1225
31773SOL    HW199361   2.947   2.501   2.766 -0.1381 -0.2015 -0.0191
31773SOL    HW299362   3.066   2.560   2.839 -2.6166  1.7135  2.6743
31774SOL     OW99363   8.459   5.646   7.377  1.0265  0.6471  0.1017
31774SOL    HW199364   8.391   5.679   7.435  1.0771  0.4436  0.2797
31774SOL    HW299365   8.422   5.655   7.289  1.8344  3.1382 -0.0709
31775SOL     OW99366   8.371   3.027   5.542 -0.9529 -0.5077  0.2421
31775SOL    HW199367   8.322   3.106   5.519  1.7024  1.4049  0.6923
31775SOL    HW299368   8.409   2.997   5.459 -0.1891  0.0052  0.3977
31776SOL     OW99369   6.251   3.218   1.002 -0.3613 -0.5922 -0.1464
31776SOL    HW199370   6.319   3.279   1.028  0.4896 -0.5803 -2.1741
31776SOL    HW299371   6.176   3.239   1.057  1.1256 -0.3582  1.8933
31777SOL     OW99372   3.566  10.100   6.317  0.4847  0.8267  0.0560
31777SOL    HW199373   3.477  10.093   6.351  0.5168  2.2710  0.5037
31777SOL    HW299374   3.560  10.167   6.249  1.2734  1.1195  0.2682
31778SOL     OW99375   6.423   3.192   2.074 -0.2136 -0.0422  0.4004
31778SOL    HW199376   6.465   3.244   2.005 -0.8207 -0.4920 -0.3318
31778SOL    HW299377   6.412   3.252   2.147 -0.1068  0.6191 -0.1217
31779SOL     OW99378   6.640   5.693   0.987  0.2249 -0.0537  0.4125
31779SOL    HW199379   6.650   5.786   1.006  0.1973 -0.3017  1.7562
31779SOL    HW299380   6.613   5.690   0.895 -1.0554  1.3387  0.7010
31780SOL     OW99381   8.440   7.003   9.374  0.5930 -0.5873 -0.3944
31780SOL    HW199382   8.373   6.950   9.331 -2.9298  2.0742  1.2616
31780SOL    HW299383   8.482   7.051   9.302 -0.6845 -0.8952 -1.3814
31781SOL     OW99384   2.147   0.221   9.650 -0.5813  0.4008  0.3129
31781SOL    HW199385   2.143   0.128   9.625  0.9660  0.7133 -1.2328
31781SOL    HW299386   2.167   0.219   9.743  0.5909 -0.8435  0.0734
31782SOL     OW99387   7.575   0.004   5.733 -0.5960  0.0657 -0.1920
31782SOL    HW199388   7.646  -0.058   5.751  1.5747  2.3697 -0.2632
31782SOL    HW299389   7.586   0.027   5.641 -1.8380  0.0228 -0.3687
31783SOL     OW99390   6.492   1.329   8.289 -0.3141  0.6714 -0.2943
31783SOL    HW199391   6.534   1.300   8.207  1.2042 -0.1946  0.7388
31783SOL    HW299392   6.557   1.311   8.357 -2.0732  0.0465  1.3142
31784SOL     OW99393   8.518   6.445   1.002  0.6889  0.3874 -0.2364
31784SOL    HW199394   8.562   6.363   0.982  0.7365  0.4815 -0.5135
31784SOL    HW299395   8.579   6.491   1.060  0.5465  0.1146  0.1332
31785SOL     OW99396   0.539   1.893   9.885 -0.2987 -0.2616  0.0622
31785SOL    HW199397   0.563   1.871   9.794 -2.0872  0.5796 -0.6568
31785SOL    HW299398   0.599   1.963   9.909 -0.5990  0.3482 -0.9230
31786SOL     OW99399   3.697   0.976   9.483  0.3504  0.0995  0.3878
31786SOL    HW199400   3.651   1.039   9.427  0.7110 -0.2539 -0.3093
31786SOL    HW299401   3.653   0.893   9.467  2.4473 -0.6795 -1.8259
31787SOL     OW99402   7.621   7.655   9.449  0.1203 -0.0836  0.1150
31787SOL    HW199403   7.596   7.569   9.415  0.4646 -1.0452  2.1064
31787SOL    HW299404   7.656   7.702   9.374 -0.7670 -1.4037 -1.1803
31788SOL     OW99405   3.937   3.044   3.280 -0.3850  0.2862  0.1331
31788SOL    HW199406   3.947   3.116   3.218 -2.7622  0.3565 -0.2648
31788SOL    HW299407   4.027   3.019   3.303  0.5470  0.9962 -2.4371
31789SOL     OW99408   6.271   1.140   6.674  0.3496 -0.7274 -0.4897
31789SOL    HW199409   6.275   1.049   6.701  1.4499 -0.9538 -1.3496
31789SOL    HW299410   6.357   1.158   6.636  0.7104  1.1132  1.0377
31790SOL     OW99411   5.770   1.996   3.457  0.1440  0.1099 -0.1534
31790SOL    HW199412   5.719   1.946   3.521  1.4217  0.6388  1.3336
31790SOL    HW299413   5.802   2.072   3.505  2.3770 -0.2203 -0.9981
31791SOL     OW99414   6.925   5.395   0.804 -0.2210  0.5767 -0.4396
31791SOL    HW199415   6.972   5.479   0.810  1.4146 -0.1584 -2.0387
31791SOL    HW299416   6.993   5.329   0.809 -1.3335 -0.6245 -0.6603
31792SOL     OW99417   5.113   0.457   9.238  0.0239 -0.3619 -0.0541
31792SOL    HW199418   5.052   0.480   9.307 -1.8495 -0.4142 -1.6102
31792SOL    HW299419   5.108   0.361   9.232  1.4397 -0.5175  0.8027
31793SOL     OW99420   1.427   7.558   3.714  0.5218  0.8512  0.5708
31793SOL    HW199421   1.392   7.526   3.797  0.2122 -0.9089 -0.1933
31793SOL    HW299422   1.507   7.606   3.738  0.4165  0.4159  1.8679
31794SOL     OW99423   3.883   2.929   1.089  0.5998  0.6157  0.0260
31794SOL    HW199424   3.881   2.999   1.154 -2.3859 -0.9698  1.8788
31794SOL    HW299425   3.954   2.871   1.118 -0.4491  0.1236  1.7786
31795SOL     OW99426   7.969  10.239   3.548 -0.5397 -0.0835 -0.2579
31795SOL    HW199427   8.055  10.281   3.559 -1.0134  1.0278 -0.6065
31795SOL    HW299428   7.920  10.300   3.493 -2.2473  0.3607  1.6259
31796SOL     OW99429   5.470   6.144   1.734 -0.1918  0.5173  0.1035
31796SOL    HW199430   5.526   6.083   1.686  0.8607  1.3077  0.2909
31796SOL    HW299431   5.431   6.092   1.804 -1.5412 -0.5938 -1.4088
31797SOL     OW99432   3.011   3.150   0.163 -0.2502  0.2461  0.1643
31797SOL    HW199433   3.032   3.183   0.251 -1.5174  1.1015  0.1663
31797SOL    HW299434   2.982   3.227   0.114  1.4926 -0.0129 -1.3825
31798SOL     OW99435   0.938   2.234   4.762  0.4632 -0.6073  0.7540
31798SOL    HW199436   0.927   2.261   4.670 -1.0280  1.5664  1.4920
31798SOL    HW299437   0.859   2.183   4.781  0.3762 -0.3655  1.0444
31799SOL     OW99438   4.579   7.476   3.707 -0.5733 -0.0966 -0.1605
31799SOL    HW199439   4.612   7.447   3.621  1.7274 -1.0489  0.9605
31799SOL    HW299440   4.518   7.547   3.686  1.5628  1.2312 -2.5154
31800SOL     OW99441   0.108   1.685   5.847 -0.0791 -0.1549  0.8538
31800SOL    HW199442   0.037   1.655   5.790  1.3823  1.0473 -1.7660
31800SOL    HW299443   0.082   1.656   5.934 -3.3383 -0.5350 -0.1008
31801SOL     OW99444   6.364   7.640   0.059 -0.2424  0.2132  0.4079
31801SOL    HW199445   6.385   7.644   0.152  1.0723  1.0527  0.0996
31801SOL    HW299446   6.425   7.575   0.023 -2.4818 -2.1162  0.5221
31802SOL     OW99447   6.065   1.824   4.290 -0.3198  0.3812  0.2769
31802SOL    HW199448   6.137   1.807   4.351 -0.9521  2.3047  1.6715
31802SOL    HW299449   5.987   1.796   4.337 -0.6955  0.5024 -0.2662
31803SOL     OW99450   5.306   7.353   2.980  0.0048  0.4618 -0.7961
31803SOL    HW199451   5.300   7.446   3.005 -0.6811  0.3085 -0.3520
31803SOL    HW299452   5.399   7.332   2.989 -0.2828  0.1312  2.7956
31804SOL     OW99453   6.959   7.544   8.648 -0.4390  0.0935  0.1053
31804SOL    HW199454   6.994   7.514   8.732  0.7102  1.0801  0.0045
31804SOL    HW299455   7.027   7.601   8.613 -0.9088 -0.2980 -1.5067
31805SOL     OW99456   9.314   7.725   6.810  0.1412 -0.3477  0.9336
31805SOL    HW199457   9.322   7.812   6.770 -0.8170 -0.3064  0.8085
31805SOL    HW299458   9.228   7.694   6.783  0.4256 -1.2894  1.0872
31806SOL     OW99459   3.776   9.780   8.798 -0.1304  0.2225 -0.1266
31806SOL    HW199460   3.712   9.850   8.782  0.5819  0.9235  0.0383
31806SOL    HW299461   3.845   9.795   8.734 -0.6967 -1.2848 -1.1464
31807SOL     OW99462   9.370   5.055   5.002  0.7254  0.5867  0.0814
31807SOL    HW199463   9.440   4.999   5.037 -0.0177 -1.4655 -1.5229
31807SOL    HW299464   9.408   5.097   4.926  0.4434  0.0144 -0.3823
31808SOL     OW99465   0.654   0.940   6.625  0.3566 -0.3123  0.2139
31808SOL    HW199466   0.561   0.928   6.605  0.0352 -0.3741  1.6346
31808SOL    HW299467   0.686   0.851   6.640  1.1310 -0.4892 -2.1046
31809SOL     OW99468   7.024   7.810   6.490  0.2937 -0.3253 -0.4436
31809SOL    HW199469   6.961   7.831   6.558 -0.5526  1.4098 -1.6910
31809SOL    HW299470   7.109   7.813   6.534 -0.3384 -0.8667  0.8618
31810SOL     OW99471   3.689   3.842   1.345  0.2072  0.1036  0.2082
31810SOL    HW199472   3.776   3.812   1.368  0.3905  0.6073  0.1929
31810SOL    HW299473   3.703   3.930   1.310 -0.5083  1.0080  2.0592
31811SOL     OW99474   6.717   5.510   1.735 -0.4056 -0.1170 -0.7322
31811SOL    HW199475   6.755   5.434   1.779  0.3352 -0.3631 -1.7591
31811SOL    HW299476   6.792   5.555   1.696 -0.8238  1.2182 -0.0497
31812SOL     OW99477   0.649   7.465  10.080 -0.4935 -0.3240  0.1367
31812SOL    HW199478   0.660   7.535  10.016 -2.2662 -0.8132 -0.7431
31812SOL    HW299479   0.638   7.510  10.164  0.0130  0.3706 -0.1581
31813SOL     OW99480   6.125   2.986   8.961 -1.3307 -0.2133  0.0069
31813SOL    HW199481   6.119   2.955   9.051 -0.6412  1.3055  0.6185
31813SOL    HW299482   6.172   3.069   8.967  0.6920 -1.1108 -2.0004
31814SOL     OW99483   1.748   5.180   9.412  0.8897 -0.6833  0.3964
31814SOL    HW199484   1.842   5.161   9.403  0.9899 -0.0037 -0.1323
31814SOL    HW299485   1.734   5.256   9.355 -0.2238 -1.4911 -0.4574
31815SOL     OW99486   2.930   9.240   1.483 -0.3856  0.0891 -0.1467
31815SOL    HW199487   2.838   9.219   1.467 -0.5479  0.4773  0.2359
31815SOL    HW299488   2.965   9.163   1.528 -0.5468 -0.0218 -0.2136
31816SOL     OW99489   8.735   6.848   5.520 -0.5066 -0.5694 -0.0258
31816SOL    HW199490   8.751   6.754   5.529 -0.7379 -0.6001  0.0665
31816SOL    HW299491   8.735   6.880   5.610 -2.8145 -0.8751  0.1302
31817SOL     OW99492   3.463   3.414   5.727 -0.2001  0.6035 -0.1143
31817SOL    HW199493   3.546   3.463   5.723  0.1380  0.1218  0.6974
31817SOL    HW299494   3.466   3.357   5.650 -0.0428  1.0050 -0.4092
31818SOL     OW99495   0.791   3.843   7.710  0.4335  0.5207  0.0650
31818SOL    HW199496   0.717   3.853   7.771  0.8618  0.9247  0.5276
31818SOL    HW299497   0.867   3.829   7.766  0.4060 -2.2013 -0.4563
31819SOL     OW99498   2.411   3.420   1.295 -0.1832 -0.1474 -0.8007
31819SOL    HW199499   2.502   3.448   1.304 -0.1827 -0.5853  0.8212
31819SOL    HW299500   2.396   3.419   1.200  0.8871  1.8105 -1.0546
31820SOL     OW99501   2.755   3.330   2.610 -0.1166  0.2683  0.4004
31820SOL    HW199502   2.762   3.390   2.536  1.0204 -0.7058 -0.3157
31820SOL    HW299503   2.781   3.383   2.686  1.2911  0.6068 -0.2796
31821SOL     OW99504   6.444   5.705   0.491 -0.6527 -0.4177 -0.1650
31821SOL    HW199505   6.366   5.691   0.545 -1.0833 -0.5768 -0.8125
31821SOL    HW299506   6.410   5.746   0.411 -0.0947 -0.6553 -0.5247
31822SOL     OW99507   5.086   4.427   3.763 -0.2413  0.4956  0.4702
31822SOL    HW199508   5.029   4.355   3.738 -1.0762  0.6843  1.7094
31822SOL    HW299509   5.171   4.386   3.779  0.0048  0.2065 -1.3707
31823SOL     OW99510   5.228   1.172   8.782 -0.5504 -0.5852  0.2009
31823SOL    HW199511   5.284   1.154   8.857  0.2860  0.4148 -0.1616
31823SOL    HW299512   5.246   1.101   8.720  0.3924 -0.2296  0.0551
31824SOL     OW99513  10.032   4.942   5.881 -0.5049 -0.1932  0.5597
31824SOL    HW199514  10.008   4.958   5.973 -0.2297  1.6651  0.3502
31824SOL    HW299515  10.090   5.015   5.859 -1.3634 -0.0435 -1.3908
31825SOL     OW99516   3.389   9.865   9.462  0.3649  0.3090  0.2623
31825SOL    HW199517   3.476   9.906   9.454  1.2443 -1.6429 -0.6730
31825SOL    HW299518   3.406   9.779   9.500 -1.3477  0.4067  1.3706
31826SOL     OW99519   1.055   9.427   6.504  0.3592 -0.0245 -0.3222
31826SOL    HW199520   0.997   9.425   6.428 -0.9657 -1.5212  0.6519
31826SOL    HW299521   1.086   9.337   6.514  1.4134  0.3865  0.2537
31827SOL     OW99522   4.278   8.248   6.890 -0.3454  0.2935 -0.0326
31827SOL    HW199523   4.253   8.294   6.971  0.7443 -0.1454  0.5740
31827SOL    HW299524   4.250   8.158   6.905  0.8568 -0.0370  0.3450
31828SOL     OW99525   6.845   6.142   4.837 -0.1959 -0.0126 -0.2709
31828SOL    HW199526   6.897   6.222   4.848  1.4565 -0.7715 -1.9336
31828SOL    HW299527   6.892   6.075   4.887 -0.2919 -0.4309 -0.7299
31829SOL     OW99528   1.855   5.517   0.993  0.2651  0.1447 -0.2056
31829SOL    HW199529   1.823   5.440   0.947 -2.2510  0.1030  1.4402
31829SOL    HW299530   1.943   5.531   0.958 -0.4396 -1.5028 -2.8973
31830SOL     OW99531   7.812   4.836   0.936  0.5136 -0.0634  0.1610
31830SOL    HW199532   7.836   4.922   0.901 -1.3958 -0.0386 -1.2168
31830SOL    HW299533   7.763   4.856   1.016  1.0186  0.0518  0.4514
31831SOL     OW99534   7.372   2.537   2.851 -0.0569 -0.3829  0.1298
31831SOL    HW199535   7.380   2.528   2.946 -0.3811  2.5000  0.5113
31831SOL    HW299536   7.282   2.510   2.831  0.0065 -0.9760  0.6218
31832SOL     OW99537   4.974   1.669   4.915  0.0809  0.0102 -0.3843
31832SOL    HW199538   4.950   1.761   4.909 -1.7425 -0.4503 -0.5326
31832SOL    HW299539   4.936   1.639   4.997 -1.0138 -1.0532 -1.2385
31833SOL     OW99540   7.784   6.377   0.289 -0.2635  0.3338 -0.2411
31833SOL    HW199541   7.835   6.332   0.221 -0.3876  0.6969 -0.5792
31833SOL    HW299542   7.833   6.456   0.308 -0.2206  0.2227  0.1092
31834SOL     OW99543   8.283   1.440   7.167 -0.0420  0.1591  0.1758
31834SOL    HW199544   8.371   1.459   7.135  0.4040 -0.4653  0.9929
31834SOL    HW299545   8.228   1.443   7.088  0.4457  1.9412 -0.1374
31835SOL     OW99546   2.204   2.068   0.019 -0.4984 -0.2471  0.4193
31835SOL    HW199547   2.228   2.118  -0.059 -0.7142 -0.2681  0.3397
31835SOL    HW299548   2.221   1.976  -0.005 -1.4696 -0.3390  0.0637
31836SOL     OW99549   4.576   9.183   3.325 -0.1602 -0.4991  0.1948
31836SOL    HW199550   4.564   9.226   3.410  0.2153 -2.4973  1.3474
31836SOL    HW299551   4.491   9.141   3.307 -0.2840  0.0456 -0.4967
31837SOL     OW99552   0.290   7.013   6.049  0.5847  0.2910  0.5197
31837SOL    HW199553   0.327   7.101   6.039  0.9713 -0.0468 -1.4643
31837SOL    HW299554   0.195   7.027   6.048  0.6375  0.7693  1.3016
31838SOL     OW99555   7.066   1.088   1.347  0.4128  0.4423  0.5040
31838SOL    HW199556   7.137   1.067   1.286 -0.0283  0.8869 -0.1815
31838SOL    HW299557   7.054   1.008   1.398  0.6957  0.0067 -0.0925
31839SOL     OW99558   4.140   7.780   7.948 -0.1761  0.0343 -0.5585
31839SOL    HW199559   4.087   7.789   8.028 -2.4521  2.6562 -2.1811
31839SOL    HW299560   4.089   7.721   7.893 -0.6044  1.2118 -1.4674
31840SOL     OW99561   8.018   3.643   9.196  0.3230  0.2379 -0.5565
31840SOL    HW199562   7.956   3.605   9.258  0.1362  1.5943  0.1175
31840SOL    HW299563   7.975   3.634   9.110 -1.2955  1.9860 -0.0061
31841SOL     OW99564   2.225   2.852   5.463  0.0813 -0.0630  0.5141
31841SOL    HW199565   2.249   2.853   5.370 -1.4789  1.3842  0.0857
31841SOL    HW299566   2.309   2.841   5.509  1.1676  1.3889 -0.9979
31842SOL     OW99567   3.329   5.533   5.876 -0.5482  0.8046 -0.2425
31842SOL    HW199568   3.329   5.440   5.855  1.8948  1.0736 -1.7541
31842SOL    HW299569   3.307   5.537   5.969 -3.0124 -1.0611 -0.6250
31843SOL     OW99570  10.186   1.391   8.293  0.2700 -0.0322 -0.3022
31843SOL    HW199571  10.165   1.400   8.386 -1.1015 -0.4055 -0.5435
31843SOL    HW299572  10.107   1.351   8.255  1.1917 -0.8206 -1.4544
31844SOL     OW99573   5.951   5.442   1.489  0.6859  0.5281 -0.6003
31844SOL    HW199574   5.946   5.347   1.480 -0.1534  0.3267  1.5420
31844SOL    HW299575   6.043   5.459   1.509  0.5235 -0.0429  0.7410
31845SOL     OW99576   9.605   0.248   4.730 -0.1866 -0.5227 -0.3365
31845SOL    HW199577   9.667   0.269   4.660  0.8987  2.6557  1.3747
31845SOL    HW299578   9.521   0.280   4.697  0.7394  3.3019  0.5832
31846SOL     OW99579   7.770   4.005   3.093 -0.5220  0.1798 -0.1805
31846SOL    HW199580   7.790   3.911   3.093  0.2327  0.3343 -0.0814
31846SOL    HW299581   7.773   4.030   3.185 -1.0908  0.2355 -0.1704
31847SOL     OW99582   0.768   7.769   3.158 -0.4493 -0.2391  0.0791
31847SOL    HW199583   0.809   7.710   3.095 -2.1480 -1.3458 -0.0506
31847SOL    HW299584   0.674   7.760   3.142 -0.8247  1.1282  1.2963
31848SOL     OW99585   1.460   1.999   3.080  0.4470 -0.1169  0.8937
31848SOL    HW199586   1.386   1.968   3.133  0.0884  0.9525  1.0362
31848SOL    HW299587   1.473   1.930   3.014 -2.4117  0.8169 -0.8308
31849SOL     OW99588   3.857   2.397   3.530  0.0717 -0.0557  0.5261
31849SOL    HW199589   3.950   2.405   3.513  0.1911 -0.0263  1.1561
31849SOL    HW299590   3.815   2.448   3.461  0.3757 -2.1661 -1.3446
31850SOL     OW99591   4.039   0.498   1.150  0.3151 -0.0293 -0.2977
31850SOL    HW199592   4.025   0.405   1.131 -0.1150  0.3667 -2.0876
31850SOL    HW299593   3.960   0.525   1.197 -1.0115  0.1114 -2.4889
31851SOL     OW99594   3.527   6.527   7.185 -0.1215  0.1185  0.4098
31851SOL    HW199595   3.549   6.582   7.110 -1.1874 -1.2618 -0.9789
31851SOL    HW299596   3.482   6.586   7.246 -1.3483  0.7768 -1.0840
31852SOL     OW99597   5.312   9.319   3.887  0.2308 -0.1119 -0.1667
31852SOL    HW199598   5.256   9.246   3.914 -0.4388  0.1436 -0.8251
31852SOL    HW299599   5.257   9.397   3.900  0.4899  0.1538 -0.6666
31853SOL     OW99600   2.370   1.038   1.627 -0.1613 -0.1992  0.3816
31853SOL    HW199601   2.327   0.955   1.647  0.4608 -0.8857 -1.0757
31853SOL    HW299602   2.438   1.047   1.694 -0.4107 -0.7188  0.7088
31854SOL     OW99603   1.313   9.669   9.039 -0.5139  0.1992  0.0615
31854SOL    HW199604   1.394   9.717   9.021 -0.4950 -0.3012 -1.3208
31854SOL    HW299605   1.244   9.723   9.002 -0.4028 -1.2164 -2.4283
31855SOL     OW99606   7.487   3.060   1.286  0.3118  0.0418  0.2979
31855SOL    HW199607   7.424   3.103   1.344 -1.0858 -0.4946 -0.7772
31855SOL    HW299608   7.528   2.993   1.341 -0.3495  0.1225  0.9068
31856SOL     OW99609   1.766   2.492   3.602  0.2810 -0.1467  0.3695
31856SOL    HW199610   1.767   2.477   3.507 -0.5172  1.8765 -0.0193
31856SOL    HW299611   1.740   2.407   3.639 -0.4299 -0.7099 -1.2976
31857SOL     OW99612   2.802   5.149   7.423  0.6317  0.4190  0.1652
31857SOL    HW199613   2.834   5.204   7.351  1.7160 -0.1844  0.1562
31857SOL    HW299614   2.805   5.060   7.388 -2.6128  0.3992 -0.3830
31858SOL     OW99615   6.601   7.856   8.520  0.1056 -0.0168 -0.7635
31858SOL    HW199616   6.620   7.845   8.613 -0.3615  0.6765 -0.5773
31858SOL    HW299617   6.683   7.889   8.483  0.0184  0.6119 -0.4171
31859SOL     OW99618   8.011   1.297   0.757 -0.4201 -0.1403 -0.3296
31859SOL    HW199619   7.924   1.258   0.764 -0.4240 -0.2186 -0.8274
31859SOL    HW299620   7.999   1.375   0.704 -0.5669  1.0423  1.3401
31860SOL     OW99621   0.562   4.669   5.405  0.6983  0.4648 -0.0657
31860SOL    HW199622   0.618   4.724   5.460  2.8887  0.0860 -1.7793
31860SOL    HW299623   0.621   4.605   5.367 -1.0915 -0.5643 -1.2800
31861SOL     OW99624   8.213   3.139   3.242 -0.4617  0.1043 -0.0110
31861SOL    HW199625   8.203   3.056   3.195 -2.9550 -0.2985  1.0669
31861SOL    HW299626   8.292   3.127   3.296  0.1911 -0.8857 -1.1296
31862SOL     OW99627   2.667   2.289   9.134 -0.1621  0.0716  0.0454
31862SOL    HW199628   2.714   2.315   9.213 -1.2630  0.8190  0.4914
31862SOL    HW299629   2.623   2.369   9.106 -1.5299 -0.6916 -0.0669
31863SOL     OW99630   4.879   5.166   8.087  0.3464  0.5744 -0.5539
31863SOL    HW199631   4.845   5.234   8.144 -0.3136 -0.5794  0.4764
31863SOL    HW299632   4.958   5.204   8.048 -0.9452  2.5516 -1.3774
31864SOL     OW99633   8.883   0.563   0.697  1.0671  0.3290 -0.1390
31864SOL    HW199634   8.897   0.614   0.777 -0.2575  1.9549 -0.9024
31864SOL    HW299635   8.882   0.628   0.627  1.9863 -1.0436 -1.4816
31865SOL     OW99636   0.639   9.932   4.684  0.0074 -0.4416 -0.2791
31865SOL    HW199637   0.713   9.980   4.647  0.9255 -2.7298 -1.6251
31865SOL    HW299638   0.565   9.992   4.677  1.7665  2.1010  1.5617
31866SOL     OW99639   2.308   1.289   4.076  0.5041 -0.2802  0.4225
31866SOL    HW199640   2.263   1.347   4.138  0.0931  0.9121 -0.9447
31866SOL    HW299641   2.395   1.277   4.113  0.3293  0.5493  1.1429
31867SOL     OW99642   5.009   1.728   8.411 -0.5919 -0.1889  0.5002
31867SOL    HW199643   5.064   1.793   8.367  1.2792 -0.6032  2.0789
31867SOL    HW299644   4.935   1.716   8.353 -0.0345  1.9294 -0.7597
31868SOL     OW99645   0.266   5.584   6.611  0.3824  0.2112  0.2083
31868SOL    HW199646   0.273   5.674   6.642  0.9743  0.3235 -0.2454
31868SOL    HW299647   0.190   5.549   6.657 -0.8286  1.4159 -0.7754
31869SOL     OW99648   6.737   2.410   0.505 -0.0948  0.4537  0.3851
31869SOL    HW199649   6.769   2.441   0.589 -0.1331  1.1518  0.1507
31869SOL    HW299650   6.785   2.329   0.488  0.0388  0.4072  0.9913
31870SOL     OW99651   5.834   5.575   5.730  0.2328 -0.1857  0.5346
31870SOL    HW199652   5.781   5.532   5.663 -0.1924  1.8159 -0.5180
31870SOL    HW299653   5.799   5.542   5.813 -1.1921 -0.5726 -0.1846
31871SOL     OW99654   5.073   9.375   7.549  0.0712 -0.1321  0.4268
31871SOL    HW199655   5.146   9.334   7.502 -0.0910  0.2445 -0.1687
31871SOL    HW299656   4.998   9.317   7.532 -0.7736  1.6588 -2.5557
31872SOL     OW99657   5.483   2.214   1.986 -0.6205 -0.2333 -0.0622
31872SOL    HW199658   5.473   2.309   1.994  0.0060 -0.1278 -0.4252
31872SOL    HW299659   5.504   2.200   1.893 -3.2750 -0.9761 -0.6268
31873SOL     OW99660   1.988   6.680   8.099 -0.4881  0.0561  0.4791
31873SOL    HW199661   2.042   6.638   8.166  1.2460 -1.5897 -1.7780
31873SOL    HW299662   2.006   6.774   8.109 -1.2343 -0.0085  3.0014
31874SOL     OW99663   5.664   8.898   2.634 -0.1320  0.1880  0.2976
31874SOL    HW199664   5.708   8.982   2.618 -2.5432  1.5078  0.0614
31874SOL    HW299665   5.623   8.909   2.720 -0.0253 -0.9825  0.5088
31875SOL     OW99666   6.072   6.690   2.919 -0.1059 -0.7554  0.0970
31875SOL    HW199667   6.016   6.659   2.991 -0.0760  1.9740  1.4229
31875SOL    HW299668   6.161   6.681   2.952  0.0966 -2.0313 -0.7293
31876SOL     OW99669   9.817   0.178   7.831  0.3014  0.4736 -0.2378
31876SOL    HW199670   9.871   0.253   7.807  0.6186 -0.0046 -1.0618
31876SOL    HW299671   9.728   0.213   7.837  0.6088  1.1539  0.6014
31877SOL     OW99672   0.902   8.501   4.074  0.0673  0.1627  0.2777
31877SOL    HW199673   0.962   8.482   4.147  3.1115  0.1017 -2.0273
31877SOL    HW299674   0.849   8.422   4.066  0.9870 -0.5912  1.2675
31878SOL     OW99675   2.805   0.099   6.535  0.3007  0.3253  0.5587
31878SOL    HW199676   2.808   0.004   6.539  1.4033  0.2642 -0.9072
31878SOL    HW299677   2.712   0.121   6.541  0.0999 -0.7581  1.8937
31879SOL     OW99678   3.627   4.506   2.797 -0.2049  0.0090  0.3773
31879SOL    HW199679   3.683   4.462   2.733 -0.4444  0.6364 -0.2786
31879SOL    HW299680   3.602   4.588   2.754 -0.6165  0.3001  1.1588
31880SOL     OW99681   8.676   9.964   8.130 -0.4657  0.6808  0.4296
31880SOL    HW199682   8.638   9.976   8.217 -2.2269  0.8791 -0.3212
31880SOL    HW299683   8.647   9.876   8.104  2.1232 -0.4278  0.9811
31881SOL     OW99684   4.440   4.374   6.845 -0.6300  0.2658  0.2336
31881SOL    HW199685   4.433   4.285   6.880 -0.4269  0.4203  0.6693
31881SOL    HW299686   4.405   4.429   6.915 -1.5224  0.4628 -0.3548
31882SOL     OW99687   2.311   9.764   5.683 -0.6223 -0.3465  0.7596
31882SOL    HW199688   2.325   9.706   5.609  0.3797 -0.4310  0.9984
31882SOL    HW299689   2.236   9.725   5.730 -1.9873  0.3200 -0.7676
31883SOL     OW99690   1.919   4.425  10.066  0.0487 -0.2105 -0.1152
31883SOL    HW199691   1.966   4.381   9.995  0.4316  0.2724 -0.1661
31883SOL    HW299692   1.885   4.353  10.119 -0.8221 -0.5929 -1.1465
31884SOL     OW99693   1.805   4.217   8.976 -0.2321  0.0403  0.0334
31884SOL    HW199694   1.844   4.183   9.057 -0.1744 -2.0347 -0.7873
31884SOL    HW299695   1.816   4.146   8.913 -0.6476  1.4402 -1.7006
31885SOL     OW99696   5.522   9.302   3.136  0.2829 -0.3321 -0.4195
31885SOL    HW199697   5.465   9.282   3.210 -0.0964  1.3883 -0.2121
31885SOL    HW299698   5.466   9.349   3.074  1.1818  0.3968 -0.7031
31886SOL     OW99699   3.756   3.902   6.343 -0.1040  0.0910  0.2934
31886SOL    HW199700   3.746   3.808   6.329  0.8694  0.1693 -1.1181
31886SOL    HW299701   3.674   3.929   6.385 -0.1389 -1.4740  1.3142
31887SOL     OW99702   0.107   5.668   2.136 -0.1686  0.1846 -0.2267
31887SOL    HW199703   0.154   5.592   2.100  2.5366  2.5048 -1.9762
31887SOL    HW299704   0.039   5.686   2.072 -1.3263 -1.1112  0.5714
31888SOL     OW99705   8.860   0.333   3.491 -0.0454 -0.2702  0.4722
31888SOL    HW199706   8.824   0.389   3.559  1.1580 -0.1049  1.0073
31888SOL    HW299707   8.841   0.244   3.520 -2.2328 -0.1944 -0.5328
31889SOL     OW99708   7.028   2.352   5.052  0.0409  0.0077  0.4869
31889SOL    HW199709   6.996   2.279   5.000  1.1529 -0.4475  0.4107
31889SOL    HW299710   7.082   2.403   4.991  0.4382  0.0877  0.8990
31890SOL     OW99711   7.460   4.746   6.201 -0.0958  0.0202  0.0473
31890SOL    HW199712   7.442   4.726   6.109 -0.0610 -0.1986  0.0875
31890SOL    HW299713   7.500   4.833   6.198 -0.9816  0.4255 -0.0518
31891SOL     OW99714   2.355   2.227   6.288 -0.5561 -0.0549  0.0941
31891SOL    HW199715   2.287   2.294   6.302  1.3442  1.6509  1.7846
31891SOL    HW299716   2.415   2.268   6.226 -0.2251 -0.9035 -0.1510
31892SOL     OW99717   3.666   7.544   5.724  0.6294  0.1681  0.2873
31892SOL    HW199718   3.749   7.540   5.677 -0.1206 -0.9487 -1.0010
31892SOL    HW299719   3.646   7.453   5.747 -1.6006 -0.0147 -1.9663
31893SOL     OW99720   6.062   0.467   1.362 -0.1352  0.1204 -0.2067
31893SOL    HW199721   6.036   0.534   1.426  0.0131  0.5522 -0.5995
31893SOL    HW299722   6.153   0.487   1.341  0.2738 -0.8826  0.5165
31894SOL     OW99723   4.632   1.151   1.282  0.4887 -0.0041 -0.3970
31894SOL    HW199724   4.641   1.173   1.374 -0.8134  2.1203 -0.7203
31894SOL    HW299725   4.644   1.056   1.279  1.4554 -0.0031  1.8099
31895SOL     OW99726   5.666   0.686   2.026 -0.5540 -0.4251 -0.5445
31895SOL    HW199727   5.649   0.616   2.089 -1.4577 -0.6246 -0.9888
31895SOL    HW299728   5.633   0.765   2.068 -0.1960 -0.3859 -0.3378
31896SOL     OW99729   3.123   6.149   4.721  0.6410 -0.7532  0.1106
31896SOL    HW199730   3.136   6.054   4.713  1.7067 -0.6065 -0.0773
31896SOL    HW299731   3.145   6.184   4.635  1.1650 -0.2550  0.4376
31897SOL     OW99732   7.062   7.007   9.536  0.3955  0.0462 -0.0714
31897SOL    HW199733   6.983   6.979   9.490 -0.2731 -0.0540  1.1012
31897SOL    HW299734   7.033   7.080   9.591  1.0391 -0.2105  0.6214
31898SOL     OW99735   8.853   2.552   3.066  0.3128  0.3521  0.0374
31898SOL    HW199736   8.870   2.644   3.050 -0.9834  0.9935  2.0442
31898SOL    HW299737   8.772   2.534   3.017  0.8744  0.0947 -0.8235
31899SOL     OW99738   3.756   5.916   2.519  0.0911  0.0119 -0.4666
31899SOL    HW199739   3.677   5.968   2.531  0.3954  0.4158 -0.2061
31899SOL    HW299740   3.821   5.979   2.488  0.5795 -0.1330  0.2670
31900SOL     OW99741   4.042   9.302   1.312 -0.1928  0.0400  0.3354
31900SOL    HW199742   4.047   9.356   1.391  0.3690 -0.4184  0.6233
31900SOL    HW299743   4.061   9.363   1.241 -0.4129  0.3966  0.5773
31901SOL     OW99744   1.573   5.655   1.657  0.3862 -0.2799  0.0385
31901SOL    HW199745   1.643   5.712   1.688 -0.4000  1.0303 -0.5438
31901SOL    HW299746   1.518   5.710   1.602 -0.2064 -1.6834 -0.8535
31902SOL     OW99747   5.474   2.161   9.743 -0.6522 -0.8903  0.1019
31902SOL    HW199748   5.440   2.243   9.707 -0.1811 -0.6953  0.0984
31902SOL    HW299749   5.432   2.155   9.829  1.3885  0.7780  1.3088
31903SOL     OW99750   3.609   3.669   9.818  0.0608  0.0244 -0.0793
31903SOL    HW199751   3.590   3.575   9.814  0.8082 -0.1446  0.1481
31903SOL    HW299752   3.523   3.710   9.822 -0.2729 -0.6643  0.0842
31904SOL     OW99753   8.310   8.960   7.047 -0.0414 -1.1630  0.0504
31904SOL    HW199754   8.342   8.972   7.136 -0.7305 -0.9220  0.2667
31904SOL    HW299755   8.361   8.886   7.013  2.1284  0.3653 -0.2807
31905SOL     OW99756   2.266   4.119   9.715 -0.4220  0.2560 -0.0912
31905SOL    HW199757   2.268   4.066   9.795 -2.4398 -1.0823 -0.8452
31905SOL    HW299758   2.205   4.190   9.734  2.3759  2.5302  0.9590
31906SOL     OW99759   8.147   5.596   5.945  0.0703  0.5379  0.2867
31906SOL    HW199760   8.220   5.538   5.969 -0.1657  0.0248 -0.2196
31906SOL    HW299761   8.078   5.573   6.007  0.2830  0.9376  0.6860
31907SOL     OW99762   5.446   4.279   3.070  0.2820  0.0586 -0.2164
31907SOL    HW199763   5.509   4.320   3.130  0.2402 -0.3015  0.0759
31907SOL    HW299764   5.444   4.338   2.994  0.6740  0.2808 -0.0601
31908SOL     OW99765   6.631   5.532  10.235  0.3436 -0.5198  0.6691
31908SOL    HW199766   6.725   5.551  10.240  0.0406  1.4123 -0.0499
31908SOL    HW299767   6.596   5.556  10.321  0.1118  1.4791  0.0596
31909SOL     OW99768   8.405   2.138   3.249 -0.1551 -0.3711 -0.2678
31909SOL    HW199769   8.318   2.103   3.232 -0.5687  0.1842  0.6455
31909SOL    HW299770   8.401   2.230   3.222  0.2531 -0.4300 -0.5441
31910SOL     OW99771   6.107   8.123   5.310  0.4137 -0.7264 -0.9642
31910SOL    HW199772   6.066   8.118   5.224  0.1455 -0.7255 -0.8376
31910SOL    HW299773   6.140   8.213   5.316 -2.4299  0.3735  0.2030
31911SOL     OW99774   2.530   7.420   2.820 -0.4052 -0.4158 -0.7478
31911SOL    HW199775   2.573   7.497   2.783  1.2415 -1.3046 -0.7701
31911SOL    HW299776   2.571   7.346   2.776 -1.9698 -1.3319 -0.7388
31912SOL     OW99777   0.467   6.790   8.937  0.1493 -0.4488 -0.3158
31912SOL    HW199778   0.472   6.697   8.915 -0.7451 -1.1920  2.2571
31912SOL    HW299779   0.554   6.811   8.970 -0.1348 -0.8705  0.7380
31913SOL     OW99780   0.539   0.976   9.683  0.4322  0.0438  0.8116
31913SOL    HW199781   0.536   1.071   9.693  1.3668  0.1246  0.3986
31913SOL    HW299782   0.533   0.962   9.588  0.7676 -0.2836  0.8356
31914SOL     OW99783   6.288  10.147   0.878 -0.1093  0.2187  0.3492
31914SOL    HW199784   6.298  10.077   0.942  1.4606  0.1470  0.0668
31914SOL    HW299785   6.207  10.192   0.904 -0.0565 -0.4405  1.7560
31915SOL     OW99786   7.403   1.072   2.059 -0.1875  0.6004  0.0835
31915SOL    HW199787   7.333   1.093   2.119  0.2583  0.2647  0.7356
31915SOL    HW299788   7.483   1.100   2.104  0.4852 -2.6417  1.1825
31916SOL     OW99789   1.796   1.086   4.482 -0.4815  0.4234  0.4253
31916SOL    HW199790   1.787   1.162   4.425  0.7164  1.5418  1.6549
31916SOL    HW299791   1.792   1.122   4.571  1.2201 -0.7596  1.0418
31917SOL     OW99792   1.731   2.071   0.054 -0.1583  0.0533  0.0419
31917SOL    HW199793   1.778   2.020   0.120 -2.1668 -0.3365  1.2407
31917SOL    HW299794   1.768   2.041  -0.029  2.2306  0.3451  0.9165
31918SOL     OW99795   8.180   1.583   5.857  0.1418  0.0757  0.1225
31918SOL    HW199796   8.271   1.607   5.836  0.0321  0.9613  0.6145
31918SOL    HW299797   8.185   1.490   5.879  1.0099  0.1946  0.5096
31919SOL     OW99798   5.022   9.682   2.762  0.5844  0.4058 -0.4864
31919SOL    HW199799   5.099   9.684   2.705  0.9042 -0.9957 -0.1462
31919SOL    HW299800   4.956   9.733   2.715  0.9897 -0.2952 -1.8904
31920SOL     OW99801   3.155   2.586  10.251  0.2715 -0.6501  0.2473
31920SOL    HW199802   3.116   2.522  10.191 -1.2796  0.7138 -0.2584
31920SOL    HW299803   3.230   2.621  10.204 -1.0030  0.4998 -1.0029
31921SOL     OW99804   1.132   1.374   5.431  0.0224  0.1268  0.0065
31921SOL    HW199805   1.157   1.282   5.428 -1.8230 -0.5030  1.6562
31921SOL    HW299806   1.181   1.409   5.506  1.1954  0.6991 -0.9852
31922SOL     OW99807   4.623   9.325   8.338  0.4043  0.0467 -0.2420
31922SOL    HW199808   4.677   9.338   8.259  0.9258  1.9191  0.3695
31922SOL    HW299809   4.678   9.272   8.395  0.7954  0.2673 -0.4066
31923SOL     OW99810   4.814   9.170   2.654  0.6304 -0.5145 -0.3205
31923SOL    HW199811   4.892   9.215   2.686 -0.3706  0.4282  0.8807
31923SOL    HW299812   4.824   9.170   2.559  1.1320  1.4260 -0.3111
31924SOL     OW99813   8.357   2.928   7.542 -0.4308  0.4447 -0.0106
31924SOL    HW199814   8.443   2.890   7.563 -2.6742 -3.9431  2.8365
31924SOL    HW299815   8.334   2.888   7.458  0.1040  1.4164 -0.6430
31925SOL     OW99816   4.355   0.253   6.836 -0.3872  0.5969  0.0617
31925SOL    HW199817   4.304   0.241   6.916  1.3532 -2.8407  0.8670
31925SOL    HW299818   4.411   0.329   6.854 -0.9342  0.6663  1.5933
31926SOL     OW99819   6.304   8.835   6.533 -0.2960  0.1490  0.2811
31926SOL    HW199820   6.378   8.799   6.582  0.1258  0.3595 -0.1879
31926SOL    HW299821   6.333   8.923   6.509 -1.1272  0.6375  1.0136
31927SOL     OW99822   4.527   2.173   0.501  0.0377 -0.2328  0.4478
31927SOL    HW199823   4.516   2.217   0.586  1.1096  1.7132 -0.3705
31927SOL    HW299824   4.599   2.219   0.459 -1.6012  0.0305 -2.2676
31928SOL     OW99825   8.109   9.645   7.039  0.2786 -0.2920 -0.1865
31928SOL    HW199826   8.123   9.621   6.947 -0.0193 -0.7939 -0.1042
31928SOL    HW299827   8.028   9.697   7.038  0.0128 -0.7030 -0.1470
31929SOL     OW99828   2.204   8.336   4.590 -0.2427 -0.0717 -0.2215
31929SOL    HW199829   2.238   8.384   4.514 -0.6620  0.6835  0.0510
31929SOL    HW299830   2.153   8.264   4.553  0.4461 -0.3521 -0.6394
31930SOL     OW99831   5.329   4.068   6.445 -0.1882  0.1666  0.0136
31930SOL    HW199832   5.320   4.147   6.392 -1.9780  0.2356  0.3590
31930SOL    HW299833   5.344   4.100   6.534 -0.4244  0.1099  0.0741
31931SOL     OW99834   0.161   0.287   8.559 -0.6068 -0.1097 -0.3821
31931SOL    HW199835   0.117   0.248   8.635  1.1710  1.7759  1.7703
31931SOL    HW299836   0.126   0.239   8.484 -4.0540 -0.6995  1.3710
31932SOL     OW99837   8.803   4.638   0.829 -0.1889  0.2889 -0.5159
31932SOL    HW199838   8.827   4.707   0.766 -2.2549 -0.2958 -2.0427
31932SOL    HW299839   8.736   4.587   0.784 -1.7430 -0.2084  2.1647
31933SOL     OW99840   8.031   1.399   7.557 -0.0266 -0.1066  0.2474
31933SOL    HW199841   8.051   1.370   7.646  0.6476  1.6074  0.7100
31933SOL    HW299842   8.048   1.494   7.559  0.4401 -0.0992 -1.8309
31934SOL     OW99843   9.618   8.273   2.425  0.2358  0.0564 -0.2005
31934SOL    HW199844   9.633   8.178   2.430 -1.5407 -0.1930  1.5155
31934SOL    HW299845   9.574   8.295   2.507  0.5265  2.3832 -0.5951
31935SOL     OW99846   2.341   6.458  10.155  0.7375  0.3340  0.4430
31935SOL    HW199847   2.305   6.372  10.175 -0.4603  1.0603  1.5700
31935SOL    HW299848   2.271   6.519  10.176  2.3956  1.7770  2.1749
31936SOL     OW99849   4.261   4.457   7.677 -0.1206 -0.2744 -0.0908
31936SOL    HW199850   4.251   4.457   7.581 -1.1634 -3.2996 -0.0754
31936SOL    HW299851   4.178   4.492   7.709 -1.9950 -4.0270 -0.3431
31937SOL     OW99852   7.814   5.288   9.354  0.0931 -0.6707  0.2910
31937SOL    HW199853   7.724   5.321   9.357 -0.2063 -0.9707 -2.6736
31937SOL    HW299854   7.865   5.354   9.401 -1.5550 -0.2635  1.6479
31938SOL     OW99855   7.100  10.297   9.336 -0.8069 -0.1207 -0.1159
31938SOL    HW199856   7.035  10.358   9.302  0.6549  1.8294  0.4054
31938SOL    HW299857   7.120  10.329   9.424  1.7747  0.1908 -0.7260
31939SOL     OW99858   2.230   8.229   3.824 -0.0180 -0.2281 -0.4419
31939SOL    HW199859   2.320   8.245   3.793  0.0150 -1.1257 -0.8421
31939SOL    HW299860   2.234   8.246   3.918  0.3884  0.4949 -0.5866
31940SOL     OW99861   0.062   0.260   7.128 -0.3416  0.2591 -0.0814
31940SOL    HW199862  -0.010   0.248   7.190 -1.9386 -0.3157 -1.9501
31940SOL    HW299863   0.070   0.176   7.083  0.4829  0.7811 -0.9542
31941SOL     OW99864   2.588   5.730   2.599  0.2441  0.2874 -0.0401
31941SOL    HW199865   2.607   5.645   2.639  0.8490 -0.0571 -1.0340
31941SOL    HW299866   2.639   5.793   2.650  1.0904 -0.1570 -0.3353
31942SOL     OW99867   4.949   7.874   4.299 -0.2914  0.0840 -0.0942
31942SOL    HW199868   5.001   7.938   4.250  0.8399  0.2332  1.2480
31942SOL    HW299869   4.910   7.924   4.371  1.1342 -0.8098  1.3588
31943SOL     OW99870   2.125   0.891   8.195  0.5437  0.5336  0.0724
31943SOL    HW199871   2.132   0.961   8.260 -0.6131 -0.0463  0.8647
31943SOL    HW299872   2.189   0.826   8.223 -0.9842 -0.4005  1.5779
31944SOL     OW99873   2.713   0.002   9.265  0.1147  0.6128 -0.0402
31944SOL    HW199874   2.800   0.032   9.237  0.0674 -0.0591 -0.9580
31944SOL    HW299875   2.654   0.036   9.198 -0.0629 -0.6381 -0.5395
31945SOL     OW99876   1.449   2.457   8.256  0.2318  0.2181  0.4248
31945SOL    HW199877   1.489   2.456   8.169  2.3273 -0.4307  1.3514
31945SOL    HW299878   1.506   2.402   8.310 -1.7162 -0.4522  1.9359
31946SOL     OW99879   4.920   0.389  10.138  0.6899  0.3840 -0.3364
31946SOL    HW199880   4.902   0.388  10.232  2.2190  1.3816  0.0101
31946SOL    HW299881   4.845   0.345  10.099 -1.0860  1.8857  1.1730
31947SOL     OW99882   3.897   2.273   2.058  0.4963  0.3293 -0.1869
31947SOL    HW199883   3.838   2.320   2.000 -1.0947 -1.2499  0.0805
31947SOL    HW299884   3.941   2.342   2.108 -0.9070  1.5750 -0.6065
31948SOL     OW99885   5.309   2.382   9.662  0.5643  0.6926  0.6543
31948SOL    HW199886   5.328   2.433   9.741 -1.5074  1.6100  0.6199
31948SOL    HW299887   5.243   2.433   9.616 -0.4120 -1.2463 -0.2170
31949SOL     OW99888  10.085   9.245   7.184 -0.5002 -0.3880  0.6738
31949SOL    HW199889  10.135   9.173   7.146 -1.1223 -0.4211 -0.1175
31949SOL    HW299890  10.041   9.286   7.109 -0.8931  0.2289  1.2296
31950SOL     OW99891   3.278   6.003   4.275 -0.0137  0.6742  0.1237
31950SOL    HW199892   3.301   6.006   4.367 -0.9621  0.1812  0.3865
31950SOL    HW299893   3.314   5.921   4.243 -0.2752  0.5212  0.2215
31951SOL     OW99894   5.045   5.092   4.420 -0.5049  0.0638  0.4296
31951SOL    HW199895   5.031   5.184   4.440 -0.6560 -0.1777  1.5295
31951SOL    HW299896   5.110   5.063   4.485  1.7757  0.0812 -1.7134
31952SOL     OW99897   7.619   0.888   0.262  0.4721  0.0410  0.2311
31952SOL    HW199898   7.697   0.939   0.285  0.6282 -0.6423  1.2678
31952SOL    HW299899   7.653   0.801   0.239  0.0017 -0.3944  1.1131
31953SOL     OW99900   4.268  10.061   2.261  0.0940  0.7654  0.0407
31953SOL    HW199901   4.177  10.089   2.270 -0.8443 -1.2131 -2.1364
31953SOL    HW299902   4.278   9.992   2.326 -0.2832  0.3417 -0.3420
31954SOL     OW99903   6.463   1.591   6.640 -0.6318 -0.1771  0.1376
31954SOL    HW199904   6.376   1.587   6.601 -0.7876  0.8244  0.3607
31954SOL    HW299905   6.514   1.526   6.592 -0.6582  1.3597 -2.1367
31955SOL     OW99906   1.343   2.448   9.523 -0.3627  0.4542  0.0404
31955SOL    HW199907   1.386   2.377   9.570 -0.7891 -0.0191 -0.2859
31955SOL    HW299908   1.300   2.406   9.449  0.6837  1.2519 -1.0632
31956SOL     OW99909   7.091   4.680   0.353 -0.5592 -0.1282 -0.1100
31956SOL    HW199910   7.078   4.774   0.341 -0.7426 -0.0498  0.6902
31956SOL    HW299911   7.097   4.646   0.264 -0.3883  0.6538 -0.4075
31957SOL     OW99912   4.449   0.138   3.597  0.4178  0.4528 -0.0125
31957SOL    HW199913   4.544   0.145   3.599  0.3376  1.6052  0.3349
31957SOL    HW299914   4.418   0.209   3.653 -0.6207 -0.9911  1.3389
31958SOL     OW99915   4.431   1.647   0.197 -0.2072  0.4915  0.2259
31958SOL    HW199916   4.377   1.683   0.127  3.2049  2.7774 -1.5227
31958SOL    HW299917   4.415   1.704   0.272 -0.5073  0.8892 -0.1379
31959SOL     OW99918   7.221  10.183   2.581 -0.0422  0.4204  0.1951
31959SOL    HW199919   7.184  10.272   2.582 -0.5528  0.2136  0.4797
31959SOL    HW299920   7.313  10.195   2.604  0.8134  1.2636 -3.1090
31960SOL     OW99921   0.849   8.475   0.128 -0.0818  0.4152  0.4806
31960SOL    HW199922   0.904   8.520   0.064 -0.9932 -1.1344 -1.4876
31960SOL    HW299923   0.760   8.489   0.096 -0.6907  0.7604  2.2166
31961SOL     OW99924   4.998   4.753   3.254  0.1248  0.7311  0.6366
31961SOL    HW199925   4.950   4.748   3.171  0.9625 -0.2795  0.1793
31961SOL    HW299926   4.998   4.663   3.287  1.7269  0.6869  0.5809
31962SOL     OW99927   0.895   1.830   2.865  0.4538 -0.5565  0.1586
31962SOL    HW199928   0.828   1.838   2.797 -0.0596  1.1410  0.8022
31962SOL    HW299929   0.892   1.738   2.891 -3.2473 -0.1866  1.6945
31963SOL     OW99930   7.185   5.941   0.443  0.1122  0.0251  0.0275
31963SOL    HW199931   7.174   6.035   0.427  0.3430  0.0120 -0.2216
31963SOL    HW299932   7.279   5.925   0.431 -0.0071 -0.3343 -0.4758
31964SOL     OW99933   0.808   3.337   6.014 -0.9623  0.4026  0.2325
31964SOL    HW199934   0.822   3.411   6.073 -1.2474 -0.4196  1.3516
31964SOL    HW299935   0.841   3.368   5.930 -0.6143  1.6259  0.7929
31965SOL     OW99936   1.145   1.340   7.228  0.3547 -0.4514 -0.0896
31965SOL    HW199937   1.154   1.366   7.136 -0.7239  0.3495  0.0119
31965SOL    HW299938   1.052   1.316   7.237 -0.0909  1.5110  1.2628
31966SOL     OW99939   1.345   6.746   6.871  0.1568  0.0522  0.2357
31966SOL    HW199940   1.402   6.699   6.932  0.8060 -2.3700 -2.0326
31966SOL    HW299941   1.397   6.821   6.842  0.5737  0.1479  1.1820
31967SOL     OW99942   8.402   2.159  10.223 -0.0077  0.0944  0.4848
31967SOL    HW199943   8.482   2.135  10.269  0.3083 -0.2877 -0.2683
31967SOL    HW299944   8.393   2.095  10.153 -0.1289  1.0562 -0.4107
31968SOL     OW99945   4.049   0.548   4.664 -0.1764  0.1649 -0.3481
31968SOL    HW199946   4.067   0.483   4.731 -0.3164  0.2918 -0.1876
31968SOL    HW299947   4.093   0.627   4.694 -2.0713  0.8903  0.7468
31969SOL     OW99948   5.204   7.942   0.542 -0.8975  0.2525  0.2978
31969SOL    HW199949   5.299   7.934   0.544 -0.9214 -0.1451  1.9677
31969SOL    HW299950   5.184   8.010   0.606 -1.6814  1.3164 -1.0415
31970SOL     OW99951   7.248   8.133   2.010 -0.4841 -0.4463  0.0156
31970SOL    HW199952   7.156   8.146   1.986 -0.1802 -0.3273 -1.1574
31970SOL    HW299953   7.296   8.194   1.954  0.4137 -1.4935 -0.4009
31971SOL     OW99954   5.916   9.443   1.553  0.1796 -0.1048 -0.4733
31971SOL    HW199955   5.954   9.428   1.639 -3.8411  3.0098  2.1915
31971SOL    HW299956   5.862   9.366   1.536  0.9565 -0.7128 -0.2302
31972SOL     OW99957   1.756   8.403   1.331 -0.0191  0.1173  0.3633
31972SOL    HW199958   1.734   8.367   1.417  1.6137  0.0943  0.8054
31972SOL    HW299959   1.849   8.424   1.337 -0.1707  1.3210 -0.9918
31973SOL     OW99960   0.733   8.491   4.800  0.0996 -0.1236 -0.6545
31973SOL    HW199961   0.743   8.560   4.866 -1.0039 -0.2435 -0.3343
31973SOL    HW299962   0.666   8.433   4.837 -1.0231  0.1640 -2.1808
31974SOL     OW99963   4.077   5.333   8.154  0.0700  0.1260 -0.4683
31974SOL    HW199964   4.101   5.251   8.111  2.0814  1.2954 -1.7176
31974SOL    HW299965   4.012   5.373   8.097 -0.4526 -0.2796 -0.1723
31975SOL     OW99966   7.315   2.472   0.014  0.4288  0.0336  0.2762
31975SOL    HW199967   7.253   2.511   0.075  0.6155  1.2899 -0.3042
31975SOL    HW299968   7.260   2.424  -0.049  0.0755  0.6620  0.0974
31976SOL     OW99969   2.141   3.428   2.818 -0.4016  0.3100  0.1085
31976SOL    HW199970   2.103   3.503   2.865  1.4864 -0.2494  2.7428
31976SOL    HW299971   2.220   3.463   2.777 -1.1379  0.3918 -1.3116
31977SOL     OW99972   3.963   1.990  10.165 -0.1882 -0.6832  0.5365
31977SOL    HW199973   4.000   2.029  10.085  1.4996 -2.2112  0.5160
31977SOL    HW299974   3.868   1.998  10.154  0.0373  0.4329 -0.9388
31978SOL     OW99975   5.655   2.891   6.271  0.0524  0.0315  0.7573
31978SOL    HW199976   5.636   2.925   6.184  0.3719  0.0048  0.6771
31978SOL    HW299977   5.574   2.906   6.321  0.0350  0.4783  0.5915
31979SOL     OW99978   4.969   4.902   1.697 -0.3855  0.4740 -0.3452
31979SOL    HW199979   4.893   4.882   1.642  1.4298 -1.9665 -2.1224
31979SOL    HW299980   5.036   4.932   1.636  1.0265 -0.2625  0.7952
31980SOL     OW99981   2.676   4.366   4.432 -0.4797 -0.1648  0.3705
31980SOL    HW199982   2.651   4.435   4.371 -1.7179 -0.1774  0.8299
31980SOL    HW299983   2.761   4.335   4.400 -1.6006 -0.9868 -2.0415
31981SOL     OW99984   3.057   6.767   0.642 -0.2743 -0.2530  1.0000
31981SOL    HW199985   2.996   6.728   0.578 -0.5380  0.5378  0.7611
31981SOL    HW299986   3.031   6.859   0.647  1.0729  0.1665  0.6888
31982SOL     OW99987   1.723   7.855   1.841  0.1344 -0.0022  0.4437
31982SOL    HW199988   1.678   7.794   1.782 -0.4905 -0.1906  1.0991
31982SOL    HW299989   1.779   7.799   1.895  2.1883  0.3408 -1.2083
31983SOL     OW99990   0.023   7.764   8.765 -0.6426 -0.0770  0.4903
31983SOL    HW199991   0.069   7.774   8.682 -1.9986  0.1618 -0.2634
31983SOL    HW299992  -0.067   7.789   8.745 -0.9089  0.3484  2.1343
31984SOL     OW99993   5.234   0.630   3.732  0.1530  0.4595  0.1662
31984SOL    HW199994   5.250   0.688   3.806 -0.4107 -0.5730  1.1263
31984SOL    HW299995   5.170   0.567   3.764 -0.5816  0.3474 -1.3956
31985SOL     OW99996   9.084   6.249   7.457  0.3696  0.4683 -0.0104
31985SOL    HW199997   9.177   6.235   7.475  0.2545 -0.5104 -0.1714
31985SOL    HW299998   9.039   6.180   7.506 -0.2542  0.7461 -0.1825
31986SOL     OW99999   3.647   7.055   0.123  0.4942  0.1721 -0.1529
31986SOL    HW1    0   3.578   7.062   0.058  0.0693 -0.0070  0.2723
31986SOL    HW2    1   3.728   7.049   0.072  0.0183 -2.2245 -0.7371
31987SOL     OW    2   3.277   9.004   9.097 -0.4909 -0.7837  0.0299
31987SOL    HW1    3   3.243   9.056   9.024  1.0508  1.2095  0.6400
31987SOL    HW2    4   3.282   9.066   9.170  0.4531 -2.0730  1.0991
31988SOL     OW    5   4.580   9.657   9.357 -0.1717  0.1006  0.4751
31988SOL    HW1    6   4.530   9.599   9.300 -0.3781 -0.3621  1.1146
31988SOL    HW2    7   4.665   9.665   9.315 -0.3051 -0.2754  0.1278
31989SOL     OW    8   2.576   5.722   4.003  0.3290 -0.3466 -0.2644
31989SOL    HW1    9   2.634   5.776   4.057  0.4861  0.2491 -1.0015
31989SOL    HW2   10   2.635   5.668   3.951  0.2754  0.7908 -1.5556
31990SOL     OW   11   4.232   2.522   8.124  0.2186 -0.3383 -0.1086
31990SOL    HW1   12   4.221   2.557   8.212  0.3531  0.2588 -0.3258
31990SOL    HW2   13   4.272   2.436   8.137  2.7581  0.8116  0.3330
31991SOL     OW   14   3.596   6.730   6.493 -0.1836  0.7573  0.0008
31991SOL    HW1   15   3.543   6.744   6.572 -0.0656 -0.9339  0.4109
31991SOL    HW2   16   3.590   6.813   6.446  1.4476  2.6204  2.7683
31992SOL     OW   17   1.179   4.868   8.079  0.1005 -0.0588  0.4972
31992SOL    HW1   18   1.231   4.914   8.013  0.9318 -1.1212  0.3823
31992SOL    HW2   19   1.119   4.813   8.028 -0.6578  0.6253  0.6341
31993SOL     OW   20   9.167   5.969   6.821  0.2472  0.0251  0.2290
31993SOL    HW1   21   9.168   5.981   6.726  0.4360  0.1016  0.2414
31993SOL    HW2   22   9.201   6.051   6.857  2.8759 -0.9754  0.2622
31994SOL     OW   23   0.711   1.275   5.593  0.5926  0.3118  0.0469
31994SOL    HW1   24   0.743   1.361   5.623  1.0458 -0.0370  0.5727
31994SOL    HW2   25   0.773   1.212   5.629 -0.0692 -0.2911  0.1449
31995SOL     OW   26   1.780   1.935   9.770  0.0282 -0.2517 -0.0524
31995SOL    HW1   27   1.736   2.009   9.728  0.3612 -0.1281 -0.1936
31995SOL    HW2   28   1.868   1.936   9.733 -0.1011 -1.0014 -0.4052
31996SOL     OW   29   6.010   6.764   1.621  0.0812 -0.0001 -0.5491
31996SOL    HW1   30   5.995   6.681   1.668 -0.6687 -0.1474 -1.0227
31996SOL    HW2   31   6.037   6.825   1.689 -1.1796 -0.1615  0.1392
31997SOL     OW   32   8.409   3.826   2.832  0.1046 -0.3434  0.1177
31997SOL    HW1   33   8.481   3.768   2.855  0.9996  0.1080 -1.3775
31997SOL    HW2   34   8.339   3.767   2.804  0.2444 -0.7556  0.6327
31998SOL     OW   35   2.747  10.121   9.580 -0.1030 -0.3648  0.3351
31998SOL    HW1   36   2.810  10.193   9.569  0.2802 -0.7048  0.3119
31998SOL    HW2   37   2.720  10.100   9.490 -0.8984  0.3465  0.3909
31999SOL     OW   38   0.155   6.673   2.257  0.0604  0.4753 -0.1597
31999SOL    HW1   39   0.141   6.735   2.185 -0.7160 -0.3817 -0.7697
31999SOL    HW2   40   0.138   6.587   2.219  0.7075 -0.0904  0.7814
32000SOL     OW   41   3.363   4.542   4.400 -0.0274  0.0402  0.8710
32000SOL    HW1   42   3.398   4.463   4.358 -1.2362  0.7406 -1.6882
32000SOL    HW2   43   3.432   4.607   4.390  0.5146 -0.3437  1.9454
32001SOL     OW   44   7.546   2.186   7.362  0.5370 -0.6419  0.5246
32001SOL    HW1   45   7.539   2.250   7.292  1.9251  1.4106  2.1458
32001SOL    HW2   46   7.635   2.151   7.353  0.3959 -1.0618  0.7240
32002SOL     OW   47   8.415  10.236   7.613  0.4120 -0.1912 -0.3341
32002SOL    HW1   48   8.364  10.162   7.644 -0.0969  0.4148  0.3141
32002SOL    HW2   49   8.355  10.310   7.615  0.9070  0.2445 -0.9779
32003SOL     OW   50   6.436   2.351   4.683 -0.1064  0.3837 -0.3895
32003SOL    HW1   51   6.503   2.290   4.713  0.5926  0.9903 -0.6729
32003SOL    HW2   52   6.464   2.436   4.719 -0.9260  0.5783 -0.2038
32004SOL     OW   53  10.157   8.988   0.673 -0.0899  0.4843  0.2027
32004SOL    HW1   54  10.137   9.060   0.734  1.2513  0.2418  0.9528
32004SOL    HW2   55  10.174   8.913   0.729 -1.5033 -0.4613 -0.5823
32005SOL     OW   56   5.084   8.320   7.592  0.4183  0.2507  0.4929
32005SOL    HW1   57   5.140   8.316   7.515 -1.6679  0.2962 -1.1344
32005SOL    HW2   58   5.138   8.288   7.663  2.1296 -0.7865 -1.1751
32006SOL     OW   59   1.278   9.096   4.537  0.1831  0.0308  0.0051
32006SOL    HW1   60   1.288   9.191   4.541  1.0239 -0.0306 -0.4530
32006SOL    HW2   61   1.338   9.062   4.604 -1.4259 -0.1340  1.4485
32007SOL     OW   62   2.233   5.684  10.034  0.1797  0.8426 -0.1693
32007SOL    HW1   63   2.176   5.639   9.971 -0.1922  1.0731  0.0061
32007SOL    HW2   64   2.267   5.760   9.986 -1.3383  1.9101  0.3892
32008SOL     OW   65   3.246   4.034   1.050  0.3239  0.1374  0.1803
32008SOL    HW1   66   3.206   4.095   0.988  2.0838  0.9408 -0.2591
32008SOL    HW2   67   3.330   4.011   1.009 -0.1592 -2.3927  0.4806
32009SOL     OW   68   3.395   3.713   8.594  0.1187  0.7399 -0.4462
32009SOL    HW1   69   3.464   3.719   8.528 -0.7994 -0.9909 -1.6368
32009SOL    HW2   70   3.331   3.779   8.566  1.9473  3.5873  1.6302
32010SOL     OW   71   6.792   2.624   7.621 -0.1353 -0.0974  0.1703
32010SOL    HW1   72   6.788   2.547   7.678 -1.1257  0.0477  0.3184
32010SOL    HW2   73   6.874   2.667   7.645 -0.0696 -0.5630  0.8126
32011SOL     OW   74   9.042   5.549   5.269 -0.0135  0.5182  0.2151
32011SOL    HW1   75   9.072   5.478   5.324 -0.1297 -0.7010 -1.2293
32011SOL    HW2   76   9.117   5.609   5.264  0.9823 -0.7551 -0.5398
32012SOL     OW   77   3.411   8.189   0.133 -0.3173  0.1790  0.0281
32012SOL    HW1   78   3.448   8.268   0.171 -1.6488  0.5443  0.6028
32012SOL    HW2   79   3.392   8.213   0.042  0.2554  0.1827 -0.0932
32013SOL     OW   80   1.285   3.435   9.155  0.0463  0.3835 -0.1311
32013SOL    HW1   81   1.336   3.362   9.191  1.2635  0.9716 -0.6025
32013SOL    HW2   82   1.220   3.393   9.099  1.0075 -0.3446 -0.7503
32014SOL     OW   83   6.725   2.388   5.419  0.1510  0.1642  0.2767
32014SOL    HW1   84   6.795   2.399   5.483 -0.8967  0.7925  1.3776
32014SOL    HW2   85   6.756   2.320   5.360  2.1376  1.1939  0.0637
32015SOL     OW   86   1.966   1.539   1.252  0.0751 -0.2351 -0.0447
32015SOL    HW1   87   2.053   1.547   1.290 -0.1946 -2.0799  1.0712
32015SOL    HW2   88   1.906   1.550   1.325 -0.6299  0.2998 -0.6778
32016SOL     OW   89   0.514   2.719   2.931 -0.7948 -0.3168  0.2889
32016SOL    HW1   90   0.466   2.656   2.878 -0.6718  0.2169 -0.4666
32016SOL    HW2   91   0.484   2.702   3.021  0.1599 -2.2915  0.2827
32017SOL     OW   92   4.531   4.667   1.825  0.5625  0.6889  0.0634
32017SOL    HW1   93   4.489   4.731   1.766 -2.0727 -0.8245  0.1421
32017SOL    HW2   94   4.533   4.586   1.774  0.5353 -0.0412  1.2099
32018SOL     OW   95   7.575   2.323   7.133  0.1265  0.9159 -0.1425
32018SOL    HW1   96   7.634   2.265   7.084  1.0479  1.0470  0.7822
32018SOL    HW2   97   7.610   2.411   7.118  1.8924  0.7982  2.5919
32019SOL     OW   98   5.099   6.238   6.210 -0.0614  0.3665 -0.5302
32019SOL    HW1   99   5.149   6.290   6.272 -1.3893  1.0167  0.0289
32019SOL    HW2  100   5.013   6.228   6.250 -0.0684 -1.7204 -0.9202
32020SOL     OW  101   2.207   6.205  10.035 -0.3102 -0.4239  0.1369
32020SOL    HW1  102   2.123   6.246  10.010 -0.2720 -0.6755 -0.4218
32020SOL    HW2  103   2.261   6.214   9.957 -0.2625 -1.4388  0.0458
32021SOL     OW  104   8.073   4.670   4.786  0.5859  0.5721  0.1246
32021SOL    HW1  105   8.038   4.648   4.872  0.1888  1.4558  0.2067
32021SOL    HW2  106   8.152   4.617   4.777 -1.0012 -1.8469 -0.2662
32022SOL     OW  107   0.357   1.630   8.121  0.2077  0.2729  0.2556
32022SOL    HW1  108   0.335   1.660   8.210 -0.7170  0.1755  0.0625
32022SOL    HW2  109   0.281   1.580   8.093 -0.2497  1.7652 -1.2795
32023SOL     OW  110   1.474   0.880   2.048 -0.0733  0.1535  0.2493
32023SOL    HW1  111   1.405   0.943   2.069 -0.7295  0.3895 -2.3038
32023SOL    HW2  112   1.541   0.931   2.003 -0.9375 -0.9476 -2.5071
32024SOL     OW  113   0.842   3.488   8.852 -0.6862 -0.7758 -0.2614
32024SOL    HW1  114   0.840   3.498   8.757 -1.4684  1.0989 -0.0947
32024SOL    HW2  115   0.910   3.549   8.881 -2.1839  0.6167  0.5180
32025SOL     OW  116   0.662   2.710   8.964 -0.3932 -0.4207  0.4421
32025SOL    HW1  117   0.579   2.677   9.000 -0.4668 -1.8123 -0.9091
32025SOL    HW2  118   0.726   2.642   8.985  0.0440 -0.1684 -0.0464
32026SOL     OW  119   4.797   3.648   6.631  0.5424  0.4668  0.2024
32026SOL    HW1  120   4.710   3.638   6.670 -0.0780  0.0064 -1.2394
32026SOL    HW2  121   4.858   3.628   6.702 -0.5493 -2.3703  0.4838
32027SOL     OW  122   1.434   4.039   2.574 -0.1124  0.0733  0.2265
32027SOL    HW1  123   1.528   4.055   2.569 -0.2138  0.5057 -0.6464
32027SOL    HW2  124   1.411   4.057   2.665  0.5278  0.6707  0.2772
32028SOL     OW  125   3.952   3.620   4.910  0.3535  0.5598 -0.8529
32028SOL    HW1  126   3.914   3.533   4.923 -0.3070  0.7249 -1.6137
32028SOL    HW2  127   3.906   3.676   4.972 -0.2833  0.6544 -1.4019
32029SOL     OW  128   1.632   2.051   4.152 -0.1018 -0.4733  0.1082
32029SOL    HW1  129   1.725   2.042   4.172  0.1200  0.9846 -0.1609
32029SOL    HW2  130   1.609   1.968   4.109  0.7998 -1.2786  1.1024
32030SOL     OW  131   4.188   8.334   3.045 -0.4619 -0.8906  0.1466
32030SOL    HW1  132   4.156   8.257   2.998  0.9924 -2.1516  1.1066
32030SOL    HW2  133   4.201   8.303   3.135  3.1862 -0.5125 -0.0929
32031SOL     OW  134   9.107   8.635  10.035  0.0185 -0.8574 -0.3566
32031SOL    HW1  135   9.147   8.722  10.032  0.9460 -1.3048 -1.4303
32031SOL    HW2  136   9.013   8.653  10.043 -0.0071  0.3029 -2.5494
32032SOL     OW  137   7.857   8.847   3.309 -0.0061 -0.1782  0.0690
32032SOL    HW1  138   7.769   8.861   3.274  0.1235  1.0381  0.1704
32032SOL    HW2  139   7.899   8.933   3.299  0.1349  0.1589  2.9427
32033SOL     OW  140   2.046   7.486   3.144 -0.1310 -0.0784  0.2400
32033SOL    HW1  141   1.957   7.480   3.112 -0.6179 -0.6825  1.6000
32033SOL    HW2  142   2.070   7.395   3.165 -0.1048  0.3124  2.1296
32034SOL     OW  143   3.808   8.792   3.624  0.0791  0.9521 -0.1882
32034SOL    HW1  144   3.793   8.717   3.681 -0.6790  1.2832  0.0683
32034SOL    HW2  145   3.810   8.867   3.684  1.1207  1.1185 -0.4051
32035SOL     OW  146   8.298   0.000   4.190 -0.5992  0.6234  0.2363
32035SOL    HW1  147   8.364   0.030   4.253 -0.4841  1.1373 -0.1249
32035SOL    HW2  148   8.278   0.078   4.138 -2.1466  0.7112  0.9072
32036SOL     OW  149   5.300   8.287   0.824 -0.8098 -0.2607  0.2407
32036SOL    HW1  150   5.374   8.290   0.763  0.9803 -0.3140  2.2713
32036SOL    HW2  151   5.253   8.208   0.801 -1.2819  0.6636 -2.2037
32037SOL     OW  152   8.387   7.524   3.301 -0.1066  0.3528 -0.0399
32037SOL    HW1  153   8.296   7.516   3.273 -0.0999  2.0106 -0.6855
32037SOL    HW2  154   8.438   7.496   3.224 -0.0190 -1.9614  0.7962
32038SOL     OW  155   4.497   2.054   5.215 -0.0319 -0.1410 -0.1268
32038SOL    HW1  156   4.574   2.065   5.160  1.3659  2.4282  2.0790
32038SOL    HW2  157   4.531   2.012   5.295 -0.6513  1.7079  1.1859
32039SOL     OW  158   0.286   5.255   2.355 -0.3283  0.2681 -0.3506
32039SOL    HW1  159   0.374   5.278   2.325 -0.7145  2.4257 -0.0479
32039SOL    HW2  160   0.280   5.160   2.345  2.7215 -0.2444  1.4786
32040SOL     OW  161   5.849   6.540   4.001 -0.0111 -0.2604  0.1013
32040SOL    HW1  162   5.887   6.626   4.017  1.0723 -0.4199 -1.4257
32040SOL    HW2  163   5.884   6.485   4.072  1.4696 -0.0642 -0.4451
32041SOL     OW  164   2.657   5.395   7.892  0.1420  0.1322 -0.1363
32041SOL    HW1  165   2.651   5.490   7.882  0.3775  0.2977  1.2108
32041SOL    HW2  166   2.672   5.363   7.803 -0.3138  1.3201 -0.6607
32042SOL     OW  167   8.297   4.311  10.132 -0.1832  0.1374 -0.0317
32042SOL    HW1  168   8.212   4.328  10.092 -1.2027 -2.2741  0.9589
32042SOL    HW2  169   8.334   4.398  10.147 -1.7015  1.2032 -2.0387
32043SOL     OW  170   0.247   2.659   9.460 -0.9895  0.0023 -0.1063
32043SOL    HW1  171   0.195   2.731   9.423 -0.4508 -0.4468 -1.8425
32043SOL    HW2  172   0.337   2.689   9.451 -0.8423  0.1924  1.6248
32044SOL     OW  173   1.534   7.265   4.178 -0.0450  0.0131  0.2882
32044SOL    HW1  174   1.491   7.240   4.096 -2.4855  2.4582  0.6686
32044SOL    HW2  175   1.620   7.296   4.152 -0.9220  1.1371 -1.4551
32045SOL     OW  176   1.552   9.378   2.736 -0.8335  0.3916 -0.1939
32045SOL    HW1  177   1.622   9.436   2.765  0.6370 -0.9669 -0.8776
32045SOL    HW2  178   1.499   9.363   2.814  0.2668  0.6015  0.6195
32046SOL     OW  179   3.685   0.216   5.411  0.5005  0.1391  0.3364
32046SOL    HW1  180   3.658   0.219   5.319  0.3183  1.4687  0.4189
32046SOL    HW2  181   3.647   0.134   5.444  0.1440 -0.1019 -0.6398
32047SOL     OW  182   9.852   1.086   1.194  0.1090  0.2321  0.5382
32047SOL    HW1  183   9.946   1.082   1.210 -0.0308 -0.4645  1.2044
32047SOL    HW2  184   9.833   1.008   1.143 -0.2589 -0.1363  1.2249
32048SOL     OW  185   3.536   5.095   7.158 -0.1929 -0.2842  0.1732
32048SOL    HW1  186   3.568   5.152   7.088 -0.1788 -0.0627  0.3557
32048SOL    HW2  187   3.536   5.007   7.120 -3.6857  0.2132 -1.3935
32049SOL     OW  188   6.596   3.997   3.872  0.0127 -0.0019  0.3268
32049SOL    HW1  189   6.634   3.911   3.892 -0.9423 -0.1215  1.7750
32049SOL    HW2  190   6.533   3.980   3.802  1.6312 -0.0117 -1.1973
32050SOL     OW  191   6.743   0.736   8.407 -0.0893 -0.5404 -1.3088
32050SOL    HW1  192   6.829   0.736   8.364  0.2100 -1.8502 -0.7453
32050SOL    HW2  193   6.680   0.739   8.335  0.4185 -1.7591 -1.8342
32051SOL     OW  194   6.788   7.426   9.575  0.3472  0.0696  0.2157
32051SOL    HW1  195   6.745   7.511   9.576  0.2513  0.0236  1.3848
32051SOL    HW2  196   6.735   7.372   9.635  1.4432 -0.2780  0.8965
32052SOL     OW  197   1.584   9.008   3.905 -0.0518  0.9066  0.0822
32052SOL    HW1  198   1.566   8.916   3.920  0.1110  0.5281 -1.7462
32052SOL    HW2  199   1.498   9.051   3.912 -0.3015  0.4471 -0.1497
32053SOL     OW  200  10.099   4.719   3.864  0.0461  0.3094  0.0050
32053SOL    HW1  201  10.133   4.779   3.931 -1.0210  0.7364  0.2009
32053SOL    HW2  202  10.101   4.770   3.783 -0.5955  0.5248  0.1176
32054SOL     OW  203   7.900   4.671   1.481 -0.1099 -0.6795 -0.2195
32054SOL    HW1  204   7.819   4.650   1.435  0.3791 -2.6800 -0.2382
32054SOL    HW2  205   7.915   4.596   1.538  0.8943  0.3950  0.9735
32055SOL     OW  206   1.495   5.227   9.603 -0.1138 -0.4015 -0.5805
32055SOL    HW1  207   1.519   5.135   9.593  1.6494 -0.0763  0.1697
32055SOL    HW2  208   1.549   5.273   9.538 -0.7351  0.1421 -0.7261
32056SOL     OW  209   7.951   1.461   0.989 -0.0466 -0.6917 -0.1485
32056SOL    HW1  210   7.974   1.410   0.911 -0.1444 -1.9316  0.6186
32056SOL    HW2  211   7.989   1.412   1.062 -0.7669 -0.0439  0.6712
32057SOL     OW  212   5.533   3.756   3.894  0.2986 -0.7572 -0.8334
32057SOL    HW1  213   5.586   3.831   3.865  1.1023 -1.2294 -0.6122
32057SOL    HW2  214   5.550   3.689   3.828  0.1112 -0.9780 -0.6566
32058SOL     OW  215   3.112   9.550   5.407  0.1904 -0.3324  0.0553
32058SOL    HW1  216   3.052   9.606   5.356 -0.3626  1.1417  2.1930
32058SOL    HW2  217   3.063   9.470   5.422 -0.8045  0.3783  0.7341
32059SOL     OW  218   2.916   1.513   1.728  0.0293  0.1027  0.2873
32059SOL    HW1  219   2.849   1.470   1.781 -0.8368  0.2192 -0.6697
32059SOL    HW2  220   2.998   1.494   1.772 -0.3176 -2.4003 -0.0039
32060SOL     OW  221   4.027   2.921   8.741  0.1897  0.2068 -0.0541
32060SOL    HW1  222   3.942   2.964   8.739  0.0043 -0.0632  1.2264
32060SOL    HW2  223   4.090   2.991   8.723 -0.2702  0.4610 -0.7250
32061SOL     OW  224   2.084   0.144   4.173 -0.0704 -0.5296  0.6307
32061SOL    HW1  225   2.110   0.167   4.262  0.3418 -0.6528  0.5462
32061SOL    HW2  226   2.161   0.164   4.120 -0.2634 -0.5940  0.3234
32062SOL     OW  227   1.075   2.340   9.735 -0.2364 -0.0162 -0.0214
32062SOL    HW1  228   1.026   2.336   9.652 -0.7614 -1.2635  0.3235
32062SOL    HW2  229   1.134   2.265   9.731  0.4948  0.5309  0.2884
32063SOL     OW  230   0.532   4.950   2.678  0.8782 -0.0560 -0.2128
32063SOL    HW1  231   0.505   4.873   2.729  0.5472  1.2153  1.5937
32063SOL    HW2  232   0.483   4.941   2.596 -0.4896 -0.9020  0.6323
32064SOL     OW  233   7.470   2.698   4.316 -0.4109 -0.2939 -0.4516
32064SOL    HW1  234   7.378   2.701   4.289 -0.5646  0.5482  0.1233
32064SOL    HW2  235   7.514   2.760   4.258 -0.0320 -1.3438 -1.3118
32065SOL     OW  236   4.618   7.444   4.920 -0.2421  0.1804 -0.3249
32065SOL    HW1  237   4.563   7.387   4.974 -1.5297 -0.1736 -1.9406
32065SOL    HW2  238   4.557   7.492   4.865  1.0263  0.5024 -1.5087
32066SOL     OW  239   8.457   7.016   3.769 -0.1110 -0.4060 -0.2952
32066SOL    HW1  240   8.376   6.978   3.803 -0.0916 -0.1747  0.0174
32066SOL    HW2  241   8.438   7.036   3.677  0.1455 -1.9203 -0.7078
32067SOL     OW  242   2.061   1.712   3.862 -0.4680 -0.2314 -0.3648
32067SOL    HW1  243   2.073   1.739   3.953  0.1653  0.0287 -0.5175
32067SOL    HW2  244   1.973   1.675   3.859 -0.1046 -1.2289  0.5937
32068SOL     OW  245   1.243   2.083   9.719  0.4582 -0.7071 -0.4561
32068SOL    HW1  246   1.174   2.044   9.665 -1.3267  0.2422  1.0513
32068SOL    HW2  247   1.299   2.128   9.656 -3.0227  2.6524 -1.5270
32069SOL     OW  248   7.916   9.245   8.382  0.3513  0.2348  0.4529
32069SOL    HW1  249   7.890   9.227   8.472  1.1466  1.2468  0.9166
32069SOL    HW2  250   7.922   9.341   8.379 -1.1569  0.3241 -1.1178
32070SOL     OW  251   2.987   0.419   4.330 -0.3214 -0.3144  0.3621
32070SOL    HW1  252   2.923   0.470   4.280 -0.0289 -0.3306 -0.0332
32070SOL    HW2  253   3.064   0.415   4.273 -0.3229 -1.1659  0.4106
32071SOL     OW  254   7.895   2.068   8.345 -0.1506 -0.2012  0.2836
32071SOL    HW1  255   7.979   2.022   8.349  0.5747  1.0043 -0.4539
32071SOL    HW2  256   7.872   2.070   8.252 -0.6161  0.1557  0.4013
32072SOL     OW  257   1.823   6.967   8.252  0.1006  0.8810 -0.1094
32072SOL    HW1  258   1.783   6.913   8.183  0.7098  0.1014  0.1305
32072SOL    HW2  259   1.844   7.050   8.208 -1.3458  1.1404 -0.3467
32073SOL     OW  260   1.067   0.641   5.781 -0.3161 -0.4663  0.4666
32073SOL    HW1  261   1.099   0.563   5.827 -1.7526 -1.4480 -0.1164
32073SOL    HW2  262   0.974   0.622   5.765 -0.9132  1.7341  1.0427
32074SOL     OW  263   0.856   0.433   3.303 -0.0752  0.0675 -0.1063
32074SOL    HW1  264   0.916   0.362   3.277  2.4614  1.9447  0.2526
32074SOL    HW2  265   0.810   0.455   3.222  1.2605 -0.0510 -0.9342
32075SOL     OW  266   8.897   1.212   2.783  0.3472  0.0214  0.6463
32075SOL    HW1  267   8.979   1.219   2.734 -1.7733 -0.7886 -3.4207
32075SOL    HW2  268   8.897   1.287   2.842  2.7477  1.6255 -1.2453
32076SOL     OW  269   1.097   1.214   1.810 -1.1353  0.1366  0.3761
32076SOL    HW1  270   1.042   1.290   1.828 -0.3205  0.5051  1.5004
32076SOL    HW2  271   1.056   1.142   1.859 -2.1854 -0.2938 -1.0893
32077SOL     OW  272   9.937   7.180   6.315 -0.0794  0.2842  0.6070
32077SOL    HW1  273   9.848   7.188   6.347 -0.1829 -2.4616  1.3017
32077SOL    HW2  274   9.987   7.148   6.391  1.1639  0.2875 -0.1696
32078SOL     OW  275   9.968  10.271   3.566  0.8907 -0.2743 -0.2910
32078SOL    HW1  276   9.995  10.357   3.599  0.4191 -0.4766  0.6546
32078SOL    HW2  277  10.040  10.244   3.510 -0.0405  1.8599 -2.7550
32079SOL     OW  278   5.468   0.207   1.228  0.3903 -0.3846 -0.6276
32079SOL    HW1  279   5.428   0.120   1.232 -1.6098  0.4609 -0.7475
32079SOL    HW2  280   5.459   0.233   1.136 -2.2859  1.2657 -0.0393
32080SOL     OW  281   8.509   9.719   1.283 -0.2457 -0.1426 -0.2830
32080SOL    HW1  282   8.527   9.798   1.232  0.3350  0.2669  0.5450
32080SOL    HW2  283   8.587   9.664   1.271 -0.6058 -0.5635 -0.7782
32081SOL     OW  284   0.409   1.727   8.789  0.0757  0.3673 -0.2974
32081SOL    HW1  285   0.480   1.709   8.851  0.1850 -0.8874 -0.7552
32081SOL    HW2  286   0.442   1.798   8.734  0.2886  0.9578  0.5651
32082SOL     OW  287   7.048   0.321   4.842 -0.5581 -0.0192  0.0070
32082SOL    HW1  288   7.021   0.229   4.836  0.6876 -0.4167  0.2198
32082SOL    HW2  289   7.057   0.349   4.751  1.3406 -0.8357 -0.0972
32083SOL     OW  290   3.759   1.873   0.494  0.3215  0.0120  0.3991
32083SOL    HW1  291   3.723   1.787   0.513  3.2159 -1.1660  1.0774
32083SOL    HW2  292   3.760   1.917   0.579  2.0089 -0.6411  0.7516
32084SOL     OW  293   9.973   8.518   5.875  0.0972 -0.5294  0.4166
32084SOL    HW1  294   9.883   8.517   5.908 -0.4206 -3.2594 -0.8336
32084SOL    HW2  295  10.022   8.462   5.935  0.2907 -1.3962 -0.5265
32085SOL     OW  296   0.453   1.453   0.106  0.3151 -0.1587 -0.2187
32085SOL    HW1  297   0.410   1.472   0.022 -2.0621 -3.3138  0.1426
32085SOL    HW2  298   0.508   1.376   0.088  0.8085 -0.0730  0.8477
32086SOL     OW  299   4.295   4.456   4.988  0.3385  1.0748 -0.7408
32086SOL    HW1  300   4.216   4.433   4.941  0.3042 -0.4955  0.0335
32086SOL    HW2  301   4.325   4.537   4.947 -0.0598  0.1462 -2.9859
32087SOL     OW  302   1.865   3.127   0.210  0.2751  0.5931 -0.2748
32087SOL    HW1  303   1.805   3.198   0.235 -0.2414  0.2313 -0.4659
32087SOL    HW2  304   1.883   3.081   0.292  0.7710  1.0694 -0.1188
32088SOL     OW  305   0.888   2.179   7.499  0.4161 -0.6357 -0.6870
32088SOL    HW1  306   0.943   2.100   7.506  1.0028 -0.1860 -0.0565
32088SOL    HW2  307   0.807   2.156   7.545  0.2136 -1.1744 -1.2956
32089SOL     OW  308   5.530   3.157   2.468 -0.2022 -0.0619 -0.5626
32089SOL    HW1  309   5.478   3.131   2.544  0.4881  1.9600  0.6810
32089SOL    HW2  310   5.578   3.235   2.497  2.0368 -0.6973 -2.2722
32090SOL     OW  311   5.689   1.684   5.549  0.2363  0.0667  0.3115
32090SOL    HW1  312   5.658   1.606   5.502 -0.3177 -0.9412  2.2290
32090SOL    HW2  313   5.621   1.749   5.534 -0.3038 -0.4855  0.3084
32091SOL     OW  314   7.095   6.082   3.378 -0.3800  0.3758 -0.3011
32091SOL    HW1  315   7.110   6.096   3.471 -0.9407 -1.8661  0.1844
32091SOL    HW2  316   7.164   6.132   3.335  1.0806 -0.0749  1.4056
32092SOL     OW  317   5.152   9.004   0.328  0.1416  0.1829 -0.0485
32092SOL    HW1  318   5.138   8.938   0.261  0.7566  0.6895 -0.6906
32092SOL    HW2  319   5.243   9.031   0.317  0.8646 -1.0403  2.1878
32093SOL     OW  320   2.117   8.854   5.094  0.2121  0.4176  0.5497
32093SOL    HW1  321   2.082   8.915   5.029  1.3409  0.6951  0.1927
32093SOL    HW2  322   2.202   8.827   5.059 -0.2004 -1.2767  0.7557
32094SOL     OW  323   5.318   7.592   7.546  0.4183  0.2457  0.2347
32094SOL    HW1  324   5.245   7.592   7.484  1.0082 -0.1336 -0.4881
32094SOL    HW2  325   5.351   7.682   7.545  0.7507  0.1290 -0.4278
32095SOL     OW  326   7.480   7.457   3.828  0.0204  0.6865 -0.1704
32095SOL    HW1  327   7.553   7.411   3.785 -0.6753 -0.2708 -0.3379
32095SOL    HW2  328   7.523   7.524   3.881  0.9981  0.5709 -0.7863
32096SOL     OW  329   5.629   9.598   8.319 -0.7240 -0.3141 -0.4118
32096SOL    HW1  330   5.647   9.504   8.314 -0.2875 -0.3711  1.5076
32096SOL    HW2  331   5.715   9.640   8.312 -0.6187 -0.2078  1.1846
32097SOL     OW  332   4.625   5.460   1.265 -0.7662  0.0617  0.5905
32097SOL    HW1  333   4.607   5.436   1.174  1.0665  0.4463  0.0871
32097SOL    HW2  334   4.561   5.530   1.283  0.2695  1.5978 -1.2034
32098SOL     OW  335   9.372   8.877   1.582 -0.2445 -0.1562 -0.1460
32098SOL    HW1  336   9.440   8.939   1.609 -2.1241  2.6605 -1.3196
32098SOL    HW2  337   9.392   8.857   1.491 -1.7517  2.0289 -1.0415
32099SOL     OW  338   6.304   9.171   4.254 -0.1282 -0.1477 -0.2252
32099SOL    HW1  339   6.392   9.135   4.244 -0.5336 -1.2281 -0.1482
32099SOL    HW2  340   6.250   9.117   4.196 -1.1470 -1.1916  1.5729
32100SOL     OW  341   1.467   6.628   2.882  0.1849 -0.4745 -0.6475
32100SOL    HW1  342   1.548   6.672   2.857  0.4677 -0.6548 -0.0715
32100SOL    HW2  343   1.402   6.659   2.819  0.9416 -1.1808 -1.8173
32101SOL     OW  344   0.715   0.434   9.429  1.0843 -0.5640 -0.2602
32101SOL    HW1  345   0.761   0.451   9.347 -0.0155  0.2390 -0.7284
32101SOL    HW2  346   0.633   0.393   9.403  0.5424  0.0762  0.3909
32102SOL     OW  347   1.410   5.853   0.716  0.1646  0.1593 -0.0368
32102SOL    HW1  348   1.495   5.845   0.672 -0.0001  1.2776 -0.5852
32102SOL    HW2  349   1.429   5.833   0.808  1.2434  1.4152  0.0525
32103SOL     OW  350   1.500   9.461   3.536 -0.3580  0.1186 -0.0621
32103SOL    HW1  351   1.480   9.464   3.629  0.2541  1.9527  0.0472
32103SOL    HW2  352   1.512   9.552   3.510  1.6467 -0.4475 -1.4396
32104SOL     OW  353   7.005   8.537   9.105 -0.2309 -0.0337  0.2828
32104SOL    HW1  354   6.985   8.511   9.195 -0.8422 -0.2462  0.0902
32104SOL    HW2  355   7.007   8.455   9.056 -0.4173  0.1229  0.0098
32105SOL     OW  356   9.144   8.751   6.464 -0.4938  0.1711  0.1703
32105SOL    HW1  357   9.096   8.767   6.383  0.4836 -1.2180 -0.7268
32105SOL    HW2  358   9.232   8.783   6.447  0.2124 -1.7564 -0.0106
32106SOL     OW  359   8.099   2.041   3.946  0.2207 -0.6782  0.2635
32106SOL    HW1  360   8.064   2.112   3.893 -0.3550 -0.9161  0.3201
32106SOL    HW2  361   8.065   2.057   4.034  0.6498 -0.6463  0.4298
32107SOL     OW  362   5.073   5.053   7.493 -0.2892 -0.2319 -0.0053
32107SOL    HW1  363   5.150   5.054   7.436 -0.0554 -0.4649  0.3011
32107SOL    HW2  364   5.012   4.994   7.449 -0.1592 -0.3089 -0.0852
32108SOL     OW  365   5.598   0.034   0.827  0.3627 -0.0945  0.2805
32108SOL    HW1  366   5.593  -0.052   0.869 -0.2241 -0.3355 -0.2565
32108SOL    HW2  367   5.507   0.064   0.823  0.6380  0.8922  1.1336
32109SOL     OW  368   7.950   6.275  10.124  0.0995  0.0396 -0.1403
32109SOL    HW1  369   7.858   6.292  10.104 -0.3177 -2.1258 -0.2953
32109SOL    HW2  370   7.985   6.235  10.044  0.6861 -0.8221  0.5333
32110SOL     OW  371  10.146   9.135   1.020 -0.3196  0.2705  0.4752
32110SOL    HW1  372  10.209   9.182   1.075 -0.4689 -1.2656  2.0640
32110SOL    HW2  373  10.162   9.042   1.038  0.7017 -0.4778 -3.3461
32111SOL     OW  374   0.674   0.036   1.510  0.6545 -0.2160  0.2701
32111SOL    HW1  375   0.583   0.013   1.527  1.0648 -1.2897  1.0782
32111SOL    HW2  376   0.673   0.131   1.497 -0.5723 -0.2209  0.2538
32112SOL     OW  377   2.320  10.251   6.570  0.1768  0.3142  0.1261
32112SOL    HW1  378   2.332  10.166   6.526 -0.6249 -0.1701  0.8180
32112SOL    HW2  379   2.225  10.259   6.581  0.2907  0.9928  0.6708
32113SOL     OW  380   3.100   4.317   2.175 -0.5713  0.1858  0.2828
32113SOL    HW1  381   3.013   4.352   2.155 -0.5829  0.5204  0.9105
32113SOL    HW2  382   3.113   4.336   2.268  0.5742  1.0134 -0.0317
32114SOL     OW  383   9.951   9.851   0.933 -0.0339  0.1444  0.5057
32114SOL    HW1  384  10.015   9.906   0.887  0.4157  0.3780  1.3867
32114SOL    HW2  385   9.932   9.899   1.013 -1.6395  0.2700  0.0864
32115SOL     OW  386   9.855   5.674   1.066  0.1235 -0.1039  0.1352
32115SOL    HW1  387   9.843   5.730   1.143 -2.2380  0.4621 -0.5767
32115SOL    HW2  388   9.948   5.649   1.069 -0.0063 -0.5979  3.4711
32116SOL     OW  389   8.130   7.179   5.733  0.1056 -0.0732  0.1782
32116SOL    HW1  390   8.216   7.218   5.748 -0.3519  0.8856  0.3267
32116SOL    HW2  391   8.112   7.129   5.812  0.2707  0.1949  0.3847
32117SOL     OW  392   0.604   9.559   8.517 -0.7438 -0.0710 -0.0576
32117SOL    HW1  393   0.693   9.592   8.523 -1.0535  0.7982 -0.1823
32117SOL    HW2  394   0.610   9.484   8.458 -0.2531  0.5436 -0.7888
32118SOL     OW  395   4.436   9.406   0.670 -0.2628  0.1750 -0.0965
32118SOL    HW1  396   4.442   9.369   0.582  0.2927 -0.3870  0.1713
32118SOL    HW2  397   4.517   9.379   0.713 -1.1011 -0.6436  1.0173
32119SOL     OW  398  10.230   5.113   9.949 -0.6472 -0.3534  0.2433
32119SOL    HW1  399  10.324   5.108   9.935  0.1457  2.2355  3.4909
32119SOL    HW2  400  10.211   5.046  10.014 -1.6643 -2.5300 -2.0855
32120SOL     OW  401   0.786   8.856   0.350  0.2553  0.1633  0.3939
32120SOL    HW1  402   0.768   8.764   0.331 -0.7705  0.3754  0.2545
32120SOL    HW2  403   0.777   8.862   0.445  1.6230 -0.1313  0.5613
32121SOL     OW  404   9.502   9.712   6.283  0.0260 -0.0078 -0.5509
32121SOL    HW1  405   9.544   9.732   6.199  1.6090 -0.1595  0.1841
32121SOL    HW2  406   9.500   9.616   6.287  2.5965 -0.0780  0.8048
32122SOL     OW  407   4.502   3.842   7.112 -0.3976 -0.2481 -0.6223
32122SOL    HW1  408   4.482   3.931   7.083  1.4600  0.1061 -0.8947
32122SOL    HW2  409   4.423   3.814   7.158 -0.7124  1.8515  0.2160
32123SOL     OW  410   9.930   6.869   5.791 -0.2901 -0.1440 -0.3280
32123SOL    HW1  411   9.951   6.920   5.713 -0.3520 -0.2672 -0.4250
32123SOL    HW2  412   9.889   6.789   5.758  1.0891 -0.9242 -0.2676
32124SOL     OW  413   3.430   0.389   1.082  0.3910  0.2603  0.2254
32124SOL    HW1  414   3.365   0.439   1.131  1.5840 -0.3040  2.5073
32124SOL    HW2  415   3.513   0.433   1.101  0.8204  0.6276 -2.1744
32125SOL     OW  416   4.177   6.829   0.170 -0.2574 -0.0233  0.0041
32125SOL    HW1  417   4.124   6.850   0.246  0.3938 -0.6998  0.6608
32125SOL    HW2  418   4.115   6.792   0.107 -0.7480  0.2609  0.3151
32126SOL     OW  419   8.456   8.414   4.248  0.1334 -0.3447  0.0375
32126SOL    HW1  420   8.388   8.472   4.282  0.0805  0.1972 -0.9574
32126SOL    HW2  421   8.436   8.405   4.155 -0.6549 -3.0557  0.3893
32127SOL     OW  422   4.486   4.732   5.315  0.9685 -0.1503  0.0334
32127SOL    HW1  423   4.493   4.777   5.231  1.5423  2.5393  1.4070
32127SOL    HW2  424   4.393   4.735   5.336  0.9466  0.0059 -0.0845
32128SOL     OW  425   4.223   0.369   4.774 -0.4596 -0.0851 -0.0589
32128SOL    HW1  426   4.268   0.413   4.846  0.2494 -0.4761 -0.2467
32128SOL    HW2  427   4.193   0.286   4.811  0.5709 -0.6253 -0.3933
32129SOL     OW  428   9.746   8.903   0.276  0.5098  0.1275 -0.6587
32129SOL    HW1  429   9.718   8.811   0.276 -2.3430  0.8763  1.2644
32129SOL    HW2  430   9.690   8.945   0.212 -0.6822  1.0661  0.9110
32130SOL     OW  431   6.758   1.799   3.787  0.5630 -0.5723  0.4863
32130SOL    HW1  432   6.734   1.829   3.700 -3.6141  1.1865  2.0059
32130SOL    HW2  433   6.805   1.716   3.772  0.4175 -0.1124 -3.3540
32131SOL     OW  434   8.561   6.631   2.452 -0.4992  0.2021 -0.1942
32131SOL    HW1  435   8.499   6.600   2.386 -1.0283 -0.5323  0.6190
32131SOL    HW2  436   8.643   6.644   2.404 -1.3183  1.4318 -1.3473
32132SOL     OW  437   0.751   6.289   6.362 -0.3861  0.0313 -0.0839
32132SOL    HW1  438   0.700   6.301   6.282 -2.0711  0.7035  1.0281
32132SOL    HW2  439   0.809   6.364   6.366 -2.5422  1.7739  0.8542
32133SOL     OW  440   4.326   0.447   5.019 -0.6888 -0.0158  0.2900
32133SOL    HW1  441   4.276   0.506   5.075  0.5945  0.5850  0.8112
32133SOL    HW2  442   4.363   0.383   5.079  3.0218  2.2163  0.6405
32134SOL     OW  443   5.670   7.673   5.772  0.5027 -0.0067  0.2603
32134SOL    HW1  444   5.676   7.721   5.855 -0.5610 -0.5827  0.6872
32134SOL    HW2  445   5.700   7.736   5.706 -1.3159  1.4526  0.7330
32135SOL     OW  446   9.657   1.458   8.910  0.1033 -0.3628  0.1417
32135SOL    HW1  447   9.624   1.547   8.917  0.6998 -0.1526  0.3444
32135SOL    HW2  448   9.618   1.412   8.984  1.5546  0.3075  1.3807
32136SOL     OW  449   9.599   9.733   5.421  0.2822  0.7011  0.0878
32136SOL    HW1  450   9.628   9.696   5.337  0.8816  1.6585 -0.1452
32136SOL    HW2  451   9.505   9.716   5.424  0.5984 -1.2534  0.2195
32137SOL     OW  452   2.170   5.457   3.632 -0.4455  0.4138  0.1727
32137SOL    HW1  453   2.253   5.456   3.680  0.2002 -0.4123 -0.9195
32137SOL    HW2  454   2.141   5.548   3.635  0.1667  0.5869  1.1093
32138SOL     OW  455   8.993   5.016   8.820 -0.4990  0.1336  0.5604
32138SOL    HW1  456   8.956   4.998   8.906  1.6378  0.6084  1.6317
32138SOL    HW2  457   9.066   4.954   8.812  1.0206  1.8767  0.2848
32139SOL     OW  458   3.881   5.842   9.324 -0.0281 -0.1706 -0.6148
32139SOL    HW1  459   3.872   5.937   9.315 -0.9478 -0.2645 -0.8087
32139SOL    HW2  460   3.868   5.825   9.417 -0.5684 -0.1640 -0.6826
32140SOL     OW  461   8.936   7.413   6.878 -0.3513 -0.0425  0.0605
32140SOL    HW1  462   8.841   7.411   6.890 -0.2944  0.7605  0.6763
32140SOL    HW2  463   8.971   7.431   6.966  0.2902  1.2652 -0.4387
32141SOL     OW  464   8.077   0.654   8.719 -0.2246 -0.1126 -0.5866
32141SOL    HW1  465   8.114   0.718   8.780  0.6232  0.1001 -1.2966
32141SOL    HW2  466   8.020   0.705   8.662 -0.9272 -0.2921 -0.0547
32142SOL     OW  467   4.033   3.014   9.576  0.2540 -0.4761 -0.0595
32142SOL    HW1  468   4.104   2.978   9.524  0.8862 -0.9589  1.1098
32142SOL    HW2  469   3.977   2.939   9.596 -0.9200 -0.0104 -1.4382
32143SOL     OW  470   7.651   2.297   8.086 -0.3311 -0.3576 -0.0270
32143SOL    HW1  471   7.713   2.224   8.092  0.1562  0.0052 -0.5291
32143SOL    HW2  472   7.703   2.375   8.107 -0.8849 -0.1603  0.6812
32144SOL     OW  473   8.561  10.033   1.603  0.4164 -0.5479 -0.3282
32144SOL    HW1  474   8.539   9.967   1.669 -1.7287  2.0122  1.7403
32144SOL    HW2  475   8.626  10.089   1.646 -1.4998  1.5480  0.0443
32145SOL     OW  476   5.775   7.642   0.491 -0.4031  0.4152  0.3149
32145SOL    HW1  477   5.826   7.713   0.530  0.3745  0.0411 -0.0135
32145SOL    HW2  478   5.808   7.633   0.402  0.0559 -0.8718  0.5885
32146SOL     OW  479   4.225   7.350   1.006 -0.8177  0.6211  0.4175
32146SOL    HW1  480   4.228   7.444   0.989 -1.2179  0.5130 -0.2534
32146SOL    HW2  481   4.285   7.311   0.942 -0.5710  0.4224  0.7609
32147SOL     OW  482   2.326   1.279   1.318  0.1459  0.1154  0.2175
32147SOL    HW1  483   2.383   1.354   1.334 -0.1158  0.7684 -1.6822
32147SOL    HW2  484   2.282   1.299   1.235 -1.8278 -0.9890  0.9192
32148SOL     OW  485   4.409   9.164   7.139 -0.1358 -0.1413  0.2901
32148SOL    HW1  486   4.476   9.231   7.156  0.7794 -0.7876 -0.6418
32148SOL    HW2  487   4.412   9.108   7.217  1.0920 -0.6983 -0.1267
32149SOL     OW  488   6.153   7.773  10.158 -0.1227 -0.0735 -0.7291
32149SOL    HW1  489   6.153   7.687  10.198 -1.9086 -0.3384 -1.2036
32149SOL    HW2  490   6.232   7.775  10.104  1.7046 -0.1365  1.7707
32150SOL     OW  491   0.373   2.689   2.218 -0.0733 -0.1177  0.1724
32150SOL    HW1  492   0.456   2.645   2.238 -0.3838 -1.3915 -1.1551
32150SOL    HW2  493   0.306   2.632   2.256 -0.3845  0.4960  0.5568
32151SOL     OW  494   1.842   2.312   8.912  0.6005  0.0202 -0.2946
32151SOL    HW1  495   1.865   2.236   8.966 -1.4946 -1.6648 -1.5678
32151SOL    HW2  496   1.796   2.371   8.972  3.2065  0.9081  0.9730
32152SOL     OW  497   5.835   8.084   7.920  0.3991  0.3155 -0.2843
32152SOL    HW1  498   5.822   8.178   7.928 -0.3905  0.1673  0.2725
32152SOL    HW2  499   5.846   8.054   8.011  0.7091 -0.1215 -0.4630
32153SOL     OW  500   7.053   7.953   3.694  0.3887  0.3775 -0.0150
32153SOL    HW1  501   7.014   7.874   3.731 -0.2830  0.5926 -0.2424
32153SOL    HW2  502   7.098   7.994   3.767 -2.0498  1.5038  0.9833
32154SOL     OW  503   3.440   7.956   5.486  0.5100 -0.6091 -0.2922
32154SOL    HW1  504   3.410   8.035   5.531  0.4308 -0.9214  0.2176
32154SOL    HW2  505   3.473   7.987   5.402 -2.5659 -0.4037 -1.5319
32155SOL     OW  506   0.840   1.694   6.470 -0.6078 -0.5704  0.4812
32155SOL    HW1  507   0.782   1.681   6.545 -1.2687  2.4405  0.6169
32155SOL    HW2  508   0.919   1.733   6.507 -0.8064  0.6410 -0.3091
32156SOL     OW  509   0.377   4.590   7.368  0.1147 -0.1878 -0.8756
32156SOL    HW1  510   0.388   4.511   7.315 -0.6666 -0.0685 -1.2327
32156SOL    HW2  511   0.316   4.564   7.436 -0.8050  0.3252 -1.4854
32157SOL     OW  512   5.093   4.315   6.511  0.4980  0.4235  0.5753
32157SOL    HW1  513   5.138   4.285   6.432  0.3441  1.9412 -0.1226
32157SOL    HW2  514   5.004   4.333   6.482  0.0742 -0.2697  1.4120
32158SOL     OW  515   7.908   4.696   8.730 -0.3173  0.8499  0.2078
32158SOL    HW1  516   7.968   4.740   8.669 -0.3402  0.9785  0.2769
32158SOL    HW2  517   7.844   4.654   8.673 -0.2275  0.8078  0.1367
32159SOL     OW  518   9.888   5.522   8.281  0.0799 -0.3047 -0.2300
32159SOL    HW1  519   9.974   5.560   8.299  0.9456 -0.5649 -3.2970
32159SOL    HW2  520   9.900   5.428   8.296  0.4394 -0.3767 -0.9348
32160SOL     OW  521   4.107   5.381   7.253  0.0589  0.3347 -0.5333
32160SOL    HW1  522   4.134   5.305   7.201 -1.5965  0.4316 -1.6022
32160SOL    HW2  523   4.104   5.348   7.343  0.0480 -0.6811 -0.8853
32161SOL     OW  524   2.030   5.991   0.648 -0.1945 -0.3565  0.5843
32161SOL    HW1  525   2.024   5.907   0.602 -0.1542 -0.2748  0.4270
32161SOL    HW2  526   2.062   6.052   0.581 -0.7984 -0.0855  0.5333
32162SOL     OW  527   0.819   0.348   4.530  0.5092 -0.6537  0.3774
32162SOL    HW1  528   0.852   0.418   4.474 -0.0996 -1.0851 -0.5332
32162SOL    HW2  529   0.735   0.380   4.562 -0.5153 -1.5587 -1.2749
32163SOL     OW  530   1.742   1.344   7.346  0.0572 -0.4813  0.2953
32163SOL    HW1  531   1.676   1.377   7.286 -1.7134 -1.9786  1.3291
32163SOL    HW2  532   1.742   1.249   7.334  0.1748 -0.7622  2.1033
32164SOL     OW  533   0.325   8.143   5.050  0.3080  0.4240 -0.4785
32164SOL    HW1  534   0.356   8.162   5.138  0.3852  1.8346 -0.7863
32164SOL    HW2  535   0.372   8.064   5.024 -0.2721 -0.4526  1.0069
32165SOL     OW  536   5.240   3.164   6.366 -0.5332 -0.3988  0.1371
32165SOL    HW1  537   5.225   3.159   6.271  1.1550  2.1137 -0.3545
32165SOL    HW2  538   5.189   3.240   6.394 -0.1231 -0.4473  1.0357
32166SOL     OW  539   9.301   1.299   1.819 -0.1720  0.0112  0.0179
32166SOL    HW1  540   9.240   1.239   1.778 -0.3161 -0.0727  0.3473
32166SOL    HW2  541   9.247   1.349   1.881  0.0981 -0.0859  0.3347
32167SOL     OW  542   5.242   3.246   9.477 -0.1910 -0.2208  0.7611
32167SOL    HW1  543   5.272   3.163   9.514  0.4063 -0.1457  0.4640
32167SOL    HW2  544   5.283   3.313   9.532  0.9309 -0.1027 -0.1825
32168SOL     OW  545   1.579   8.022   5.909 -0.1380 -0.4305  0.5613
32168SOL    HW1  546   1.485   8.030   5.892 -0.0729 -1.4340 -0.4249
32168SOL    HW2  547   1.608   7.956   5.847  1.5537  1.1096 -0.3665
32169SOL     OW  548   5.880   2.391   1.103 -0.3494  0.0185 -0.4043
32169SOL    HW1  549   5.836   2.373   1.187  1.3868 -1.3232  0.2767
32169SOL    HW2  550   5.955   2.445   1.127  0.3496 -0.6600 -1.0325
32170SOL     OW  551   1.278   2.449   5.461  0.1697 -0.8112 -0.4141
32170SOL    HW1  552   1.354   2.486   5.415  0.9009 -1.5195  0.2041
32170SOL    HW2  553   1.260   2.368   5.414 -1.1514  0.0597 -1.4839
32171SOL     OW  554   3.321   7.301   5.824  0.8917 -0.5001 -0.4563
32171SOL    HW1  555   3.334   7.374   5.884 -2.6112  0.3905 -0.5454
32171SOL    HW2  556   3.361   7.226   5.868 -0.9044  0.2465  2.7166
32172SOL     OW  557   1.755   4.520   5.520  0.2813  0.0059 -0.0855
32172SOL    HW1  558   1.742   4.426   5.508  0.6982  0.0301 -0.8094
32172SOL    HW2  559   1.724   4.538   5.608  0.0748 -0.7887  0.0093
32173SOL     OW  560   6.853   0.643   5.564  0.1086  1.1725 -0.0892
32173SOL    HW1  561   6.875   0.736   5.569  0.0751  1.1865 -0.1974
32173SOL    HW2  562   6.936   0.598   5.580  0.3229  1.2277 -0.9934
32174SOL     OW  563   3.213   7.813   3.399 -0.1371 -0.1816 -0.4686
32174SOL    HW1  564   3.192   7.821   3.306 -0.9416  1.8607 -0.1576
32174SOL    HW2  565   3.303   7.845   3.407  0.2321 -1.1329 -0.6257
32175SOL     OW  566   9.711   3.453   5.178 -0.5326 -0.4204  0.8510
32175SOL    HW1  567   9.740   3.418   5.263 -1.0127 -0.1091  1.1484
32175SOL    HW2  568   9.622   3.418   5.167 -0.4427 -0.5210  0.4378
32176SOL     OW  569   7.754   8.422   1.594  0.4367  0.2692 -0.2377
32176SOL    HW1  570   7.778   8.495   1.536 -0.5819  1.6016  0.9231
32176SOL    HW2  571   7.778   8.452   1.682 -3.0924  0.7824  0.7370
32177SOL     OW  572   5.727   7.037   4.792 -0.1469 -0.0030 -0.1867
32177SOL    HW1  573   5.799   7.009   4.735 -0.3464  2.4474 -1.8112
32177SOL    HW2  574   5.742   7.131   4.804 -1.2268 -0.0606  2.2845
32178SOL     OW  575   5.323   5.241   2.964  0.1675  0.2292 -0.0267
32178SOL    HW1  576   5.342   5.152   2.996 -0.9107 -0.2576 -0.6724
32178SOL    HW2  577   5.332   5.234   2.869  0.0412  0.8051 -0.0798
32179SOL     OW  578   8.807   4.645   0.062 -0.2166  0.0846  0.2136
32179SOL    HW1  579   8.749   4.611  -0.006  1.6041  0.3387 -1.5439
32179SOL    HW2  580   8.832   4.568   0.113  0.6964 -0.6325 -1.2460
32180SOL     OW  581   3.671   1.818   2.191 -0.1275 -0.2390 -0.5805
32180SOL    HW1  582   3.610   1.870   2.139  0.6603  2.9219  1.3672
32180SOL    HW2  583   3.624   1.801   2.273 -0.2855 -2.5557 -1.0893
32181SOL     OW  584   2.348   0.525   6.755 -0.5215  0.0541 -0.0383
32181SOL    HW1  585   2.414   0.456   6.763 -0.5259  0.0646  0.0877
32181SOL    HW2  586   2.268   0.478   6.730 -0.0837  0.2207 -1.8530
32182SOL     OW  587   2.780   9.907   6.416 -0.0061  0.4878 -1.0609
32182SOL    HW1  588   2.870   9.877   6.399  1.4645  1.8538  2.9969
32182SOL    HW2  589   2.748   9.846   6.483 -0.4638  2.3236  0.4872
32183SOL     OW  590   1.685   6.519   1.936 -0.4971 -0.8871 -0.0148
32183SOL    HW1  591   1.694   6.472   2.019  0.8851 -0.0994  0.3149
32183SOL    HW2  592   1.617   6.583   1.952 -1.5287 -1.9286 -0.0848
32184SOL     OW  593   8.780   2.994   6.817 -0.1074  0.5649 -0.4451
32184SOL    HW1  594   8.728   3.050   6.760  0.8697  1.2713 -0.6853
32184SOL    HW2  595   8.720   2.927   6.848 -0.9178  0.8213 -1.4340
32185SOL     OW  596   8.409   1.481   1.111 -0.0842  0.0181  0.4727
32185SOL    HW1  597   8.471   1.428   1.061 -1.0804 -2.4321  1.6584
32185SOL    HW2  598   8.378   1.548   1.050  0.3203 -1.5523 -1.5256
32186SOL     OW  599   8.309   3.370   9.360  0.1924 -0.3872  0.1629
32186SOL    HW1  600   8.326   3.446   9.304  0.4622  0.3361  1.1919
32186SOL    HW2  601   8.313   3.405   9.449 -2.5794 -1.0210  0.6108
32187SOL     OW  602   7.713   6.973   8.943 -0.0817  0.6757  0.8969
32187SOL    HW1  603   7.743   7.064   8.949  2.8970 -0.1608  0.3668
32187SOL    HW2  604   7.670   6.957   9.027 -0.0752  2.3902  1.2658
32188SOL     OW  605  10.006   2.289   1.512  0.6675 -0.4531  0.0151
32188SOL    HW1  606  10.065   2.342   1.459  0.7917  0.4021  0.9803
32188SOL    HW2  607   9.951   2.352   1.558 -0.0041 -1.1967  0.2642
32189SOL     OW  608   7.362   8.090   1.345  0.2007  0.2130 -0.2404
32189SOL    HW1  609   7.349   8.153   1.416 -0.1847  2.5154 -2.2057
32189SOL    HW2  610   7.289   8.107   1.285 -0.0923 -2.3916 -0.7199
32190SOL     OW  611   8.612   4.388   7.309 -0.7943 -0.3373 -0.1941
32190SOL    HW1  612   8.618   4.374   7.403  2.1823 -3.9288 -0.6712
32190SOL    HW2  613   8.519   4.380   7.289 -1.3099 -1.2945  2.2623
32191SOL     OW  614   7.727   6.636   1.435 -0.5541  0.2026  0.4142
32191SOL    HW1  615   7.783   6.651   1.359  0.3797  0.4316  1.1423
32191SOL    HW2  616   7.687   6.550   1.418  0.7029 -0.3721  0.3037
32192SOL     OW  617   7.809   2.732   5.658  0.3431 -0.4589  0.2215
32192SOL    HW1  618   7.874   2.674   5.617  1.0813 -0.0572  0.7851
32192SOL    HW2  619   7.741   2.674   5.691  0.2911 -0.8704 -0.5938
32193SOL     OW  620   9.357   6.212   4.617  0.3859 -0.3696  0.2081
32193SOL    HW1  621   9.340   6.258   4.535  0.5354  0.5135  0.6623
32193SOL    HW2  622   9.349   6.119   4.594 -2.0529 -0.1181 -0.2755
32194SOL     OW  623   3.140   1.472   1.871 -0.2938  0.1384 -0.3879
32194SOL    HW1  624   3.218   1.466   1.817  1.5016  1.5519  1.8416
32194SOL    HW2  625   3.151   1.403   1.937  0.4371  1.9238  1.4587
32195SOL     OW  626   9.743   3.557   2.108 -0.0531  0.3659  0.0750
32195SOL    HW1  627   9.778   3.501   2.039 -0.6839  1.0436 -0.8149
32195SOL    HW2  628   9.753   3.646   2.074 -2.9899  0.5858 -0.4377
32196SOL     OW  629   1.579  10.073   7.530  0.3018 -0.1629  0.1284
32196SOL    HW1  630   1.659  10.051   7.577 -0.9242 -1.9855  1.5265
32196SOL    HW2  631   1.577  10.011   7.456  1.0643  1.1511 -1.0527
32197SOL     OW  632   8.993   5.761   7.427 -0.1469  0.2459 -0.1371
32197SOL    HW1  633   8.901   5.741   7.408 -0.1476 -1.5322  1.4644
32197SOL    HW2  634   8.991   5.804   7.512  0.3605  2.4184 -1.1499
32198SOL     OW  635   8.910   1.259   5.678 -0.2086  0.2545 -0.2252
32198SOL    HW1  636   8.853   1.190   5.643  2.6371 -1.4920 -1.7234
32198SOL    HW2  637   8.962   1.215   5.746  1.3486  0.9948 -0.8968
32199SOL     OW  638   0.155   7.051   1.533 -0.5093 -0.2088  0.5831
32199SOL    HW1  639   0.113   7.057   1.447 -0.0098  0.2021  0.3640
32199SOL    HW2  640   0.083   7.063   1.596 -0.5541  1.8298  0.2048
32200SOL     OW  641   8.148   9.385   1.661  0.2584  1.0184 -0.5517
32200SOL    HW1  642   8.167   9.363   1.752  1.2950 -1.1384 -1.2122
32200SOL    HW2  643   8.053   9.386   1.655  0.1619 -0.7411  0.1683
32201SOL     OW  644   9.025   4.373   7.262  0.0512  0.3602  0.1905
32201SOL    HW1  645   9.087   4.409   7.199 -0.6570  0.3362 -0.5401
32201SOL    HW2  646   8.940   4.382   7.220 -0.5075  0.7813  1.3493
32202SOL     OW  647   6.484   2.708   5.551 -0.0887  0.0415 -0.0859
32202SOL    HW1  648   6.509   2.616   5.546  0.7276  0.2086  0.6288
32202SOL    HW2  649   6.514   2.737   5.638 -0.3267  0.9766 -0.2976
32203SOL     OW  650   1.055   8.662   7.303 -0.1498  0.7306  0.4769
32203SOL    HW1  651   1.002   8.736   7.276  2.0266  1.8653 -1.0243
32203SOL    HW2  652   1.014   8.586   7.262 -1.2795  1.3600  0.4073
32204SOL     OW  653   6.836   5.494   9.351 -0.1573  1.1293  0.3801
32204SOL    HW1  654   6.793   5.456   9.274 -0.3797  1.1564  0.4889
32204SOL    HW2  655   6.783   5.466   9.425  1.5681 -1.1551  0.8416
32205SOL     OW  656   2.598   9.275   8.328 -0.1302  0.4460 -0.1546
32205SOL    HW1  657   2.535   9.308   8.392 -0.2063 -0.0959  0.0546
32205SOL    HW2  658   2.546   9.253   8.251 -0.1375  0.3725 -0.1279
32206SOL     OW  659   3.428   1.904  10.024  0.5263 -0.0937 -0.0744
32206SOL    HW1  660   3.459   1.815  10.039  1.7434  0.4546  0.8262
32206SOL    HW2  661   3.463   1.927   9.938  0.9227 -0.1936  0.0574
32207SOL     OW  662   7.411   2.579   8.319  0.0743 -0.7003  0.1488
32207SOL    HW1  663   7.411   2.607   8.228  0.1499 -2.0176 -0.2704
32207SOL    HW2  664   7.484   2.627   8.359 -0.5859  0.6561 -0.2119
32208SOL     OW  665   0.587   5.829   8.786  0.5171  0.1745  0.5252
32208SOL    HW1  666   0.646   5.872   8.724  0.4984 -0.8617 -0.2317
32208SOL    HW2  667   0.543   5.901   8.830  0.1760  0.9412 -1.0017
32209SOL     OW  668   4.548   1.151   7.608 -0.3155  0.5402  0.7583
32209SOL    HW1  669   4.519   1.123   7.521  1.1130  1.6603 -0.1422
32209SOL    HW2  670   4.469   1.182   7.651 -0.7635  2.0000 -0.9852
32210SOL     OW  671   1.847   0.109   6.607 -0.2630  0.5300  0.4756
32210SOL    HW1  672   1.919   0.092   6.546 -0.9806  1.9388 -0.8079
32210SOL    HW2  673   1.879   0.180   6.663 -0.3230  0.5168  0.5259
32211SOL     OW  674   1.844   6.836   6.646 -0.1815  0.4990  0.5695
32211SOL    HW1  675   1.869   6.814   6.736  2.3989 -1.1175 -0.4310
32211SOL    HW2  676   1.891   6.917   6.627  2.6370 -1.2456 -0.5049
32212SOL     OW  677   2.877   0.361   1.717  0.0605 -0.1624 -0.7376
32212SOL    HW1  678   2.909   0.451   1.710  0.7936 -0.4617 -1.3174
32212SOL    HW2  679   2.789   0.364   1.681  0.5500  0.0859 -1.9710
32213SOL     OW  680   0.945   5.727   1.214  0.3329 -0.3753  0.0019
32213SOL    HW1  681   0.969   5.800   1.271  1.2373 -0.3437 -0.4128
32213SOL    HW2  682   0.910   5.769   1.135 -0.4126 -0.4164  0.2949
32214SOL     OW  683   9.231   6.960   8.664  0.0127 -0.1768 -0.3203
32214SOL    HW1  684   9.215   6.991   8.754  1.4542 -1.6191  0.4966
32214SOL    HW2  685   9.326   6.969   8.654 -0.2817  1.2789 -2.2492
32215SOL     OW  686   7.642   7.362   6.392 -0.6082  0.0425  0.8526
32215SOL    HW1  687   7.656   7.452   6.363  0.4919 -0.6781 -1.0885
32215SOL    HW2  688   7.729   7.332   6.418 -0.4919 -1.1325 -0.7527
32216SOL     OW  689   2.439   7.393   6.510 -0.4339  0.5188  0.4276
32216SOL    HW1  690   2.498   7.350   6.573 -0.7109 -0.0146  0.3277
32216SOL    HW2  691   2.430   7.482   6.543  3.3623  1.8473 -1.4857
32217SOL     OW  692   8.757   1.884   6.919 -0.2177 -0.9904 -0.1684
32217SOL    HW1  693   8.687   1.819   6.918 -1.0358 -0.1457  0.0160
32217SOL    HW2  694   8.789   1.887   6.829 -2.1667  0.3983 -0.8982
32218SOL     OW  695   7.444   9.524   7.066  0.4865  0.4948  0.0017
32218SOL    HW1  696   7.535   9.511   7.038  0.3973 -0.2035  0.0035
32218SOL    HW2  697   7.428   9.453   7.128  0.3559  1.4175  1.0448
32219SOL     OW  698   6.828   1.711   9.894 -0.2898 -0.1044 -0.2449
32219SOL    HW1  699   6.856   1.792   9.852 -0.5480  0.2962  0.3424
32219SOL    HW2  700   6.868   1.714   9.981  2.2762 -2.0748 -1.2347
32220SOL     OW  701   1.207   1.386   3.050  0.0073  0.3023  0.2363
32220SOL    HW1  702   1.249   1.300   3.050 -1.1127 -0.3322  2.2876
32220SOL    HW2  703   1.127   1.373   3.101  0.3139  2.7897  1.5083
32221SOL     OW  704   4.335   7.800   2.344  0.2301 -0.0913 -0.8790
32221SOL    HW1  705   4.366   7.774   2.257  1.3608 -0.4567 -0.3900
32221SOL    HW2  706   4.344   7.895   2.346  0.0999 -0.0690 -1.1834
32222SOL     OW  707   7.678   6.954   0.665 -0.0240  0.0213 -0.1934
32222SOL    HW1  708   7.636   6.897   0.601 -1.4807 -0.0017  0.7282
32222SOL    HW2  709   7.717   6.895   0.729  1.6361  0.0397 -1.1452
32223SOL     OW  710   2.123   6.720   9.216 -0.5308 -0.0788 -0.4759
32223SOL    HW1  711   2.197   6.659   9.217  2.0270  2.7094 -1.0591
32223SOL    HW2  712   2.073   6.697   9.138  1.6822 -0.1079 -1.9870
32224SOL     OW  713   1.988   9.687   7.213  0.6241 -0.1349 -0.8277
32224SOL    HW1  714   1.931   9.711   7.140 -0.6680  0.8436  0.4535
32224SOL    HW2  715   2.022   9.771   7.245  0.6040 -0.4850  0.1370
32225SOL     OW  716   4.067   6.948   2.417 -0.3148  0.3123  0.3412
32225SOL    HW1  717   4.094   6.945   2.325 -1.4149 -0.4174  0.0282
32225SOL    HW2  718   4.118   7.021   2.454  0.6367  0.1915 -0.6702
32226SOL     OW  719   2.689   7.839   6.695  1.0972 -0.1620  0.4125
32226SOL    HW1  720   2.660   7.766   6.749 -0.9103  0.6315  0.4769
32226SOL    HW2  721   2.716   7.798   6.612  3.6344 -1.3173  1.6954
32227SOL     OW  722  10.040   9.613   0.704 -0.0119  0.4468  0.0318
32227SOL    HW1  723  10.022   9.627   0.611  0.1613  0.4566 -0.0009
32227SOL    HW2  724  10.116   9.669   0.722  0.7211 -0.4714 -0.1089
32228SOL     OW  725   8.234   9.817   7.569  0.1561  0.3772  0.5289
32228SOL    HW1  726   8.325   9.818   7.541 -0.2974  0.7847 -1.0956
32228SOL    HW2  727   8.236   9.847   7.660  1.7840 -1.3606  1.1232
32229SOL     OW  728   4.080   0.899   4.845  0.4178  0.6261 -0.0661
32229SOL    HW1  729   4.033   0.892   4.763 -2.8367  1.4724  1.5511
32229SOL    HW2  730   4.074   0.812   4.885  1.2062  0.4535 -0.3055
32230SOL     OW  731   3.260   5.564   7.393  0.7246  0.7784  0.4216
32230SOL    HW1  732   3.310   5.539   7.315 -0.1251 -1.4355  0.5243
32230SOL    HW2  733   3.169   5.558   7.366  0.4311  2.3885  0.9383
32231SOL     OW  734   1.793   8.162   8.776  0.0295 -0.7305 -0.1867
32231SOL    HW1  735   1.845   8.167   8.695  0.0024 -0.6274 -0.1986
32231SOL    HW2  736   1.857   8.148   8.845  0.1999  0.5974 -0.0459
32232SOL     OW  737   8.547   9.084   5.921 -0.0891  0.5480  0.1473
32232SOL    HW1  738   8.573   9.173   5.894 -0.2531  0.0262 -1.8832
32232SOL    HW2  739   8.524   9.040   5.839 -2.3684 -0.6403  1.3505
32233SOL     OW  740   3.789   1.341   2.826  0.2918  1.1638  0.3483
32233SOL    HW1  741   3.883   1.344   2.808  0.6560  3.3663  2.1280
32233SOL    HW2  742   3.751   1.405   2.765 -0.4063 -1.0625 -1.6900
32234SOL     OW  743   1.991   9.291   8.090 -0.0424 -0.2386 -0.0811
32234SOL    HW1  744   2.025   9.269   8.177 -2.2332 -0.8303  0.6927
32234SOL    HW2  745   2.011   9.215   8.036  0.0935 -0.4657  0.2873
32235SOL     OW  746   9.740   2.467   0.374 -0.2079  1.2265 -0.2200
32235SOL    HW1  747   9.662   2.515   0.345  0.2387  2.3114  0.2911
32235SOL    HW2  748   9.785   2.443   0.294 -1.0464  0.6338 -0.5162
32236SOL     OW  749   7.294   4.399   0.339  0.4862  0.0382 -0.0176
32236SOL    HW1  750   7.342   4.474   0.373 -0.2601  0.8685 -0.7089
32236SOL    HW2  751   7.309   4.402   0.244  1.3483 -1.3583  0.0475
32237SOL     OW  752   1.884   3.131   4.520  0.2795  0.2917  0.3301
32237SOL    HW1  753   1.839   3.056   4.560 -0.4487  1.3932  1.6439
32237SOL    HW2  754   1.911   3.099   4.434 -0.9473 -1.1506  0.4366
32238SOL     OW  755  10.018   1.693   3.725 -0.0443 -0.0724  0.0553
32238SOL    HW1  756   9.982   1.673   3.638  2.5394 -2.6486 -0.5568
32238SOL    HW2  757   9.949   1.745   3.767 -1.2496  1.6365 -3.6076
32239SOL     OW  758   7.452   3.955   9.146 -0.0066 -0.0789  0.3916
32239SOL    HW1  759   7.483   3.870   9.177 -0.3163 -0.2627  0.2019
32239SOL    HW2  760   7.449   4.010   9.224 -0.2712 -0.3824  0.5964
32240SOL     OW  761   1.456   4.708   4.585 -0.1772 -0.2620 -0.4502
32240SOL    HW1  762   1.408   4.650   4.644 -2.5827  2.1227  0.1030
32240SOL    HW2  763   1.410   4.701   4.501  0.1781  0.0330 -0.6736
32241SOL     OW  764   8.293   4.423   9.218 -0.2457  0.2812 -0.7627
32241SOL    HW1  765   8.277   4.329   9.219  1.0119  0.0445  0.9426
32241SOL    HW2  766   8.264   4.454   9.303 -0.3738  1.3918 -1.1972
32242SOL     OW  767   5.955  10.000   7.855  0.1549  0.5030 -0.9198
32242SOL    HW1  768   5.953   9.965   7.766  0.0314  1.3723 -1.2708
32242SOL    HW2  769   5.903  10.080   7.850  0.0528  0.5019 -0.0351
32243SOL     OW  770   1.541   8.794   8.084 -0.4913  0.6632  0.6388
32243SOL    HW1  771   1.604   8.723   8.097 -1.3798  0.1387  2.3194
32243SOL    HW2  772   1.458   8.750   8.068 -0.5087  1.3494 -1.4968
32244SOL     OW  773   7.287   5.556   0.548 -0.1212  0.4805 -0.4045
32244SOL    HW1  774   7.211   5.571   0.492 -1.7103 -1.3066  1.1549
32244SOL    HW2  775   7.296   5.461   0.552  1.7063  0.6359  0.1474
32245SOL     OW  776   8.158   8.496   4.057 -0.6713  0.0298 -0.5296
32245SOL    HW1  777   8.084   8.453   4.100 -1.0047 -0.8759 -1.9387
32245SOL    HW2  778   8.180   8.569   4.115 -0.1003 -1.9748  1.9468
32246SOL     OW  779   7.864   5.909   0.697  0.1062  0.2466 -0.1656
32246SOL    HW1  780   7.931   5.953   0.750  1.4966  0.2448 -1.7966
32246SOL    HW2  781   7.908   5.893   0.613 -1.8083 -0.2303 -1.1329
32247SOL     OW  782   1.258   6.034   1.421  0.1561  0.0666 -0.5162
32247SOL    HW1  783   1.273   6.057   1.329 -3.5025  1.9675 -0.8222
32247SOL    HW2  784   1.233   6.117   1.462  2.6311 -0.5088  2.5681
32248SOL     OW  785   3.914   8.217   7.377  0.4575 -0.0615 -0.1460
32248SOL    HW1  786   3.828   8.178   7.390 -0.5870  1.8948 -0.7577
32248SOL    HW2  787   3.975   8.144   7.385 -1.2793 -1.5833 -0.1585
32249SOL     OW  788   7.624   3.239   8.191  0.5649  0.1737 -0.2513
32249SOL    HW1  789   7.597   3.226   8.282  0.7357 -1.0953 -0.3574
32249SOL    HW2  790   7.705   3.290   8.197  0.5192  0.1906  0.3101
32250SOL     OW  791   6.184   6.968   6.301 -0.2678  0.5362  0.3787
32250SOL    HW1  792   6.198   6.878   6.329  0.2844  0.3630 -0.4156
32250SOL    HW2  793   6.271   7.005   6.291 -0.4604  0.7943 -0.4283
32251SOL     OW  794   0.710   8.991   2.588 -0.2811 -0.4177  0.4358
32251SOL    HW1  795   0.701   9.068   2.532 -1.2322  0.2109  1.4198
32251SOL    HW2  796   0.699   9.024   2.677  0.7831 -1.4670  0.9868
32252SOL     OW  797   6.148   8.560   8.432  0.3060  0.6422  0.4749
32252SOL    HW1  798   6.162   8.648   8.466 -2.4796  1.2370  0.3298
32252SOL    HW2  799   6.109   8.574   8.345 -4.0265 -0.4408  1.9681
32253SOL     OW  800   6.547   1.685   4.281 -0.2044  0.0366  0.3724
32253SOL    HW1  801   6.551   1.776   4.250 -1.3674 -0.2850 -0.8500
32253SOL    HW2  802   6.559   1.633   4.202 -0.2532 -0.8660  0.9542
32254SOL     OW  803   1.749   2.442   6.945  0.0260 -0.0748  0.1152
32254SOL    HW1  804   1.709   2.529   6.945  0.7596  0.2823  1.1874
32254SOL    HW2  805   1.680   2.384   6.978 -0.5807  0.0176 -0.9286
32255SOL     OW  806   4.064   5.495  10.201  0.3447 -0.0738  0.4170
32255SOL    HW1  807   4.153   5.498  10.166 -0.3502 -0.0953 -1.4714
32255SOL    HW2  808   4.053   5.579  10.247  1.7246 -0.5973  1.7990
32256SOL     OW  809   9.864   5.801   6.457  0.0865  0.3138 -0.1343
32256SOL    HW1  810   9.837   5.872   6.399 -0.4252  0.3520  0.1451
32256SOL    HW2  811   9.801   5.731   6.440  1.3293 -0.5764 -1.3447
32257SOL     OW  812   9.824   2.066   7.652 -0.2482  0.3749  0.0802
32257SOL    HW1  813   9.854   2.155   7.668  0.4595  0.4214 -1.3524
32257SOL    HW2  814   9.744   2.058   7.704 -0.1141  1.6973  0.5397
32258SOL     OW  815   9.528  10.115   5.908  0.0066 -0.2404 -0.2041
32258SOL    HW1  816   9.573  10.060   5.972 -0.3145 -1.0484 -0.6519
32258SOL    HW2  817   9.597  10.167   5.867  0.1053  0.9907  1.4537
32259SOL     OW  818   1.610   5.701  10.042 -0.3497 -0.2532  0.5920
32259SOL    HW1  819   1.617   5.751   9.961  0.1238  0.8563  1.2914
32259SOL    HW2  820   1.683   5.640  10.039 -0.3018 -0.1802  0.2156
32260SOL     OW  821   1.518   4.069   6.265  0.0247  0.2680  0.0158
32260SOL    HW1  822   1.609   4.039   6.273  0.3444  1.3744  0.7750
32260SOL    HW2  823   1.467   4.000   6.307  0.5072 -0.3695 -0.4243
32261SOL     OW  824   6.509   3.707   2.785  0.4175  0.1239 -0.4697
32261SOL    HW1  825   6.487   3.730   2.875  2.6560 -2.5109  0.9278
32261SOL    HW2  826   6.579   3.767   2.761 -0.9257  1.5589 -0.9391
32262SOL     OW  827   4.652   6.660   1.559  0.0558  0.5277 -0.0835
32262SOL    HW1  828   4.604   6.682   1.480  0.4022  1.0008 -0.1676
32262SOL    HW2  829   4.701   6.740   1.581 -0.4579  0.5904  0.9130
32263SOL     OW  830   3.036   4.655   5.452 -0.0016 -0.3287 -0.0661
32263SOL    HW1  831   3.021   4.578   5.506  0.2347 -0.6372 -0.4310
32263SOL    HW2  832   3.026   4.730   5.511  0.0166 -0.6509  0.3424
32264SOL     OW  833   1.935   4.904   2.482  0.1590  0.2813 -0.6748
32264SOL    HW1  834   1.913   4.826   2.430 -0.5423  0.8788 -1.2993
32264SOL    HW2  835   1.965   4.968   2.417  1.4371  0.3128 -0.0921
32265SOL     OW  836   6.842   4.224   2.003  0.5491 -0.6574  0.0590
32265SOL    HW1  837   6.814   4.204   1.913  0.6674  0.8262 -0.3292
32265SOL    HW2  838   6.779   4.177   2.058  0.8938 -2.1641 -0.7651
32266SOL     OW  839   4.462   7.266   1.678 -0.6987  0.1701 -0.2412
32266SOL    HW1  840   4.431   7.341   1.628 -0.6170  1.4691  1.5663
32266SOL    HW2  841   4.551   7.249   1.646 -1.8649 -1.3534 -2.9935
32267SOL     OW  842   5.652   4.329   5.529 -0.1786  0.5273 -0.5792
32267SOL    HW1  843   5.592   4.268   5.486 -0.2030 -0.0022  0.1870
32267SOL    HW2  844   5.658   4.297   5.619  2.6846 -0.5634 -1.0476
32268SOL     OW  845   6.874   8.174   5.478  0.2278  0.3446 -0.2149
32268SOL    HW1  846   6.964   8.203   5.462  0.2457  0.5932  0.3037
32268SOL    HW2  847   6.854   8.206   5.566 -0.3066  0.1343 -0.2555
32269SOL     OW  848   3.971   7.699   8.160  0.0230 -0.0754  0.0637
32269SOL    HW1  849   3.940   7.608   8.165 -0.3171  0.0921  1.3936
32269SOL    HW2  850   3.992   7.722   8.250  1.7837  0.6125 -0.4702
32270SOL     OW  851   8.748   5.379   9.812 -0.2328  0.3445 -0.5378
32270SOL    HW1  852   8.682   5.377   9.742 -2.6491  1.4272  1.5144
32270SOL    HW2  853   8.749   5.290   9.847 -1.2291  0.4891 -0.1024
32271SOL     OW  854   9.480   7.951   2.576  0.3769  0.5699  0.1463
32271SOL    HW1  855   9.555   7.968   2.519  0.6143  0.3981  0.4046
32271SOL    HW2  856   9.441   7.870   2.541  0.6359  0.3595  0.3437
32272SOL     OW  857   2.799   9.080   0.462  0.0869 -0.2185  1.1408
32272SOL    HW1  858   2.819   8.993   0.499 -1.0275 -1.1902 -0.4130
32272SOL    HW2  859   2.729   9.113   0.519 -0.5791 -1.0472  0.8349
32273SOL     OW  860   5.458   1.666  10.212  0.2494  0.1037 -0.1804
32273SOL    HW1  861   5.398   1.627  10.149 -0.5566  1.0792 -0.0425
32273SOL    HW2  862   5.537   1.612  10.206 -0.1237 -0.3498 -1.3850
32274SOL     OW  863  10.006   3.149   2.098  0.4503  0.9074  0.1991
32274SOL    HW1  864  10.068   3.207   2.144  0.9730 -1.2935  2.4634
32274SOL    HW2  865  10.011   3.066   2.146 -2.4125 -0.1424 -1.1325
32275SOL     OW  866   8.265   2.862   6.838 -0.4767  0.4697  0.2636
32275SOL    HW1  867   8.172   2.865   6.858 -0.5167 -0.1899  0.1832
32275SOL    HW2  868   8.285   2.949   6.803 -0.5172  1.4992  2.6195
32276SOL     OW  869  10.284   4.602   4.062  0.4608  0.0981 -0.0442
32276SOL    HW1  870  10.291   4.568   3.972  0.7708  0.7215 -0.2590
32276SOL    HW2  871  10.240   4.686   4.053 -0.0287 -0.1057  0.4564
32277SOL     OW  872   5.978   6.965   1.191 -0.1667  0.0818  0.8085
32277SOL    HW1  873   5.980   7.050   1.148  0.5774 -1.3222 -2.1768
32277SOL    HW2  874   5.902   6.921   1.155 -1.4875 -0.0416  3.5215
32278SOL     OW  875   4.118   9.742   4.231  0.2985  0.3577  0.9272
32278SOL    HW1  876   4.040   9.744   4.287  0.8261 -0.1751  1.6893
32278SOL    HW2  877   4.100   9.674   4.167 -0.1926  0.7840  0.5988
32279SOL     OW  878   2.016   3.026   2.456  0.1660 -0.3625  0.3361
32279SOL    HW1  879   1.921   3.012   2.445  0.1392 -1.2562  1.4567
32279SOL    HW2  880   2.051   2.938   2.473  1.0500  0.0869  0.9085
32280SOL     OW  881   6.215   0.578   6.969  0.1913  0.2767  0.7164
32280SOL    HW1  882   6.158   0.653   6.984 -0.4389 -0.1213  0.3716
32280SOL    HW2  883   6.214   0.565   6.874  0.3332 -0.1362  0.7678
32281SOL     OW  884   9.953   6.858   8.634  0.3110 -0.1994  0.2813
32281SOL    HW1  885   9.937   6.813   8.551 -1.1020 -0.0917  0.4708
32281SOL    HW2  886  10.048   6.856   8.645  0.3776 -2.1290 -0.2757
32282SOL     OW  887   8.673   9.312  10.023  0.9116 -0.2186 -0.3187
32282SOL    HW1  888   8.727   9.329  10.100  0.7382  1.7360 -0.5838
32282SOL    HW2  889   8.736   9.288   9.955  1.2960  0.4335 -0.1987
32283SOL     OW  890   2.416   4.625   8.363  0.0783 -0.0895  0.0408
32283SOL    HW1  891   2.478   4.554   8.380 -0.0691 -0.2824 -0.2069
32283SOL    HW2  892   2.457   4.677   8.294  0.6316  0.6352  0.9056
32284SOL     OW  893  10.159   4.099   6.342  0.3351 -0.6279  0.3781
32284SOL    HW1  894  10.197   4.175   6.386 -0.2412  0.5436 -1.0928
32284SOL    HW2  895  10.068   4.098   6.370  0.7923 -2.0346  2.0088
32285SOL     OW  896   7.226   0.615   9.653  0.0457 -0.5776  0.1252
32285SOL    HW1  897   7.181   0.586   9.733 -0.5727 -1.5224 -0.5495
32285SOL    HW2  898   7.261   0.535   9.615 -0.0252 -0.1862 -0.7776
32286SOL     OW  899   1.014   6.772   3.569  0.1493 -0.4113 -0.1620
32286SOL    HW1  900   0.975   6.764   3.482  0.3270  1.1318 -0.4195
32286SOL    HW2  901   0.973   6.703   3.620 -1.4027 -0.1233 -0.9610
32287SOL     OW  902   6.007   0.132   7.076  0.3292 -0.0780  0.4894
32287SOL    HW1  903   6.063   0.210   7.079  0.0226  0.1520  0.2965
32287SOL    HW2  904   6.017   0.100   6.986 -1.4423  1.1577 -0.2163
32288SOL     OW  905   7.194   5.203   4.082  0.6562  0.3056  0.0510
32288SOL    HW1  906   7.242   5.240   4.008 -0.4532  1.8522  0.0345
32288SOL    HW2  907   7.147   5.128   4.045  1.0799  0.3084 -0.5114
32289SOL     OW  908   2.270   4.375   0.664 -0.7557 -0.1016 -0.2262
32289SOL    HW1  909   2.209   4.347   0.596 -0.8612 -0.0918 -0.1346
32289SOL    HW2  910   2.288   4.467   0.644  0.1843 -0.4229 -0.9816
32290SOL     OW  911   5.973   9.418   3.009 -0.0846 -0.3214 -0.3554
32290SOL    HW1  912   5.943   9.475   3.080  3.8488  0.9693  0.5672
32290SOL    HW2  913   5.993   9.335   3.052  0.6866 -0.0894 -0.2438
32291SOL     OW  914   2.830   6.013   9.576  0.2103 -0.7545 -0.5997
32291SOL    HW1  915   2.739   6.017   9.548 -0.0705 -0.5509  0.3069
32291SOL    HW2  916   2.871   5.949   9.518 -0.5635 -1.0094 -0.8711
32292SOL     OW  917   1.188   8.193   0.879  0.3450 -0.1210 -0.3752
32292SOL    HW1  918   1.141   8.232   0.805 -0.3378  2.8722  1.4798
32292SOL    HW2  919   1.236   8.265   0.918  0.9798 -1.6675  1.9119
32293SOL     OW  920   1.345   2.876   6.315  0.0974  0.1958 -0.3178
32293SOL    HW1  921   1.313   2.906   6.400  0.6017 -0.4065  0.1011
32293SOL    HW2  922   1.270   2.830   6.276  0.1369 -0.3480  0.2243
32294SOL     OW  923  10.217   9.845   7.491  0.0394  0.1071  0.0846
32294SOL    HW1  924  10.251   9.802   7.569 -0.3666  0.7221  0.6077
32294SOL    HW2  925  10.158   9.781   7.451  1.3379 -0.7615 -0.5267
32295SOL     OW  926   5.357   0.441   7.768 -0.0850 -0.1588  0.3756
32295SOL    HW1  927   5.359   0.536   7.777 -0.1338  0.1880 -2.4249
32295SOL    HW2  928   5.448   0.414   7.781  0.2473  0.5007 -0.4377
32296SOL     OW  929   4.606   5.242   7.453 -0.3787  0.6834 -0.6457
32296SOL    HW1  930   4.518   5.235   7.416  0.2055  0.4186 -2.0440
32296SOL    HW2  931   4.600   5.313   7.518 -1.7727  0.1908 -0.2103
32297SOL     OW  932   7.822   7.503   9.594 -0.5050  0.3345  0.1498
32297SOL    HW1  933   7.874   7.563   9.648 -0.7693  0.1518  0.6128
32297SOL    HW2  934   7.760   7.559   9.548  1.1986  0.7825 -1.7571
32298SOL     OW  935   2.828   7.133   7.100 -0.3686 -0.2961 -0.5410
32298SOL    HW1  936   2.779   7.214   7.092  0.9447  0.4668 -1.2734
32298SOL    HW2  937   2.763   7.064   7.089 -2.1955  0.4637  3.6405
32299SOL     OW  938   3.045  10.261   0.381 -0.1203 -0.3758  0.4085
32299SOL    HW1  939   3.131  10.237   0.417 -0.2807 -0.9814  0.3958
32299SOL    HW2  940   2.983  10.226   0.445 -0.3709 -0.3759  0.1639
32300SOL     OW  941   2.354   9.416   1.045  0.8826 -0.1037 -0.0064
32300SOL    HW1  942   2.422   9.483   1.036  0.7515  0.1226  0.6022
32300SOL    HW2  943   2.381   9.346   0.987  1.0966  0.4211 -0.5550
32301SOL     OW  944   3.599   4.912   3.263  0.0173 -0.0126  0.1987
32301SOL    HW1  945   3.521   4.889   3.315 -1.8657  1.8058 -1.6443
32301SOL    HW2  946   3.601   5.007   3.263  1.0600  0.0064 -1.4629
32302SOL     OW  947   0.078   5.545   9.191 -0.5637 -0.0862  0.1331
32302SOL    HW1  948   0.141   5.576   9.125 -0.6670  2.4941  1.1035
32302SOL    HW2  949   0.006   5.609   9.187 -1.9473 -1.5349  0.7723
32303SOL     OW  950   8.366   1.061   1.148  0.1429 -0.0283 -0.6598
32303SOL    HW1  951   8.411   0.985   1.110 -0.2084 -0.3219 -0.4974
32303SOL    HW2  952   8.299   1.023   1.205  0.0254  0.4069 -0.5045
32304SOL     OW  953   7.880   7.432   1.070 -0.7712  0.2816  0.2905
32304SOL    HW1  954   7.876   7.457   1.162 -0.3081 -0.9857  0.6744
32304SOL    HW2  955   7.972   7.438   1.046 -0.9131  0.7859 -0.1479
32305SOL     OW  956   0.780   2.792   6.343  0.1675 -0.0533 -0.5929
32305SOL    HW1  957   0.699   2.772   6.296 -0.3751 -0.1743  0.3690
32305SOL    HW2  958   0.806   2.878   6.310 -0.4527  0.0676 -0.7802
32306SOL     OW  959   8.900  10.067   2.229  0.2610  0.0055  0.0773
32306SOL    HW1  960   8.842  10.139   2.203 -0.9008 -1.0192 -0.2829
32306SOL    HW2  961   8.867  10.040   2.315 -0.2064 -0.9776 -0.3968
32307SOL     OW  962   5.678   2.168   4.704 -0.5344 -0.3303  0.9233
32307SOL    HW1  963   5.641   2.090   4.663 -0.3734 -0.2561  0.6261
32307SOL    HW2  964   5.725   2.135   4.780  3.8994 -1.3079 -1.8243
32308SOL     OW  965   1.988   3.428   9.046  0.2388 -0.2798 -0.0358
32308SOL    HW1  966   1.921   3.456   8.984 -0.8630 -1.8429  0.3842
32308SOL    HW2  967   1.978   3.487   9.120 -0.5038 -0.3251 -0.0931
32309SOL     OW  968   1.362   0.084   8.130 -0.7760  0.0874 -0.0433
32309SOL    HW1  969   1.337   0.006   8.180  2.1896 -0.3202  1.0116
32309SOL    HW2  970   1.351   0.058   8.039 -1.5044 -0.9342  0.3130
32310SOL     OW  971   9.708   4.220   7.734  0.2652 -0.5114 -0.3189
32310SOL    HW1  972   9.695   4.289   7.669 -0.9442 -0.9007 -0.5041
32310SOL    HW2  973   9.763   4.261   7.801 -0.6174  0.7110 -0.3077
32311SOL     OW  974   7.160   6.771   2.260 -0.2454  0.9244  0.2109
32311SOL    HW1  975   7.228   6.822   2.217 -0.0280  0.7918  0.3968
32311SOL    HW2  976   7.095   6.836   2.288  1.0751  1.3961  2.4452
32312SOL     OW  977   1.392   6.898   4.675  0.3083  0.0161  0.3013
32312SOL    HW1  978   1.444   6.839   4.621 -0.8688  0.7276 -1.7335
32312SOL    HW2  979   1.301   6.880   4.650 -0.2035  1.2606  1.1321
32313SOL     OW  980   7.754   1.382   7.522  0.0152  0.4461  0.2335
32313SOL    HW1  981   7.750   1.446   7.451 -0.6227  0.8692  0.6472
32313SOL    HW2  982   7.846   1.384   7.551 -0.3345  2.3856  1.3312
32314SOL     OW  983   2.387   1.246   8.855  0.4216  0.2392 -0.2717
32314SOL    HW1  984   2.302   1.255   8.898  0.3145  0.0836 -0.4489
32314SOL    HW2  985   2.410   1.335   8.828  0.9662  0.5091  1.0033
32315SOL     OW  986   0.180   0.842   5.262  0.1053  0.6068  0.0466
32315SOL    HW1  987   0.195   0.750   5.283 -1.0111  0.2522 -0.6484
32315SOL    HW2  988   0.206   0.889   5.342 -0.0659 -0.3623  0.6944
32316SOL     OW  989   2.647   1.200   9.219 -0.1918 -0.3115 -0.1458
32316SOL    HW1  990   2.717   1.233   9.276  0.5172 -1.7334 -0.1347
32316SOL    HW2  991   2.693   1.151   9.151 -1.0931  0.5103 -1.3697
32317SOL     OW  992   0.635   2.609   7.063 -0.8556  0.0038 -0.5736
32317SOL    HW1  993   0.604   2.521   7.081 -3.3694  0.3975 -2.5649
32317SOL    HW2  994   0.676   2.637   7.145 -3.9005 -1.4311  1.6166
32318SOL     OW  995   1.741   6.937   5.560  0.2939 -0.0077 -0.6175
32318SOL    HW1  996   1.711   6.888   5.484  1.1140  1.6618 -2.0997
32318SOL    HW2  997   1.748   6.872   5.630 -3.0621 -1.1438 -1.1647
32319SOL     OW  998   7.016   7.292   7.746 -0.3560  0.6347  0.1236
32319SOL    HW1  999   6.986   7.314   7.835  1.8829 -1.2298  1.4576
32319SOL    HW2 1000   7.084   7.356   7.728  0.8186 -0.4019  0.7759
32320SOL     OW 1001   0.331   5.696   3.959 -0.1732 -0.0226  0.2521
32320SOL    HW1 1002   0.353   5.772   3.904  0.4486  0.8119  1.6078
32320SOL    HW2 1003   0.382   5.624   3.921  2.7275  1.2234  1.5248
32321SOL     OW 1004   9.231   6.441   8.801  0.5091 -0.9204 -0.1170
32321SOL    HW1 1005   9.205   6.448   8.893 -0.3283  1.0657 -0.4504
32321SOL    HW2 1006   9.240   6.532   8.771 -0.8250 -1.4466 -2.4057
32322SOL     OW 1007   1.042   2.656   7.281 -0.0310 -0.5859 -0.6509
32322SOL    HW1 1008   1.034   2.562   7.294  0.0630 -0.3730  1.1322
32322SOL    HW2 1009   1.098   2.686   7.352 -2.5747  1.2517  0.7305
32323SOL     OW 1010   4.459   4.760   9.960 -0.5292  0.0054  0.5113
32323SOL    HW1 1011   4.518   4.762  10.035  1.0129 -1.1453 -0.5959
32323SOL    HW2 1012   4.440   4.667   9.946  1.3218 -0.1280 -1.9815
32324SOL     OW 1013   7.572   7.400   7.569 -0.2516 -0.6142  0.0525
32324SOL    HW1 1014   7.582   7.401   7.665  0.5656 -0.0066 -0.0310
32324SOL    HW2 1015   7.498   7.342   7.554 -1.5136  0.6298  1.1649
32325SOL     OW 1016   2.502   5.365   8.392  0.1854 -0.1917 -0.1082
32325SOL    HW1 1017   2.418   5.348   8.348  1.0202 -0.1108 -1.8037
32325SOL    HW2 1018   2.487   5.445   8.442 -0.6397  0.0404 -0.7056
32326SOL     OW 1019   0.630   7.230   1.171 -0.7844 -0.2804  0.7745
32326SOL    HW1 1020   0.702   7.270   1.220  0.0613 -0.3535 -0.3796
32326SOL    HW2 1021   0.643   7.136   1.184  0.1587 -0.3514 -0.5467
32327SOL     OW 1022   2.051   8.217   3.259  0.8048 -0.4275  0.4301
32327SOL    HW1 1023   1.976   8.210   3.317  0.7084 -1.6352  0.1729
32327SOL    HW2 1024   2.127   8.212   3.316  0.7083  0.4689  0.6543
32328SOL     OW 1025   9.391   4.315   4.218 -0.4607 -0.2939 -0.4316
32328SOL    HW1 1026   9.446   4.250   4.175  0.2904  0.2928 -0.3622
32328SOL    HW2 1027   9.312   4.267   4.242  1.1617 -1.9042  2.1016
32329SOL     OW 1028   7.462   6.775   6.017  0.5420 -0.3915 -0.2584
32329SOL    HW1 1029   7.503   6.690   6.004 -0.6449 -1.0683  0.1785
32329SOL    HW2 1030   7.393   6.778   5.951 -0.2377 -0.3316  0.5364
32330SOL     OW 1031   8.557   1.113   4.729 -0.3399 -0.4888 -0.3146
32330SOL    HW1 1032   8.575   1.135   4.820 -0.8231  1.0384 -0.5639
32330SOL    HW2 1033   8.461   1.107   4.725 -0.2731 -1.5041 -0.5218
32331SOL     OW 1034   4.046   5.252   7.625  0.0730 -0.1023 -0.4830
32331SOL    HW1 1035   3.978   5.186   7.620  3.0023 -3.3870 -0.5524
32331SOL    HW2 1036   4.023   5.305   7.702 -1.1140 -2.8360  1.1681
32332SOL     OW 1037   7.611   7.457   4.728  0.1370 -0.0951 -0.2455
32332SOL    HW1 1038   7.558   7.479   4.804  0.0974  0.6288 -0.4732
32332SOL    HW2 1039   7.697   7.494   4.748  0.0108  0.4812 -0.7325
32333SOL     OW 1040   7.107   9.908   3.300 -0.1681 -0.7525 -0.0548
32333SOL    HW1 1041   7.166   9.973   3.339 -0.4430 -0.3886 -0.2390
32333SOL    HW2 1042   7.144   9.891   3.214 -0.2489 -0.6345 -0.1131
32334SOL     OW 1043   8.438   3.128   3.393  0.4551 -0.2193  0.0346
32334SOL    HW1 1044   8.385   3.090   3.463 -0.9461 -1.4056 -1.5551
32334SOL    HW2 1045   8.528   3.119   3.423 -0.1018 -0.6258  1.6903
32335SOL     OW 1046   0.997   7.929   2.529  0.2671 -0.1693 -0.4123
32335SOL    HW1 1047   0.941   7.894   2.460  0.5325  2.3299 -2.0489
32335SOL    HW2 1048   0.954   8.011   2.556  0.1324 -1.0886  2.5213
32336SOL     OW 1049   5.571   8.219   7.117  0.3365  0.0301 -0.0678
32336SOL    HW1 1050   5.482   8.184   7.119  0.0184  0.8329  0.1942
32336SOL    HW2 1051   5.560   8.312   7.097  1.0984  0.2089  0.2990
32337SOL     OW 1052   1.815   6.718   3.613  0.3054 -0.0052 -0.0610
32337SOL    HW1 1053   1.843   6.778   3.544 -0.4018  0.5633  0.1352
32337SOL    HW2 1054   1.764   6.772   3.673 -1.8870 -1.1127 -0.8044
32338SOL     OW 1055   1.799   0.424   7.004 -0.4192 -0.1832  0.0586
32338SOL    HW1 1056   1.814   0.499   7.062  1.7321 -0.8935  0.5031
32338SOL    HW2 1057   1.790   0.349   7.063  0.8345 -0.7679 -0.4574
32339SOL     OW 1058   8.213   8.699   7.920 -0.0573  0.1738  0.0376
32339SOL    HW1 1059   8.203   8.627   7.858  0.8911 -0.3170  0.4274
32339SOL    HW2 1060   8.128   8.704   7.964 -0.3121 -0.3415 -0.3733
32340SOL     OW 1061   4.784   6.326   1.123  0.0409  0.1255  0.0101
32340SOL    HW1 1062   4.721   6.396   1.143  2.2948  2.7549 -1.4620
32340SOL    HW2 1063   4.762   6.300   1.034  0.8794  0.9329 -0.4453
32341SOL     OW 1064   7.683   4.630   3.890  0.1000  0.0179  0.0591
32341SOL    HW1 1065   7.771   4.591   3.889  0.8405  1.5895 -0.9282
32341SOL    HW2 1066   7.694   4.713   3.843 -1.9196  0.2680 -0.0326
32342SOL     OW 1067   3.874   8.659   6.673  0.4457 -0.4658 -0.2630
32342SOL    HW1 1068   3.944   8.706   6.626 -1.1266  1.2935 -0.9564
32342SOL    HW2 1069   3.913   8.635   6.757  2.0888 -0.1333 -0.8970
32343SOL     OW 1070   1.702   2.160   6.837 -0.4608  0.1917 -0.0586
32343SOL    HW1 1071   1.608   2.173   6.829 -0.8809 -2.2881  0.0366
32343SOL    HW2 1072   1.723   2.184   6.927 -1.5297 -1.6943  0.7467
32344SOL     OW 1073   2.948   1.608   7.725  0.2311  0.0081 -0.4602
32344SOL    HW1 1074   2.876   1.656   7.766  0.9901 -0.5104  1.5893
32344SOL    HW2 1075   3.022   1.620   7.785  1.1258 -1.6050 -1.1843
32345SOL     OW 1076   6.841   7.774   7.357  0.6634 -0.8155  0.0253
32345SOL    HW1 1077   6.867   7.842   7.420  0.2021 -0.5288 -0.0917
32345SOL    HW2 1078   6.756   7.803   7.324  0.0295 -1.9072  0.6354
32346SOL     OW 1079   9.337   2.561   1.923 -0.1204 -0.1621 -0.4578
32346SOL    HW1 1080   9.363   2.492   1.984 -0.4412  0.9876  1.0413
32346SOL    HW2 1081   9.265   2.523   1.871 -0.3989 -0.8988  0.4588
32347SOL     OW 1082   3.516   3.167   2.966 -0.0542  0.3718  0.1562
32347SOL    HW1 1083   3.533   3.073   2.957 -0.3427  0.3895 -0.6537
32347SOL    HW2 1084   3.532   3.185   3.058  3.4298  0.2232 -0.2863
32348SOL     OW 1085   5.908   6.998   7.837 -0.1732  0.1556  0.4944
32348SOL    HW1 1086   5.839   7.052   7.800 -1.0553 -0.2632  1.5006
32348SOL    HW2 1087   5.965   7.060   7.883 -1.3308  0.2521  1.8847
32349SOL     OW 1088   5.506   8.039   5.938 -0.5539 -0.3998 -0.2280
32349SOL    HW1 1089   5.545   8.109   5.885 -0.2775 -0.5590 -0.2339
32349SOL    HW2 1090   5.579   7.982   5.960 -0.5902 -0.1120  0.6837
32350SOL     OW 1091   9.702   2.696   0.936  0.7474 -0.5903 -0.9757
32350SOL    HW1 1092   9.718   2.608   0.902  2.6646 -0.5157 -0.3689
32350SOL    HW2 1093   9.789   2.729   0.961  0.3868  2.1900 -2.8423
32351SOL     OW 1094   4.289   8.946   4.422 -0.1074  0.2687  0.1040
32351SOL    HW1 1095   4.365   8.987   4.379 -1.1211 -0.3266 -2.3950
32351SOL    HW2 1096   4.285   8.858   4.385 -0.8353 -0.4323  1.7667
32352SOL     OW 1097   0.104   0.131   5.341  0.3466  0.6032  0.3601
32352SOL    HW1 1098   0.168   0.100   5.405 -0.9499 -0.1448  1.3200
32352SOL    HW2 1099   0.154   0.191   5.285  1.6907  0.6598  1.5660
32353SOL     OW 1100   9.793   5.954   6.231 -0.7123 -0.2194 -0.0254
32353SOL    HW1 1101   9.829   5.982   6.147  0.5156  0.1591  0.6049
32353SOL    HW2 1102   9.714   6.007   6.242 -0.2868  0.5067 -0.4368
32354SOL     OW 1103   5.741   0.285   1.875 -0.2090  0.1158 -0.0299
32354SOL    HW1 1104   5.786   0.300   1.958  0.2031 -0.6669 -0.1093
32354SOL    HW2 1105   5.694   0.367   1.859  0.9214  0.8336  0.2151
32355SOL     OW 1106   9.345   2.892   7.439  0.5201  0.1459 -0.5392
32355SOL    HW1 1107   9.305   2.871   7.355  1.3075  0.4589 -1.0089
32355SOL    HW2 1108   9.410   2.823   7.451 -2.2716 -2.3374  1.7992
32356SOL     OW 1109   5.655   8.246   5.856 -0.1500  0.0879 -0.0367
32356SOL    HW1 1110   5.675   8.337   5.877  0.5455 -0.0193 -0.2143
32356SOL    HW2 1111   5.734   8.198   5.880 -0.9604 -0.6650  1.2571
32357SOL     OW 1112   1.041   5.898   0.892  0.1505  0.2394  0.4839
32357SOL    HW1 1113   0.955   5.888   0.935 -0.1237 -1.1901 -0.3612
32357SOL    HW2 1114   1.032   5.980   0.843 -0.8513 -0.0467  0.1532
32358SOL     OW 1115   1.836   3.705   4.507 -0.3544  0.0429 -0.4692
32358SOL    HW1 1116   1.900   3.638   4.482 -0.9786 -1.0203  0.6665
32358SOL    HW2 1117   1.889   3.781   4.530  0.4724 -0.5386 -0.3934
32359SOL     OW 1118  10.071  10.073   0.800  0.2826  0.5293  0.0427
32359SOL    HW1 1119  10.136  10.076   0.730  1.3404  0.7812  1.0056
32359SOL    HW2 1120   9.990  10.103   0.759 -0.2436 -3.2788 -2.2032
32360SOL     OW 1121   6.181   7.749   2.585  0.1907  0.0304 -0.0223
32360SOL    HW1 1122   6.249   7.814   2.570  1.9019 -1.4024  1.0621
32360SOL    HW2 1123   6.121   7.791   2.647  2.5138 -0.0794  2.5234
32361SOL     OW 1124   1.640   7.475  10.177  0.1116  0.0336 -0.2318
32361SOL    HW1 1125   1.554   7.438  10.155  0.3326 -0.5178 -0.1901
32361SOL    HW2 1126   1.668   7.427  10.254 -0.4408  1.6301  1.0175
32362SOL     OW 1127   7.098   3.372  10.134 -0.0107  0.2042 -0.1502
32362SOL    HW1 1128   7.030   3.419  10.182  0.0363  1.1247 -0.9576
32362SOL    HW2 1129   7.180   3.408  10.169  0.0296  0.4002 -0.4393
32363SOL     OW 1130   4.271   0.245   0.023 -0.6404 -0.3660  0.1815
32363SOL    HW1 1131   4.346   0.292  -0.015 -1.5919 -0.1384 -1.5355
32363SOL    HW2 1132   4.295   0.153   0.017 -0.5674 -0.3047 -0.5404
32364SOL     OW 1133  10.251   2.851   1.943 -0.0270  0.6231 -0.4706
32364SOL    HW1 1134  10.212   2.814   2.022 -0.6103  0.7003 -0.7191
32364SOL    HW2 1135  10.343   2.824   1.946 -0.1045  0.4236  0.1083
32365SOL     OW 1136   0.113   6.986   9.213  0.1923  0.5002  0.0288
32365SOL    HW1 1137   0.122   7.034   9.295  0.2906 -2.3091  1.7586
32365SOL    HW2 1138   0.023   6.956   9.212  0.5401 -0.5631 -0.2498
32366SOL     OW 1139   6.862   0.986   6.479  0.3244  0.4642 -0.0165
32366SOL    HW1 1140   6.829   1.058   6.425  0.4679  1.0315  0.6305
32366SOL    HW2 1141   6.914   0.933   6.419 -0.9376  0.0996 -0.8290
32367SOL     OW 1142   1.221   2.156   2.568  0.1577  0.0282  0.4103
32367SOL    HW1 1143   1.306   2.133   2.606  0.4420 -2.3452 -1.4412
32367SOL    HW2 1144   1.226   2.126   2.477 -1.8527  1.9627 -0.4304
32368SOL     OW 1145   9.882   2.125   7.944  0.1766 -0.3527 -0.2357
32368SOL    HW1 1146   9.794   2.161   7.932  0.1837 -0.4471 -0.5828
32368SOL    HW2 1147   9.879   2.040   7.900  0.3828 -0.4453 -0.0741
32369SOL     OW 1148   0.723   9.642   9.275 -0.0950  0.5698 -0.6379
32369SOL    HW1 1149   0.732   9.562   9.223 -0.5315  0.5203 -0.6395
32369SOL    HW2 1150   0.813   9.667   9.296  0.0302 -0.7549  0.6296
32370SOL     OW 1151   1.525   3.536   2.290  0.4153  0.3830 -0.1354
32370SOL    HW1 1152   1.515   3.491   2.206  1.4216  0.7803 -0.4799
32370SOL    HW2 1153   1.451   3.597   2.294  0.0419 -0.0418 -0.4604
32371SOL     OW 1154   2.845   6.211   8.806 -0.2704 -0.2437  0.2286
32371SOL    HW1 1155   2.892   6.130   8.784 -1.1141 -0.2773 -1.5572
32371SOL    HW2 1156   2.753   6.185   8.808 -0.3617 -0.0756  3.2647
32372SOL     OW 1157   9.742   6.278   2.911 -0.6126  0.6513 -0.3795
32372SOL    HW1 1158   9.686   6.253   2.838 -2.5928  1.1553  0.8939
32372SOL    HW2 1159   9.828   6.294   2.871 -1.2840 -0.3924 -2.3590
32373SOL     OW 1160   8.904   8.669   0.062  0.9011  0.4613  0.1279
32373SOL    HW1 1161   8.901   8.746   0.118 -0.6355  0.0117  0.7121
32373SOL    HW2 1162   8.918   8.596   0.122  0.1344  0.0651 -0.1614
32374SOL     OW 1163  10.138   8.790   0.327 -0.3536 -0.1424  0.1456
32374SOL    HW1 1164  10.108   8.759   0.412  1.4118 -2.6561 -0.0283
32374SOL    HW2 1165  10.227   8.756   0.319 -0.2644  0.4672 -2.4980
32375SOL     OW 1166   1.931   5.478   9.434  0.4135 -0.4871 -0.6554
32375SOL    HW1 1167   1.975   5.454   9.516  1.6454  0.1677 -1.1037
32375SOL    HW2 1168   2.000   5.512   9.379 -0.7640  1.1739 -1.1696
32376SOL     OW 1169   0.252   3.691   0.423  0.1181  0.1056 -0.0876
32376SOL    HW1 1170   0.320   3.710   0.359  0.1559 -1.3300 -0.5115
32376SOL    HW2 1171   0.190   3.763   0.415  1.1848  1.0251 -0.2424
32377SOL     OW 1172   9.689   8.486   5.798  0.9030  0.8810  0.2543
32377SOL    HW1 1173   9.642   8.411   5.761 -0.8345  2.0046  0.0240
32377SOL    HW2 1174   9.737   8.523   5.724 -1.5193  2.3438 -0.7424
32378SOL     OW 1175   3.059   6.007   2.175  0.4143 -0.0442 -0.5042
32378SOL    HW1 1176   3.035   6.054   2.095  2.5314  0.4432 -0.9100
32378SOL    HW2 1177   3.035   6.067   2.246 -0.4513 -0.0119 -0.8113
32379SOL     OW 1178   9.665   0.100   0.429 -0.0431  0.0125 -0.3996
32379SOL    HW1 1179   9.612   0.060   0.498 -0.8389  0.4864 -0.7201
32379SOL    HW2 1180   9.734   0.147   0.476  0.2992 -0.8810  0.0119
32380SOL     OW 1181   6.399  10.019   8.844  0.2074  0.4859  0.0495
32380SOL    HW1 1182   6.392  10.045   8.935 -0.0763  0.8523 -0.0722
32380SOL    HW2 1183   6.420  10.100   8.797  1.5141  0.0860 -0.0728
32381SOL     OW 1184   4.529   7.677   9.447  0.1049  0.2015  0.5877
32381SOL    HW1 1185   4.454   7.731   9.420  0.6883  1.9324  2.1751
32381SOL    HW2 1186   4.595   7.693   9.379 -0.3212  0.1248  0.1458
32382SOL     OW 1187   3.104   5.263   7.604  1.1880 -0.1069  0.8365
32382SOL    HW1 1188   3.161   5.337   7.626  2.7576 -1.2835  0.8614
32382SOL    HW2 1189   3.092   5.269   7.509  0.2137  0.9007  0.9966
32383SOL     OW 1190   4.184   6.615   3.579 -0.4859 -0.3282 -0.0416
32383SOL    HW1 1191   4.146   6.537   3.541  0.0800 -0.8726  0.4876
32383SOL    HW2 1192   4.221   6.586   3.662 -0.5690  0.5695  0.3260
32384SOL     OW 1193   7.176   7.416   0.958  0.2035  0.0029  0.3959
32384SOL    HW1 1194   7.252   7.453   0.914 -0.1944 -1.0725 -1.2835
32384SOL    HW2 1195   7.134   7.491   1.000  2.2342  0.5880  1.4850
32385SOL     OW 1196   8.171   7.240   2.788  0.2090  0.9567 -0.6157
32385SOL    HW1 1197   8.163   7.315   2.730  1.1829  0.1710 -1.8077
32385SOL    HW2 1198   8.236   7.184   2.746 -0.8033 -0.7549  0.0101
32386SOL     OW 1199   2.092   6.557  10.218 -0.0581  0.4345  0.9782
32386SOL    HW1 1200   2.067   6.472  10.255 -0.2836  0.1880  0.2743
32386SOL    HW2 1201   2.032   6.569  10.144  0.6723  0.7165  0.4249
32387SOL     OW 1202   4.738   2.551   6.232 -0.1775 -0.0396 -0.5707
32387SOL    HW1 1203   4.647   2.575   6.246 -0.2266  0.1621 -1.1984
32387SOL    HW2 1204   4.750   2.555   6.137  0.4105 -0.3266 -0.5156
32388SOL     OW 1205   4.828   6.204   7.299 -0.3990 -0.3739  0.0541
32388SOL    HW1 1206   4.756   6.199   7.235 -0.0090  1.2510 -0.5676
32388SOL    HW2 1207   4.807   6.281   7.352  1.3302  0.7226 -0.7611
32389SOL     OW 1208   7.112   0.900   5.507  0.2141  0.1015  0.2956
32389SOL    HW1 1209   7.173   0.868   5.574 -0.3294 -0.7361  0.4048
32389SOL    HW2 1210   7.033   0.924   5.555 -0.0099 -0.0593  0.0165
32390SOL     OW 1211   0.352   4.272   1.864  0.1504 -0.4588 -0.4197
32390SOL    HW1 1212   0.334   4.365   1.865 -0.8251 -0.6328  1.3744
32390SOL    HW2 1213   0.333   4.242   1.953  0.6582 -2.3284 -0.8866
32391SOL     OW 1214   3.641   0.395   2.815 -0.2511  0.0649  0.1836
32391SOL    HW1 1215   3.669   0.315   2.859  0.1801  0.4361  0.6039
32391SOL    HW2 1216   3.714   0.455   2.827  0.7271 -0.3857 -2.6365
32392SOL     OW 1217   8.614   6.776  10.146  0.3007  0.0651 -0.4484
32392SOL    HW1 1218   8.675   6.703  10.132  1.3556  0.9690 -0.6661
32392SOL    HW2 1219   8.544   6.761  10.083  0.1900 -1.0821 -0.0810
32393SOL     OW 1220   5.637   7.206   0.522 -1.4155  0.1049 -0.3038
32393SOL    HW1 1221   5.568   7.223   0.458 -0.7158  0.9751 -0.8528
32393SOL    HW2 1222   5.703   7.157   0.473 -1.3742 -0.2090  0.0601
32394SOL     OW 1223   7.376   7.864   3.074 -0.3110 -0.1641  0.0157
32394SOL    HW1 1224   7.301   7.843   3.018 -0.8835  2.8416 -0.5279
32394SOL    HW2 1225   7.401   7.953   3.049  3.3527 -0.9318  0.3490
32395SOL     OW 1226   6.962   2.694   4.635  0.4941 -0.2279  0.4922
32395SOL    HW1 1227   6.893   2.691   4.701  1.1695 -1.6847  1.1807
32395SOL    HW2 1228   7.037   2.733   4.680  0.9154 -1.0999  0.5689
32396SOL     OW 1229   3.025   1.784   8.342 -0.1432  0.2586  0.1337
32396SOL    HW1 1230   2.963   1.851   8.370 -0.6269 -0.0118 -0.2872
32396SOL    HW2 1231   3.101   1.833   8.309 -0.3750  0.5903  0.0947
32397SOL     OW 1232   4.408   1.498   4.799 -0.3922 -0.6742 -0.0940
32397SOL    HW1 1233   4.357   1.439   4.743  2.1078  0.7530 -4.3303
32397SOL    HW2 1234   4.389   1.586   4.765  1.1465  0.3329  1.4807
32398SOL     OW 1235  10.106   7.993   8.341 -0.9704 -0.3230 -0.0818
32398SOL    HW1 1236  10.129   7.984   8.248  2.1938 -1.2119  0.6474
32398SOL    HW2 1237  10.052   8.072   8.345 -0.5665  0.1572 -2.5897
32399SOL     OW 1238   9.197   7.584   7.532  0.0091 -0.7408 -0.0758
32399SOL    HW1 1239   9.255   7.573   7.457  0.1582 -0.9339  0.0647
32399SOL    HW2 1240   9.109   7.572   7.497 -0.2946  2.9172 -1.0204
32400SOL     OW 1241   0.684   2.825   5.136 -0.5605 -0.0433 -0.7677
32400SOL    HW1 1242   0.709   2.777   5.057  1.6535  1.9759 -1.4027
32400SOL    HW2 1243   0.610   2.879   5.109  0.8729  1.4616 -1.8712
32401SOL     OW 1244   4.317   5.466   1.403 -0.6551 -0.1526 -0.1650
32401SOL    HW1 1245   4.372   5.535   1.365 -0.3808 -0.8935 -1.1432
32401SOL    HW2 1246   4.237   5.512   1.431 -1.0195  0.3826 -1.9721
32402SOL     OW 1247   4.244   7.379   2.590  0.4409  0.1444 -0.1888
32402SOL    HW1 1248   4.313   7.375   2.524  1.4233 -3.1989  0.8410
32402SOL    HW2 1249   4.172   7.328   2.553  0.0622  0.2756  0.3562
32403SOL     OW 1250   6.240   9.749   7.975  0.0004  0.1610 -0.1246
32403SOL    HW1 1251   6.180   9.728   7.903 -2.8421 -1.1634  2.4189
32403SOL    HW2 1252   6.227   9.842   7.990 -1.1872 -0.0312  0.1518
32404SOL     OW 1253   9.979   2.861   2.178 -0.1762 -0.2393  0.2721
32404SOL    HW1 1254  10.069   2.850   2.209  0.6391  0.4490 -1.7165
32404SOL    HW2 1255   9.927   2.859   2.258  1.5733 -0.7455  1.4817
32405SOL     OW 1256   7.662   4.424   5.208  0.2083  0.7722 -0.0960
32405SOL    HW1 1257   7.616   4.447   5.289 -1.5512 -0.7877 -0.5750
32405SOL    HW2 1258   7.750   4.462   5.218  0.2107  0.2088  2.7492
32406SOL     OW 1259   1.719   4.110   1.399  0.6584  0.2137  0.8241
32406SOL    HW1 1260   1.804   4.085   1.361 -0.0980 -0.9543 -0.1981
32406SOL    HW2 1261   1.708   4.050   1.473 -0.0613 -0.9284 -0.1586
32407SOL     OW 1262   0.192   6.193   1.889 -0.5424 -0.7727  0.0037
32407SOL    HW1 1263   0.251   6.207   1.815  0.0369  0.4850  0.6741
32407SOL    HW2 1264   0.118   6.251   1.871  0.8811  1.7916  1.7289
32408SOL     OW 1265   1.958   1.552   8.817 -0.1195 -0.0345 -0.1668
32408SOL    HW1 1266   1.888   1.616   8.823 -1.2128 -1.2054 -0.1012
32408SOL    HW2 1267   1.979   1.529   8.907  0.3451  0.3010 -0.1858
32409SOL     OW 1268   1.271   4.415   6.896  0.5259 -0.9875  0.4809
32409SOL    HW1 1269   1.237   4.504   6.886  0.3331 -1.0363  0.6904
32409SOL    HW2 1270   1.362   4.421   6.867  0.0195 -1.1116 -1.2007
32410SOL     OW 1271   9.843   5.407   8.006  0.0577  0.6189 -0.4458
32410SOL    HW1 1272   9.791   5.486   8.023  0.1133  0.8229 -1.2242
32410SOL    HW2 1273   9.863   5.373   8.094 -1.2034  0.6521 -0.1212
32411SOL     OW 1274   6.161   3.234   9.457 -0.2764  0.0937  0.4426
32411SOL    HW1 1275   6.184   3.240   9.550  0.1193 -2.8792  0.6231
32411SOL    HW2 1276   6.244   3.250   9.411  0.6947 -3.1025  0.8502
32412SOL     OW 1277   3.208   9.310   8.303 -0.3335  0.4033  0.0573
32412SOL    HW1 1278   3.295   9.310   8.264 -0.6365  0.1478 -0.6374
32412SOL    HW2 1279   3.223   9.291   8.395  0.3926  0.9449  0.0640
32413SOL     OW 1280   6.811   0.574   0.897  0.3559  0.0322  0.4788
32413SOL    HW1 1281   6.863   0.654   0.889 -0.9894  0.8220 -0.8761
32413SOL    HW2 1282   6.722   0.605   0.915 -0.4800 -1.0578 -1.4745
32414SOL     OW 1283   2.025   3.502   6.516  0.3420 -0.0918  0.2276
32414SOL    HW1 1284   1.956   3.536   6.458  0.0112 -0.8539  0.1584
32414SOL    HW2 1285   2.069   3.580   6.550  1.0495  0.3681 -1.6501
32415SOL     OW 1286   9.256   8.954   7.768  0.1907 -0.0283 -0.2074
32415SOL    HW1 1287   9.166   8.987   7.766  0.1247 -0.1903  0.1559
32415SOL    HW2 1288   9.288   8.977   7.855  0.4063 -0.2203 -0.2355
32416SOL     OW 1289   6.965   2.865   5.761 -0.2081 -0.3544 -0.0365
32416SOL    HW1 1290   7.024   2.919   5.707  2.7268 -2.7314  0.5165
32416SOL    HW2 1291   6.898   2.834   5.699  0.1089  1.0343 -1.1253
32417SOL     OW 1292   1.710   5.519   3.309  0.7645  0.0817 -0.0010
32417SOL    HW1 1293   1.784   5.579   3.324  1.8694 -0.8686 -1.4524
32417SOL    HW2 1294   1.700   5.474   3.393  0.1590  1.9628  1.0135
32418SOL     OW 1295   0.428   1.915   3.876  0.1863  0.5797  0.2965
32418SOL    HW1 1296   0.453   1.830   3.840  0.9981  0.3584  1.3521
32418SOL    HW2 1297   0.435   1.975   3.801 -0.0533 -0.1998 -0.3721
32419SOL     OW 1298   6.664   6.761   8.303  0.3853 -0.4502  0.8800
32419SOL    HW1 1299   6.594   6.826   8.299  0.6805 -0.1662 -2.0055
32419SOL    HW2 1300   6.638   6.701   8.372 -1.6031  0.8522  1.3343
32420SOL     OW 1301   6.304   6.757   1.862 -0.3877 -0.0437 -0.2204
32420SOL    HW1 1302   6.360   6.679   1.862  0.2969  0.4365 -0.0133
32420SOL    HW2 1303   6.307   6.789   1.952 -2.8286 -1.2632  0.3685
32421SOL     OW 1304   1.964   0.445   9.198 -0.1963  0.2184 -0.2266
32421SOL    HW1 1305   2.015   0.418   9.122 -0.7029 -0.4335 -0.3401
32421SOL    HW2 1306   1.988   0.384   9.267  0.4989  0.9995  0.2436
32422SOL     OW 1307   1.402   7.015   5.921 -0.1765 -0.0898  0.2819
32422SOL    HW1 1308   1.311   7.046   5.922 -0.0877  0.2270 -0.4937
32422SOL    HW2 1309   1.397   6.925   5.952 -0.6370  0.2041  1.1019
32423SOL     OW 1310   4.644   3.855   9.794 -0.0622 -0.1285  0.1573
32423SOL    HW1 1311   4.666   3.801   9.870 -1.9049 -0.6676  0.3734
32423SOL    HW2 1312   4.680   3.807   9.719 -2.6076 -2.4232  0.2063
32424SOL     OW 1313   9.698   5.276   2.208 -0.2174  0.2415  0.5917
32424SOL    HW1 1314   9.623   5.316   2.252  0.9764  0.7158  2.2872
32424SOL    HW2 1315   9.749   5.350   2.175 -1.0561 -0.0949 -1.6948
32425SOL     OW 1316   7.516   8.856   4.085  0.3742 -0.1944  0.0363
32425SOL    HW1 1317   7.517   8.807   4.003 -1.4471  1.1218 -0.8247
32425SOL    HW2 1318   7.459   8.805   4.143 -0.4373  0.1980 -0.4074
32426SOL     OW 1319   8.575   2.471   0.572  0.8271 -0.0350  1.0653
32426SOL    HW1 1320   8.592   2.422   0.491  1.1288  0.9345  0.5291
32426SOL    HW2 1321   8.548   2.404   0.635 -0.2453 -0.7161 -0.0680
32427SOL     OW 1322   6.374   1.196   7.477  0.4746 -0.4472 -0.0990
32427SOL    HW1 1323   6.407   1.107   7.491  1.2058 -0.1898 -0.1660
32427SOL    HW2 1324   6.282   1.191   7.503  1.1566 -0.5697  2.6430
32428SOL     OW 1325   1.668   3.816   8.427  0.0408 -0.6871  0.1882
32428SOL    HW1 1326   1.594   3.756   8.441  0.4955 -0.8501  2.1757
32428SOL    HW2 1327   1.668   3.873   8.504  1.8385 -0.5272  0.1177
32429SOL     OW 1328   1.442   9.215   5.905 -0.1133 -0.0700  0.0657
32429SOL    HW1 1329   1.356   9.173   5.906  0.6251 -1.6844 -0.8212
32429SOL    HW2 1330   1.481   9.190   5.989 -0.7662  1.2731  0.7882
32430SOL     OW 1331   0.260   2.121   8.387  0.6491 -0.4256 -0.0549
32430SOL    HW1 1332   0.326   2.133   8.318  0.0050 -0.2584 -0.6497
32430SOL    HW2 1333   0.177   2.143   8.345 -0.1804 -3.3356 -0.1713
32431SOL     OW 1334   7.156   8.103  10.035  0.1090  0.0442  0.2297
32431SOL    HW1 1335   7.212   8.104   9.957 -0.2072 -0.4400 -0.0085
32431SOL    HW2 1336   7.103   8.024  10.025 -2.7554  1.9581 -1.0571
32432SOL     OW 1337   6.683   7.880   4.356  0.0573  0.4113 -0.8537
32432SOL    HW1 1338   6.717   7.967   4.335  0.7014  0.2864 -0.3780
32432SOL    HW2 1339   6.749   7.843   4.416  1.0212 -1.3263 -2.8582
32433SOL     OW 1340   2.460   1.832   0.039 -0.2472  0.7040  0.0335
32433SOL    HW1 1341   2.496   1.775  -0.030  0.6956  1.1885  0.1016
32433SOL    HW2 1342   2.376   1.862   0.004  0.3992  1.2648 -1.1068
32434SOL     OW 1343   5.836   3.522   2.215  0.3858  0.2323 -0.3520
32434SOL    HW1 1344   5.856   3.610   2.248  4.2564 -1.1257  1.4610
32434SOL    HW2 1345   5.795   3.478   2.289 -0.7033  0.1585 -0.9680
32435SOL     OW 1346   4.702   1.239   4.471 -0.1025  0.1798 -0.2133
32435SOL    HW1 1347   4.692   1.190   4.553 -1.7548 -0.9417 -1.0234
32435SOL    HW2 1348   4.779   1.294   4.485  1.3109 -1.9705  1.1195
32436SOL     OW 1349   0.279   7.138   4.787 -0.3908 -0.0867  0.2607
32436SOL    HW1 1350   0.344   7.075   4.819 -0.6584 -0.7474 -0.4909
32436SOL    HW2 1351   0.195   7.094   4.798 -0.5435 -0.0414 -0.6728
32437SOL     OW 1352   3.184   0.273   0.771 -0.3226  0.5204  0.6849
32437SOL    HW1 1353   3.124   0.202   0.747  2.0677 -1.1494 -0.8876
32437SOL    HW2 1354   3.137   0.353   0.747 -3.3668 -0.3606  3.0580
32438SOL     OW 1355   8.210   8.340   2.509  0.3492  0.6742 -0.6161
32438SOL    HW1 1356   8.298   8.324   2.476 -0.3684  0.5713 -2.5858
32438SOL    HW2 1357   8.179   8.254   2.539  0.4909  0.4799 -1.0247
32439SOL     OW 1358   5.907   2.444   2.227  0.0964 -0.3251 -0.1448
32439SOL    HW1 1359   5.939   2.502   2.296 -0.8692  1.7235 -1.3287
32439SOL    HW2 1360   5.840   2.390   2.270 -0.6713  1.0801  0.4900
32440SOL     OW 1361   6.405   3.692   9.520  0.2178 -0.2737  0.4660
32440SOL    HW1 1362   6.391   3.787   9.528  1.4785 -0.0963  0.7764
32440SOL    HW2 1363   6.416   3.677   9.426 -0.0739 -0.1378  0.4074
32441SOL     OW 1364   0.320   7.410   7.325 -0.0769  0.1394 -0.1842
32441SOL    HW1 1365   0.342   7.342   7.389 -0.3483 -0.7168 -0.9723
32441SOL    HW2 1366   0.235   7.384   7.291  0.2409  0.3616 -1.1764
32442SOL     OW 1367   4.581   0.414   4.941  0.5792  0.0831  0.0251
32442SOL    HW1 1368   4.496   0.444   4.974  0.8700  0.6080  0.3227
32442SOL    HW2 1369   4.642   0.482   4.968  1.0090 -0.0160 -0.6674
32443SOL     OW 1370   7.206   1.819   9.606 -0.1443 -0.2100 -0.3712
32443SOL    HW1 1371   7.160   1.895   9.571 -0.9042 -1.0483 -1.2364
32443SOL    HW2 1372   7.251   1.852   9.684 -0.4192  1.1299 -0.7552
32444SOL     OW 1373   3.480   8.358   0.315  0.1450  0.4113 -0.2158
32444SOL    HW1 1374   3.514   8.446   0.329  0.9003  0.0674  0.1452
32444SOL    HW2 1375   3.557   8.305   0.296 -0.2746 -0.2233 -0.1800
32445SOL     OW 1376   1.529   2.673   3.592  0.0778  0.3848 -0.0105
32445SOL    HW1 1377   1.466   2.640   3.656  0.4434 -1.2446 -0.4477
32445SOL    HW2 1378   1.611   2.628   3.613  0.7058  1.3264 -0.3968
32446SOL     OW 1379   7.676   6.478   3.535 -0.5054  0.3324 -0.1341
32446SOL    HW1 1380   7.620   6.533   3.590 -1.5630 -0.3377 -0.5120
32446SOL    HW2 1381   7.723   6.423   3.597  0.3444  1.4385  0.2308
32447SOL     OW 1382   0.728   3.953   0.399 -0.1226 -0.2931 -0.0971
32447SOL    HW1 1383   0.722   3.858   0.407 -0.0785 -0.3552 -0.7769
32447SOL    HW2 1384   0.818   3.973   0.425 -0.6084 -0.2523  1.6589
32448SOL     OW 1385   7.926   8.812   9.126 -0.1276 -0.0430  0.3372
32448SOL    HW1 1386   7.840   8.778   9.153 -0.2051  0.5962  0.9534
32448SOL    HW2 1387   7.989   8.759   9.174 -0.1649 -0.6866 -0.3187
32449SOL     OW 1388   4.575   0.894   2.799 -0.1790  0.0473  0.2085
32449SOL    HW1 1389   4.628   0.876   2.876  0.6005  0.9689 -0.0849
32449SOL    HW2 1390   4.485   0.894   2.831  0.1084  0.0851  1.0464
32450SOL     OW 1391   3.254   8.933   8.597 -0.1551  0.5620  0.4554
32450SOL    HW1 1392   3.335   8.909   8.642  0.2618 -0.7887 -0.9406
32450SOL    HW2 1393   3.197   8.857   8.609 -0.5588  0.7745 -0.0898
32451SOL     OW 1394   9.203  10.177   9.695 -0.4293  0.2141 -0.3428
32451SOL    HW1 1395   9.139  10.138   9.754  1.0330 -1.8251  0.0136
32451SOL    HW2 1396   9.187  10.271   9.700 -2.6053 -0.1476  0.6006
32452SOL     OW 1397   9.479   5.115   4.767 -0.3371 -0.3963 -0.7127
32452SOL    HW1 1398   9.461   5.205   4.739  0.1493 -0.7481 -2.2625
32452SOL    HW2 1399   9.574   5.108   4.767 -0.2803 -0.3292  1.4700
32453SOL     OW 1400   4.001  10.109   2.018  0.0096 -0.1400 -0.3779
32453SOL    HW1 1401   3.967  10.095   1.929 -0.7761 -0.2043 -0.0755
32453SOL    HW2 1402   3.981  10.028   2.064 -1.2204  0.5441  0.3513
32454SOL     OW 1403   0.181   2.750   1.732 -0.4631  0.6211  0.6977
32454SOL    HW1 1404   0.231   2.668   1.735 -0.4934  0.4668 -1.3120
32454SOL    HW2 1405   0.199   2.792   1.816  3.1884  0.6647  0.0661
32455SOL     OW 1406   3.886   3.487   9.728  0.0706 -0.5758  0.2608
32455SOL    HW1 1407   3.886   3.396   9.758  0.1687 -0.2174  1.4106
32455SOL    HW2 1408   3.794   3.508   9.714 -0.0039 -0.6494  0.6408
32456SOL     OW 1409   5.251   0.515   6.713  0.1711 -0.3015 -0.0395
32456SOL    HW1 1410   5.169   0.472   6.688 -1.0335  1.7331  0.2621
32456SOL    HW2 1411   5.315   0.444   6.712 -1.2525 -1.6777 -1.7823
32457SOL     OW 1412   7.978   2.672   9.606 -0.7971  0.4610  0.2011
32457SOL    HW1 1413   7.985   2.759   9.646  2.0094  0.5538 -0.3477
32457SOL    HW2 1414   8.057   2.663   9.554 -1.6605 -1.9385 -0.8217
32458SOL     OW 1415   1.651   9.812   6.796  0.8368  0.0724  0.1041
32458SOL    HW1 1416   1.643   9.904   6.822  0.4820  0.2378 -0.5499
32458SOL    HW2 1417   1.562   9.778   6.803  0.7884  0.0404 -0.5657
32459SOL     OW 1418   4.906   2.304   1.549 -0.1923 -0.1188 -0.0949
32459SOL    HW1 1419   4.961   2.382   1.537  0.3196 -0.4939 -0.2598
32459SOL    HW2 1420   4.919   2.280   1.641 -0.0210 -0.2434 -0.1496
32460SOL     OW 1421   2.236   5.314   1.705  0.3746 -0.3158 -0.0433
32460SOL    HW1 1422   2.185   5.304   1.786 -0.4574  0.6742 -0.4176
32460SOL    HW2 1423   2.313   5.364   1.732  0.4117 -0.5209  0.2435
32461SOL     OW 1424   0.339   1.607   5.989  0.0978 -0.4213 -0.0152
32461SOL    HW1 1425   0.319   1.516   6.009  0.1607  0.1108  2.9170
32461SOL    HW2 1426   0.263   1.637   5.938  1.0173 -2.5365 -2.9065
32462SOL     OW 1427   7.869   9.937   1.151  0.2237 -0.5122  0.1950
32462SOL    HW1 1428   7.906  10.024   1.134  0.6153 -0.7353 -0.0911
32462SOL    HW2 1429   7.774   9.952   1.153  0.3243  0.1807  1.5797
32463SOL     OW 1430  10.194   1.952   5.545 -0.2197 -0.5816  0.7440
32463SOL    HW1 1431  10.164   2.040   5.522 -0.1062 -0.9862 -1.1326
32463SOL    HW2 1432  10.144   1.929   5.623 -1.0185  0.7425  0.6477
32464SOL     OW 1433   7.267   4.193   9.595 -0.1261  0.1355  0.3167
32464SOL    HW1 1434   7.180   4.201   9.554 -0.0755 -1.3160 -0.1262
32464SOL    HW2 1435   7.264   4.253   9.669 -1.7987 -0.4475  0.7698
32465SOL     OW 1436   6.653   0.370   9.446 -0.0259 -0.0091 -0.1507
32465SOL    HW1 1437   6.580   0.323   9.486 -0.0166  0.0021 -0.1199
32465SOL    HW2 1438   6.644   0.460   9.478  0.6476 -0.2529  0.7685
32466SOL     OW 1439   1.181   1.209   4.714  0.3651 -0.8374  0.1746
32466SOL    HW1 1440   1.088   1.227   4.716 -0.1358 -2.4637 -2.5817
32466SOL    HW2 1441   1.187   1.114   4.725  1.8168 -0.6623  1.2757
32467SOL     OW 1442   0.085   4.505   1.214  0.5033 -0.0954 -0.3738
32467SOL    HW1 1443   0.159   4.480   1.159  1.8015 -0.7028  1.5756
32467SOL    HW2 1444   0.116   4.582   1.262 -0.2921 -0.0944  0.1529
32468SOL     OW 1445   5.201   8.086   3.100 -0.2351 -0.0165  0.1812
32468SOL    HW1 1446   5.192   8.006   3.049 -0.1477  0.3233 -0.3845
32468SOL    HW2 1447   5.221   8.057   3.189  2.9525 -0.5957 -0.6266
32469SOL     OW 1448   4.089   1.398   2.989 -0.2585 -0.2698  0.2194
32469SOL    HW1 1449   4.112   1.491   2.992 -0.8762 -0.1278  1.1061
32469SOL    HW2 1450   4.048   1.387   2.904  1.4962 -0.1671 -0.6861
32470SOL     OW 1451  10.104   7.445   8.195  0.7320 -0.5356  0.4651
32470SOL    HW1 1452  10.138   7.510   8.256 -0.9334  0.8829 -0.0661
32470SOL    HW2 1453  10.013   7.431   8.221  0.1038 -0.2257 -1.3573
32471SOL     OW 1454   6.427   5.985   0.601  0.6051  0.1142  0.1565
32471SOL    HW1 1455   6.484   5.910   0.585  0.1175 -0.7326  2.1289
32471SOL    HW2 1456   6.479   6.043   0.657  0.4624  0.6051 -0.2098
32472SOL     OW 1457   0.988   6.482   6.269  0.4797 -0.4416 -0.3616
32472SOL    HW1 1458   1.017   6.408   6.215 -1.2843 -1.0203 -0.5981
32472SOL    HW2 1459   0.972   6.553   6.207 -1.1327 -0.9724 -0.5963
32473SOL     OW 1460   8.726   2.347   5.264  0.0230 -0.4573  0.0917
32473SOL    HW1 1461   8.723   2.284   5.336 -0.3701 -1.5170 -0.8213
32473SOL    HW2 1462   8.737   2.432   5.306 -1.8072 -0.8632  1.4842
32474SOL     OW 1463   2.695   5.679   0.995 -0.3767  0.1263  0.0412
32474SOL    HW1 1464   2.668   5.602   1.045 -2.2709  0.2259 -0.7636
32474SOL    HW2 1465   2.718   5.645   0.909 -2.2219  0.5332 -0.6471
32475SOL     OW 1466   5.537   9.567   1.757 -0.0756 -0.5070 -0.4152
32475SOL    HW1 1467   5.544   9.472   1.748 -1.3860 -0.6901  0.1907
32475SOL    HW2 1468   5.576   9.586   1.843 -0.4687 -0.5999 -0.2132
32476SOL     OW 1469   9.289   6.132   3.790  0.0834 -0.0040 -0.1078
32476SOL    HW1 1470   9.203   6.171   3.771  1.3439  2.6851 -0.8589
32476SOL    HW2 1471   9.336   6.137   3.707  1.6446  0.5326  0.7663
32477SOL     OW 1472   0.372   3.545   5.530 -0.0675 -0.2849  0.0714
32477SOL    HW1 1473   0.453   3.582   5.494  0.1603 -0.6234  0.2239
32477SOL    HW2 1474   0.402   3.476   5.589 -0.4729 -0.5406 -0.0136
32478SOL     OW 1475   8.489   2.947   0.393  0.3141 -0.5179  0.1297
32478SOL    HW1 1476   8.563   2.921   0.447  0.7332  0.2065 -0.0703
32478SOL    HW2 1477   8.475   3.040   0.414 -2.7183 -1.3939  2.6958
32479SOL     OW 1478   4.977   7.512   0.580  0.7522  0.2882  0.3737
32479SOL    HW1 1479   4.898   7.567   0.579  0.8244  0.3954  0.4770
32479SOL    HW2 1480   5.039   7.559   0.524  1.1907  0.8791  1.3285
32480SOL     OW 1481   7.194   8.905   6.392 -0.0230  0.8473 -0.0419
32480SOL    HW1 1482   7.263   8.859   6.439 -0.6939  0.7933  0.9232
32480SOL    HW2 1483   7.231   8.922   6.305  1.3878  1.3024  0.6164
32481SOL     OW 1484   8.910   2.728   1.562  0.0499 -0.0433 -0.0925
32481SOL    HW1 1485   8.906   2.675   1.641  0.4588  0.9032  0.5728
32481SOL    HW2 1486   8.824   2.719   1.522 -0.1105 -0.6350  0.3856
32482SOL     OW 1487   9.693  10.176   4.628  0.3028  0.4260  0.4235
32482SOL    HW1 1488   9.761  10.201   4.691  0.5897  0.9807 -0.1015
32482SOL    HW2 1489   9.729  10.199   4.543 -0.2287 -0.0020  0.0785
32483SOL     OW 1490   8.283   5.940   4.843  0.0801  0.4646 -0.1581
32483SOL    HW1 1491   8.218   5.988   4.791  0.1687  1.7976  0.9172
32483SOL    HW2 1492   8.233   5.872   4.889 -0.1015 -0.2890 -1.4104
32484SOL     OW 1493   0.806   5.139   1.615 -0.1227  0.8108 -0.1458
32484SOL    HW1 1494   0.747   5.210   1.589 -1.6447 -0.3535  0.0585
32484SOL    HW2 1495   0.800   5.137   1.711  1.0464  1.3165 -0.0343
32485SOL     OW 1496   6.861  10.045   7.149 -0.0356 -0.2572 -0.0077
32485SOL    HW1 1497   6.778  10.034   7.103 -0.6261  0.8674  0.7461
32485SOL    HW2 1498   6.894  10.129   7.117 -0.6240  0.7178  1.8259
32486SOL     OW 1499   0.264   0.874   3.050  0.4251 -0.1953  0.1228
32486SOL    HW1 1500   0.210   0.879   2.971 -1.8199 -1.5732  1.4731
32486SOL    HW2 1501   0.313   0.792   3.041  1.0734  0.2236 -0.3208
32487SOL     OW 1502   2.168   6.264   5.050  0.7666 -0.0960 -0.1449
32487SOL    HW1 1503   2.121   6.244   4.969  0.4854 -0.5015  0.1116
32487SOL    HW2 1504   2.120   6.338   5.087  0.8454  0.0374 -0.3117
32488SOL     OW 1505  10.102   3.709   6.673  0.3354 -0.2235 -0.0927
32488SOL    HW1 1506  10.033   3.700   6.608  0.7983  1.3526 -0.8450
32488SOL    HW2 1507  10.118   3.803   6.678  1.4278 -0.4451  1.1369
32489SOL     OW 1508   2.668   0.510   0.704 -0.0101  0.3079 -0.8841
32489SOL    HW1 1509   2.628   0.540   0.623 -1.4848  1.0220  0.0790
32489SOL    HW2 1510   2.671   0.587   0.760  1.4271 -0.0610 -0.3960
32490SOL     OW 1511   3.945   2.601   9.382 -0.1926  0.2412 -0.1548
32490SOL    HW1 1512   3.908   2.515   9.401  1.2594 -0.4408 -0.2634
32490SOL    HW2 1513   4.021   2.608   9.440 -0.4120  1.5490  0.0058
32491SOL     OW 1514   2.385   0.171   1.388 -0.2357  0.1896  0.1208
32491SOL    HW1 1515   2.443   0.098   1.369  1.0474  0.8725  1.2287
32491SOL    HW2 1516   2.298   0.132   1.390  0.0907 -0.7788 -2.0060
32492SOL     OW 1517   5.884   0.403   7.330 -0.3047 -0.1449  0.9647
32492SOL    HW1 1518   5.818   0.457   7.374 -1.4655  0.9520 -1.8745
32492SOL    HW2 1519   5.835   0.332   7.289  0.3272  0.2142 -0.5035
32493SOL     OW 1520   5.892   6.561   6.611 -0.5886  0.9266  0.3123
32493SOL    HW1 1521   5.913   6.469   6.629  0.2876  1.0331 -0.1138
32493SOL    HW2 1522   5.963   6.611   6.652 -1.2866  1.4442  0.9076
32494SOL     OW 1523   6.166   3.720   2.213  0.2777 -0.1197  0.0445
32494SOL    HW1 1524   6.246   3.709   2.265 -1.6527 -1.9073  2.9222
32494SOL    HW2 1525   6.143   3.631   2.187 -0.2354  0.4914 -1.7229
32495SOL     OW 1526   9.327   7.949   5.791  0.3604 -0.1159 -0.2755
32495SOL    HW1 1527   9.291   8.037   5.804 -0.1448 -0.2563 -0.6957
32495SOL    HW2 1528   9.398   7.942   5.855  1.3072  1.0929 -1.1391
32496SOL     OW 1529   1.618   2.779   8.015  0.0353 -0.0814 -0.2442
32496SOL    HW1 1530   1.611   2.850   7.951 -1.0190 -0.5655 -0.6866
32496SOL    HW2 1531   1.547   2.797   8.078  1.0180  0.3550  0.7675
32497SOL     OW 1532   1.623   8.068   3.181 -0.2261  0.3457 -0.3970
32497SOL    HW1 1533   1.663   8.001   3.236  1.8898  0.7909 -1.2803
32497SOL    HW2 1534   1.586   8.130   3.243  0.6596  0.0032  0.5148
32498SOL     OW 1535   0.749   0.363   1.855  0.1457 -0.1262 -0.3134
32498SOL    HW1 1536   0.712   0.347   1.768 -0.7275  0.9057 -0.1474
32498SOL    HW2 1537   0.828   0.413   1.839 -0.0840  0.1751 -0.5066
32499SOL     OW 1538   5.307   0.881   3.454  0.5596 -0.4595 -0.7562
32499SOL    HW1 1539   5.399   0.855   3.462  0.2014 -1.4287  0.4022
32499SOL    HW2 1540   5.301   0.963   3.502  1.2182  0.7304 -2.5676
32500SOL     OW 1541   0.697   7.643   7.154 -0.0463  0.1852 -0.1344
32500SOL    HW1 1542   0.678   7.643   7.061  3.2952  0.9100 -0.9627
32500SOL    HW2 1543   0.717   7.735   7.174  1.5112 -0.3037  0.7140
32501SOL     OW 1544   6.916   5.646   6.085  0.5150  0.6751  0.0023
32501SOL    HW1 1545   7.001   5.605   6.099 -0.8255 -1.7375  1.6395
32501SOL    HW2 1546   6.877   5.651   6.172 -1.1357  1.5177 -0.7477
32502SOL     OW 1547   9.478   9.651   1.564 -0.3410 -0.1966  0.0699
32502SOL    HW1 1548   9.546   9.620   1.623 -0.0722 -1.8492 -1.0274
32502SOL    HW2 1549   9.491   9.745   1.558  1.3361 -0.3823  0.5008
32503SOL     OW 1550   5.866   1.113   4.186 -0.4360  0.0698 -0.2802
32503SOL    HW1 1551   5.794   1.051   4.178  0.1949 -0.7118  0.0266
32503SOL    HW2 1552   5.823   1.198   4.198 -1.3024 -0.4149  0.1467
32504SOL     OW 1553   7.284   6.384   8.171 -0.0038  0.3129  0.0858
32504SOL    HW1 1554   7.241   6.466   8.147 -0.4111  0.4987  1.3649
32504SOL    HW2 1555   7.354   6.411   8.231 -0.7759 -0.3467  1.3135
32505SOL     OW 1556   1.120   1.888   8.777  0.0521  0.1749 -0.8128
32505SOL    HW1 1557   1.194   1.836   8.747  1.2826  2.1974 -1.5044
32505SOL    HW2 1558   1.095   1.849   8.861  1.3292 -1.0960 -0.9891
32506SOL     OW 1559   9.418   8.401   3.743  0.3176 -0.0765  0.4329
32506SOL    HW1 1560   9.387   8.315   3.715 -1.9321  0.5425  0.8731
32506SOL    HW2 1561   9.472   8.383   3.820  0.0110 -1.0963  0.4260
32507SOL     OW 1562   0.416   6.356   0.275  0.3195 -0.2700  0.4125
32507SOL    HW1 1563   0.412   6.391   0.186 -0.3458 -0.2301  0.4546
32507SOL    HW2 1564   0.325   6.346   0.301  0.4882 -1.8296  0.4874
32508SOL     OW 1565   9.130   6.162   9.566 -0.0162 -0.0949 -0.1692
32508SOL    HW1 1566   9.150   6.175   9.658  1.1291 -2.7302  0.0570
32508SOL    HW2 1567   9.214   6.169   9.521  0.6902 -4.8103 -0.0803
32509SOL     OW 1568   5.147   3.895   6.557 -0.4161  0.1660  0.3224
32509SOL    HW1 1569   5.156   3.919   6.649 -2.5182 -0.1630  0.6748
32509SOL    HW2 1570   5.216   3.944   6.512  0.6089  0.3757  2.0424
32510SOL     OW 1571   4.060   1.960   4.264 -0.4671 -0.7972  0.7297
32510SOL    HW1 1572   4.033   1.868   4.266 -2.0387 -0.3452  1.1914
32510SOL    HW2 1573   3.998   2.005   4.322  0.0986  0.6052  0.2829
32511SOL     OW 1574   7.414   3.850   1.745  0.3828  1.1374  0.4380
32511SOL    HW1 1575   7.329   3.824   1.781 -0.3487  1.5199 -0.9578
32511SOL    HW2 1576   7.393   3.907   1.671  1.8115 -0.0196 -0.9232
32512SOL     OW 1577   9.799   1.843   7.896 -0.1806 -0.5238  0.0831
32512SOL    HW1 1578   9.721   1.878   7.939 -0.8978 -2.2953  0.3132
32512SOL    HW2 1579   9.841   1.790   7.963 -0.1156 -1.5396 -0.7347
32513SOL     OW 1580   6.001   6.754   3.234  0.2289 -0.3904  0.3644
32513SOL    HW1 1581   6.079   6.811   3.236  1.3647 -1.8547 -0.0128
32513SOL    HW2 1582   6.035   6.667   3.255 -1.4049 -0.9917  0.6140
32514SOL     OW 1583   7.913   6.196   9.647 -0.3306  0.0466  0.2304
32514SOL    HW1 1584   7.849   6.266   9.657  1.2128  1.5650  0.0127
32514SOL    HW2 1585   7.971   6.226   9.577  1.5609 -0.4822  1.4815
32515SOL     OW 1586   8.296   7.986   0.490  0.0553  0.0989 -0.6025
32515SOL    HW1 1587   8.368   7.990   0.553  0.1930 -0.4832 -0.7133
32515SOL    HW2 1588   8.237   7.919   0.526 -0.1519  0.1753 -0.7967
32516SOL     OW 1589   0.763   2.720   7.291  0.4019  0.6847  0.1670
32516SOL    HW1 1590   0.766   2.757   7.379 -0.8773  1.7237 -0.1974
32516SOL    HW2 1591   0.854   2.712   7.265  0.8077  0.2584  1.6198
32517SOL     OW 1592   4.716   9.939   9.519  0.4716  0.5233 -0.2069
32517SOL    HW1 1593   4.651   9.869   9.511 -1.7552  2.3264  0.9431
32517SOL    HW2 1594   4.758   9.943   9.433 -1.6873 -0.0645 -1.3748
32518SOL     OW 1595  10.040   7.960   6.436  0.0494 -0.4354 -0.0303
32518SOL    HW1 1596  10.111   7.985   6.376  0.0175 -0.5213 -0.1043
32518SOL    HW2 1597   9.990   7.895   6.387 -0.3944  0.0162 -0.1803
32519SOL     OW 1598   0.831   2.354   6.407  0.0084  0.3545  0.0338
32519SOL    HW1 1599   0.752   2.402   6.429 -0.9692 -1.4299  0.6111
32519SOL    HW2 1600   0.813   2.315   6.322  0.3086  0.0311  0.1137
32520SOL     OW 1601   0.479   1.564   5.566  0.5241 -0.5966  0.0745
32520SOL    HW1 1602   0.411   1.626   5.594 -0.1320 -0.3892 -1.7935
32520SOL    HW2 1603   0.484   1.500   5.637  1.3396  1.6102  2.1642
32521SOL     OW 1604   7.852   7.379   1.940 -0.1086 -0.0524 -0.2867
32521SOL    HW1 1605   7.883   7.401   2.028  1.4724 -0.8780 -0.6122
32521SOL    HW2 1606   7.801   7.456   1.914 -0.5733  0.2331  1.3137
32522SOL     OW 1607   4.574   3.988   1.141  0.7856 -0.6836 -0.6993
32522SOL    HW1 1608   4.500   4.042   1.115 -0.4077 -1.5360  0.8267
32522SOL    HW2 1609   4.585   3.926   1.069  1.2755  0.6539 -1.8140
32523SOL     OW 1610   6.477   6.236   8.596 -0.1383 -0.2727  0.1406
32523SOL    HW1 1611   6.430   6.267   8.672 -1.0192 -0.4018 -0.3414
32523SOL    HW2 1612   6.449   6.145   8.585 -0.6033 -0.0341 -0.7726
32524SOL     OW 1613   2.205   7.895   2.260 -0.0494  0.3221 -0.1611
32524SOL    HW1 1614   2.173   7.984   2.274  0.1254 -0.0010  2.9287
32524SOL    HW2 1615   2.126   7.841   2.258 -0.0594  0.3402 -0.3139
32525SOL     OW 1616   4.822   0.081   9.179  0.2167  0.2614 -0.1168
32525SOL    HW1 1617   4.900   0.042   9.140 -1.4260 -1.4789 -1.8823
32525SOL    HW2 1618   4.783   0.132   9.108 -1.0843 -0.2273  0.2161
32526SOL     OW 1619   1.785   5.173   1.091 -0.2101 -0.0569 -0.1363
32526SOL    HW1 1620   1.784   5.226   1.012  0.2061  1.6959  0.9903
32526SOL    HW2 1621   1.868   5.195   1.134 -0.3740 -1.0695  0.7364
32527SOL     OW 1622   5.400   1.845   1.953  0.7710 -0.5724 -0.5119
32527SOL    HW1 1623   5.369   1.861   1.864 -1.6076  0.6968  0.4680
32527SOL    HW2 1624   5.329   1.797   1.996  1.3921 -0.1910  1.0419
32528SOL     OW 1625   6.348   9.856   8.286 -0.2711 -0.0211  0.2944
32528SOL    HW1 1626   6.269   9.801   8.286 -0.2107 -0.1105  0.6082
32528SOL    HW2 1627   6.359   9.881   8.195 -1.3913  1.0431  0.4198
32529SOL     OW 1628   0.507   8.731   0.717  0.0014 -0.0896 -0.3600
32529SOL    HW1 1629   0.507   8.665   0.786 -3.0450 -0.7791 -0.9049
32529SOL    HW2 1630   0.534   8.683   0.639 -2.5754 -0.8899 -0.8335
32530SOL     OW 1631   7.075   9.952   2.648 -0.7385  0.1923  0.1944
32530SOL    HW1 1632   7.131  10.015   2.603 -0.5899 -0.6827 -0.8915
32530SOL    HW2 1633   7.104   9.955   2.740 -0.0343  0.9353 -0.0442
32531SOL     OW 1634   5.648   2.830   6.849  0.6047 -0.2607 -0.6503
32531SOL    HW1 1635   5.685   2.742   6.848 -0.1738 -0.6339  0.4264
32531SOL    HW2 1636   5.614   2.844   6.761  2.0115 -0.4536 -1.2434
32532SOL     OW 1637   8.739   8.226   1.686  0.6804 -1.0369 -0.5151
32532SOL    HW1 1638   8.808   8.218   1.753  2.0686 -0.8359 -1.8564
32532SOL    HW2 1639   8.772   8.174   1.613 -1.4182 -2.3487 -0.6234
32533SOL     OW 1640   6.529   9.470   4.079 -0.5592  0.3306 -0.0632
32533SOL    HW1 1641   6.462   9.515   4.028 -0.7575  1.4016  1.0922
32533SOL    HW2 1642   6.481   9.409   4.134 -0.4229 -0.1645 -0.4843
32534SOL     OW 1643   6.560   9.063   9.771 -0.2720 -0.2958  0.4260
32534SOL    HW1 1644   6.558   8.972   9.743  1.3133 -0.3851  0.5496
32534SOL    HW2 1645   6.521   9.063   9.858 -2.2839 -0.4913 -0.4006
32535SOL     OW 1646   0.158   9.014   8.213 -0.0957  0.4229  0.1608
32535SOL    HW1 1647   0.201   9.023   8.299 -0.6914 -0.3846  0.5587
32535SOL    HW2 1648   0.069   8.986   8.234 -0.0184 -0.5524 -0.7489
32536SOL     OW 1649   6.626   6.239   6.879  0.1851  0.9615 -0.0495
32536SOL    HW1 1650   6.575   6.319   6.874 -0.3156  0.6627  0.1625
32536SOL    HW2 1651   6.611   6.196   6.795  1.0942  1.4647 -0.4772
32537SOL     OW 1652   0.938   2.344   5.958 -0.0299 -0.1298  0.0880
32537SOL    HW1 1653   1.024   2.312   5.983 -0.8228 -0.3215  2.9863
32537SOL    HW2 1654   0.898   2.270   5.912  0.6343 -0.8113  0.5731
32538SOL     OW 1655   6.317   7.804   5.914 -0.6328 -0.0948  0.0379
32538SOL    HW1 1656   6.334   7.867   5.984  0.5711  1.2945 -1.4248
32538SOL    HW2 1657   6.226   7.779   5.925 -0.4880  0.1168  2.0490
32539SOL     OW 1658   9.352   7.489   4.256  0.3073  0.1134 -0.6131
32539SOL    HW1 1659   9.311   7.410   4.291  0.7494  0.3832  0.5343
32539SOL    HW2 1660   9.280   7.536   4.214  0.0527 -0.9170 -1.3759
32540SOL     OW 1661   0.577   9.364   1.360 -0.3563 -0.0472 -0.2771
32540SOL    HW1 1662   0.502   9.396   1.310 -0.1800  1.0922  0.1668
32540SOL    HW2 1663   0.613   9.442   1.402 -0.2008 -0.8974  1.2371
32541SOL     OW 1664   9.665   9.245   1.248 -0.0941  0.6732  0.1659
32541SOL    HW1 1665   9.748   9.210   1.281  1.1793  2.3446 -1.1126
32541SOL    HW2 1666   9.653   9.327   1.296 -0.7615  0.6712  0.0037
32542SOL     OW 1667   5.556   2.872   8.750 -0.6183  0.8973 -0.0208
32542SOL    HW1 1668   5.565   2.860   8.655  1.2451 -1.1762  0.3319
32542SOL    HW2 1669   5.630   2.927   8.774  2.3448 -2.9840  0.7935
32543SOL     OW 1670   5.652   6.260   5.485 -0.0944  0.3623  0.1233
32543SOL    HW1 1671   5.653   6.344   5.531  0.9239  0.7138 -0.5197
32543SOL    HW2 1672   5.694   6.198   5.546  1.0321  0.7725 -0.2248
32544SOL     OW 1673   6.751   7.022   8.388 -0.0364 -0.5508 -0.6244
32544SOL    HW1 1674   6.831   7.021   8.441  0.5315  0.4985 -1.4384
32544SOL    HW2 1675   6.730   6.929   8.375 -0.2335 -0.8476  1.4690
32545SOL     OW 1676   3.556   7.577   9.658  0.1232  0.3472 -0.2076
32545SOL    HW1 1677   3.557   7.592   9.752 -0.9940  2.3260 -0.4423
32545SOL    HW2 1678   3.578   7.485   9.647  0.4898  0.1381  1.9609
32546SOL     OW 1679   8.535   9.265   6.831 -0.3945  0.3085  0.4756
32546SOL    HW1 1680   8.628   9.286   6.825 -1.1057  4.0490  0.2680
32546SOL    HW2 1681   8.516   9.265   6.925  0.1552 -2.8736  0.6897
32547SOL     OW 1682   1.118   5.549   6.365  0.2754 -0.1462 -0.5175
32547SOL    HW1 1683   1.029   5.516   6.374  0.0382  1.0072  2.9502
32547SOL    HW2 1684   1.173   5.480   6.403  0.4870  0.5113  0.3953
32548SOL     OW 1685   3.846   9.316   1.837  0.5550 -0.1628 -0.0235
32548SOL    HW1 1686   3.880   9.228   1.848 -0.4098 -0.6034 -0.3799
32548SOL    HW2 1687   3.885   9.367   1.908  1.9440 -0.6167 -0.4400
32549SOL     OW 1688   3.513   4.363   8.380  0.7312 -0.0202 -0.4332
32549SOL    HW1 1689   3.465   4.294   8.335  2.4709 -1.7903  0.2954
32549SOL    HW2 1690   3.465   4.376   8.462 -0.6365  1.0001 -1.3377
32550SOL     OW 1691   6.442   6.256   5.517  0.2716  0.1827 -0.0539
32550SOL    HW1 1692   6.468   6.283   5.429 -0.4477 -0.7172 -0.5606
32550SOL    HW2 1693   6.410   6.166   5.506  1.0016 -0.2763  1.2784
32551SOL     OW 1694   1.038   6.258   1.890  0.1172 -0.0906  0.0472
32551SOL    HW1 1695   1.017   6.167   1.912 -0.6037  0.1989  0.6322
32551SOL    HW2 1696   1.035   6.304   1.974 -0.4889  0.6499 -0.3670
32552SOL     OW 1697   9.523   1.444   1.732  0.0053  0.1618 -0.7692
32552SOL    HW1 1698   9.485   1.532   1.728  0.4852  0.3440 -1.7174
32552SOL    HW2 1699   9.457   1.391   1.776 -0.1638  1.0572  0.0857
32553SOL     OW 1700   2.294   3.929   4.555  0.5517 -0.2598  0.0687
32553SOL    HW1 1701   2.388   3.920   4.537  0.7936  0.3388  0.8985
32553SOL    HW2 1702   2.285   3.901   4.646  0.3335  1.7681  0.7283
32554SOL     OW 1703   1.126   9.932   6.090 -0.3025 -0.0318 -0.0603
32554SOL    HW1 1704   1.133   9.990   6.166 -3.1214 -1.4119  1.4440
32554SOL    HW2 1705   1.212   9.935   6.049  1.3306  0.8931  3.1106
32555SOL     OW 1706   3.039   9.379   4.948 -0.5287 -0.2555 -0.6809
32555SOL    HW1 1707   3.001   9.423   5.024 -2.1900 -1.0496 -1.0018
32555SOL    HW2 1708   3.067   9.294   4.981 -1.5672 -0.7373 -0.9919
32556SOL     OW 1709   3.199   8.516   8.383  0.0083  1.2508 -0.7196
32556SOL    HW1 1710   3.161   8.594   8.343 -0.9670  1.6855  0.9881
32556SOL    HW2 1711   3.285   8.545   8.415 -0.9387  2.0893  1.2207
32557SOL     OW 1712   5.847   2.346   8.614  0.4469  0.8734 -0.2851
32557SOL    HW1 1713   5.808   2.260   8.631  0.1719  0.8396 -1.0500
32557SOL    HW2 1714   5.912   2.357   8.683 -0.3289  0.5607  0.5066
32558SOL     OW 1715   8.786   1.964   3.758 -0.2040 -0.0480 -0.3107
32558SOL    HW1 1716   8.766   2.048   3.717  1.3669  1.2229  1.3969
32558SOL    HW2 1717   8.853   1.925   3.702 -1.2384 -0.4231 -1.3456
32559SOL     OW 1718   2.072   7.661   9.699  0.1269 -0.6134  0.3514
32559SOL    HW1 1719   2.082   7.570   9.670  1.7557  0.0397 -1.3648
32559SOL    HW2 1720   2.110   7.662   9.787  2.0315 -1.2329 -0.4062
32560SOL     OW 1721   0.720   3.216   7.927  0.1133 -0.3154  0.3551
32560SOL    HW1 1722   0.675   3.251   8.004  0.2147  0.2893  0.1423
32560SOL    HW2 1723   0.650   3.200   7.864  0.1803  0.5660  0.0465
32561SOL     OW 1724   2.236   0.239   2.981  0.2381  0.4894 -0.2927
32561SOL    HW1 1725   2.316   0.200   3.016 -0.6237 -0.1278  1.0658
32561SOL    HW2 1726   2.267   0.311   2.926  1.7189  0.3434  0.3019
32562SOL     OW 1727   3.571   9.808   2.155  0.4574 -0.2184 -0.4713
32562SOL    HW1 1728   3.504   9.767   2.101 -0.5981  0.7474  0.0675
32562SOL    HW2 1729   3.568   9.900   2.132  0.7822  0.0229  0.4035
32563SOL     OW 1730   1.325   9.119   9.514 -0.9301  0.3405  0.3517
32563SOL    HW1 1731   1.339   9.203   9.469 -2.4111  1.1427  1.2978
32563SOL    HW2 1732   1.303   9.143   9.603  2.0796 -1.2313  1.6713
32564SOL     OW 1733   1.087   5.308   7.773 -0.2808  0.0342 -0.5158
32564SOL    HW1 1734   0.999   5.299   7.738 -0.9339 -0.5244  1.1515
32564SOL    HW2 1735   1.096   5.401   7.793 -0.7216  0.0058 -0.1666
32565SOL     OW 1736   3.808   2.398   8.999  0.1810 -0.0648  0.5440
32565SOL    HW1 1737   3.832   2.306   8.999 -0.1170 -0.1439  0.0230
32565SOL    HW2 1738   3.725   2.402   8.951  1.1555  0.7176 -1.1907
32566SOL     OW 1739   3.734   6.949   9.391 -0.1757 -0.4022 -0.0346
32566SOL    HW1 1740   3.741   6.857   9.364 -0.6814 -0.3415 -0.3753
32566SOL    HW2 1741   3.809   6.992   9.349  0.0983 -0.6673  0.1769
32567SOL     OW 1742   9.046   0.558   1.985  0.5179  0.0094 -0.6093
32567SOL    HW1 1743   8.997   0.603   2.053  0.6681 -0.2641 -0.3148
32567SOL    HW2 1744   8.979   0.528   1.923  0.2127 -1.0497  0.1933
32568SOL     OW 1745   1.716   0.185   7.990  0.2625  0.0511 -0.0076
32568SOL    HW1 1746   1.681   0.187   8.079  0.3617  0.1568  0.0283
32568SOL    HW2 1747   1.795   0.132   7.996 -1.4775 -2.9165 -0.6434
32569SOL     OW 1748   8.571   7.467   8.661 -0.3872  0.3894 -0.0133
32569SOL    HW1 1749   8.572   7.521   8.582 -1.7743 -2.0482 -1.8051
32569SOL    HW2 1750   8.615   7.386   8.636  0.1835 -0.0132  2.0973
32570SOL     OW 1751   8.202   9.684   4.422  0.0559 -0.4863 -1.1148
32570SOL    HW1 1752   8.220   9.767   4.468  0.7899 -1.1692 -0.1139
32570SOL    HW2 1753   8.177   9.711   4.334  2.4214  0.7611 -1.5032
32571SOL     OW 1754   3.733   6.519   1.030 -0.1206 -0.2418 -0.4628
32571SOL    HW1 1755   3.697   6.584   1.091  0.4729  0.7632 -1.1599
32571SOL    HW2 1756   3.802   6.475   1.081  1.4604  1.6674 -0.8262
32572SOL     OW 1757   1.250   0.174   6.000  0.3538 -0.2159 -0.0552
32572SOL    HW1 1758   1.323   0.171   5.938  1.4711 -4.0069  1.1822
32572SOL    HW2 1759   1.283   0.229   6.072  1.4595 -0.7667 -0.1210
32573SOL     OW 1760   5.257   8.318   7.349 -0.5571 -0.5449 -0.3917
32573SOL    HW1 1761   5.253   8.255   7.277  1.2743  1.0925 -2.0664
32573SOL    HW2 1762   5.310   8.275   7.415 -0.3757 -1.2465 -0.9744
32574SOL     OW 1763   3.497   9.494   1.384 -0.3134 -0.1050 -0.1135
32574SOL    HW1 1764   3.453   9.411   1.406  0.5445 -1.0522 -1.7069
32574SOL    HW2 1765   3.590   9.475   1.394 -0.0722  0.4434 -1.1549
32575SOL     OW 1766   9.690   6.561   1.555  0.0648  0.3470  1.0062
32575SOL    HW1 1767   9.714   6.596   1.640 -0.3764 -1.3362  1.8671
32575SOL    HW2 1768   9.736   6.477   1.549 -0.1078  0.3168 -0.3126
32576SOL     OW 1769   6.878   7.729   0.872 -0.1783 -0.1311 -0.5064
32576SOL    HW1 1770   6.968   7.757   0.887  0.3548 -1.3261 -1.3410
32576SOL    HW2 1771   6.870   7.646   0.921 -0.9321  0.1261 -0.1714
32577SOL     OW 1772   3.661   9.676   6.616 -0.1637  0.0320 -0.2021
32577SOL    HW1 1773   3.602   9.722   6.557  0.2117  0.9333  0.1025
32577SOL    HW2 1774   3.610   9.660   6.695 -0.1690  0.3387 -0.1408
32578SOL     OW 1775   7.549   5.343   9.366  0.1639  0.2706 -0.4685
32578SOL    HW1 1776   7.522   5.434   9.376  1.8414  0.6171  1.5738
32578SOL    HW2 1777   7.505   5.296   9.436 -0.0599 -0.3436 -1.0121
32579SOL     OW 1778   4.502   2.675   2.903 -0.5241  0.3521  0.3887
32579SOL    HW1 1779   4.466   2.672   2.814 -1.2242  0.1935  0.6660
32579SOL    HW2 1780   4.461   2.752   2.942 -0.2780  0.3769  0.5980
32580SOL     OW 1781   8.313   3.086   7.808  0.2719  0.2919  0.1218
32580SOL    HW1 1782   8.312   2.991   7.802 -0.1001  0.3120 -0.1818
32580SOL    HW2 1783   8.391   3.106   7.861  0.4504 -0.1686  0.0392
32581SOL     OW 1784   3.126   5.341   9.675 -0.3611  0.2066 -0.3657
32581SOL    HW1 1785   3.064   5.360   9.745 -1.8942 -0.7738 -1.4042
32581SOL    HW2 1786   3.123   5.419   9.619  1.9209  1.6217  1.2782
32582SOL     OW 1787   3.854   5.036   2.762  0.0504  0.2492 -0.1497
32582SOL    HW1 1788   3.771   4.995   2.738  0.2585  0.7818 -1.9369
32582SOL    HW2 1789   3.831   5.106   2.823 -0.8943  0.7742 -1.0808
32583SOL     OW 1790   4.187   4.636   7.381  0.3810  0.1055  0.2505
32583SOL    HW1 1791   4.161   4.545   7.400  0.5582 -0.1910 -0.8584
32583SOL    HW2 1792   4.124   4.689   7.429 -0.9735 -0.6038 -0.6637
32584SOL     OW 1793   8.401  10.145   9.700  0.2872 -0.6783  0.3314
32584SOL    HW1 1794   8.406  10.096   9.618 -0.4345 -0.6168  0.2491
32584SOL    HW2 1795   8.310  10.174   9.706  0.5910  0.2515  0.6161
32585SOL     OW 1796   4.852   8.869   9.686  0.2334  0.3041 -0.3886
32585SOL    HW1 1797   4.851   8.893   9.779 -0.7269  3.6992 -1.1469
32585SOL    HW2 1798   4.771   8.905   9.651  1.0066 -0.0651 -2.7407
32586SOL     OW 1799   0.363   6.351   9.046 -0.0121 -0.0282  0.0368
32586SOL    HW1 1800   0.403   6.273   9.009  0.3172 -0.0310  0.3971
32586SOL    HW2 1801   0.269   6.330   9.050 -0.1943  0.3198 -1.6415
32587SOL     OW 1802   9.614   2.701   2.556  0.4813 -0.6119 -0.1741
32587SOL    HW1 1803   9.578   2.765   2.617  0.2665 -1.5302  0.6840
32587SOL    HW2 1804   9.679   2.653   2.607  1.7426 -0.0808 -1.2379
32588SOL     OW 1805   8.262   8.256   3.750 -0.0947  0.3114  0.0213
32588SOL    HW1 1806   8.246   8.162   3.758  0.2995  0.2447  0.0350
32588SOL    HW2 1807   8.356   8.263   3.732 -0.1374  0.6976 -0.0655
32589SOL     OW 1808   7.877   4.820   5.986  0.4273 -0.4588  0.5765
32589SOL    HW1 1809   7.903   4.736   6.024 -0.2577 -0.7519  0.4131
32589SOL    HW2 1810   7.797   4.800   5.937  0.3452  0.2605  0.4123
32590SOL     OW 1811  10.190   3.409   3.494  0.0813 -0.1131 -0.6197
32590SOL    HW1 1812  10.211   3.444   3.407 -1.4515  1.1201 -0.5424
32590SOL    HW2 1813  10.096   3.390   3.490  0.1198 -0.6467  0.5741
32591SOL     OW 1814   5.610   8.763   7.246  0.0560 -0.4816  0.6309
32591SOL    HW1 1815   5.612   8.771   7.150  0.5561 -2.3129  0.4505
32591SOL    HW2 1816   5.700   8.744   7.270 -0.3040 -1.4051  1.3093
32592SOL     OW 1817   6.840   2.235   2.873 -0.2907 -0.6026  0.2935
32592SOL    HW1 1818   6.895   2.200   2.943 -0.3758 -0.3161  0.5014
32592SOL    HW2 1819   6.878   2.198   2.793  1.5418  1.2810  0.2200
32593SOL     OW 1820   6.092   1.789   3.771 -0.7041 -0.6887  0.0545
32593SOL    HW1 1821   5.999   1.791   3.794 -0.8543  0.9427 -0.5321
32593SOL    HW2 1822   6.137   1.789   3.855 -1.2323 -0.9101  0.3468
32594SOL     OW 1823   4.298   8.076   7.295 -0.2996 -0.1364 -0.6352
32594SOL    HW1 1824   4.295   8.161   7.338  3.4404  0.0006 -0.3245
32594SOL    HW2 1825   4.219   8.031   7.325 -1.3096  2.4130  0.8551
32595SOL     OW 1826   4.017   3.774   3.847  0.3878  0.1941 -0.1201
32595SOL    HW1 1827   3.995   3.866   3.829  1.6245  0.5092 -0.1541
32595SOL    HW2 1828   4.015   3.732   3.761  1.7719  0.6610 -0.4072
32596SOL     OW 1829   2.367   6.230   5.232  0.0286 -0.0382  0.1070
32596SOL    HW1 1830   2.302   6.214   5.164 -0.7810 -2.5647  1.3399
32596SOL    HW2 1831   2.317   6.267   5.305  0.0157 -1.4331  0.8464
32597SOL     OW 1832  10.214   7.321   4.829  0.0081  0.1875 -0.2653
32597SOL    HW1 1833  10.182   7.274   4.752  0.0842  1.1699 -0.9226
32597SOL    HW2 1834  10.180   7.272   4.904 -1.6478  0.2726 -0.9249
32598SOL     OW 1835   0.785   3.106   3.703  0.4358  0.0104  0.2348
32598SOL    HW1 1836   0.700   3.075   3.735  0.1372  0.7822  0.2018
32598SOL    HW2 1837   0.839   3.027   3.700 -0.9376 -0.9289 -1.9545
32599SOL     OW 1838   4.615   6.694   0.900 -0.0827 -0.0989 -0.4329
32599SOL    HW1 1839   4.644   6.656   0.817 -1.7914 -0.2114 -1.0008
32599SOL    HW2 1840   4.563   6.770   0.876 -0.0813  0.2323  0.5609
32600SOL     OW 1841   0.020   7.403   5.268  0.4846 -0.4417 -0.2072
32600SOL    HW1 1842   0.052   7.446   5.188 -0.4043  1.2305  0.2926
32600SOL    HW2 1843   0.006   7.475   5.329 -0.1495 -1.5706  1.0063
32601SOL     OW 1844   5.153   3.880   1.810 -0.1948  0.1748 -0.4961
32601SOL    HW1 1845   5.232   3.929   1.832 -1.3448  1.2320  1.6361
32601SOL    HW2 1846   5.083   3.945   1.813 -1.2815 -0.9058 -1.3657
32602SOL     OW 1847   3.676   6.685   0.453  0.1922 -0.4831  0.0169
32602SOL    HW1 1848   3.633   6.717   0.533 -0.8075  1.1892 -1.1435
32602SOL    HW2 1849   3.730   6.612   0.484 -1.5110 -1.0399  1.9491
32603SOL     OW 1850   8.077   8.301   7.059  0.1661  0.4715  0.3181
32603SOL    HW1 1851   8.137   8.231   7.086 -1.1037 -0.1647  1.6311
32603SOL    HW2 1852   8.077   8.363   7.132 -1.7463 -0.2239  0.9889
32604SOL     OW 1853   4.040   6.421   2.109  0.8865 -0.5786 -0.7090
32604SOL    HW1 1854   4.094   6.371   2.171 -0.2876 -0.4495  0.4634
32604SOL    HW2 1855   3.988   6.479   2.165 -0.1981 -0.4464 -1.8223
32605SOL     OW 1856   8.691   3.313   0.166  0.0835  0.2743  0.2553
32605SOL    HW1 1857   8.669   3.230   0.123 -1.1410  0.6087  0.1854
32605SOL    HW2 1858   8.678   3.297   0.259 -2.7688  1.0547  0.0910
32606SOL     OW 1859   6.550   9.581   9.010 -0.1257  0.0063  0.0673
32606SOL    HW1 1860   6.573   9.639   8.936  0.5009  0.2062  0.4127
32606SOL    HW2 1861   6.466   9.615   9.041 -1.4397 -1.3396 -1.8355
32607SOL     OW 1862   9.666   6.736   6.063  0.1483 -0.2117  0.7770
32607SOL    HW1 1863   9.755   6.756   6.092 -0.2642 -0.5523  2.3178
32607SOL    HW2 1864   9.672   6.646   6.030  0.4958 -0.0185  0.2944
32608SOL     OW 1865   0.997   9.210   1.247 -0.4757  0.2649 -0.3286
32608SOL    HW1 1866   1.044   9.231   1.328  0.5903  1.2328 -1.1692
32608SOL    HW2 1867   0.905   9.212   1.272 -0.1704  0.5983  0.8487
32609SOL     OW 1868  10.268   7.092   1.309  0.0259 -0.1361 -0.0395
32609SOL    HW1 1869  10.237   7.002   1.297 -2.1507  0.5968 -0.4165
32609SOL    HW2 1870  10.191   7.146   1.290  0.8345  1.7477  1.6911
32610SOL     OW 1871   1.569   2.545   2.212 -0.7901 -0.3436  0.5371
32610SOL    HW1 1872   1.642   2.527   2.153 -1.2186 -0.4884  0.0372
32610SOL    HW2 1873   1.570   2.640   2.224 -0.2125 -0.4004  0.9439
32611SOL     OW 1874   7.255   6.924   8.607 -0.5052  0.2681 -1.4642
32611SOL    HW1 1875   7.275   6.935   8.700  0.6723 -0.5128 -1.5987
32611SOL    HW2 1876   7.274   6.832   8.589  1.5305  0.8992 -2.9357
32612SOL     OW 1877   0.195   7.189   4.359  0.1293  0.0889  0.5472
32612SOL    HW1 1878   0.246   7.123   4.405 -1.5474 -0.8749  1.1040
32612SOL    HW2 1879   0.104   7.168   4.379 -0.6243  0.5248 -1.9976
32613SOL     OW 1880   7.954   6.117   9.227 -0.0076  0.5700  0.1351
32613SOL    HW1 1881   7.958   6.122   9.323 -1.4064  4.2619  0.1702
32613SOL    HW2 1882   7.896   6.043   9.209  1.8984 -1.5253  1.9664
32614SOL     OW 1883   9.307   4.283   1.655 -0.0563 -0.3235  0.2111
32614SOL    HW1 1884   9.216   4.276   1.627 -0.2533 -1.0258  0.9783
32614SOL    HW2 1885   9.344   4.197   1.635  0.4180 -0.0763  0.0014
32615SOL     OW 1886   0.014   7.649   7.140  0.2969 -0.3478  0.2996
32615SOL    HW1 1887   0.078   7.705   7.185 -0.5588  0.7439  0.1949
32615SOL    HW2 1888  -0.070   7.691   7.157 -0.1704 -0.5201 -1.4187
32616SOL     OW 1889   8.662   1.535  10.203 -0.1348 -0.1898 -0.0333
32616SOL    HW1 1890   8.713   1.615  10.198  2.4939 -1.7768 -0.6317
32616SOL    HW2 1891   8.700   1.478  10.136 -2.3500 -1.7221 -0.0988
32617SOL     OW 1892   8.031   7.204   3.711  0.5506 -0.4703 -0.2395
32617SOL    HW1 1893   8.014   7.246   3.626 -0.9068 -3.5615 -1.6508
32617SOL    HW2 1894   8.032   7.111   3.691 -0.9701 -1.4091  3.3548
32618SOL     OW 1895   6.273   2.344   8.855  0.2588 -0.2688 -0.0692
32618SOL    HW1 1896   6.287   2.311   8.944 -1.1867 -0.0971  0.2403
32618SOL    HW2 1897   6.306   2.275   8.798  0.3257 -0.7907  0.5916
32619SOL     OW 1898   4.234   9.201   8.068 -0.3157  0.2316  0.5974
32619SOL    HW1 1899   4.296   9.256   8.019 -1.1025  2.2527  1.7295
32619SOL    HW2 1900   4.290   9.144   8.121  0.5320 -0.6356 -1.1548
32620SOL     OW 1901   7.437   6.669   9.010  0.7411  0.3813 -0.4307
32620SOL    HW1 1902   7.486   6.592   8.980 -1.1620 -1.1326  0.0924
32620SOL    HW2 1903   7.442   6.664   9.105 -1.8705 -0.9337 -0.2654
32621SOL     OW 1904   7.951   6.727   2.726 -0.3367 -0.7983 -0.0528
32621SOL    HW1 1905   8.024   6.783   2.753 -2.0495  0.9318  1.2350
32621SOL    HW2 1906   7.895   6.722   2.803 -1.8317 -1.6667 -1.1547
32622SOL     OW 1907   9.619   4.192   5.984 -0.1587  0.2935  0.4311
32622SOL    HW1 1908   9.600   4.196   5.890  0.0971  0.1310  0.3699
32622SOL    HW2 1909   9.550   4.243   6.025  0.6368  1.7758  0.0208
32623SOL     OW 1910   4.430   2.038   2.856  0.0921 -0.5783  0.6249
32623SOL    HW1 1911   4.393   2.053   2.943 -0.5325 -1.4112  0.5168
32623SOL    HW2 1912   4.435   1.942   2.848  0.1559 -0.5097 -0.2515
32624SOL     OW 1913   7.265   4.924   2.001 -0.1234 -0.1786 -0.1997
32624SOL    HW1 1914   7.261   4.994   1.936 -3.6326 -0.6062 -0.6056
32624SOL    HW2 1915   7.260   4.969   2.086 -0.9221  0.1291 -0.4079
32625SOL     OW 1916   9.790   9.666   1.225  0.1804 -0.5175 -0.0184
32625SOL    HW1 1917   9.776   9.596   1.289 -1.5466  0.7372  1.1148
32625SOL    HW2 1918   9.784   9.624   1.140 -1.0566 -1.7293  0.6319
32626SOL     OW 1919   2.293   0.271   8.017  0.0332  0.3832 -0.4089
32626SOL    HW1 1920   2.208   0.261   8.059  0.3428 -1.4650 -0.1465
32626SOL    HW2 1921   2.355   0.276   8.090  0.2856  0.3096 -0.6158
32627SOL     OW 1922   8.088   6.581   9.814  0.2486  0.2848  0.6408
32627SOL    HW1 1923   8.005   6.630   9.813  0.3044  0.4119 -1.1639
32627SOL    HW2 1924   8.112   6.577   9.906 -1.6468  0.4544  1.1881
32628SOL     OW 1925   4.290   6.164  10.165 -0.2566 -0.0128 -0.0543
32628SOL    HW1 1926   4.381   6.188  10.183 -0.1915  0.1496 -0.5708
32628SOL    HW2 1927   4.292   6.068  10.157 -0.0804  0.0091 -0.3037
32629SOL     OW 1928   6.621   1.137   1.967  0.7241 -0.2413  0.1528
32629SOL    HW1 1929   6.628   1.160   2.060 -1.1629 -0.0662  0.2943
32629SOL    HW2 1930   6.573   1.054   1.967  1.3057 -0.5847 -0.6489
32630SOL     OW 1931   9.531   0.903   7.944 -0.3282 -0.3578  0.0668
32630SOL    HW1 1932   9.482   0.929   7.866  0.1603  1.5366  0.3551
32630SOL    HW2 1933   9.622   0.899   7.915 -0.1072  0.6450  0.5928
32631SOL     OW 1934   5.556   0.869   2.243 -0.6426 -0.2876 -0.0367
32631SOL    HW1 1935   5.635   0.831   2.284 -1.0385 -1.3814 -0.2587
32631SOL    HW2 1936   5.576   0.962   2.235 -0.2459 -0.1489  1.9690
32632SOL     OW 1937   4.511   2.075   3.501  0.4033 -0.1363  0.2595
32632SOL    HW1 1938   4.499   2.166   3.473  0.9401  0.7674  2.6479
32632SOL    HW2 1939   4.441   2.061   3.565  1.0396 -0.9851  0.7875
32633SOL     OW 1940   2.804   6.307   3.554 -0.1168 -0.1533  0.1454
32633SOL    HW1 1941   2.849   6.353   3.484  0.6476  0.6650  1.1421
32633SOL    HW2 1942   2.773   6.226   3.514  1.9404 -0.5883 -0.6858
32634SOL     OW 1943   7.668   5.168   7.728 -0.1071  0.0728 -0.0355
32634SOL    HW1 1944   7.606   5.241   7.735  0.5360  0.4599  2.2747
32634SOL    HW2 1945   7.668   5.128   7.814  1.0454 -1.4555 -0.7056
32635SOL     OW 1946   7.733   7.610   1.849 -0.3908 -0.1914  0.7989
32635SOL    HW1 1947   7.714   7.658   1.929 -1.2160  0.7894  0.0366
32635SOL    HW2 1948   7.763   7.677   1.787  1.5196 -1.0978  0.6470
32636SOL     OW 1949   2.104   2.700   3.075 -0.8724 -0.5246 -0.5471
32636SOL    HW1 1950   2.188   2.684   3.117 -1.4988  0.1816  1.0362
32636SOL    HW2 1951   2.097   2.631   3.009  1.3014 -0.0965 -1.3033
32637SOL     OW 1952   9.517   7.719   2.221  0.0796 -0.0362  0.0295
32637SOL    HW1 1953   9.446   7.659   2.247  0.8621 -0.3473  1.5433
32637SOL    HW2 1954   9.538   7.693   2.131 -3.2009  1.5428 -1.3442
32638SOL     OW 1955   9.270   7.683   4.529  0.1426  0.7768 -0.2390
32638SOL    HW1 1956   9.232   7.739   4.596 -0.8574 -1.8693  1.5767
32638SOL    HW2 1957   9.207   7.611   4.519  2.3463 -1.2395 -0.6976
32639SOL     OW 1958   6.847   6.863   3.183 -0.1037  0.3302  0.2101
32639SOL    HW1 1959   6.911   6.908   3.127 -0.1311 -0.6100 -0.6053
32639SOL    HW2 1960   6.762   6.883   3.144 -0.3345  1.4749  1.2211
32640SOL     OW 1961   3.124   1.102   1.295  0.2081  0.4047  0.3171
32640SOL    HW1 1962   3.045   1.155   1.279 -0.2046 -0.3649 -0.2931
32640SOL    HW2 1963   3.108   1.021   1.246  0.8354 -0.2718  1.2066
32641SOL     OW 1964   9.514   5.920   7.861  0.4934 -0.3372  0.2375
32641SOL    HW1 1965   9.545   5.886   7.777  0.3208 -0.3339  0.1724
32641SOL    HW2 1966   9.498   5.843   7.915 -0.1595 -0.3741 -0.0023
32642SOL     OW 1967   8.490  10.285   8.198  0.4916  0.1465  0.2165
32642SOL    HW1 1968   8.570  10.235   8.211 -0.0666 -0.7786  0.1666
32642SOL    HW2 1969   8.450  10.247   8.120  0.5140  1.2826 -0.3630
32643SOL     OW 1970   3.917   4.023   8.729  0.3573  0.0570 -0.4352
32643SOL    HW1 1971   3.951   4.093   8.673 -1.1349  0.8424 -0.4336
32643SOL    HW2 1972   3.840   4.062   8.771 -1.2818 -1.9366 -1.3771
32644SOL     OW 1973   1.179   3.209   7.799  0.7576  0.6410  0.6255
32644SOL    HW1 1974   1.192   3.164   7.883  0.3911 -1.1096 -0.2172
32644SOL    HW2 1975   1.127   3.148   7.747  1.8660  1.2497 -1.2667
32645SOL     OW 1976   9.704   5.495   1.785  0.5697 -0.0486 -0.4497
32645SOL    HW1 1977   9.625   5.493   1.732  0.5262  1.6915 -0.5073
32645SOL    HW2 1978   9.681   5.548   1.861  1.0523 -1.3558  0.6630
32646SOL     OW 1979   5.332   0.473   1.905  0.3938 -0.0010 -0.4557
32646SOL    HW1 1980   5.322   0.489   1.999  1.6225 -0.2837 -0.2538
32646SOL    HW2 1981   5.423   0.497   1.886  0.0568  0.3993 -1.6543
32647SOL     OW 1982   4.271   0.950   7.831 -0.0616 -0.3447 -0.2560
32647SOL    HW1 1983   4.211   0.885   7.794 -0.2641 -0.3871  0.1294
32647SOL    HW2 1984   4.261   0.939   7.926 -0.7317  0.8190 -0.1744
32648SOL     OW 1985   1.012   6.873   8.083  0.3175 -0.0234 -0.3273
32648SOL    HW1 1986   1.088   6.868   8.025 -1.7598 -0.2572 -3.2680
32648SOL    HW2 1987   0.965   6.791   8.069 -0.3126 -0.0816  1.7595
32649SOL     OW 1988   5.244   3.809   5.644 -0.2402  0.2261  0.4139
32649SOL    HW1 1989   5.212   3.890   5.682 -1.1766  0.0060  0.1130
32649SOL    HW2 1990   5.225   3.742   5.709 -0.8653  0.0152  0.0181
32650SOL     OW 1991   5.422   7.148   8.542  0.2053  0.4414 -0.3216
32650SOL    HW1 1992   5.494   7.198   8.502  1.3204  0.2162  1.2751
32650SOL    HW2 1993   5.368   7.215   8.585 -0.2645  0.5688 -1.1044
32651SOL     OW 1994   6.508   4.047   5.663  0.0090  0.0271  0.0781
32651SOL    HW1 1995   6.516   4.134   5.700 -2.2633  0.9624 -1.4614
32651SOL    HW2 1996   6.432   4.008   5.707  0.2938 -0.7420 -0.0873
32652SOL     OW 1997   4.603   0.438   3.804  0.1437  0.7602 -0.4763
32652SOL    HW1 1998   4.610   0.372   3.873  1.1528  1.5419  0.1979
32652SOL    HW2 1999   4.517   0.422   3.765 -0.7058  0.6317  1.3298
32653SOL     OW 2000   6.575   6.109   7.520  0.4086 -0.0933 -0.1849
32653SOL    HW1 2001   6.522   6.182   7.553  0.2817 -0.3768  0.2532
32653SOL    HW2 2002   6.642   6.151   7.465  1.2998  0.5037  1.2861
32654SOL     OW 2003   8.189   4.888   2.823 -0.1654  0.5228 -0.1528
32654SOL    HW1 2004   8.140   4.824   2.875  0.7919  0.3528  0.5638
32654SOL    HW2 2005   8.181   4.856   2.733 -0.2919 -0.2177  0.1079
32655SOL     OW 2006  10.145   1.641   5.765  0.6461  0.2775  0.2224
32655SOL    HW1 2007  10.063   1.662   5.720  0.9250  2.2617  0.5130
32655SOL    HW2 2008  10.121   1.639   5.858  0.3458 -2.3963  0.1534
32656SOL     OW 2009   9.620   1.191   6.615  0.1109 -0.8076  0.2999
32656SOL    HW1 2010   9.622   1.137   6.694 -0.3367 -0.9305  0.2312
32656SOL    HW2 2011   9.608   1.129   6.543 -2.2298 -0.5215  0.3646
32657SOL     OW 2012   2.010   9.450   5.338 -0.2611  0.7879 -0.2676
32657SOL    HW1 2013   2.079   9.500   5.383  0.0322 -0.8546  1.2066
32657SOL    HW2 2014   1.933   9.462   5.393  0.0309 -1.0232  0.5994
32658SOL     OW 2015   9.393   4.416   1.038  0.1343 -0.2635  1.0043
32658SOL    HW1 2016   9.299   4.427   1.023  0.5703  1.4649 -0.8000
32658SOL    HW2 2017   9.425   4.504   1.057  1.7623 -0.3479 -0.9720
32659SOL     OW 2018   9.749   0.943   0.963  0.5415 -0.3655  0.5911
32659SOL    HW1 2019   9.706   0.877   0.909 -0.8825 -0.5719  1.9075
32659SOL    HW2 2020   9.828   0.967   0.914 -0.4744 -0.8189 -1.3597
32660SOL     OW 2021   1.779   2.886   4.579 -0.5876  0.3898  0.1549
32660SOL    HW1 2022   1.814   2.798   4.565  2.1276  1.4233 -0.1219
32660SOL    HW2 2023   1.719   2.876   4.654  0.9799 -1.4032  1.2501
32661SOL     OW 2024   2.693   5.261   2.371 -0.3177  0.1271 -0.4452
32661SOL    HW1 2025   2.773   5.213   2.392 -0.9273 -1.2053 -1.0620
32661SOL    HW2 2026   2.725   5.345   2.336  0.7392  1.1319  2.6094
32662SOL     OW 2027   7.085   5.839   2.005  0.4372  0.0205  0.3919
32662SOL    HW1 2028   6.992   5.816   2.005  0.2004  0.7582 -1.7434
32662SOL    HW2 2029   7.110   5.836   2.097 -1.9392  0.7861  1.1430
32663SOL     OW 2030   2.753   9.709   3.753 -0.6094 -0.6579 -0.5146
32663SOL    HW1 2031   2.698   9.641   3.715  0.2058 -1.2421 -0.6546
32663SOL    HW2 2032   2.798   9.667   3.826 -2.1851  0.4546  1.2168
32664SOL     OW 2033   8.949  10.059   5.840 -0.4927 -0.0339  0.8621
32664SOL    HW1 2034   8.867  10.070   5.889  0.4670  1.2583  2.2476
32664SOL    HW2 2035   9.012  10.116   5.885  0.2975  1.8040 -2.2624
32665SOL     OW 2036   9.328   5.136   3.669 -0.0877  0.4685  0.3116
32665SOL    HW1 2037   9.260   5.088   3.715 -0.1443 -0.2654 -0.5208
32665SOL    HW2 2038   9.366   5.194   3.735  0.3404 -1.0764  1.4759
32666SOL     OW 2039   6.914   6.626   8.256  0.8871  0.1182 -0.0585
32666SOL    HW1 2040   6.886   6.539   8.284  0.2370 -0.5677 -2.5957
32666SOL    HW2 2041   6.837   6.682   8.268  0.6491 -0.1413 -0.3664
32667SOL     OW 2042   1.287   4.729   5.296  0.1514  0.1168 -0.5303
32667SOL    HW1 2043   1.318   4.753   5.383 -2.8463  1.2253  0.3776
32667SOL    HW2 2044   1.299   4.808   5.244 -0.6762  0.4339 -0.2691
32668SOL     OW 2045   6.530   0.151   2.009  0.1243  0.0299  0.3102
32668SOL    HW1 2046   6.588   0.200   1.952  0.2721  0.8449  1.1269
32668SOL    HW2 2047   6.446   0.197   2.004 -0.5790 -1.3189 -1.1015
32669SOL     OW 2048   8.392   9.698   9.995  0.2675 -0.4903 -0.3192
32669SOL    HW1 2049   8.434   9.783  10.006 -0.4479 -0.1264 -0.3985
32669SOL    HW2 2050   8.453   9.648   9.940  1.0449 -0.2964  0.3480
32670SOL     OW 2051   9.008   7.221   2.797 -0.4800 -0.2750  0.1454
32670SOL    HW1 2052   9.088   7.239   2.746 -0.1674 -1.8115  0.0532
32670SOL    HW2 2053   8.937   7.229   2.733 -0.2252 -0.6677 -0.1955
32671SOL     OW 2054   1.512   2.794   0.688  0.4592  0.4615  0.3356
32671SOL    HW1 2055   1.481   2.839   0.767 -0.6667 -0.5788  0.5262
32671SOL    HW2 2056   1.592   2.750   0.715  0.8590  1.2843  0.5014
32672SOL     OW 2057   0.600   8.306   5.173 -0.4007  0.3336  0.4630
32672SOL    HW1 2058   0.572   8.222   5.210  0.0900  0.0496  0.1982
32672SOL    HW2 2059   0.640   8.353   5.246  0.4760 -0.1865  0.3314
32673SOL     OW 2060   4.021   2.697   0.319 -0.5288 -0.2145  0.1477
32673SOL    HW1 2061   3.933   2.662   0.305 -0.0237 -1.1864 -0.6761
32673SOL    HW2 2062   4.079   2.631   0.283  0.6047 -0.0810  1.6496
32674SOL     OW 2063   2.139   0.609   6.500  0.2638 -0.3837  0.1967
32674SOL    HW1 2064   2.212   0.645   6.450  1.5333 -0.0039  2.2075
32674SOL    HW2 2065   2.063   0.617   6.442  1.3058  1.6203 -0.9885
32675SOL     OW 2066   4.526   4.901   8.132  0.1990  0.3823  0.0163
32675SOL    HW1 2067   4.619   4.920   8.143  0.0061  1.4226 -0.0844
32675SOL    HW2 2068   4.482   4.983   8.151 -0.6785  0.0148 -0.3646
32676SOL     OW 2069   3.087   2.581   5.533 -1.0595 -0.0530 -0.2649
32676SOL    HW1 2070   3.171   2.578   5.487 -2.2156 -0.2785 -2.4510
32676SOL    HW2 2071   3.071   2.675   5.547 -0.3055 -0.0216  0.5000
32677SOL     OW 2072   5.517   8.409   6.479 -0.3621  0.4090 -0.6832
32677SOL    HW1 2073   5.563   8.490   6.499  3.5426 -1.4819 -0.9651
32677SOL    HW2 2074   5.527   8.398   6.384 -1.1139 -0.2807 -0.7022
32678SOL     OW 2075   4.768   4.139   5.564  0.7892 -0.2243  0.1125
32678SOL    HW1 2076   4.737   4.154   5.653  2.0252  0.7286  0.3969
32678SOL    HW2 2077   4.855   4.179   5.561  0.5486  0.2495 -1.6825
32679SOL     OW 2078   8.708   8.991   7.224  0.2173 -0.1338  0.2054
32679SOL    HW1 2079   8.755   8.915   7.189  1.3469 -1.1246  3.4756
32679SOL    HW2 2080   8.728   8.990   7.317 -2.3549  2.3648  0.9233
32680SOL     OW 2081   2.931   6.484   7.171  0.6194  0.1697 -0.4436
32680SOL    HW1 2082   2.955   6.519   7.258 -1.1891 -1.2169  0.6761
32680SOL    HW2 2083   2.850   6.529   7.148 -0.0344 -0.9521 -0.4243
32681SOL     OW 2084   6.439   9.156   7.642  0.5463 -0.4352 -0.2146
32681SOL    HW1 2085   6.488   9.218   7.695 -0.0000 -2.1350  2.5199
32681SOL    HW2 2086   6.389   9.210   7.581  1.7072  1.6233  0.5563
32682SOL     OW 2087   9.179  10.165   4.807 -0.0068  0.3534  0.4065
32682SOL    HW1 2088   9.240  10.229   4.772  0.9186 -0.5539  0.2992
32682SOL    HW2 2089   9.097  10.182   4.761  1.0726 -0.5903 -2.0361
32683SOL     OW 2090   6.841   1.126   3.298  0.4520  0.7308 -0.0861
32683SOL    HW1 2091   6.887   1.105   3.216  0.1960  0.6817 -0.2163
32683SOL    HW2 2092   6.775   1.190   3.273 -0.8472 -0.6159 -0.2692
32684SOL     OW 2093   1.899   5.461   8.803  0.0234 -0.2834  0.5138
32684SOL    HW1 2094   1.853   5.419   8.730 -0.4342 -0.8187  1.1039
32684SOL    HW2 2095   1.940   5.538   8.763 -0.3707 -0.4638 -0.2742
32685SOL     OW 2096   5.391   9.681   0.055 -0.0612 -0.0893  0.4427
32685SOL    HW1 2097   5.372   9.588   0.042 -0.0825 -0.0155 -0.0656
32685SOL    HW2 2098   5.465   9.682   0.116  1.4193 -0.5174 -1.2728
32686SOL     OW 2099   2.889   6.654   8.382  0.1428  0.4173 -0.3369
32686SOL    HW1 2100   2.862   6.562   8.378  0.3673  0.3606 -0.5881
32686SOL    HW2 2101   2.895   6.681   8.290 -0.3992  0.8268 -0.2595
32687SOL     OW 2102   9.836   3.742   7.174 -0.1095 -0.0716 -0.3696
32687SOL    HW1 2103   9.814   3.727   7.266  0.7594 -2.1362 -0.4485
32687SOL    HW2 2104   9.751   3.747   7.129 -0.5209 -1.1421  0.2644
32688SOL     OW 2105   7.964   7.084   9.161  0.2710  0.1370  0.2280
32688SOL    HW1 2106   7.919   7.097   9.077 -0.2759 -0.8406  0.3554
32688SOL    HW2 2107   8.055   7.109   9.144 -0.1828  1.6201 -0.1872
32689SOL     OW 2108   7.095   9.465   5.017  0.1679  0.1573 -0.1224
32689SOL    HW1 2109   7.026   9.532   5.016 -0.1575 -0.1734 -0.8988
32689SOL    HW2 2110   7.133   9.468   4.929  1.4392  0.6182  0.4231
32690SOL     OW 2111   1.634   0.785   0.217  0.1665  0.1972  0.2705
32690SOL    HW1 2112   1.712   0.740   0.183  0.2093 -0.3790  1.0984
32690SOL    HW2 2113   1.668   0.840   0.287 -0.0748  0.5173  0.1346
32691SOL     OW 2114   0.938   4.186   7.211  0.2805 -0.4396 -0.0917
32691SOL    HW1 2115   0.952   4.229   7.127 -0.1877  1.2773  0.6644
32691SOL    HW2 2116   0.843   4.192   7.225  0.6314  2.4110  2.0354
32692SOL     OW 2117   7.517   9.609   8.531 -0.4130 -0.4110  0.3338
32692SOL    HW1 2118   7.559   9.614   8.446  1.0103 -0.5905  0.9957
32692SOL    HW2 2119   7.439   9.664   8.523 -0.3256 -0.4688 -1.0833
32693SOL     OW 2120   8.219   0.932   6.195 -0.3406 -0.1385  0.0852
32693SOL    HW1 2121   8.267   0.997   6.245  0.2994 -1.4600  1.2793
32693SOL    HW2 2122   8.251   0.942   6.105 -0.3431  1.2400  0.2193
32694SOL     OW 2123   1.653   4.995   8.053  0.1169  0.7365  0.0752
32694SOL    HW1 2124   1.584   4.980   7.988 -0.0939  0.2189  0.4108
32694SOL    HW2 2125   1.609   4.983   8.138  0.6994  0.0247  0.2849
32695SOL     OW 2126  10.199   5.896   1.536 -0.0675  0.1643  0.4396
32695SOL    HW1 2127  10.244   5.970   1.577 -2.4944  1.8835  0.2416
32695SOL    HW2 2128  10.212   5.909   1.442 -0.6900  0.4853  0.3954
32696SOL     OW 2129   6.166   9.878   9.147  0.3414  0.4185  0.4278
32696SOL    HW1 2130   6.250   9.897   9.189  0.7335 -1.0081  0.3614
32696SOL    HW2 2131   6.138   9.962   9.111  1.1402  1.1865  1.4989
32697SOL     OW 2132   4.646   2.607   7.415  0.2528  0.3555 -0.0569
32697SOL    HW1 2133   4.692   2.561   7.485  0.1848  0.4465  0.0476
32697SOL    HW2 2134   4.715   2.645   7.361  0.3366 -0.5983 -0.6400
32698SOL     OW 2135   1.324   4.231   9.669  0.0360  0.0822  0.1661
32698SOL    HW1 2136   1.248   4.243   9.726  0.3162 -1.4112  0.9054
32698SOL    HW2 2137   1.386   4.181   9.722  1.2402  0.6222 -0.6825
32699SOL     OW 2138   9.333   0.894   0.452  0.1234 -0.2923  0.1556
32699SOL    HW1 2139   9.263   0.870   0.512 -0.7482 -1.6327 -1.3287
32699SOL    HW2 2140   9.383   0.814   0.439  0.3767  0.0043 -0.7865
32700SOL     OW 2141   1.220   5.576   5.650 -0.1639  0.4961 -0.8995
32700SOL    HW1 2142   1.171   5.549   5.727  1.3540 -0.0187 -0.0789
32700SOL    HW2 2143   1.189   5.665   5.631 -0.6556  0.5672  0.2205
32701SOL     OW 2144   5.878   5.976   7.904  0.7394 -0.2446 -0.1350
32701SOL    HW1 2145   5.881   6.013   7.993  0.2171 -0.8112  0.1207
32701SOL    HW2 2146   5.969   5.950   7.887  0.7697 -0.5319  0.4148
32702SOL     OW 2147   7.551   9.502   1.377 -0.5425  0.6679 -0.0595
32702SOL    HW1 2148   7.630   9.509   1.431 -0.3301 -1.0539 -0.0931
32702SOL    HW2 2149   7.570   9.555   1.300  1.8854 -1.9751 -1.4934
32703SOL     OW 2150   8.581   6.413   0.251 -0.4032 -0.4623  0.4637
32703SOL    HW1 2151   8.577   6.322   0.280 -0.9078  0.4401  3.6452
32703SOL    HW2 2152   8.489   6.442   0.254 -0.1490  0.3733  0.3095
32704SOL     OW 2153   4.554   0.614   2.724 -0.2566  0.0157  0.0361
32704SOL    HW1 2154   4.613   0.586   2.654 -1.5943 -1.4441 -0.5865
32704SOL    HW2 2155   4.549   0.709   2.716  1.4203  0.1005 -0.3332
32705SOL     OW 2156   1.737   5.955   9.406  0.1368 -0.4048  0.5273
32705SOL    HW1 2157   1.650   5.962   9.444  0.6525  1.0414  1.5112
32705SOL    HW2 2158   1.774   5.876   9.445 -1.3206 -2.0889 -1.2681
32706SOL     OW 2159   0.664   7.884   2.821 -0.1503 -0.0851  0.0226
32706SOL    HW1 2160   0.602   7.883   2.894 -1.0951 -1.7322 -0.7514
32706SOL    HW2 2161   0.702   7.972   2.824 -1.9034  0.7015  1.0528
32707SOL     OW 2162   9.040   9.499   7.369  0.5407 -0.3488  0.1918
32707SOL    HW1 2163   9.022   9.469   7.458  0.5740  0.6859  0.5520
32707SOL    HW2 2164   8.955   9.495   7.325  0.3669 -0.0745  0.5018
32708SOL     OW 2165   1.278   0.715   4.032  0.7669 -0.7595 -0.2305
32708SOL    HW1 2166   1.247   0.709   3.942  0.6173 -1.5764 -0.1339
32708SOL    HW2 2167   1.277   0.624   4.064  1.6914 -0.6003  0.2961
32709SOL     OW 2168   9.430   1.241   1.259 -0.3343 -0.3086 -0.2757
32709SOL    HW1 2169   9.501   1.178   1.270  0.9025  0.6764 -2.2050
32709SOL    HW2 2170   9.404   1.232   1.168 -1.0239  1.0727 -0.2361
32710SOL     OW 2171   2.334   4.704   9.572  0.3732 -0.1454 -0.6510
32710SOL    HW1 2172   2.418   4.671   9.542  0.8191  0.5157 -0.1436
32710SOL    HW2 2173   2.313   4.650   9.648 -0.1506 -0.9741 -1.3650
32711SOL     OW 2174   5.920   1.049   3.460 -0.4297  0.4091  0.3255
32711SOL    HW1 2175   5.851   1.047   3.395 -0.6081  0.6209  0.5058
32711SOL    HW2 2176   5.927   1.141   3.486  0.1414  0.4430  0.0750
32712SOL     OW 2177   6.571   7.666   9.468 -0.0679  0.0455 -0.3505
32712SOL    HW1 2178   6.652   7.679   9.418 -0.9035  1.0085 -1.5140
32712SOL    HW2 2179   6.524   7.749   9.458 -0.7015 -0.0962  1.2507
32713SOL     OW 2180   5.187   6.375   3.734  0.3342  0.0638 -0.4514
32713SOL    HW1 2181   5.162   6.296   3.781 -0.9885 -0.0094 -1.2088
32713SOL    HW2 2182   5.273   6.355   3.697  0.7639 -0.3812  0.7428
32714SOL     OW 2183   0.726   2.406   9.727 -0.2282  0.3277  0.4754
32714SOL    HW1 2184   0.766   2.399   9.814  0.2288  0.1271  0.2515
32714SOL    HW2 2185   0.796   2.441   9.671  0.3279 -1.9370 -0.3635
32715SOL     OW 2186   8.312   8.542   7.644  0.2729 -0.0178 -0.2580
32715SOL    HW1 2187   8.255   8.479   7.601 -0.5039  0.7466 -0.3578
32715SOL    HW2 2188   8.272   8.627   7.627  0.2169  0.3497  1.5282
32716SOL     OW 2189   7.071  10.058   2.916 -0.5350 -0.2997  0.0580
32716SOL    HW1 2190   7.086   9.980   2.969  0.4823  0.1304  0.4140
32716SOL    HW2 2191   7.116  10.129   2.963 -0.7416  0.3424 -0.6877
32717SOL     OW 2192   5.307   3.858   9.601 -0.4524 -0.2846 -0.5473
32717SOL    HW1 2193   5.241   3.923   9.577  0.8653  0.9662 -0.9589
32717SOL    HW2 2194   5.265   3.773   9.584 -2.4545  0.4060  0.6516
32718SOL     OW 2195   3.248   0.189   7.114  0.0081  0.0239 -0.0055
32718SOL    HW1 2196   3.161   0.160   7.087 -0.0036  0.8983 -0.9818
32718SOL    HW2 2197   3.249   0.178   7.209 -1.1119 -0.1354  0.0010
32719SOL     OW 2198   1.606   0.581   7.294  0.1389 -0.1886 -0.1081
32719SOL    HW1 2199   1.533   0.643   7.296  0.2713 -0.0054 -0.9305
32719SOL    HW2 2200   1.609   0.547   7.384 -1.2244 -0.5152 -0.1616
32720SOL     OW 2201   5.256   1.761   2.745 -0.4162  0.4327  0.5544
32720SOL    HW1 2202   5.211   1.773   2.828  0.3695  1.2150  0.8710
32720SOL    HW2 2203   5.309   1.839   2.734 -0.1576  0.1317 -0.4668
32721SOL     OW 2204   1.036   8.745   1.529 -0.3929 -0.3679  0.1012
32721SOL    HW1 2205   1.078   8.827   1.553 -1.0294 -0.1734  0.5995
32721SOL    HW2 2206   1.104   8.694   1.484 -0.0691  0.5308 -0.4418
32722SOL     OW 2207   2.350   0.646   1.950 -0.4918  0.2659 -0.0709
32722SOL    HW1 2208   2.269   0.594   1.957 -0.1641 -0.2163  0.2303
32722SOL    HW2 2209   2.337   0.702   1.873 -0.9531 -0.0915 -0.2551
32723SOL     OW 2210  10.094   1.493   4.096 -0.3284  0.3162  0.3539
32723SOL    HW1 2211  10.141   1.563   4.141 -1.1853  0.9283  0.3233
32723SOL    HW2 2212  10.028   1.465   4.158 -0.9843  0.5957 -0.2054
32724SOL     OW 2213   4.250   0.644   5.202  0.6611 -0.4657 -0.2693
32724SOL    HW1 2214   4.329   0.628   5.253  1.3045  0.0465 -1.0801
32724SOL    HW2 2215   4.263   0.731   5.163 -0.4009 -0.2719 -0.2323
32725SOL     OW 2216   0.118   4.406   9.372  0.6661 -0.0764  0.1534
32725SOL    HW1 2217   0.041   4.391   9.317  0.8034  0.5551 -0.2235
32725SOL    HW2 2218   0.171   4.327   9.361 -0.6400 -1.2172  1.6462
32726SOL     OW 2219   6.617   0.220   2.712 -0.0889  0.5438 -0.2318
32726SOL    HW1 2220   6.614   0.144   2.653  0.5198 -0.3535  0.8752
32726SOL    HW2 2221   6.532   0.220   2.755 -0.1779  0.6476 -0.4026
32727SOL     OW 2222   4.670   9.965   0.218  0.2748 -0.0999  0.4925
32727SOL    HW1 2223   4.665  10.007   0.132  1.8617 -1.1795 -0.1673
32727SOL    HW2 2224   4.579   9.943   0.239 -0.1825  0.5276 -0.7230
32728SOL     OW 2225   1.587   9.059   9.974 -0.8276  0.1873  0.5503
32728SOL    HW1 2226   1.500   9.069  10.014  0.2340  2.5630  2.5525
32728SOL    HW2 2227   1.601   9.142   9.928 -0.8343 -1.4072 -2.5706
32729SOL     OW 2228   2.286   1.179   8.579  1.0466 -0.4846 -0.2521
32729SOL    HW1 2229   2.322   1.242   8.516  0.9939  0.3037  0.4931
32729SOL    HW2 2230   2.335   1.195   8.660 -0.6825  0.3572  0.6883
32730SOL     OW 2231   3.993   2.757   5.038  0.0982 -0.2433 -0.3104
32730SOL    HW1 2232   3.978   2.793   5.125  1.3451  1.7389 -0.8397
32730SOL    HW2 2233   3.935   2.808   4.981  2.2212  1.4270 -1.1350
32731SOL     OW 2234   2.264   1.419   1.624 -0.2639 -0.2014 -0.0811
32731SOL    HW1 2235   2.277   1.326   1.640  0.5629 -0.0407  0.2558
32731SOL    HW2 2236   2.172   1.435   1.646 -0.0827 -0.6854  1.0962
32732SOL     OW 2237   4.531   1.135   9.125  0.6720  0.3388 -0.2904
32732SOL    HW1 2238   4.583   1.208   9.091  1.7102 -0.8416 -1.2968
32732SOL    HW2 2239   4.595   1.077   9.167  0.2757 -1.3475 -1.9174
32733SOL     OW 2240   8.892   0.078   1.101  0.8259  0.1381 -0.1337
32733SOL    HW1 2241   8.916   0.106   1.013 -1.5519 -0.0492 -0.9106
32733SOL    HW2 2242   8.937  -0.006   1.113  1.5471  0.3897 -0.9726
32734SOL     OW 2243   7.452   5.149  10.211  0.0303  0.3980 -0.2748
32734SOL    HW1 2244   7.487   5.076  10.160  2.4253  0.8615  0.5835
32734SOL    HW2 2245   7.511   5.222  10.192  0.8535  0.6774  2.8456
32735SOL     OW 2246   9.379   7.288   8.665  0.1715 -0.0139 -0.1953
32735SOL    HW1 2247   9.391   7.216   8.727  1.0373 -0.0258 -0.3675
32735SOL    HW2 2248   9.337   7.357   8.717  1.4347  0.2024  0.5832
32736SOL     OW 2249   2.555   4.561   5.034 -0.1785 -0.0839  0.2288
32736SOL    HW1 2250   2.578   4.643   5.078  1.0783 -0.2791 -0.0239
32736SOL    HW2 2251   2.599   4.493   5.085 -1.4386 -0.6537  0.5998
32737SOL     OW 2252   0.116   9.388   3.392  0.0880 -0.3472  0.0689
32737SOL    HW1 2253   0.112   9.300   3.356 -0.1861 -0.0088 -0.7496
32737SOL    HW2 2254   0.063   9.384   3.472  0.8232 -1.1389  0.5289
32738SOL     OW 2255   2.378   4.697   0.121 -0.1374 -0.8650  0.2966
32738SOL    HW1 2256   2.303   4.723   0.069 -0.5702  1.9057  2.0997
32738SOL    HW2 2257   2.344   4.630   0.181 -0.9845 -0.2344  0.5407
32739SOL     OW 2258   0.142   1.799   7.460  0.2409 -0.3669 -0.0071
32739SOL    HW1 2259   0.212   1.833   7.515  1.1217  0.5291 -1.5938
32739SOL    HW2 2260   0.172   1.711   7.434  1.2189  0.3186 -1.3283
32740SOL     OW 2261   3.759   6.664   3.828 -0.4462  0.1802  0.0172
32740SOL    HW1 2262   3.735   6.580   3.869  0.3040 -0.0334  0.0339
32740SOL    HW2 2263   3.848   6.650   3.796 -0.0969  1.1598  0.5378
32741SOL     OW 2264   5.768   6.755   4.700  0.1940  0.4758  0.2139
32741SOL    HW1 2265   5.808   6.743   4.786  0.3844 -1.3898 -0.1039
32741SOL    HW2 2266   5.816   6.696   4.642 -1.5464 -0.1919 -0.6330
32742SOL     OW 2267   1.621   5.069  10.246 -0.0835  0.0674 -0.2224
32742SOL    HW1 2268   1.673   5.113  10.313 -2.5970  1.7590  0.7954
32742SOL    HW2 2269   1.592   5.140  10.188 -0.5629 -0.9222 -1.2300
32743SOL     OW 2270   5.767   9.163   6.626  0.4021 -0.2739 -0.0502
32743SOL    HW1 2271   5.674   9.150   6.643  0.7938 -0.1948  2.6467
32743SOL    HW2 2272   5.778   9.258   6.622  0.3320 -0.2895 -0.7548
32744SOL     OW 2273   0.247   3.482   1.777 -0.1053 -0.1838 -0.2727
32744SOL    HW1 2274   0.228   3.548   1.844 -1.3218  0.1461 -0.9069
32744SOL    HW2 2275   0.187   3.410   1.797 -0.1322 -0.2878 -0.7176
32745SOL     OW 2276   5.176   3.618   1.219  0.2449  0.3126 -0.3201
32745SOL    HW1 2277   5.240   3.638   1.151  0.2141  0.8129 -0.2082
32745SOL    HW2 2278   5.147   3.529   1.200  0.7326  0.2046 -0.5631
32746SOL     OW 2279   3.503   8.988   1.102 -0.6245 -0.2536  0.1285
32746SOL    HW1 2280   3.507   9.076   1.063 -0.4924  0.0839  0.8828
32746SOL    HW2 2281   3.589   8.975   1.140 -0.9030 -0.3673  0.7366
32747SOL     OW 2282   9.302   8.413   2.355  0.0054  0.1270  0.3419
32747SOL    HW1 2283   9.334   8.356   2.285 -1.9443 -2.1398  1.1529
32747SOL    HW2 2284   9.333   8.372   2.435  1.5399  2.2584  0.9300
32748SOL     OW 2285   7.939   1.466   0.427 -0.0289 -0.4113 -0.0902
32748SOL    HW1 2286   7.924   1.537   0.364  1.6568 -1.0199 -1.2568
32748SOL    HW2 2287   7.866   1.407   0.415 -1.3617  0.9916  0.7549
32749SOL     OW 2288   3.516   1.235  10.276 -0.3876  0.5723 -0.1556
32749SOL    HW1 2289   3.584   1.279  10.226  0.1558 -1.0966 -0.9777
32749SOL    HW2 2290   3.537   1.255  10.368  0.4801  1.1027 -0.4575
32750SOL     OW 2291   3.431   9.694   2.539  0.1819  0.5290  0.1924
32750SOL    HW1 2292   3.454   9.735   2.622  1.1428  2.9678 -1.1675
32750SOL    HW2 2293   3.515   9.674   2.498 -0.2730 -0.1029 -0.4511
32751SOL     OW 2294   7.767   6.022   8.756 -0.4452 -0.1772 -0.1207
32751SOL    HW1 2295   7.861   6.009   8.771 -0.6485 -0.8056  0.6992
32751SOL    HW2 2296   7.730   6.028   8.844 -1.4368 -1.9103 -0.3900
32752SOL     OW 2297   3.135   0.635   6.067  0.1547 -0.3902 -0.2993
32752SOL    HW1 2298   3.141   0.592   6.152  0.4142 -0.3363 -0.2897
32752SOL    HW2 2299   3.207   0.598   6.016  0.1061 -0.2943 -0.4374
32753SOL     OW 2300  10.057   7.106   1.107  0.4555 -0.6121 -0.1916
32753SOL    HW1 2301  10.048   7.011   1.111 -0.1752 -0.5287  0.3991
32753SOL    HW2 2302  10.124   7.121   1.039  1.4567 -1.5240  0.5607
32754SOL     OW 2303   5.655   8.740   6.701  0.2205 -0.0930 -0.5960
32754SOL    HW1 2304   5.608   8.724   6.619  2.0317  1.2707 -1.9907
32754SOL    HW2 2305   5.741   8.772   6.674  1.6917 -1.6481  1.8373
32755SOL     OW 2306   2.009   0.360   6.035  0.0027  0.5254 -0.3026
32755SOL    HW1 2307   1.962   0.351   6.118  1.5540 -0.6508  0.5103
32755SOL    HW2 2308   1.982   0.283   5.984 -0.1320  0.6707 -0.4492
32756SOL     OW 2309   1.131   0.367   8.697  0.1608  0.0217  0.7318
32756SOL    HW1 2310   1.223   0.384   8.677  0.5228  0.7161  2.7603
32756SOL    HW2 2311   1.083   0.426   8.639  1.0888  1.3099  1.2338
32757SOL     OW 2312   2.087   4.851   6.836 -0.4817  0.2281  0.2926
32757SOL    HW1 2313   2.085   4.823   6.744  0.7146 -2.2394  0.9443
32757SOL    HW2 2314   2.046   4.779   6.884 -0.2582  1.0634  1.8077
32758SOL     OW 2315   6.511   9.433   0.304 -0.4723 -0.2355  0.0021
32758SOL    HW1 2316   6.492   9.357   0.359 -0.6824 -0.4334 -0.3439
32758SOL    HW2 2317   6.491   9.508   0.360  1.9808 -0.3672  1.2052
32759SOL     OW 2318   4.265   1.227   6.768  0.1073  0.1276 -0.1228
32759SOL    HW1 2319   4.332   1.172   6.808 -0.3637 -1.0439 -0.8828
32759SOL    HW2 2320   4.212   1.257   6.842  0.5339 -0.2258  0.3331
32760SOL     OW 2321   3.514   2.214   0.790 -0.3233 -0.5973 -0.5630
32760SOL    HW1 2322   3.565   2.245   0.864  0.6600  0.1064 -1.5044
32760SOL    HW2 2323   3.468   2.292   0.758 -2.3058 -1.2712  0.4713
32761SOL     OW 2324   7.056   1.104   1.762 -0.0490 -0.4378 -0.2016
32761SOL    HW1 2325   7.112   1.163   1.812  0.5684 -1.9997  1.0649
32761SOL    HW2 2326   7.114   1.067   1.695 -0.1370 -0.4666 -0.2622
32762SOL     OW 2327   5.002   9.610   0.704 -0.5122  0.2086 -0.0497
32762SOL    HW1 2328   5.082   9.570   0.668 -0.9852 -0.3426 -0.5109
32762SOL    HW2 2329   4.974   9.550   0.772 -1.3635 -0.4005 -0.9129
32763SOL     OW 2330   8.230   2.128   2.356 -0.0389  0.1682 -0.6107
32763SOL    HW1 2331   8.264   2.126   2.445 -0.3747 -1.1688 -0.4917
32763SOL    HW2 2332   8.144   2.087   2.362  0.4025 -1.0126 -1.7244
32764SOL     OW 2333   8.376   2.255   9.222  0.1995 -0.2438  0.4073
32764SOL    HW1 2334   8.380   2.345   9.190 -1.8080 -0.0551  0.5589
32764SOL    HW2 2335   8.374   2.201   9.143 -0.5006 -0.0249  0.2683
32765SOL     OW 2336   6.859   1.886   8.882  0.1326  0.0002 -0.3665
32765SOL    HW1 2337   6.913   1.898   8.804  1.2403  0.8206  0.4927
32765SOL    HW2 2338   6.839   1.793   8.884  1.2721 -0.2669 -0.8672
32766SOL     OW 2339   3.569   6.554   8.295 -0.7085 -0.2309  0.2140
32766SOL    HW1 2340   3.658   6.561   8.329 -1.3206 -3.1199  2.9239
32766SOL    HW2 2341   3.581   6.534   8.202  1.3489  1.2580  0.0881
32767SOL     OW 2342   1.719   3.809   0.788 -0.7235  0.2327 -0.6603
32767SOL    HW1 2343   1.650   3.748   0.763  0.3647 -0.9514 -0.9039
32767SOL    HW2 2344   1.769   3.823   0.708 -0.9889  1.5052 -0.6174
32768SOL     OW 2345   2.752   8.124   8.582  0.3541 -0.0940  0.0916
32768SOL    HW1 2346   2.833   8.160   8.617 -0.2335  0.3179  1.0655
32768SOL    HW2 2347   2.693   8.199   8.575  0.1706 -0.3160 -0.9849
32769SOL     OW 2348   7.944   6.834   1.489 -0.1090  0.7436 -0.2965
32769SOL    HW1 2349   7.911   6.779   1.560  0.1170  0.3890 -0.4621
32769SOL    HW2 2350   7.963   6.772   1.418  1.0162  0.9289 -0.1654
32770SOL     OW 2351   3.471   1.435   1.812  1.2269 -0.1715 -0.6561
32770SOL    HW1 2352   3.493   1.525   1.789  1.4783 -0.2108 -0.5686
32770SOL    HW2 2353   3.478   1.386   1.730  0.3068  0.0335 -0.8735
32771SOL     OW 2354   9.783   2.279   7.039  0.6065 -0.1693 -0.8089
32771SOL    HW1 2355   9.737   2.344   6.986  1.2412 -0.0539 -1.2349
32771SOL    HW2 2356   9.745   2.195   7.011 -1.3323  0.0698  0.8535
32772SOL     OW 2357   3.752  10.287   9.491 -0.0103  0.1756  0.2545
32772SOL    HW1 2358   3.715  10.198   9.493 -2.7509  1.2340  0.8424
32772SOL    HW2 2359   3.803  10.289   9.411  0.5774 -2.0895  0.4929
32773SOL     OW 2360   8.938   2.642   7.609 -0.4012 -0.3487  0.8394
32773SOL    HW1 2361   8.893   2.654   7.692 -1.5388 -0.1565  0.2186
32773SOL    HW2 2362   8.869   2.651   7.543  0.6892  0.9408 -0.2035
32774SOL     OW 2363   8.076   8.138   2.679  0.1354 -0.6209 -0.4028
32774SOL    HW1 2364   8.104   8.076   2.747  1.2780  0.5506  0.2410
32774SOL    HW2 2365   8.026   8.084   2.617  0.2098 -1.9796  0.6552
32775SOL     OW 2366  10.209   1.002   5.722  0.5155 -0.5584  0.4525
32775SOL    HW1 2367  10.142   1.010   5.653  0.3761  0.2344  0.6716
32775SOL    HW2 2368  10.284   1.051   5.687  0.3181  0.1546  1.0126
32776SOL     OW 2369   0.806   8.405   7.905  0.1328 -0.3403  0.0656
32776SOL    HW1 2370   0.895   8.427   7.878  0.5293 -0.3116  1.3598
32776SOL    HW2 2371   0.771   8.486   7.942 -1.5542  0.5651 -3.1236
32777SOL     OW 2372   1.061   5.497   0.976  0.2043  0.9081  0.5714
32777SOL    HW1 2373   1.040   5.426   1.037  0.2844  2.0835  2.0183
32777SOL    HW2 2374   1.057   5.576   1.029  1.9520  1.8165 -0.5606
32778SOL     OW 2375   5.393   3.052   4.277 -0.4115  0.1573  0.3017
32778SOL    HW1 2376   5.407   2.957   4.287 -2.2630 -0.3924 -1.4898
32778SOL    HW2 2377   5.451   3.076   4.205  0.5335  0.5613  1.1729
32779SOL     OW 2378   2.675   7.790   1.190  0.1402  0.2098 -0.3775
32779SOL    HW1 2379   2.663   7.822   1.101 -1.3019 -0.5211 -0.4780
32779SOL    HW2 2380   2.652   7.697   1.186  0.7759 -0.0073  0.6175
32780SOL     OW 2381   4.927   1.456   2.134 -0.2199 -0.0909  0.7639
32780SOL    HW1 2382   5.004   1.414   2.171  2.1258  1.1868 -2.2231
32780SOL    HW2 2383   4.895   1.393   2.068 -1.3408 -0.3000  1.4782
32781SOL     OW 2384   6.153   0.435   7.306  0.0060  0.0575  0.1476
32781SOL    HW1 2385   6.211   0.359   7.308  0.4237  0.3434 -0.7894
32781SOL    HW2 2386   6.066   0.398   7.290  0.0112 -0.3218  0.9513
32782SOL     OW 2387   4.466   5.372   8.631 -0.2826  0.0556  0.5060
32782SOL    HW1 2388   4.488   5.358   8.540 -0.4003 -0.5549  0.5685
32782SOL    HW2 2389   4.455   5.284   8.668 -2.5531  0.2828  0.5331
32783SOL     OW 2390   9.147   6.509   9.310 -0.4289  0.0887  0.4828
32783SOL    HW1 2391   9.120   6.600   9.317  2.3007  1.1720 -1.3487
32783SOL    HW2 2392   9.207   6.496   9.383 -0.4935 -0.0985  0.5022
32784SOL     OW 2393   8.768   6.594   6.193 -0.1522 -0.0049  0.0851
32784SOL    HW1 2394   8.818   6.675   6.184 -1.1146  0.6363  0.3669
32784SOL    HW2 2395   8.797   6.539   6.121  1.6084 -0.0135  0.7637
32785SOL     OW 2396   6.825   8.042   9.120 -0.5488 -0.7990 -0.1525
32785SOL    HW1 2397   6.895   8.067   9.060  0.1204 -2.9864 -0.3668
32785SOL    HW2 2398   6.762   7.996   9.065 -1.7807  0.4207  0.1926
32786SOL     OW 2399   0.680   4.702   2.402 -0.7223  0.0485 -0.1138
32786SOL    HW1 2400   0.635   4.723   2.320 -0.3914  2.8876  0.3432
32786SOL    HW2 2401   0.631   4.748   2.469  0.3770 -0.3249  0.9848
32787SOL     OW 2402   9.047   7.197   9.822  0.0864  0.2664  0.4353
32787SOL    HW1 2403   9.081   7.209   9.733 -0.6676  2.5194  0.3809
32787SOL    HW2 2404   8.980   7.129   9.813  0.9410 -0.4935 -0.4318
32788SOL     OW 2405   0.046   5.228   9.067 -0.1631  0.1198  0.0065
32788SOL    HW1 2406  -0.013   5.301   9.082  1.2195  1.1326  0.6688
32788SOL    HW2 2407   0.069   5.234   8.974 -0.5884  0.0972 -0.1017
32789SOL     OW 2408   8.545   1.713   6.895  0.7314  0.4146  0.3813
32789SOL    HW1 2409   8.532   1.632   6.945  0.0834 -0.1555 -0.6907
32789SOL    HW2 2410   8.457   1.745   6.876  0.9643  0.4917 -0.6073
32790SOL     OW 2411   5.189   5.312   8.259 -0.0030  0.0667  0.4853
32790SOL    HW1 2412   5.162   5.362   8.336 -0.9056 -1.6481  1.3414
32790SOL    HW2 2413   5.173   5.220   8.283  0.5056 -0.5690 -1.4283
32791SOL     OW 2414   0.099   0.060   2.294  0.0137 -0.0387 -0.0401
32791SOL    HW1 2415   0.161   0.018   2.235 -0.5679 -0.0006 -0.6953
32791SOL    HW2 2416   0.014   0.049   2.251 -0.3875  0.2090  0.6714
32792SOL     OW 2417  10.042   4.292   3.224 -0.6398 -0.0538 -0.3495
32792SOL    HW1 2418  10.020   4.245   3.304  1.0468  0.5209  0.5055
32792SOL    HW2 2419   9.991   4.373   3.229  0.4871  0.6134  0.8723
32793SOL     OW 2420   4.514   9.515   5.300 -0.0545  0.2561  0.0458
32793SOL    HW1 2421   4.577   9.587   5.294  0.8061 -0.3981  0.8920
32793SOL    HW2 2422   4.485   9.516   5.391 -1.5528  0.7658 -0.4195
32794SOL     OW 2423   0.780   4.973   6.707 -0.0025 -0.2284 -0.0965
32794SOL    HW1 2424   0.713   4.949   6.643  0.5686  1.3551 -1.3435
32794SOL    HW2 2425   0.761   5.064   6.729  0.7854 -0.2584  0.7710
32795SOL     OW 2426   0.176   2.566   1.177  0.2737 -0.0121  0.3838
32795SOL    HW1 2427   0.189   2.520   1.260  0.4036  1.1257  1.0183
32795SOL    HW2 2428   0.166   2.658   1.202 -1.9714  0.0956 -0.6500
32796SOL     OW 2429   8.635   8.458   1.842 -0.6731  0.1925  0.3684
32796SOL    HW1 2430   8.686   8.408   1.779  0.2195  0.4075  0.9028
32796SOL    HW2 2431   8.551   8.473   1.799  0.1230  0.8353 -1.0039
32797SOL     OW 2432   2.844   7.928   9.562  0.8038 -0.0719 -0.0889
32797SOL    HW1 2433   2.925   7.889   9.530  0.7245 -1.5280  1.3481
32797SOL    HW2 2434   2.832   7.890   9.649 -1.1341  0.5402 -0.0445
32798SOL     OW 2435   2.178   3.673   5.898 -0.7621  0.4980 -0.4703
32798SOL    HW1 2436   2.125   3.743   5.861  2.0670  1.5848 -2.9560
32798SOL    HW2 2437   2.153   3.595   5.849 -2.7655  0.0318  1.1743
32799SOL     OW 2438   1.844   4.460   7.687 -0.3075 -1.0082  0.6725
32799SOL    HW1 2439   1.819   4.374   7.654 -0.8912 -0.8444  0.6755
32799SOL    HW2 2440   1.762   4.510   7.687 -0.0094 -0.5181  0.8602
32800SOL     OW 2441   0.947   4.083   2.558  0.1766 -0.3779 -0.5920
32800SOL    HW1 2442   0.882   4.053   2.493 -0.9321 -0.1044  0.3554
32800SOL    HW2 2443   0.932   4.177   2.564 -1.8874 -0.7483  2.2371
32801SOL     OW 2444   6.712   7.543   7.991 -0.2683 -0.2202 -0.4381
32801SOL    HW1 2445   6.672   7.488   7.924 -0.6702  0.9917 -1.2177
32801SOL    HW2 2446   6.639   7.592   8.028 -0.0732 -0.9402  0.9945
32802SOL     OW 2447   0.537   3.132   2.211 -0.2292 -0.1456 -0.6243
32802SOL    HW1 2448   0.509   3.221   2.187 -0.6083 -0.2817 -0.6945
32802SOL    HW2 2449   0.632   3.134   2.204 -0.3468 -0.6655 -3.9322
32803SOL     OW 2450   7.131   0.183   4.565 -0.3895 -0.0729  0.3338
32803SOL    HW1 2451   7.143   0.216   4.476  0.2781 -1.2041 -0.0066
32803SOL    HW2 2452   7.214   0.199   4.608 -1.0000  1.3081  1.0561
32804SOL     OW 2453   0.898   8.379   3.502 -0.1533  0.2350 -0.3566
32804SOL    HW1 2454   0.929   8.469   3.490 -1.4995  0.9015  0.8342
32804SOL    HW2 2455   0.835   8.385   3.574 -0.6860 -1.5807 -0.6245
32805SOL     OW 2456   1.205   8.884   0.631  0.0332 -0.3425  0.4767
32805SOL    HW1 2457   1.161   8.864   0.549  2.0238  1.1231 -1.0693
32805SOL    HW2 2458   1.284   8.829   0.630  0.3010  0.0053  1.1776
32806SOL     OW 2459   7.974   9.826  10.079 -0.4801 -0.2680 -0.3862
32806SOL    HW1 2460   7.938   9.738  10.082 -3.5692  0.9045  1.5039
32806SOL    HW2 2461   8.016   9.838  10.164  0.1021  0.0227 -0.7077
32807SOL     OW 2462   7.122   8.511   2.303 -0.2309 -0.1175  0.1632
32807SOL    HW1 2463   7.176   8.560   2.240 -0.5526  1.1941  0.8812
32807SOL    HW2 2464   7.182   8.446   2.339 -0.2589 -1.5170 -2.1188
32808SOL     OW 2465   1.330   4.127   8.612 -0.3979  0.3857 -0.0497
32808SOL    HW1 2466   1.304   4.053   8.557  1.0014  1.5815 -2.4711
32808SOL    HW2 2467   1.404   4.095   8.663  0.0234  0.0058 -0.8835
32809SOL     OW 2468   5.154   4.507   1.457 -0.5855 -0.1027  0.2167
32809SOL    HW1 2469   5.095   4.546   1.394 -0.4412 -0.8201 -0.3710
32809SOL    HW2 2470   5.106   4.509   1.540 -1.3953 -0.5931 -0.2370
32810SOL     OW 2471   7.722   1.373   5.860 -0.1822 -0.3932  0.7353
32810SOL    HW1 2472   7.655   1.441   5.854 -1.2827 -1.5201 -0.1529
32810SOL    HW2 2473   7.722   1.331   5.774 -0.0576 -1.9901  1.4781
32811SOL     OW 2474   3.191   4.634  10.154 -0.3781  0.0200  0.1350
32811SOL    HW1 2475   3.223   4.584  10.230 -1.5187  1.6658  1.7874
32811SOL    HW2 2476   3.100   4.656  10.177 -0.3734  1.5714 -1.1956
32812SOL     OW 2477   6.799   5.790   3.106  0.7771  0.2672 -0.0233
32812SOL    HW1 2478   6.861   5.860   3.126  1.0867  0.1717 -0.6278
32812SOL    HW2 2479   6.736   5.828   3.045  0.8677  0.0593 -0.2497
32813SOL     OW 2480   8.440   8.317   7.774 -0.1646  0.1352  0.2634
32813SOL    HW1 2481   8.402   8.400   7.745  0.6035  0.2213 -0.5199
32813SOL    HW2 2482   8.501   8.342   7.844  0.9972  0.3816 -0.8183
32814SOL     OW 2483   4.648   1.647   6.253  0.6360 -0.5534 -0.4180
32814SOL    HW1 2484   4.649   1.729   6.302 -2.4706  0.3546 -1.6547
32814SOL    HW2 2485   4.590   1.590   6.303  1.3083 -1.3639 -0.5468
32815SOL     OW 2486   6.683   0.762   3.598 -0.2249  0.5611  0.3230
32815SOL    HW1 2487   6.742   0.790   3.528 -0.5256  2.5633  0.8101
32815SOL    HW2 2488   6.672   0.668   3.584  3.1098  0.0705  0.2537
32816SOL     OW 2489  10.295   7.640   5.678 -0.0742 -0.0910 -0.3671
32816SOL    HW1 2490  10.315   7.561   5.728 -0.4066 -1.7274 -2.6799
32816SOL    HW2 2491  10.226   7.684   5.730 -1.4403 -2.4491 -0.0464
32817SOL     OW 2492   6.000   9.510   7.205 -0.2131  0.2245 -0.0778
32817SOL    HW1 2493   6.076   9.568   7.196  0.1976 -0.4886 -1.2500
32817SOL    HW2 2494   5.937   9.542   7.141 -1.2292  1.2398  1.3410
32818SOL     OW 2495   7.957   6.728   5.770 -0.1335 -0.0645 -0.6617
32818SOL    HW1 2496   8.002   6.704   5.852  0.8226 -0.6134 -1.3275
32818SOL    HW2 2497   7.872   6.685   5.776  0.9522 -2.4874 -1.1430
32819SOL     OW 2498   7.112   1.263   7.610 -0.0865  0.8971 -0.0283
32819SOL    HW1 2499   7.018   1.280   7.610 -0.0376  1.2039  0.9755
32819SOL    HW2 2500   7.141   1.285   7.698  0.8035  0.0967 -0.0972
32820SOL     OW 2501   4.685   0.180   4.001  0.7028  0.2108  0.1043
32820SOL    HW1 2502   4.755   0.153   3.941  0.9350  1.7725 -0.3636
32820SOL    HW2 2503   4.675   0.105   4.061  4.0030  0.5565  1.2982
32821SOL     OW 2504   1.699   3.966   9.597 -0.5436  0.2093  0.2328
32821SOL    HW1 2505   1.786   3.928   9.613 -1.3964 -1.9615  0.0279
32821SOL    HW2 2506   1.717   4.046   9.547  1.3829  0.4475  1.2115
32822SOL     OW 2507   2.268   8.201   5.607  0.4141 -0.2161 -0.2567
32822SOL    HW1 2508   2.229   8.115   5.596  0.3146 -0.1681 -0.2778
32822SOL    HW2 2509   2.194   8.262   5.602  0.3847 -0.1802  0.4584
32823SOL     OW 2510   1.242   3.837   8.060 -0.2797 -0.0055 -0.0665
32823SOL    HW1 2511   1.229   3.932   8.057 -0.2074  0.0896  1.6434
32823SOL    HW2 2512   1.311   3.820   7.996 -0.5670  1.0340 -0.6724
32824SOL     OW 2513   8.791   6.911   4.611  0.5397 -0.8067  0.5359
32824SOL    HW1 2514   8.831   6.828   4.635 -1.2026 -1.7880  0.2139
32824SOL    HW2 2515   8.760   6.898   4.521 -0.5391 -0.1257  0.7844
32825SOL     OW 2516   9.849   9.264   3.476  0.3862 -0.1449  0.0802
32825SOL    HW1 2517   9.879   9.240   3.388 -1.5618 -1.6498 -0.2488
32825SOL    HW2 2518   9.848   9.182   3.525 -0.8048  0.2453  0.7648
32826SOL     OW 2519   8.797   2.354   8.523 -0.1275  0.0360  0.6715
32826SOL    HW1 2520   8.766   2.378   8.436  1.9472  0.2041 -0.0700
32826SOL    HW2 2521   8.784   2.259   8.528 -1.5839  0.2176  0.7735
32827SOL     OW 2522   9.738   1.332   1.233  0.0701 -0.4117 -0.0581
32827SOL    HW1 2523   9.657   1.326   1.182  1.2292 -1.5751 -1.8871
32827SOL    HW2 2524   9.777   1.245   1.226  3.1969  0.9679 -2.2949
32828SOL     OW 2525   1.846   0.111   6.012 -0.0937  0.5611  0.2975
32828SOL    HW1 2526   1.909   0.046   5.981 -0.8112 -0.7710  1.5192
32828SOL    HW2 2527   1.768   0.060   6.035 -0.9764  1.9584  0.5417
32829SOL     OW 2528   5.562  10.240   9.332 -0.6363 -0.0773 -0.8923
32829SOL    HW1 2529   5.530  10.329   9.337  1.3042  0.6192  0.8968
32829SOL    HW2 2530   5.494  10.187   9.373 -0.4377  1.0714  1.0434
32830SOL     OW 2531   4.473   7.657   1.842  0.2000  0.0790  0.3843
32830SOL    HW1 2532   4.379   7.638   1.836 -0.1642  1.5365  1.1206
32830SOL    HW2 2533   4.485   7.737   1.791  0.7600  0.7678  1.5502
32831SOL     OW 2534   2.346   0.298   9.001 -0.2952  0.3312 -0.6867
32831SOL    HW1 2535   2.311   0.349   8.928  1.9147  0.6960 -1.5675
32831SOL    HW2 2536   2.399   0.361   9.051 -0.8250 -0.1930  0.5800
32832SOL     OW 2537   3.314   4.658   6.515 -0.4743 -0.3649  0.3524
32832SOL    HW1 2538   3.239   4.717   6.526 -0.3334 -0.0247 -0.4996
32832SOL    HW2 2539   3.323   4.616   6.601 -1.1495  0.1699  0.6983
32833SOL     OW 2540   6.233   7.055   3.542 -0.2199 -0.1350  0.4539
32833SOL    HW1 2541   6.314   7.038   3.493  0.9011 -0.6362  2.3361
32833SOL    HW2 2542   6.236   7.149   3.560 -0.9376  0.1641 -0.8877
32834SOL     OW 2543   3.889   5.085   0.793  0.3644 -0.0819 -0.0888
32834SOL    HW1 2544   3.932   5.109   0.875  0.3887 -1.4824  0.3504
32834SOL    HW2 2545   3.795   5.095   0.811  0.4150  1.5934 -0.5856
32835SOL     OW 2546   6.428   4.001   2.573 -0.2294  0.5055  0.6560
32835SOL    HW1 2547   6.513   3.970   2.605 -0.9432 -1.4516  0.7869
32835SOL    HW2 2548   6.373   4.004   2.651 -1.0418 -1.0005  0.1753
32836SOL     OW 2549  10.066   0.185  10.194  0.0493  0.5169  0.2384
32836SOL    HW1 2550  10.096   0.104  10.235 -0.1726  0.5406  0.4517
32836SOL    HW2 2551  10.130   0.203  10.125  0.1812  0.2410  0.2889
32837SOL     OW 2552   9.899   4.142   1.702  0.6889  0.0557  0.8846
32837SOL    HW1 2553   9.827   4.130   1.641  0.1373 -1.4959  1.7857
32837SOL    HW2 2554   9.857   4.178   1.781  1.4267  2.2849  0.3237
32838SOL     OW 2555   4.129   9.101   9.262 -0.1184  0.3755 -0.1076
32838SOL    HW1 2556   4.137   9.170   9.195 -1.1035  1.5887  0.9772
32838SOL    HW2 2557   4.204   9.115   9.319  1.1261 -1.1011 -1.2623
32839SOL     OW 2558   2.083   5.047   1.703 -0.2420  0.2333 -0.5155
32839SOL    HW1 2559   1.995   5.069   1.734  0.8156  1.0250  2.2566
32839SOL    HW2 2560   2.130   5.130   1.703  1.0354 -0.4682  0.0212
32840SOL     OW 2561   2.139   4.808  10.272  0.8126  0.2460 -0.5071
32840SOL    HW1 2562   2.139   4.902  10.288  0.7607  0.1215  0.2545
32840SOL    HW2 2563   2.062   4.776  10.318  2.0210 -0.4646  1.1475
32841SOL     OW 2564   4.686   7.207   0.931 -0.0986  0.1286  0.2064
32841SOL    HW1 2565   4.701   7.208   0.836  1.0427  0.5860  0.3822
32841SOL    HW2 2566   4.705   7.296   0.959  0.1940 -0.1663  0.9605
32842SOL     OW 2567   7.499   2.515   3.351 -0.3249  1.0140  0.1372
32842SOL    HW1 2568   7.575   2.521   3.408 -1.1318  0.3799  1.3325
32842SOL    HW2 2569   7.428   2.555   3.402 -1.5153 -1.3301  0.4460
32843SOL     OW 2570   0.927   6.645   9.916  0.2363  0.3751  0.5887
32843SOL    HW1 2571   0.863   6.657   9.986  0.2872  0.5322  0.6087
32843SOL    HW2 2572   0.882   6.677   9.838  0.7914  1.8416  0.8319
32844SOL     OW 2573   5.262   9.508   4.142  0.3022  0.3322  0.4970
32844SOL    HW1 2574   5.320   9.579   4.172  0.2943 -0.1876  1.8020
32844SOL    HW2 2575   5.227   9.540   4.059  0.3440  1.8473  1.0199
32845SOL     OW 2576   3.725   3.082   9.103 -0.4954 -0.4573  0.6739
32845SOL    HW1 2577   3.809   3.041   9.124 -0.9445 -1.3517  0.7842
32845SOL    HW2 2578   3.706   3.055   9.013 -1.1776 -1.1878  1.0192
32846SOL     OW 2579   1.985   7.107   2.090 -0.4395  0.2392  0.0051
32846SOL    HW1 2580   1.981   7.024   2.042 -0.0898 -0.5447  1.2875
32846SOL    HW2 2581   1.895   7.138   2.091 -0.4471  0.2942 -1.1778
32847SOL     OW 2582   6.694   3.448   7.034  0.4857 -0.7563 -0.1600
32847SOL    HW1 2583   6.741   3.466   7.115 -0.5526 -0.4136  0.3882
32847SOL    HW2 2584   6.641   3.370   7.054 -0.2958 -0.2659 -0.2759
32848SOL     OW 2585   0.108   6.672   8.357  0.3544  0.0189 -0.0703
32848SOL    HW1 2586   0.086   6.590   8.313 -0.6971 -0.1006  0.6368
32848SOL    HW2 2587   0.037   6.732   8.333 -0.5624 -0.2242  1.8691
32849SOL     OW 2588   5.043   8.476   3.016  0.2438 -0.0745 -0.0813
32849SOL    HW1 2589   5.121   8.484   3.071  1.3357  0.8356 -1.6924
32849SOL    HW2 2590   5.007   8.565   3.011 -0.5127 -0.3577  0.0577
32850SOL     OW 2591   8.305   4.262   6.497  0.2208 -0.2720  0.3909
32850SOL    HW1 2592   8.236   4.307   6.544  0.5524 -0.5463  1.1479
32850SOL    HW2 2593   8.354   4.214   6.564  1.8599  0.8353  0.0568
32851SOL     OW 2594   7.731   1.634   1.627 -1.0057  1.1482  0.2997
32851SOL    HW1 2595   7.657   1.576   1.610 -2.3040  2.5892  0.8156
32851SOL    HW2 2596   7.731   1.645   1.722  1.6694 -1.0629  0.6762
32852SOL     OW 2597   5.189   4.305   4.117 -0.2817  0.7428  0.4379
32852SOL    HW1 2598   5.228   4.256   4.189 -1.3323  0.9113  1.1411
32852SOL    HW2 2599   5.184   4.395   4.150  1.2717  1.2872 -0.6916
32853SOL     OW 2600   0.112   9.721  10.048 -0.1967 -0.5896  0.1984
32853SOL    HW1 2601   0.027   9.702  10.088 -0.2526 -0.1331  0.3039
32853SOL    HW2 2602   0.175   9.674  10.103 -0.0565  1.7041  2.1637
32854SOL     OW 2603  10.278   0.216   3.241 -0.3858  0.1416 -0.3054
32854SOL    HW1 2604  10.210   0.178   3.186  0.1843 -0.9571 -0.2722
32854SOL    HW2 2605  10.353   0.157   3.232  0.6121  1.3763 -0.4190
32855SOL     OW 2606   7.387   8.169   6.050  0.3376  0.0806  0.3251
32855SOL    HW1 2607   7.425   8.082   6.038 -1.1779 -0.5360 -0.2234
32855SOL    HW2 2608   7.360   8.171   6.142 -0.3235 -0.3349  0.1462
32856SOL     OW 2609   5.878   3.355   1.474  0.2154  0.3248  0.6876
32856SOL    HW1 2610   5.872   3.401   1.391 -1.5200  1.1548  1.2164
32856SOL    HW2 2611   5.928   3.413   1.531 -1.5682  1.4237  1.2130
32857SOL     OW 2612   3.744   0.092   2.660  0.2841 -0.1798 -0.3317
32857SOL    HW1 2613   3.666   0.126   2.704 -0.6463  0.3563 -2.3000
32857SOL    HW2 2614   3.735  -0.003   2.665  0.6508 -0.1557  1.3451
32858SOL     OW 2615   4.370  10.014   7.493  0.0406 -0.6022  0.1958
32858SOL    HW1 2616   4.306  10.015   7.422  0.7300  0.0494 -0.4416
32858SOL    HW2 2617   4.394   9.922   7.504 -0.3853 -0.7503 -0.1299
32859SOL     OW 2618   5.352   2.121   6.237 -0.1854 -0.8286  0.2570
32859SOL    HW1 2619   5.379   2.212   6.248  0.3961 -1.1588  1.8514
32859SOL    HW2 2620   5.339   2.089   6.326  1.0512 -2.7212 -0.1731
32860SOL     OW 2621   5.005   4.050   0.810  0.0007  0.1469 -0.0450
32860SOL    HW1 2622   4.953   4.128   0.829  0.5970  0.3876  0.6369
32860SOL    HW2 2623   5.016   4.008   0.895 -1.3388 -1.3523 -0.5639
32861SOL     OW 2624   1.872   6.237   2.594  0.5920 -0.3635 -0.3044
32861SOL    HW1 2625   1.831   6.284   2.522  0.0900 -0.5700 -0.1593
32861SOL    HW2 2626   1.877   6.146   2.563  1.6351 -0.2152 -0.6196
32862SOL     OW 2627   5.330   6.345   7.709  0.6838 -0.3130  0.0163
32862SOL    HW1 2628   5.390   6.419   7.703 -1.5373  1.5138 -1.0170
32862SOL    HW2 2629   5.264   6.373   7.773  0.3735 -1.8527  0.4059
32863SOL     OW 2630   5.246   1.508   2.019  0.1516  0.0852  0.2024
32863SOL    HW1 2631   5.208   1.464   2.095 -0.0340  0.0269  0.0772
32863SOL    HW2 2632   5.339   1.519   2.041  0.1551 -0.1779  0.3218
32864SOL     OW 2633   4.751   5.057   0.416  0.0309  0.2093  0.1144
32864SOL    HW1 2634   4.715   4.969   0.425  2.8929 -1.1130 -0.3785
32864SOL    HW2 2635   4.739   5.097   0.503 -3.4815  0.3584 -0.3013
32865SOL     OW 2636   8.132   8.058   0.914  0.6126  0.6714  0.2472
32865SOL    HW1 2637   8.198   8.031   0.851  1.8399  0.7821  1.4271
32865SOL    HW2 2638   8.177   8.120   0.972 -0.3792  0.3946  1.3800
32866SOL     OW 2639  10.211   0.576   8.289  0.3097 -0.4197 -0.0791
32866SOL    HW1 2640  10.303   0.571   8.315  0.7338  0.3068 -1.3340
32866SOL    HW2 2641  10.165   0.599   8.370  1.3302 -0.0254  0.4130
32867SOL     OW 2642   2.058  10.235   5.925 -0.5858  0.4657  0.1982
32867SOL    HW1 2643   2.060  10.219   5.831 -0.5306  0.4408  0.2033
32867SOL    HW2 2644   2.148  10.261   5.947 -0.5790  0.3930  0.2567
32868SOL     OW 2645   7.413   8.593   8.025 -0.0187 -0.6255  0.3266
32868SOL    HW1 2646   7.417   8.688   8.032 -2.7168 -0.3718 -0.5949
32868SOL    HW2 2647   7.407   8.562   8.115 -0.5957  0.2080  0.5835
32869SOL     OW 2648   7.177   2.176   0.904  0.2111  0.4319 -0.4700
32869SOL    HW1 2649   7.130   2.258   0.886  0.7368  0.5515 -1.3298
32869SOL    HW2 2650   7.134   2.142   0.983 -2.5566 -0.3672 -2.1617
32870SOL     OW 2651   2.554   5.616   4.815 -0.1749  0.1294 -0.1036
32870SOL    HW1 2652   2.612   5.590   4.886 -1.5296 -1.2269  0.5659
32870SOL    HW2 2653   2.520   5.533   4.780  0.5011  0.7373 -2.4279
32871SOL     OW 2654   6.593   9.715   4.638  0.1318  0.1316  0.6516
32871SOL    HW1 2655   6.534   9.791   4.635 -0.1332 -0.1121 -1.2774
32871SOL    HW2 2656   6.680   9.753   4.638 -0.0038  0.4518  0.0134
32872SOL     OW 2657   5.088   9.562   5.716 -1.2171  0.0122  0.2085
32872SOL    HW1 2658   5.135   9.595   5.639 -0.0898  3.6193  2.1840
32872SOL    HW2 2659   5.146   9.494   5.752  0.4787  1.3938  0.2338
32873SOL     OW 2660   0.629   7.257   0.669  0.2903  0.2077 -0.2753
32873SOL    HW1 2661   0.619   7.352   0.677 -0.4481 -0.0164  1.9829
32873SOL    HW2 2662   0.637   7.243   0.575 -2.3051  2.2718 -0.9514
32874SOL     OW 2663   8.682   5.079   2.756 -0.4838  0.6740 -0.0349
32874SOL    HW1 2664   8.665   5.000   2.808 -0.7411  0.6753 -0.1139
32874SOL    HW2 2665   8.676   5.049   2.665  0.9542  0.4580 -0.0808
32875SOL     OW 2666   7.862   9.833   6.979 -0.4623 -0.1680 -0.9011
32875SOL    HW1 2667   7.882   9.922   7.009  2.5734 -0.8351 -0.6424
32875SOL    HW2 2668   7.844   9.843   6.885 -1.2602  0.8100 -0.6675
32876SOL     OW 2669  10.046   2.636   9.892 -0.2744 -0.1624  0.0491
32876SOL    HW1 2670  10.063   2.641   9.798 -0.4278 -0.3650  0.0091
32876SOL    HW2 2671  10.013   2.723   9.915  2.8490  0.9864  0.5577
32877SOL     OW 2672   1.013   1.293   3.548  0.2361  0.2679  0.1743
32877SOL    HW1 2673   1.007   1.262   3.638 -1.5449 -0.1426 -0.0356
32877SOL    HW2 2674   1.105   1.314   3.535  0.9496 -1.7978  1.3861
32878SOL     OW 2675   6.194   8.193   8.067 -0.0714 -0.5824 -0.2684
32878SOL    HW1 2676   6.261   8.188   7.999 -0.3178 -0.3651 -0.5276
32878SOL    HW2 2677   6.212   8.275   8.113 -0.7546 -0.0323 -0.9652
32879SOL     OW 2678   6.050   6.171   7.100 -0.5376 -0.7662  0.7049
32879SOL    HW1 2679   5.962   6.177   7.135  0.6427  0.7630  3.7489
32879SOL    HW2 2680   6.075   6.261   7.081  0.2462 -1.2149 -0.5108
32880SOL     OW 2681   6.191   5.137   1.922 -0.2298 -0.0485 -0.5120
32880SOL    HW1 2682   6.227   5.097   1.843  1.8306  2.3188 -0.9298
32880SOL    HW2 2683   6.204   5.071   1.991  3.9249  0.0706 -0.9368
32881SOL     OW 2684   6.227   8.373   9.748  0.4110 -0.0695  0.5107
32881SOL    HW1 2685   6.220   8.428   9.670  1.8396 -0.5980 -0.0074
32881SOL    HW2 2686   6.136   8.364   9.779  0.0846  2.1683  0.3483
32882SOL     OW 2687   9.203   0.820   0.679 -0.0932  0.8558 -0.2633
32882SOL    HW1 2688   9.226   0.727   0.685 -0.5400  0.6872 -1.1064
32882SOL    HW2 2689   9.147   0.835   0.755 -0.6609  0.2458 -0.5510
32883SOL     OW 2690   8.437   6.460   4.402  0.0649  0.5684  0.6042
32883SOL    HW1 2691   8.445   6.554   4.420  0.7343  0.4528  0.9515
32883SOL    HW2 2692   8.515   6.422   4.442 -0.3068 -0.1652  0.6317
32884SOL     OW 2693   2.975   2.687   4.266  0.8341  0.3730  0.3901
32884SOL    HW1 2694   2.969   2.604   4.313  1.1883  0.6550  0.9520
32884SOL    HW2 2695   3.067   2.693   4.240  0.8934  0.7619  0.6843
32885SOL     OW 2696   0.981   9.779   5.193 -0.3996 -0.2320 -0.0784
32885SOL    HW1 2697   0.970   9.709   5.258  0.4514 -1.3131 -1.0584
32885SOL    HW2 2698   1.073   9.775   5.169 -0.6864  0.1939 -1.3043
32886SOL     OW 2699   7.199   4.249   1.302  0.1580 -0.0666 -0.5965
32886SOL    HW1 2700   7.107   4.231   1.320  0.4045 -0.1353  0.6900
32886SOL    HW2 2701   7.225   4.179   1.242 -1.2210  1.3530 -3.0195
32887SOL     OW 2702   5.655   7.667   6.305  0.4074  0.0711 -0.0038
32887SOL    HW1 2703   5.746   7.641   6.315  0.8037  1.4527  0.1658
32887SOL    HW2 2704   5.656   7.735   6.237 -0.4760  0.1637  0.0582
32888SOL     OW 2705   8.072   4.430   3.727  0.3659 -0.3623 -0.2504
32888SOL    HW1 2706   8.145   4.482   3.761  0.2437 -0.0596 -0.4533
32888SOL    HW2 2707   8.075   4.442   3.632 -1.0852  1.1858 -0.1513
32889SOL     OW 2708   8.908   0.453   6.266 -0.4069 -0.1299  0.1795
32889SOL    HW1 2709   8.982   0.511   6.286  0.7970 -1.4730 -0.2662
32889SOL    HW2 2710   8.847   0.466   6.339  0.3497  0.8369  0.6622
32890SOL     OW 2711   8.281   1.552   3.573 -0.1597 -0.3061  0.4325
32890SOL    HW1 2712   8.375   1.553   3.589 -0.2072 -0.9687  0.7865
32890SOL    HW2 2713   8.269   1.488   3.503 -0.4148 -0.7832  0.9006
32891SOL     OW 2714   3.295   0.190   1.217 -0.3516 -0.3865  0.2140
32891SOL    HW1 2715   3.338   0.275   1.201  0.6340 -0.7850  0.6381
32891SOL    HW2 2716   3.223   0.188   1.155 -3.5144  2.8796  3.2922
32892SOL     OW 2717  10.118   8.633   0.600 -0.8565  0.0597 -0.1165
32892SOL    HW1 2718  10.185   8.565   0.610 -1.3623 -0.5719 -0.9062
32892SOL    HW2 2719  10.125   8.685   0.680  0.0937 -0.4222  0.1345
32893SOL     OW 2720   0.001   7.025   4.159 -0.2952 -0.4825  0.0532
32893SOL    HW1 2721  -0.044   7.056   4.080  0.7636  1.9749  0.3114
32893SOL    HW2 2722  -0.047   7.066   4.231 -0.2137 -1.3375  0.6120
32894SOL     OW 2723   0.496   4.899   3.188  0.3113 -0.2056  0.0385
32894SOL    HW1 2724   0.438   4.837   3.146 -1.1326  1.4647 -0.5568
32894SOL    HW2 2725   0.450   4.924   3.269  0.0449  1.3187 -0.5590
32895SOL     OW 2726   1.103   7.286   8.155 -0.5544 -0.3683 -0.3513
32895SOL    HW1 2727   1.045   7.214   8.178  0.6606 -1.8408 -1.6330
32895SOL    HW2 2728   1.072   7.316   8.070 -0.7191  0.2815 -0.0706
32896SOL     OW 2729  10.108   0.588   5.699  0.1951 -0.0951 -0.1771
32896SOL    HW1 2730  10.197   0.567   5.672 -0.2039 -1.0972 -0.7734
32896SOL    HW2 2731  10.058   0.589   5.617 -0.4337 -0.0284  0.2015
32897SOL     OW 2732   0.341   2.075   9.051  0.0670 -0.3284  0.1980
32897SOL    HW1 2733   0.309   2.048   9.137  0.5300 -0.2648  0.3946
32897SOL    HW2 2734   0.373   2.165   9.065 -0.3875 -0.1004 -0.1766
32898SOL     OW 2735   1.475   0.947   8.800 -0.1225  0.4652 -0.4108
32898SOL    HW1 2736   1.531   0.962   8.876  2.2762 -4.1280 -0.9236
32898SOL    HW2 2737   1.387   0.939   8.837  0.5072  1.3237  1.4158
32899SOL     OW 2738   8.843   3.683   8.808  0.7437 -0.2020  0.2037
32899SOL    HW1 2739   8.772   3.728   8.854  1.8126  0.7046  1.0187
32899SOL    HW2 2740   8.922   3.703   8.859  1.3446 -2.7161  0.4038
32900SOL     OW 2741   1.337   3.581   3.277  0.1508  0.2747  0.1449
32900SOL    HW1 2742   1.298   3.558   3.193  0.2152  2.4678 -0.5543
32900SOL    HW2 2743   1.417   3.528   3.282  0.8201  0.9901 -1.8192
32901SOL     OW 2744   2.137   2.818   0.004 -0.0550 -0.1350  0.1527
32901SOL    HW1 2745   2.119   2.748  -0.058 -0.3929  1.1478 -1.2808
32901SOL    HW2 2746   2.051   2.849   0.032 -0.0632  1.6681 -1.6128
32902SOL     OW 2747   6.386   3.100   3.165 -0.1659 -0.4747 -0.4382
32902SOL    HW1 2748   6.452   3.038   3.197  0.6299  1.2563  1.5464
32902SOL    HW2 2749   6.302   3.059   3.187  0.3426 -0.7838  1.0438
32903SOL     OW 2750   6.745   6.176   0.154 -0.0507 -0.1938  0.3192
32903SOL    HW1 2751   6.765   6.193   0.246  1.3326 -0.0839  0.0170
32903SOL    HW2 2752   6.663   6.223   0.138  0.9579  1.8453  0.8641
32904SOL     OW 2753   5.986   7.638   3.385 -0.1525  0.4259  0.3197
32904SOL    HW1 2754   6.011   7.650   3.294 -0.6912 -0.8264 -0.0237
32904SOL    HW2 2755   5.939   7.718   3.408  0.9754  1.2398 -0.1362
32905SOL     OW 2756   9.770   7.613   9.958 -0.4385  0.6730  0.3663
32905SOL    HW1 2757   9.825   7.539   9.932 -1.3624  0.3045 -0.6230
32905SOL    HW2 2758   9.829   7.689   9.956 -0.0197  0.3380 -0.9697
32906SOL     OW 2759   4.892   8.329  10.292 -0.3240 -0.7022 -0.4626
32906SOL    HW1 2760   4.942   8.396  10.246 -0.2825 -1.5586 -1.7070
32906SOL    HW2 2761   4.915   8.247  10.248  0.0052 -1.6280  1.3223
32907SOL     OW 2762   2.493   5.588   2.977  0.1839  0.3056 -0.3776
32907SOL    HW1 2763   2.534   5.563   2.894  0.1190  1.4675 -0.7770
32907SOL    HW2 2764   2.410   5.627   2.952  0.4496  1.2627  0.1752
32908SOL     OW 2765   2.116   7.359   2.185 -0.5631 -0.0314  0.0719
32908SOL    HW1 2766   2.073   7.383   2.268  1.3490  1.2006  0.7713
32908SOL    HW2 2767   2.049   7.310   2.138 -1.6330 -1.0763  2.4747
32909SOL     OW 2768  10.105   5.587   7.994 -0.3131 -0.0771 -0.3407
32909SOL    HW1 2769  10.010   5.592   7.980 -0.5332 -2.2085  0.1086
32909SOL    HW2 2770  10.115   5.570   8.087  0.5929  1.0747 -0.1997
32910SOL     OW 2771   0.873   3.137   8.925 -0.5696  0.1969  1.1546
32910SOL    HW1 2772   0.783   3.165   8.908 -0.7455 -0.9426  0.0773
32910SOL    HW2 2773   0.869   3.096   9.012 -1.4245 -1.1655  0.4997
32911SOL     OW 2774   1.270   8.192   4.368 -0.3378  0.0943 -0.3754
32911SOL    HW1 2775   1.344   8.165   4.315 -0.8151 -0.4876 -0.7604
32911SOL    HW2 2776   1.197   8.139   4.336 -1.3914  1.9917 -1.3554
32912SOL     OW 2777   3.564   7.300   9.563 -0.3511  0.6511 -0.1560
32912SOL    HW1 2778   3.472   7.286   9.542  0.1906 -0.6607 -1.8241
32912SOL    HW2 2779   3.597   7.212   9.586  0.8219  0.8117 -1.1107
32913SOL     OW 2780   3.993   3.648   6.000 -0.4552  0.1228 -0.4214
32913SOL    HW1 2781   3.988   3.722   6.061  2.5481 -0.5210  0.7963
32913SOL    HW2 2782   3.978   3.571   6.055  1.9448 -0.4449 -0.4609
32914SOL     OW 2783   6.757   1.078   5.418  0.0495  0.2662 -0.1117
32914SOL    HW1 2784   6.815   1.036   5.354 -1.6569 -1.1482 -0.7896
32914SOL    HW2 2785   6.695   1.127   5.366  0.5794  1.7690  0.6166
32915SOL     OW 2786   6.410   9.469   8.209  0.1781 -0.4749 -0.3026
32915SOL    HW1 2787   6.468   9.424   8.270  2.0176  0.8998 -0.9428
32915SOL    HW2 2788   6.465   9.535   8.167 -1.4099 -0.2774 -2.2724
32916SOL     OW 2789   5.393   6.172   5.617  0.3216  0.1406 -0.8705
32916SOL    HW1 2790   5.470   6.193   5.564 -0.5349  1.5179 -1.6335
32916SOL    HW2 2791   5.419   6.192   5.707  0.1996  2.7642 -1.3457
32917SOL     OW 2792   3.328   6.471   6.269 -0.3663  0.4758  0.4006
32917SOL    HW1 2793   3.347   6.403   6.334  1.5595 -0.7981 -1.3685
32917SOL    HW2 2794   3.402   6.530   6.274 -0.0140  0.1599 -0.8519
32918SOL     OW 2795   0.625   6.816   4.401  0.0491 -0.0782  0.1582
32918SOL    HW1 2796   0.539   6.817   4.358  0.4515 -0.4434 -0.6835
32918SOL    HW2 2797   0.633   6.902   4.441 -1.0337 -0.3035  0.9043
32919SOL     OW 2798   6.757  10.004   1.536  0.7151  0.1402  0.3880
32919SOL    HW1 2799   6.802   9.920   1.543  0.7916  0.1303 -0.2191
32919SOL    HW2 2800   6.730  10.009   1.444  0.0118  0.4184  0.6069
32920SOL     OW 2801   9.416   5.995   6.562  0.0797 -0.2231 -0.3792
32920SOL    HW1 2802   9.424   6.080   6.604 -1.1966 -0.9634  1.5320
32920SOL    HW2 2803   9.473   5.937   6.613  0.6205 -0.6098 -1.3982
32921SOL     OW 2804  10.005   1.581   5.348 -0.0212 -0.0608  0.2144
32921SOL    HW1 2805   9.945   1.522   5.394  0.8384  0.1620  1.6949
32921SOL    HW2 2806  10.085   1.529   5.336  0.5116  0.5577  0.9447
32922SOL     OW 2807   3.396   0.129  10.107  0.4620  0.2624 -0.2292
32922SOL    HW1 2808   3.449   0.059  10.146 -0.8969  0.5235  2.3008
32922SOL    HW2 2809   3.458   0.178  10.053  2.0341 -1.3456  0.0082
32923SOL     OW 2810   0.322   8.529   7.951  0.1261 -0.2977  0.1731
32923SOL    HW1 2811   0.303   8.487   8.035 -1.4132 -1.6315 -0.7757
32923SOL    HW2 2812   0.241   8.573   7.927  0.2964 -0.5461 -0.9374
32924SOL     OW 2813   3.013   2.714   7.861  0.1155 -0.0656  0.7302
32924SOL    HW1 2814   2.920   2.727   7.877 -0.0020 -0.0560  0.0472
32924SOL    HW2 2815   3.056   2.783   7.913 -0.4550  2.4634 -1.9156
32925SOL     OW 2816   7.512   2.670   1.814  1.1379  0.2181 -0.3538
32925SOL    HW1 2817   7.604   2.690   1.832  1.1563  0.3477 -0.5851
32925SOL    HW2 2818   7.513   2.588   1.765  1.0067 -0.9485  1.4910
32926SOL     OW 2819   5.172   5.999   9.191 -0.6847 -0.0860  0.7450
32926SOL    HW1 2820   5.213   6.085   9.194  0.0918 -0.3788 -0.6848
32926SOL    HW2 2821   5.142   5.984   9.281 -1.2216  1.8391  0.9262
32927SOL     OW 2822   6.155   4.409   9.979  0.7082  0.2498  0.0737
32927SOL    HW1 2823   6.194   4.450  10.056  1.4004  0.5145 -0.4014
32927SOL    HW2 2824   6.172   4.315   9.991 -0.4031  0.1302  0.8981
32928SOL     OW 2825   0.941   9.527   9.735  0.3797 -0.0829 -0.1156
32928SOL    HW1 2826   1.030   9.509   9.765  0.9032 -0.5177 -1.8190
32928SOL    HW2 2827   0.893   9.446   9.751  0.3709  0.0319  0.4678
32929SOL     OW 2828   9.522   8.360   9.214 -0.1664  0.5755 -0.0094
32929SOL    HW1 2829   9.478   8.324   9.137  1.3915 -0.7724 -0.3365
32929SOL    HW2 2830   9.559   8.443   9.184 -2.5820  1.8526  0.3426
32930SOL     OW 2831   9.034   0.540   3.540 -0.0519 -0.3410  0.1417
32930SOL    HW1 2832   8.964   0.602   3.557 -0.7535 -1.3059  0.9146
32930SOL    HW2 2833   8.990   0.462   3.506  0.9533  0.0954 -2.3568
32931SOL     OW 2834   0.585   0.239   5.371 -0.4723 -0.2761 -0.3140
32931SOL    HW1 2835   0.608   0.204   5.457 -1.6019  0.4589  0.3153
32931SOL    HW2 2836   0.608   0.170   5.310 -1.5293 -1.6464  0.7724
32932SOL     OW 2837   7.579   8.470   9.223  0.1013 -0.2918  0.1991
32932SOL    HW1 2838   7.609   8.475   9.132  1.3781  0.0870  0.6165
32932SOL    HW2 2839   7.498   8.521   9.225 -1.0474 -1.9700 -1.1356
32933SOL     OW 2840   0.952   6.874   5.218  0.1182 -0.1318 -0.1555
32933SOL    HW1 2841   1.005   6.870   5.138 -0.3172 -0.6145 -0.4256
32933SOL    HW2 2842   0.993   6.811   5.277 -0.9116 -1.4907 -0.8415
32934SOL     OW 2843   9.165   6.343   0.648  0.3569  0.0605  0.1444
32934SOL    HW1 2844   9.123   6.322   0.565 -0.6707 -0.2470  0.7297
32934SOL    HW2 2845   9.254   6.308   0.640 -0.1117 -1.0259 -0.3728
32935SOL     OW 2846   6.763   2.212   1.467  0.2149  0.2647 -0.2435
32935SOL    HW1 2847   6.779   2.306   1.473  0.0315  0.1981  1.8257
32935SOL    HW2 2848   6.671   2.201   1.492  0.5220 -0.5431  0.5954
32936SOL     OW 2849   8.135   4.260   4.595 -0.2722 -0.6905  0.1838
32936SOL    HW1 2850   8.075   4.334   4.585 -0.0161 -0.6055 -0.8372
32936SOL    HW2 2851   8.205   4.277   4.532 -2.0858 -3.6234 -2.9757
32937SOL     OW 2852   3.996   4.990   4.280 -0.0191 -0.2307  0.0684
32937SOL    HW1 2853   4.019   5.083   4.276 -0.6722  0.0188  1.4687
32937SOL    HW2 2854   3.901   4.988   4.267 -0.3598 -0.4511  2.2240
32938SOL     OW 2855   8.102   2.008   2.083 -0.4005  0.1938 -0.5667
32938SOL    HW1 2856   8.185   2.057   2.092  0.7892 -1.5420 -1.5074
32938SOL    HW2 2857   8.094   1.993   1.989 -2.0063  0.6085 -0.5276
32939SOL     OW 2858   6.506   7.343   5.628 -0.4492 -1.0745 -0.4759
32939SOL    HW1 2859   6.571   7.274   5.639  0.7700 -0.1126 -1.3333
32939SOL    HW2 2860   6.533   7.412   5.689 -0.5089 -0.5628 -1.0189
32940SOL     OW 2861   4.620   3.286   3.081 -0.4886 -0.2366  0.4378
32940SOL    HW1 2862   4.597   3.268   3.172 -0.2277  2.9658  1.2468
32940SOL    HW2 2863   4.715   3.280   3.079 -0.3543  1.2954  0.8466
32941SOL     OW 2864   2.385   4.653   2.535 -0.0550  1.0482 -0.1302
32941SOL    HW1 2865   2.332   4.582   2.570  1.4091  0.2108  0.4437
32941SOL    HW2 2866   2.322   4.725   2.521 -1.4669 -0.1686 -0.2671
32942SOL     OW 2867   7.273   4.220   5.633  0.6686  0.3025 -0.4539
32942SOL    HW1 2868   7.202   4.261   5.582  1.6383  3.4433  0.5053
32942SOL    HW2 2869   7.340   4.200   5.568 -0.0003 -0.1807 -1.0113
32943SOL     OW 2870   0.701   9.250   1.717 -0.2060  0.0331  0.1500
32943SOL    HW1 2871   0.785   9.237   1.761 -0.0020 -0.8832 -0.4810
32943SOL    HW2 2872   0.723   9.260   1.625 -0.6925  1.1632  0.1440
32944SOL     OW 2873   3.325   6.152   6.842  0.0213 -0.0157 -0.4472
32944SOL    HW1 2874   3.261   6.193   6.784 -0.2328  1.4495  0.7922
32944SOL    HW2 2875   3.350   6.222   6.904  2.0407 -0.8310 -0.2503
32945SOL     OW 2876   9.645   9.356   4.643  0.2845 -0.0384 -0.7079
32945SOL    HW1 2877   9.702   9.288   4.678  0.9993  0.9644  0.1125
32945SOL    HW2 2878   9.670   9.435   4.689 -2.8447  0.1806  0.8573
32946SOL     OW 2879   5.955   1.274   7.064  0.5084  0.3373  0.3347
32946SOL    HW1 2880   5.905   1.232   6.994  1.4856 -1.6730  0.7871
32946SOL    HW2 2881   6.040   1.232   7.062  1.3258  1.8402  1.3041
32947SOL     OW 2882   4.692   5.395   0.641  0.6881  0.4049  0.4166
32947SOL    HW1 2883   4.771   5.402   0.694  0.4939  0.9369  0.6351
32947SOL    HW2 2884   4.668   5.302   0.648  0.9553  0.3608  0.8279
32948SOL     OW 2885   5.105   2.843   4.022  0.1440  0.3223  0.1296
32948SOL    HW1 2886   5.036   2.900   3.989 -0.3690 -0.3207  0.0803
32948SOL    HW2 2887   5.180   2.901   4.036 -0.0760  0.8490 -0.8061
32949SOL     OW 2888   6.586   2.298   1.796 -0.6587 -0.2642  0.6086
32949SOL    HW1 2889   6.495   2.270   1.781 -0.4723 -0.0508 -1.2190
32949SOL    HW2 2890   6.579   2.391   1.818 -0.8698 -0.0829 -0.1792
32950SOL     OW 2891   8.273   1.307   5.393  0.0605  0.8263 -0.1103
32950SOL    HW1 2892   8.368   1.299   5.400 -0.1760 -1.0013  1.9553
32950SOL    HW2 2893   8.241   1.292   5.482 -2.3201 -2.1523 -1.2963
32951SOL     OW 2894   6.330   3.072   3.708 -0.1240 -0.3178  0.0605
32951SOL    HW1 2895   6.260   3.008   3.714  1.6624 -2.4776 -0.5076
32951SOL    HW2 2896   6.372   3.053   3.623  2.0946 -0.2443  1.0605
32952SOL     OW 2897   3.494   7.806   4.850  0.6170 -0.2071  0.1290
32952SOL    HW1 2898   3.452   7.722   4.866  0.3009 -0.3638 -1.3784
32952SOL    HW2 2899   3.587   7.785   4.843  0.3912 -0.7014 -1.7711
32953SOL     OW 2900   1.601   7.004   4.883 -0.3110 -0.0193  0.0783
32953SOL    HW1 2901   1.530   6.952   4.845 -1.1275  0.9884  0.1878
32953SOL    HW2 2902   1.580   7.008   4.976  0.2746 -0.2888  0.2275
32954SOL     OW 2903   3.455   4.548   9.727  0.5633  0.3839  0.6600
32954SOL    HW1 2904   3.415   4.573   9.810 -1.5984 -1.7364  0.3466
32954SOL    HW2 2905   3.511   4.474   9.750 -2.0133 -1.9252 -0.0133
32955SOL     OW 2906   8.803   6.609   0.245  0.5386  0.3250 -0.3837
32955SOL    HW1 2907   8.753   6.689   0.229 -0.1642 -0.4246 -2.3002
32955SOL    HW2 2908   8.738   6.544   0.271  1.0532  0.2529  0.7868
32956SOL     OW 2909   8.198   8.870   2.044  0.1940 -0.4245 -0.0283
32956SOL    HW1 2910   8.143   8.944   2.070  1.7125  0.6371  0.2561
32956SOL    HW2 2911   8.159   8.794   2.088 -2.0029 -0.0369 -1.1400
32957SOL     OW 2912   2.184   6.536   6.080 -0.1165  0.2919  0.0465
32957SOL    HW1 2913   2.194   6.482   6.159 -1.0338 -2.9147 -1.8435
32957SOL    HW2 2914   2.257   6.512   6.025 -0.5149  1.0734 -0.8532
32958SOL     OW 2915   8.127   5.160   2.179 -0.5681  0.2044  0.3897
32958SOL    HW1 2916   8.122   5.221   2.253 -1.8039  2.2168 -1.2366
32958SOL    HW2 2917   8.159   5.214   2.106  0.0540 -1.5725 -0.7134
32959SOL     OW 2918   6.717   8.099   0.617 -0.5009  0.1683 -0.2940
32959SOL    HW1 2919   6.625   8.094   0.592 -0.5795  0.3922 -0.0509
32959SOL    HW2 2920   6.716   8.079   0.711 -0.4517  1.5278  0.0063
32960SOL     OW 2921   9.189   7.123   3.627  0.1959  0.2200  0.1660
32960SOL    HW1 2922   9.211   7.054   3.564  0.6396 -1.2880  1.9036
32960SOL    HW2 2923   9.249   7.110   3.700 -1.4364  0.8116  1.6866
32961SOL     OW 2924   3.926   4.533   6.065 -0.2794  0.4227 -0.3252
32961SOL    HW1 2925   3.927   4.452   6.116  2.0859  0.7131  0.2151
32961SOL    HW2 2926   3.853   4.584   6.100 -0.5342 -0.6265  0.7166
32962SOL     OW 2927   4.163   9.597   3.276 -0.1274 -0.1648 -0.2805
32962SOL    HW1 2928   4.074   9.567   3.255 -0.3777  0.5501 -0.2467
32962SOL    HW2 2929   4.218   9.521   3.258 -0.6625 -0.4001 -0.9648
32963SOL     OW 2930   6.893  10.130   8.691  0.4631 -0.1459 -0.2533
32963SOL    HW1 2931   6.797  10.129   8.691  0.4607  0.1452 -0.2408
32963SOL    HW2 2932   6.916  10.218   8.719  0.7367 -0.6855  1.3191
32964SOL     OW 2933   8.537   5.709   5.878 -0.6549 -0.1232  0.0215
32964SOL    HW1 2934   8.514   5.620   5.904  0.3355 -0.1277  0.9340
32964SOL    HW2 2935   8.478   5.729   5.805 -1.9363 -0.9637  0.7843
32965SOL     OW 2936   5.792   4.642   1.644  0.3493 -0.1550  0.0383
32965SOL    HW1 2937   5.877   4.676   1.673  0.2226 -1.1350  1.6486
32965SOL    HW2 2938   5.813   4.584   1.570  1.2186 -1.1948  1.0683
32966SOL     OW 2939   7.001   7.995   4.096 -0.3239 -0.0898  0.0101
32966SOL    HW1 2940   7.031   8.065   4.037  0.8242 -1.2202 -0.7985
32966SOL    HW2 2941   7.005   8.035   4.183  0.2048  0.8883 -0.4384
32967SOL     OW 2942   0.276   3.930   3.244  0.1215 -0.0786 -0.0334
32967SOL    HW1 2943   0.362   3.969   3.258 -0.8293  2.3761 -0.4716
32967SOL    HW2 2944   0.214   4.000   3.266 -1.7022 -0.9395 -2.0738
32968SOL     OW 2945   0.771   9.357  10.062  0.2625  0.0848  0.1356
32968SOL    HW1 2946   0.772   9.352   9.966  2.1683  0.5791  0.0923
32968SOL    HW2 2947   0.694   9.411  10.082 -0.2006 -0.0777 -1.0985
32969SOL     OW 2948   3.814   5.238   4.962 -0.0385  0.1257  0.5409
32969SOL    HW1 2949   3.825   5.143   4.969 -0.4487 -0.0383 -0.7367
32969SOL    HW2 2950   3.729   5.255   5.002 -1.3409 -0.4787 -1.7990
32970SOL     OW 2951   0.902   7.435   6.895 -0.0745 -0.4739  0.7696
32970SOL    HW1 2952   0.913   7.421   6.801 -0.3897  0.6775  0.5482
32970SOL    HW2 2953   0.810   7.459   6.905 -0.1346 -0.9353  1.4295
32971SOL     OW 2954   8.842   8.983   6.795  0.5365  0.0316  0.2844
32971SOL    HW1 2955   8.784   9.057   6.778 -0.1443 -0.3051  1.0549
32971SOL    HW2 2956   8.928   9.023   6.808  0.3153  0.6192  0.0040
32972SOL     OW 2957   3.923   6.215   4.300 -0.4739  0.2035  0.0281
32972SOL    HW1 2958   3.937   6.261   4.382 -2.6048 -0.5898  0.9006
32972SOL    HW2 2959   3.917   6.284   4.234  1.2494  0.8447  0.4808
32973SOL     OW 2960  10.046   0.562   8.502 -0.3458 -0.4170 -0.7208
32973SOL    HW1 2961  10.085   0.486   8.544  0.6888  1.2976  1.6277
32973SOL    HW2 2962   9.963   0.575   8.547  1.2472  2.0651  1.8231
32974SOL     OW 2963   7.863   8.758   7.705  0.0796  0.1518  0.1120
32974SOL    HW1 2964   7.784   8.783   7.754 -0.6357 -0.2612 -0.8024
32974SOL    HW2 2965   7.899   8.841   7.674 -1.0605  0.2393 -1.0559
32975SOL     OW 2966   9.811   5.088   5.321  0.0506  0.0314  0.1172
32975SOL    HW1 2967   9.771   5.147   5.385 -1.6106 -2.6020  1.6923
32975SOL    HW2 2968   9.891   5.056   5.364 -0.9644 -1.5875  0.9060
32976SOL     OW 2969   3.128   5.548   6.120  0.6702 -0.4361 -0.2415
32976SOL    HW1 2970   3.056   5.511   6.069  0.8632 -0.6809 -0.3370
32976SOL    HW2 2971   3.148   5.482   6.186  0.7038 -0.3003 -0.1136
32977SOL     OW 2972   0.025   6.956   7.722 -0.6777  0.4032 -0.1871
32977SOL    HW1 2973   0.007   6.984   7.632 -0.6279  1.3838  0.0888
32977SOL    HW2 2974  -0.025   7.018   7.776 -0.1436  0.2647  0.4712
32978SOL     OW 2975   6.473   2.235   0.707 -0.1347  0.7478  0.1698
32978SOL    HW1 2976   6.468   2.166   0.641  0.7832  0.5970  0.2435
32978SOL    HW2 2977   6.444   2.314   0.662 -0.8699  0.3789 -0.0082
32979SOL     OW 2978   6.184   5.714   2.009 -0.0919  0.4882  0.0956
32979SOL    HW1 2979   6.224   5.782   2.063  0.5980  1.0621 -1.0895
32979SOL    HW2 2980   6.217   5.732   1.921  0.0250 -1.3238 -0.2649
32980SOL     OW 2981   5.914   1.028   2.237 -0.2948 -0.3603  0.2053
32980SOL    HW1 2982   5.992   0.999   2.283  0.9357 -1.4999 -2.4020
32980SOL    HW2 2983   5.928   1.003   2.146 -3.2589  0.3348 -0.5786
32981SOL     OW 2984   4.089   8.408   3.836  0.1543  0.1492  0.2928
32981SOL    HW1 2985   4.140   8.330   3.818 -1.5742 -1.1593  0.8080
32981SOL    HW2 2986   4.096   8.460   3.756  0.8463 -0.8054 -0.2885
32982SOL     OW 2987   6.913   7.288   6.857  0.4654  0.4293  0.3605
32982SOL    HW1 2988   6.969   7.363   6.879  0.2634  0.6773  0.0330
32982SOL    HW2 2989   6.869   7.313   6.776 -0.7207  0.5724  1.0235
32983SOL     OW 2990   8.381   1.711   0.959 -0.3289  0.2698  0.2163
32983SOL    HW1 2991   8.459   1.724   0.905 -1.4698  1.0282 -1.3250
32983SOL    HW2 2992   8.314   1.682   0.898 -1.5476  0.6442  1.3195
32984SOL     OW 2993   7.777   7.319   6.088 -0.8312  0.7694 -0.2576
32984SOL    HW1 2994   7.711   7.381   6.057  0.6229  1.3163 -2.4827
32984SOL    HW2 2995   7.854   7.373   6.107 -0.1467 -0.1471 -0.3375
32985SOL     OW 2996   1.651   5.020   1.234 -0.4056 -0.7059 -0.6087
32985SOL    HW1 2997   1.691   5.079   1.170 -1.4976  0.1644 -0.5098
32985SOL    HW2 2998   1.598   5.076   1.290  0.1959 -1.5050  0.8329
32986SOL     OW 2999   9.480   3.381   4.108 -0.6082 -0.1286  0.0129
32986SOL    HW1 3000   9.399   3.339   4.079  0.4710 -1.5063 -1.1857
32986SOL    HW2 3001   9.451   3.457   4.159 -2.6356 -0.8678  0.0572
32987SOL     OW 3002   9.045   9.780   1.591  0.8326  0.0070  0.2258
32987SOL    HW1 3003   9.026   9.695   1.631  2.7556 -0.3369  0.5153
32987SOL    HW2 3004   8.975   9.793   1.528 -2.3687  0.5570  3.5606
32988SOL     OW 3005   8.048   7.339  10.240  0.6181  0.3138  0.1935
32988SOL    HW1 3006   7.975   7.297  10.286  1.2530  1.0599  1.9816
32988SOL    HW2 3007   8.021   7.430  10.231  0.5820  0.2100 -0.7732
32989SOL     OW 3008   1.772   0.831   0.875  0.0559  0.1470 -0.0037
32989SOL    HW1 3009   1.690   0.858   0.833  0.7952  1.5109 -0.6459
32989SOL    HW2 3010   1.838   0.888   0.836  1.5152 -1.6792 -0.3506
32990SOL     OW 3011   0.306   7.250   0.431 -0.1762 -0.1347 -0.1692
32990SOL    HW1 3012   0.288   7.331   0.478  2.3332  0.1185  0.5190
32990SOL    HW2 3013   0.252   7.255   0.353 -0.8467  1.7158  0.3601
32991SOL     OW 3014   3.185   3.238   8.547  0.2648 -0.1776 -0.7607
32991SOL    HW1 3015   3.164   3.188   8.468  0.9170 -0.6554 -0.6327
32991SOL    HW2 3016   3.255   3.189   8.589 -1.1964 -0.8595  1.0320
32992SOL     OW 3017   5.371   8.203   1.078  0.1527 -0.2117  0.5893
32992SOL    HW1 3018   5.417   8.280   1.110 -1.0708  1.0186 -0.4495
32992SOL    HW2 3019   5.348   8.225   0.987  0.6591 -2.2266 -0.0910
32993SOL     OW 3020   6.552   8.296   2.800 -0.0276 -0.8117 -0.4714
32993SOL    HW1 3021   6.504   8.369   2.760 -0.2698 -0.8997 -0.3422
32993SOL    HW2 3022   6.486   8.248   2.849  0.7884  1.0120  2.6276
32994SOL     OW 3023   4.333   1.717   3.490 -0.4870  0.1485  0.3861
32994SOL    HW1 3024   4.317   1.622   3.490 -1.4319  0.2967  0.4211
32994SOL    HW2 3025   4.387   1.732   3.567 -0.5456 -0.3256  0.5267
32995SOL     OW 3026   4.161   8.332   0.996  0.0077  0.0820 -0.2805
32995SOL    HW1 3027   4.217   8.304   1.068 -0.9769 -1.4716 -0.0934
32995SOL    HW2 3028   4.222   8.370   0.933  1.0252  0.3266  0.8066
32996SOL     OW 3029   6.043   5.956   6.943  0.4412  0.1549 -0.0542
32996SOL    HW1 3030   6.040   6.037   6.995 -3.2491 -0.3053  0.7212
32996SOL    HW2 3031   6.046   5.987   6.852 -0.7956  1.2361  0.2363
32997SOL     OW 3032   0.627   3.450   8.404 -0.1102  0.1360 -0.2557
32997SOL    HW1 3033   0.634   3.362   8.440  0.9960 -0.2676 -1.3878
32997SOL    HW2 3034   0.708   3.494   8.430  0.9916 -0.3362 -2.5500
32998SOL     OW 3035   4.350   9.017   7.394 -0.4413  0.0196  1.0102
32998SOL    HW1 3036   4.268   8.999   7.440 -0.0358 -0.4434  1.5615
32998SOL    HW2 3037   4.413   8.955   7.431 -0.2390 -0.7757 -0.5702
32999SOL     OW 3038   5.220   8.103  10.175  0.7142  0.1187  0.1774
32999SOL    HW1 3039   5.299   8.064  10.139 -0.5794 -2.6578  0.0709
32999SOL    HW2 3040   5.165   8.121  10.098  0.6337  0.6432  0.3499
33000SOL     OW 3041   3.624  10.037   4.156 -0.0849  0.0582  0.3408
33000SOL    HW1 3042   3.566   9.969   4.189 -0.3971  0.4187  0.5467
33000SOL    HW2 3043   3.712  10.001   4.165 -0.1581  0.1560  1.5914
33001SOL     OW 3044   1.264   6.526   7.456 -0.7456 -0.0398 -0.0903
33001SOL    HW1 3045   1.189   6.585   7.455 -1.7118 -1.2137  0.2727
33001SOL    HW2 3046   1.243   6.459   7.390  0.3097 -0.0129 -0.4798
33002SOL     OW 3047   6.691   3.891   2.726  0.6352  0.2983 -0.2467
33002SOL    HW1 3048   6.775   3.850   2.706  0.8578  0.5841  0.0945
33002SOL    HW2 3049   6.714   3.979   2.757  0.2755 -0.0007  0.9148
33003SOL     OW 3050   8.244   6.713   4.236  0.1041  0.1085  0.1146
33003SOL    HW1 3051   8.238   6.619   4.224 -0.1919  0.1978 -0.4908
33003SOL    HW2 3052   8.330   6.727   4.276 -0.1409 -0.4709  0.8510
33004SOL     OW 3053   4.787   3.564   0.057 -0.8377 -0.2055 -0.9228
33004SOL    HW1 3054   4.747   3.646   0.025  0.0838  0.3774 -0.6156
33004SOL    HW2 3055   4.833   3.529  -0.020  2.1509  1.6647 -0.1680
33005SOL     OW 3056   3.991   8.002   3.378 -0.1274  0.2623 -0.3793
33005SOL    HW1 3057   4.076   7.962   3.361 -0.4184 -0.0203 -1.1922
33005SOL    HW2 3058   3.940   7.988   3.298 -1.0969  0.0303  0.2549
33006SOL     OW 3059   2.594   0.398   3.107  0.5602 -0.0710 -0.3214
33006SOL    HW1 3060   2.671   0.402   3.163  1.5809  1.1946 -1.7202
33006SOL    HW2 3061   2.529   0.351   3.159  2.4684 -1.7994  0.6422
33007SOL     OW 3062   2.830  10.011   7.416  0.2440 -0.2696  0.1248
33007SOL    HW1 3063   2.762  10.073   7.392 -1.0398 -0.8421  1.9916
33007SOL    HW2 3064   2.802   9.978   7.502  2.6518 -0.8764  0.7457
33008SOL     OW 3065   0.987   3.010   2.282 -0.3905 -0.2171  0.1303
33008SOL    HW1 3066   1.064   2.967   2.320 -0.8699  0.3405  1.8561
33008SOL    HW2 3067   0.914   2.984   2.340 -1.2511  0.3491 -0.6712
33009SOL     OW 3068   0.814   9.620   0.814  0.4203  0.4464  0.3206
33009SOL    HW1 3069   0.791   9.559   0.884 -0.0452  0.5003  0.2142
33009SOL    HW2 3070   0.750   9.603   0.745  0.7223  0.5693  0.0089
33010SOL     OW 3071   4.385   1.513   3.142  0.1906  0.1021 -0.2630
33010SOL    HW1 3072   4.424   1.486   3.059  1.9844 -0.1610  0.6202
33010SOL    HW2 3073   4.369   1.431   3.188 -0.6960  0.2554 -0.2791
33011SOL     OW 3074   1.799   3.560   6.308  0.0575 -0.4699 -0.0652
33011SOL    HW1 3075   1.743   3.598   6.376  1.1666 -0.7043  1.0139
33011SOL    HW2 3076   1.839   3.636   6.265 -0.7616 -0.3157 -0.5736
33012SOL     OW 3077   6.705   3.592   9.232 -0.1251  0.1754  0.1279
33012SOL    HW1 3078   6.773   3.546   9.282 -1.1090 -0.0128  1.3192
33012SOL    HW2 3079   6.639   3.616   9.297 -2.2135 -1.4644 -1.2772
33013SOL     OW 3080   6.926   6.451   0.206  0.7990 -0.0869  0.0633
33013SOL    HW1 3081   6.923   6.459   0.302 -0.2736  0.1800  0.0229
33013SOL    HW2 3082   6.838   6.474   0.178  1.2278  0.2515 -1.0306
33014SOL     OW 3083   5.603   4.897   1.762  0.0212 -0.1828 -0.8954
33014SOL    HW1 3084   5.520   4.880   1.717 -1.0053  1.3102  0.3434
33014SOL    HW2 3085   5.646   4.963   1.709  0.4073 -0.8946 -1.4916
33015SOL     OW 3086   2.447   9.853   2.058  0.0845  0.0491 -0.3538
33015SOL    HW1 3087   2.448   9.932   2.004  1.3384 -0.2695 -0.8154
33015SOL    HW2 3088   2.383   9.873   2.126 -0.6007  0.9413 -1.2245
33016SOL     OW 3089   7.948   4.932   6.297  0.1762 -0.2899  0.0438
33016SOL    HW1 3090   8.001   4.985   6.357 -0.5076 -0.5491  0.8901
33016SOL    HW2 3091   7.989   4.945   6.212  0.6836  0.7294  0.4256
33017SOL     OW 3092   7.380   8.289   7.854 -0.1936 -0.5698  0.5824
33017SOL    HW1 3093   7.434   8.338   7.915  0.6997 -2.2150  1.1533
33017SOL    HW2 3094   7.290   8.305   7.884  0.2145 -1.2529  2.2964
33018SOL     OW 3095   0.727  10.026   0.032 -0.3814  0.3307 -0.3178
33018SOL    HW1 3096   0.667  10.097   0.010 -0.5926  0.0103 -0.7757
33018SOL    HW2 3097   0.689   9.948  -0.008  0.7237  0.2477 -1.2714
33019SOL     OW 3098   5.168   2.188   8.935 -0.5479 -0.6607 -0.4749
33019SOL    HW1 3099   5.225   2.149   9.001  0.7649 -0.5955 -1.5345
33019SOL    HW2 3100   5.099   2.123   8.921 -0.0722 -1.2675 -0.0303
33020SOL     OW 3101  10.214   4.563   8.860  0.2301 -0.0155  0.7059
33020SOL    HW1 3102  10.161   4.567   8.780 -0.9738 -1.0807  1.4105
33020SOL    HW2 3103  10.294   4.611   8.838 -0.6763  0.9562 -0.6600
33021SOL     OW 3104   0.566   2.793   2.620 -0.5718 -0.4175  0.3057
33021SOL    HW1 3105   0.486   2.795   2.568 -1.0693 -3.2342  0.7928
33021SOL    HW2 3106   0.582   2.700   2.636  1.6927  0.1582  1.9348
33022SOL     OW 3107   3.180   4.186   0.839  0.1556 -0.1585  0.3430
33022SOL    HW1 3108   3.245   4.246   0.802  0.2208 -0.8061 -0.6417
33022SOL    HW2 3109   3.108   4.187   0.775  0.6014 -1.8923 -0.2595
33023SOL     OW 3110   0.749   8.248   7.704 -0.7769 -0.7620  0.5034
33023SOL    HW1 3111   0.824   8.229   7.647 -1.1347  1.3015 -0.7623
33023SOL    HW2 3112   0.786   8.301   7.775 -1.2524  2.3081 -1.3523
33024SOL     OW 3113   0.496   0.220   4.497  0.4366 -0.2386 -0.4908
33024SOL    HW1 3114   0.503   0.160   4.571  1.0211 -0.8652 -1.0422
33024SOL    HW2 3115   0.520   0.306   4.533 -0.9326 -0.2168  0.4268
33025SOL     OW 3116   4.075   7.140   5.309  0.3419  0.2355 -0.0533
33025SOL    HW1 3117   4.030   7.127   5.392  0.5978  0.8762  0.1927
33025SOL    HW2 3118   4.060   7.059   5.260 -1.7773  0.7048 -0.3138
33026SOL     OW 3119   4.484   0.873   0.714  0.2186 -0.1248  0.1316
33026SOL    HW1 3120   4.429   0.904   0.786 -1.0862  0.8640 -1.2551
33026SOL    HW2 3121   4.444   0.908   0.635  1.4509 -1.4230 -1.1395
33027SOL     OW 3122   5.648   9.621   0.407  0.3381 -0.8960 -0.1041
33027SOL    HW1 3123   5.576   9.658   0.458  1.1121  1.9732 -0.9534
33027SOL    HW2 3124   5.720   9.611   0.470  0.6328  0.6841 -0.1506
33028SOL     OW 3125   4.191   1.024   5.921  0.0521  0.3176 -0.0498
33028SOL    HW1 3126   4.267   0.968   5.910  0.2606  0.3015  1.2638
33028SOL    HW2 3127   4.131   0.972   5.975  0.1947  1.2735  1.0754
33029SOL     OW 3128   7.999   2.965   3.562  0.2517  0.0711  0.3236
33029SOL    HW1 3129   7.942   2.959   3.486  1.0149  0.0069 -0.2581
33029SOL    HW2 3130   7.970   3.044   3.608 -0.9976 -0.5422  0.6338
33030SOL     OW 3131   0.170   9.950   3.986  0.4407 -0.1011 -0.4469
33030SOL    HW1 3132   0.168  10.040   3.951  0.1080  0.5706  1.1984
33030SOL    HW2 3133   0.122   9.898   3.921 -0.3683  1.1362 -0.8789
33031SOL     OW 3134   9.501   0.796   5.498 -0.1734  0.3735 -0.2305
33031SOL    HW1 3135   9.588   0.784   5.458 -0.0165 -1.4000  0.5513
33031SOL    HW2 3136   9.511   0.871   5.555  1.7017 -1.3901  1.9528
33032SOL     OW 3137   6.344   0.576   6.333 -0.4526 -0.3336 -0.3796
33032SOL    HW1 3138   6.368   0.659   6.373  0.3528 -1.0113  0.5903
33032SOL    HW2 3139   6.333   0.596   6.240  0.4832  0.7011 -0.2852
33033SOL     OW 3140   6.383   5.213   0.434 -0.2194 -0.1308  0.0347
33033SOL    HW1 3141   6.449   5.281   0.448  1.0252 -1.4417  0.8030
33033SOL    HW2 3142   6.432   5.138   0.400 -1.2571 -1.2513  0.9225
33034SOL     OW 3143   3.761   1.711   9.362  0.4041  0.2755  0.0155
33034SOL    HW1 3144   3.756   1.709   9.457  2.0735  0.6001  0.1291
33034SOL    HW2 3145   3.722   1.628   9.334 -1.3876  0.7810  0.8826
33035SOL     OW 3146   4.314   1.303   1.090 -0.6519 -0.6232  0.5393
33035SOL    HW1 3147   4.345   1.229   1.141 -0.1789 -0.3391  0.6680
33035SOL    HW2 3148   4.340   1.283   1.000 -1.5844 -1.1771  0.3759
33036SOL     OW 3149   7.341   1.371   9.209  0.2518  0.1141  0.2337
33036SOL    HW1 3150   7.266   1.336   9.161  2.6722 -1.2217 -2.8615
33036SOL    HW2 3151   7.330   1.466   9.204 -0.8290 -0.0416 -0.8390
33037SOL     OW 3152   9.607   0.075   2.302 -0.2592  0.1439  0.2346
33037SOL    HW1 3153   9.665   0.001   2.316 -1.9355 -1.2789 -0.0071
33037SOL    HW2 3154   9.519   0.037   2.303 -1.0990  1.8661 -1.6057
33038SOL     OW 3155   0.965   2.958   7.236 -0.1315  0.5427 -0.0332
33038SOL    HW1 3156   0.966   2.960   7.140  2.9911  0.7527 -0.0998
33038SOL    HW2 3157   1.013   2.879   7.259  1.1798  1.6497  1.2794
33039SOL     OW 3158   2.492   5.451   3.611 -0.1081  0.0023 -0.1580
33039SOL    HW1 3159   2.487   5.533   3.660  1.1666 -0.2730  0.4664
33039SOL    HW2 3160   2.474   5.383   3.677 -0.8781 -0.2465 -0.6109
33040SOL     OW 3161  10.067   6.254   0.534  0.2836 -0.9609 -0.4857
33040SOL    HW1 3162  10.138   6.253   0.471  1.4081  0.6036  0.6943
33040SOL    HW2 3163  10.108   6.232   0.618 -0.1960  1.7977  0.5582
33041SOL     OW 3164   4.553   0.244   1.676  0.3058 -0.3758 -0.0730
33041SOL    HW1 3165   4.593   0.184   1.613  3.4426 -0.3274  1.6218
33041SOL    HW2 3166   4.522   0.188   1.747 -1.9513 -0.3248 -0.9522
33042SOL     OW 3167   5.258   0.297   5.609 -0.0457  0.3867 -0.5967
33042SOL    HW1 3168   5.171   0.301   5.568 -1.5677  0.0150  2.3105
33042SOL    HW2 3169   5.251   0.353   5.686  1.4782 -1.5078  1.0527
33043SOL     OW 3170   9.229   7.249   4.340 -0.3568  0.0605  0.5132
33043SOL    HW1 3171   9.290   7.178   4.358  0.6145  0.6068 -0.5064
33043SOL    HW2 3172   9.173   7.215   4.270 -0.6264 -0.0920  0.7965
33044SOL     OW 3173   7.381   6.864   8.359  0.0749  0.1246  0.5544
33044SOL    HW1 3174   7.385   6.943   8.413 -0.2208  0.6784 -0.2230
33044SOL    HW2 3175   7.288   6.848   8.347  0.1189  0.8832 -1.0377
33045SOL     OW 3176   2.316   0.530   9.799 -0.3987  0.0916 -0.4222
33045SOL    HW1 3177   2.288   0.524   9.708 -3.1437  0.7203  0.3074
33045SOL    HW2 3178   2.312   0.623   9.820 -1.1779 -0.1794  0.7187
33046SOL     OW 3179   2.848   1.067   9.792 -0.6763  0.2550 -0.6198
33046SOL    HW1 3180   2.827   1.155   9.822  0.0463  0.6669 -1.2867
33046SOL    HW2 3181   2.796   1.009   9.849  1.3454  0.9371  2.1818
33047SOL     OW 3182   7.550   2.421   9.754  0.0016  0.0481  0.1041
33047SOL    HW1 3183   7.638   2.456   9.756 -0.4255  1.4613 -2.3994
33047SOL    HW2 3184   7.513   2.443   9.839  1.6371  0.5273  0.7179
33048SOL     OW 3185   5.139   3.900   4.370  0.2931 -0.3758  0.3247
33048SOL    HW1 3186   5.116   3.928   4.282  1.7557 -1.2676 -0.3701
33048SOL    HW2 3187   5.075   3.945   4.426  0.2775  1.4132 -1.0205
33049SOL     OW 3188   0.619   1.720  10.097  0.1126 -0.1458  0.1935
33049SOL    HW1 3189   0.603   1.778  10.023  1.5110 -0.5020 -0.4203
33049SOL    HW2 3190   0.712   1.732  10.116 -0.1150 -0.4317  1.5866
33050SOL     OW 3191   4.419   3.784   5.636 -0.0076 -0.1810  0.0428
33050SOL    HW1 3192   4.349   3.838   5.673  0.9761 -0.1231  1.9196
33050SOL    HW2 3193   4.382   3.695   5.633 -1.1228  0.2741 -1.7111
33051SOL     OW 3194   9.544   0.738   9.542 -0.2259 -0.2302  0.2788
33051SOL    HW1 3195   9.592   0.680   9.601 -0.7655 -0.7464  0.2112
33051SOL    HW2 3196   9.500   0.800   9.601 -1.3795 -1.2074  0.4851
33052SOL     OW 3197   5.367   9.442   9.385 -0.1239  0.4626 -0.7029
33052SOL    HW1 3198   5.392   9.350   9.395 -1.6182  0.1368  0.2167
33052SOL    HW2 3199   5.425   9.489   9.445 -0.3205 -0.0386 -0.1171
33053SOL     OW 3200   0.752   0.749   5.461 -0.0820 -0.1752 -0.4473
33053SOL    HW1 3201   0.842   0.768   5.436 -0.1193  1.1572  0.2834
33053SOL    HW2 3202   0.738   0.658   5.438  1.2584 -0.2198 -1.1321
33054SOL     OW 3203   7.434   3.362   8.625 -0.4096 -0.3947 -0.2108
33054SOL    HW1 3204   7.501   3.308   8.582 -1.0123 -0.7390 -0.7419
33054SOL    HW2 3205   7.459   3.452   8.604  0.4451 -0.4732  0.4410
33055SOL     OW 3206   9.107   5.986   6.546 -0.2532  0.4144  0.1057
33055SOL    HW1 3207   9.161   5.983   6.467  0.6346 -0.0481  0.7061
33055SOL    HW2 3208   9.018   5.975   6.515  0.1313 -0.3507 -0.7800
33056SOL     OW 3209   0.779   1.571   1.980  0.3851  0.1692  0.2518
33056SOL    HW1 3210   0.766   1.646   1.921 -0.1130  0.5434  0.8297
33056SOL    HW2 3211   0.781   1.609   2.067  0.4250 -0.4611  0.5276
33057SOL     OW 3212   9.669   8.918   1.297 -0.4448 -0.2687  0.4759
33057SOL    HW1 3213   9.711   8.990   1.343 -2.5147  1.2792  0.0926
33057SOL    HW2 3214   9.630   8.958   1.219  0.5654 -2.2976 -1.1886
33058SOL     OW 3215   2.901   3.917   4.589  0.4796 -0.0612 -0.1631
33058SOL    HW1 3216   2.874   3.825   4.589 -0.7942  0.2785 -1.2544
33058SOL    HW2 3217   2.922   3.935   4.680  0.6640 -1.4052  0.0887
33059SOL     OW 3218   1.383   7.798   9.819 -0.4777  0.1761  0.4980
33059SOL    HW1 3219   1.335   7.827   9.742 -0.2953 -2.5868 -0.7744
33059SOL    HW2 3220   1.468   7.768   9.785 -1.1791 -3.1442  1.2830
33060SOL     OW 3221   7.215   2.272   2.541  0.0684  0.3262  0.2176
33060SOL    HW1 3222   7.152   2.329   2.496 -1.2269 -0.8317  0.4802
33060SOL    HW2 3223   7.264   2.331   2.598 -0.9047  1.2580  0.1307
33061SOL     OW 3224   6.245   5.568   1.029 -0.7156 -0.3078  0.2061
33061SOL    HW1 3225   6.279   5.528   0.949 -2.3214 -0.3195 -0.5030
33061SOL    HW2 3226   6.199   5.497   1.073  0.9473 -0.5483  1.6613
33062SOL     OW 3227   7.336   8.063   9.515 -0.0375  0.2617  0.0540
33062SOL    HW1 3228   7.262   8.050   9.456 -0.1114  1.2167 -0.0681
33062SOL    HW2 3229   7.370   8.150   9.494  0.6415  0.1517  0.6373
33063SOL     OW 3230   8.586   4.004  10.262  0.1495 -0.1928 -0.2092
33063SOL    HW1 3231   8.579   4.034  10.352 -0.4614 -0.5971 -0.1193
33063SOL    HW2 3232   8.626   3.917  10.268 -1.3661 -0.9237 -0.1866
33064SOL     OW 3233  10.292   3.598   8.519 -0.1910 -0.3504  0.1119
33064SOL    HW1 3234  10.273   3.505   8.530  1.1480 -0.7145 -0.3937
33064SOL    HW2 3235  10.378   3.610   8.560  1.0281 -0.0087 -2.3396
33065SOL     OW 3236   9.029   2.979   1.473 -0.0465 -0.2797 -0.1030
33065SOL    HW1 3237   8.995   2.912   1.532 -0.0938 -0.1123  0.0618
33065SOL    HW2 3238   9.012   2.945   1.386  0.8636 -0.9616 -0.0337
33066SOL     OW 3239   7.396   8.247   7.565 -0.3119  0.6806  0.1631
33066SOL    HW1 3240   7.394   8.248   7.660  0.6532 -0.1564  0.2109
33066SOL    HW2 3241   7.309   8.217   7.539 -0.1396 -0.4530  0.8341
33067SOL     OW 3242   5.177   1.045   2.393 -0.2032 -0.4065  0.8195
33067SOL    HW1 3243   5.138   1.041   2.306  1.2641 -0.1051  0.1071
33067SOL    HW2 3244   5.113   1.091   2.447 -0.7471  0.2252 -0.3447
33068SOL     OW 3245   2.302   7.206   0.996 -0.4090  0.0178 -0.0173
33068SOL    HW1 3246   2.374   7.177   1.051 -0.7851 -0.6455  0.1403
33068SOL    HW2 3247   2.294   7.300   1.013  0.3443  0.0778  0.0360
33069SOL     OW 3248   3.484   0.836   4.325 -0.2388 -0.1027  0.3419
33069SOL    HW1 3249   3.421   0.808   4.391 -1.0452 -1.9878 -1.1390
33069SOL    HW2 3250   3.569   0.825   4.368 -0.6535 -2.6753  0.6836
33070SOL     OW 3251   7.792   2.922   5.909  0.0368 -0.0473 -0.1204
33070SOL    HW1 3252   7.836   2.849   5.865 -0.9868 -0.3321 -0.6878
33070SOL    HW2 3253   7.724   2.949   5.848  1.3339  2.4074 -0.6134
33071SOL     OW 3254   3.805   5.412   8.069  0.7813 -0.7707  0.3649
33071SOL    HW1 3255   3.761   5.497   8.083 -1.8588 -2.1931  1.4310
33071SOL    HW2 3256   3.820   5.378   8.157 -1.0535 -2.7051  0.0042
33072SOL     OW 3257   9.808   0.333   4.570  0.0296  0.0773  0.3020
33072SOL    HW1 3258   9.895   0.305   4.541  0.3350  0.0247  1.2123
33072SOL    HW2 3259   9.812   0.429   4.569 -0.0396  0.0757 -0.0521
33073SOL     OW 3260   0.650   2.235   0.079  0.0038 -0.6699 -0.4582
33073SOL    HW1 3261   0.738   2.199   0.070  0.3290  0.3534 -1.6565
33073SOL    HW2 3262   0.652   2.316   0.029 -1.9049 -1.1197 -1.3414
33074SOL     OW 3263   0.630   3.603   1.713 -0.5189  0.3825  0.4041
33074SOL    HW1 3264   0.630   3.635   1.623 -0.7025 -1.4153 -0.2661
33074SOL    HW2 3265   0.559   3.540   1.716 -0.9490  0.8869  2.0128
33075SOL     OW 3266   4.162   7.015   1.986 -0.2480 -0.4571 -0.1815
33075SOL    HW1 3267   4.253   7.045   1.980 -0.6575  0.7810 -0.5670
33075SOL    HW2 3268   4.159   6.965   2.068  0.6031  0.1511  0.2397
33076SOL     OW 3269   8.335   4.364   4.005 -0.5672  0.1216  0.2813
33076SOL    HW1 3270   8.349   4.363   3.911  0.5994 -0.5854  0.4545
33076SOL    HW2 3271   8.422   4.352   4.043 -0.8799  1.3151  1.4687
33077SOL     OW 3272   9.482   2.920   4.968 -0.4011  0.4287 -0.1832
33077SOL    HW1 3273   9.489   2.864   5.045 -0.8368  1.0800  0.3446
33077SOL    HW2 3274   9.572   2.938   4.942 -0.2062  1.2388  0.9589
33078SOL     OW 3275   0.294   9.861   9.654  0.0180 -0.9769 -0.2264
33078SOL    HW1 3276   0.219   9.921   9.650  1.1292  0.4047 -2.3378
33078SOL    HW2 3277   0.257   9.778   9.681 -1.9794  0.1010  0.5406
33079SOL     OW 3278   0.381   9.831   7.155 -0.0986  0.5037  0.2074
33079SOL    HW1 3279   0.474   9.849   7.156 -0.0855  0.5959 -1.2861
33079SOL    HW2 3280   0.374   9.739   7.181  0.4417  0.3492 -0.1942
33080SOL     OW 3281   2.280   2.006   0.804 -0.5106  0.2552 -0.7602
33080SOL    HW1 3282   2.325   2.077   0.850 -0.6798  0.1595 -0.4509
33080SOL    HW2 3283   2.335   1.929   0.819 -0.8117  0.1223 -0.3206
33081SOL     OW 3284   5.191   5.951   6.208  0.2142  0.2014 -0.1737
33081SOL    HW1 3285   5.220   5.919   6.123 -0.2277 -0.5089 -0.0651
33081SOL    HW2 3286   5.183   6.046   6.197  1.8161  0.3391 -0.4279
33082SOL     OW 3287   3.896   0.722   7.461 -0.0434 -0.2925  0.0708
33082SOL    HW1 3288   3.825   0.659   7.473 -0.0934 -0.6429 -1.7583
33082SOL    HW2 3289   3.959   0.677   7.404  0.4178  0.9316 -0.4285
33083SOL     OW 3290   8.795   1.853   7.633  0.2079  0.0981 -0.4871
33083SOL    HW1 3291   8.754   1.839   7.718 -0.7327  0.1135 -0.9215
33083SOL    HW2 3292   8.721   1.867   7.573  0.6976 -2.3291 -1.7790
33084SOL     OW 3293   7.702   5.813   4.789 -0.0853  0.2944  0.1046
33084SOL    HW1 3294   7.767   5.742   4.787 -1.7118 -1.2516 -0.8313
33084SOL    HW2 3295   7.718   5.863   4.710 -0.6176 -0.6652 -0.6274
33085SOL     OW 3296   7.329   0.863   7.282 -0.8257 -0.0468 -0.2603
33085SOL    HW1 3297   7.413   0.856   7.327 -0.2985 -0.3810 -1.2650
33085SOL    HW2 3298   7.313   0.957   7.275 -0.7360  0.0125  0.2801
33086SOL     OW 3299   6.421   7.367   3.995 -0.3067 -0.4658 -0.7668
33086SOL    HW1 3300   6.479   7.398   3.926 -0.4404  0.3154 -0.5366
33086SOL    HW2 3301   6.416   7.440   4.057 -1.4943 -0.5339 -0.7633
33087SOL     OW 3302   3.350   9.855   1.219 -0.4306  0.2240 -0.1947
33087SOL    HW1 3303   3.306   9.849   1.134  0.1921 -0.4171 -0.4826
33087SOL    HW2 3304   3.388   9.942   1.221 -0.4185  0.2279 -0.5834
33088SOL     OW 3305   7.651   3.966   1.806 -0.6021 -0.5218 -0.2182
33088SOL    HW1 3306   7.571   3.919   1.785 -0.8952 -0.1628  0.0824
33088SOL    HW2 3307   7.704   3.961   1.726 -1.1764 -0.2462 -0.6212
33089SOL     OW 3308   4.253   7.944   3.943  0.6821 -0.3339 -0.8929
33089SOL    HW1 3309   4.242   8.036   3.921 -0.0212  0.2092  1.4639
33089SOL    HW2 3310   4.348   7.929   3.938  0.8324  0.5882 -0.9748
33090SOL     OW 3311   4.100   0.438   0.798  0.5555  0.6797  0.1866
33090SOL    HW1 3312   4.064   0.458   0.884  1.9275 -1.2248  1.2842
33090SOL    HW2 3313   4.115   0.343   0.799 -0.8283  0.3032 -2.7458
33091SOL     OW 3314   3.704   3.776   7.586  0.1883 -0.0435  0.5852
33091SOL    HW1 3315   3.751   3.696   7.560  1.1678  0.8471 -0.5154
33091SOL    HW2 3316   3.772   3.833   7.622 -0.6841 -0.0864  2.3753
33092SOL     OW 3317   8.915   2.861   7.981 -0.2702  0.3808  0.3710
33092SOL    HW1 3318   8.936   2.954   7.990 -0.1055  0.5331 -1.2054
33092SOL    HW2 3319   8.826   2.859   7.945  0.0102 -0.0355 -0.3256
33093SOL     OW 3320  10.243   0.998   3.048 -0.1555  1.1672 -0.0547
33093SOL    HW1 3321  10.190   0.932   3.004 -1.1048  2.9364 -1.6879
33093SOL    HW2 3322  10.331   0.986   3.013 -0.0509  0.0587  0.5407
33094SOL     OW 3323   6.023   9.013   2.498  0.4549 -0.1231 -0.5926
33094SOL    HW1 3324   6.016   8.963   2.416 -0.9803 -1.4470  0.2943
33094SOL    HW2 3325   6.072   9.091   2.473 -0.0911 -0.3946 -2.7573
33095SOL     OW 3326   8.786   2.798   9.279  0.1876 -0.2734  0.2206
33095SOL    HW1 3327   8.830   2.805   9.194 -1.7024  0.7310 -0.7224
33095SOL    HW2 3328   8.800   2.707   9.305 -0.2525 -0.9624 -1.7815
33096SOL     OW 3329   6.560   2.051   3.227  0.3820 -0.3272 -0.2619
33096SOL    HW1 3330   6.622   2.017   3.291  0.7587 -1.6494 -1.2779
33096SOL    HW2 3331   6.520   1.973   3.188 -1.6629  0.4708  0.0851
33097SOL     OW 3332   6.068   0.171   5.608  0.1676 -0.0803  0.0935
33097SOL    HW1 3333   5.977   0.202   5.605 -0.2754 -1.2896  0.1613
33097SOL    HW2 3334   6.121   0.250   5.601 -0.8928  0.6386 -0.0956
33098SOL     OW 3335   8.642  10.036   2.082 -0.4057  0.3532 -0.0946
33098SOL    HW1 3336   8.614  10.057   1.993  0.4150  0.5791 -0.3073
33098SOL    HW2 3337   8.733  10.006   2.072 -0.9168 -1.4889  0.4247
33099SOL     OW 3338   6.119   0.553   6.678  0.2047 -0.3588 -0.5340
33099SOL    HW1 3339   6.069   0.633   6.664  0.7298  0.1536  0.4136
33099SOL    HW2 3340   6.053   0.484   6.681 -0.1158 -0.2832 -3.2869
33100SOL     OW 3341   5.627   4.558   8.117 -0.1097 -0.3991  0.0863
33100SOL    HW1 3342   5.622   4.463   8.125  1.0668 -0.4528  0.4471
33100SOL    HW2 3343   5.690   4.585   8.184  0.1165  0.5480 -0.4790
33101SOL     OW 3344   5.859   5.824   4.794 -0.3188 -0.5012 -0.5355
33101SOL    HW1 3345   5.857   5.735   4.758  0.3272 -0.9838  0.5380
33101SOL    HW2 3346   5.802   5.820   4.870 -0.0179 -0.0972 -0.2820
33102SOL     OW 3347   3.404  10.182   7.646  0.1090  0.5474 -0.2249
33102SOL    HW1 3348   3.385  10.156   7.736  2.0486 -0.7580 -0.1240
33102SOL    HW2 3349   3.360  10.117   7.591  0.9180 -0.1148 -0.1147
33103SOL     OW 3350   9.089   6.062   7.096  0.1930 -0.2839 -0.5311
33103SOL    HW1 3351   9.172   6.095   7.061  0.1692  0.6838  0.2728
33103SOL    HW2 3352   9.110   6.031   7.184 -0.4245  0.7239 -0.0006
33104SOL     OW 3353   9.359   5.795   6.090 -0.2802 -0.2411 -0.5627
33104SOL    HW1 3354   9.322   5.842   6.015  1.7708 -0.9261 -2.1258
33104SOL    HW2 3355   9.286   5.744   6.125 -2.6473  3.8520  1.2427
33105SOL     OW 3356   4.926   8.817   9.126  0.1703  0.1021 -0.1017
33105SOL    HW1 3357   5.012   8.777   9.136  0.4489  0.7551  0.1799
33105SOL    HW2 3358   4.865   8.743   9.118  0.6024 -0.3825  0.9780
33106SOL     OW 3359   8.679   0.958   4.050 -0.4600  0.2723 -0.5369
33106SOL    HW1 3360   8.699   1.005   4.131 -1.8334  1.9858 -1.1321
33106SOL    HW2 3361   8.693   0.866   4.072 -0.9138  0.6791  1.7073
33107SOL     OW 3362   5.476   8.686   6.180 -0.2905  0.4166  0.0033
33107SOL    HW1 3363   5.483   8.740   6.259  1.8876  0.3549 -0.1062
33107SOL    HW2 3364   5.524   8.606   6.202 -0.1634  0.1603 -1.1805
33108SOL     OW 3365   4.412   1.249   6.261 -0.6141  0.4456 -0.9216
33108SOL    HW1 3366   4.318   1.248   6.279 -0.5025 -0.1286 -0.3414
33108SOL    HW2 3367   4.424   1.323   6.201 -1.1200  1.9621  0.7524
33109SOL     OW 3368   8.449   3.466   9.590 -0.3956  0.1800 -0.1685
33109SOL    HW1 3369   8.505   3.441   9.663 -0.4661 -0.0383 -0.1919
33109SOL    HW2 3370   8.510   3.494   9.521 -0.2932 -0.6736 -0.4265
33110SOL     OW 3371   5.410   8.254   3.029 -0.0137 -0.0471 -0.1535
33110SOL    HW1 3372   5.330   8.202   3.023  1.0685 -1.8083  0.2069
33110SOL    HW2 3373   5.379   8.342   3.050 -1.8765 -0.5950 -0.4018
33111SOL     OW 3374   1.385   9.485   4.505 -0.0541  0.5992  0.0522
33111SOL    HW1 3375   1.436   9.404   4.514 -1.5401 -0.2521  1.6549
33111SOL    HW2 3376   1.335   9.473   4.424 -1.5934 -0.9719  1.1540
33112SOL     OW 3377   4.457   9.476   6.848  0.3585 -0.0231  0.1498
33112SOL    HW1 3378   4.507   9.416   6.793 -0.8256  0.2578 -1.3041
33112SOL    HW2 3379   4.484   9.563   6.820 -0.3974  0.1243 -0.1598
33113SOL     OW 3380   7.370   2.087   3.270  0.3306 -0.0111 -0.4363
33113SOL    HW1 3381   7.430   2.033   3.322  0.7432  0.7785 -0.0679
33113SOL    HW2 3382   7.372   2.049   3.183  0.9270 -0.3402 -0.2819
33114SOL     OW 3383   0.725   8.584   0.344  0.1146  0.1023  0.2980
33114SOL    HW1 3384   0.775   8.547   0.416  2.5405  2.0412 -0.2532
33114SOL    HW2 3385   0.757   8.537   0.266  0.5498  0.8230  0.0307
33115SOL     OW 3386   2.367   9.058   4.159 -0.4876 -0.3666  0.5786
33115SOL    HW1 3387   2.328   9.092   4.079 -0.0176 -0.1370  0.4414
33115SOL    HW2 3388   2.402   9.136   4.203  0.9283 -0.6769  0.0810
33116SOL     OW 3389   5.733  10.068   0.518  0.0260  0.4270 -0.3823
33116SOL    HW1 3390   5.677  10.146   0.517 -0.7803 -0.1474 -0.9057
33116SOL    HW2 3391   5.821  10.102   0.533 -0.5862  1.2642  1.7468
33117SOL     OW 3392   0.059   6.414   8.749  0.6476 -0.3646  0.0798
33117SOL    HW1 3393  -0.026   6.447   8.720 -0.0342 -1.6683  0.4963
33117SOL    HW2 3394   0.121   6.484   8.729 -0.7479  1.2264  1.1612
33118SOL     OW 3395   0.093   4.623   2.052 -0.4757  0.2945  0.2404
33118SOL    HW1 3396   0.151   4.651   1.981 -0.3172  0.3991  0.4097
33118SOL    HW2 3397   0.122   4.534   2.073 -2.0231 -0.6735 -1.3982
33119SOL     OW 3398   9.060   8.158   1.571 -0.7677  0.1131  0.3994
33119SOL    HW1 3399   8.993   8.090   1.575 -1.8853  1.2289  1.3095
33119SOL    HW2 3400   9.031   8.217   1.501 -0.3815  0.2596  0.3574
33120SOL     OW 3401   3.507   2.414   0.259 -0.6240 -0.2416 -0.0451
33120SOL    HW1 3402   3.430   2.357   0.260  0.9170 -2.5153 -1.4593
33120SOL    HW2 3403   3.561   2.383   0.332  0.6551 -1.2940 -1.3880
33121SOL     OW 3404   1.218   0.843   7.618 -0.3765 -0.3519 -0.0946
33121SOL    HW1 3405   1.184   0.768   7.669  0.9934 -0.8234  0.1768
33121SOL    HW2 3406   1.154   0.856   7.548 -0.5565 -1.9085 -0.2543
33122SOL     OW 3407   7.631   0.253   7.027 -0.1154  0.0775 -0.5089
33122SOL    HW1 3408   7.617   0.328   7.086 -1.4096 -0.3268 -0.2704
33122SOL    HW2 3409   7.628   0.177   7.085  0.7817 -0.2092 -0.8141
33123SOL     OW 3410   6.040   9.136   9.421 -0.0415  0.2850  0.0937
33123SOL    HW1 3411   6.052   9.190   9.343 -0.1941 -1.5740 -1.2656
33123SOL    HW2 3412   6.070   9.192   9.493 -0.7269  2.3727 -1.1553
33124SOL     OW 3413   0.217   9.045   9.779  0.0077 -0.2151  0.0845
33124SOL    HW1 3414   0.178   8.987   9.714  1.2452 -0.8047 -0.1720
33124SOL    HW2 3415   0.238   8.987   9.852 -1.0108  0.3719  0.8740
33125SOL     OW 3416   3.744   9.920   4.512  0.3281  0.1333 -0.0951
33125SOL    HW1 3417   3.789   9.868   4.446 -0.0419  1.1217 -1.1616
33125SOL    HW2 3418   3.775  10.009   4.496 -0.8258  0.5853  0.1594
33126SOL     OW 3419   3.324   6.190   2.132 -0.3125 -0.4364  0.5115
33126SOL    HW1 3420   3.410   6.223   2.106 -0.4356  0.7902  1.5596
33126SOL    HW2 3421   3.265   6.224   2.065 -0.1709 -0.0818  0.5628
33127SOL     OW 3422   5.006   5.438   1.528 -0.4996 -0.3076  0.5431
33127SOL    HW1 3423   4.930   5.496   1.523  0.2983  0.6454 -1.7088
33127SOL    HW2 3424   5.081   5.497   1.533  0.1859 -1.2007  0.9644
33128SOL     OW 3425   5.888   2.657   0.244 -0.1129  0.1150  0.7164
33128SOL    HW1 3426   5.978   2.690   0.248 -0.1028  0.2070 -0.0861
33128SOL    HW2 3427   5.850   2.701   0.168 -1.8055  2.4478  2.7591
33129SOL     OW 3428   0.183   7.713  10.164  0.1546 -0.7522  0.3092
33129SOL    HW1 3429   0.195   7.687  10.073 -0.2699 -2.2875  0.6696
33129SOL    HW2 3430   0.125   7.789  10.159  1.9517  0.6191 -0.8069
33130SOL     OW 3431   2.351   2.034   6.790 -0.4629  0.2570  0.3940
33130SOL    HW1 3432   2.344   2.111   6.734 -2.8204 -0.7366 -0.8302
33130SOL    HW2 3433   2.340   2.068   6.879  1.3664  1.6153  0.1640
33131SOL     OW 3434   6.136   8.058   5.022 -0.0891  0.0548 -0.1075
33131SOL    HW1 3435   6.175   8.069   4.935  0.2579  0.3071  0.0761
33131SOL    HW2 3436   6.043   8.046   5.005 -0.4337  2.5277 -0.4121
33132SOL     OW 3437   3.040   1.403   6.181 -0.2862  0.0167 -0.6546
33132SOL    HW1 3438   3.099   1.342   6.137  0.2888  2.0482 -2.9187
33132SOL    HW2 3439   3.064   1.489   6.147 -3.0354  1.2074  0.1096
33133SOL     OW 3440   4.596   5.771   4.221 -0.3347 -0.5807 -0.0112
33133SOL    HW1 3441   4.660   5.706   4.193  0.4342 -0.9397  2.3631
33133SOL    HW2 3442   4.606   5.843   4.159  0.9350 -1.4866 -0.8999
33134SOL     OW 3443   8.451   7.345   3.508  0.1653 -0.2929 -0.1813
33134SOL    HW1 3444   8.392   7.352   3.583 -0.2027 -1.5761 -0.3304
33134SOL    HW2 3445   8.423   7.416   3.449  0.1300  0.4023  0.6522
33135SOL     OW 3446   1.539   4.801   2.903  0.2496 -0.6829 -0.6100
33135SOL    HW1 3447   1.574   4.785   2.815  0.0259 -1.1361 -0.6197
33135SOL    HW2 3448   1.566   4.725   2.954 -0.2708 -0.7905 -0.4876
33136SOL     OW 3449   2.036   6.149   1.936 -0.1113  0.7089  0.1115
33136SOL    HW1 3450   2.101   6.125   1.870  1.2207 -1.1674  1.9458
33136SOL    HW2 3451   1.964   6.087   1.922  0.3992 -0.0396  0.6787
33137SOL     OW 3452   1.990   7.017   5.234 -0.0735 -0.4067  0.5326
33137SOL    HW1 3453   1.938   7.088   5.271 -0.4089 -1.2914  1.7997
33137SOL    HW2 3454   2.079   7.033   5.264  1.2797  2.8190 -4.0075
33138SOL     OW 3455   1.483   6.688   2.059 -0.4508  0.1238  0.2533
33138SOL    HW1 3456   1.390   6.684   2.036  0.1022 -0.8598 -2.0543
33138SOL    HW2 3457   1.516   6.765   2.012  0.3606 -0.9401 -0.9859
33139SOL     OW 3458   5.684   4.105   1.807  0.1883 -0.5325 -0.3098
33139SOL    HW1 3459   5.661   4.183   1.858  0.0185 -0.9910  0.3227
33139SOL    HW2 3460   5.748   4.137   1.743 -1.7048  0.6452 -1.7131
33140SOL     OW 3461   6.370   1.698   0.858  0.5190  0.0413 -0.1339
33140SOL    HW1 3462   6.385   1.646   0.937 -2.3074  0.7173  0.9655
33140SOL    HW2 3463   6.366   1.634   0.787  1.2156 -0.7750  0.5501
33141SOL     OW 3464   1.220   0.243  10.029  0.5379  0.8117  0.3584
33141SOL    HW1 3465   1.130   0.273  10.026  0.6033  1.1812  1.6197
33141SOL    HW2 3466   1.214   0.151  10.057  0.5286  0.5775 -0.3658
33142SOL     OW 3467   4.892  10.181   4.420 -0.3206 -0.1710 -0.0847
33142SOL    HW1 3468   4.916  10.207   4.509 -0.7198 -0.1087  0.0067
33142SOL    HW2 3469   4.856  10.093   4.429  0.4224 -0.5073 -0.3057
33143SOL     OW 3470   0.689   6.389   7.220 -0.2655 -0.3750  0.2855
33143SOL    HW1 3471   0.609   6.381   7.273 -1.4764 -0.2021 -1.4359
33143SOL    HW2 3472   0.667   6.455   7.154  1.1868 -0.5776 -0.4244
33144SOL     OW 3473  10.188   4.358   9.964 -0.8334 -0.1703 -0.1492
33144SOL    HW1 3474  10.193   4.397   9.876 -0.0670 -1.7758 -0.8485
33144SOL    HW2 3475  10.179   4.434  10.022  0.4283  1.0593 -1.4613
33145SOL     OW 3476   0.711   6.406   5.791 -0.2604 -0.1566 -0.0516
33145SOL    HW1 3477   0.653   6.481   5.805  1.3574  0.8755  1.5791
33145SOL    HW2 3478   0.783   6.442   5.739  0.0316 -0.8583 -0.1353
33146SOL     OW 3479   7.686   7.399   7.315  0.0530  0.1006  0.0049
33146SOL    HW1 3480   7.629   7.403   7.391  0.3536 -0.4787  0.2665
33146SOL    HW2 3481   7.774   7.408   7.351  0.3354 -2.0653 -0.0526
33147SOL     OW 3482   9.998   0.157   2.172  0.8903  0.8366 -0.3204
33147SOL    HW1 3483  10.018   0.077   2.221 -2.6227 -1.3826 -2.1165
33147SOL    HW2 3484  10.076   0.171   2.118  1.7633 -1.1384  0.3044
33148SOL     OW 3485   0.457   1.499   7.707 -0.3172  0.2560  0.1901
33148SOL    HW1 3486   0.441   1.407   7.686  0.1039  0.6357 -1.9677
33148SOL    HW2 3487   0.381   1.546   7.673 -0.3962  0.7641  1.0249
33149SOL     OW 3488   4.963   7.635   1.910 -0.1029  0.2901 -0.1475
33149SOL    HW1 3489   4.938   7.707   1.853  1.0359  0.5196 -0.3910
33149SOL    HW2 3490   4.982   7.677   1.994 -1.4673 -0.0063  0.3296
33150SOL     OW 3491   5.937   8.101   8.173 -0.4427 -0.4119 -0.0130
33150SOL    HW1 3492   6.001   8.149   8.121  1.5927 -3.3174 -0.4859
33150SOL    HW2 3493   5.974   8.102   8.262 -0.7553 -0.5009  0.1191
33151SOL     OW 3494   3.827   9.285   3.524 -0.0083  0.6021  0.3289
33151SOL    HW1 3495   3.923   9.277   3.521 -0.1929 -2.6116 -1.2959
33151SOL    HW2 3496   3.806   9.282   3.618  1.3961 -1.3699  0.6498
33152SOL     OW 3497   2.014   0.853   3.059 -0.0595  0.5640  0.2557
33152SOL    HW1 3498   2.109   0.841   3.061  0.1162  1.8071  0.0458
33152SOL    HW2 3499   1.982   0.804   3.134  0.9750  1.8665  1.5933
33153SOL     OW 3500   2.159   8.599   3.766  0.0844 -0.2894  0.1034
33153SOL    HW1 3501   2.098   8.532   3.734  0.1273 -0.5452  0.5423
33153SOL    HW2 3502   2.195   8.639   3.687 -0.1619 -0.5855 -0.1620
33154SOL     OW 3503   8.949   9.013   7.725  0.5033 -0.2077 -0.1530
33154SOL    HW1 3504   8.909   8.927   7.740 -0.0760 -0.0646 -0.8315
33154SOL    HW2 3505   8.876   9.069   7.698  0.9212  0.4349  0.0337
33155SOL     OW 3506   0.428   1.949   0.790  0.7348 -0.3953  0.3553
33155SOL    HW1 3507   0.367   2.017   0.764  1.1045 -0.5750 -1.1071
33155SOL    HW2 3508   0.502   1.996   0.828  0.6916 -0.0247 -0.0143
33156SOL     OW 3509   0.267   3.625   6.769 -0.1702  0.3110 -0.2046
33156SOL    HW1 3510   0.256   3.566   6.843 -1.5859  0.0614 -0.5729
33156SOL    HW2 3511   0.197   3.600   6.709  0.0971  1.4290 -1.0064
33157SOL     OW 3512   9.590   5.921   0.900  0.0153  0.6909  0.0335
33157SOL    HW1 3513   9.635   5.963   0.826  0.0508  1.9780  0.7572
33157SOL    HW2 3514   9.520   5.982   0.923 -0.1753  0.1711  0.8819
33158SOL     OW 3515   9.713   8.317   3.924 -0.1369  0.0692  0.0848
33158SOL    HW1 3516   9.798   8.278   3.941  0.0584  0.9755  1.3488
33158SOL    HW2 3517   9.651   8.244   3.927  0.5585 -0.5797 -0.7549
33159SOL     OW 3518   6.081   0.318   2.838  0.4439 -0.1116  0.1361
33159SOL    HW1 3519   6.124   0.302   2.754  0.7175 -0.4698  0.3417
33159SOL    HW2 3520   6.018   0.246   2.847 -0.1160  0.3424 -0.1080
33160SOL     OW 3521   2.196   6.056   3.761 -0.1938  0.7200 -0.0691
33160SOL    HW1 3522   2.250   6.124   3.803 -1.1762  1.5121 -0.0525
33160SOL    HW2 3523   2.220   5.975   3.807  0.8901  1.0712  0.0152
33161SOL     OW 3524   3.124   6.230   9.781  0.4793  0.4410  0.0460
33161SOL    HW1 3525   3.197   6.292   9.781  0.6009  0.3178 -0.7943
33161SOL    HW2 3526   3.144   6.171   9.708  0.5820 -0.8467  1.0807
33162SOL     OW 3527   4.138   7.230   4.573 -0.4090  0.0751  0.0999
33162SOL    HW1 3528   4.107   7.287   4.643 -0.5304  1.4088 -1.0169
33162SOL    HW2 3529   4.098   7.264   4.494 -0.0991 -1.2755 -0.6689
33163SOL     OW 3530   4.234   0.874   1.724  0.0152 -0.0057  0.3397
33163SOL    HW1 3531   4.244   0.827   1.642 -0.7626 -1.3950  1.0094
33163SOL    HW2 3532   4.310   0.849   1.777 -1.0590 -1.6249  1.1932
33164SOL     OW 3533   7.014   8.089   5.714 -0.1959  0.0822  0.1406
33164SOL    HW1 3534   7.062   8.171   5.704 -1.1900  0.6399 -0.2268
33164SOL    HW2 3535   7.077   8.021   5.691  0.3167  0.8105 -0.6554
33165SOL     OW 3536   1.555   1.069   7.440 -0.1940  0.0543  0.6219
33165SOL    HW1 3537   1.523   0.982   7.464  0.5285 -0.5330 -0.4637
33165SOL    HW2 3538   1.478   1.126   7.446 -0.6609 -0.6421  1.3768
33166SOL     OW 3539   2.570   9.043   4.872  0.2762 -0.1440 -0.1692
33166SOL    HW1 3540   2.549   9.132   4.844  0.1834  0.1841  0.9088
33166SOL    HW2 3541   2.635   9.054   4.941  1.0147 -0.9686 -0.7148
33167SOL     OW 3542   2.224   4.708   5.905 -0.1219 -0.2286 -0.3093
33167SOL    HW1 3543   2.184   4.683   5.988  1.0396  0.7516  0.5839
33167SOL    HW2 3544   2.166   4.775   5.869 -0.3394 -0.2567 -0.0089
33168SOL     OW 3545   0.301   7.685   5.788  0.5698  0.2409  0.4870
33168SOL    HW1 3546   0.235   7.691   5.719 -1.2352 -0.9310  2.0391
33168SOL    HW2 3547   0.375   7.640   5.746 -0.6470 -0.8362 -0.5757
33169SOL     OW 3548   9.959   7.541   1.082 -0.4738  0.1208  0.0823
33169SOL    HW1 3549   9.941   7.453   1.115  2.1088  0.2681  2.2547
33169SOL    HW2 3550  10.042   7.565   1.123 -0.0585  2.8006 -2.0536
33170SOL     OW 3551   2.538   5.703   0.461 -0.4627  0.1597  0.0511
33170SOL    HW1 3552   2.562   5.698   0.369 -0.6495 -1.2718  0.0554
33170SOL    HW2 3553   2.610   5.752   0.502 -0.1855  0.4646 -0.7806
33171SOL     OW 3554   4.293   7.690   0.728 -0.0772  0.0050  0.0379
33171SOL    HW1 3555   4.350   7.615   0.744 -0.4886 -0.3614 -0.1820
33171SOL    HW2 3556   4.207   7.660   0.757 -1.1148 -1.0749 -3.6625
33172SOL     OW 3557   1.761   8.022   9.618  0.1868 -0.7242 -0.6981
33172SOL    HW1 3558   1.824   7.958   9.584  1.3263  0.1458 -0.3031
33172SOL    HW2 3559   1.707   8.045   9.543  2.1703  0.5943 -1.8124
33173SOL     OW 3560   2.274   8.047   8.070  0.6558 -0.2357 -0.2920
33173SOL    HW1 3561   2.219   7.968   8.065  0.4325 -0.0865 -0.1714
33173SOL    HW2 3562   2.326   8.044   7.990  1.5971 -1.2059  0.3284
33174SOL     OW 3563   9.608  10.160   8.061 -0.2628  0.2174 -0.0987
33174SOL    HW1 3564   9.526  10.200   8.089 -0.7728 -1.0633  0.3152
33174SOL    HW2 3565   9.582  10.099   7.992  0.2867 -0.4385  0.2657
33175SOL     OW 3566   2.003   5.720   6.977 -0.1027  0.1119  0.4057
33175SOL    HW1 3567   2.053   5.695   7.054  1.4156  2.7143  0.3723
33175SOL    HW2 3568   2.003   5.815   6.978 -1.4735  0.2169 -1.9351
33176SOL     OW 3569   1.076   1.608   6.993  0.1195 -0.0682 -0.2226
33176SOL    HW1 3570   0.983   1.590   7.005 -0.6993  2.8031 -1.3792
33176SOL    HW2 3571   1.092   1.589   6.900  1.3770 -2.8172  0.4513
33177SOL     OW 3572   0.373   1.537   3.753 -0.0079 -0.2389 -0.0900
33177SOL    HW1 3573   0.287   1.497   3.740  0.4707 -1.9419  1.5092
33177SOL    HW2 3574   0.365   1.624   3.715 -2.9457  0.2759  1.3869
33178SOL     OW 3575   4.582   0.537   8.113  0.5410  0.2095 -0.0946
33178SOL    HW1 3576   4.599   0.629   8.092 -2.5107  1.6069  2.6835
33178SOL    HW2 3577   4.580   0.493   8.028  0.9196  2.9508 -1.6383
33179SOL     OW 3578   9.721   5.395  10.196 -0.0491  0.1030 -0.0139
33179SOL    HW1 3579   9.774   5.443  10.133  0.2894  0.2743  0.4015
33179SOL    HW2 3580   9.783   5.364  10.262 -0.6425  1.7712  1.4214
33180SOL     OW 3581   5.712   0.498   1.075 -0.2594 -0.0794  0.6709
33180SOL    HW1 3582   5.658   0.527   1.148 -1.4458  1.3252 -0.6731
33180SOL    HW2 3583   5.735   0.408   1.096 -1.9545 -0.2595  1.9918
33181SOL     OW 3584  10.272   9.456   4.679 -0.7150  0.0230  0.1265
33181SOL    HW1 3585  10.362   9.489   4.685 -0.8257  0.2208  0.7343
33181SOL    HW2 3586  10.247   9.436   4.769 -0.7467 -1.5186 -0.2010
33182SOL     OW 3587   8.577   4.674   0.402 -0.1106  0.6925  0.5065
33182SOL    HW1 3588   8.543   4.647   0.317  0.2727 -1.0851  0.8773
33182SOL    HW2 3589   8.598   4.767   0.391  2.2703 -0.0339 -2.1212
33183SOL     OW 3590   7.895   6.269   1.666  0.0257 -0.2648 -0.2964
33183SOL    HW1 3591   7.966   6.205   1.657  1.0873  0.8823 -0.3119
33183SOL    HW2 3592   7.867   6.261   1.757 -0.5914 -1.4770 -0.5673
33184SOL     OW 3593   6.043   5.762   9.190 -0.1299  0.2093 -0.4631
33184SOL    HW1 3594   5.996   5.699   9.135  0.8564  0.3798 -1.5503
33184SOL    HW2 3595   6.112   5.711   9.232 -0.5188  0.1975  0.1688
33185SOL     OW 3596   8.085   5.656   0.221 -0.0364  0.4197  0.0239
33185SOL    HW1 3597   8.162   5.659   0.278 -0.0578  0.9326  0.0252
33185SOL    HW2 3598   8.117   5.681   0.135  0.5307 -2.7328 -0.8319
33186SOL     OW 3599   9.750   5.332   7.691 -0.1167 -0.2606 -0.3342
33186SOL    HW1 3600   9.764   5.244   7.725 -1.7031  0.3571  2.1928
33186SOL    HW2 3601   9.682   5.322   7.624 -1.0331 -0.8762  0.6597
33187SOL     OW 3602   4.427   4.678   0.229  0.0032 -0.2915  0.3456
33187SOL    HW1 3603   4.386   4.663   0.315 -0.5694 -2.2044 -0.2060
33187SOL    HW2 3604   4.423   4.592   0.186  1.2846  0.3721 -1.1705
33188SOL     OW 3605   1.882   2.634   6.449  0.5205  0.1561 -0.0524
33188SOL    HW1 3606   1.802   2.664   6.491  0.2963  0.4609 -0.6880
33188SOL    HW2 3607   1.852   2.588   6.371  0.7845 -2.6391  1.3696
33189SOL     OW 3608   2.673   1.452   7.548  0.1742  0.3731 -0.0318
33189SOL    HW1 3609   2.744   1.401   7.509 -1.2910 -0.7132 -1.4069
33189SOL    HW2 3610   2.680   1.538   7.507  0.8086  0.3396 -0.0046
33190SOL     OW 3611   5.007   3.396   8.446 -0.2300  0.5135 -0.0531
33190SOL    HW1 3612   5.061   3.435   8.515  0.7777  0.2785 -0.6907
33190SOL    HW2 3613   5.058   3.321   8.416 -0.5666  0.7263 -1.1865
33191SOL     OW 3614   3.577   7.320   0.187  0.3727 -0.4743  0.0034
33191SOL    HW1 3615   3.559   7.334   0.281  0.6694 -0.2685  0.0281
33191SOL    HW2 3616   3.619   7.235   0.183  0.3422 -0.4917  0.0563
33192SOL     OW 3617   4.071   0.871   6.612  0.0581  0.3309 -0.4678
33192SOL    HW1 3618   4.013   0.933   6.656  0.1913  0.6357 -0.7232
33192SOL    HW2 3619   4.042   0.870   6.521  1.3350  1.5644 -0.9377
33193SOL     OW 3620   1.899   7.635   1.454  0.5195  0.1764 -0.1828
33193SOL    HW1 3621   1.831   7.587   1.501 -0.6298  0.3666 -1.5972
33193SOL    HW2 3622   1.939   7.570   1.396  0.4321  0.4353 -0.5350
33194SOL     OW 3623   8.800   8.953   2.651  0.2569  0.4337  0.0762
33194SOL    HW1 3624   8.841   8.943   2.736 -0.3719 -1.3278  0.2233
33194SOL    HW2 3625   8.872   8.972   2.591  0.6008  2.5601  1.0945
33195SOL     OW 3626   1.905   8.600   7.161 -0.2636  0.3661 -0.0723
33195SOL    HW1 3627   1.851   8.622   7.236 -0.1871  1.9037 -0.4324
33195SOL    HW2 3628   1.961   8.677   7.148 -0.6129  0.3404 -1.9830
33196SOL     OW 3629   1.036   6.150   4.433  0.4128 -0.4712 -0.4266
33196SOL    HW1 3630   1.036   6.063   4.394 -0.1359  0.3457 -2.4047
33196SOL    HW2 3631   0.947   6.162   4.466  0.4121 -0.5510 -0.3989
33197SOL     OW 3632   4.208   7.119   0.561  0.5765  0.5610  0.2015
33197SOL    HW1 3633   4.157   7.186   0.606  1.8511  0.5827  1.7056
33197SOL    HW2 3634   4.185   7.128   0.469 -1.6340  0.9695  0.7454
33198SOL     OW 3635   0.276   8.332   2.270 -0.0890  0.1165 -0.4481
33198SOL    HW1 3636   0.330   8.411   2.268  2.0832 -1.0065  3.3876
33198SOL    HW2 3637   0.333   8.262   2.238 -0.1721 -0.6608  1.0126
33199SOL     OW 3638   6.577   6.890   7.024  0.3087  0.4248 -0.4242
33199SOL    HW1 3639   6.584   6.980   6.992 -0.8637  0.8851  0.5264
33199SOL    HW2 3640   6.663   6.871   7.062  0.2234  1.5805  0.4081
33200SOL     OW 3641   9.806   8.913   5.535  0.5472 -0.0557 -0.3520
33200SOL    HW1 3642   9.799   8.977   5.605  0.1102  0.3504 -0.7519
33200SOL    HW2 3643   9.783   8.962   5.455 -0.2396 -0.7980 -0.6085
33201SOL     OW 3644   9.934   7.789   0.660 -0.2766  0.0326 -0.1574
33201SOL    HW1 3645  10.020   7.777   0.620 -0.3797  0.7555 -0.6173
33201SOL    HW2 3646   9.934   7.731   0.736  0.2563 -0.7068 -0.7070
33202SOL     OW 3647   0.900   3.915   4.504 -0.1418 -0.5562  0.3735
33202SOL    HW1 3648   0.882   4.009   4.497 -1.6007 -0.8734 -0.6976
33202SOL    HW2 3649   0.822   3.873   4.467  0.1183 -2.2143  1.6014
33203SOL     OW 3650   7.749   4.984   6.154  0.5850  0.0514  0.4035
33203SOL    HW1 3651   7.804   4.949   6.224 -0.0676 -0.0299  0.8841
33203SOL    HW2 3652   7.794   4.959   6.074  1.4699  0.3473  0.7898
33204SOL     OW 3653   2.007   9.007  10.223  0.1371 -0.2953 -0.2050
33204SOL    HW1 3654   1.984   8.951  10.297  1.0768  0.2520  0.5344
33204SOL    HW2 3655   1.957   8.972  10.149 -0.5133 -1.1008  0.5979
33205SOL     OW 3656   0.528   4.853   7.045 -0.5884 -0.2158 -0.7594
33205SOL    HW1 3657   0.537   4.947   7.060  1.4732 -0.4177 -0.4556
33205SOL    HW2 3658   0.531   4.844   6.949  0.1123 -0.0254 -0.7624
33206SOL     OW 3659   6.676   4.233   8.662 -0.0264 -0.1504 -0.0145
33206SOL    HW1 3660   6.736   4.224   8.736  0.2490  0.5675 -0.1386
33206SOL    HW2 3661   6.653   4.143   8.638  0.4876 -0.4107  0.4509
33207SOL     OW 3662   5.295   1.484   1.091  0.2471  0.1909  0.0380
33207SOL    HW1 3663   5.206   1.452   1.083  0.1448  0.1911  1.0452
33207SOL    HW2 3664   5.346   1.407   1.118  0.6281  0.0982 -0.9185
33208SOL     OW 3665   3.017   3.696  10.018  0.1759 -0.6511 -0.4700
33208SOL    HW1 3666   3.058   3.616  10.049  0.3676 -0.4322 -0.1552
33208SOL    HW2 3667   2.990   3.676   9.928 -0.9603 -1.5008  0.0300
33209SOL     OW 3668   6.777   8.603   9.654  0.1593  0.2480  0.2656
33209SOL    HW1 3669   6.762   8.554   9.573 -0.8010 -0.0534  0.6032
33209SOL    HW2 3670   6.715   8.564   9.717  1.7589 -0.4059  1.5183
33210SOL     OW 3671   3.038   1.988   0.046  0.2813  0.4002  0.2838
33210SOL    HW1 3672   3.099   1.925   0.083  0.5962  2.2914  3.3426
33210SOL    HW2 3673   3.082   2.022  -0.033  2.8720  1.0992  1.9216
33211SOL     OW 3674   9.865   0.617  10.235 -0.7139  0.4942  0.2635
33211SOL    HW1 3675   9.904   0.548  10.288 -0.3100  1.2844  1.0169
33211SOL    HW2 3676   9.805   0.663  10.294  0.5590  2.0766  0.3958
33212SOL     OW 3677   8.599   4.557   0.661  0.0748  0.1134  0.2599
33212SOL    HW1 3678   8.555   4.476   0.636 -0.6496  0.6210 -0.1701
33212SOL    HW2 3679   8.590   4.614   0.585  1.3192  0.3146  0.2419
33213SOL     OW 3680   6.836   4.337   6.627 -0.3376  0.3473 -0.0485
33213SOL    HW1 3681   6.878   4.253   6.611 -0.7377  0.2483 -0.5877
33213SOL    HW2 3682   6.898   4.384   6.683  0.6147  0.3045 -1.0329
33214SOL     OW 3683   4.131   5.630   0.927 -0.4346  0.4276 -0.2428
33214SOL    HW1 3684   4.118   5.724   0.915 -0.7225  0.4756  0.4323
33214SOL    HW2 3685   4.072   5.589   0.863 -0.3233  0.7027 -0.5240
33215SOL     OW 3686   8.507   8.694   3.194 -0.0495 -0.2962 -0.3017
33215SOL    HW1 3687   8.471   8.683   3.282  0.7115 -1.9643 -0.1521
33215SOL    HW2 3688   8.431   8.687   3.137 -0.3174 -1.1434  0.1390
33216SOL     OW 3689   6.989   4.480   3.695  0.4058 -0.7995  0.5470
33216SOL    HW1 3690   6.942   4.424   3.633  0.4066 -0.9695  0.6999
33216SOL    HW2 3691   7.070   4.504   3.649 -0.1161  0.0294  0.0191
33217SOL     OW 3692   2.063   9.565   1.900  0.0560  0.3599 -0.7971
33217SOL    HW1 3693   2.128   9.496   1.915  0.4441  0.7514 -0.6646
33217SOL    HW2 3694   2.017   9.537   1.820  0.4485  0.1253 -0.9457
33218SOL     OW 3695   3.598   4.923   7.818 -0.3989  0.1656 -0.1840
33218SOL    HW1 3696   3.639   4.954   7.738  0.1282 -0.6311 -0.2304
33218SOL    HW2 3697   3.623   4.988   7.884 -0.0975  0.3509 -0.4788
33219SOL     OW 3698   2.549   8.664   0.202  0.0319  0.5185 -0.0718
33219SOL    HW1 3699   2.501   8.743   0.180 -1.0904 -0.2547 -0.5173
33219SOL    HW2 3700   2.604   8.647   0.125 -2.3301 -1.0129 -1.5803
33220SOL     OW 3701   0.063   0.430   5.609  0.1559 -0.0045 -0.7189
33220SOL    HW1 3702   0.149   0.455   5.641  0.6604 -0.2317 -1.8441
33220SOL    HW2 3703   0.054   0.338   5.634 -0.1393  0.2503  0.1549
33221SOL     OW 3704   6.225   3.552   6.966  0.2212  0.2291  0.1491
33221SOL    HW1 3705   6.315   3.576   6.947  0.2164  0.5528  0.5250
33221SOL    HW2 3706   6.202   3.489   6.898  1.2539 -1.1058  0.9875
33222SOL     OW 3707   6.796   0.091   0.104 -0.2450 -0.2815 -0.1600
33222SOL    HW1 3708   6.821   0.169   0.054 -0.5946 -0.4564 -0.6181
33222SOL    HW2 3709   6.879   0.045   0.121  0.0578  0.5992  0.8223
33223SOL     OW 3710   4.683  10.093   5.055  0.7124 -0.3024 -0.1786
33223SOL    HW1 3711   4.670   9.998   5.046  1.3940 -0.8169  2.8733
33223SOL    HW2 3712   4.673  10.127   4.967 -4.3824 -2.5444 -0.8321
33224SOL     OW 3713   1.740   8.669   4.390 -0.4642  0.9035  0.3253
33224SOL    HW1 3714   1.690   8.740   4.349 -0.7683 -0.0101 -0.9247
33224SOL    HW2 3715   1.820   8.663   4.339 -0.0077  0.9582  1.0204
33225SOL     OW 3716   3.819   8.598   5.326  0.1772  0.2802 -0.0507
33225SOL    HW1 3717   3.739   8.586   5.377 -0.3890 -0.0906 -1.0020
33225SOL    HW2 3718   3.851   8.509   5.311  1.2127  0.4509  0.9810
33226SOL     OW 3719   0.186   3.619   5.970 -0.7121  0.3727 -0.4056
33226SOL    HW1 3720   0.278   3.643   5.967 -0.5544 -0.2825 -2.4077
33226SOL    HW2 3721   0.140   3.695   5.933 -0.9265  0.4429 -0.0080
33227SOL     OW 3722   1.477   3.733   7.096 -0.1907 -0.4110  0.1351
33227SOL    HW1 3723   1.555   3.678   7.085  0.0661 -0.0025 -0.0925
33227SOL    HW2 3724   1.493   3.781   7.177 -1.7741 -2.9114  2.0919
33228SOL     OW 3725   9.574   4.153   4.015  0.6128 -0.1847 -0.3971
33228SOL    HW1 3726   9.663   4.177   4.038  1.5447 -0.9439 -2.8886
33228SOL    HW2 3727   9.555   4.205   3.936 -1.1611 -0.0230  0.0922
33229SOL     OW 3728   9.492   7.450   5.818 -0.1659  0.5498 -0.1939
33229SOL    HW1 3729   9.540   7.398   5.754 -0.0839  0.4618 -0.0597
33229SOL    HW2 3730   9.552   7.520   5.843 -0.4504  1.0080 -0.7441
33230SOL     OW 3731   5.671   7.412   3.543 -0.0212  0.2369  0.0897
33230SOL    HW1 3732   5.590   7.421   3.594 -0.8651 -0.3610 -1.0859
33230SOL    HW2 3733   5.664   7.326   3.503  2.3003 -0.8061  1.7306
33231SOL     OW 3734   8.904   0.168   2.542 -0.1993 -0.4259 -0.8670
33231SOL    HW1 3735   8.957   0.160   2.622  0.4154 -1.0302 -1.3220
33231SOL    HW2 3736   8.966   0.154   2.471 -0.8733 -0.5797 -1.4307
33232SOL     OW 3737   8.501   7.278   7.166  0.5055  0.3845 -0.3989
33232SOL    HW1 3738   8.431   7.334   7.131 -0.3654 -0.4869 -0.0666
33232SOL    HW2 3739   8.495   7.287   7.261  0.3702 -0.2517 -0.3418
33233SOL     OW 3740   9.491   1.198   9.584  0.2528  0.0827  0.4359
33233SOL    HW1 3741   9.582   1.172   9.598  1.0526  2.0247 -0.7694
33233SOL    HW2 3742   9.453   1.201   9.672  2.1711  1.9236  1.2772
33234SOL     OW 3743   0.456   1.706   9.336 -0.2766 -0.2214  0.2305
33234SOL    HW1 3744   0.396   1.731   9.266 -0.9220  2.0884  1.5246
33234SOL    HW2 3745   0.542   1.709   9.295 -0.7501 -0.3433 -0.8197
33235SOL     OW 3746   5.027   3.771   5.051 -0.7539  0.1216  0.4354
33235SOL    HW1 3747   5.051   3.836   5.117 -0.0203 -0.1854  0.4884
33235SOL    HW2 3748   5.067   3.803   4.970  3.5062 -2.3342  1.2479
33236SOL     OW 3749   0.393   1.529  10.155  0.2876  0.4644  0.6027
33236SOL    HW1 3750   0.405   1.466  10.084 -1.4089  1.0650 -0.2892
33236SOL    HW2 3751   0.460   1.595  10.140 -0.0766  0.6113 -0.5076
33237SOL     OW 3752   9.313   4.982   4.594 -0.2547 -0.0475 -0.0915
33237SOL    HW1 3753   9.304   5.048   4.525 -3.0415  1.2945  1.3887
33237SOL    HW2 3754   9.385   5.014   4.648  1.3684 -0.6517 -1.8037
33238SOL     OW 3755   3.248   3.975   3.440 -0.2006 -0.0159  0.2855
33238SOL    HW1 3756   3.160   3.944   3.417 -1.1659  2.0138  0.9518
33238SOL    HW2 3757   3.251   3.967   3.536  0.3116  0.0037  0.2703
33239SOL     OW 3758   7.515   8.366   0.290  0.2770  0.7216 -0.2634
33239SOL    HW1 3759   7.592   8.409   0.252  0.2555  1.1667  0.1856
33239SOL    HW2 3760   7.474   8.321   0.216  1.1546  0.2044 -0.4437
33240SOL     OW 3761   1.330   4.370   8.906  0.6204 -0.1801  0.1912
33240SOL    HW1 3762   1.424   4.353   8.913  1.0388  1.3858 -1.0370
33240SOL    HW2 3763   1.318   4.455   8.950  0.1552  0.6097 -1.3953
33241SOL     OW 3764   3.051   7.190   1.548 -0.2840  0.0708 -0.1385
33241SOL    HW1 3765   2.993   7.119   1.521 -1.3236  1.3353 -1.3815
33241SOL    HW2 3766   2.992   7.260   1.576  0.4587  2.0129 -2.9939
33242SOL     OW 3767   3.555   9.912   1.754 -0.0783  0.2101  0.1014
33242SOL    HW1 3768   3.593   9.890   1.669  1.2953 -0.6483  0.9011
33242SOL    HW2 3769   3.461   9.901   1.742  0.1575 -0.6879 -1.0960
33243SOL     OW 3770   6.601   5.250   5.694  0.5375 -0.1166 -0.2540
33243SOL    HW1 3771   6.590   5.192   5.769 -1.3118 -0.3772 -0.6708
33243SOL    HW2 3772   6.644   5.328   5.729  2.9315 -1.6026  0.3431
33244SOL     OW 3773   4.093   4.400   0.777 -0.0498  0.0341 -0.0178
33244SOL    HW1 3774   4.106   4.481   0.728  0.3861 -0.9231 -1.5194
33244SOL    HW2 3775   4.127   4.420   0.865 -1.0753  1.8531  0.0220
33245SOL     OW 3776   3.035   0.075   3.281 -0.2158 -0.7431  0.0090
33245SOL    HW1 3777   2.973   0.006   3.305  0.3792 -0.7395  1.7049
33245SOL    HW2 3778   2.983   0.139   3.233 -1.6025 -0.6613  1.5101
33246SOL     OW 3779   3.515   5.555   5.680  0.3873 -0.0651  0.4393
33246SOL    HW1 3780   3.437   5.566   5.733  0.4369  0.6751  0.3742
33246SOL    HW2 3781   3.587   5.548   5.743  0.4107  0.5181  0.4850
33247SOL     OW 3782   0.771  10.035   1.445 -0.0256  0.0860  0.1372
33247SOL    HW1 3783   0.752  10.125   1.471  0.9465  0.7250 -1.2743
33247SOL    HW2 3784   0.817   9.997   1.520  0.1292  0.9676  0.4944
33248SOL     OW 3785   4.305   4.019   3.896  0.4920 -0.1486 -0.3006
33248SOL    HW1 3786   4.301   4.023   3.800 -0.3256  2.2777 -0.2429
33248SOL    HW2 3787   4.354   4.098   3.921 -1.5243  0.6825  1.3278
33249SOL     OW 3788   5.863   1.454   5.667  0.1710 -0.4078 -0.4146
33249SOL    HW1 3789   5.931   1.390   5.647 -0.2937 -0.8271 -0.6982
33249SOL    HW2 3790   5.817   1.467   5.584  0.1482  0.1699 -0.3211
33250SOL     OW 3791   9.262   0.669   3.203 -0.5712  0.2406  0.2776
33250SOL    HW1 3792   9.223   0.601   3.257  1.1164  0.1216  1.3852
33250SOL    HW2 3793   9.207   0.746   3.219 -0.3422  0.1002  1.8616
33251SOL     OW 3794   3.320   2.167   2.812 -0.3907 -0.5283 -0.0973
33251SOL    HW1 3795   3.274   2.167   2.896 -1.3085  0.8118 -0.5591
33251SOL    HW2 3796   3.412   2.156   2.835 -0.6783 -0.6293  1.0570
33252SOL     OW 3797   6.840   8.857   0.375 -0.0625  0.2762  0.0791
33252SOL    HW1 3798   6.836   8.907   0.294 -0.5739 -0.5120 -0.3962
33252SOL    HW2 3799   6.755   8.814   0.381 -0.1723  0.6257  1.2365
33253SOL     OW 3800   0.603   0.697   2.716  0.5412  0.3105  0.0434
33253SOL    HW1 3801   0.646   0.692   2.631  1.4389  1.2796  0.4240
33253SOL    HW2 3802   0.543   0.772   2.708  0.6755  0.4449  0.2834
33254SOL     OW 3803   7.552   5.944   5.586  0.3437 -0.5054 -0.1454
33254SOL    HW1 3804   7.511   5.955   5.672 -0.3502  0.6017 -0.6007
33254SOL    HW2 3805   7.618   6.013   5.582 -0.0716 -0.1299 -0.7458
33255SOL     OW 3806   7.053   4.990   3.984 -0.0544  0.2406 -0.2188
33255SOL    HW1 3807   7.088   4.920   3.929  0.4896  0.5287 -0.2505
33255SOL    HW2 3808   6.971   5.015   3.943 -1.2761 -1.7209  0.8892
33256SOL     OW 3809   0.674   8.219   4.690 -0.7275  0.2530 -0.4526
33256SOL    HW1 3810   0.670   8.304   4.645  0.9906  0.2305 -0.7019
33256SOL    HW2 3811   0.614   8.229   4.764 -0.6088  1.6679 -0.5157
33257SOL     OW 3812   5.125   8.895   0.579  0.4018  0.6899 -0.2708
33257SOL    HW1 3813   5.132   8.957   0.507 -0.2274  0.1662 -0.8035
33257SOL    HW2 3814   5.137   8.809   0.538  0.4463  0.4095  0.3141
33258SOL     OW 3815   8.674   1.371   6.125  0.4948 -0.1609  0.2651
33258SOL    HW1 3816   8.580   1.362   6.107  0.5426 -0.2556  0.0628
33258SOL    HW2 3817   8.685   1.462   6.150  0.5062  0.1022 -0.6634
33259SOL     OW 3818   1.202   0.593   1.709  0.0001  0.0056 -0.0092
33259SOL    HW1 3819   1.256   0.520   1.680 -1.4688 -1.2086  0.1398
33259SOL    HW2 3820   1.207   0.657   1.639  0.6515 -0.6105 -0.5327
33260SOL     OW 3821   2.330  10.070   6.369 -0.1686  0.0163 -0.0133
33260SOL    HW1 3822   2.417  10.040   6.342 -0.4787 -3.0268  1.9228
33260SOL    HW2 3823   2.270  10.003   6.337 -1.7412  1.5594 -0.4506
33261SOL     OW 3824   5.376   7.810   8.981 -0.5334 -0.1345 -0.4963
33261SOL    HW1 3825   5.425   7.808   8.898  0.2067  1.6791 -0.1561
33261SOL    HW2 3826   5.431   7.863   9.039 -2.0711  0.4339  0.4792
33262SOL     OW 3827   9.358   4.985   2.783  0.3451  0.1724  0.5677
33262SOL    HW1 3828   9.400   4.926   2.846 -0.2880  0.5498  1.3587
33262SOL    HW2 3829   9.274   5.007   2.823  0.5207  1.5311  0.2318
33263SOL     OW 3830   5.532   8.082   8.207 -0.5954  0.4156  0.6183
33263SOL    HW1 3831   5.443   8.113   8.189 -1.0676 -0.7794  0.8177
33263SOL    HW2 3832   5.588   8.141   8.155 -1.6206  0.0287 -1.0128
33264SOL     OW 3833   1.419   1.504   0.089 -0.2919 -0.3746  0.2753
33264SOL    HW1 3834   1.375   1.420   0.076  0.5820 -0.9615  0.9837
33264SOL    HW2 3835   1.368   1.566   0.037 -0.4166 -1.5076 -1.0000
33265SOL     OW 3836   0.492   1.467   6.561 -0.1948 -0.0282  0.2851
33265SOL    HW1 3837   0.551   1.398   6.531  1.0404  0.3276  1.7212
33265SOL    HW2 3838   0.421   1.469   6.498 -0.5409 -2.9718  0.4872
33266SOL     OW 3839   7.127   1.601   9.083  0.6326  0.1368 -0.6369
33266SOL    HW1 3840   7.124   1.506   9.083  0.0858  0.1495 -0.1186
33266SOL    HW2 3841   7.045   1.628   9.043  1.2019  0.3929 -1.6730
33267SOL     OW 3842   2.305   4.094   2.384 -0.0521  0.0383  0.1379
33267SOL    HW1 3843   2.255   4.159   2.434 -0.2511 -1.4918  2.0524
33267SOL    HW2 3844   2.260   4.012   2.400  1.0533 -0.8314 -1.0151
33268SOL     OW 3845   8.129   1.316   0.184 -0.1082 -0.3437  0.4698
33268SOL    HW1 3846   8.223   1.330   0.169 -0.1242  0.0651  0.7264
33268SOL    HW2 3847   8.086   1.355   0.108 -0.0704 -0.5808  0.3247
33269SOL     OW 3848   3.736   9.513   8.734 -0.5120  0.7335 -0.4113
33269SOL    HW1 3849   3.763   9.597   8.770  0.7166  0.4814 -0.6652
33269SOL    HW2 3850   3.812   9.484   8.683 -0.7384 -0.7180  0.0175
33270SOL     OW 3851   5.162   8.199   9.238  0.5375 -0.5569 -0.3709
33270SOL    HW1 3852   5.239   8.208   9.183  0.4573 -0.6404 -0.4984
33270SOL    HW2 3853   5.096   8.160   9.180 -0.0045  0.7227 -0.6442
33271SOL     OW 3854   7.860   2.532   0.645  0.0586  0.0627  0.0819
33271SOL    HW1 3855   7.788   2.536   0.708 -0.7618 -0.6008 -0.7788
33271SOL    HW2 3856   7.822   2.489   0.568  1.0052  0.9455 -0.9098
33272SOL     OW 3857   4.640   8.187   2.364 -0.3129 -0.7923  0.5479
33272SOL    HW1 3858   4.594   8.254   2.415 -2.1319 -0.8879 -0.8603
33272SOL    HW2 3859   4.570   8.140   2.318  1.1635 -1.4352 -1.1380
33273SOL     OW 3860   0.367   2.459   7.791  0.3041  0.6023 -0.2941
33273SOL    HW1 3861   0.352   2.498   7.877 -0.1119  2.2339 -1.0694
33273SOL    HW2 3862   0.285   2.471   7.743  0.3473 -0.7677 -0.7664
33274SOL     OW 3863   7.566   4.164   5.129  0.0138  0.1217  0.3999
33274SOL    HW1 3864   7.592   4.253   5.152 -0.3021  0.2434  0.2931
33274SOL    HW2 3865   7.541   4.124   5.212  0.1909  0.1196  0.4529
33275SOL     OW 3866   0.377   8.542   1.062 -0.0977 -0.0303  0.4524
33275SOL    HW1 3867   0.361   8.469   1.122 -0.8612  0.2666  0.6257
33275SOL    HW2 3868   0.401   8.500   0.979 -3.5005 -0.6517 -0.3654
33276SOL     OW 3869   7.596   5.381   4.115 -0.5418 -0.0350 -0.2676
33276SOL    HW1 3870   7.652   5.303   4.108 -1.0350 -0.2600 -3.0578
33276SOL    HW2 3871   7.568   5.382   4.206  0.6235 -2.3122  0.2035
33277SOL     OW 3872   4.209   2.961   9.954 -0.1670 -0.3266 -0.3115
33277SOL    HW1 3873   4.292   2.967  10.003  0.6473 -1.5695 -1.4723
33277SOL    HW2 3874   4.203   3.043   9.906  0.6413 -0.4069 -0.5670
33278SOL     OW 3875   4.986   3.171   2.242 -0.0276 -0.0593  0.7172
33278SOL    HW1 3876   4.913   3.120   2.276 -0.2736  0.0651  0.3810
33278SOL    HW2 3877   5.051   3.169   2.312 -0.1353 -0.6214  0.8074
33279SOL     OW 3878   8.310  10.136   2.786  0.5724 -0.0043 -0.2866
33279SOL    HW1 3879   8.282  10.054   2.745 -1.4278  0.8939 -0.8446
33279SOL    HW2 3880   8.384  10.111   2.841  0.4889 -2.0435 -0.9981
33280SOL     OW 3881   3.450   7.626   4.512  0.0450  0.4792 -0.6206
33280SOL    HW1 3882   3.542   7.649   4.526 -0.2030  1.1855 -0.1115
33280SOL    HW2 3883   3.401   7.696   4.554 -0.7371  0.8113 -2.0223
33281SOL     OW 3884   1.533   3.094   0.892  0.5272 -0.0166 -0.1341
33281SOL    HW1 3885   1.516   3.006   0.927 -0.1259 -0.2091 -0.9100
33281SOL    HW2 3886   1.453   3.142   0.908  0.5341  0.1500 -0.5740
33282SOL     OW 3887   5.306   2.041   5.680 -0.0556  0.2371  0.1177
33282SOL    HW1 3888   5.311   2.021   5.774  0.8797  3.4024  0.8635
33282SOL    HW2 3889   5.213   2.059   5.665  0.0852  1.9833  1.0589
33283SOL     OW 3890   5.133   0.029   6.050 -0.5612 -0.6434  0.5022
33283SOL    HW1 3891   5.096   0.116   6.067 -2.0494 -1.3562  1.0498
33283SOL    HW2 3892   5.066  -0.017   6.000 -0.3522 -1.9182  1.3517
33284SOL     OW 3893  10.022   6.178   6.370 -0.4882 -0.4619  0.0377
33284SOL    HW1 3894  10.005   6.185   6.276 -0.8018  0.1018  0.1309
33284SOL    HW2 3895   9.936   6.158   6.408 -0.3279 -0.8794  0.1886
33285SOL     OW 3896   8.689   6.517   7.074  0.0512  0.1692  0.1034
33285SOL    HW1 3897   8.771   6.503   7.026  0.2000  0.3033  0.3141
33285SOL    HW2 3898   8.631   6.560   7.011 -0.3979 -1.3256 -0.5299
33286SOL     OW 3899   2.046   2.788   0.981  0.2121  0.2745  0.1233
33286SOL    HW1 3900   2.040   2.692   0.977  0.3566  0.3036 -1.1941
33286SOL    HW2 3901   1.957   2.818   0.964  0.6076  0.3927 -2.0057
33287SOL     OW 3902   1.030   8.089   8.611  0.0461 -0.1471 -0.1434
33287SOL    HW1 3903   0.973   8.149   8.659 -1.1322 -0.9570 -0.4898
33287SOL    HW2 3904   1.094   8.060   8.676 -1.0736 -0.6536  0.7740
33288SOL     OW 3905   1.365   8.876   8.731  0.2310  0.2400  0.5965
33288SOL    HW1 3906   1.373   8.927   8.812  0.3432  0.8466  0.2105
33288SOL    HW2 3907   1.297   8.811   8.751  0.5361  0.1229  1.3064
33289SOL     OW 3908  10.045   6.095   7.450  0.2582 -0.4931 -0.4146
33289SOL    HW1 3909  10.056   6.001   7.467  0.2399 -0.7342 -1.6655
33289SOL    HW2 3910   9.950   6.105   7.438  0.0458 -0.0010  1.3578
33290SOL     OW 3911   5.292   6.797   7.998 -0.4596  0.2201 -0.2268
33290SOL    HW1 3912   5.327   6.798   8.087 -0.0811  0.1059 -0.3713
33290SOL    HW2 3913   5.270   6.888   7.980  0.0112  0.3398 -0.2256
33291SOL     OW 3914   4.478   4.408   5.199 -0.0591 -0.9374  0.2449
33291SOL    HW1 3915   4.466   4.487   5.252 -0.1381 -0.6521 -0.1980
33291SOL    HW2 3916   4.424   4.422   5.121  2.0496 -0.2042 -1.1591
33292SOL     OW 3917   6.157   2.636   1.729  0.4247  0.4953  0.2343
33292SOL    HW1 3918   6.162   2.629   1.634 -3.1404  0.0205 -0.0409
33292SOL    HW2 3919   6.163   2.545   1.760 -0.3869  0.4635  0.3002
33293SOL     OW 3920   8.695   1.396   0.388  0.2425  0.4682 -0.3886
33293SOL    HW1 3921   8.702   1.377   0.295 -1.0629  1.5180 -0.7276
33293SOL    HW2 3922   8.783   1.379   0.423  1.2389  1.7589 -2.1369
33294SOL     OW 3923   3.806   2.720   5.520  0.2693  0.0859  0.7112
33294SOL    HW1 3924   3.873   2.691   5.581 -0.1424 -1.3502  0.5215
33294SOL    HW2 3925   3.767   2.639   5.487 -0.7716  0.8671 -0.0492
33295SOL     OW 3926   0.711   2.837   6.696  0.1626 -0.3417  0.1485
33295SOL    HW1 3927   0.757   2.800   6.772 -0.6743  0.2539  0.9684
33295SOL    HW2 3928   0.780   2.882   6.646  0.7019 -0.6076  0.6346
33296SOL     OW 3929   8.539   6.442   7.281 -0.4677  0.1642  0.7594
33296SOL    HW1 3930   8.600   6.444   7.208 -0.1837  2.2715  0.9959
33296SOL    HW2 3931   8.583   6.388   7.347 -0.2692 -0.8879 -0.1895
33297SOL     OW 3932   2.415   4.171   5.925 -0.1702  0.5763 -0.2629
33297SOL    HW1 3933   2.442   4.163   6.016  1.4051  1.2689 -0.6231
33297SOL    HW2 3934   2.332   4.125   5.920  0.7410 -1.3677  1.0533
33298SOL     OW 3935   5.291   3.663   6.329  0.0547  0.1014  0.4929
33298SOL    HW1 3936   5.255   3.587   6.282  0.3008 -1.2957  2.4710
33298SOL    HW2 3937   5.231   3.676   6.402  0.3924  1.4340  0.5569
33299SOL     OW 3938   3.845   5.066   9.057 -0.0280 -0.1545  0.2049
33299SOL    HW1 3939   3.826   5.110   9.140 -0.5270 -1.8277  1.0271
33299SOL    HW2 3940   3.932   5.096   9.034  0.3056  0.0216  1.5803
33300SOL     OW 3941   2.786   8.810   4.293  0.0969  0.3118  0.2743
33300SOL    HW1 3942   2.752   8.777   4.210 -0.9314  0.3396  0.6640
33300SOL    HW2 3943   2.824   8.733   4.336  1.9897  0.5647 -0.8228
33301SOL     OW 3944   6.371  10.107   0.430  0.3834  0.1145  0.0686
33301SOL    HW1 3945   6.303  10.103   0.363  0.6768 -0.8300 -0.1941
33301SOL    HW2 3946   6.438  10.046   0.399  1.2473  0.8568  0.4339
33302SOL     OW 3947   1.210   4.102   2.138 -0.1809  0.3536 -0.0290
33302SOL    HW1 3948   1.215   4.150   2.220  0.9280 -0.8922  0.6683
33302SOL    HW2 3949   1.215   4.010   2.163 -2.2962 -0.1846 -1.3305
33303SOL     OW 3950   5.387   3.976   6.181  0.5523  0.0121 -0.1825
33303SOL    HW1 3951   5.368   3.961   6.274 -0.1265 -1.5431 -0.5399
33303SOL    HW2 3952   5.301   3.990   6.142  0.5339 -2.2334 -1.0331
33304SOL     OW 3953   9.464   4.884   0.803 -0.2726  0.2034 -0.1801
33304SOL    HW1 3954   9.546   4.929   0.781 -0.1466  0.3044  0.4809
33304SOL    HW2 3955   9.471   4.799   0.759 -0.8044  1.0551 -2.0053
33305SOL     OW 3956   3.487   2.501   2.296  0.7099 -0.8632 -0.0485
33305SOL    HW1 3957   3.502   2.419   2.249 -0.1163 -1.6587  1.0438
33305SOL    HW2 3958   3.413   2.541   2.251  0.5938 -1.1115 -0.0803
33306SOL     OW 3959   6.441   3.814   5.288 -0.4266 -0.3554 -0.2415
33306SOL    HW1 3960   6.414   3.898   5.323  1.1356  0.7163 -1.4715
33306SOL    HW2 3961   6.452   3.829   5.194 -0.1017 -1.9336 -0.4953
33307SOL     OW 3962   5.146   1.038   1.108 -0.3170  0.2389  0.1639
33307SOL    HW1 3963   5.201   1.105   1.148 -0.4618  0.5723 -0.1846
33307SOL    HW2 3964   5.073   1.027   1.169  0.5570 -0.8296  1.0595
33308SOL     OW 3965   9.235   2.715   8.360 -0.4948 -0.2729 -0.5060
33308SOL    HW1 3966   9.280   2.703   8.276  0.3637  3.7113 -0.7790
33308SOL    HW2 3967   9.146   2.743   8.335 -0.5631 -0.0988 -0.0712
33309SOL     OW 3968   7.175   3.368   2.057  0.5499  0.0788 -0.0342
33309SOL    HW1 3969   7.244   3.413   2.106 -0.5289  0.4167  1.2144
33309SOL    HW2 3970   7.185   3.276   2.082  0.2513  0.1950  0.5267
33310SOL     OW 3971   3.419   9.630   9.678  0.5404  0.3921 -0.2682
33310SOL    HW1 3972   3.487   9.596   9.736  0.2096 -1.7560 -1.0472
33310SOL    HW2 3973   3.347   9.653   9.736  0.1300 -1.9303  0.2587
33311SOL     OW 3974   6.828   2.150   8.196  0.0624  0.6969 -0.0527
33311SOL    HW1 3975   6.895   2.183   8.136  0.1352 -0.7562 -0.8167
33311SOL    HW2 3976   6.818   2.058   8.173 -1.3275  0.5794  0.8701
33312SOL     OW 3977   7.734   7.814   3.129 -0.4265 -0.2618  0.3244
33312SOL    HW1 3978   7.696   7.808   3.042 -0.0542 -0.4233  0.1741
33312SOL    HW2 3979   7.717   7.904   3.156 -0.1615 -0.0865 -0.0885
33313SOL     OW 3980   4.904   4.201   6.145  0.4702 -0.2915 -0.4669
33313SOL    HW1 3981   4.981   4.247   6.112  0.0776  1.2868  0.6739
33313SOL    HW2 3982   4.940   4.132   6.202  1.0590  0.2291 -0.1902
33314SOL     OW 3983   6.200   5.209   7.063 -0.0478 -0.6394  0.0767
33314SOL    HW1 3984   6.132   5.144   7.047  0.2386 -0.8775 -0.1832
33314SOL    HW2 3985   6.152   5.289   7.085 -0.3925 -1.4020  2.2985
33315SOL     OW 3986   5.474   5.578   1.763 -0.0041  0.2735 -0.0015
33315SOL    HW1 3987   5.445   5.565   1.853  1.6713  0.1558  0.5515
33315SOL    HW2 3988   5.568   5.559   1.764 -0.0545 -0.3846 -1.9065
33316SOL     OW 3989   4.727   8.572   5.643  0.2549 -0.3628 -0.4904
33316SOL    HW1 3990   4.718   8.613   5.729  0.8646  0.6469 -0.8880
33316SOL    HW2 3991   4.770   8.488   5.661  1.3259  0.2869  0.1092
33317SOL     OW 3992   8.009   5.262   4.299  0.3047  0.3697 -0.5939
33317SOL    HW1 3993   7.985   5.297   4.384 -0.9835  0.5621 -1.0200
33317SOL    HW2 3994   8.104   5.273   4.294  0.0211  3.7948 -0.6775
33318SOL     OW 3995   3.409   8.772   3.990 -0.0567 -0.0224 -0.1482
33318SOL    HW1 3996   3.431   8.864   3.975 -1.2984  0.5277  1.2049
33318SOL    HW2 3997   3.462   8.724   3.926  0.4293  1.6373 -1.0429
33319SOL     OW 3998   1.390   8.404   4.796 -0.6029 -0.2189  0.7447
33319SOL    HW1 3999   1.402   8.335   4.731 -0.4571  0.8273 -0.3844
33319SOL    HW2 4000   1.305   8.443   4.776  0.2339  1.3239 -0.0679
33320SOL     OW 4001   3.463   1.580   0.049  0.3776 -0.0936 -0.1544
33320SOL    HW1 4002   3.548   1.536   0.055  2.5691  3.3455 -2.4192
33320SOL    HW2 4003   3.480   1.668   0.081 -2.0198  1.0254 -1.6989
33321SOL     OW 4004   4.080   2.021   0.614 -0.5302 -0.0220  0.4492
33321SOL    HW1 4005   4.080   1.927   0.631  1.4888 -0.3589 -1.0273
33321SOL    HW2 4006   4.094   2.061   0.700  2.2476 -1.2783  0.6821
33322SOL     OW 4007   5.782   6.143   7.137 -0.2636 -0.1053  0.0730
33322SOL    HW1 4008   5.745   6.055   7.128 -0.9552 -0.1629  2.6526
33322SOL    HW2 4009   5.743   6.193   7.065 -2.6779 -1.0642  0.6089
33323SOL     OW 4010   0.204   2.024   3.061  0.2990 -0.7784 -0.6271
33323SOL    HW1 4011   0.122   2.074   3.064  1.1201  0.5564  1.4713
33323SOL    HW2 4012   0.187   1.955   2.996 -2.7811 -1.0864  0.3247
33324SOL     OW 4013   0.197   8.685   7.014  0.4212  0.1079  0.4721
33324SOL    HW1 4014   0.102   8.697   7.017  0.1716 -0.8150 -1.6857
33324SOL    HW2 4015   0.209   8.610   6.955  2.4502 -0.5188  1.6063
33325SOL     OW 4016   3.863   4.066   6.547 -0.0337 -0.4552 -0.6019
33325SOL    HW1 4017   3.797   4.135   6.556 -0.1247 -0.6083 -0.0456
33325SOL    HW2 4018   3.838   4.019   6.468 -0.0949  0.0173 -0.8665
33326SOL     OW 4019   6.838   0.653   4.425  0.1378 -0.2558  0.0861
33326SOL    HW1 4020   6.793   0.727   4.466  0.5631 -0.3054  0.6570
33326SOL    HW2 4021   6.870   0.688   4.341 -0.5731 -0.1005 -0.1243
33327SOL     OW 4022   5.089   6.969   7.886 -0.5286 -0.3397 -0.1570
33327SOL    HW1 4023   5.139   7.037   7.841 -1.2923  0.0046 -0.5099
33327SOL    HW2 4024   5.015   6.950   7.827 -1.4304 -0.0275  0.8454
33328SOL     OW 4025  10.041   8.532   3.158 -0.5036  0.4820  0.1457
33328SOL    HW1 4026   9.977   8.527   3.230 -1.1400  1.0023 -0.3701
33328SOL    HW2 4027   9.987   8.545   3.080  0.1423 -0.7368 -0.5187
33329SOL     OW 4028   3.672   5.409   9.517 -0.1596  0.0800  0.0835
33329SOL    HW1 4029   3.725   5.484   9.491 -0.7548  0.4168 -0.1942
33329SOL    HW2 4030   3.725   5.362   9.581  0.2525  0.6986  0.2009
33330SOL     OW 4031   7.566   9.137   9.783 -0.3789 -0.2038  0.2130
33330SOL    HW1 4032   7.647   9.185   9.765 -0.7372  0.4030  0.1825
33330SOL    HW2 4033   7.585   9.087   9.862  0.0853 -0.1994  0.1061
33331SOL     OW 4034   6.425   5.660   6.176 -0.3143 -0.4959  0.4222
33331SOL    HW1 4035   6.504   5.709   6.154 -0.5021 -0.0013  0.8284
33331SOL    HW2 4036   6.362   5.683   6.107 -0.9063  1.0626  1.4059
33332SOL     OW 4037   7.748   1.764   6.876  0.4848  0.2912  0.2025
33332SOL    HW1 4038   7.792   1.703   6.934  0.8754 -0.8846 -1.2493
33332SOL    HW2 4039   7.671   1.716   6.845  0.1935  0.9518 -0.1153
33333SOL     OW 4040   3.270   5.489   5.536  0.2362  0.2088 -0.6897
33333SOL    HW1 4041   3.286   5.425   5.467  0.0460 -3.6971  2.5067
33333SOL    HW2 4042   3.357   5.517   5.563  0.4552 -0.5181 -0.6192
33334SOL     OW 4043   0.887   4.926   2.454  0.1058  0.8021 -0.0183
33334SOL    HW1 4044   0.855   4.984   2.523 -1.4829  0.4910 -0.4706
33334SOL    HW2 4045   0.823   4.856   2.448  1.3960 -0.4084 -0.2904
33335SOL     OW 4046   0.048   9.466   7.222 -0.7064 -0.3404  0.2470
33335SOL    HW1 4047   0.081   9.380   7.247 -1.9672 -0.4530  1.7143
33335SOL    HW2 4048   0.105   9.528   7.267 -0.6847 -0.4671  0.3976
33336SOL     OW 4049   2.791   5.540   0.796 -0.4912  0.6344 -0.2469
33336SOL    HW1 4050   2.849   5.583   0.733  0.9767 -0.3081  0.4090
33336SOL    HW2 4051   2.760   5.463   0.749 -0.0289  0.3536 -0.0957
33337SOL     OW 4052   7.155   5.798   7.405 -0.0692  0.0085  0.0739
33337SOL    HW1 4053   7.064   5.783   7.380 -0.3440 -0.0875  1.0658
33337SOL    HW2 4054   7.202   5.809   7.323 -1.3866  2.5520 -0.4434
33338SOL     OW 4055   9.225   0.260   1.057 -0.3270 -0.0899  0.1850
33338SOL    HW1 4056   9.224   0.188   0.994 -1.7737 -1.8975  2.1454
33338SOL    HW2 4057   9.313   0.256   1.095 -0.2972 -0.6280  0.0767
33339SOL     OW 4058   9.772   7.916   7.787  0.1695  0.5764 -0.3073
33339SOL    HW1 4059   9.772   7.901   7.692 -0.6543 -0.6175 -0.1304
33339SOL    HW2 4060   9.697   7.867   7.820 -0.7253  2.5269  0.7515
33340SOL     OW 4061   2.420   8.037   9.943 -0.4425 -0.2317  0.8674
33340SOL    HW1 4062   2.414   7.943   9.960  0.5958 -0.5275 -0.2682
33340SOL    HW2 4063   2.503   8.063   9.984  0.2957 -0.2448 -0.5635
33341SOL     OW 4064   3.923   4.069   1.622  0.0128  0.3745  0.0114
33341SOL    HW1 4065   3.941   4.061   1.528  0.5859  2.4109 -0.1064
33341SOL    HW2 4066   4.010   4.073   1.662 -0.2020  1.3796  0.4052
33342SOL     OW 4067   5.767   0.914   0.585  0.2538 -0.0667 -0.0383
33342SOL    HW1 4068   5.755   0.824   0.613 -0.6839  1.0558  3.8678
33342SOL    HW2 4069   5.680   0.953   0.593  1.0800  1.7156  0.8598
33343SOL     OW 4070   1.087   8.796   0.398 -0.1143 -0.6054 -0.5142
33343SOL    HW1 4071   1.064   8.870   0.341  0.7163  0.8574  0.9659
33343SOL    HW2 4072   1.152   8.747   0.348 -0.7987 -0.4508 -1.5909
33344SOL     OW 4073   4.779   1.449   2.502  0.0410  0.6536  0.1702
33344SOL    HW1 4074   4.852   1.480   2.555  0.2581  1.4418 -0.5753
33344SOL    HW2 4075   4.732   1.389   2.560  1.5304 -0.2415  0.5000
33345SOL     OW 4076   1.405   5.030   7.354  1.1287  0.1013 -0.3118
33345SOL    HW1 4077   1.398   5.099   7.420 -0.2785  0.9989 -1.3477
33345SOL    HW2 4078   1.408   4.948   7.405 -0.0870  0.7555  0.8779
33346SOL     OW 4079   9.975   2.024   1.510  0.3451 -0.6601  0.1767
33346SOL    HW1 4080   9.907   2.023   1.577 -1.5667 -0.3507 -1.6293
33346SOL    HW2 4081   9.986   2.116   1.489  0.6312 -0.7762 -0.1921
33347SOL     OW 4082   5.977   4.828   8.159  0.6534 -0.1973 -0.0791
33347SOL    HW1 4083   5.915   4.787   8.099 -1.3724 -1.9872  2.9116
33347SOL    HW2 4084   6.040   4.758   8.180  0.5540 -0.0356  0.8074
33348SOL     OW 4085   9.061   0.346   0.616 -0.3222  0.6416  0.0902
33348SOL    HW1 4086   9.064   0.388   0.701 -1.0878  0.5118  0.1855
33348SOL    HW2 4087   9.117   0.400   0.560  1.4607 -0.1181  1.0316
33349SOL     OW 4088   0.404   5.424   0.949 -0.3165  0.0131 -0.1415
33349SOL    HW1 4089   0.437   5.369   0.878 -0.6754 -0.7570  0.2715
33349SOL    HW2 4090   0.389   5.509   0.908  0.5426 -0.1007 -0.7218
33350SOL     OW 4091   2.028   1.797   4.129 -0.0046 -0.6464 -0.0208
33350SOL    HW1 4092   2.035   1.704   4.150  1.6084 -0.3934  0.6719
33350SOL    HW2 4093   1.962   1.831   4.189 -1.5602 -1.5531 -1.1389
33351SOL     OW 4094  10.266   5.821   8.542  0.8030  0.1991 -0.0479
33351SOL    HW1 4095  10.256   5.860   8.628  0.1205  2.4407 -1.0659
33351SOL    HW2 4096  10.256   5.894   8.481 -1.7673 -1.6949 -2.1730
33352SOL     OW 4097   5.943   5.306   6.161  0.0437  0.3487 -0.1729
33352SOL    HW1 4098   6.032   5.271   6.164 -0.2221 -0.3130  1.8975
33352SOL    HW2 4099   5.954   5.401   6.151  1.0234  0.3331  0.6102
33353SOL     OW 4100   7.655   2.899   1.444  0.2894 -0.0765 -0.6866
33353SOL    HW1 4101   7.613   2.951   1.513  0.1222 -0.6858 -0.3270
33353SOL    HW2 4102   7.734   2.865   1.485 -0.1822 -1.0474 -0.5584
33354SOL     OW 4103   1.802   7.289   0.080  0.1927 -0.0812 -0.0087
33354SOL    HW1 4104   1.726   7.266   0.133  0.9031 -2.9582 -0.0581
33354SOL    HW2 4105   1.867   7.223   0.102  2.0737  1.2557 -1.2625
33355SOL     OW 4106   3.764   4.569   9.728  0.6430 -0.6813  0.4573
33355SOL    HW1 4107   3.815   4.615   9.795 -1.5937  1.8801  0.5472
33355SOL    HW2 4108   3.742   4.485   9.769  2.3699 -0.6849  1.4763
33356SOL     OW 4109   1.585   4.411   7.168  0.1790 -0.3995 -0.1547
33356SOL    HW1 4110   1.514   4.374   7.221 -0.2069  0.6831  0.1112
33356SOL    HW2 4111   1.617   4.338   7.116 -1.0786 -0.9216 -0.2151
33357SOL     OW 4112   2.087   1.121   0.230  0.0582 -0.3543  0.0227
33357SOL    HW1 4113   2.149   1.074   0.286  0.9588 -0.1967 -0.8145
33357SOL    HW2 4114   2.037   1.051   0.186  0.7838 -0.5246 -0.5480
33358SOL     OW 4115   6.708   5.526   8.227  0.2578 -0.1300 -0.3182
33358SOL    HW1 4116   6.693   5.579   8.149 -1.3427 -0.6812 -0.4191
33358SOL    HW2 4117   6.644   5.455   8.221  0.7072 -0.6903  1.0567
33359SOL     OW 4118   1.435   0.418   6.589  0.0138 -0.2425  0.3277
33359SOL    HW1 4119   1.503   0.383   6.646 -0.4204 -1.3443  0.1966
33359SOL    HW2 4120   1.354   0.404   6.637 -0.2171  0.1666  0.0643
33360SOL     OW 4121   9.277   7.480   3.406  0.1404 -0.0319  0.5628
33360SOL    HW1 4122   9.282   7.431   3.324  2.4693 -1.1300  1.2917
33360SOL    HW2 4123   9.353   7.539   3.403  0.4469 -0.3170  2.0640
33361SOL     OW 4124   3.654   7.427   9.322 -0.1914  0.0394 -0.5846
33361SOL    HW1 4125   3.618   7.404   9.407 -0.2028  5.0855  1.1010
33361SOL    HW2 4126   3.744   7.394   9.323 -0.4016 -0.5435  1.1285
33362SOL     OW 4127   3.501   2.841   3.896 -0.5937 -0.1816  0.6260
33362SOL    HW1 4128   3.442   2.888   3.954  0.2592  0.4100  1.0355
33362SOL    HW2 4129   3.519   2.758   3.941 -2.1793 -1.0019 -0.1456
33363SOL     OW 4130   8.901   4.156   6.286 -0.7309 -0.1440 -0.0699
33363SOL    HW1 4131   8.905   4.061   6.291  0.3579 -0.2379 -1.7525
33363SOL    HW2 4132   8.831   4.181   6.346 -2.3944 -2.1497 -1.0477
33364SOL     OW 4133   8.642   1.092   1.240  0.1916  0.2334 -0.2352
33364SOL    HW1 4134   8.574   1.138   1.190  0.0749  1.6417  1.1203
33364SOL    HW2 4135   8.720   1.096   1.185 -0.6602 -0.9397 -1.5816
33365SOL     OW 4136   4.756   5.627   7.235  0.8343  0.7380 -0.0138
33365SOL    HW1 4137   4.772   5.659   7.146  1.7271  0.9267  0.2108
33365SOL    HW2 4138   4.803   5.688   7.291  0.2861  0.6105  0.5955
33366SOL     OW 4139   0.010   1.173   6.848  0.7153 -0.8965  0.8498
33366SOL    HW1 4140   0.023   1.261   6.885  0.1207 -0.7487  0.7181
33366SOL    HW2 4141  -0.059   1.184   6.783  1.0880 -1.3436  0.3662
33367SOL     OW 4142   0.063   5.430   8.844  0.5449  0.1359 -0.1162
33367SOL    HW1 4143   0.101   5.490   8.907 -0.8167 -0.0538  0.9217
33367SOL    HW2 4144  -0.024   5.409   8.879  0.3746 -1.2143 -1.2352
33368SOL     OW 4145   5.822   9.856   1.342 -0.6404 -0.0433  0.1823
33368SOL    HW1 4146   5.775   9.775   1.359 -0.7833 -0.4543 -1.9920
33368SOL    HW2 4147   5.759   9.912   1.296 -0.0009  0.6364  0.1084
33369SOL     OW 4148   3.324   2.719   9.599  0.2064  0.4386 -0.2702
33369SOL    HW1 4149   3.386   2.792   9.596  2.4018 -1.2911  0.4209
33369SOL    HW2 4150   3.375   2.644   9.630 -1.4467 -1.9138 -2.7464
33370SOL     OW 4151   5.839   8.918   4.803  0.3893  0.3124 -0.1343
33370SOL    HW1 4152   5.914   8.948   4.751  0.2951  0.6840 -0.0630
33370SOL    HW2 4153   5.844   8.971   4.883 -0.3407  0.8344 -0.4219
33371SOL     OW 4154  10.009   1.594   9.571 -0.0098  0.2486 -0.0747
33371SOL    HW1 4155  10.038   1.647   9.496 -1.3323  1.0656 -0.0411
33371SOL    HW2 4156  10.090   1.564   9.611  0.8424 -2.6448 -3.4277
33372SOL     OW 4157   3.003   9.196   5.855 -0.2541  0.0248  0.1490
33372SOL    HW1 4158   2.937   9.265   5.852  1.0789  1.6797  3.4140
33372SOL    HW2 4159   3.052   9.206   5.774 -2.4584  0.3247 -1.2239
33373SOL     OW 4160   0.459   8.334   9.795  0.2349 -0.3068 -0.3295
33373SOL    HW1 4161   0.476   8.419   9.836  0.6602 -0.9727  0.9305
33373SOL    HW2 4162   0.369   8.313   9.821  0.0852 -0.1849 -0.7487
33374SOL     OW 4163   9.496   5.716   2.678 -0.3295 -0.0520  0.5142
33374SOL    HW1 4164   9.465   5.658   2.609  0.9677 -0.0603 -0.0984
33374SOL    HW2 4165   9.551   5.780   2.633  0.8290 -0.2680  1.5574
33375SOL     OW 4166   2.074   0.645   6.086 -0.6227  0.0291 -0.1590
33375SOL    HW1 4167   2.019   0.631   6.162  0.4137  0.2669  0.6525
33375SOL    HW2 4168   2.013   0.673   6.017 -1.3544  1.6472  1.0819
33376SOL     OW 4169   9.103   0.220   8.498  0.4230 -0.2612  0.7422
33376SOL    HW1 4170   9.100   0.139   8.549 -2.1518 -0.8701 -0.2034
33376SOL    HW2 4171   9.089   0.192   8.408  5.9772  0.6424 -0.7802
33377SOL     OW 4172   2.631   1.080   8.729 -0.0133 -0.2724  0.0133
33377SOL    HW1 4173   2.568   1.013   8.757 -0.6216  0.5561  0.6878
33377SOL    HW2 4174   2.578   1.142   8.678  0.0950  0.7703  1.1201
33378SOL     OW 4175   4.609   8.697   3.113 -0.3805  0.0264  0.2867
33378SOL    HW1 4176   4.666   8.622   3.096 -0.0879  0.1570  0.6714
33378SOL    HW2 4177   4.531   8.658   3.152 -0.8663 -0.2237 -0.9030
33379SOL     OW 4178   2.584   0.892   4.854 -1.2182  0.2609  0.4517
33379SOL    HW1 4179   2.669   0.934   4.845 -1.3963  0.8447  1.3174
33379SOL    HW2 4180   2.568   0.889   4.949 -2.7131  1.3503  0.2778
33380SOL     OW 4181   4.669   2.875   3.942  0.2986  0.7907  0.3561
33380SOL    HW1 4182   4.685   2.784   3.966  1.8651  0.7380 -0.7250
33380SOL    HW2 4183   4.720   2.927   4.005  3.0290  0.7055 -1.5979
33381SOL     OW 4184   7.013   0.627   3.194  0.2800 -0.3134  0.8273
33381SOL    HW1 4185   6.995   0.705   3.141 -1.5304 -0.3258  1.3672
33381SOL    HW2 4186   7.073   0.658   3.262  0.3951  0.3621  0.4301
33382SOL     OW 4187   3.415   0.328   8.681  0.3629  0.4484 -0.4102
33382SOL    HW1 4188   3.348   0.324   8.750  0.1395 -0.7820 -0.6721
33382SOL    HW2 4189   3.450   0.417   8.687  0.3099  0.3927  1.2599
33383SOL     OW 4190   7.422  10.219   8.053  0.4875  0.0546 -0.3251
33383SOL    HW1 4191   7.334  10.189   8.028  0.8241  0.2707 -1.9208
33383SOL    HW2 4192   7.412  10.313   8.065  0.1267 -0.1749  1.3933
33384SOL     OW 4193   8.349  10.048   5.466 -0.1758  0.3442 -0.4967
33384SOL    HW1 4194   8.262  10.085   5.449  0.3209  2.3828  0.9405
33384SOL    HW2 4195   8.401  10.071   5.389 -0.9360 -1.1678 -1.5120
33385SOL     OW 4196   4.134   8.432   2.215 -0.2291  0.3158  0.0032
33385SOL    HW1 4197   4.193   8.505   2.196 -1.1010  1.4240  1.3424
33385SOL    HW2 4198   4.154   8.407   2.305 -1.4219  0.3740  0.3074
33386SOL     OW 4199   3.511   7.821   1.068 -0.3817 -0.2601  0.1307
33386SOL    HW1 4200   3.552   7.907   1.079  0.5087 -0.6259 -0.2184
33386SOL    HW2 4201   3.535   7.772   1.146  2.1732 -1.3692 -1.2558
33387SOL     OW 4202   4.175   2.010   5.444 -0.2509 -0.3041 -0.3721
33387SOL    HW1 4203   4.109   2.078   5.434 -1.0110 -0.8185  0.8316
33387SOL    HW2 4204   4.227   2.038   5.519 -0.1175 -0.6896 -0.3166
33388SOL     OW 4205   9.998   5.379   0.040  0.2766 -0.1632 -0.3383
33388SOL    HW1 4206  10.018   5.472   0.041  1.0036 -0.3050 -0.8809
33388SOL    HW2 4207  10.000   5.352   0.132  1.7580  0.0086 -0.3081
33389SOL     OW 4208   6.823   3.900   4.247  0.4305  0.2108  0.3256
33389SOL    HW1 4209   6.832   3.882   4.341  0.4822 -0.1566  0.2524
33389SOL    HW2 4210   6.801   3.993   4.243  1.2170  0.4298  0.6630
33390SOL     OW 4211   0.931   0.441   0.051 -0.1663  0.0945 -0.5207
33390SOL    HW1 4212   0.852   0.449   0.103  1.9978  1.9317  2.8685
33390SOL    HW2 4213   0.964   0.353   0.071 -2.9451 -2.3299 -4.9302
33391SOL     OW 4214  10.125   0.953   8.336 -0.9473 -0.5606 -0.4947
33391SOL    HW1 4215  10.123   1.026   8.276 -1.7290  0.4622  0.7194
33391SOL    HW2 4216  10.203   0.968   8.390 -2.9717  1.5234  2.1798
33392SOL     OW 4217   3.492   8.541   3.808 -0.0395  0.2106  0.0446
33392SOL    HW1 4218   3.434   8.553   3.733 -0.6321  1.7934  0.7038
33392SOL    HW2 4219   3.565   8.490   3.775 -1.0417 -0.4373 -1.2144
33393SOL     OW 4220   4.343   5.820   5.739  0.1329 -0.5051  0.6318
33393SOL    HW1 4221   4.333   5.831   5.644  0.4140 -1.5882  0.4588
33393SOL    HW2 4222   4.427   5.776   5.749 -0.7076 -2.0727  1.2256
33394SOL     OW 4223   6.151   8.080   6.252 -0.2765 -0.0240  0.3263
33394SOL    HW1 4224   6.083   8.133   6.293 -0.0995  0.7510 -0.3539
33394SOL    HW2 4225   6.116   7.990   6.253 -0.7833  0.1747  1.0549
33395SOL     OW 4226   9.026   8.034   2.193  0.4627  0.6705  0.7262
33395SOL    HW1 4227   8.990   7.985   2.119 -0.6991  0.2266  1.5546
33395SOL    HW2 4228   8.961   8.102   2.210  1.0911  1.2426  0.8794
33396SOL     OW 4229   9.151   2.797   0.623 -0.3505 -0.2973  0.6613
33396SOL    HW1 4230   9.235   2.802   0.576 -0.9680 -2.2606 -0.7768
33396SOL    HW2 4231   9.168   2.736   0.695 -0.2154  0.2823  1.1192
33397SOL     OW 4232   7.500   3.263   5.627  0.1684  0.2921 -0.0953
33397SOL    HW1 4233   7.470   3.315   5.701  0.2006  1.8737 -1.1470
33397SOL    HW2 4234   7.420   3.228   5.587 -0.0613  1.6257 -0.8453
33398SOL     OW 4235   8.105   1.995   1.818  0.3636  0.1100 -0.9973
33398SOL    HW1 4236   8.084   2.047   1.741 -1.3117  0.8560 -0.0923
33398SOL    HW2 4237   8.090   1.904   1.791  0.4024  0.3192 -1.7297
33399SOL     OW 4238   0.354   3.329   0.741  0.2733 -0.2226 -0.6241
33399SOL    HW1 4239   0.313   3.410   0.710 -0.3073 -0.4029 -0.3392
33399SOL    HW2 4240   0.426   3.314   0.680  2.3928  2.1759  1.0735
33400SOL     OW 4241   8.850   4.590   3.513 -0.1595 -0.7210 -0.2731
33400SOL    HW1 4242   8.875   4.591   3.421  0.9022  2.0037 -0.0705
33400SOL    HW2 4243   8.884   4.507   3.546 -0.7596 -1.8560 -2.3499
33401SOL     OW 4244   9.987   5.108   0.588  0.2048 -0.1069  0.5764
33401SOL    HW1 4245  10.048   5.182   0.580 -0.2903  0.3801  1.2383
33401SOL    HW2 4246   9.956   5.093   0.498  0.7762  0.0843  0.3431
33402SOL     OW 4247   1.804   3.899   6.532  0.4465 -0.3919  0.2977
33402SOL    HW1 4248   1.818   3.944   6.449  0.0409  0.9620  0.9383
33402SOL    HW2 4249   1.882   3.919   6.584 -0.1448  0.3373  0.9149
33403SOL     OW 4250   9.556   6.067   6.326  0.2570  0.4573 -0.5032
33403SOL    HW1 4251   9.486   6.074   6.260  0.7235 -1.2606 -1.2489
33403SOL    HW2 4252   9.509   6.059   6.409 -0.3753  1.1119 -0.7762
33404SOL     OW 4253   2.231   8.183   1.054 -0.4541 -0.1225  0.3448
33404SOL    HW1 4254   2.264   8.099   1.085  1.6840  1.0228  1.3337
33404SOL    HW2 4255   2.287   8.205   0.979 -0.2820  0.9135  0.7637
33405SOL     OW 4256   5.802   9.886   7.235 -0.1095 -0.0446 -0.3098
33405SOL    HW1 4257   5.822   9.965   7.185  0.3538  0.4029  0.5479
33405SOL    HW2 4258   5.885   9.839   7.241 -0.5416 -1.0133 -1.4775
33406SOL     OW 4259   4.706   6.242   5.109 -0.3599  0.5103 -0.2367
33406SOL    HW1 4260   4.705   6.153   5.144 -0.7119  1.1908  1.5692
33406SOL    HW2 4261   4.767   6.289   5.166 -2.0115  1.9975  0.3918
33407SOL     OW 4262   5.701   6.053   0.320 -0.1014 -0.2169  0.3077
33407SOL    HW1 4263   5.650   5.983   0.361  0.0917 -0.9064 -0.5941
33407SOL    HW2 4264   5.772   6.007   0.275 -0.4740  0.4770 -1.0411
33408SOL     OW 4265   5.227   1.992   7.644 -0.3815 -0.0065  0.0880
33408SOL    HW1 4266   5.269   2.078   7.638 -0.6344  0.1135 -0.0075
33408SOL    HW2 4267   5.178   1.996   7.726  1.6817 -1.0096  1.4479
33409SOL     OW 4268   8.389   7.972   4.487 -0.2124  0.5521 -0.6846
33409SOL    HW1 4269   8.376   8.027   4.564  0.2187  1.1850 -1.0510
33409SOL    HW2 4270   8.369   8.030   4.412 -2.2219 -0.5055 -1.0301
33410SOL     OW 4271   4.994   1.328   6.926  0.3039  0.0232  0.3221
33410SOL    HW1 4272   4.973   1.304   6.835 -1.8701  1.0623  0.4951
33410SOL    HW2 4273   4.964   1.253   6.978 -3.0049  1.3019  0.5234
33411SOL     OW 4274   3.445   5.677   7.735  0.3328 -0.2521  0.1242
33411SOL    HW1 4275   3.420   5.767   7.754  1.7710  0.1683  0.0903
33411SOL    HW2 4276   3.537   5.671   7.757  1.0512 -0.8943 -2.5830
33412SOL     OW 4277   5.631   2.568   7.550  0.3435 -1.0603 -0.2351
33412SOL    HW1 4278   5.651   2.524   7.632  0.9484  1.1569  0.8806
33412SOL    HW2 4279   5.540   2.544   7.532 -0.3042 -0.4068  1.9149
33413SOL     OW 4280   9.812   5.610   9.309  0.2675 -0.7770 -0.0674
33413SOL    HW1 4281   9.770   5.653   9.383  0.7438  0.1700 -0.3251
33413SOL    HW2 4282   9.741   5.596   9.246 -0.1083 -1.4370  0.4988
33414SOL     OW 4283   6.113   3.709   6.490 -0.1462  0.2246  0.1686
33414SOL    HW1 4284   6.081   3.765   6.561  0.4066 -0.0323  0.6319
33414SOL    HW2 4285   6.071   3.743   6.411 -0.4363  0.7840  0.5587
33415SOL     OW 4286   6.973   7.592   0.123 -0.1555 -0.7826  0.2201
33415SOL    HW1 4287   6.893   7.574   0.073  0.1368  0.0872 -0.5852
33415SOL    HW2 4288   7.030   7.518   0.102 -1.0256 -1.8388  1.4502
33416SOL     OW 4289   6.519   7.198   9.512  0.9880  0.4935  0.3100
33416SOL    HW1 4290   6.596   7.216   9.459  0.3395  1.4266 -0.3441
33416SOL    HW2 4291   6.488   7.284   9.540  0.6999  0.0724  1.3028
33417SOL     OW 4292   0.732   5.774   2.721  0.0660 -0.1400  0.2057
33417SOL    HW1 4293   0.725   5.679   2.712 -0.1523  0.0442 -2.8693
33417SOL    HW2 4294   0.813   5.789   2.769  0.1068 -1.8645  0.7239
33418SOL     OW 4295   5.869   9.535   0.608  0.2098 -0.0920 -0.9921
33418SOL    HW1 4296   5.834   9.447   0.592  1.5648 -1.0452  0.8847
33418SOL    HW2 4297   5.964   9.523   0.605  0.4954  0.6965  1.8593
33419SOL     OW 4298   3.386   3.154   1.381 -0.2918  0.1368 -0.0223
33419SOL    HW1 4299   3.471   3.159   1.337  1.0470  0.9602  2.4549
33419SOL    HW2 4300   3.381   3.064   1.412 -0.5604 -0.0447 -0.5850
33420SOL     OW 4301   2.279   9.392   1.667  0.1766  0.0240  0.4808
33420SOL    HW1 4302   2.192   9.411   1.632  0.3011  2.9209  1.4487
33420SOL    HW2 4303   2.333   9.373   1.590 -1.0032 -0.4979 -0.2363
33421SOL     OW 4304   2.078   6.747   1.015 -1.0308  0.7695  0.1668
33421SOL    HW1 4305   1.987   6.719   1.003 -0.8342 -0.8163  1.9978
33421SOL    HW2 4306   2.112   6.691   1.085  1.8583  0.1659 -1.5277
33422SOL     OW 4307   9.723   9.456   0.623 -0.1321 -0.2288 -0.3040
33422SOL    HW1 4308   9.686   9.531   0.577 -0.4983 -0.6918 -0.7703
33422SOL    HW2 4309   9.791   9.423   0.564  0.4805  0.1232  0.1878
33423SOL     OW 4310   8.324   3.165   1.852 -0.2478 -0.0352 -1.0666
33423SOL    HW1 4311   8.331   3.133   1.762  0.3303  0.1384 -1.0869
33423SOL    HW2 4312   8.330   3.260   1.845 -0.5585  0.0014 -0.8748
33424SOL     OW 4313   2.727   0.896  10.025  0.2170  0.8542 -0.2656
33424SOL    HW1 4314   2.767   0.812  10.002 -1.3174  0.8614 -3.5555
33424SOL    HW2 4315   2.638   0.874  10.052  0.1032  1.3414 -0.2310
33425SOL     OW 4316   1.069   2.715   6.966  0.2501  0.0109  0.3392
33425SOL    HW1 4317   1.018   2.796   6.968  1.3052  0.6858  0.5310
33425SOL    HW2 4318   1.005   2.647   6.942 -0.8163  0.7633  0.9618
33426SOL     OW 4319   2.739   8.463   9.413  0.0379 -0.5333  0.0353
33426SOL    HW1 4320   2.717   8.388   9.467  0.0498 -0.7326 -0.2338
33426SOL    HW2 4321   2.796   8.428   9.345  2.3489  0.1935  1.4808
33427SOL     OW 4322   8.612   7.447   3.156 -0.1780 -0.1815  0.2981
33427SOL    HW1 4323   8.656   7.363   3.147 -0.0344 -0.1604  0.8171
33427SOL    HW2 4324   8.636   7.479   3.243 -1.0583 -0.0783  0.5198
33428SOL     OW 4325   9.005   7.954   8.768 -0.6468 -0.4006 -0.4826
33428SOL    HW1 4326   8.923   7.980   8.811 -0.0999  0.3762  0.1395
33428SOL    HW2 4327   9.000   7.859   8.762  0.7389 -1.1242  4.6396
33429SOL     OW 4328  10.129   8.730   1.325 -0.3528 -0.0938  0.1342
33429SOL    HW1 4329  10.054   8.672   1.342 -0.7380  0.1546 -0.6640
33429SOL    HW2 4330  10.159   8.756   1.412 -0.6052 -0.9494  0.4877
33430SOL     OW 4331   3.509   1.310   9.622 -0.1823 -0.5949 -0.6853
33430SOL    HW1 4332   3.501   1.220   9.655  1.1847 -0.6177 -0.3280
33430SOL    HW2 4333   3.553   1.300   9.537  0.9903 -0.2282 -0.1499
33431SOL     OW 4334   4.165   4.935   9.318  0.7286  0.1498 -0.1130
33431SOL    HW1 4335   4.192   4.929   9.410 -1.2921 -2.2506  0.4186
33431SOL    HW2 4336   4.128   5.023   9.310  1.4775  0.6220  1.1607
33432SOL     OW 4337   2.828   7.813   9.826  0.0149  0.4619  0.1430
33432SOL    HW1 4338   2.838   7.876   9.897  0.4985  0.6911 -0.1216
33432SOL    HW2 4339   2.738   7.781   9.834 -0.5083  1.7788 -0.1959
33433SOL     OW 4340   3.885   4.788   1.479 -0.0164 -0.3288 -0.0867
33433SOL    HW1 4341   3.894   4.877   1.514 -0.9758 -0.4785  0.5911
33433SOL    HW2 4342   3.958   4.779   1.418  1.1282  0.3130  1.1296
33434SOL     OW 4343   6.760   8.659   8.441  0.8349  0.1129  0.3745
33434SOL    HW1 4344   6.717   8.732   8.396  0.0824  0.6484  1.8878
33434SOL    HW2 4345   6.775   8.692   8.530  3.6846 -0.3523  0.1530
33435SOL     OW 4346   1.905   0.437   7.370  0.2359  0.5063 -0.1257
33435SOL    HW1 4347   1.948   0.493   7.305  0.6244 -0.4119 -0.6810
33435SOL    HW2 4348   1.883   0.357   7.322  1.3928 -0.5844  1.0631
33436SOL     OW 4349   5.494   5.215   8.787 -0.4784  0.0332 -0.2976
33436SOL    HW1 4350   5.434   5.181   8.721  1.5770 -1.2028 -1.6715
33436SOL    HW2 4351   5.477   5.161   8.865 -1.5179  0.0965 -0.4688
33437SOL     OW 4352   4.473   5.133   0.475 -0.3367 -0.6954 -0.1451
33437SOL    HW1 4353   4.402   5.196   0.487 -0.0284 -0.3293 -0.1860
33437SOL    HW2 4354   4.484   5.128   0.380  0.3043 -0.0328 -0.1197
33438SOL     OW 4355   1.655  10.040   8.417 -0.3867 -0.4747  0.4131
33438SOL    HW1 4356   1.724   9.980   8.448 -0.5400 -0.6675  0.3841
33438SOL    HW2 4357   1.611  10.068   8.497 -0.8500 -1.0543  0.3736
33439SOL     OW 4358   4.728   2.320   0.382  0.4273  1.0987  0.1846
33439SOL    HW1 4359   4.753   2.250   0.322  0.8846  0.3477  1.2034
33439SOL    HW2 4360   4.811   2.364   0.403  0.1649  1.8383 -0.3177
33440SOL     OW 4361   8.569   9.763   6.411  0.2757  0.2915 -0.7064
33440SOL    HW1 4362   8.595   9.806   6.492  2.2432 -1.3786 -0.3637
33440SOL    HW2 4363   8.474   9.754   6.417  0.1963  1.6362  0.6419
33441SOL     OW 4364   4.504   5.446   7.678  0.5384 -0.0523  0.2002
33441SOL    HW1 4365   4.488   5.509   7.748 -1.3546  0.6017 -0.7543
33441SOL    HW2 4366   4.418   5.432   7.637  1.0946 -2.4249 -0.3284
33442SOL     OW 4367   8.404   5.097   4.723 -0.4240  0.1467 -0.4043
33442SOL    HW1 4368   8.308   5.095   4.717 -0.5554  0.4473  1.2092
33442SOL    HW2 4369   8.424   5.048   4.802  0.7055  0.7361 -0.3097
33443SOL     OW 4370   1.674   5.336   1.778 -0.0511  0.0239  0.4693
33443SOL    HW1 4371   1.733   5.381   1.717 -1.0402  0.6970 -0.0136
33443SOL    HW2 4372   1.659   5.251   1.739 -0.7650  0.4897 -0.3029
33444SOL     OW 4373   7.830   2.138   0.978  0.8265 -0.2505 -0.0643
33444SOL    HW1 4374   7.886   2.091   0.916  0.8283  1.6218 -1.5568
33444SOL    HW2 4375   7.765   2.073   1.005  1.3308 -1.3526 -1.3772
33445SOL     OW 4376   1.611   1.113   1.352  0.1722 -0.0632 -0.4342
33445SOL    HW1 4377   1.608   1.209   1.354  0.0552 -0.0754  0.2600
33445SOL    HW2 4378   1.697   1.092   1.315 -0.0102  0.3052 -1.0799
33446SOL     OW 4379   5.893   7.282   2.644 -0.2499  0.7207 -0.2306
33446SOL    HW1 4380   5.904   7.376   2.629  2.4300  0.4175 -0.6138
33446SOL    HW2 4381   5.873   7.246   2.557  0.1244  0.7601 -0.3313
33447SOL     OW 4382   1.126   3.934   7.735  0.1209 -0.0609 -0.1171
33447SOL    HW1 4383   1.138   3.964   7.825 -3.3237  1.9265 -0.1455
33447SOL    HW2 4384   1.098   3.843   7.744  0.6230 -0.1436  0.7503
33448SOL     OW 4385   2.028   8.687   8.313  0.1396 -0.1503 -0.6458
33448SOL    HW1 4386   2.116   8.655   8.294  0.3828  0.6497 -0.9062
33448SOL    HW2 4387   2.017   8.674   8.408  0.2358 -0.9492 -0.7322
33449SOL     OW 4388   7.077   2.441   8.633  0.4440 -0.0191 -0.2458
33449SOL    HW1 4389   7.119   2.525   8.621  0.2050  0.4275  1.7986
33449SOL    HW2 4390   6.988   2.462   8.660  0.4011 -0.9193  0.3598
33450SOL     OW 4391   8.186   2.313   0.960  0.2481 -0.0278  0.2093
33450SOL    HW1 4392   8.188   2.372   1.036  1.2196  2.3946 -1.5593
33450SOL    HW2 4393   8.181   2.372   0.885 -1.7088 -2.3484 -1.6337
33451SOL     OW 4394   3.920   0.548   0.296 -0.4067  0.1588 -0.0563
33451SOL    HW1 4395   3.957   0.518   0.378 -0.7060 -2.3011 -0.7519
33451SOL    HW2 4396   3.877   0.631   0.318  0.8158  0.3313  1.8975
33452SOL     OW 4397   7.439   7.793   3.330 -0.1584 -1.0814 -0.1584
33452SOL    HW1 4398   7.421   7.808   3.237  1.1693 -0.4627 -0.3346
33452SOL    HW2 4399   7.411   7.875   3.373 -0.0330 -1.0636 -0.1119
33453SOL     OW 4400   8.679   0.046   5.102 -0.2589 -0.0156  0.7883
33453SOL    HW1 4401   8.595   0.070   5.064 -0.7685 -1.1002  1.1603
33453SOL    HW2 4402   8.743   0.099   5.056 -1.0165 -0.1133 -0.4173
33454SOL     OW 4403   4.850   4.732   3.036 -0.1869  0.5581 -0.3152
33454SOL    HW1 4404   4.771   4.773   3.001 -1.9624 -0.4722  2.2054
33454SOL    HW2 4405   4.856   4.648   2.991 -0.3560  0.7570 -0.7083
33455SOL     OW 4406   6.199   3.361   5.767  0.0806  0.0762  0.1434
33455SOL    HW1 4407   6.260   3.402   5.828 -0.6118  0.3597  0.6595
33455SOL    HW2 4408   6.144   3.433   5.736 -0.3940 -0.2755  0.1606
33456SOL     OW 4409   3.979   3.379   6.848  0.4857  0.7247  0.0906
33456SOL    HW1 4410   3.930   3.299   6.832  1.0566  0.7518 -2.1031
33456SOL    HW2 4411   4.042   3.355   6.916  0.1851 -0.4821 -0.0377
33457SOL     OW 4412   1.454   9.455   1.202  0.3133  0.4655  0.6824
33457SOL    HW1 4413   1.392   9.525   1.223  0.0881  0.2255  0.8214
33457SOL    HW2 4414   1.539   9.489   1.231  0.4856  1.3915 -0.8179
33458SOL     OW 4415   9.018   9.310   0.489 -0.0447 -1.1254 -0.6032
33458SOL    HW1 4416   9.003   9.287   0.580  0.9509  0.0013 -0.1273
33458SOL    HW2 4417   9.090   9.373   0.492 -1.0399  0.1557 -2.0205
33459SOL     OW 4418   2.064   8.624   8.003  0.1723 -0.0219  0.0425
33459SOL    HW1 4419   2.098   8.629   8.093 -0.5372  0.0994  0.3095
33459SOL    HW2 4420   2.013   8.544   8.001  0.4918 -0.2175 -0.3684
33460SOL     OW 4421  10.007   4.239   9.292  0.5161 -0.2277 -0.2003
33460SOL    HW1 4422   9.941   4.171   9.304 -0.8440  0.5038 -2.6860
33460SOL    HW2 4423  10.072   4.199   9.235 -0.2119  0.4327 -1.5458
33461SOL     OW 4424   0.779   5.790   9.292 -0.3085 -0.0564 -0.3505
33461SOL    HW1 4425   0.830   5.709   9.290  0.0177  0.1556 -0.9980
33461SOL    HW2 4426   0.709   5.776   9.228 -1.6423 -0.6947  1.1687
33462SOL     OW 4427   9.508   3.949   7.522  0.2416 -0.4045 -0.2327
33462SOL    HW1 4428   9.546   4.031   7.492  0.2169 -0.7665 -1.3077
33462SOL    HW2 4429   9.438   3.930   7.459 -0.8818 -0.3975  0.9845
33463SOL     OW 4430   2.953   0.090   7.911 -0.0216 -0.1415  0.6831
33463SOL    HW1 4431   2.919   0.108   7.999  1.9684  0.5529  1.3452
33463SOL    HW2 4432   2.997   0.006   7.920 -0.8179 -0.6427  0.0267
33464SOL     OW 4433   6.021   6.025   9.095  0.6926  0.3124 -0.1355
33464SOL    HW1 4434   6.032   5.932   9.114  0.6401  0.2271 -0.5025
33464SOL    HW2 4435   5.985   6.062   9.175 -0.9025 -0.3065 -0.5205
33465SOL     OW 4436  10.112   4.509   8.171 -0.1154 -0.4713 -0.0252
33465SOL    HW1 4437  10.022   4.502   8.138 -0.0955  0.0200 -0.1939
33465SOL    HW2 4438  10.143   4.593   8.138  1.0682 -1.4450 -1.5554
33466SOL     OW 4439   1.516   4.574   2.434  1.0301  0.0002  0.2598
33466SOL    HW1 4440   1.479   4.493   2.398  1.0501 -0.7975  1.9304
33466SOL    HW2 4441   1.476   4.644   2.382  0.4687 -1.0355 -0.7525
33467SOL     OW 4442   0.545   3.591   0.327 -0.4961 -0.2198 -0.1641
33467SOL    HW1 4443   0.630   3.631   0.341 -1.0113  0.9888 -0.3685
33467SOL    HW2 4444   0.560   3.523   0.262  0.5330 -0.8469  0.7084
33468SOL     OW 4445   3.820   3.858   3.276  0.4830 -0.2949 -0.3059
33468SOL    HW1 4446   3.887   3.828   3.215 -0.2606  0.0164 -1.3123
33468SOL    HW2 4447   3.846   3.823   3.361  0.3634 -2.6551 -1.1701
33469SOL     OW 4448   0.147   3.634   2.506 -0.4732  0.0291  0.1096
33469SOL    HW1 4449   0.094   3.702   2.548 -1.3192  0.1272 -1.0677
33469SOL    HW2 4450   0.129   3.643   2.412  2.3616  0.6802 -0.4767
33470SOL     OW 4451   4.838   9.144   7.888 -0.6609  0.2037  0.6364
33470SOL    HW1 4452   4.768   9.195   7.848 -0.4393  0.1424  0.1539
33470SOL    HW2 4453   4.913   9.203   7.889 -0.4988  0.0032  0.3990
33471SOL     OW 4454   7.207   7.246   7.107  0.4597  0.2104  0.0400
33471SOL    HW1 4455   7.281   7.302   7.133 -0.8075  1.8776  0.2507
33471SOL    HW2 4456   7.166   7.221   7.190 -0.3843  0.9978 -0.1226
33472SOL     OW 4457   8.897  10.137   4.943  0.6631 -0.4197  0.1894
33472SOL    HW1 4458   8.811  10.095   4.936 -1.3652  3.5678 -2.2864
33472SOL    HW2 4459   8.936  10.125   4.857  0.9464  0.8152  0.1263
33473SOL     OW 4460   4.861   6.091   4.245 -0.3437 -0.5430  0.0768
33473SOL    HW1 4461   4.886   6.003   4.217 -0.3767 -0.1333 -1.3362
33473SOL    HW2 4462   4.806   6.124   4.173 -1.2364  0.2275  1.0764
33474SOL     OW 4463   0.092   1.183   5.299  0.0707  0.4289 -0.2747
33474SOL    HW1 4464   0.061   1.096   5.321 -1.7082  0.3700 -2.5451
33474SOL    HW2 4465   0.185   1.173   5.283  0.0186 -0.9068  0.2096
33475SOL     OW 4466   9.482   7.548   4.927 -0.0697  0.7176 -0.3185
33475SOL    HW1 4467   9.429   7.624   4.951  0.6804  0.8064  1.1862
33475SOL    HW2 4468   9.419   7.487   4.888 -1.0151  1.3800  0.1194
33476SOL     OW 4469   8.246   3.429   0.229  0.1173  0.2341 -0.1877
33476SOL    HW1 4470   8.156   3.399   0.217  0.9297 -3.1703  1.2619
33476SOL    HW2 4471   8.252   3.454   0.321  0.9391 -0.7892  0.0539
33477SOL     OW 4472   5.529   0.318   5.707 -0.1367 -0.2894 -0.0139
33477SOL    HW1 4473   5.451   0.296   5.656  0.5136  0.6517 -1.4806
33477SOL    HW2 4474   5.565   0.395   5.663  0.7404  0.2728  1.5948
33478SOL     OW 4475   8.424   1.289   3.987  0.0548  0.0085  0.3571
33478SOL    HW1 4476   8.370   1.245   4.053 -0.2982  1.0477  0.7977
33478SOL    HW2 4477   8.376   1.370   3.968 -1.0641 -1.2956 -2.9434
33479SOL     OW 4478   3.305   5.944   1.861  0.2037 -1.1227 -0.3701
33479SOL    HW1 4479   3.230   5.919   1.806  0.6210 -0.5573 -1.2171
33479SOL    HW2 4480   3.301   6.040   1.864  1.4032 -1.0344 -1.1652
33480SOL     OW 4481   3.484   5.501   7.996 -0.3937 -0.1068  0.0845
33480SOL    HW1 4482   3.534   5.551   8.060 -1.8404  1.6716 -0.0764
33480SOL    HW2 4483   3.469   5.563   7.924 -2.4178 -0.6598 -0.0404
33481SOL     OW 4484   8.237   3.398   6.347 -0.4343 -0.4213  0.2883
33481SOL    HW1 4485   8.307   3.437   6.399  0.2083 -1.0182 -0.1128
33481SOL    HW2 4486   8.281   3.366   6.268 -1.3631  0.3322 -0.5714
33482SOL     OW 4487   4.085  10.082   4.095  0.0608 -0.4149  0.2934
33482SOL    HW1 4488   4.027  10.061   4.023 -0.5530 -0.0571  0.6773
33482SOL    HW2 4489   4.173  10.061   4.062 -0.0965  0.7151 -0.9239
33483SOL     OW 4490   3.989   6.387   1.108 -0.7496  0.0864  0.2106
33483SOL    HW1 4491   3.991   6.482   1.098  0.1848  0.0315 -0.2322
33483SOL    HW2 4492   4.035   6.370   1.190 -2.0718  0.0833  0.9770
33484SOL     OW 4493   5.480   1.764   3.597  0.2831 -0.2382 -0.3773
33484SOL    HW1 4494   5.555   1.817   3.624  0.6930 -0.9434 -0.1123
33484SOL    HW2 4495   5.462   1.792   3.507  0.0758  0.8093 -0.0304
33485SOL     OW 4496   9.402   2.242   3.106 -0.2759 -0.3403  0.4346
33485SOL    HW1 4497   9.382   2.335   3.113 -1.4689 -0.6809  2.1643
33485SOL    HW2 4498   9.486   2.239   3.060 -0.9577  1.4901 -1.0556
33486SOL     OW 4499   6.725   4.716   1.463  0.6374  0.0343 -0.4284
33486SOL    HW1 4500   6.707   4.721   1.369 -0.6089  1.4273 -0.1567
33486SOL    HW2 4501   6.704   4.803   1.497 -0.7880 -0.9549  1.4373
33487SOL     OW 4502   8.424   5.298   7.048  0.2798  0.0884  0.0139
33487SOL    HW1 4503   8.371   5.258   6.979  1.2415  0.1873 -0.8131
33487SOL    HW2 4504   8.464   5.225   7.094 -1.5629 -0.0446  1.4983
33488SOL     OW 4505   7.987   8.797   1.219 -0.2816 -0.0098 -0.8301
33488SOL    HW1 4506   7.992   8.706   1.249  1.4109 -0.1191 -1.3372
33488SOL    HW2 4507   8.075   8.817   1.188 -1.2275  1.0053 -3.0958
33489SOL     OW 4508   5.737   0.683   9.231 -0.4575 -0.3372  0.2722
33489SOL    HW1 4509   5.750   0.724   9.317  1.2009 -1.1764  0.4683
33489SOL    HW2 4510   5.673   0.738   9.187 -1.6293 -0.0977  2.1857
33490SOL     OW 4511   8.730   5.246   4.507 -0.3162  0.0170 -0.3948
33490SOL    HW1 4512   8.642   5.279   4.485 -0.9494 -0.8397  0.7472
33490SOL    HW2 4513   8.721   5.211   4.595  1.1837 -0.1233 -0.2719
33491SOL     OW 4514   3.643   2.447   2.976  0.0788 -0.1664 -0.0692
33491SOL    HW1 4515   3.699   2.373   2.952  0.0154  0.2640 -1.5937
33491SOL    HW2 4516   3.646   2.506   2.901 -1.0919  0.6629  0.4989
33492SOL     OW 4517   5.815   4.457   8.936  0.2306 -0.2646 -0.7057
33492SOL    HW1 4518   5.839   4.458   8.843 -1.9785 -0.4467 -1.3263
33492SOL    HW2 4519   5.851   4.538   8.971  1.6015 -0.4720 -1.5584
33493SOL     OW 4520   1.158   6.615  10.149 -0.2114 -0.6617  0.0258
33493SOL    HW1 4521   1.193   6.611  10.060 -0.6628  1.5453 -0.3230
33493SOL    HW2 4522   1.144   6.709  10.165  2.7810 -0.5578  3.5440
33494SOL     OW 4523   5.271   0.071   8.326  0.3171 -0.2015 -0.4723
33494SOL    HW1 4524   5.203   0.054   8.260  0.6260  1.3320 -1.2113
33494SOL    HW2 4525   5.311   0.153   8.299  2.6008 -1.1395 -0.1431
33495SOL     OW 4526   6.699   5.961   9.266  0.5518  0.0575 -0.4375
33495SOL    HW1 4527   6.767   5.902   9.299 -2.1171 -1.4994  2.9767
33495SOL    HW2 4528   6.661   5.914   9.191  1.1407 -0.5746 -0.3520
33496SOL     OW 4529   6.174   9.488   0.200  0.1796  0.2447  0.0769
33496SOL    HW1 4530   6.149   9.454   0.114 -1.1315  1.8622 -0.2274
33496SOL    HW2 4531   6.092   9.502   0.246  0.4909  3.8343 -0.2060
33497SOL     OW 4532   2.278   5.622   4.716 -0.3053 -0.0189  0.1601
33497SOL    HW1 4533   2.312   5.533   4.714 -1.6673 -0.5741  0.1560
33497SOL    HW2 4534   2.225   5.629   4.636 -0.4142  0.7002  0.2889
33498SOL     OW 4535   0.371   5.501   1.892 -0.4735  0.2198  0.3115
33498SOL    HW1 4536   0.356   5.596   1.889  0.3053  0.3751  0.8073
33498SOL    HW2 4537   0.346   5.476   1.981 -0.7176 -0.0449  0.1683
33499SOL     OW 4538   4.478   9.398   2.402 -0.3583 -0.3177  0.2591
33499SOL    HW1 4539   4.539   9.414   2.473  1.2535  1.8535 -1.4863
33499SOL    HW2 4540   4.489   9.305   2.381  0.0400 -0.6880  1.9619
33500SOL     OW 4541   0.492   2.755   1.783  0.0762  0.4757  0.2955
33500SOL    HW1 4542   0.420   2.793   1.833  0.7028  0.6174  1.1106
33500SOL    HW2 4543   0.545   2.830   1.757  0.2198  0.3267  0.1564
33501SOL     OW 4544   8.818   1.451   9.992  0.5056 -0.2867 -0.2708
33501SOL    HW1 4545   8.803   1.456   9.898  1.4190 -0.4012 -0.4391
33501SOL    HW2 4546   8.892   1.510  10.007 -0.2942  0.5299  0.5429
33502SOL     OW 4547   6.507   1.083   8.837  0.8502 -0.1679 -0.7305
33502SOL    HW1 4548   6.487   0.999   8.878 -1.1836 -0.2384 -1.7565
33502SOL    HW2 4549   6.491   1.069   8.744 -1.3244  1.7877 -0.7296
33503SOL     OW 4550   0.521   0.994   3.364  0.6425  0.1339 -0.2408
33503SOL    HW1 4551   0.447   1.031   3.316  0.6561  1.9354  0.9994
33503SOL    HW2 4552   0.484   0.924   3.418 -0.1128  0.7727  0.0906
33504SOL     OW 4553   5.387   7.828   1.668 -0.0677  0.0745 -0.1856
33504SOL    HW1 4554   5.431   7.757   1.622 -0.7112  0.0504 -0.7697
33504SOL    HW2 4555   5.432   7.907   1.638  2.4017 -0.1841  2.3873
33505SOL     OW 4556   3.261   0.647   2.363 -0.0790  0.0729 -0.8495
33505SOL    HW1 4557   3.276   0.717   2.426 -2.0167  0.2303 -0.5056
33505SOL    HW2 4558   3.229   0.574   2.415  1.6738 -1.0119 -1.2395
33506SOL     OW 4559   3.127   6.408   1.449  0.0626 -0.7705  0.0380
33506SOL    HW1 4560   3.032   6.407   1.464 -0.1511  1.0312 -0.9334
33506SOL    HW2 4561   3.144   6.494   1.410  1.8070 -1.8199 -1.6627
33507SOL     OW 4562   8.452   9.737   5.333  0.2441 -0.2258 -0.2560
33507SOL    HW1 4563   8.421   9.646   5.330  0.7881 -0.3982 -1.0544
33507SOL    HW2 4564   8.543   9.730   5.364 -0.0619  0.1563  0.7768
33508SOL     OW 4565   6.292   5.449   5.660  0.7877 -0.0029  0.0823
33508SOL    HW1 4566   6.237   5.516   5.620  0.3483  0.2620  1.0921
33508SOL    HW2 4567   6.365   5.498   5.699  0.2404 -0.0476  1.1942
33509SOL     OW 4568   3.082   9.749   5.580  0.1972 -0.3814  0.1836
33509SOL    HW1 4569   3.147   9.815   5.559 -1.8727  0.9524 -2.8158
33509SOL    HW2 4570   3.102   9.676   5.521 -0.3560 -0.4142  0.0271
33510SOL     OW 4571   6.342   2.126   3.045  0.4942 -0.3214 -0.5575
33510SOL    HW1 4572   6.265   2.073   3.065  0.4858  0.1825  0.8655
33510SOL    HW2 4573   6.396   2.120   3.124  1.1090  0.7100 -0.8895
33511SOL     OW 4574   1.454   6.680   7.253  0.6941  0.1735  0.6485
33511SOL    HW1 4575   1.436   6.623   7.327  2.7743 -0.5952  0.6366
33511SOL    HW2 4576   1.489   6.760   7.293  3.0206 -0.7176  0.5298
33512SOL     OW 4577   3.455   6.798   8.440  0.5476  0.9238  0.0116
33512SOL    HW1 4578   3.451   6.746   8.519  3.3619 -0.5271 -0.6561
33512SOL    HW2 4579   3.482   6.736   8.372 -1.4697  2.1734 -2.0573
33513SOL     OW 4580   7.395   2.574   7.830  0.4145  0.0927  0.3043
33513SOL    HW1 4581   7.353   2.583   7.744 -1.8996  2.9678  1.5948
33513SOL    HW2 4582   7.388   2.480   7.850  1.7298 -0.8236 -2.8610
33514SOL     OW 4583   2.725   3.224   8.367  0.5563  0.0815  0.5805
33514SOL    HW1 4584   2.640   3.224   8.411  0.2395  0.3737 -0.0101
33514SOL    HW2 4585   2.703   3.213   8.274  1.1822 -0.1081  0.4537
33515SOL     OW 4586   3.777   3.311   5.245 -0.1301  0.1630 -0.3889
33515SOL    HW1 4587   3.753   3.219   5.258 -0.3578  0.3406  0.4975
33515SOL    HW2 4588   3.771   3.350   5.332 -1.2984  1.3210 -0.9612
33516SOL     OW 4589   9.280   8.035   2.305  0.2987 -0.4204  0.0282
33516SOL    HW1 4590   9.291   8.066   2.395  0.8727  2.4396 -0.9217
33516SOL    HW2 4591   9.185   8.024   2.295  0.2598 -1.2286  1.0782
33517SOL     OW 4592   2.865   2.447   4.669 -0.5835  0.0959  0.1650
33517SOL    HW1 4593   2.841   2.537   4.693 -1.9869 -0.0311 -0.6087
33517SOL    HW2 4594   2.859   2.446   4.573 -0.1830 -0.7280  0.1431
33518SOL     OW 4595   2.695   5.700   7.438 -0.0801  0.8623 -0.0010
33518SOL    HW1 4596   2.618   5.649   7.411  0.9627 -0.6892 -0.1728
33518SOL    HW2 4597   2.721   5.747   7.359 -0.5601  1.0339 -0.0652
33519SOL     OW 4598   9.817   7.572   7.591 -0.2029 -0.6117  0.0912
33519SOL    HW1 4599   9.832   7.629   7.516 -2.1623  1.2137  1.0077
33519SOL    HW2 4600   9.846   7.622   7.667 -0.4881 -1.4564  0.7851
33520SOL     OW 4601   9.583   5.614   9.135 -0.0979 -0.1762  0.0664
33520SOL    HW1 4602   9.543   5.683   9.187  0.4821 -0.3213  0.7275
33520SOL    HW2 4603   9.509   5.568   9.095 -0.5212  0.3414  0.2458
33521SOL     OW 4604   4.559   2.503   5.755 -0.2753  0.1840  0.2605
33521SOL    HW1 4605   4.479   2.520   5.707 -0.8871 -1.3827  0.6622
33521SOL    HW2 4606   4.539   2.529   5.845  0.4028  1.7851 -0.0152
33522SOL     OW 4607   8.677   8.526   3.785 -0.1709  0.0930  0.1650
33522SOL    HW1 4608   8.619   8.584   3.734  0.4547 -1.3914 -2.4065
33522SOL    HW2 4609   8.761   8.571   3.785 -0.4643  0.6706  1.0046
33523SOL     OW 4610   7.888   4.928   8.289  0.5964  0.3279  0.2577
33523SOL    HW1 4611   7.957   4.875   8.248  0.1982 -0.2724  0.3474
33523SOL    HW2 4612   7.915   5.018   8.274  1.1129  0.1030 -0.2109
33524SOL     OW 4613   4.372   0.628   7.872 -0.0760  0.2492  0.1756
33524SOL    HW1 4614   4.415   0.544   7.893  1.5436  0.8671 -0.4848
33524SOL    HW2 4615   4.338   0.658   7.956 -1.5462 -1.5010  0.2696
33525SOL     OW 4616   7.097   6.228   9.426 -1.2591 -0.2184 -0.3882
33525SOL    HW1 4617   7.037   6.218   9.500 -0.3900 -1.1747  0.1995
33525SOL    HW2 4618   7.088   6.148   9.376  0.4745 -0.9736  0.4318
33526SOL     OW 4619   7.917   7.893   0.226  0.0190 -0.2007 -0.1249
33526SOL    HW1 4620   7.839   7.899   0.280  0.6576  2.4122  0.6397
33526SOL    HW2 4621   7.888   7.921   0.139  0.2765  1.8922  0.4221
33527SOL     OW 4622   0.417   4.121   5.194  0.1386 -0.2247 -0.2950
33527SOL    HW1 4623   0.364   4.142   5.117 -0.5650 -0.1143  0.2200
33527SOL    HW2 4624   0.433   4.027   5.187  0.6449 -0.1037 -0.9274
33528SOL     OW 4625   7.787   9.464   6.274 -0.0341 -0.3821  0.2886
33528SOL    HW1 4626   7.844   9.413   6.215  0.7327 -0.3733  1.0106
33528SOL    HW2 4627   7.731   9.399   6.315  0.1028 -0.4985  0.2910
33529SOL     OW 4628   6.121   7.000   8.527  0.2095  0.3255 -0.1351
33529SOL    HW1 4629   6.193   7.062   8.523 -0.5995  1.3684  0.6773
33529SOL    HW2 4630   6.163   6.914   8.522  1.3536  0.9196 -1.2890
33530SOL     OW 4631   8.739  10.266   8.493  0.1661 -0.1962 -0.2017
33530SOL    HW1 4632   8.794  10.197   8.530 -1.0250 -0.2947  1.4884
33530SOL    HW2 4633   8.782  10.289   8.411  0.9231 -2.5314 -0.5488
33531SOL     OW 4634   5.901   6.505   0.403  0.4749 -0.4560  0.1287
33531SOL    HW1 4635   5.897   6.569   0.473  1.4256 -0.9345  0.6319
33531SOL    HW2 4636   5.992   6.504   0.375  1.0897 -3.3580  1.8291
33532SOL     OW 4637   5.823   9.632   5.914  0.5169  0.1499  0.3624
33532SOL    HW1 4638   5.850   9.545   5.943  0.1479  0.1045  0.5763
33532SOL    HW2 4639   5.729   9.634   5.930 -0.2204 -0.7579 -3.0355
33533SOL     OW 4640   6.869   1.350   0.609 -0.2500  0.3165 -0.0886
33533SOL    HW1 4641   6.941   1.299   0.573 -0.4884  0.7659 -1.2442
33533SOL    HW2 4642   6.896   1.441   0.599 -1.4727  0.5564 -1.7414
33534SOL     OW 4643   5.519   9.628   3.859 -0.4331 -0.2743 -0.3943
33534SOL    HW1 4644   5.548   9.556   3.915  0.8338  1.0892  0.7775
33534SOL    HW2 4645   5.595   9.647   3.804 -0.8817 -0.0738 -0.9520
33535SOL     OW 4646   1.051   1.019   3.511  0.1721  0.3294 -0.8509
33535SOL    HW1 4647   1.007   1.104   3.513 -1.8906 -0.6816 -0.2450
33535SOL    HW2 4648   1.130   1.034   3.460  0.6303  2.9410  0.4502
33536SOL     OW 4649   2.580   6.117   8.711 -0.6011  0.3783  0.5780
33536SOL    HW1 4650   2.606   6.052   8.646 -1.2622 -0.6591  1.3137
33536SOL    HW2 4651   2.486   6.131   8.693 -0.6225  0.6080  0.8707
33537SOL     OW 4652   5.228   6.811   4.651 -0.8481  0.0116 -0.7805
33537SOL    HW1 4653   5.178   6.865   4.712 -1.8369 -1.8214  0.1030
33537SOL    HW2 4654   5.313   6.798   4.695 -1.0052 -0.0357 -0.4889
33538SOL     OW 4655   7.571   9.183   3.222  0.2252  0.0492 -0.3030
33538SOL    HW1 4656   7.545   9.273   3.201 -0.9102  0.3366  2.0169
33538SOL    HW2 4657   7.543   9.132   3.146 -0.6945  1.4142 -0.9226
33539SOL     OW 4658   4.348   2.239   4.365  0.0665  0.4051  0.5325
33539SOL    HW1 4659   4.380   2.170   4.307 -1.3102  1.3085 -1.4058
33539SOL    HW2 4660   4.315   2.192   4.442  0.5697 -0.9596 -0.0500
33540SOL     OW 4661   2.838   1.749   5.037  0.3954  0.0701 -0.3022
33540SOL    HW1 4662   2.803   1.661   5.025 -0.9602  0.1973  2.0184
33540SOL    HW2 4663   2.928   1.735   5.067  0.0471 -0.5798  0.4803
33541SOL     OW 4664   5.754   7.352   0.740 -0.1021  0.4115 -0.1571
33541SOL    HW1 4665   5.741   7.312   0.654  0.2206  0.6108 -0.3016
33541SOL    HW2 4666   5.692   7.424   0.744 -1.4573 -0.7426  0.5315
33542SOL     OW 4667   4.354   6.430   5.339  0.0030 -0.1474 -0.4937
33542SOL    HW1 4668   4.362   6.347   5.292  0.2011 -1.2557  1.4104
33542SOL    HW2 4669   4.260   6.439   5.355  0.0336 -0.3194 -0.1986
33543SOL     OW 4670   3.720   3.483   0.783 -0.2902  0.2982 -0.4702
33543SOL    HW1 4671   3.752   3.423   0.850 -0.9640 -2.0063 -2.0992
33543SOL    HW2 4672   3.799   3.520   0.744  0.1141  2.1744  1.9005
33544SOL     OW 4673   4.781   2.003   2.362 -0.0601  0.4875 -0.0720
33544SOL    HW1 4674   4.720   1.953   2.416 -0.7398  0.2202 -1.0689
33544SOL    HW2 4675   4.746   2.093   2.362 -0.3319  0.3854 -0.4462
33545SOL     OW 4676   7.237   2.857   7.425  0.7403 -0.2081  0.0034
33545SOL    HW1 4677   7.295   2.792   7.465  2.0873 -0.1630 -1.7632
33545SOL    HW2 4678   7.160   2.807   7.399  1.6036 -1.0938 -1.0064
33546SOL     OW 4679   9.385   6.136   7.613 -0.0832 -0.2141  0.5470
33546SOL    HW1 4680   9.436   6.095   7.543 -0.2806 -0.5386  0.5916
33546SOL    HW2 4681   9.450   6.184   7.664 -0.1479  1.2698 -0.7210
33547SOL     OW 4682   4.778   7.048   4.317 -0.1226  0.1950 -0.0152
33547SOL    HW1 4683   4.705   7.003   4.276 -1.1662 -0.2928  2.2297
33547SOL    HW2 4684   4.848   6.983   4.318 -1.3156 -1.1661  2.3422
33548SOL     OW 4685   2.300   9.880   7.037 -0.0045  0.3249  0.1705
33548SOL    HW1 4686   2.387   9.863   7.000 -0.2544 -0.0165 -0.2803
33548SOL    HW2 4687   2.247   9.907   6.961 -0.0628  1.4304  0.5912
33549SOL     OW 4688   6.690   4.162   1.796  0.1537 -0.2420  0.0546
33549SOL    HW1 4689   6.720   4.132   1.711  1.5633 -1.7589  1.0288
33549SOL    HW2 4690   6.621   4.100   1.821  1.7585 -1.6322  1.2400
33550SOL     OW 4691   8.378   4.399   4.433 -0.1750  0.0888 -0.0785
33550SOL    HW1 4692   8.339   4.481   4.464 -0.5135 -0.1725  0.1979
33550SOL    HW2 4693   8.421   4.363   4.511 -0.4587 -0.2438 -0.0747
33551SOL     OW 4694   4.025   2.105   2.494 -0.1094 -0.1901  0.1917
33551SOL    HW1 4695   4.015   2.062   2.578 -1.3258 -0.8325 -0.2508
33551SOL    HW2 4696   3.977   2.049   2.432  0.8679  0.1831 -0.9591
33552SOL     OW 4697   3.561   9.656   6.181  0.0493 -0.1344 -0.6815
33552SOL    HW1 4698   3.517   9.655   6.266  1.5517  0.4668  0.1405
33552SOL    HW2 4699   3.520   9.728   6.133 -0.0805  0.2116 -0.0580
33553SOL     OW 4700   2.418   0.941   7.427 -0.0076  0.1754 -0.4744
33553SOL    HW1 4701   2.399   0.852   7.457  0.0874 -0.0786 -1.1338
33553SOL    HW2 4702   2.487   0.972   7.484 -0.0197 -0.1907 -0.2575
33554SOL     OW 4703   0.833   6.656   7.313  0.0490 -0.0824  0.1135
33554SOL    HW1 4704   0.804   6.696   7.231  0.0795  0.4533  0.3642
33554SOL    HW2 4705   0.805   6.565   7.306  0.3015 -0.1085 -0.6151
33555SOL     OW 4706   2.059   6.024   7.346 -0.7540 -0.1759 -0.4890
33555SOL    HW1 4707   2.106   6.044   7.427 -0.7471  1.8827 -0.9509
33555SOL    HW2 4708   1.968   6.012   7.374 -0.5373 -0.8489 -0.0288
33556SOL     OW 4709   1.571   3.496   5.609 -0.0726 -0.1487 -0.6180
33556SOL    HW1 4710   1.651   3.446   5.597 -0.3891 -0.2125 -2.7914
33556SOL    HW2 4711   1.600   3.581   5.643  1.0455  0.1743 -2.2930
33557SOL     OW 4712   0.414   2.719   8.622 -0.4933  0.4843  0.2765
33557SOL    HW1 4713   0.457   2.787   8.675 -0.1888  0.3044  0.2660
33557SOL    HW2 4714   0.323   2.747   8.616 -0.8480 -0.1826  2.0271
33558SOL     OW 4715   0.682   7.140   1.479 -0.1223 -0.7479 -0.2031
33558SOL    HW1 4716   0.756   7.191   1.513  0.2756 -1.1074 -0.5142
33558SOL    HW2 4717   0.607   7.197   1.490  0.4876  0.4033 -1.5920
33559SOL     OW 4718   4.313   3.415   2.218 -0.5770 -0.3715  0.1671
33559SOL    HW1 4719   4.397   3.414   2.172 -1.3527 -2.3665 -1.3283
33559SOL    HW2 4720   4.269   3.494   2.185  0.0042 -0.2640 -0.3679
33560SOL     OW 4721   5.620   3.323   7.957  0.4816 -0.5638  0.6500
33560SOL    HW1 4722   5.643   3.405   8.002 -0.5284  0.2281 -0.2210
33560SOL    HW2 4723   5.654   3.254   8.014  0.6049  0.4414  1.8410
33561SOL     OW 4724   3.494   3.560   3.775 -0.1833  0.2047  1.1519
33561SOL    HW1 4725   3.528   3.643   3.742  0.3538  0.2182  1.7126
33561SOL    HW2 4726   3.481   3.506   3.697  0.6583  0.3821  0.8785
33562SOL     OW 4727   0.509   8.160   6.984  0.3368 -0.3156  0.1013
33562SOL    HW1 4728   0.603   8.150   6.996  0.8186  1.0602 -1.9027
33562SOL    HW2 4729   0.480   8.209   7.061  1.3655 -0.3128  0.5012
33563SOL     OW 4730   1.626   5.325   2.608 -0.5874 -0.1766 -0.1933
33563SOL    HW1 4731   1.574   5.256   2.648  0.7542 -1.4565 -0.5905
33563SOL    HW2 4732   1.715   5.290   2.605 -0.0330  1.2295 -1.1956
33564SOL     OW 4733   8.248   5.968   8.411 -0.1207 -0.3651 -0.3978
33564SOL    HW1 4734   8.189   6.032   8.370  0.5281 -0.5292 -1.6509
33564SOL    HW2 4735   8.330   6.016   8.422 -0.0889 -0.5313  0.1094
33565SOL     OW 4736   9.527   9.433   9.993  0.1973 -0.6146 -0.1066
33565SOL    HW1 4737   9.500   9.519   9.960  0.1405  0.6503  2.9127
33565SOL    HW2 4738   9.620   9.443  10.015  0.5300 -1.7548 -0.8953
33566SOL     OW 4739   9.403   0.819   0.129  1.0914  0.0101 -0.0053
33566SOL    HW1 4740   9.326   0.876   0.133 -0.0417 -1.5323  1.0342
33566SOL    HW2 4741   9.428   0.806   0.220  1.5633 -0.8410 -0.2457
33567SOL     OW 4742   7.229   5.928   6.691 -0.0333 -0.2594  0.2479
33567SOL    HW1 4743   7.280   5.846   6.695  0.6836  0.1020 -0.7628
33567SOL    HW2 4744   7.145   5.906   6.730  0.2058 -1.4453  0.1494
33568SOL     OW 4745   3.951   1.263   4.268  0.2343  0.1035 -0.4987
33568SOL    HW1 4746   4.044   1.268   4.289 -0.2310 -1.8864  2.6145
33568SOL    HW2 4747   3.907   1.251   4.352 -2.9007  1.1214 -1.8266
33569SOL     OW 4748   4.789  10.198   2.414 -0.0874  0.3500  0.6482
33569SOL    HW1 4749   4.776  10.135   2.343  0.9066 -1.3423  1.8704
33569SOL    HW2 4750   4.780  10.284   2.372 -1.9599 -0.5692 -1.0034
33570SOL     OW 4751   0.484   8.720   2.978 -0.5204 -0.4126  0.6505
33570SOL    HW1 4752   0.464   8.731   3.071  2.1939  0.4098  1.2406
33570SOL    HW2 4753   0.499   8.626   2.968  0.0212 -0.3971  1.2704
33571SOL     OW 4754   9.356   4.038   2.112  0.4111 -0.7259  0.5167
33571SOL    HW1 4755   9.354   3.945   2.136 -0.6156 -1.3737 -1.7771
33571SOL    HW2 4756   9.311   4.042   2.027  2.7513  1.4858 -0.7739
33572SOL     OW 4757   0.961   7.671   4.389  0.3855  0.0135  0.3076
33572SOL    HW1 4758   1.052   7.641   4.390  0.2106 -0.7671  3.0315
33572SOL    HW2 4759   0.922   7.629   4.465 -2.4013  0.0145 -1.0139
33573SOL     OW 4760   1.834   1.624   1.872 -0.6604 -0.2249  0.2890
33573SOL    HW1 4761   1.878   1.546   1.839  0.0106  0.4055 -0.3480
33573SOL    HW2 4762   1.859   1.628   1.965  1.0021  0.3371 -0.1415
33574SOL     OW 4763   5.102   5.798   9.981 -0.0347 -0.1717 -0.5430
33574SOL    HW1 4764   5.010   5.777   9.965 -0.3018  0.8910 -0.4757
33574SOL    HW2 4765   5.105   5.893   9.981  0.5998 -0.1354  2.1432
33575SOL     OW 4766   7.945   6.926   7.056  0.3412 -0.3789  0.0556
33575SOL    HW1 4767   7.954   6.832   7.071  0.7406 -0.3303  0.1222
33575SOL    HW2 4768   7.930   6.934   6.962  0.9758 -0.4683 -0.0616
33576SOL     OW 4769   4.392   3.332   4.172  0.2420  0.0540 -0.3315
33576SOL    HW1 4770   4.368   3.286   4.253  0.3201  0.7008  0.0710
33576SOL    HW2 4771   4.486   3.349   4.182  1.1834 -3.2526 -2.2914
33577SOL     OW 4772   1.915   4.637   2.992  0.3938  0.1063  0.3260
33577SOL    HW1 4773   1.858   4.644   3.068  0.5694 -0.7582  0.5427
33577SOL    HW2 4774   1.863   4.591   2.926  0.2160  0.9101 -0.1164
33578SOL     OW 4775   6.751   7.413   7.183  0.3801 -0.3829 -0.0385
33578SOL    HW1 4776   6.679   7.456   7.229 -0.1027 -2.5417  1.3660
33578SOL    HW2 4777   6.824   7.415   7.245  0.9262  0.0190 -0.6766
33579SOL     OW 4778   0.253   3.319   2.081 -0.2166 -0.1279  0.6979
33579SOL    HW1 4779   0.325   3.317   2.018 -1.2896 -1.5118 -0.5584
33579SOL    HW2 4780   0.295   3.338   2.165  1.0440  3.7825 -0.6064
33580SOL     OW 4781   2.906   8.313   0.581  0.0822 -0.1097  0.1908
33580SOL    HW1 4782   2.900   8.403   0.613  0.6793  0.2184 -0.5970
33580SOL    HW2 4783   2.815   8.284   0.575 -0.2301  1.0133 -1.1136
33581SOL     OW 4784   4.379   9.589   6.241  0.1917 -0.7877 -0.6264
33581SOL    HW1 4785   4.448   9.626   6.186  1.3029  2.2920  2.4932
33581SOL    HW2 4786   4.392   9.630   6.327 -3.6467 -2.4723  0.9866
33582SOL     OW 4787   2.062   9.218   6.183 -0.5994 -0.2574 -0.7132
33582SOL    HW1 4788   1.993   9.236   6.246  0.1344  0.9886 -0.2206
33582SOL    HW2 4789   2.053   9.286   6.117  0.3253  0.1289 -0.4719
33583SOL     OW 4790   5.497   6.199  10.000  0.3136  0.1342 -0.5516
33583SOL    HW1 4791   5.462   6.288  10.007 -1.5133 -0.5933  0.1440
33583SOL    HW2 4792   5.507   6.170  10.090  1.2816 -0.2366 -0.7727
33584SOL     OW 4793   3.475   3.404   0.930 -0.2007 -0.3862  0.1387
33584SOL    HW1 4794   3.390   3.435   0.900 -0.2429 -0.2647  0.3770
33584SOL    HW2 4795   3.538   3.448   0.875 -0.2858 -0.3470  0.0724
33585SOL     OW 4796   7.101  10.271   7.828  0.3410 -0.5542  0.2205
33585SOL    HW1 4797   7.109  10.214   7.905 -2.6561 -2.7377 -0.9081
33585SOL    HW2 4798   7.187  10.266   7.786  0.9694 -2.1110  1.5761
33586SOL     OW 4799   3.172   5.327   1.067 -0.2608 -0.4240 -0.1553
33586SOL    HW1 4800   3.113   5.269   1.116  0.6414 -0.3467  1.0716
33586SOL    HW2 4801   3.145   5.415   1.092  1.4054 -0.3894  1.7846
33587SOL     OW 4802   0.553   1.477   7.946  0.4029  0.2065 -0.4417
33587SOL    HW1 4803   0.506   1.498   7.865 -0.2087  0.6984  0.0386
33587SOL    HW2 4804   0.504   1.520   8.015  0.8414 -0.3338  0.2221
33588SOL     OW 4805   5.728   7.885   9.621 -0.6707 -0.5438  0.2139
33588SOL    HW1 4806   5.757   7.973   9.644 -1.8712 -0.1859  0.4175
33588SOL    HW2 4807   5.809   7.838   9.601  0.2985 -0.2779  3.0441
33589SOL     OW 4808   4.601   9.297   4.091  0.6702  0.0075  0.0237
33589SOL    HW1 4809   4.668   9.326   4.153  4.1842 -3.7698 -1.5845
33589SOL    HW2 4810   4.589   9.373   4.033  3.9367  0.7997  0.1603
33590SOL     OW 4811   9.363   8.411   5.939  0.0886  0.1321  0.3501
33590SOL    HW1 4812   9.336   8.494   5.900 -0.7362 -0.4006 -0.2564
33590SOL    HW2 4813   9.412   8.436   6.017  0.7779  1.2074 -0.4033
33591SOL     OW 4814   9.243   0.122   5.968 -0.0075 -0.7662  0.1102
33591SOL    HW1 4815   9.234   0.192   5.904 -1.9783 -0.8915  0.2094
33591SOL    HW2 4816   9.265   0.167   6.050  0.9499 -0.4818 -0.2878
33592SOL     OW 4817   9.976   9.297   8.322 -0.1537  0.4012  0.1947
33592SOL    HW1 4818   9.893   9.298   8.370  0.9617 -0.0819  2.2890
33592SOL    HW2 4819   9.953   9.267   8.234 -2.1753  0.2173  0.7365
33593SOL     OW 4820   0.920   1.777   4.203 -0.0045  0.2971  0.2145
33593SOL    HW1 4821   0.842   1.825   4.174  0.4794  1.4189  0.7049
33593SOL    HW2 4822   0.894   1.685   4.199 -0.9183  0.5794 -0.8891
33594SOL     OW 4823   7.394   7.553   4.109  0.2970  0.2067 -0.1881
33594SOL    HW1 4824   7.346   7.603   4.043 -0.3949  0.4931  0.5132
33594SOL    HW2 4825   7.482   7.591   4.110  0.7658 -0.7305 -1.9385
33595SOL     OW 4826   5.486   5.108   6.447  0.4559  0.6115  0.1040
33595SOL    HW1 4827   5.443   5.139   6.527 -0.1787  1.1429 -0.4333
33595SOL    HW2 4828   5.534   5.184   6.414 -1.6170  1.3093 -1.5618
33596SOL     OW 4829   2.844   4.396   4.895  0.4514  0.1681 -0.1935
33596SOL    HW1 4830   2.780   4.400   4.824  1.0549  0.3923 -0.7331
33596SOL    HW2 4831   2.793   4.366   4.971 -0.2562  0.1853 -0.6472
33597SOL     OW 4832   4.182   5.292   2.091 -0.6589 -0.7159  0.2319
33597SOL    HW1 4833   4.258   5.327   2.139 -1.5716 -0.9304  1.9390
33597SOL    HW2 4834   4.198   5.317   2.000  0.6110  0.7603  0.7958
33598SOL     OW 4835   6.699   4.963   9.541  0.5165 -0.2427  0.1109
33598SOL    HW1 4836   6.646   5.024   9.592  0.5262  0.0826 -0.2646
33598SOL    HW2 4837   6.735   5.016   9.470  1.1591 -0.5117  0.2309
33599SOL     OW 4838   0.061   2.622   5.488 -0.0070 -0.2791  0.0745
33599SOL    HW1 4839   0.061   2.671   5.406  1.3214 -2.6697 -1.4960
33599SOL    HW2 4840  -0.031   2.608   5.509 -0.3637  0.4171 -0.9789
33600SOL     OW 4841   6.550   8.603   8.123  0.4214 -0.1371 -0.3458
33600SOL    HW1 4842   6.472   8.658   8.132  1.1173  0.4954  3.1949
33600SOL    HW2 4843   6.516   8.513   8.129 -0.0411  0.1453  2.6434
33601SOL     OW 4844   5.223   2.147   6.530  0.6973  0.2320 -0.1446
33601SOL    HW1 4845   5.229   2.078   6.596  1.2301 -0.4369 -0.8742
33601SOL    HW2 4846   5.130   2.153   6.508  0.7671 -1.0044 -0.8447
33602SOL     OW 4847   7.644   5.184   0.222  0.3489  0.4726 -0.0741
33602SOL    HW1 4848   7.635   5.155   0.131 -0.6048 -1.1274  0.4942
33602SOL    HW2 4849   7.737   5.205   0.231  0.1062  2.9681 -2.0229
33603SOL     OW 4850   2.444   4.938   0.970  0.4077 -0.1907  0.6057
33603SOL    HW1 4851   2.353   4.963   0.986  0.4760  0.0862  0.5780
33603SOL    HW2 4852   2.489   4.960   1.051  0.8507  1.6865 -0.0956
33604SOL     OW 4853   1.058   6.802   9.157  0.0183  0.0337  0.1158
33604SOL    HW1 4854   0.983   6.854   9.187  0.1590 -0.5612  1.5773
33604SOL    HW2 4855   1.029   6.711   9.165  0.2404 -0.1574 -1.1500
33605SOL     OW 4856   4.080   0.730   3.142  0.4945  0.1527 -0.3862
33605SOL    HW1 4857   4.030   0.714   3.222  1.9788  0.0472  0.5583
33605SOL    HW2 4858   4.016   0.720   3.072 -0.8184  0.0998  0.7683
33606SOL     OW 4859   6.079   3.799   4.524  0.8172 -0.0124  0.4765
33606SOL    HW1 4860   5.985   3.806   4.540  1.2432 -0.6180  3.9764
33606SOL    HW2 4861   6.116   3.880   4.559  1.6034  0.5533 -1.5276
33607SOL     OW 4862   2.276   9.955   2.256  0.7032  0.3545 -0.2123
33607SOL    HW1 4863   2.192   9.974   2.215  1.3057 -0.8847 -2.1354
33607SOL    HW2 4864   2.305  10.040   2.291 -0.6450  1.1128 -0.8477
33608SOL     OW 4865   5.492   4.091   8.805 -0.5385 -0.1646 -0.3005
33608SOL    HW1 4866   5.461   4.021   8.747 -1.8891 -0.2371  0.4812
33608SOL    HW2 4867   5.419   4.152   8.810 -0.0833  0.3183  0.5834
33609SOL     OW 4868   4.296   5.629   2.042  0.7152 -0.2679 -0.4692
33609SOL    HW1 4869   4.236   5.654   2.113  1.1011  0.0411 -0.2470
33609SOL    HW2 4870   4.351   5.561   2.080  0.0384 -1.0787 -0.8993
33610SOL     OW 4871   1.883   9.769   5.826  0.1094  0.3005 -0.1913
33610SOL    HW1 4872   1.841   9.804   5.747 -0.3919  2.3330  0.9191
33610SOL    HW2 4873   1.860   9.830   5.895  2.3717 -0.2125  1.1087
33611SOL     OW 4874   5.836   0.559   5.153  0.2304  0.5410 -0.3657
33611SOL    HW1 4875   5.909   0.499   5.168  1.3042  1.8626 -0.0359
33611SOL    HW2 4876   5.840   0.620   5.227  1.1881  2.9124 -2.2531
33612SOL     OW 4877   9.943   2.536   4.265 -0.1797  0.1875  0.5010
33612SOL    HW1 4878   9.911   2.551   4.353 -2.2883  0.3706 -0.2480
33612SOL    HW2 4879   9.923   2.444   4.247 -0.6326  0.3937 -0.0990
33613SOL     OW 4880   4.172   6.357   0.240 -0.1023 -0.2273 -0.0715
33613SOL    HW1 4881   4.267   6.363   0.236 -0.1925  1.2609 -0.6374
33613SOL    HW2 4882   4.155   6.279   0.292  1.4173 -0.8831 -0.5000
33614SOL     OW 4883   5.391   6.638   0.105  0.0080 -0.4068  0.0381
33614SOL    HW1 4884   5.482   6.666   0.093  0.5203 -1.5947  0.9181
33614SOL    HW2 4885   5.369   6.668   0.194 -0.4719 -0.1139 -0.1762
33615SOL     OW 4886   5.609   0.492   3.120  0.2610  0.3447  0.2389
33615SOL    HW1 4887   5.526   0.483   3.166 -0.3544 -0.5202 -0.9754
33615SOL    HW2 4888   5.648   0.572   3.156 -1.0719  0.7449  0.8606
33616SOL     OW 4889   3.258   4.051   4.200 -0.1226 -0.1167 -0.2807
33616SOL    HW1 4890   3.202   3.974   4.202 -0.9702  0.4896 -0.3428
33616SOL    HW2 4891   3.277   4.065   4.107  0.3027 -0.4311 -0.2471
33617SOL     OW 4892   9.908   9.280   4.780 -0.7386 -0.5863 -0.0192
33617SOL    HW1 4893   9.998   9.254   4.761 -1.1778 -0.8545 -1.8832
33617SOL    HW2 4894   9.863   9.199   4.804 -0.5419 -0.4807  0.7279
33618SOL     OW 4895   8.852   6.179   4.687  0.0026  0.3127  0.4887
33618SOL    HW1 4896   8.856   6.084   4.676  1.0710  0.3541  0.4118
33618SOL    HW2 4897   8.773   6.205   4.639  0.6622 -0.3522 -1.0392
33619SOL     OW 4898   4.293   9.362   7.500  0.8848 -0.0094  0.2070
33619SOL    HW1 4899   4.385   9.385   7.483  0.7523  2.3259  2.1225
33619SOL    HW2 4900   4.247   9.446   7.494 -0.9119 -0.9421  0.5804
33620SOL     OW 4901   0.450   9.624   1.331  0.0529 -0.1786  0.2847
33620SOL    HW1 4902   0.502   9.702   1.310 -1.4906  0.5806 -0.9694
33620SOL    HW2 4903   0.404   9.604   1.249 -2.2096 -0.3082  1.5188
33621SOL     OW 4904   6.679   8.166   0.308 -0.6919  0.2998  0.5141
33621SOL    HW1 4905   6.738   8.171   0.232  0.7207  1.8501  1.6379
33621SOL    HW2 4906   6.718   8.098   0.363 -0.5106  0.6267  0.7943
33622SOL     OW 4907   8.953   1.673   9.337  0.1377 -0.2417  0.1221
33622SOL    HW1 4908   8.905   1.597   9.306 -0.2344  0.3210 -0.7414
33622SOL    HW2 4909   9.045   1.647   9.330 -0.0035 -0.8513  0.4988
33623SOL     OW 4910   8.060   7.166   6.163 -0.1678  0.0939 -0.3778
33623SOL    HW1 4911   7.986   7.226   6.178 -0.4431  0.2127 -2.0040
33623SOL    HW2 4912   8.132   7.205   6.212 -0.0901  2.3039 -2.0607
33624SOL     OW 4913   9.365   6.383   1.990 -0.1418  0.0497  0.7091
33624SOL    HW1 4914   9.455   6.416   1.989  0.6139 -1.8576  1.3053
33624SOL    HW2 4915   9.313   6.456   2.022  1.4609  0.6540  2.0719
33625SOL     OW 4916   9.752   5.311   3.754  0.2584  0.1595  0.2330
33625SOL    HW1 4917   9.707   5.301   3.670  3.6170 -0.4677 -1.6708
33625SOL    HW2 4918   9.738   5.402   3.778 -1.7198  0.0609 -0.3954
33626SOL     OW 4919   6.773   8.910   3.770  0.3388 -0.3962  0.2930
33626SOL    HW1 4920   6.692   8.931   3.723 -0.1141  0.3200  1.3645
33626SOL    HW2 4921   6.828   8.987   3.758  0.3372 -0.3336  0.6691
33627SOL     OW 4922   5.177   4.628   5.859  0.5167 -0.6840 -0.3520
33627SOL    HW1 4923   5.137   4.714   5.870 -0.0134 -1.1177  1.6042
33627SOL    HW2 4924   5.103   4.569   5.844  0.9121 -0.7747 -2.1569
33628SOL     OW 4925   1.672   8.905   2.614  0.3959 -0.1083  0.2565
33628SOL    HW1 4926   1.683   8.871   2.525  1.0268  0.2703  0.1818
33628SOL    HW2 4927   1.687   8.999   2.606 -1.4417  0.2292  0.4455
33629SOL     OW 4928   2.968   5.202   1.201 -0.4742 -0.2807  0.0576
33629SOL    HW1 4929   2.926   5.183   1.284 -2.7246  0.3549 -0.8667
33629SOL    HW2 4930   2.910   5.265   1.158  1.9483  1.4574 -0.9137
33630SOL     OW 4931   3.948   8.795   2.751 -0.5685 -0.0660 -0.0370
33630SOL    HW1 4932   4.020   8.801   2.687 -0.1733 -0.4842  0.3657
33630SOL    HW2 4933   3.963   8.868   2.811 -0.6602  0.0327 -0.1334
33631SOL     OW 4934   2.157   2.776   1.638  0.5227 -0.2607 -0.0777
33631SOL    HW1 4935   2.237   2.780   1.690 -0.1604 -1.9088  1.1681
33631SOL    HW2 4936   2.187   2.778   1.548  2.1451 -2.6166  0.3198
33632SOL     OW 4937   3.487   2.897   0.320 -0.3179 -0.3890  0.3878
33632SOL    HW1 4938   3.512   2.860   0.405 -0.9947 -1.7534  0.0206
33632SOL    HW2 4939   3.402   2.938   0.336 -0.0703  0.0737  0.5442
33633SOL     OW 4940   0.376  10.065   4.697  0.5926 -0.1918  0.5281
33633SOL    HW1 4941   0.286  10.066   4.727  0.5504 -0.7999  0.4179
33633SOL    HW2 4942   0.420  10.129   4.753  0.1017  0.0989  0.5882
33634SOL     OW 4943   9.794   4.631   8.835  0.9701  0.2528 -0.2709
33634SOL    HW1 4944   9.757   4.666   8.754 -0.4692  0.6188  0.5097
33634SOL    HW2 4945   9.854   4.562   8.806 -0.0776 -0.1415 -1.6145
33635SOL     OW 4946   1.561   4.366   1.075 -0.2634 -0.1614 -0.4863
33635SOL    HW1 4947   1.518   4.408   1.000 -0.8115 -1.5187 -0.9508
33635SOL    HW2 4948   1.646   4.337   1.042 -0.3944 -0.5208 -0.5087
33636SOL     OW 4949   1.552   5.139   0.592 -0.0156 -0.2824  0.2658
33636SOL    HW1 4950   1.457   5.145   0.605  0.1364  0.4526  1.0980
33636SOL    HW2 4951   1.578   5.227   0.566  0.6422 -0.1094  1.4732
33637SOL     OW 4952   0.973   2.278   2.223 -0.0041 -0.0047 -0.4556
33637SOL    HW1 4953   1.016   2.298   2.307 -0.9607  0.2804 -0.0237
33637SOL    HW2 4954   0.881   2.302   2.237 -0.1919 -0.0594 -1.5576
33638SOL     OW 4955   8.666   6.331   4.494  0.0812 -0.2514  0.0301
33638SOL    HW1 4956   8.679   6.270   4.421  0.1782 -1.0586  0.7085
33638SOL    HW2 4957   8.746   6.384   4.494  1.4622 -2.1861  1.3377
33639SOL     OW 4958   9.912   8.556   1.410 -0.1329  0.4815 -0.2536
33639SOL    HW1 4959   9.847   8.618   1.446  0.0954  0.0171  1.0235
33639SOL    HW2 4960   9.862   8.503   1.348 -0.2409  2.2041 -1.7348
33640SOL     OW 4961  10.221   9.071   6.555  0.8326 -0.2492  0.1075
33640SOL    HW1 4962  10.198   9.163   6.567  1.3081 -0.1794  0.5298
33640SOL    HW2 4963  10.242   9.040   6.643  1.7047 -0.4676 -0.1635
33641SOL     OW 4964   4.231   2.560   8.798  0.4258 -0.0933 -0.3426
33641SOL    HW1 4965   4.191   2.474   8.810 -0.2442  0.1780 -0.6263
33641SOL    HW2 4966   4.208   2.609   8.877 -1.0880  0.5549 -1.1456
33642SOL     OW 4967   5.412   9.686   5.797  0.0776  0.6710  0.0540
33642SOL    HW1 4968   5.434   9.623   5.728  2.0903  2.5859 -1.1875
33642SOL    HW2 4969   5.350   9.746   5.756  0.3117  1.0943  0.3214
33643SOL     OW 4970   3.593   6.963   0.845  0.4062 -0.0113  0.3256
33643SOL    HW1 4971   3.658   7.012   0.795  1.7055 -1.6875  0.2724
33643SOL    HW2 4972   3.587   6.879   0.799  0.2730 -0.9015  1.9103
33644SOL     OW 4973  10.262   3.461   4.694  0.2784 -0.3877  0.3971
33644SOL    HW1 4974  10.205   3.536   4.709 -1.8444 -2.1406  1.8760
33644SOL    HW2 4975  10.264   3.415   4.778  2.3997 -1.4275 -0.1485
33645SOL     OW 4976   1.774   7.999   7.021 -0.2351  0.0412  0.3279
33645SOL    HW1 4977   1.798   7.923   7.074 -1.6670 -0.5302  0.1897
33645SOL    HW2 4978   1.779   7.969   6.931 -0.7376  0.1233  0.2691
33646SOL     OW 4979   2.619   2.154   8.285  0.2580 -0.4037  0.0192
33646SOL    HW1 4980   2.627   2.250   8.285  0.1251 -0.3627 -1.6102
33646SOL    HW2 4981   2.593   2.132   8.374 -2.3893  1.3203 -0.2108
33647SOL     OW 4982   8.432   0.914  10.223  0.1366  0.4205  0.1463
33647SOL    HW1 4983   8.446   0.942  10.132 -0.0810 -1.8071 -0.6344
33647SOL    HW2 4984   8.339   0.892  10.228 -0.0403  1.3319  1.1721
33648SOL     OW 4985   1.178  10.258   3.970 -0.3359 -0.2255 -0.2331
33648SOL    HW1 4986   1.187  10.163   3.959 -2.4226 -0.8087  2.0988
33648SOL    HW2 4987   1.164  10.270   4.064  2.2218  2.6817 -0.0806
33649SOL     OW 4988   6.858   4.578   5.877 -0.4933  0.0669  0.4536
33649SOL    HW1 4989   6.812   4.502   5.840  1.2134 -1.4704  1.2866
33649SOL    HW2 4990   6.898   4.620   5.802  0.6265 -1.3933  0.1764
33650SOL     OW 4991   8.696   9.313   2.901  0.9106  0.0807  0.4727
33650SOL    HW1 4992   8.687   9.382   2.967 -3.9313 -1.1571  1.5676
33650SOL    HW2 4993   8.696   9.232   2.952  2.2529 -0.8446 -0.9292
33651SOL     OW 4994   4.601   4.839   2.932 -0.6055 -0.2189 -0.7349
33651SOL    HW1 4995   4.540   4.774   2.966 -0.5389 -0.4309 -1.0245
33651SOL    HW2 4996   4.545   4.912   2.904 -0.5779  0.5917  1.1830
33652SOL     OW 4997   2.931   2.068   3.482 -0.2075 -0.0715 -0.6108
33652SOL    HW1 4998   2.998   2.082   3.415  1.2632 -0.0613  0.7840
33652SOL    HW2 4999   2.976   2.019   3.551 -2.3964 -2.4643 -0.7491
33653SOL     OW 5000   1.188   7.498   9.542 -1.0886 -0.0673  0.1792
33653SOL    HW1 5001   1.204   7.406   9.523 -0.7044 -0.2637  1.3699
33653SOL    HW2 5002   1.274   7.539   9.537 -1.3534  0.3798 -1.0404
33654SOL     OW 5003   3.461   9.821   3.219  0.3352 -0.1726  0.6064
33654SOL    HW1 5004   3.368   9.832   3.199  0.9057  1.5345 -1.4816
33654SOL    HW2 5005   3.494   9.910   3.231  2.3398 -0.3966 -2.2407
33655SOL     OW 5006   1.518   8.536   1.264 -0.1753 -0.0977  0.0257
33655SOL    HW1 5007   1.596   8.482   1.257  0.8855  1.6124 -3.1463
33655SOL    HW2 5008   1.445   8.474   1.267  1.1531 -1.6758  0.6635
33656SOL     OW 5009   4.759   2.699   9.130  0.4731  0.2483 -0.2601
33656SOL    HW1 5010   4.843   2.681   9.089 -0.1174 -0.6795 -1.1088
33656SOL    HW2 5011   4.781   2.720   9.221  1.5560 -0.8781 -0.2289
33657SOL     OW 5012   0.321   5.223   0.590 -0.5884 -0.2920  0.7082
33657SOL    HW1 5013   0.356   5.299   0.544  0.6216 -0.5978  1.0773
33657SOL    HW2 5014   0.242   5.199   0.541 -1.1203  1.3055  0.7053
33658SOL     OW 5015   7.400   5.277   0.562  0.5016  0.3856  0.3159
33658SOL    HW1 5016   7.322   5.230   0.590 -1.7107  2.0488 -2.4954
33658SOL    HW2 5017   7.430   5.322   0.641 -0.7573 -1.0938  1.7049
33659SOL     OW 5018   3.552   8.858   2.063  0.5164 -0.1651  0.2801
33659SOL    HW1 5019   3.623   8.872   2.000  0.4909 -0.1970  0.2443
33659SOL    HW2 5020   3.505   8.942   2.065  0.0007 -0.4198 -0.3842
33660SOL     OW 5021   9.610   2.598   1.271 -0.2986 -0.1558  0.0034
33660SOL    HW1 5022   9.636   2.506   1.271  0.1189 -0.0438  0.5419
33660SOL    HW2 5023   9.630   2.630   1.183 -0.1502 -0.4966 -0.0846
33661SOL     OW 5024   1.890   7.951   8.566  0.2971 -0.0364  0.0193
33661SOL    HW1 5025   1.903   7.865   8.606  3.2491 -0.3260 -1.3193
33661SOL    HW2 5026   1.978   7.989   8.563 -0.7825  2.6050 -0.4132
33662SOL     OW 5027   3.175   6.003   0.632 -0.5875 -0.0441  0.1341
33662SOL    HW1 5028   3.208   6.028   0.719  0.1497  1.2474 -0.4870
33662SOL    HW2 5029   3.149   5.912   0.642  0.0169 -0.0905  1.5686
33663SOL     OW 5030   0.015   9.413   7.550 -0.4379  0.0306 -0.0112
33663SOL    HW1 5031  -0.063   9.381   7.505 -0.3598 -0.5924  0.2721
33663SOL    HW2 5032   0.049   9.335   7.596  0.6429  0.1716 -0.5518
33664SOL     OW 5033   7.583   9.536   0.195 -0.1975 -0.2773  0.3214
33664SOL    HW1 5034   7.627   9.580   0.267 -1.7985  2.4486 -0.2263
33664SOL    HW2 5035   7.633   9.454   0.183  2.0363  0.6480  2.3886
33665SOL     OW 5036   2.802   4.120   0.557 -0.3805  0.1243 -0.4391
33665SOL    HW1 5037   2.747   4.195   0.533 -0.2265  0.2565 -0.3839
33665SOL    HW2 5038   2.892   4.151   0.543 -0.3121 -0.0008 -0.2767
33666SOL     OW 5039   4.416   1.466   6.047  0.0935  0.2368  0.0164
33666SOL    HW1 5040   4.492   1.473   5.989 -1.4406 -0.2390 -2.1335
33666SOL    HW2 5041   4.396   1.557   6.070  0.3395  0.4871 -0.7263
33667SOL     OW 5042   7.685   1.308   6.152  0.2312  0.3049 -0.3093
33667SOL    HW1 5043   7.689   1.330   6.059 -0.4978  1.8160 -0.0190
33667SOL    HW2 5044   7.607   1.353   6.184  0.5706 -0.0361  1.0833
33668SOL     OW 5045   1.473   9.809   5.888 -0.1260  0.1584 -0.0595
33668SOL    HW1 5046   1.475   9.855   5.804 -1.6434 -0.4046 -0.4400
33668SOL    HW2 5047   1.509   9.722   5.868  0.5268  0.3731  0.1373
33669SOL     OW 5048   1.618   6.911   3.715  0.3450 -0.6622 -0.2658
33669SOL    HW1 5049   1.595   6.995   3.676 -0.6888 -0.8294 -0.0353
33669SOL    HW2 5050   1.618   6.927   3.809 -0.1577 -0.9934 -0.2091
33670SOL     OW 5051   0.625   2.520   0.898  0.0337 -0.0902  0.1516
33670SOL    HW1 5052   0.688   2.507   0.827 -0.4647 -0.5329 -0.2212
33670SOL    HW2 5053   0.665   2.479   0.974 -0.1137 -1.0330 -0.2616
33671SOL     OW 5054   3.256   0.770   3.495 -0.0709 -0.1216  0.0517
33671SOL    HW1 5055   3.278   0.763   3.402 -2.5615 -0.2886 -0.5892
33671SOL    HW2 5056   3.296   0.853   3.522  0.7417 -0.0886 -1.1376
33672SOL     OW 5057   9.410   9.213   6.732 -0.5328  0.1583  0.0885
33672SOL    HW1 5058   9.380   9.303   6.742  1.1402  0.7062  0.4332
33672SOL    HW2 5059   9.358   9.178   6.660 -2.5161  0.7817  1.1613
33673SOL     OW 5060   6.575   0.385   7.758  0.6229 -0.1822  0.0942
33673SOL    HW1 5061   6.608   0.298   7.734  0.0526  0.0769 -1.7645
33673SOL    HW2 5062   6.491   0.392   7.713  0.8986  1.5180 -0.2294
33674SOL     OW 5063   7.814   4.971   9.229  0.2856  0.4355 -0.4480
33674SOL    HW1 5064   7.831   4.908   9.159  2.2837 -2.0036  1.9961
33674SOL    HW2 5065   7.818   4.919   9.309 -0.1345  3.3685  1.6321
33675SOL     OW 5066   9.683   2.084   8.966  0.4504  0.2257 -0.0254
33675SOL    HW1 5067   9.735   2.005   8.950 -0.3262 -0.2893 -0.0140
33675SOL    HW2 5068   9.678   2.128   8.881 -0.0493 -0.3048 -0.2722
33676SOL     OW 5069   0.535   3.889   3.529  0.4814 -0.4130 -0.0474
33676SOL    HW1 5070   0.598   3.930   3.588  1.3084 -1.3142 -0.2783
33676SOL    HW2 5071   0.542   3.796   3.548  2.5814 -1.0366 -3.2201
33677SOL     OW 5072   3.473   7.023   6.929 -0.2850 -0.1166  1.1811
33677SOL    HW1 5073   3.423   6.986   7.001 -0.7771 -0.1948  0.8052
33677SOL    HW2 5074   3.458   6.963   6.856  0.1049  0.0293  0.9768
33678SOL     OW 5075   2.688   3.536   7.334 -0.2995 -0.2330 -0.1435
33678SOL    HW1 5076   2.732   3.621   7.332 -0.3898 -0.1750  0.1874
33678SOL    HW2 5077   2.604   3.551   7.290  0.1702 -0.4428 -1.1327
33679SOL     OW 5078   0.370   2.059   5.159  0.1366  0.0149  0.1445
33679SOL    HW1 5079   0.456   2.087   5.128  0.9941 -1.8870  0.6090
33679SOL    HW2 5080   0.379   2.059   5.255 -0.7815  0.9145  0.2426
33680SOL     OW 5081   6.674   1.844   5.081  0.2765  0.0897 -0.0952
33680SOL    HW1 5082   6.726   1.907   5.131 -1.3411  1.7081 -0.3588
33680SOL    HW2 5083   6.592   1.837   5.130 -0.9148  0.8641 -1.8921
33681SOL     OW 5084   7.047   7.243   1.481 -0.6257 -0.2706 -0.3653
33681SOL    HW1 5085   7.125   7.239   1.537 -0.4434  1.4914 -0.4210
33681SOL    HW2 5086   7.080   7.236   1.392 -0.2539  2.0681 -0.4953
33682SOL     OW 5087   4.574   5.410  10.061  0.0457  0.0095  0.1516
33682SOL    HW1 5088   4.574   5.361  10.143  0.3390  1.4836  1.0691
33682SOL    HW2 5089   4.645   5.473  10.070 -0.5688  0.8811 -0.8111
33683SOL     OW 5090   3.874   9.721   4.361 -0.5835  0.0677  0.2882
33683SOL    HW1 5091   3.823   9.655   4.314 -0.0795 -0.8684  0.9998
33683SOL    HW2 5092   3.902   9.676   4.441  0.8348  0.7405  0.1970
33684SOL     OW 5093   8.712   3.198   3.017  0.1260 -0.2536 -0.0882
33684SOL    HW1 5094   8.672   3.110   3.015 -0.8247  0.1639  0.2008
33684SOL    HW2 5095   8.805   3.182   3.000 -0.0838 -1.2927 -0.3393
33685SOL     OW 5096   2.955   2.302   1.750 -0.7283  0.1203  0.1373
33685SOL    HW1 5097   2.913   2.386   1.729  1.0948  0.6725 -1.5751
33685SOL    HW2 5098   3.014   2.286   1.677  0.8168 -1.4237  1.6461
33686SOL     OW 5099   1.894   8.372   1.891 -0.6796  0.0225 -0.0142
33686SOL    HW1 5100   1.817   8.420   1.920 -0.2923 -0.6411  2.2770
33686SOL    HW2 5101   1.898   8.388   1.796 -2.4490  1.7091  0.1383
33687SOL     OW 5102   9.701   9.056   5.295 -0.5243 -0.3195 -0.5078
33687SOL    HW1 5103   9.785   9.102   5.304  0.5140 -1.9544 -1.2059
33687SOL    HW2 5104   9.670   9.080   5.208 -1.5928  1.4764  0.3143
33688SOL     OW 5105   1.356   9.873   0.368 -0.2971 -0.0649  0.5725
33688SOL    HW1 5106   1.451   9.877   0.376 -0.0553 -2.1070 -0.5094
33688SOL    HW2 5107   1.329   9.815   0.439 -0.3729 -1.7132 -0.7286
33689SOL     OW 5108   7.476   7.142   1.906  0.0817  0.4715 -0.0664
33689SOL    HW1 5109   7.517   7.202   1.844  0.6184 -0.4324 -0.6027
33689SOL    HW2 5110   7.524   7.156   1.988  1.0445 -0.1078 -0.5155
33690SOL     OW 5111   0.221   8.889   8.651  0.0299  0.0388  0.5228
33690SOL    HW1 5112   0.275   8.854   8.722  1.5379 -0.2300 -0.7032
33690SOL    HW2 5113   0.153   8.822   8.638  1.2783 -1.1815  0.0093
33691SOL     OW 5114   5.739   9.164   2.612 -0.4985 -0.5446 -0.0468
33691SOL    HW1 5115   5.770   9.244   2.655  0.2559 -0.4249 -0.7927
33691SOL    HW2 5116   5.757   9.178   2.519 -0.2529 -1.6294 -0.1776
33692SOL     OW 5117   9.620   7.107   5.110 -0.4403 -0.0580  0.1196
33692SOL    HW1 5118   9.697   7.069   5.151  0.6556 -0.2657 -1.9857
33692SOL    HW2 5119   9.589   7.039   5.050 -0.7319  0.9487 -0.9014
33693SOL     OW 5120   4.141   3.286   0.952  0.6977 -0.4894 -0.4209
33693SOL    HW1 5121   4.211   3.275   0.888  0.3225 -1.6448 -0.6517
33693SOL    HW2 5122   4.160   3.370   0.994  2.2911 -0.8279 -0.4038
33694SOL     OW 5123   8.398   3.132   9.490  0.3489 -0.2311  0.2618
33694SOL    HW1 5124   8.420   3.160   9.579 -0.2285 -1.0069  0.6767
33694SOL    HW2 5125   8.359   3.209   9.449  0.4481  0.0870  0.7547
33695SOL     OW 5126   0.210   8.755   1.634  0.5160  0.0822  0.0737
33695SOL    HW1 5127   0.240   8.829   1.686  0.5185 -0.9813  1.6664
33695SOL    HW2 5128   0.289   8.724   1.590  0.6807  0.5181  0.0572
33696SOL     OW 5129   1.778   4.436   2.808  0.2773  0.5936 -0.0214
33696SOL    HW1 5130   1.791   4.417   2.715 -0.8841  1.6590 -0.4303
33696SOL    HW2 5131   1.721   4.366   2.839  2.3764 -1.0003  0.4611
33697SOL     OW 5132   6.409   5.341   6.092  0.0976  0.5373  0.0419
33697SOL    HW1 5133   6.411   5.373   6.002  0.7845  0.2102 -0.0705
33697SOL    HW2 5134   6.466   5.401   6.140 -1.1176  1.3656  0.5016
33698SOL     OW 5135   7.079   8.015   8.392  0.3895  0.2514  0.0426
33698SOL    HW1 5136   7.000   7.968   8.416  1.9181 -0.7694  3.8887
33698SOL    HW2 5137   7.127   7.955   8.336  0.1010 -0.7293  0.8239
33699SOL     OW 5138   4.958  10.050   1.467 -0.0043  0.2449  0.0667
33699SOL    HW1 5139   4.864  10.054   1.484 -0.0551 -0.0959 -0.1254
33699SOL    HW2 5140   4.998  10.078   1.550 -0.2469 -1.3978  0.7703
33700SOL     OW 5141   1.015   4.517   0.179  0.5570 -0.4239 -0.3488
33700SOL    HW1 5142   1.091   4.502   0.124  0.9689 -0.1303  0.1328
33700SOL    HW2 5143   0.967   4.587   0.136  0.1714 -1.1001 -1.0379
33701SOL     OW 5144  10.093   5.345   0.579  0.0505  0.1004 -0.8495
33701SOL    HW1 5145  10.102   5.437   0.555  1.8473 -0.1047 -1.1291
33701SOL    HW2 5146  10.121   5.341   0.670  0.5029 -0.2426 -1.0006
33702SOL     OW 5147   4.812   9.988   7.694  0.2082 -0.2583  0.3506
33702SOL    HW1 5148   4.879   9.926   7.724 -0.1122 -1.9799 -2.1034
33702SOL    HW2 5149   4.850  10.074   7.710  2.1734 -1.1463  0.8366
33703SOL     OW 5150   4.121   4.512   1.796  0.5623 -0.0089  0.4577
33703SOL    HW1 5151   4.177   4.589   1.782 -0.4588  0.6788  0.0184
33703SOL    HW2 5152   4.070   4.506   1.715 -0.3901 -0.2794  1.0734
33704SOL     OW 5153   2.421   9.666   7.265 -0.0631  0.6514 -0.2734
33704SOL    HW1 5154   2.415   9.596   7.330  0.4400 -0.1228 -1.0347
33704SOL    HW2 5155   2.505   9.651   7.221 -0.4387  1.0805 -1.1783
33705SOL     OW 5156   0.476   0.018   8.045 -0.3911 -0.3592  0.2179
33705SOL    HW1 5157   0.387   0.000   8.015 -0.1692 -1.8783  0.4014
33705SOL    HW2 5158   0.468   0.031   8.139 -0.3104 -1.3384  0.3639
33706SOL     OW 5159   4.297   7.469   1.366  0.1620  0.5213 -0.2001
33706SOL    HW1 5160   4.236   7.527   1.321  0.6824  0.9207 -0.3942
33706SOL    HW2 5161   4.380   7.516   1.366  0.8852 -0.6676 -1.3577
33707SOL     OW 5162   5.902   9.390   3.849  0.2208 -0.3402 -0.6734
33707SOL    HW1 5163   5.935   9.300   3.842  3.8386  0.7627  0.1366
33707SOL    HW2 5164   5.858   9.406   3.765  0.3968 -2.5160 -1.2383
33708SOL     OW 5165   2.310   0.438   8.501 -0.3092  0.0422  0.7758
33708SOL    HW1 5166   2.290   0.527   8.530  0.4318  0.4849 -0.0080
33708SOL    HW2 5167   2.286   0.383   8.575 -0.2656  0.9463  1.4838
33709SOL     OW 5168   1.590   2.514   4.811 -0.4738 -0.1707 -0.1543
33709SOL    HW1 5169   1.636   2.430   4.812 -1.8243 -0.9370  0.1821
33709SOL    HW2 5170   1.499   2.492   4.791 -0.3461  1.5197 -3.1567
33710SOL     OW 5171   6.693   2.807   7.939 -0.3469 -0.0589  0.2214
33710SOL    HW1 5172   6.778   2.829   7.901 -0.2996  1.8840  1.3103
33710SOL    HW2 5173   6.631   2.859   7.889 -0.5686  0.5707  1.1327
33711SOL     OW 5174   8.902   5.425   0.789  0.2847  0.0031 -0.1924
33711SOL    HW1 5175   8.818   5.460   0.757 -0.0415 -0.0449  0.5790
33711SOL    HW2 5176   8.881   5.336   0.818  1.2737 -1.2133 -2.9012
33712SOL     OW 5177   8.996   6.997   1.804  0.6271 -0.2208  0.2775
33712SOL    HW1 5178   9.039   6.953   1.878 -1.0090  0.0273  1.4369
33712SOL    HW2 5179   8.986   7.088   1.834  0.0978 -0.0755 -0.3343
33713SOL     OW 5180   2.702   6.363   5.070 -0.1508  0.2485  0.2916
33713SOL    HW1 5181   2.640   6.307   5.117 -0.1364 -0.0796 -0.0712
33713SOL    HW2 5182   2.723   6.314   4.990 -0.2810  0.8560 -0.1255
33714SOL     OW 5183   6.562   4.107   8.945 -0.0010 -0.0704  0.3954
33714SOL    HW1 5184   6.608   4.054   8.880  0.6341 -0.4929  1.1615
33714SOL    HW2 5185   6.632   4.143   9.000 -0.4809  0.8281  0.4409
33715SOL     OW 5186   5.953  10.036   6.769  0.4019 -0.5417 -0.0653
33715SOL    HW1 5187   5.925  10.106   6.710  1.7215 -1.2162 -1.5684
33715SOL    HW2 5188   5.911  10.057   6.853 -0.4435  1.1976 -0.8690
33716SOL     OW 5189   4.915   3.234   6.641 -0.1671 -0.7998 -0.2400
33716SOL    HW1 5190   4.948   3.283   6.566  0.8828  0.8661  1.2430
33716SOL    HW2 5191   4.988   3.178   6.667 -1.0981 -2.6778 -1.4375
33717SOL     OW 5192   7.695   8.840   5.240  0.0166  0.8795  0.2937
33717SOL    HW1 5193   7.721   8.911   5.299 -0.3700  0.2296  1.2608
33717SOL    HW2 5194   7.600   8.853   5.229 -0.5632 -0.9428  2.5213
33718SOL     OW 5195   3.721   7.154   7.925 -0.1058 -0.4986 -0.0236
33718SOL    HW1 5196   3.653   7.175   7.860 -2.4158  0.9706  2.6312
33718SOL    HW2 5197   3.679   7.091   7.984  0.3942  1.1582  2.2464
33719SOL     OW 5198   2.425   2.982   2.879  0.6418 -0.3353  0.1163
33719SOL    HW1 5199   2.391   2.905   2.833 -0.1842 -0.1782  0.4411
33719SOL    HW2 5200   2.491   2.947   2.939  2.7141 -0.3987 -2.0690
33720SOL     OW 5201   7.653   6.781   0.213 -0.4446 -0.4216 -0.4961
33720SOL    HW1 5202   7.723   6.843   0.193 -1.5250  1.7721  2.0669
33720SOL    HW2 5203   7.597   6.783   0.135 -0.7509  2.3146 -0.3019
33721SOL     OW 5204   8.616   6.865   9.508 -0.1705 -0.2954  0.6046
33721SOL    HW1 5205   8.641   6.816   9.429 -2.0232 -1.6206  0.7750
33721SOL    HW2 5206   8.548   6.925   9.478  1.5307  1.7395  0.5616
33722SOL     OW 5207   8.909   5.096   6.137 -0.7294 -0.6876 -0.2541
33722SOL    HW1 5208   8.979   5.032   6.154  1.6400  1.2044 -2.1167
33722SOL    HW2 5209   8.892   5.137   6.221  1.9061  0.1329 -0.0309
33723SOL     OW 5210   5.722   1.484   0.344 -1.2862 -0.2336  0.1560
33723SOL    HW1 5211   5.665   1.552   0.308 -1.8686 -1.2553 -0.9222
33723SOL    HW2 5212   5.665   1.408   0.356 -0.8009 -0.3756  1.9779
33724SOL     OW 5213   8.952   9.667   5.394  0.2410  0.0167 -0.0495
33724SOL    HW1 5214   8.968   9.671   5.488  1.4016  0.6086 -0.2565
33724SOL    HW2 5215   8.919   9.754   5.371  0.6127  0.0977 -0.2937
33725SOL     OW 5216   9.099   5.574   4.872 -0.0243 -0.4264  0.0043
33725SOL    HW1 5217   9.118   5.497   4.818  0.2567 -1.2536  1.2444
33725SOL    HW2 5218   9.017   5.553   4.917 -0.4043  0.3700 -0.2954
33726SOL     OW 5219   0.008   6.727   4.697 -0.8543 -0.4054  0.2803
33726SOL    HW1 5220  -0.088   6.724   4.689 -0.8513 -2.1004  0.5732
33726SOL    HW2 5221   0.038   6.651   4.647  0.3584  0.1533  0.1406
33727SOL     OW 5222   9.236   9.443   0.996  0.2888 -0.2104  0.0512
33727SOL    HW1 5223   9.207   9.400   0.916  2.1797 -0.4184 -0.5672
33727SOL    HW2 5224   9.327   9.416   1.007  0.5608  1.0951  1.3933
33728SOL     OW 5225   1.633   1.073   5.137 -0.2776  0.1036 -0.0057
33728SOL    HW1 5226   1.649   0.982   5.161  2.2616  0.4471 -0.1074
33728SOL    HW2 5227   1.543   1.074   5.104 -1.2116 -1.8574  2.1940
33729SOL     OW 5228   7.830   7.879   3.639 -0.3890  0.7669 -0.0304
33729SOL    HW1 5229   7.771   7.825   3.585 -0.8470  0.5468  0.6669
33729SOL    HW2 5230   7.894   7.913   3.577  0.0677 -0.7845 -0.4735
33730SOL     OW 5231   3.731   4.679   6.182 -0.4215  0.2658  0.2220
33730SOL    HW1 5232   3.645   4.714   6.156 -1.6870 -2.5021  0.2739
33730SOL    HW2 5233   3.729   4.680   6.278 -0.3838  0.2207  0.2230
33731SOL     OW 5234   0.674   9.684   6.101  0.2224  0.4661 -0.2169
33731SOL    HW1 5235   0.747   9.719   6.152  2.0063 -0.7540 -1.8197
33731SOL    HW2 5236   0.657   9.598   6.140 -2.4737  1.8339  2.0687
33732SOL     OW 5237   6.139   1.967   3.099  0.6165  0.1734 -0.2377
33732SOL    HW1 5238   6.058   2.004   3.136  0.4038 -0.6705  0.1607
33732SOL    HW2 5239   6.109   1.898   3.040  1.0476 -1.5513  1.4472
33733SOL     OW 5240   7.557   4.992   5.004  0.1228  0.3591  0.2896
33733SOL    HW1 5241   7.482   5.024   5.054 -0.8538  1.2385 -1.6078
33733SOL    HW2 5242   7.590   4.918   5.054 -2.8400 -0.9176  0.5503
33734SOL     OW 5243   8.907   9.809   5.930  0.0449  0.9290  0.0740
33734SOL    HW1 5244   8.829   9.842   5.975 -1.9089 -1.7060 -1.1161
33734SOL    HW2 5245   8.944   9.885   5.887 -0.1363  2.8310  3.0188
33735SOL     OW 5246   0.325   8.992   1.726  0.0025 -0.5079  0.6133
33735SOL    HW1 5247   0.288   9.050   1.660 -1.3292 -1.1866  0.7290
33735SOL    HW2 5248   0.357   9.050   1.795 -1.2187  0.0911  0.6892
33736SOL     OW 5249   1.398   5.220   7.537 -0.0063 -0.4857  0.3365
33736SOL    HW1 5250   1.400   5.218   7.633  1.6148 -0.6054  0.3338
33736SOL    HW2 5251   1.408   5.312   7.515 -0.1611 -0.4829  0.2768
33737SOL     OW 5252   4.035   7.371   0.577  0.2568  0.7327  0.3544
33737SOL    HW1 5253   4.072   7.448   0.533  0.2487  1.4913  1.6357
33737SOL    HW2 5254   4.042   7.391   0.670 -0.9035 -0.2906  0.6845
33738SOL     OW 5255   9.289   8.522   2.072  0.4061 -0.3796  0.4671
33738SOL    HW1 5256   9.361   8.485   2.122  0.0374 -2.2140 -0.2787
33738SOL    HW2 5257   9.210   8.489   2.115 -0.0179  1.0579  0.8663
33739SOL     OW 5258   8.665   1.667   9.085  0.2218  0.3753 -0.1431
33739SOL    HW1 5259   8.628   1.638   9.168 -0.5395 -1.3790 -1.0607
33739SOL    HW2 5260   8.593   1.658   9.022  1.1609  0.4035 -1.2496
33740SOL     OW 5261   3.169   1.561   7.042 -0.0392  0.1684 -0.2599
33740SOL    HW1 5262   3.218   1.548   6.960 -0.9244 -1.5911 -0.5440
33740SOL    HW2 5263   3.136   1.651   7.035 -1.7693 -0.5653 -2.8085
33741SOL     OW 5264   5.836   1.499   1.752  0.6526 -0.1506 -0.7708
33741SOL    HW1 5265   5.927   1.470   1.745  0.3789 -2.2004  2.4241
33741SOL    HW2 5266   5.784   1.426   1.720  0.0894 -0.2124  0.2442
33742SOL     OW 5267   4.026   1.522   9.689  0.2274  0.1751  0.4518
33742SOL    HW1 5268   4.052   1.459   9.756 -3.0691 -1.1050  0.7009
33742SOL    HW2 5269   3.979   1.590   9.737 -1.2663 -0.2201 -0.3916
33743SOL     OW 5270   5.197   6.662   6.788 -0.0282 -0.1060 -0.8627
33743SOL    HW1 5271   5.201   6.680   6.694 -1.2479  1.1918 -0.7089
33743SOL    HW2 5272   5.170   6.571   6.795 -1.1639  0.1384 -1.8090
33744SOL     OW 5273   4.375   3.786   3.640  0.0268  0.3235  0.3373
33744SOL    HW1 5274   4.309   3.855   3.636  0.3929  0.6338 -0.9547
33744SOL    HW2 5275   4.435   3.807   3.569  2.4493  0.9640  2.4441
33745SOL     OW 5276   1.901   1.964   9.015  0.2356  0.0670  0.1689
33745SOL    HW1 5277   1.873   2.051   9.046  0.4640  0.8082 -1.6100
33745SOL    HW2 5278   1.925   1.917   9.095  0.4594  1.7685  1.1529
33746SOL     OW 5279   9.257   9.469   0.469  0.1979  0.0103 -0.3954
33746SOL    HW1 5280   9.338   9.420   0.487 -0.3093 -0.8789 -0.4776
33746SOL    HW2 5281   9.277   9.518   0.389  0.1721 -1.4128 -1.3215
33747SOL     OW 5282   3.124   3.973   8.199  0.2382  0.5355 -0.6987
33747SOL    HW1 5283   3.120   3.878   8.208 -0.6199  0.6883  0.6983
33747SOL    HW2 5284   3.035   4.003   8.216  0.8822  1.7319  0.8015
33748SOL     OW 5285   3.600   0.932   4.704  0.5932  0.1048  0.2827
33748SOL    HW1 5286   3.617   0.886   4.622  0.0634 -0.8503  0.6890
33748SOL    HW2 5287   3.543   1.005   4.679 -1.5481 -1.5429  0.0828
33749SOL     OW 5288   4.024   6.529   3.895 -0.6539  0.0723 -0.0468
33749SOL    HW1 5289   4.120   6.536   3.898 -0.6204 -0.6457  2.2926
33749SOL    HW2 5290   4.007   6.468   3.823  0.6315  0.1414 -0.4369
33750SOL     OW 5291   5.383   6.010   8.436 -0.2915 -0.1075  0.0984
33750SOL    HW1 5292   5.407   5.940   8.374 -0.3372  0.1602 -0.2214
33750SOL    HW2 5293   5.293   6.033   8.412  0.0546  0.7281 -0.4273
33751SOL     OW 5294   7.948   6.376   2.119  0.1717 -0.0614 -0.4459
33751SOL    HW1 5295   8.010   6.305   2.102  1.1985  0.8526 -0.6877
33751SOL    HW2 5296   7.946   6.425   2.036  1.6590  1.7843  0.5241
33752SOL     OW 5297   8.084   6.965   9.600  0.2515 -0.1662  0.4449
33752SOL    HW1 5298   8.020   6.997   9.537  0.1989  0.1404  0.6491
33752SOL    HW2 5299   8.164   7.014   9.580  0.4369 -0.5835  0.1586
33753SOL     OW 5300   9.680   7.274   5.702 -0.2028  0.0562 -0.2416
33753SOL    HW1 5301   9.759   7.316   5.737 -0.7069  0.2815  0.6314
33753SOL    HW2 5302   9.671   7.193   5.752 -0.5715  0.0705 -0.2818
33754SOL     OW 5303   9.218   3.351   4.110  0.1421 -0.4185  0.3019
33754SOL    HW1 5304   9.135   3.309   4.087 -0.3837  1.2691 -1.1531
33754SOL    HW2 5305   9.195   3.443   4.126  1.7326  0.1246 -0.2741
33755SOL     OW 5306   9.508   2.941   2.720  0.3555 -0.5567 -0.4666
33755SOL    HW1 5307   9.426   2.985   2.695 -0.4014 -0.7750  1.4474
33755SOL    HW2 5308   9.547   2.999   2.786  0.9263 -1.2505 -0.1826
33756SOL     OW 5309   1.124   5.762   8.339  0.2672  0.0244 -0.4848
33756SOL    HW1 5310   1.075   5.775   8.257 -1.0396  0.6438  0.3481
33756SOL    HW2 5311   1.060   5.780   8.408  1.6696  0.7802  0.6779
33757SOL     OW 5312   7.307   5.231   9.502  0.0640  0.3126 -0.1788
33757SOL    HW1 5313   7.262   5.254   9.583  0.1057 -0.1103 -0.0354
33757SOL    HW2 5314   7.241   5.240   9.434  0.2825  1.6609 -0.2429
33758SOL     OW 5315   0.214   8.618   6.150  0.1285  0.7249 -0.4313
33758SOL    HW1 5316   0.199   8.645   6.059  0.5401  0.3543 -0.6130
33758SOL    HW2 5317   0.126   8.617   6.189 -0.1533  0.0707 -1.0567
33759SOL     OW 5318   3.835   6.971   2.057 -0.2644  0.2646 -0.6771
33759SOL    HW1 5319   3.813   6.907   1.989 -1.0132  0.0121 -0.1994
33759SOL    HW2 5320   3.926   6.951   2.079 -0.3397 -0.3277 -0.8726
33760SOL     OW 5321   8.525  10.029   2.345 -0.7775 -0.6402 -0.5110
33760SOL    HW1 5322   8.566  10.037   2.259  0.4462 -0.6068  0.0602
33760SOL    HW2 5323   8.598  10.026   2.407 -1.6329 -0.7716  0.5265
33761SOL     OW 5324   0.786   5.539   7.725 -0.1385 -0.1407 -0.4168
33761SOL    HW1 5325   0.701   5.566   7.761 -0.3559 -1.2034 -0.1021
33761SOL    HW2 5326   0.844   5.613   7.743 -0.7599  0.1932  0.2692
33762SOL     OW 5327   2.602   5.848   5.000  0.9631 -0.0846  0.3119
33762SOL    HW1 5328   2.519   5.817   4.962  1.1462  1.0799 -1.1665
33762SOL    HW2 5329   2.662   5.851   4.925  1.6597  1.3274  0.8957
33763SOL     OW 5330   3.239   4.890   1.836  0.2509  0.2560  0.7111
33763SOL    HW1 5331   3.213   4.956   1.900  1.3445  0.0218  1.4337
33763SOL    HW2 5332   3.230   4.933   1.751 -0.4237  0.8505  1.0831
33764SOL     OW 5333   4.016   7.278   7.651 -1.2187  0.0589  0.2032
33764SOL    HW1 5334   4.000   7.368   7.680 -0.4521  0.4594 -0.5822
33764SOL    HW2 5335   4.033   7.286   7.557  0.6266 -0.6776  0.4371
33765SOL     OW 5336   9.720   9.281   8.425 -0.5715 -0.4139  0.0260
33765SOL    HW1 5337   9.648   9.222   8.448 -1.9019  1.9004  2.3323
33765SOL    HW2 5338   9.771   9.289   8.506 -0.2146  1.2737 -0.3335
33766SOL     OW 5339   2.712   2.710   4.655 -0.0305  0.1558 -0.3093
33766SOL    HW1 5340   2.620   2.691   4.635 -0.5251  0.1011  1.7690
33766SOL    HW2 5341   2.747   2.746   4.573 -1.6527 -0.6183 -1.4189
33767SOL     OW 5342   1.030   9.836   3.310  0.5852  0.4511  0.1725
33767SOL    HW1 5343   1.056   9.768   3.248 -0.3238  0.6975 -0.5028
33767SOL    HW2 5344   1.086   9.911   3.290  1.0103  0.1812  0.3557
33768SOL     OW 5345   9.570   8.829   3.990  0.2519  0.3131 -0.4560
33768SOL    HW1 5346   9.613   8.750   4.023 -0.2666  0.5828  0.9195
33768SOL    HW2 5347   9.535   8.872   4.068  1.1708  2.3184 -1.0776
33769SOL     OW 5348   9.078   7.635   6.709 -0.1341  0.1242  0.1371
33769SOL    HW1 5349   9.014   7.661   6.643 -0.4554 -0.2782  0.2807
33769SOL    HW2 5350   9.031   7.572   6.764  0.0817  0.5577  0.8361
33770SOL     OW 5351   7.904   9.267   8.063 -0.0772  0.1711  0.7662
33770SOL    HW1 5352   7.886   9.221   8.145 -1.7333  1.6701  1.3075
33770SOL    HW2 5353   7.852   9.220   7.998  1.8354 -1.5064  0.3238
33771SOL     OW 5354   0.963   5.261   5.729  0.2399  0.2622 -0.3546
33771SOL    HW1 5355   0.929   5.183   5.773 -0.0717 -0.4471 -1.7969
33771SOL    HW2 5356   1.036   5.289   5.784 -1.0657  0.3317  1.4387
33772SOL     OW 5357   7.110   8.961   4.343 -0.1531 -0.0509 -0.2211
33772SOL    HW1 5358   7.133   8.877   4.304  2.0500  0.3463  0.0979
33772SOL    HW2 5359   7.078   9.014   4.270  0.9662 -0.3173 -0.9261
33773SOL     OW 5360   8.320   8.267   2.069 -0.5224 -0.4922  0.1936
33773SOL    HW1 5361   8.250   8.225   2.118 -2.1581 -1.0182 -2.3726
33773SOL    HW2 5362   8.380   8.196   2.048 -0.7633 -0.6210 -0.0662
33774SOL     OW 5363   7.020   7.323   8.354  0.5190  0.6564  0.3436
33774SOL    HW1 5364   6.934   7.327   8.314  0.9503  0.6235 -0.6087
33774SOL    HW2 5365   7.075   7.279   8.290  0.8166 -1.1113  1.7360
33775SOL     OW 5366   0.567   2.291   0.343 -0.4559 -0.0193  0.1882
33775SOL    HW1 5367   0.613   2.216   0.380  0.8785  0.7059  0.0395
33775SOL    HW2 5368   0.578   2.280   0.248  0.3247  0.7102  0.1879
33776SOL     OW 5369   9.348   9.969   4.470 -0.6281 -0.6832 -0.0840
33776SOL    HW1 5370   9.334  10.011   4.385  0.2050  1.0592  0.5812
33776SOL    HW2 5371   9.412   9.900   4.452  1.8038  1.4798 -0.5068
33777SOL     OW 5372   2.252   9.165   4.821 -0.0793  0.4972 -0.2989
33777SOL    HW1 5373   2.186   9.221   4.860  0.3571  0.5736  0.3498
33777SOL    HW2 5374   2.334   9.213   4.832  0.5095 -0.7920  1.4377
33778SOL     OW 5375   9.379   2.415   5.513  0.8778 -0.0608 -0.5489
33778SOL    HW1 5376   9.373   2.324   5.544 -2.1264  0.7389  1.5922
33778SOL    HW2 5377   9.315   2.420   5.442  0.7444  0.4568 -0.3955
33779SOL     OW 5378   4.623   5.020   6.242 -0.2435  0.0038  0.2660
33779SOL    HW1 5379   4.595   5.077   6.314  0.0890  0.8306 -0.2546
33779SOL    HW2 5380   4.670   4.948   6.286 -0.0141  0.5127  0.8713
33780SOL     OW 5381   6.910   1.371   6.989  0.3735  0.6694 -0.0247
33780SOL    HW1 5382   6.921   1.398   6.898 -1.1647  1.9668  0.1365
33780SOL    HW2 5383   6.941   1.280   6.990  1.5792  1.0076 -1.5476
33781SOL     OW 5384   3.354   6.888   0.482  0.1084  0.1739  0.3448
33781SOL    HW1 5385   3.334   6.908   0.391  0.6207  1.5951  0.5207
33781SOL    HW2 5386   3.285   6.828   0.509 -0.2268 -0.0297 -0.8817
33782SOL     OW 5387   0.941   4.410   7.443 -0.2683  0.1680 -0.1607
33782SOL    HW1 5388   0.919   4.320   7.468 -0.0933  0.4962  1.2326
33782SOL    HW2 5389   0.926   4.462   7.522  0.4444  1.2354 -0.6969
33783SOL     OW 5390   4.495   1.112   6.913  0.4295  0.1306  0.1364
33783SOL    HW1 5391   4.490   1.051   6.839  1.8912 -1.0881  0.9973
33783SOL    HW2 5392   4.523   1.058   6.987 -2.1159  1.0651  1.9212
33784SOL     OW 5393   3.680   5.335   5.515 -0.1342  0.3990  0.2591
33784SOL    HW1 5394   3.654   5.427   5.513  0.1653  0.4898 -1.9718
33784SOL    HW2 5395   3.739   5.325   5.440  1.8273 -1.0715  1.9068
33785SOL     OW 5396   2.099   1.250   9.502  0.0283  0.3144 -0.3485
33785SOL    HW1 5397   2.064   1.163   9.483 -0.7580  0.8362 -1.3393
33785SOL    HW2 5398   2.085   1.300   9.422 -1.3702  1.9481  0.8438
33786SOL     OW 5399   7.760   3.580   0.338  0.2594 -0.4870 -0.3023
33786SOL    HW1 5400   7.705   3.655   0.312 -0.6300 -0.4339  1.5565
33786SOL    HW2 5401   7.710   3.537   0.407  1.8240 -1.4596  0.2734
33787SOL     OW 5402   2.234   8.317   6.632 -0.3788 -0.6366 -0.2344
33787SOL    HW1 5403   2.213   8.343   6.722 -0.5234 -1.3978 -0.0397
33787SOL    HW2 5404   2.321   8.354   6.617 -1.3574  1.6277 -0.6774
33788SOL     OW 5405   2.305  10.164   8.041  0.2590 -0.1882  0.0866
33788SOL    HW1 5406   2.374  10.199   7.985  0.4710  0.2941  0.6476
33788SOL    HW2 5407   2.241  10.128   7.979 -0.1584  1.5290 -0.5570
33789SOL     OW 5408   2.281   7.584   8.333  0.0291 -0.4944 -0.8189
33789SOL    HW1 5409   2.320   7.667   8.305  2.1254 -1.0131  0.3324
33789SOL    HW2 5410   2.355   7.524   8.340 -0.9786 -1.6058  1.3131
33790SOL     OW 5411   8.295   8.345   8.701  0.5351 -0.0553  0.1385
33790SOL    HW1 5412   8.323   8.349   8.792  0.4326  0.7639  0.1449
33790SOL    HW2 5413   8.360   8.397   8.654  0.8031 -0.7956 -0.3165
33791SOL     OW 5414   5.909   6.868   2.285  0.3520 -0.3316  0.1571
33791SOL    HW1 5415   5.993   6.889   2.324  0.2586 -1.0487  0.7617
33791SOL    HW2 5416   5.877   6.951   2.249  0.3985  0.3770  1.6956
33792SOL     OW 5417   4.769   8.018   2.198 -0.5182 -0.1322  0.4527
33792SOL    HW1 5418   4.805   8.072   2.128 -1.2655 -1.5455 -1.1099
33792SOL    HW2 5419   4.726   8.080   2.257 -1.1443  1.0223 -1.1273
33793SOL     OW 5420   7.610   7.838   5.126  0.0504  0.1450 -0.6801
33793SOL    HW1 5421   7.590   7.858   5.034 -1.0807 -1.5891 -0.8578
33793SOL    HW2 5422   7.705   7.827   5.128  0.1439  0.6750 -1.5280
33794SOL     OW 5423   3.473   7.246   6.118  0.0637  0.1924 -0.0209
33794SOL    HW1 5424   3.460   7.280   6.206 -0.3400  0.0964 -0.0417
33794SOL    HW2 5425   3.463   7.151   6.127  0.7805  0.1033 -0.0366
33795SOL     OW 5426   0.302   7.975   4.144 -0.5134  0.4861  0.4673
33795SOL    HW1 5427   0.251   8.015   4.215 -0.1580  1.1464  0.3601
33795SOL    HW2 5428   0.264   7.887   4.134 -0.4026  0.2857  1.6401
33796SOL     OW 5429   6.906   9.304   0.870 -0.1851  0.1571 -0.0093
33796SOL    HW1 5430   6.983   9.248   0.876 -0.1988 -0.0691 -1.6103
33796SOL    HW2 5431   6.889   9.331   0.960 -0.0219 -2.1892  0.7795
33797SOL     OW 5432   7.916   7.514   6.210 -0.1645  0.2578 -0.1971
33797SOL    HW1 5433   7.846   7.572   6.238  0.0332  1.2013 -1.5224
33797SOL    HW2 5434   7.996   7.551   6.249 -0.4541 -1.5040  2.3215
33798SOL     OW 5435   0.818   5.272   7.118  0.4180  0.1378 -0.1943
33798SOL    HW1 5436   0.885   5.295   7.054  0.2028  1.0042 -0.1256
33798SOL    HW2 5437   0.861   5.212   7.178  0.7833 -0.2411 -0.8308
33799SOL     OW 5438   2.107   9.714   2.995  0.6551 -0.5228 -0.1202
33799SOL    HW1 5439   2.014   9.722   2.974  0.2509 -0.9867  1.4224
33799SOL    HW2 5440   2.122   9.776   3.066  1.0930 -1.7799  0.9185
33800SOL     OW 5441   4.795   7.501   9.768  0.4634 -0.5815 -0.1388
33800SOL    HW1 5442   4.702   7.524   9.769  0.6974  0.4666 -0.6296
33800SOL    HW2 5443   4.812   7.477   9.676  1.1406  1.3623 -0.5652
33801SOL     OW 5444   3.786   4.394   0.932 -0.0078  0.2053 -0.1798
33801SOL    HW1 5445   3.808   4.487   0.938 -1.2248  0.4949  0.1924
33801SOL    HW2 5446   3.865   4.349   0.960  0.1579  1.1786  1.0305
33802SOL     OW 5447   4.434   6.113   9.651  0.0122  0.0101  0.1955
33802SOL    HW1 5448   4.501   6.090   9.716 -0.2497 -2.7910 -0.3880
33802SOL    HW2 5449   4.358   6.061   9.676  0.5898 -3.0406 -3.4460
33803SOL     OW 5450   7.771   2.043   4.592 -0.0366  0.4500  0.0804
33803SOL    HW1 5451   7.769   1.959   4.546  0.6698 -0.4412  1.5820
33803SOL    HW2 5452   7.684   2.052   4.629  0.1863 -0.1484  0.7761
33804SOL     OW 5453   8.159   1.952   5.189 -0.5349 -0.3290  0.1709
33804SOL    HW1 5454   8.109   2.028   5.217  0.0508  0.8448 -1.7317
33804SOL    HW2 5455   8.109   1.918   5.114 -0.9461 -2.0344  1.1802
33805SOL     OW 5456   5.031   1.505   6.597 -0.1727 -0.0874 -0.0084
33805SOL    HW1 5457   4.943   1.503   6.559 -0.9505  0.1177  1.6799
33805SOL    HW2 5458   5.032   1.432   6.659  0.8555 -0.0796 -0.0019
33806SOL     OW 5459   5.376   6.684   3.408  0.1506 -0.1168  0.1566
33806SOL    HW1 5460   5.420   6.701   3.491 -0.6607  1.7488  0.2396
33806SOL    HW2 5461   5.287   6.659   3.432  1.0130 -4.0134 -0.0083
33807SOL     OW 5462   2.886   5.160   0.643 -0.2328 -0.2252 -0.1981
33807SOL    HW1 5463   2.955   5.204   0.693 -0.5831  0.4368 -0.2913
33807SOL    HW2 5464   2.862   5.085   0.697 -0.1285  0.0998  0.3087
33808SOL     OW 5465   0.135   2.091   6.408  0.5074  0.6589  0.0964
33808SOL    HW1 5466   0.126   2.155   6.478  1.3078 -0.3974  1.2102
33808SOL    HW2 5467   0.186   2.136   6.340  1.9298  0.9145  1.2867
33809SOL     OW 5468   0.993   7.391   7.948 -0.2682  0.2156  0.0417
33809SOL    HW1 5469   1.070   7.437   7.917 -0.8972  1.1574 -0.1546
33809SOL    HW2 5470   0.919   7.436   7.907 -0.9626 -0.2993  0.6810
33810SOL     OW 5471   7.961   9.313   1.339  0.3166 -0.1379  0.0917
33810SOL    HW1 5472   7.916   9.328   1.256  0.7491  1.2088  0.0756
33810SOL    HW2 5473   7.994   9.399   1.364  0.8048 -0.6572  1.3104
33811SOL     OW 5474   6.283   6.719   5.698  0.4279  0.3296 -0.2112
33811SOL    HW1 5475   6.234   6.786   5.650  0.9512  1.3193  0.6077
33811SOL    HW2 5476   6.225   6.696   5.771 -0.2399 -0.9595 -1.1149
33812SOL     OW 5477   7.938   1.588   5.176  0.3027 -0.6225 -0.0978
33812SOL    HW1 5478   7.905   1.672   5.145 -0.0931 -0.7729 -0.0903
33812SOL    HW2 5479   7.890   1.571   5.257 -0.3165 -1.3013 -0.5925
33813SOL     OW 5480  10.017   4.833   2.013 -0.1660 -1.1310  0.1558
33813SOL    HW1 5481  10.062   4.840   2.097 -1.6605 -1.5342  1.0352
33813SOL    HW2 5482  10.040   4.745   1.981 -0.5232 -1.4440  0.7302
33814SOL     OW 5483   8.443   8.796   0.663  0.4724  0.4144  0.4259
33814SOL    HW1 5484   8.413   8.887   0.670  0.0813  0.3069  0.1804
33814SOL    HW2 5485   8.538   8.803   0.656  0.5831  0.7230  1.9217
33815SOL     OW 5486   0.864   4.611   5.033 -0.2041 -0.2640  0.1440
33815SOL    HW1 5487   0.909   4.663   4.966  0.8850 -1.8162 -0.3796
33815SOL    HW2 5488   0.774   4.603   5.000 -0.3252  1.0728  0.1282
33816SOL     OW 5489   1.103   9.982   3.098 -0.5113 -0.0303 -0.4461
33816SOL    HW1 5490   1.111   9.995   3.004  0.7233  2.5996 -0.0528
33816SOL    HW2 5491   1.185  10.015   3.135 -1.6039  0.5361  1.6609
33817SOL     OW 5492  10.129   5.385   8.959  0.5073  0.4159 -0.0837
33817SOL    HW1 5493  10.085   5.308   8.924  1.2051  0.1572 -0.4098
33817SOL    HW2 5494  10.070   5.418   9.027 -0.1970  0.0997 -0.5266
33818SOL     OW 5495   8.268   4.648   3.431 -0.5709 -0.1471 -0.0983
33818SOL    HW1 5496   8.215   4.580   3.472  1.2439 -0.4015  2.0140
33818SOL    HW2 5497   8.245   4.728   3.477  0.9210 -0.2872  0.9499
33819SOL     OW 5498   3.597   4.621  10.158  0.7519 -0.3459  0.0452
33819SOL    HW1 5499   3.578   4.628  10.252  2.0921  0.0680  0.3065
33819SOL    HW2 5500   3.666   4.685  10.143  2.5834 -2.3595 -0.6371
33820SOL     OW 5501   1.603   6.043   8.039  0.3433 -0.6444 -0.1455
33820SOL    HW1 5502   1.522   6.092   8.043 -0.5190 -1.6873 -2.6981
33820SOL    HW2 5503   1.585   5.962   8.087 -0.4663 -1.2633 -1.4575
33821SOL     OW 5504   4.667   2.662   0.628  0.2236  0.4425  0.8816
33821SOL    HW1 5505   4.602   2.596   0.650  0.7976 -0.3484  0.2415
33821SOL    HW2 5506   4.616   2.733   0.588 -0.3570  0.2661  1.2871
33822SOL     OW 5507   1.887   7.846   7.353  0.2929  0.6897  0.1171
33822SOL    HW1 5508   1.960   7.908   7.350  1.5232 -0.7633 -0.7557
33822SOL    HW2 5509   1.811   7.901   7.376  1.5098  2.3380  0.4002
33823SOL     OW 5510   2.120   7.149   4.419  0.0355 -0.3011 -0.3295
33823SOL    HW1 5511   2.129   7.230   4.369 -0.2398 -0.1072 -0.0666
33823SOL    HW2 5512   2.172   7.164   4.498 -0.7685 -0.0241  0.1544
33824SOL     OW 5513   9.918   8.075   1.583  0.2817 -0.3253  0.6611
33824SOL    HW1 5514   9.866   8.144   1.541  1.1288 -0.5634 -0.8667
33824SOL    HW2 5515   9.966   8.120   1.653  0.7313  0.6448 -0.2330
33825SOL     OW 5516   0.918   3.428   8.580 -0.1931 -0.1733  0.1958
33825SOL    HW1 5517   0.912   3.509   8.530 -0.8564  0.6477  1.5424
33825SOL    HW2 5518   0.899   3.359   8.517  0.4783  0.7045 -1.0018
33826SOL     OW 5519   1.869   6.274   0.213 -0.1788 -0.1728 -0.1621
33826SOL    HW1 5520   1.870   6.179   0.224  2.3051 -0.1187  0.6345
33826SOL    HW2 5521   1.855   6.308   0.301  0.3394  0.1913 -0.2169
33827SOL     OW 5522   4.798   2.978   1.399  0.2175 -0.1998 -0.1997
33827SOL    HW1 5523   4.852   3.023   1.334  0.7616  1.3837  1.2694
33827SOL    HW2 5524   4.819   3.021   1.482 -0.2055 -2.3732  1.1142
33828SOL     OW 5525   7.590   4.989   4.688 -0.1523  0.2270 -0.3414
33828SOL    HW1 5526   7.591   5.079   4.655 -1.3757 -0.0747 -1.2829
33828SOL    HW2 5527   7.591   4.999   4.783 -2.2423  1.3378 -0.3734
33829SOL     OW 5528   4.092   5.551   1.493 -0.2813 -0.0731  0.1857
33829SOL    HW1 5529   4.026   5.582   1.431 -1.8184 -0.3973  1.5609
33829SOL    HW2 5530   4.044   5.489   1.549  1.6694 -1.7389  0.1214
33830SOL     OW 5531  10.222   5.636   1.642 -0.2657 -0.3935 -0.5213
33830SOL    HW1 5532  10.214   5.717   1.592  0.5915  0.1862  0.2686
33830SOL    HW2 5533  10.227   5.567   1.575  1.0055  0.3726 -1.2391
33831SOL     OW 5534   0.779   5.305   2.212 -0.1779 -0.0022 -0.5793
33831SOL    HW1 5535   0.862   5.320   2.257 -0.0131  0.4732 -1.0283
33831SOL    HW2 5536   0.754   5.391   2.179 -1.5310  0.1281  0.6906
33832SOL     OW 5537   3.231   0.656   8.084 -0.4390 -0.1093  0.1742
33832SOL    HW1 5538   3.213   0.673   7.992 -1.4187  1.8889  0.6721
33832SOL    HW2 5539   3.202   0.566   8.098  0.7199 -0.8264 -1.6681
33833SOL     OW 5540   2.265   8.405   1.206  0.7385  0.0646 -0.4878
33833SOL    HW1 5541   2.243   8.492   1.175  1.6445 -0.3912 -2.5968
33833SOL    HW2 5542   2.229   8.346   1.139  1.5648 -1.0657  0.0238
33834SOL     OW 5543   5.786   0.714   7.693  0.0298 -0.0434 -0.0799
33834SOL    HW1 5544   5.874   0.677   7.688 -0.1351 -0.3648 -0.6585
33834SOL    HW2 5545   5.778   0.769   7.616  0.2870  1.2700  0.8047
33835SOL     OW 5546   3.982   1.277   0.988 -0.0606 -0.5172 -0.4786
33835SOL    HW1 5547   4.008   1.289   1.079 -1.6242  0.2509 -0.0955
33835SOL    HW2 5548   4.064   1.263   0.941  0.6406 -2.9440  1.3149
33836SOL     OW 5549   0.637   6.393   9.772  0.1125  0.9389 -0.2438
33836SOL    HW1 5550   0.615   6.443   9.851 -0.1876  0.2900  0.0905
33836SOL    HW2 5551   0.732   6.388   9.774  0.0655 -0.0072  0.6840
33837SOL     OW 5552   1.429   1.328   6.922  0.0641  0.5778  0.1853
33837SOL    HW1 5553   1.444   1.241   6.960 -0.2130  1.0889  1.5309
33837SOL    HW2 5554   1.333   1.335   6.918 -0.0213  1.8194  2.6216
33838SOL     OW 5555   5.631   5.670   6.986 -0.3589  0.3768  0.6536
33838SOL    HW1 5556   5.597   5.636   6.903  0.3678  0.6593  0.2328
33838SOL    HW2 5557   5.723   5.690   6.968 -0.0898  0.0579  1.6446
33839SOL     OW 5558   1.741   5.761   6.917 -0.5737  0.9519 -0.5182
33839SOL    HW1 5559   1.837   5.759   6.923 -0.5763 -1.8341 -0.1829
33839SOL    HW2 5560   1.711   5.762   7.008 -0.8039 -0.8038 -0.5430
33840SOL     OW 5561   1.664  10.016   6.512 -0.1241  0.1341  0.5084
33840SOL    HW1 5562   1.596   9.950   6.526  0.9403 -1.2875 -0.6892
33840SOL    HW2 5563   1.646  10.051   6.424  1.4715 -1.3246 -0.4667
33841SOL     OW 5564   6.862   6.353   8.356  0.1109 -0.2141 -0.1226
33841SOL    HW1 5565   6.918   6.282   8.388 -0.6586 -0.1658  1.4012
33841SOL    HW2 5566   6.775   6.314   8.349 -0.3603  0.6141  0.9160
33842SOL     OW 5567   0.970   6.084   1.653 -0.0473  0.3592  0.1418
33842SOL    HW1 5568   1.006   6.021   1.715  1.1020  1.6223  0.8087
33842SOL    HW2 5569   1.041   6.147   1.637 -1.3615  1.9154  0.0850
33843SOL     OW 5570   2.880   7.881   7.161  0.0678  0.6173 -0.0430
33843SOL    HW1 5571   2.936   7.892   7.238  1.5783  2.3195 -1.2978
33843SOL    HW2 5572   2.852   7.790   7.164  1.5824  0.1573  1.5278
33844SOL     OW 5573   5.566   1.399   9.919  0.2922 -0.3630 -0.3582
33844SOL    HW1 5574   5.494   1.382   9.980 -1.1889  2.4144 -1.1474
33844SOL    HW2 5575   5.595   1.488   9.942  4.9092 -1.9560  1.2160
33845SOL     OW 5576   1.607   0.361   1.645 -0.0796 -0.4994 -0.0609
33845SOL    HW1 5577   1.611   0.378   1.739 -0.0069  0.2883 -0.2038
33845SOL    HW2 5578   1.667   0.424   1.606 -0.8029 -0.2013 -0.7169
33846SOL     OW 5579   2.612   0.149   2.328 -0.4343  0.4863 -0.0218
33846SOL    HW1 5580   2.564   0.093   2.389 -1.0049  3.2438  2.2110
33846SOL    HW2 5581   2.704   0.135   2.350 -0.5133 -0.1380 -0.0629
33847SOL     OW 5582   5.635   0.980   6.480  0.0724 -0.1612  0.9687
33847SOL    HW1 5583   5.562   1.003   6.537 -0.3145  0.1878  0.3319
33847SOL    HW2 5584   5.607   0.900   6.435 -0.3289  0.5170 -0.0100
33848SOL     OW 5585   5.456   5.503   1.484 -0.0382 -0.3599  0.2564
33848SOL    HW1 5586   5.361   5.513   1.481 -0.0733 -0.8930 -0.7211
33848SOL    HW2 5587   5.482   5.552   1.562 -1.0211  0.4738  0.0904
33849SOL     OW 5588   9.679   6.296   7.536  0.2036  0.6586 -0.0260
33849SOL    HW1 5589   9.736   6.308   7.460 -2.0751 -0.9894 -2.1689
33849SOL    HW2 5590   9.700   6.207   7.567  0.6277  1.0567  0.8455
33850SOL     OW 5591   7.626   0.249   9.355 -0.0309  0.3869 -0.2376
33850SOL    HW1 5592   7.660   0.322   9.407  0.2127 -0.2963  0.5866
33850SOL    HW2 5593   7.656   0.171   9.401 -2.5697 -0.2816  0.4665
33851SOL     OW 5594   3.909   9.917   2.170 -0.1647  0.2960  0.1575
33851SOL    HW1 5595   3.839   9.926   2.235 -0.2629  0.3593  0.0439
33851SOL    HW2 5596   3.974   9.862   2.213 -0.6611 -0.4634 -0.0462
33852SOL     OW 5597   0.313   8.356   5.322  0.0852 -0.0826  0.0131
33852SOL    HW1 5598   0.394   8.331   5.366  0.6037 -0.1056 -0.9239
33852SOL    HW2 5599   0.259   8.277   5.324  0.7838 -0.6016 -0.8739
33853SOL     OW 5600   4.945   1.048   7.016  0.0464 -0.0582 -0.6735
33853SOL    HW1 5601   4.969   0.956   7.019  1.8549  0.2262 -3.0337
33853SOL    HW2 5602   5.001   1.090   7.082  0.4034 -0.4383 -0.7321
33854SOL     OW 5603   5.983   0.451   8.436  0.1867  0.1445 -0.4033
33854SOL    HW1 5604   5.887   0.454   8.428 -0.0661 -0.5880  1.6294
33854SOL    HW2 5605   5.999   0.390   8.508  2.2199 -0.0291 -0.9444
33855SOL     OW 5606   2.607   0.928   0.959 -0.1456  0.3064 -0.5792
33855SOL    HW1 5607   2.513   0.926   0.974  0.0923  1.8310  1.6623
33855SOL    HW2 5608   2.643   0.873   1.028  0.6888  1.9246  0.3504
33856SOL     OW 5609   3.623   0.019   4.093  0.4427 -0.0325 -0.0839
33856SOL    HW1 5610   3.623  -0.074   4.114 -1.1827  0.6245  3.6255
33856SOL    HW2 5611   3.691   0.056   4.149 -0.9530  1.3535  0.7559
33857SOL     OW 5612   7.094   4.122   2.058  0.4378  0.0038  0.1102
33857SOL    HW1 5613   7.095   4.087   2.147 -2.8787 -0.4366  0.1007
33857SOL    HW2 5614   7.001   4.133   2.038  1.1509  2.0682 -2.5646
33858SOL     OW 5615   9.745   4.834   7.245  0.2847  0.4017 -0.0321
33858SOL    HW1 5616   9.721   4.773   7.315 -0.2337  0.4486 -0.1648
33858SOL    HW2 5617   9.742   4.920   7.286  1.1742  0.3297  0.1963
33859SOL     OW 5618   6.352   5.598   3.047 -0.2780  0.3540  0.1114
33859SOL    HW1 5619   6.310   5.512   3.047 -0.8567  0.5030  3.2821
33859SOL    HW2 5620   6.412   5.596   2.973 -1.9242 -1.8960 -1.2881
33860SOL     OW 5621   6.734   0.766   0.044 -0.2669  0.3999  0.5321
33860SOL    HW1 5622   6.775   0.799   0.124 -2.1217 -1.8861  2.5690
33860SOL    HW2 5623   6.650   0.811   0.040 -1.5517 -1.7248  1.7357
33861SOL     OW 5624   7.962   5.270   6.335 -0.0001 -0.4766  0.3108
33861SOL    HW1 5625   7.906   5.281   6.258 -0.2674 -0.2090  0.5408
33861SOL    HW2 5626   7.905   5.291   6.409  1.0119  2.1750  0.4472
33862SOL     OW 5627   6.767   8.847   7.396  0.6953  0.3175  0.2301
33862SOL    HW1 5628   6.855   8.885   7.399  0.4681  0.8426  0.4094
33862SOL    HW2 5629   6.718   8.896   7.462  0.7929 -1.3210  1.5965
33863SOL     OW 5630   0.881   7.424   8.443 -0.3112 -0.5524 -0.2135
33863SOL    HW1 5631   0.919   7.509   8.465  3.2324 -1.9009 -0.6127
33863SOL    HW2 5632   0.875   7.425   8.347  1.1655 -1.2559 -0.3336
33864SOL     OW 5633   6.310   2.295   9.109  0.0144 -0.3734  0.0346
33864SOL    HW1 5634   6.296   2.212   9.155  0.8053 -1.2187 -1.1651
33864SOL    HW2 5635   6.397   2.324   9.136  0.7266 -1.1645 -1.2653
33865SOL     OW 5636   9.140   9.046   4.546 -0.6239  0.2439 -0.1266
33865SOL    HW1 5637   9.081   8.990   4.495 -3.1086  1.2704  1.4689
33865SOL    HW2 5638   9.184   9.100   4.480 -0.7497 -1.1822 -1.4413
33866SOL     OW 5639   7.175   8.346   0.375 -0.1136  0.2523  0.4054
33866SOL    HW1 5640   7.228   8.358   0.454 -0.6957  0.5076  0.7659
33866SOL    HW2 5641   7.129   8.429   0.365 -0.7155 -0.0938  0.3018
33867SOL     OW 5642   7.491   5.949   3.882  0.1638 -0.4677  0.1567
33867SOL    HW1 5643   7.540   5.867   3.881  4.1519  1.5748 -2.8981
33867SOL    HW2 5644   7.471   5.966   3.789  0.6352  2.4986  0.4829
33868SOL     OW 5645   4.690   5.258   2.913 -0.7363 -0.5389  0.1815
33868SOL    HW1 5646   4.602   5.237   2.944 -0.8031  1.1884  1.3149
33868SOL    HW2 5647   4.686   5.245   2.818 -2.2620 -0.3681  0.1960
33869SOL     OW 5648   4.058   1.331   5.088 -0.1973 -0.4126 -0.0677
33869SOL    HW1 5649   3.984   1.301   5.142  1.0830  0.1834  2.1545
33869SOL    HW2 5650   4.043   1.425   5.078  0.4120 -0.2237  0.7027
33870SOL     OW 5651   6.305   3.263   1.315 -0.6339  0.0236  0.0001
33870SOL    HW1 5652   6.223   3.292   1.273 -0.6512  0.3964  0.2875
33870SOL    HW2 5653   6.309   3.169   1.297 -1.1444 -0.0032  0.0189
33871SOL     OW 5654   6.048   9.435   3.304  0.0790 -0.6583 -0.5163
33871SOL    HW1 5655   6.089   9.506   3.256  0.5273 -0.2815  0.3912
33871SOL    HW2 5656   5.954   9.448   3.293  0.1364  0.4762  0.1808
33872SOL     OW 5657   9.647   6.426   8.867 -0.4766  0.0535 -0.1342
33872SOL    HW1 5658   9.602   6.405   8.948 -1.7658  2.6009 -0.0806
33872SOL    HW2 5659   9.732   6.461   8.895 -0.5236  0.0135  0.0597
33873SOL     OW 5660   9.133   0.146   3.997  0.1406  0.6447 -0.4560
33873SOL    HW1 5661   9.131   0.075   3.934  1.2469  1.2294 -1.1715
33873SOL    HW2 5662   9.171   0.108   4.076  1.9406  0.7217 -1.2405
33874SOL     OW 5663   2.616   9.410   4.000 -0.3495 -0.3167 -0.1529
33874SOL    HW1 5664   2.592   9.384   4.089 -2.0312  0.9650 -0.1909
33874SOL    HW2 5665   2.699   9.457   4.011  0.4830 -1.8387  0.4470
33875SOL     OW 5666   7.011   1.952   4.573  0.8836  0.3511 -0.1606
33875SOL    HW1 5667   7.062   1.911   4.503  0.4510  1.2585 -1.0303
33875SOL    HW2 5668   6.966   1.879   4.615  1.8160 -0.3069 -0.2650
33876SOL     OW 5669   1.020   8.092   6.851 -0.0391  0.1891 -0.7751
33876SOL    HW1 5670   1.013   8.005   6.891 -0.8415  0.3240 -0.6119
33876SOL    HW2 5671   0.942   8.138   6.880  0.7789  1.2556 -0.1930
33877SOL     OW 5672   2.930   3.880   8.434 -0.3290  0.0065  0.1187
33877SOL    HW1 5673   2.895   3.916   8.353  0.8086 -0.0246 -0.4083
33877SOL    HW2 5674   2.927   3.785   8.421 -0.9282 -0.0232  0.4584
33878SOL     OW 5675   7.988   4.161   1.784  0.3165  0.5337  0.2617
33878SOL    HW1 5676   7.938   4.156   1.703  0.8030 -2.4694  0.0269
33878SOL    HW2 5677   8.074   4.124   1.762  0.6626  0.2156  1.9860
33879SOL     OW 5678   1.698   8.695   8.402  0.5735  0.0100 -0.3352
33879SOL    HW1 5679   1.705   8.670   8.494 -1.0709 -1.7148 -0.5975
33879SOL    HW2 5680   1.645   8.774   8.403  0.9637  0.2683  0.2273
33880SOL     OW 5681   1.908   7.027   4.223  0.2157 -0.1663  0.0451
33880SOL    HW1 5682   1.842   7.094   4.242  1.2989  1.3446 -1.2836
33880SOL    HW2 5683   1.990   7.066   4.253  0.8907 -0.8023 -0.9339
33881SOL     OW 5684   0.223   8.510   7.323  0.6267  0.0545  0.0334
33881SOL    HW1 5685   0.142   8.552   7.350  1.2901  1.0207  0.5597
33881SOL    HW2 5686   0.208   8.417   7.340 -0.3560  0.2209  0.1345
33882SOL     OW 5687   6.513   9.767   1.710  0.0651  0.1015 -0.1046
33882SOL    HW1 5688   6.517   9.846   1.764 -0.2552 -0.7141  1.1715
33882SOL    HW2 5689   6.434   9.778   1.657  1.3393  1.7278 -1.7964
33883SOL     OW 5690  10.149   5.995   6.098 -0.1630  0.3007  0.3601
33883SOL    HW1 5691  10.133   5.943   6.019  0.2904  0.4619  0.1619
33883SOL    HW2 5692  10.200   5.938   6.155  0.9022  0.7528 -0.1258
33884SOL     OW 5693   8.190   5.227   9.538  0.5837  0.4364  0.6869
33884SOL    HW1 5694   8.263   5.261   9.487  0.6635 -0.8549 -0.0974
33884SOL    HW2 5695   8.129   5.192   9.474  0.9558 -1.7555  1.4128
33885SOL     OW 5696   9.144   9.729   6.952 -0.7021 -0.1078 -0.7754
33885SOL    HW1 5697   9.173   9.642   6.980 -0.9862 -0.2711 -0.9810
33885SOL    HW2 5698   9.203   9.752   6.879 -0.4742 -0.0225 -0.5681
33886SOL     OW 5699   4.507   0.037   1.836 -0.1623  0.0176  0.0517
33886SOL    HW1 5700   4.504   0.058   1.929 -0.9650 -1.6266  0.4296
33886SOL    HW2 5701   4.428  -0.014   1.820  0.4582 -0.5817 -1.3177
33887SOL     OW 5702   4.776  10.266   6.042  0.6994  0.0937  0.4361
33887SOL    HW1 5703   4.703  10.244   6.100  0.7601  0.2202  0.5584
33887SOL    HW2 5704   4.783  10.361   6.046  0.0589  0.1955 -0.5475
33888SOL     OW 5705   3.727   8.004   7.695 -0.2457 -0.2842  0.5622
33888SOL    HW1 5706   3.779   8.035   7.769  2.4101  0.8274 -1.5969
33888SOL    HW2 5707   3.737   7.909   7.698  3.1576 -0.0755 -0.4744
33889SOL     OW 5708   8.387   3.476   2.293  0.2390 -0.2294 -0.0892
33889SOL    HW1 5709   8.330   3.482   2.216  1.4001  1.4857 -0.8729
33889SOL    HW2 5710   8.436   3.395   2.279 -1.1861 -1.1615  0.0604
33890SOL     OW 5711   2.054   9.978   4.128  0.6095  0.0524 -0.1674
33890SOL    HW1 5712   2.080   9.941   4.044  0.5001  1.0703 -0.6621
33890SOL    HW2 5713   2.137   9.989   4.175  0.7350  0.0557 -0.3858
33891SOL     OW 5714   5.809   7.529   4.445 -0.0190  0.0096  0.4344
33891SOL    HW1 5715   5.762   7.605   4.412  2.5691  0.6209 -2.2221
33891SOL    HW2 5716   5.892   7.564   4.477 -0.2255 -1.3232  2.6388
33892SOL     OW 5717   8.991   0.828   5.736  0.3372 -0.1909  0.5467
33892SOL    HW1 5718   8.953   0.915   5.752  1.1109  0.1271  0.6988
33892SOL    HW2 5719   8.988   0.785   5.821 -0.4009 -0.4643  0.3900
33893SOL     OW 5720   2.863   8.943   7.210  0.1911  0.0071 -0.0930
33893SOL    HW1 5721   2.940   8.974   7.163  0.5044 -0.5738  0.0367
33893SOL    HW2 5722   2.790   8.963   7.151  0.5637 -0.5451 -0.7508
33894SOL     OW 5723   3.963   4.249   3.447 -0.0228 -1.1168  0.2285
33894SOL    HW1 5724   3.942   4.205   3.529  0.9049 -1.9421  0.0435
33894SOL    HW2 5725   4.058   4.240   3.439  0.0242 -0.1816 -0.4514
33895SOL     OW 5726   6.252  10.125   9.673 -0.0130  0.0364 -0.0042
33895SOL    HW1 5727   6.332  10.177   9.684 -0.1730  0.9874 -2.6011
33895SOL    HW2 5728   6.186  10.173   9.723  0.5083  0.6306  0.1379
33896SOL     OW 5729   3.908   2.256   1.295 -0.6263 -0.2165 -0.0281
33896SOL    HW1 5730   3.858   2.253   1.376  0.9046 -1.9127  0.9180
33896SOL    HW2 5731   3.964   2.333   1.305 -1.8755  0.7799 -0.4209
33897SOL     OW 5732   7.950   7.863   0.977  0.0921  0.1905 -0.0668
33897SOL    HW1 5733   7.968   7.825   0.890  0.0290 -0.9608  0.3999
33897SOL    HW2 5734   8.007   7.940   0.981  0.5688 -0.0952 -0.8888
33898SOL     OW 5735   7.804   3.885   6.761 -1.1077  0.0151 -0.0396
33898SOL    HW1 5736   7.880   3.919   6.807  0.1596  0.1896 -2.1407
33898SOL    HW2 5737   7.825   3.792   6.746 -0.4961  0.4379 -2.0667
33899SOL     OW 5738   9.597   0.199   9.148 -0.1336  0.2522  0.0728
33899SOL    HW1 5739   9.587   0.108   9.176 -1.3101  0.9252  1.9703
33899SOL    HW2 5740   9.512   0.221   9.109  0.0963  0.5860 -0.2398
33900SOL     OW 5741   0.092   1.542   1.036 -0.2019 -0.1307 -0.1633
33900SOL    HW1 5742   0.044   1.605   1.089 -1.2789 -1.3587  0.3924
33900SOL    HW2 5743   0.120   1.591   0.959 -0.2342  1.2232  0.6567
33901SOL     OW 5744   0.015   8.780   4.072  0.0364 -0.0266 -0.5045
33901SOL    HW1 5745   0.079   8.833   4.025  1.5865 -1.4896 -0.1380
33901SOL    HW2 5746   0.062   8.749   4.150 -1.4054 -0.4482  0.2322
33902SOL     OW 5747   9.632   1.901   4.850  0.0188  0.8376 -0.4691
33902SOL    HW1 5748   9.687   1.834   4.811 -0.1886  0.7876 -0.6771
33902SOL    HW2 5749   9.693   1.961   4.892  0.1499 -0.4483  1.2989
33903SOL     OW 5750   9.938   4.145   6.628 -0.1304 -0.1579  0.3137
33903SOL    HW1 5751   9.949   4.075   6.691 -1.2930  0.5716  1.3871
33903SOL    HW2 5752   9.938   4.225   6.681  0.3891  0.5977 -0.7848
33904SOL     OW 5753   1.264   2.750   5.040 -0.3405  0.3404 -0.0981
33904SOL    HW1 5754   1.294   2.660   5.056  0.9551  0.8177  0.3139
33904SOL    HW2 5755   1.224   2.747   4.953 -1.3566 -0.8655  0.3889
33905SOL     OW 5756   0.488   2.645   5.567 -0.3897 -0.2731 -0.1588
33905SOL    HW1 5757   0.471   2.576   5.630 -2.8417  1.1923  0.9246
33905SOL    HW2 5758   0.439   2.620   5.489  1.2401 -1.2180 -0.9370
33906SOL     OW 5759   8.645   1.578   7.754  0.9503  0.2338  0.2951
33906SOL    HW1 5760   8.674   1.640   7.820 -1.6552  1.8936  0.0130
33906SOL    HW2 5761   8.655   1.492   7.796  3.1886  0.8922  1.2547
33907SOL     OW 5762   5.483   0.877   9.865  0.0487  0.1288 -0.3565
33907SOL    HW1 5763   5.395   0.854   9.895  0.2485 -0.3391 -0.1182
33907SOL    HW2 5764   5.483   0.854   9.772  0.0813 -0.3759 -0.2389
33908SOL     OW 5765   9.714   3.599   8.739 -0.1359 -0.0851 -0.0368
33908SOL    HW1 5766   9.776   3.618   8.810  0.8734 -1.6487 -0.4390
33908SOL    HW2 5767   9.767   3.558   8.671 -1.5565 -1.2639 -0.5001
33909SOL     OW 5768   9.462   5.241   9.058 -0.3421  0.6470 -0.5740
33909SOL    HW1 5769   9.391   5.178   9.049 -0.1498  0.1399  1.0387
33909SOL    HW2 5770   9.419   5.324   9.076 -0.5712  0.8307 -1.8767
33910SOL     OW 5771   2.208   4.446   7.044 -0.2978 -0.1225  0.3366
33910SOL    HW1 5772   2.218   4.351   7.043  1.0035 -0.1620  3.8935
33910SOL    HW2 5773   2.146   4.463   7.115  1.8519  1.7068  1.9412
33911SOL     OW 5774   9.431   6.111   2.315 -0.2968 -0.0234  0.8710
33911SOL    HW1 5775   9.375   6.184   2.342 -0.7951 -0.0513 -0.0370
33911SOL    HW2 5776   9.383   6.069   2.243  0.0420 -1.1670  1.2776
33912SOL     OW 5777   7.709   7.492   7.992 -0.4001  0.3158 -0.4550
33912SOL    HW1 5778   7.657   7.551   8.047  0.8415 -0.9028  2.2199
33912SOL    HW2 5779   7.775   7.549   7.953  0.3446  0.9078  1.5240
33913SOL     OW 5780   2.798   1.320   3.473 -0.1144 -0.1262 -0.1892
33913SOL    HW1 5781   2.862   1.377   3.515 -0.2353 -0.5463  0.5788
33913SOL    HW2 5782   2.716   1.338   3.518 -0.6053  0.5561 -1.3032
33914SOL     OW 5783  10.092   6.879   7.966  0.1841 -0.1473 -0.2901
33914SOL    HW1 5784  10.082   6.929   8.047 -2.0464 -1.0697  0.0857
33914SOL    HW2 5785  10.110   6.945   7.899  1.6380  0.6757  0.8379
33915SOL     OW 5786   7.626   8.600   3.455  0.0729 -0.2622 -0.5688
33915SOL    HW1 5787   7.553   8.569   3.509 -0.8590  0.3712 -1.4255
33915SOL    HW2 5788   7.604   8.571   3.367  1.1123 -0.4831 -0.7604
33916SOL     OW 5789   8.712   6.332   0.624 -0.5542  0.5178  0.0834
33916SOL    HW1 5790   8.641   6.271   0.605 -0.9294  0.6736  0.9598
33916SOL    HW2 5791   8.740   6.364   0.538 -0.8917 -0.2768 -0.3260
33917SOL     OW 5792   2.298   5.326   6.830  0.4581  0.1802  0.1454
33917SOL    HW1 5793   2.356   5.362   6.763  0.6442  0.9943  0.7135
33917SOL    HW2 5794   2.299   5.393   6.899 -1.5533  0.4550 -0.0474
33918SOL     OW 5795   7.086   7.937   2.492  0.1586  0.0745  0.0860
33918SOL    HW1 5796   7.112   7.975   2.408  0.5488  0.4353  0.3610
33918SOL    HW2 5797   7.132   7.853   2.496  0.9977  0.5283  0.3917
33919SOL     OW 5798   7.155   1.753   6.832 -0.1658 -0.0401 -0.0693
33919SOL    HW1 5799   7.138   1.812   6.759  0.0057  1.0016  0.7010
33919SOL    HW2 5800   7.209   1.805   6.892  2.0262 -1.7369 -0.4156
33920SOL     OW 5801   7.248   5.903   5.147  0.1569  0.0639 -0.0748
33920SOL    HW1 5802   7.157   5.932   5.139 -0.5636 -1.1886  2.4163
33920SOL    HW2 5803   7.300   5.983   5.135 -1.5198  1.7368  2.7608
33921SOL     OW 5804   8.940   1.438   2.100 -0.5491 -0.3754 -0.2941
33921SOL    HW1 5805   8.967   1.389   2.177  1.8090  0.4539 -0.5126
33921SOL    HW2 5806   8.917   1.525   2.133  0.5298  0.0026 -0.4741
33922SOL     OW 5807   2.133   8.420   2.027 -0.2710 -0.5835 -0.4849
33922SOL    HW1 5808   2.044   8.388   2.012 -1.3533  1.7185  0.5227
33922SOL    HW2 5809   2.154   8.471   1.950 -0.2580 -0.2303 -0.2492
33923SOL     OW 5810   5.070   2.038   8.471  0.1206 -0.0717 -0.0085
33923SOL    HW1 5811   5.125   1.991   8.533  0.1646  1.2266  0.9932
33923SOL    HW2 5812   4.982   2.031   8.507  0.0507  0.1461 -0.1314
33924SOL     OW 5813   9.279   2.363   2.678 -0.1974  0.8048 -0.6810
33924SOL    HW1 5814   9.309   2.451   2.700 -0.4110  1.0727 -1.4396
33924SOL    HW2 5815   9.234   2.333   2.757  1.2455  0.7460  0.1637
33925SOL     OW 5816   8.655   2.880   7.926  0.2860  0.2306  0.1267
33925SOL    HW1 5817   8.627   2.828   8.002 -0.6122 -0.3585 -0.5708
33925SOL    HW2 5818   8.622   2.968   7.943 -0.5334 -0.0644  0.1132
33926SOL     OW 5819   3.506   9.407   4.114 -0.3949 -0.1455  0.0468
33926SOL    HW1 5820   3.458   9.447   4.041 -0.4614  0.2092  0.2822
33926SOL    HW2 5821   3.439   9.359   4.164 -0.6856  1.0544  0.8649
33927SOL     OW 5822   5.578   5.207   9.606  0.3901 -0.3807 -0.7353
33927SOL    HW1 5823   5.586   5.158   9.687 -0.3806  2.0687  0.9599
33927SOL    HW2 5824   5.658   5.260   9.601 -0.4091  0.9210 -0.4640
33928SOL     OW 5825   4.078   2.216   5.152  0.4065  0.5481 -0.0534
33928SOL    HW1 5826   4.027   2.225   5.232  1.2005 -0.8993  0.6588
33928SOL    HW2 5827   4.013   2.225   5.082 -0.4823  0.7472  0.7618
33929SOL     OW 5828   9.875   7.815   1.599  0.6105  0.3334 -0.3029
33929SOL    HW1 5829   9.948   7.771   1.554  1.4292  1.5695 -0.2351
33929SOL    HW2 5830   9.878   7.905   1.567 -0.6800  0.5004 -0.0133
33930SOL     OW 5831   7.228   9.973   2.160  0.3318 -0.1720  0.1539
33930SOL    HW1 5832   7.206   9.907   2.095 -0.8037 -0.5043  0.8495
33930SOL    HW2 5833   7.314   9.946   2.193  1.0835  0.1981 -1.4176
33931SOL     OW 5834   8.310   6.101   7.265  0.1871  0.5247  0.0473
33931SOL    HW1 5835   8.314   6.191   7.233 -0.7006  0.2697 -0.8509
33931SOL    HW2 5836   8.401   6.079   7.286  0.5895  1.2434 -0.8501
33932SOL     OW 5837   4.740   4.761   5.808 -0.7752  0.4506  0.1539
33932SOL    HW1 5838   4.664   4.763   5.750  0.2493  0.8421 -1.2282
33932SOL    HW2 5839   4.725   4.685   5.864 -3.1680  1.6822  1.3544
33933SOL     OW 5840   1.680   9.315   9.594  0.2274  0.1503 -0.3086
33933SOL    HW1 5841   1.615   9.335   9.526  1.2703  0.7093 -1.1681
33933SOL    HW2 5842   1.703   9.400   9.631  0.9668  0.0374 -0.4937
33934SOL     OW 5843   9.884   0.161   8.692 -0.0557 -0.3797  0.3324
33934SOL    HW1 5844   9.902   0.244   8.736  0.5151 -0.3503  0.0494
33934SOL    HW2 5845   9.896   0.095   8.760  0.2357 -0.2890  0.3712
33935SOL     OW 5846   2.693   6.826   9.843  0.4558 -0.4226  0.7457
33935SOL    HW1 5847   2.651   6.877   9.912  0.3343  0.9219 -0.2772
33935SOL    HW2 5848   2.718   6.744   9.885  0.5048  0.4121  2.4061
33936SOL     OW 5849   9.836  10.205   9.561 -0.2704 -0.6702 -0.4713
33936SOL    HW1 5850   9.741  10.197   9.553 -0.2967 -1.0965  0.1561
33936SOL    HW2 5851   9.849  10.270   9.630 -0.1014 -0.3698 -0.7841
33937SOL     OW 5852   3.877   3.298   9.127 -0.5557 -0.0139 -0.8177
33937SOL    HW1 5853   3.828   3.217   9.111 -0.5693 -0.4829  1.3790
33937SOL    HW2 5854   3.954   3.291   9.071 -0.3306 -1.7620 -0.3236
33938SOL     OW 5855   1.363   7.653   0.810 -0.0186 -0.0127  0.1712
33938SOL    HW1 5856   1.350   7.559   0.795  1.0055 -0.3760  1.3422
33938SOL    HW2 5857   1.301   7.695   0.751  1.4343 -1.3321 -2.4931
33939SOL     OW 5858   5.642   7.057   5.061  0.2159  1.0247 -0.4755
33939SOL    HW1 5859   5.680   7.036   4.976 -2.3572 -0.6943 -1.3237
33939SOL    HW2 5860   5.657   6.979   5.114  1.7221  2.0475  0.7219
33940SOL     OW 5861   7.705   6.634   7.014  0.2750 -0.1462 -0.0593
33940SOL    HW1 5862   7.678   6.720   6.981  2.0657  0.1309 -0.9687
33940SOL    HW2 5863   7.674   6.572   6.948  0.9834  0.0690 -0.6126
33941SOL     OW 5864   2.440   9.895   7.938 -0.3556  0.5771  0.3680
33941SOL    HW1 5865   2.418   9.822   7.880 -1.0648  1.0866 -0.0178
33941SOL    HW2 5866   2.445   9.971   7.881 -0.3811  0.9657  0.8734
33942SOL     OW 5867   8.966   8.553   7.806 -0.7537 -0.2784 -0.2435
33942SOL    HW1 5868   8.891   8.550   7.747 -2.3058 -0.4423  1.6529
33942SOL    HW2 5869   8.938   8.611   7.877  0.8804 -0.4354  0.5728
33943SOL     OW 5870   2.630   5.701   7.817 -0.5774  0.8461 -0.9982
33943SOL    HW1 5871   2.580   5.696   7.898 -2.0612 -0.2191 -1.9404
33943SOL    HW2 5872   2.567   5.731   7.751  0.1662  0.0664 -2.1017
33944SOL     OW 5873   3.455   0.131   6.173 -0.3159 -0.0662 -0.2620
33944SOL    HW1 5874   3.502   0.213   6.157  1.6045 -0.5563  2.2483
33944SOL    HW2 5875   3.427   0.137   6.265 -0.6726 -1.9752 -0.2140
33945SOL     OW 5876   3.388   8.626   2.974 -0.6647  0.0799 -0.9001
33945SOL    HW1 5877   3.350   8.714   2.986 -0.5383 -0.0143  0.3084
33945SOL    HW2 5878   3.483   8.641   2.972 -0.2571 -0.3449  3.7810
33946SOL     OW 5879   7.763   6.825   9.237  0.3730 -0.0944  0.0502
33946SOL    HW1 5880   7.842   6.817   9.183  0.4801  1.2519 -0.0254
33946SOL    HW2 5881   7.752   6.919   9.249 -0.6549 -0.3113  0.9126
33947SOL     OW 5882   3.721   1.719   9.629  0.0566 -0.3588 -0.5512
33947SOL    HW1 5883   3.656   1.763   9.685 -1.0638  0.8948 -2.7067
33947SOL    HW2 5884   3.731   1.632   9.668  1.6731  1.3123  3.3724
33948SOL     OW 5885   8.026   3.739   1.912 -0.1741 -0.0231 -0.1296
33948SOL    HW1 5886   8.115   3.771   1.932  0.1172 -1.1962  0.5457
33948SOL    HW2 5887   7.999   3.694   1.992 -0.7151 -1.1213 -0.9092
33949SOL     OW 5888   4.205   9.615   7.557  0.5161  0.0116  0.1125
33949SOL    HW1 5889   4.271   9.661   7.609 -0.0859 -0.2764  1.1654
33949SOL    HW2 5890   4.122   9.639   7.598  0.0497 -0.4987 -0.5209
33950SOL     OW 5891   7.692   2.514   1.109 -0.0233 -0.1480 -0.5392
33950SOL    HW1 5892   7.693   2.585   1.173  0.6472  0.5915 -1.3592
33950SOL    HW2 5893   7.606   2.474   1.119  0.4052 -0.6822  1.5059
33951SOL     OW 5894   9.204   8.940   8.317 -0.0792 -0.2883 -0.0493
33951SOL    HW1 5895   9.279   8.993   8.347  0.2804 -1.1906  0.6807
33951SOL    HW2 5896   9.144   8.940   8.391  0.9141 -2.7221  0.8394
33952SOL     OW 5897   6.529   2.109   6.561  0.0781 -0.0499  0.1298
33952SOL    HW1 5898   6.517   2.017   6.535 -2.0025 -0.7759  3.2061
33952SOL    HW2 5899   6.624   2.123   6.556  0.2889 -1.7454 -2.1448
33953SOL     OW 5900   2.985   5.630  10.207 -0.1127  0.7588  0.0835
33953SOL    HW1 5901   3.047   5.559  10.224 -1.0808  0.1632  1.2979
33953SOL    HW2 5902   3.036   5.710  10.222  0.5053  0.2917  0.5607
33954SOL     OW 5903   2.866   9.542   9.650  0.0272  0.4430  0.6411
33954SOL    HW1 5904   2.878   9.555   9.744  1.2930  0.2424  0.5254
33954SOL    HW2 5905   2.905   9.620   9.610  1.6575 -0.5607  0.2028
33955SOL     OW 5906   9.581   2.228  10.278 -0.1210  0.1318  0.6752
33955SOL    HW1 5907   9.585   2.196  10.368  0.9913  1.7618  1.2371
33955SOL    HW2 5908   9.600   2.151  10.224 -1.1552 -0.9403  1.7976
33956SOL     OW 5909   7.014   9.013   1.937  0.3030 -0.3481 -0.3926
33956SOL    HW1 5910   7.049   9.006   1.848  0.6541  0.5146 -0.3345
33956SOL    HW2 5911   7.060   9.088   1.975  0.6440 -1.0993  0.7444
33957SOL     OW 5912   7.730   8.109   6.062 -0.1540  0.5067 -0.0650
33957SOL    HW1 5913   7.780   8.129   5.983  0.5237  0.0493  0.2418
33957SOL    HW2 5914   7.791   8.060   6.118 -0.3882  1.4167  1.0429
33958SOL     OW 5915   6.165   4.361   3.557  0.1450 -0.3145  0.8043
33958SOL    HW1 5916   6.248   4.408   3.557 -0.6924  1.2608  0.1491
33958SOL    HW2 5917   6.139   4.360   3.465 -1.3535  0.7580  1.1794
33959SOL     OW 5918   8.544   9.080  10.098 -0.0135  0.0399 -0.0999
33959SOL    HW1 5919   8.582   9.163  10.067  0.1092  0.5584  1.3457
33959SOL    HW2 5920   8.559   9.019  10.027 -2.4311  1.8579 -2.3901
33960SOL     OW 5921   6.252   7.104   9.033 -0.2533  0.6749  0.0775
33960SOL    HW1 5922   6.340   7.128   9.061  0.3550 -1.4649  0.2123
33960SOL    HW2 5923   6.262   7.086   8.939 -0.1685 -0.9813  0.3767
33961SOL     OW 5924   1.343   9.083  10.080 -0.3072  0.3463  0.2305
33961SOL    HW1 5925   1.324   9.087  10.174 -0.7018 -0.1356  0.1713
33961SOL    HW2 5926   1.265   9.119  10.038 -0.4898 -0.2644  0.0497
33962SOL     OW 5927   1.096   1.059   7.202 -0.5844 -0.4497  0.1165
33962SOL    HW1 5928   1.156   1.131   7.220 -1.7417  0.6127 -0.1201
33962SOL    HW2 5929   1.082   1.062   7.108 -2.0319  0.2177  0.3087
33963SOL     OW 5930   1.918   2.985   0.447 -0.0787 -0.0303  0.8054
33963SOL    HW1 5931   1.936   2.893   0.426 -1.4331 -0.0115 -0.5596
33963SOL    HW2 5932   1.900   2.984   0.541  0.0140 -1.1332  0.8313
33964SOL     OW 5933   7.105   3.665   1.569 -0.0633 -0.1041  0.5036
33964SOL    HW1 5934   7.089   3.729   1.499 -2.0352  0.3875  1.3418
33964SOL    HW2 5935   7.200   3.654   1.569  0.2254  1.8261 -0.5553
33965SOL     OW 5936   1.588   8.225   4.043  0.4245 -0.8262 -0.2095
33965SOL    HW1 5937   1.621   8.313   4.065 -1.2014 -0.6915  2.0532
33965SOL    HW2 5938   1.667   8.172   4.031  1.4387  0.8346 -1.2714
33966SOL     OW 5939   0.957   1.243   9.758 -0.3966  0.1540 -0.3482
33966SOL    HW1 5940   0.994   1.327   9.785 -0.9069 -0.1321  1.3534
33966SOL    HW2 5941   0.933   1.200   9.840 -0.7569 -1.3781 -1.2224
33967SOL     OW 5942   8.177   1.746   1.704  0.0335  0.5303 -0.2181
33967SOL    HW1 5943   8.151   1.711   1.619 -0.8653 -0.8305  0.5819
33967SOL    HW2 5944   8.255   1.799   1.685 -0.4566  0.6888 -1.9468
33968SOL     OW 5945   7.044   3.932   4.095 -0.3911  0.0790 -0.5061
33968SOL    HW1 5946   7.038   3.867   4.025  0.9962 -2.1300  1.2903
33968SOL    HW2 5947   6.969   3.913   4.152 -0.3243  0.4524 -0.2903
33969SOL     OW 5948   2.501   6.066   1.069  0.2556  0.0348  0.3281
33969SOL    HW1 5949   2.505   6.137   1.005  0.1890  0.8650  1.2170
33969SOL    HW2 5950   2.489   5.987   1.016 -0.0964  0.7254 -0.6604
33970SOL     OW 5951   6.771   3.770   1.927 -0.1035 -0.1048  0.2971
33970SOL    HW1 5952   6.724   3.691   1.950 -0.7479 -0.1005 -0.9048
33970SOL    HW2 5953   6.790   3.813   2.011  0.4224 -1.6029  0.9690
33971SOL     OW 5954   0.698   0.963   2.466  0.2670  0.6042  0.3815
33971SOL    HW1 5955   0.634   0.998   2.404  1.2924  3.0230  0.5742
33971SOL    HW2 5956   0.687   0.868   2.461 -0.7089  0.7845 -2.3696
33972SOL     OW 5957   8.923   2.737   9.992 -0.0981 -0.0515 -0.6144
33972SOL    HW1 5958   8.840   2.734  10.040 -0.3477 -1.6723 -1.0724
33972SOL    HW2 5959   8.988   2.705  10.055 -0.1590 -0.6224 -0.8305
33973SOL     OW 5960   1.763   9.835  10.137 -0.7479 -0.1852 -0.2441
33973SOL    HW1 5961   1.812   9.774  10.193 -1.6031 -0.1247  0.5870
33973SOL    HW2 5962   1.676   9.838  10.176 -0.0265  3.7337  1.4639
33974SOL     OW 5963   6.469   1.911   1.416 -0.0991  0.0032  0.4105
33974SOL    HW1 5964   6.438   1.863   1.339 -0.5258  1.8042 -0.5885
33974SOL    HW2 5965   6.397   1.970   1.439  0.5497  0.4508  1.3660
33975SOL     OW 5966   8.313   6.273   5.403 -0.0972 -0.1583 -0.0328
33975SOL    HW1 5967   8.394   6.288   5.453 -0.5162 -0.0814  0.6336
33975SOL    HW2 5968   8.328   6.191   5.357 -1.0819 -2.3031  3.1495
33976SOL     OW 5969   6.203   2.489   1.178  0.2323  0.1365 -0.2489
33976SOL    HW1 5970   6.278   2.544   1.157  0.7492 -0.6318 -0.4657
33976SOL    HW2 5971   6.241   2.414   1.225 -0.6122  0.6536  1.3494
33977SOL     OW 5972   5.879   5.075   7.781 -0.2370 -0.2532 -0.1014
33977SOL    HW1 5973   5.875   5.123   7.699  0.4918 -0.7261 -0.4290
33977SOL    HW2 5974   5.836   4.991   7.762  0.9217 -0.8166 -0.3498
33978SOL     OW 5975   9.795   5.258   9.325  1.0228  0.4235  0.3120
33978SOL    HW1 5976   9.891   5.262   9.322  1.0882 -0.0199  1.2728
33978SOL    HW2 5977   9.770   5.216   9.243  1.6769  0.1691  0.2336
33979SOL     OW 5978   4.112   0.063   1.259 -0.2981 -0.5206  0.2321
33979SOL    HW1 5979   4.020   0.069   1.232 -0.7688  1.4927  2.0037
33979SOL    HW2 5980   4.113  -0.007   1.324 -0.2241 -1.6774 -0.9889
33980SOL     OW 5981   6.690   6.023   3.305 -0.0395 -0.0327 -0.5914
33980SOL    HW1 5982   6.635   6.014   3.227  0.3336 -0.6445 -0.7946
33980SOL    HW2 5983   6.638   5.984   3.376  0.0596 -0.4766 -0.7550
33981SOL     OW 5984   0.651   1.409   3.697 -0.0143 -0.0916 -0.4289
33981SOL    HW1 5985   0.574   1.461   3.720  0.4637  0.3156  0.3111
33981SOL    HW2 5986   0.721   1.444   3.753  1.2719  1.0151 -2.6128
33982SOL     OW 5987   7.566   4.303   2.129  0.2640 -0.4612  0.5181
33982SOL    HW1 5988   7.650   4.258   2.134  0.0811 -0.6406  2.6291
33982SOL    HW2 5989   7.511   4.244   2.077  0.4741 -1.9822  1.9510
33983SOL     OW 5990  10.150   6.760   6.746  0.0521  0.3626 -0.6821
33983SOL    HW1 5991  10.087   6.746   6.817  1.8721 -1.8822  0.6712
33983SOL    HW2 5992  10.155   6.675   6.702 -0.7490  1.6184 -3.3586
33984SOL     OW 5993   5.054   4.264   7.705  0.6426 -0.7873 -0.2715
33984SOL    HW1 5994   4.961   4.280   7.691  1.0536  1.9610 -0.4863
33984SOL    HW2 5995   5.065   4.267   7.800  0.9525  3.0949 -0.2369
33985SOL     OW 5996   6.514   2.546   3.785 -0.0497  0.6674  0.6002
33985SOL    HW1 5997   6.541   2.456   3.767 -1.8330  0.4712 -1.4596
33985SOL    HW2 5998   6.590   2.599   3.759  0.4559 -0.1631  0.3560
33986SOL     OW 5999   8.942   4.818   2.867 -0.1792  0.2472 -0.3602
33986SOL    HW1 6000   8.977   4.781   2.786 -1.0047  0.0067 -0.6145
33986SOL    HW2 6001   8.848   4.823   2.853 -0.2072  1.3474  0.1232
33987SOL     OW 6002   9.622   6.505   8.371 -0.3898  0.1937  0.7418
33987SOL    HW1 6003   9.603   6.420   8.410  1.4604 -0.2042  0.8752
33987SOL    HW2 6004   9.652   6.559   8.444  0.3188  0.3526  0.3414
33988SOL     OW 6005   9.501   5.289   0.802  0.0890 -0.3625 -0.0719
33988SOL    HW1 6006   9.537   5.377   0.795 -0.7156  0.1721  2.0400
33988SOL    HW2 6007   9.527   5.258   0.888  0.0206 -2.0546 -0.6193
33989SOL     OW 6008   1.628   2.060  10.042 -0.0423  0.1347  0.0174
33989SOL    HW1 6009   1.539   2.041  10.013 -0.3326  0.1604  0.8624
33989SOL    HW2 6010   1.677   1.980  10.024 -0.3868 -0.1034  0.1228
33990SOL     OW 6011   6.581   1.259   1.709  0.2063  0.1887  0.5979
33990SOL    HW1 6012   6.487   1.272   1.723 -0.1732 -0.9356 -0.6952
33990SOL    HW2 6013   6.610   1.211   1.787 -0.0059  1.5697  1.5769
33991SOL     OW 6014   7.557   4.891   4.081 -0.1751  0.0738  0.1520
33991SOL    HW1 6015   7.480   4.894   4.138 -0.8773  1.2193 -0.8240
33991SOL    HW2 6016   7.529   4.932   4.000  1.3476  0.1188 -0.3879
33992SOL     OW 6017   6.799   1.255   6.694  0.5169  0.1116  0.3575
33992SOL    HW1 6018   6.755   1.236   6.612  0.1467 -1.2775  0.8389
33992SOL    HW2 6019   6.833   1.344   6.684 -1.9643  1.0640 -0.2070
33993SOL     OW 6020   9.768   1.403   9.892 -0.1602 -0.0515  0.0514
33993SOL    HW1 6021   9.717   1.481   9.873 -0.4459 -0.0270  0.8636
33993SOL    HW2 6022   9.703   1.337   9.916  0.0426 -0.6896 -1.0757
33994SOL     OW 6023   9.579   2.227   3.531  0.2157 -0.3879 -0.4257
33994SOL    HW1 6024   9.549   2.210   3.441  3.3525  0.4472 -1.7698
33994SOL    HW2 6025   9.559   2.147   3.579 -1.4267 -0.9208 -1.8847
33995SOL     OW 6026   7.261   4.416  10.126  0.2708  0.4507 -0.2018
33995SOL    HW1 6027   7.190   4.384  10.182  0.9689 -1.1219 -0.1798
33995SOL    HW2 6028   7.217   4.467  10.058 -0.9036 -0.6176 -0.2729
33996SOL     OW 6029   8.110   2.386   9.419  0.6913  0.0864 -0.3687
33996SOL    HW1 6030   8.135   2.360   9.508  1.6767 -0.1298 -0.7049
33996SOL    HW2 6031   8.150   2.471   9.407  2.1943 -0.7100 -1.2817
33997SOL     OW 6032   7.094   1.093   7.367 -0.0583  0.2632  0.5388
33997SOL    HW1 6033   7.090   1.157   7.438  1.6884 -1.4134  2.2715
33997SOL    HW2 6034   7.181   1.106   7.328 -0.1538 -0.2683  0.1396
33998SOL     OW 6035   6.274   9.275   8.026 -0.4037 -0.3578  0.7069
33998SOL    HW1 6036   6.321   9.353   7.997 -0.0992 -0.1390  1.7492
33998SOL    HW2 6037   6.297   9.266   8.118  1.3779 -2.9432  0.1467
33999SOL     OW 6038   3.526   5.280   0.226  0.4107 -0.2541 -1.2032
33999SOL    HW1 6039   3.518   5.223   0.302  1.5457  0.0974 -0.7974
33999SOL    HW2 6040   3.527   5.368   0.262 -0.9408  0.0262 -1.7948
34000SOL     OW 6041   1.995  10.281  10.015  0.3476  0.5840 -0.3980
34000SOL    HW1 6042   1.974  10.207  10.072 -1.2254  0.2442 -1.3801
34000SOL    HW2 6043   1.966  10.358  10.064  0.3501  0.4213 -0.1379
34001SOL     OW 6044   3.911   0.270   0.204 -0.5723  0.1634  0.0852
34001SOL    HW1 6045   3.867   0.348   0.238 -1.0141 -0.6479  1.4292
34001SOL    HW2 6046   4.005   0.288   0.217 -0.6127  0.8441 -0.4840
34002SOL     OW 6047   8.807  10.147   0.760 -0.5756  0.1611  1.0549
34002SOL    HW1 6048   8.844  10.235   0.751  0.1084 -0.2466 -0.4848
34002SOL    HW2 6049   8.777  10.124   0.672 -0.9386 -1.0716  1.4710
34003SOL     OW 6050   7.855   3.743   3.075  0.2777 -0.1807 -0.0405
34003SOL    HW1 6051   7.843   3.672   3.138  0.8551 -0.0116  0.2682
34003SOL    HW2 6052   7.941   3.726   3.035 -0.0016 -0.1871 -0.6542
34004SOL     OW 6053   5.803   9.242   0.581 -0.6668 -0.0676 -0.5645
34004SOL    HW1 6054   5.877   9.181   0.579 -1.2591 -0.8666  0.4105
34004SOL    HW2 6055   5.740   9.201   0.641 -1.4383  1.1172 -0.5227
34005SOL     OW 6056   0.669   6.020   1.312 -0.4586  0.5883 -0.1338
34005SOL    HW1 6057   0.714   5.946   1.355 -0.9157 -0.5799 -1.5727
34005SOL    HW2 6058   0.685   6.094   1.370 -0.5877 -0.7767  1.7680
34006SOL     OW 6059  10.049   9.383   4.384  0.1967  0.2833 -0.0386
34006SOL    HW1 6060  10.056   9.293   4.418  1.8461  0.1440 -0.6627
34006SOL    HW2 6061   9.998   9.373   4.303  2.2076 -0.4958 -1.2991
34007SOL     OW 6062   0.657   9.194   5.709  0.2711  0.1137  0.5201
34007SOL    HW1 6063   0.643   9.281   5.670 -0.1341 -0.5351 -0.8227
34007SOL    HW2 6064   0.707   9.212   5.789  0.9894  1.5186 -0.2040
34008SOL     OW 6065   2.142   2.285   2.241  0.4139 -0.5285 -0.1612
34008SOL    HW1 6066   2.223   2.239   2.262  0.4524 -0.7363 -0.7534
34008SOL    HW2 6067   2.075   2.239   2.291  0.9875  1.2063  2.3764
34009SOL     OW 6068   5.484  10.195   8.159  0.0813 -0.1631 -0.4890
34009SOL    HW1 6069   5.468  10.238   8.075  2.8058  0.0804 -0.9721
34009SOL    HW2 6070   5.467  10.263   8.224  0.6717  0.5406 -1.0404
34010SOL     OW 6071   5.630   0.412   4.083 -0.0636  0.3184  0.3667
34010SOL    HW1 6072   5.705   0.435   4.138  0.5831 -0.0450 -0.3412
34010SOL    HW2 6073   5.586   0.342   4.131  0.5787 -0.1038  0.3607
34011SOL     OW 6074   3.750   9.097   8.249  0.3035  1.0962 -0.3831
34011SOL    HW1 6075   3.814   9.089   8.319 -0.6085  0.7861  0.4443
34011SOL    HW2 6076   3.800   9.087   8.168  1.1958  0.2491  0.2587
34012SOL     OW 6077   0.014   5.790   9.470  0.1271 -0.2595 -0.3239
34012SOL    HW1 6078   0.033   5.836   9.552  0.0131 -2.0459  0.7546
34012SOL    HW2 6079   0.096   5.791   9.422  0.9949 -1.6077  1.0725
34013SOL     OW 6080   0.470  10.111   0.646 -0.1726 -0.1905  0.0502
34013SOL    HW1 6081   0.448  10.079   0.559  1.0908  0.0488 -0.3772
34013SOL    HW2 6082   0.429  10.048   0.706 -1.1033 -0.3191 -0.7101
34014SOL     OW 6083   1.169   6.211   0.005  0.4442 -0.4603 -0.0259
34014SOL    HW1 6084   1.169   6.288  -0.052 -0.1649  0.0391  0.6280
34014SOL    HW2 6085   1.139   6.244   0.089 -2.4439 -1.8826 -0.3899
34015SOL     OW 6086   6.653   0.717   8.152  0.7935 -0.4180  0.2553
34015SOL    HW1 6087   6.711   0.706   8.077  0.1604  1.8429 -0.6441
34015SOL    HW2 6088   6.591   0.784   8.125 -0.8928 -1.1756  1.9977
34016SOL     OW 6089   6.771   0.274   8.611 -0.1866  0.2393 -0.3728
34016SOL    HW1 6090   6.720   0.195   8.627  1.5231 -1.3182 -2.0641
34016SOL    HW2 6091   6.791   0.308   8.699 -1.4769 -0.8210  0.3612
34017SOL     OW 6092   5.964   0.282   3.184 -0.2022  0.0191 -0.0711
34017SOL    HW1 6093   6.055   0.312   3.175  0.1410 -0.0307  2.4623
34017SOL    HW2 6094   5.922   0.309   3.103  2.1424 -0.2280 -1.4657
34018SOL     OW 6095   5.876   2.838   0.825  0.5296  0.5699  0.0033
34018SOL    HW1 6096   5.843   2.828   0.736 -0.3779  1.0422  0.2743
34018SOL    HW2 6097   5.959   2.790   0.826  0.5994  0.6536 -1.1201
34019SOL     OW 6098   7.551   6.335   4.878 -0.5669 -0.1743 -0.4122
34019SOL    HW1 6099   7.639   6.338   4.842 -1.1431 -0.3793 -1.9130
34019SOL    HW2 6100   7.554   6.393   4.955  0.3765  1.3971 -1.5865
34020SOL     OW 6101   1.722   7.190   6.445  0.4006 -0.0354 -0.4340
34020SOL    HW1 6102   1.810   7.225   6.431  1.1357 -1.3802  0.6406
34020SOL    HW2 6103   1.695   7.226   6.529 -0.0872  0.3674 -0.7579
34021SOL     OW 6104   0.101   6.936   2.619  0.1103 -0.0287  0.3212
34021SOL    HW1 6105   0.136   7.015   2.661 -0.1254 -1.0437  2.6047
34021SOL    HW2 6106   0.177   6.880   2.604  0.1756  0.2745 -0.5253
34022SOL     OW 6107   7.997   1.977   2.347  0.1562 -0.0248  0.2771
34022SOL    HW1 6108   8.035   1.983   2.259 -0.3706 -3.3872 -0.3162
34022SOL    HW2 6109   7.927   2.043   2.348  1.3038  1.2880 -1.1499
34023SOL     OW 6110   0.013   6.055  10.151  0.0771 -0.2126 -0.2923
34023SOL    HW1 6111  -0.041   6.041  10.074  1.1647 -2.1701 -0.7749
34023SOL    HW2 6112  -0.003   5.978  10.206  0.4994  0.3843  0.7140
34024SOL     OW 6113   8.568   2.229   9.881 -0.6787  0.5796  0.1305
34024SOL    HW1 6114   8.613   2.165   9.936  1.0174  0.6159 -1.1358
34024SOL    HW2 6115   8.546   2.181   9.801 -1.4802  0.9920  0.0923
34025SOL     OW 6116   3.374   2.976   3.703 -0.4177 -0.1921  0.6648
34025SOL    HW1 6117   3.435   2.929   3.760 -0.6133 -1.2410  0.0314
34025SOL    HW2 6118   3.419   2.978   3.618 -0.0753  1.4582  0.8553
34026SOL     OW 6119   5.552   8.447   3.262  0.3184 -0.3280 -0.1351
34026SOL    HW1 6120   5.549   8.365   3.311  0.1831  0.1407  0.6611
34026SOL    HW2 6121   5.645   8.459   3.242  0.5937  0.2333  1.3482
34027SOL     OW 6122   1.782   3.223   0.915  0.0750  0.4819  0.2924
34027SOL    HW1 6123   1.705   3.169   0.899  0.5127  0.5523 -2.5071
34027SOL    HW2 6124   1.747   3.307   0.944 -0.7992  0.0118  0.6271
34028SOL     OW 6125   9.820   7.685   2.613  0.2107  0.3670  0.1259
34028SOL    HW1 6126   9.799   7.653   2.525 -1.3685 -0.1512  0.6577
34028SOL    HW2 6127   9.881   7.757   2.598  1.5113 -0.9438 -1.2845
34029SOL     OW 6128   5.637   5.276   5.915  0.1373 -0.0796 -0.0372
34029SOL    HW1 6129   5.709   5.251   5.857 -0.2382  0.5807 -0.8065
34029SOL    HW2 6130   5.656   5.366   5.941 -1.0748  0.5965 -1.3478
34030SOL     OW 6131   0.889   4.495   6.755  0.1845  0.6650 -0.5012
34030SOL    HW1 6132   0.957   4.562   6.747  0.5253  0.3217 -0.4650
34030SOL    HW2 6133   0.871   4.470   6.664  1.3804 -0.5253 -0.4324
34031SOL     OW 6134   0.077  10.276   7.049 -0.3653  0.3334 -0.6111
34031SOL    HW1 6135   0.120  10.190   7.039 -0.8077  0.0951 -0.4815
34031SOL    HW2 6136   0.086  10.317   6.963  2.1144  1.2441 -0.0145
34032SOL     OW 6137   5.128   3.922   4.786 -0.2573 -0.2213  0.2341
34032SOL    HW1 6138   5.066   3.940   4.715 -0.3218 -0.7982  0.1356
34032SOL    HW2 6139   5.185   3.998   4.788 -1.3675  0.6210  0.7610
34033SOL     OW 6140   1.407   5.135   4.063  0.0566 -0.0522  0.0938
34033SOL    HW1 6141   1.355   5.056   4.051  1.0195 -0.5100 -1.2898
34033SOL    HW2 6142   1.363   5.182   4.134 -0.7330 -1.6472  0.7098
34034SOL     OW 6143   6.019   1.610   4.736  0.4378  0.1079  0.6439
34034SOL    HW1 6144   6.094   1.643   4.688  0.3433  0.4594  0.7386
34034SOL    HW2 6145   5.949   1.605   4.671 -0.0720  1.8605  1.0210
34035SOL     OW 6146   7.968   1.952   7.235  0.4796 -0.2288 -0.0634
34035SOL    HW1 6147   7.878   1.941   7.205  0.5994  1.7673 -1.2910
34035SOL    HW2 6148   7.961   1.998   7.319  0.3621  2.1564 -1.3094
34036SOL     OW 6149   6.634   1.059   8.389 -0.7308 -0.0015  0.6410
34036SOL    HW1 6150   6.592   1.046   8.304 -3.6154  0.4285  1.8840
34036SOL    HW2 6151   6.647   0.971   8.423 -0.7107 -0.1373  0.2917
34037SOL     OW 6152   9.768   8.459   9.793  0.4096  0.9126 -0.6887
34037SOL    HW1 6153   9.710   8.464   9.869 -0.5288 -0.0973 -1.2997
34037SOL    HW2 6154   9.734   8.525   9.733 -1.3120 -0.9028 -1.7997
34038SOL     OW 6155   7.842   9.222   9.778  0.0845 -1.0991  0.0080
34038SOL    HW1 6156   7.814   9.271   9.856  0.2351  0.4495 -0.8790
34038SOL    HW2 6157   7.936   9.235   9.774  0.0705 -1.1401 -0.4575
34039SOL     OW 6158   5.925   7.250  10.257 -0.0521  0.0761  0.5910
34039SOL    HW1 6159   5.952   7.342  10.266  1.6553 -0.2466 -0.6951
34039SOL    HW2 6160   5.971   7.219  10.179 -1.3691 -1.6218  0.4241
34040SOL     OW 6161   0.133   7.019   8.579 -0.5734  0.0043  0.1554
34040SOL    HW1 6162   0.085   7.089   8.534  0.1913 -1.0006 -2.4194
34040SOL    HW2 6163   0.215   7.061   8.607 -0.0855  0.1951 -1.4328
34041SOL     OW 6164   4.184   4.307   2.455  0.0585 -0.2805 -0.4159
34041SOL    HW1 6165   4.183   4.317   2.360 -3.3796 -0.0177 -0.4742
34041SOL    HW2 6166   4.204   4.214   2.469 -0.3009 -0.5291 -1.4355
34042SOL     OW 6167   7.833   4.459   8.435 -0.0740  0.2787  0.5444
34042SOL    HW1 6168   7.788   4.388   8.481 -1.3944 -0.3661 -1.5945
34042SOL    HW2 6169   7.925   4.433   8.435 -0.4846 -1.2614  0.1420
34043SOL     OW 6170   9.272   3.728   0.705 -0.2412  0.3162  0.2071
34043SOL    HW1 6171   9.273   3.823   0.697  0.6567  0.1885 -2.2432
34043SOL    HW2 6172   9.351   3.699   0.660 -0.7172 -1.6138  0.4903
34044SOL     OW 6173   6.807   3.048   1.320 -0.4767 -0.0893 -0.5410
34044SOL    HW1 6174   6.835   3.077   1.407  0.4741 -1.7351 -0.2611
34044SOL    HW2 6175   6.714   3.069   1.317 -0.5072  0.0885  0.8474
34045SOL     OW 6176   8.965   4.401  10.243  0.0745 -0.3893  0.0360
34045SOL    HW1 6177   8.953   4.442  10.158  0.8307 -2.5031 -1.1643
34045SOL    HW2 6178   9.051   4.431  10.273  0.4541 -0.7635 -0.6510
34046SOL     OW 6179   5.910   0.079  10.235 -0.9771 -0.4482  0.3123
34046SOL    HW1 6180   5.986   0.087  10.177 -0.8598 -0.4917  0.4574
34046SOL    HW2 6181   5.870  -0.004  10.211 -0.2416 -1.0468  1.0989
34047SOL     OW 6182   3.825   6.130   9.306 -0.4227 -0.0596  0.4879
34047SOL    HW1 6183   3.769   6.127   9.383  0.1452  0.4930  0.9368
34047SOL    HW2 6184   3.783   6.192   9.247 -0.6280 -0.1544  0.5330
34048SOL     OW 6185   6.578   7.897   3.193  0.2293  0.4198  0.2147
34048SOL    HW1 6186   6.606   7.933   3.277  0.8288  0.6249 -0.0671
34048SOL    HW2 6187   6.656   7.901   3.138 -0.0308 -0.1492 -0.2089
34049SOL     OW 6188   1.232   0.853   8.893 -0.0060  0.2748 -0.7628
34049SOL    HW1 6189   1.252   0.767   8.929  1.3097  0.6965 -0.4054
34049SOL    HW2 6190   1.180   0.835   8.815  0.2805 -0.8405 -0.7150
34050SOL     OW 6191   1.957   0.780   2.428  0.2050  0.4617  0.5325
34050SOL    HW1 6192   1.873   0.740   2.405  0.8132 -0.8831  0.5355
34050SOL    HW2 6193   2.011   0.768   2.350  1.2817 -1.2877  1.4815
34051SOL     OW 6194   4.081   5.783   9.168 -0.5430 -0.1174 -0.1786
34051SOL    HW1 6195   4.013   5.812   9.229 -0.8715  1.2191 -1.1221
34051SOL    HW2 6196   4.147   5.741   9.222 -1.6124 -0.4678  0.8864
34052SOL     OW 6197   7.408   8.699   9.352  0.2554 -0.2236  0.0590
34052SOL    HW1 6198   7.395   8.637   9.424 -2.5291  0.7847  0.5124
34052SOL    HW2 6199   7.494   8.738   9.370  0.2279 -0.9461  2.0612
34053SOL     OW 6200   3.174   5.374   0.206  0.1636 -0.3748  0.0353
34053SOL    HW1 6201   3.215   5.334   0.283 -1.4082  1.7482  2.0942
34053SOL    HW2 6202   3.111   5.308   0.176 -1.7647 -0.0053  2.8393
34054SOL     OW 6203   0.105   9.536   1.974 -0.1474 -0.1928  0.0522
34054SOL    HW1 6204   0.011   9.529   1.960 -0.6106 -1.5024  3.1035
34054SOL    HW2 6205   0.114   9.590   2.053  1.5623 -1.2249  0.6227
34055SOL     OW 6206   3.063   8.464   5.987  0.1333 -0.6225 -0.2129
34055SOL    HW1 6207   3.086   8.371   5.987 -0.1005 -0.6844  0.4973
34055SOL    HW2 6208   3.011   8.476   5.908 -0.3648 -1.2313  0.0151
34056SOL     OW 6209   1.466   1.542   5.865  0.4041 -0.3504 -0.0321
34056SOL    HW1 6210   1.528   1.516   5.932 -0.2035  1.4954  1.3342
34056SOL    HW2 6211   1.459   1.637   5.874 -2.7950 -0.4833  0.1078
34057SOL     OW 6212   7.071   5.125   6.584  0.6872 -0.6094  0.1919
34057SOL    HW1 6213   7.146   5.066   6.571  1.2713  0.0534  0.4861
34057SOL    HW2 6214   7.109   5.203   6.625 -0.1332 -0.1684  0.1260
34058SOL     OW 6215   1.407   2.875   7.588  0.2102  0.5597  0.7022
34058SOL    HW1 6216   1.498   2.905   7.586  0.8846 -1.3764 -0.2260
34058SOL    HW2 6217   1.411   2.790   7.631 -0.9100 -0.2924 -0.8220
34059SOL     OW 6218   9.479   9.179   8.944 -0.0343  0.2417  0.0874
34059SOL    HW1 6219   9.556   9.194   8.999 -0.3201  1.1177  0.2719
34059SOL    HW2 6220   9.504   9.215   8.858  0.0181 -0.1316 -0.0565
34060SOL     OW 6221  10.042   4.977   5.500 -0.4707  0.7210 -0.3151
34060SOL    HW1 6222  10.016   4.886   5.488 -1.6318  1.0599 -0.4637
34060SOL    HW2 6223  10.122   4.972   5.553  0.6515 -0.4683 -2.0091
34061SOL     OW 6224   9.597   3.119   4.040  0.1636  0.5810  0.1078
34061SOL    HW1 6225   9.528   3.177   4.007  0.6660  0.6855 -0.8135
34061SOL    HW2 6226   9.561   3.081   4.119 -1.4230 -0.2875 -0.9823
34062SOL     OW 6227   6.736  10.182   0.517  0.5208  0.2276 -0.9165
34062SOL    HW1 6228   6.736  10.267   0.474  0.5125  0.7827  0.1658
34062SOL    HW2 6229   6.779  10.197   0.601  0.8922 -0.9220 -0.8823
34063SOL     OW 6230   8.564  10.287   5.659  0.2908 -0.5944  0.3990
34063SOL    HW1 6231   8.583  10.194   5.672 -0.9650 -1.1175 -1.1946
34063SOL    HW2 6232   8.524  10.291   5.573  1.1853  1.5737  0.0247
34064SOL     OW 6233   6.394   9.731   3.729 -0.2002 -0.8751  0.2609
34064SOL    HW1 6234   6.410   9.637   3.736  0.5925 -0.6556  2.3153
34064SOL    HW2 6235   6.396   9.762   3.820  1.7481  1.4388 -0.4555
34065SOL     OW 6236   8.392   4.972   9.009  0.0675  0.2426 -0.2997
34065SOL    HW1 6237   8.440   5.052   9.028 -0.0142  0.0410  0.8245
34065SOL    HW2 6238   8.452   4.920   8.956  1.1340 -0.0114  1.0950
34066SOL     OW 6239   0.882   0.353   5.922 -0.2242 -0.2257 -0.1613
34066SOL    HW1 6240   0.901   0.281   5.861 -0.6048  0.4016 -1.0276
34066SOL    HW2 6241   0.894   0.314   6.009  0.7576 -1.0100 -0.6360
34067SOL     OW 6242   1.509   0.141   2.685 -0.6044 -0.1642 -0.8358
34067SOL    HW1 6243   1.457   0.220   2.703 -1.1622 -0.6272 -0.3724
34067SOL    HW2 6244   1.599   0.173   2.680 -0.5136  0.2184  1.6681
34068SOL     OW 6245   6.547   1.456   0.271 -0.3743  0.1128 -0.1885
34068SOL    HW1 6246   6.636   1.483   0.291  0.1280 -1.3374 -0.3306
34068SOL    HW2 6247   6.510   1.529   0.222  0.6353  0.8544  0.1245
34069SOL     OW 6248   4.991   0.969   9.340 -0.2141 -0.0739  0.2731
34069SOL    HW1 6249   5.024   1.059   9.340 -1.4805  0.4117  0.5613
34069SOL    HW2 6250   5.034   0.928   9.415  0.1866  0.3729  0.2899
34070SOL     OW 6251   0.996   5.343   3.884 -0.2899  0.3226  0.6954
34070SOL    HW1 6252   1.068   5.321   3.824  0.5369 -1.3691  2.2059
34070SOL    HW2 6253   1.008   5.284   3.958 -1.7599  1.7910  2.1772
34071SOL     OW 6254   4.928   7.945   0.855  0.3159  0.5916  0.0947
34071SOL    HW1 6255   4.877   7.930   0.775  1.6349  0.8790 -0.8394
34071SOL    HW2 6256   4.867   7.985   0.915 -1.2881 -1.5117 -0.0067
34072SOL     OW 6257   2.217   2.073   2.987 -0.1783  0.4540 -0.2489
34072SOL    HW1 6258   2.164   2.129   2.930  0.4720  1.3624  0.0198
34072SOL    HW2 6259   2.153   2.032   3.046 -0.7005  0.6142 -0.6969
34073SOL     OW 6260   0.143   4.208   5.892  0.2722  0.1789 -0.3894
34073SOL    HW1 6261   0.178   4.178   5.976 -1.5374 -0.9344  0.0291
34073SOL    HW2 6262   0.121   4.127   5.845  0.8295  0.7964 -1.7669
34074SOL     OW 6263   0.859   8.957   5.923 -0.1526 -0.3184 -0.3275
34074SOL    HW1 6264   0.818   9.006   5.995 -1.1856 -0.6684 -0.6509
34074SOL    HW2 6265   0.863   9.020   5.851  0.6669 -0.0360 -0.0419
34075SOL     OW 6266   6.568   8.059   8.943  0.4528 -0.9318 -0.0589
34075SOL    HW1 6267   6.486   8.066   8.991  0.6367 -2.0696  0.4700
34075SOL    HW2 6268   6.568   8.134   8.884 -0.7657 -0.6770  0.2321
34076SOL     OW 6269   2.337   9.340   6.328  0.0450  0.2458 -0.1628
34076SOL    HW1 6270   2.256   9.383   6.356  0.3519  0.5515  0.2677
34076SOL    HW2 6271   2.309   9.252   6.303 -0.2038 -0.1791  1.4825
34077SOL     OW 6272   9.427   4.672   2.119  0.1152  0.2273  0.3696
34077SOL    HW1 6273   9.478   4.594   2.099 -0.9997 -0.2814 -0.6094
34077SOL    HW2 6274   9.343   4.658   2.076  0.1765  2.3585 -0.6091
34078SOL     OW 6275   9.592   9.094   7.565  0.0478 -0.0395 -0.2158
34078SOL    HW1 6276   9.617   9.126   7.652  1.6669  0.6484 -0.8989
34078SOL    HW2 6277   9.557   9.172   7.521  0.2117 -0.1412 -0.5268
34079SOL     OW 6278   3.072   4.272   3.812  1.2566 -0.3606  0.5126
34079SOL    HW1 6279   3.030   4.302   3.892 -0.7108  1.2490 -1.0172
34079SOL    HW2 6280   3.041   4.182   3.801 -0.7406  0.3127  0.1905
34080SOL     OW 6281   5.093   0.548   3.278 -0.5223  0.1915  0.6536
34080SOL    HW1 6282   5.093   0.454   3.297 -2.8568 -0.0398 -0.2241
34080SOL    HW2 6283   5.088   0.590   3.364  1.4240 -0.4141  1.1087
34081SOL     OW 6284   5.098  10.060   5.111  0.1415  0.3203  0.3870
34081SOL    HW1 6285   5.051  10.097   5.185 -1.3989 -1.2143  0.2516
34081SOL    HW2 6286   5.030  10.017   5.058  1.2463  0.9990 -1.7015
34082SOL     OW 6287   3.756   2.436   4.999 -0.1404  0.2417 -0.2305
34082SOL    HW1 6288   3.839   2.444   5.046  0.1501 -1.4850 -0.4155
34082SOL    HW2 6289   3.752   2.515   4.945  1.3285  0.4058 -0.1357
34083SOL     OW 6290   1.771   6.938  10.008 -0.2919  0.2793  0.4794
34083SOL    HW1 6291   1.728   6.862  10.049  1.5057 -0.7644  0.5671
34083SOL    HW2 6292   1.780   6.913   9.916 -1.1120  1.0980  0.1629
34084SOL     OW 6293   9.441   6.277   9.986  0.0024  0.3037 -0.3721
34084SOL    HW1 6294   9.523   6.243   9.951 -0.2846  0.7792 -1.5212
34084SOL    HW2 6295   9.441   6.246  10.077  2.1690  1.5608  0.1296
34085SOL     OW 6296   5.282   8.171   5.989  0.0843 -0.5910 -0.0911
34085SOL    HW1 6297   5.360   8.116   5.998 -1.1689 -2.4836 -0.1853
34085SOL    HW2 6298   5.253   8.156   5.899  1.2248  2.4674 -1.1050
34086SOL     OW 6299   3.204   2.017   1.514  0.1795 -0.5014  0.6006
34086SOL    HW1 6300   3.197   1.921   1.507  2.3360 -0.6501 -0.4565
34086SOL    HW2 6301   3.161   2.050   1.436 -1.1545 -0.5315  1.2912
34087SOL     OW 6302   6.831   4.978   0.192 -0.2610  0.2874 -0.2408
34087SOL    HW1 6303   6.753   5.033   0.187  0.6861  1.6676 -0.3039
34087SOL    HW2 6304   6.863   4.989   0.282 -1.0327 -1.5900  0.3187
34088SOL     OW 6305   0.317   4.276   0.077 -0.3602 -0.4236 -0.0719
34088SOL    HW1 6306   0.328   4.240   0.165 -0.5504  2.2971  1.1944
34088SOL    HW2 6307   0.352   4.209   0.019 -0.3098 -2.3742  2.0521
34089SOL     OW 6308   1.960   3.923   8.589 -0.2416  0.5412 -0.1959
34089SOL    HW1 6309   1.991   3.946   8.676 -0.6362 -3.4144  1.1963
34089SOL    HW2 6310   2.038   3.892   8.542 -0.0778  2.3906 -1.2431
34090SOL     OW 6311   6.110   3.498   1.817  0.2590  0.0081 -0.4537
34090SOL    HW1 6312   6.115   3.445   1.737  0.8014 -0.0148 -0.4082
34090SOL    HW2 6313   6.034   3.555   1.804 -0.9006 -1.3853 -0.1292
34091SOL     OW 6314   2.873   1.978   7.658 -0.4784 -0.1926 -0.2473
34091SOL    HW1 6315   2.814   2.035   7.705  1.7259  1.6697  0.4648
34091SOL    HW2 6316   2.935   1.947   7.725 -0.8578 -2.4823 -0.8547
34092SOL     OW 6317   4.118   2.567   4.297  0.6981 -0.1336 -0.2834
34092SOL    HW1 6318   4.143   2.537   4.385 -0.2826 -0.3188 -0.0566
34092SOL    HW2 6319   4.147   2.658   4.294  1.8286 -0.4739 -0.2168
34093SOL     OW 6320   1.551   3.441   7.530 -0.5127  0.3182 -0.1321
34093SOL    HW1 6321   1.584   3.393   7.606 -0.0683 -0.1797 -0.6334
34093SOL    HW2 6322   1.494   3.509   7.567 -1.2985 -0.6978  0.5780
34094SOL     OW 6323   9.279   1.412   0.167  0.4378  0.5500 -0.8850
34094SOL    HW1 6324   9.351   1.446   0.220  0.2252  0.7929 -0.7523
34094SOL    HW2 6325   9.213   1.481   0.168 -1.2535 -0.9321  1.8031
34095SOL     OW 6326   1.454   6.808   9.536  0.1047 -0.0234  0.0923
34095SOL    HW1 6327   1.458   6.719   9.572  0.0504  0.8019  2.2781
34095SOL    HW2 6328   1.388   6.852   9.589 -1.7652  0.6784 -2.6195
34096SOL     OW 6329   9.256   6.123   8.753  0.1660  0.2017  0.0679
34096SOL    HW1 6330   9.209   6.095   8.674  3.0887 -3.6149 -0.6526
34096SOL    HW2 6331   9.266   6.217   8.743 -0.7651  0.0815 -3.4476
34097SOL     OW 6332   8.253   9.919  10.147 -0.2405 -0.0496 -0.0049
34097SOL    HW1 6333   8.202   9.853  10.099 -0.2586  0.1513 -0.2652
34097SOL    HW2 6334   8.316   9.952  10.082 -0.4561  0.4296  0.0299
34098SOL     OW 6335   0.746   2.914   2.400  0.0768  0.1825 -0.2381
34098SOL    HW1 6336   0.690   2.991   2.385 -1.3937 -0.8006 -0.0288
34098SOL    HW2 6337   0.739   2.897   2.494  0.8101  0.0872 -0.1955
34099SOL     OW 6338   1.174   4.955   1.164  0.3225 -0.5554  0.0220
34099SOL    HW1 6339   1.232   4.881   1.149  1.9190  0.9112 -1.4550
34099SOL    HW2 6340   1.223   5.014   1.220 -0.1922  0.1734 -0.2730
34100SOL     OW 6341   9.110   7.865   2.902 -0.1255  0.1196  0.1213
34100SOL    HW1 6342   9.114   7.795   2.967  0.4877  1.5715  1.7166
34100SOL    HW2 6343   9.021   7.861   2.868 -0.3020 -0.9844  0.6686
34101SOL     OW 6344   2.418   9.222   8.611  0.0354  0.7667  0.6349
34101SOL    HW1 6345   2.342   9.246   8.664 -0.5088 -0.9344  0.7001
34101SOL    HW2 6346   2.456   9.306   8.583  0.2531  1.7255  3.5110
34102SOL     OW 6347   1.595   2.188   5.060  0.2573  0.8130  0.3869
34102SOL    HW1 6348   1.617   2.119   4.997  1.5550  0.7819  0.8386
34102SOL    HW2 6349   1.501   2.200   5.051  0.3007  0.2587 -0.9984
34103SOL     OW 6350   1.341   7.837   7.211  0.3661 -0.0920  0.2801
34103SOL    HW1 6351   1.284   7.913   7.203  0.3011 -0.0399  1.1320
34103SOL    HW2 6352   1.282   7.765   7.234  0.7955  0.3205  3.0207
34104SOL     OW 6353   5.950   5.875   9.758  0.1000 -0.0678 -0.0049
34104SOL    HW1 6354   5.931   5.789   9.795  0.6100  0.1175  0.7204
34104SOL    HW2 6355   5.910   5.874   9.671 -1.1557 -0.5172  0.5570
34105SOL     OW 6356   8.993   2.929   1.196  0.3551 -0.0050 -0.4706
34105SOL    HW1 6357   8.931   2.864   1.163 -1.7634  1.7403 -0.1299
34105SOL    HW2 6358   8.971   3.010   1.149  0.6673  1.2863  1.5027
34106SOL     OW 6359   8.787   4.785   9.062 -0.3902 -0.3049  0.0555
34106SOL    HW1 6360   8.728   4.840   9.113 -0.8995 -0.3512 -0.4692
34106SOL    HW2 6361   8.733   4.711   9.034 -0.3857  0.1600 -1.2865
34107SOL     OW 6362   0.076   9.655   5.533 -0.4712 -0.4728  0.2568
34107SOL    HW1 6363   0.059   9.656   5.439  0.4265 -0.5612  0.0889
34107SOL    HW2 6364  -0.005   9.689   5.572  0.0785  2.1032 -0.6787
34108SOL     OW 6365   5.958   2.389   3.233  0.2557 -0.2292  0.3487
34108SOL    HW1 6366   5.922   2.468   3.193  0.7639 -0.4761 -0.6195
34108SOL    HW2 6367   6.013   2.420   3.304 -0.1999  0.2472  0.4966
34109SOL     OW 6368   5.219   8.133   8.786  0.5337  0.5314  0.1115
34109SOL    HW1 6369   5.274   8.082   8.726 -1.4532 -0.4883 -0.9349
34109SOL    HW2 6370   5.202   8.215   8.740  2.9880  1.9092  1.4236
34110SOL     OW 6371   2.480   1.045   1.354  0.0627 -0.5353 -0.0222
34110SOL    HW1 6372   2.440   1.117   1.305  0.1254  0.1011  0.8464
34110SOL    HW2 6373   2.447   1.055   1.443  1.0930 -0.8088  0.4025
34111SOL     OW 6374   5.834   0.905   5.188  0.0865 -0.4386  0.0654
34111SOL    HW1 6375   5.899   0.879   5.123 -0.2826  0.5567 -0.7280
34111SOL    HW2 6376   5.881   0.906   5.271  0.8216 -0.7224 -0.3427
34112SOL     OW 6377   0.854   6.962   8.674  0.0042 -0.0830 -0.2022
34112SOL    HW1 6378   0.856   7.025   8.745 -0.1967 -0.4512  0.1346
34112SOL    HW2 6379   0.923   6.899   8.695  0.3052  0.1015 -0.6138
34113SOL     OW 6380   1.240   0.791   8.104 -0.4780  0.7089 -0.3895
34113SOL    HW1 6381   1.311   0.728   8.092 -0.3752 -0.2464  3.6683
34113SOL    HW2 6382   1.161   0.743   8.077 -0.0174  0.1194 -0.6957
34114SOL     OW 6383   4.943   0.406   2.336 -0.1713  0.2277  0.3470
34114SOL    HW1 6384   4.984   0.387   2.421 -0.7668 -2.3673  0.1411
34114SOL    HW2 6385   4.984   0.344   2.276  0.2144  1.9929 -1.3087
34115SOL     OW 6386   6.173   7.112   6.041  0.1308  0.3208  0.5614
34115SOL    HW1 6387   6.267   7.102   6.058 -0.1239 -2.3873  0.7500
34115SOL    HW2 6388   6.131   7.059   6.109 -1.4717  0.3941 -0.3421
34116SOL     OW 6389   7.711   4.975   8.538  0.7277  0.2725 -0.0157
34116SOL    HW1 6390   7.805   4.960   8.553  0.4471  0.3188  2.0837
34116SOL    HW2 6391   7.679   4.892   8.502  1.0990 -0.7244  1.8289
34117SOL     OW 6392   1.862   3.651  10.075  0.1231  0.2376 -0.0157
34117SOL    HW1 6393   1.877   3.594  10.000 -0.2708 -0.6804  0.5835
34117SOL    HW2 6394   1.772   3.681  10.066  0.6376  1.6418 -0.8837
34118SOL     OW 6395   6.315   0.521   1.269 -0.0454  0.5352  0.3973
34118SOL    HW1 6396   6.383   0.506   1.334  1.8499  1.0193 -1.3649
34118SOL    HW2 6397   6.312   0.616   1.259 -1.0626  0.5258  0.5147
34119SOL     OW 6398   4.063   5.048   3.759 -0.4164  0.4599 -0.1706
34119SOL    HW1 6399   4.075   5.133   3.717  0.9742  0.6291  0.5140
34119SOL    HW2 6400   3.973   5.051   3.793 -0.8620  1.0986 -1.3400
34120SOL     OW 6401   7.491   8.129   4.204  0.5767  0.3469 -0.2485
34120SOL    HW1 6402   7.586   8.119   4.213  0.3978 -2.0397 -0.2403
34120SOL    HW2 6403   7.472   8.093   4.118 -0.4479 -0.4575  0.2914
34121SOL     OW 6404   0.282   7.153   6.607  0.0276  0.1216  0.5480
34121SOL    HW1 6405   0.361   7.198   6.637  0.3809 -0.5547  0.6577
34121SOL    HW2 6406   0.314   7.093   6.539 -0.7466  1.6462 -1.2595
34122SOL     OW 6407   2.730   7.377   9.421  0.3514  0.0793  0.6827
34122SOL    HW1 6408   2.661   7.420   9.371  0.4786 -0.6537 -0.1581
34122SOL    HW2 6409   2.792   7.346   9.355  0.5938 -0.8062  1.3015
34123SOL     OW 6410   8.933   0.988   9.809 -0.6562 -0.3381  0.0850
34123SOL    HW1 6411   8.896   0.900   9.797  0.5906 -0.8138 -0.5007
34123SOL    HW2 6412   9.028   0.974   9.809 -0.4368  1.0119  0.0004
34124SOL     OW 6413   0.452   4.348   5.324  0.1921 -0.2731 -0.2738
34124SOL    HW1 6414   0.443   4.259   5.290  0.7778 -0.2751 -0.4358
34124SOL    HW2 6415   0.363   4.383   5.323  0.1061 -0.4882 -1.2111
34125SOL     OW 6416   3.754   4.632   7.092 -0.8891  0.0058 -0.0354
34125SOL    HW1 6417   3.731   4.649   7.183 -0.2294 -0.5695  0.2429
34125SOL    HW2 6418   3.846   4.608   7.095 -0.6181  0.8677 -0.9634
34126SOL     OW 6419   8.407   2.892   5.298  0.3386 -0.6573 -0.2264
34126SOL    HW1 6420   8.498   2.914   5.275  0.7228 -0.5787  1.2556
34126SOL    HW2 6421   8.396   2.802   5.268  1.0000 -0.7521 -0.2138
34127SOL     OW 6422   2.962   6.758   5.722  0.1515 -0.4521  0.1737
34127SOL    HW1 6423   3.035   6.798   5.770 -0.3228 -1.2179  1.5604
34127SOL    HW2 6424   2.918   6.832   5.680  1.2550  0.1024 -0.0412
34128SOL     OW 6425   5.703   2.859   9.790  0.0852  0.0104 -0.6053
34128SOL    HW1 6426   5.774   2.842   9.729 -0.1722 -0.2184 -0.8441
34128SOL    HW2 6427   5.716   2.797   9.861 -1.0064 -1.4170 -1.6018
34129SOL     OW 6428   7.100   8.307   1.386  0.2204 -0.2593  0.0045
34129SOL    HW1 6429   7.148   8.303   1.469  1.8749  0.5979 -0.8594
34129SOL    HW2 6430   7.100   8.400   1.363  0.8013 -0.6171 -1.5107
34130SOL     OW 6431   6.797   1.368   4.202 -0.0658  0.1918  0.2541
34130SOL    HW1 6432   6.874   1.325   4.165 -1.1180  0.4867 -2.5716
34130SOL    HW2 6433   6.726   1.304   4.189 -0.6625  0.6856  0.9978
34131SOL     OW 6434   1.305   5.861   9.082  0.4209 -0.1193 -0.0853
34131SOL    HW1 6435   1.375   5.842   9.019  1.3159  0.2871  0.7739
34131SOL    HW2 6436   1.293   5.956   9.076  0.1604 -0.1460  0.0085
34132SOL     OW 6437   1.118   3.882   6.581  0.4565 -0.0840 -0.0333
34132SOL    HW1 6438   1.103   3.939   6.656 -0.6800 -0.2798 -0.1030
34132SOL    HW2 6439   1.048   3.903   6.520 -0.2083 -1.7808  0.0888
34133SOL     OW 6440   9.002   9.686   0.874  0.6072 -0.0752 -0.1560
34133SOL    HW1 6441   8.977   9.623   0.806  0.8587  0.3559 -0.6492
34133SOL    HW2 6442   8.918   9.711   0.914  0.5030 -0.7041  0.0311
34134SOL     OW 6443   4.708   0.247  10.025 -0.4954 -0.2412 -0.1083
34134SOL    HW1 6444   4.680   0.241   9.934 -3.7418 -1.6342  0.8224
34134SOL    HW2 6445   4.729   0.157  10.049 -3.4240 -0.6605  1.4076
34135SOL     OW 6446   1.920   3.144   1.524 -0.2062  0.8259 -0.1791
34135SOL    HW1 6447   1.999   3.167   1.476  0.2055  0.4646  0.3102
34135SOL    HW2 6448   1.946   3.144   1.616 -0.8891  1.1437  0.0240
34136SOL     OW 6449   9.866   1.521   3.333  0.4125  0.4845  0.3435
34136SOL    HW1 6450   9.814   1.565   3.266  0.4616  0.2942  0.1803
34136SOL    HW2 6451   9.945   1.575   3.342  0.2464  0.7006  0.4968
34137SOL     OW 6452   0.232   0.350   9.104 -0.5348  0.3022 -0.6377
34137SOL    HW1 6453   0.229   0.444   9.087 -1.6379 -0.0607 -2.7389
34137SOL    HW2 6454   0.191   0.341   9.190 -1.0160  1.7006 -0.6883
34138SOL     OW 6455   9.637   8.129   0.799  0.0005  0.5157  0.5229
34138SOL    HW1 6456   9.562   8.185   0.818 -0.2835  0.8325 -1.3228
34138SOL    HW2 6457   9.601   8.040   0.797 -0.2617  0.6296  0.0097
34139SOL     OW 6458   4.365   6.667   4.568 -0.7782 -0.3299  0.3153
34139SOL    HW1 6459   4.352   6.746   4.514  1.5617  0.1630  0.3453
34139SOL    HW2 6460   4.281   6.654   4.612 -1.5370  1.5715 -0.4453
34140SOL     OW 6461   7.891   2.915   8.821 -0.0455 -0.1355  0.3642
34140SOL    HW1 6462   7.821   2.889   8.761 -1.2607  1.4494  1.0356
34140SOL    HW2 6463   7.856   2.898   8.908  1.0664 -0.8520  0.6964
34141SOL     OW 6464   1.906   6.598   6.835 -0.0564  0.1655 -0.3057
34141SOL    HW1 6465   1.982   6.568   6.885 -0.7928  0.9681  1.3814
34141SOL    HW2 6466   1.874   6.674   6.883 -0.8581  0.9686 -2.0011
34142SOL     OW 6467   3.732   7.098   3.574 -0.2211  0.1661  0.2591
34142SOL    HW1 6468   3.683   7.180   3.570 -0.1832  0.2572  1.2531
34142SOL    HW2 6469   3.796   7.112   3.644 -1.0869 -1.1674  1.3789
34143SOL     OW 6470   2.983   8.051   9.240 -0.2291  0.1710  0.6276
34143SOL    HW1 6471   2.978   8.071   9.147  0.0940  2.7380  1.0802
34143SOL    HW2 6472   3.077   8.056   9.261 -0.4120  1.0659  1.3260
34144SOL     OW 6473   3.312   9.464   7.065  0.8130  0.0911  0.4426
34144SOL    HW1 6474   3.295   9.529   6.996  1.6400  1.5971  1.5941
34144SOL    HW2 6475   3.227   9.447   7.104  0.4190 -0.3788 -0.5959
34145SOL     OW 6476   2.767   0.541  10.247 -0.4827  0.1735  0.2773
34145SOL    HW1 6477   2.794   0.574  10.162  1.4474  0.5461  0.9824
34145SOL    HW2 6478   2.745   0.619  10.298  1.1861  0.2240  0.9951
34146SOL     OW 6479   3.002   6.253   3.792  0.2351  0.1296  0.3098
34146SOL    HW1 6480   3.084   6.204   3.782 -0.7435 -2.2314  2.6314
34146SOL    HW2 6481   2.967   6.260   3.703  2.5488  0.6086 -0.6480
34147SOL     OW 6482   9.868   7.889   7.522  0.4613  0.1716  0.3831
34147SOL    HW1 6483   9.923   7.938   7.461  0.0537 -1.1849 -1.1381
34147SOL    HW2 6484   9.780   7.898   7.487  0.2296 -0.7299  0.7185
34148SOL     OW 6485   0.537   8.910   6.300  0.0008  0.7489  0.2442
34148SOL    HW1 6486   0.510   8.916   6.209 -0.7849 -0.1289  0.3980
34148SOL    HW2 6487   0.490   8.834   6.334 -0.7161  1.8098  1.7311
34149SOL     OW 6488   1.065   9.321   5.000  0.2693  0.3401 -0.1979
34149SOL    HW1 6489   1.012   9.387   4.955  0.0799 -0.3545 -1.0177
34149SOL    HW2 6490   1.126   9.372   5.053  0.0701  1.1718 -0.7431
34150SOL     OW 6491   8.676   8.669   0.336  0.0823 -0.3891  0.6692
34150SOL    HW1 6492   8.742   8.732   0.363 -0.3039 -0.2891  1.3914
34150SOL    HW2 6493   8.710   8.632   0.254  0.8237 -0.0322  0.8116
34151SOL     OW 6494   4.234   6.974   2.909 -0.0913  0.3085 -0.0521
34151SOL    HW1 6495   4.202   6.887   2.933 -0.7086  0.8328  1.0929
34151SOL    HW2 6496   4.155   7.025   2.891  0.2939  0.4252 -1.5366
34152SOL     OW 6497   2.561   7.746   2.935  0.1351  0.4350 -0.0143
34152SOL    HW1 6498   2.576   7.721   2.843  0.1633  0.1598  0.0633
34152SOL    HW2 6499   2.468   7.768   2.939 -0.1012 -0.5329  0.1099
34153SOL     OW 6500  10.261   0.907   4.652 -0.4177 -0.2773 -0.0176
34153SOL    HW1 6501  10.182   0.922   4.703 -1.9229 -0.7995 -2.0514
34153SOL    HW2 6502  10.247   0.821   4.611  1.9824 -1.1780  0.8721
34154SOL     OW 6503   0.132   4.410   7.114  0.3796 -0.0307 -0.1403
34154SOL    HW1 6504   0.107   4.360   7.036 -0.6883 -1.0294  0.7992
34154SOL    HW2 6505   0.078   4.489   7.109 -0.8296 -0.8081  0.3587
34155SOL     OW 6506   3.285   6.630   1.359 -0.3460  0.0400  0.1954
34155SOL    HW1 6507   3.307   6.717   1.324 -0.3625 -0.2445 -0.5415
34155SOL    HW2 6508   3.370   6.592   1.382 -0.3767  0.4499  1.0220
34156SOL     OW 6509   3.984   8.388   8.399  0.1369  0.5027  0.1929
34156SOL    HW1 6510   3.898   8.430   8.393 -0.1723  0.0545  1.2576
34156SOL    HW2 6511   3.986   8.326   8.326 -0.3157  0.7294 -0.0168
34157SOL     OW 6512   5.094   5.388   6.823 -0.8039 -0.2020 -0.3321
34157SOL    HW1 6513   5.042   5.373   6.744 -2.8511  0.5974  0.8043
34157SOL    HW2 6514   5.093   5.303   6.868 -0.2229 -0.4641 -0.7891
34158SOL     OW 6515   4.436   0.757   1.869  0.0934  0.1363 -0.1910
34158SOL    HW1 6516   4.388   0.738   1.950 -0.3948  0.7527 -0.3259
34158SOL    HW2 6517   4.468   0.672   1.840 -1.6468 -0.4483 -0.5522
34159SOL     OW 6518   5.551   3.541   0.205  0.5792  0.1576  0.1195
34159SOL    HW1 6519   5.538   3.592   0.125  0.2655  1.4727  0.9699
34159SOL    HW2 6520   5.462   3.525   0.238  0.7376  1.2764  1.1712
34160SOL     OW 6521   4.659   6.863   2.782  0.3748 -0.1945  0.3389
34160SOL    HW1 6522   4.598   6.898   2.718  0.4052  2.2090  1.5108
34160SOL    HW2 6523   4.604   6.813   2.843  0.2966 -2.1333 -1.2108
34161SOL     OW 6524   0.165   0.888   4.272 -0.0241  0.0642  0.3878
34161SOL    HW1 6525   0.127   0.801   4.265 -0.6881  0.4576 -1.6245
34161SOL    HW2 6526   0.260   0.874   4.271 -0.1281 -0.6041 -0.5133
34162SOL     OW 6527   7.558   0.531   0.494 -0.9296  0.3116 -0.2543
34162SOL    HW1 6528   7.552   0.575   0.410  2.0068  0.4058 -0.5207
34162SOL    HW2 6529   7.572   0.439   0.472  2.0157  0.6118 -0.0692
34163SOL     OW 6530   1.867   4.151   9.282 -0.2395  0.0209 -0.0908
34163SOL    HW1 6531   1.926   4.158   9.358  2.5965 -2.6843 -1.8572
34163SOL    HW2 6532   1.814   4.073   9.300 -0.4686  0.1184 -0.3425
34164SOL     OW 6533   3.374   4.711   3.397 -0.5650  0.0693  0.1616
34164SOL    HW1 6534   3.443   4.724   3.462  0.7416 -1.3972 -0.8462
34164SOL    HW2 6535   3.302   4.673   3.447 -0.5610  1.3709  1.1886
34165SOL     OW 6536   3.122   6.134  10.208 -0.2396 -0.2133 -0.0831
34165SOL    HW1 6537   3.210   6.171  10.197 -0.3199  0.7683  2.1292
34165SOL    HW2 6538   3.088   6.126  10.119  2.3600 -1.3571 -1.0816
34166SOL     OW 6539   3.634   9.439   0.176  0.4593 -0.0458  0.1803
34166SOL    HW1 6540   3.655   9.403   0.090 -1.0744  0.3874 -0.4092
34166SOL    HW2 6541   3.680   9.382   0.238  0.2001 -1.4329 -0.8484
34167SOL     OW 6542   7.146   3.466   5.215 -0.2105  0.2253 -0.4061
34167SOL    HW1 6543   7.200   3.545   5.210  0.9675 -0.5481 -0.2458
34167SOL    HW2 6544   7.195   3.400   5.167 -0.8246 -0.6057  0.0753
34168SOL     OW 6545   0.910   1.550   8.574  0.2538 -0.2004 -0.4756
34168SOL    HW1 6546   0.919   1.582   8.484  2.3380  1.4165  0.2271
34168SOL    HW2 6547   0.993   1.572   8.616 -0.8532 -0.4055  2.0280
34169SOL     OW 6548   4.792   3.528   2.873  0.4802 -0.7847  0.1342
34169SOL    HW1 6549   4.785   3.442   2.832  0.3678 -0.8818  0.3569
34169SOL    HW2 6550   4.875   3.526   2.919  0.4306 -0.8096  0.2223
34170SOL     OW 6551   5.751   8.998   2.071 -0.9415  0.3159  0.0693
34170SOL    HW1 6552   5.765   8.964   2.160  1.7910 -0.1242 -0.4335
34170SOL    HW2 6553   5.741   8.919   2.017 -1.2692  0.5470 -0.2143
34171SOL     OW 6554   8.067   1.141   3.953 -0.5208  0.6101  0.0283
34171SOL    HW1 6555   8.056   1.049   3.929  2.0370  0.1867  0.1893
34171SOL    HW2 6556   8.023   1.190   3.883 -1.6568 -0.7156 -0.2142
34172SOL     OW 6557   0.403   7.495   4.496  0.0227 -0.2336  0.1049
34172SOL    HW1 6558   0.331   7.525   4.439 -0.8074  0.8480  1.6505
34172SOL    HW2 6559   0.373   7.516   4.584  1.2486 -1.9383  0.9679
34173SOL     OW 6560   4.891   4.633   9.764  0.2363  0.2440  0.0849
34173SOL    HW1 6561   4.927   4.610   9.678  0.6320  0.1693  0.2751
34173SOL    HW2 6562   4.796   4.635   9.749  0.2808 -0.1252 -0.2674
34174SOL     OW 6563   6.872   8.447   0.505  0.3654  0.0271 -0.1167
34174SOL    HW1 6564   6.961   8.483   0.507 -0.3106  2.1383 -2.5784
34174SOL    HW2 6565   6.821   8.505   0.562  0.5229 -1.3298  1.4946
34175SOL     OW 6566   2.960   2.762   0.092  0.0449 -0.2227  0.1177
34175SOL    HW1 6567   2.990   2.675   0.064 -0.6848 -0.7599  0.9381
34175SOL    HW2 6568   2.874   2.746   0.131  0.3102  0.7250  1.1476
34176SOL     OW 6569   3.571   1.287   0.243  0.3811  0.3737 -0.6853
34176SOL    HW1 6570   3.544   1.353   0.307 -1.7371 -1.5010  0.5139
34176SOL    HW2 6571   3.654   1.252   0.278 -0.3978 -0.1527  0.7564
34177SOL     OW 6572   4.965   8.643   2.600  0.8464  0.0468  0.2351
34177SOL    HW1 6573   5.015   8.562   2.616  1.6260  0.6959  1.2048
34177SOL    HW2 6574   5.009   8.709   2.653  0.4452  1.2106 -0.8341
34178SOL     OW 6575   3.034   9.423   3.304  0.3622 -0.6379  0.5433
34178SOL    HW1 6576   3.092   9.481   3.255 -0.3607 -0.7294 -0.4506
34178SOL    HW2 6577   3.085   9.343   3.318  0.7424 -0.4248  0.3669
34179SOL     OW 6578   1.693   8.256   1.558  0.3881  0.6174  0.8622
34179SOL    HW1 6579   1.622   8.192   1.555 -0.0419  1.0581  1.3572
34179SOL    HW2 6580   1.772   8.204   1.571  0.3706 -0.0164 -1.1867
34180SOL     OW 6581   8.631   8.594   9.809 -0.4266 -0.1097 -0.0083
34180SOL    HW1 6582   8.599   8.538   9.879  0.3113 -1.6032 -0.7960
34180SOL    HW2 6583   8.713   8.552   9.781 -0.1376  1.0653 -1.0158
34181SOL     OW 6584   6.187   9.043   4.874  0.4256  0.6050 -0.0123
34181SOL    HW1 6585   6.218   8.977   4.936 -0.4882 -0.7051 -0.8971
34181SOL    HW2 6586   6.255   9.109   4.874  1.7809 -0.7275  0.3064
34182SOL     OW 6587   6.070   8.637   3.435 -0.1937  0.5858 -0.1033
34182SOL    HW1 6588   6.019   8.576   3.381  0.1374  0.0179  0.2217
34182SOL    HW2 6589   6.132   8.676   3.374  0.1154  0.0146 -0.1689
34183SOL     OW 6590   1.761   0.851   1.473  0.1905  0.2700 -0.5353
34183SOL    HW1 6591   1.683   0.892   1.438 -0.7865  1.7749  3.0619
34183SOL    HW2 6592   1.829   0.918   1.466  0.4549 -0.0334 -1.0056
34184SOL     OW 6593   3.976   3.565   0.658 -0.5548 -0.0351  0.3491
34184SOL    HW1 6594   3.933   3.575   0.573  2.0982  1.6000 -0.9579
34184SOL    HW2 6595   4.026   3.484   0.649 -1.0511 -0.3866  0.7421
34185SOL     OW 6596   1.507   8.831   4.274 -0.0312  0.7707  0.3619
34185SOL    HW1 6597   1.422   8.874   4.263 -0.7721 -0.9704 -1.4941
34185SOL    HW2 6598   1.485   8.740   4.293  1.4240  0.3698  0.2695
34186SOL     OW 6599   5.310   2.787   4.653  0.1831  0.2750 -0.0024
34186SOL    HW1 6600   5.385   2.827   4.608 -0.1262 -1.8304 -2.6702
34186SOL    HW2 6601   5.313   2.695   4.627 -2.1454 -0.3294  1.5448
34187SOL     OW 6602   0.901   2.754   8.545 -0.9490 -0.4470 -0.1755
34187SOL    HW1 6603   0.929   2.718   8.461  1.6458 -0.9665  0.8161
34187SOL    HW2 6604   0.866   2.678   8.593  1.5646 -1.1250  0.7302
34188SOL     OW 6605   7.732   3.840   2.450  0.6921  0.3717 -0.2529
34188SOL    HW1 6606   7.808   3.804   2.404  0.1186 -0.9763 -0.1860
34188SOL    HW2 6607   7.730   3.933   2.424  0.5673 -0.2422 -2.7134
34189SOL     OW 6608   3.420   4.238   1.560 -0.4698 -0.5362 -0.2831
34189SOL    HW1 6609   3.475   4.210   1.633 -0.7773 -3.9836 -1.2111
34189SOL    HW2 6610   3.331   4.227   1.592 -0.6123 -2.3846 -1.1802
34190SOL     OW 6611   2.763   9.094   6.722 -0.0564 -0.6815  0.4353
34190SOL    HW1 6612   2.670   9.075   6.710 -0.3196 -0.5015  1.9505
34190SOL    HW2 6613   2.767   9.190   6.724  0.2439 -0.6800 -0.1632
34191SOL     OW 6614   2.159   2.128   5.012  0.0447 -0.1682 -0.4634
34191SOL    HW1 6615   2.063   2.124   5.016  0.0486  0.3930  1.8489
34191SOL    HW2 6616   2.180   2.217   5.043  1.3275 -1.1340  1.7032
34192SOL     OW 6617   5.089   0.108   3.114 -0.4587 -1.0646  0.3869
34192SOL    HW1 6618   5.104   0.016   3.133 -1.7492 -1.8968 -2.1423
34192SOL    HW2 6619   5.076   0.111   3.020 -2.0951  1.4640  0.5996
34193SOL     OW 6620   5.048   7.371   4.554 -0.0727 -0.0785 -0.1125
34193SOL    HW1 6621   4.986   7.396   4.622 -1.8099 -0.7280 -1.3911
34193SOL    HW2 6622   5.017   7.286   4.523  0.5252  0.3111 -1.8746
34194SOL     OW 6623   6.789   3.931   3.618  0.5394  0.4211  0.5223
34194SOL    HW1 6624   6.703   3.970   3.629  1.0695  1.5722  0.7236
34194SOL    HW2 6625   6.847   3.985   3.670  1.1230 -1.4242  1.9002
34195SOL     OW 6626   3.143   8.177   9.590 -0.0733  0.0649 -0.3157
34195SOL    HW1 6627   3.171   8.087   9.576  1.0659  0.4382 -0.5588
34195SOL    HW2 6628   3.206   8.212   9.653  0.5349  1.1850 -1.5106
34196SOL     OW 6629   3.746   1.309   8.066  0.3691  0.2581  0.2317
34196SOL    HW1 6630   3.750   1.242   7.997 -1.3277 -0.9153  1.1940
34196SOL    HW2 6631   3.793   1.270   8.139  0.4400  0.6475  0.3939
34197SOL     OW 6632   2.223   2.424   6.423  0.0766 -0.2388 -0.3361
34197SOL    HW1 6633   2.186   2.442   6.510 -0.4460 -1.5238 -0.2765
34197SOL    HW2 6634   2.310   2.390   6.442 -0.8004 -2.5423 -0.1611
34198SOL     OW 6635   0.093   6.959   7.365  0.0686  0.2937  0.4906
34198SOL    HW1 6636   0.123   6.877   7.404 -0.7195 -0.2116  0.0641
34198SOL    HW2 6637   0.030   6.932   7.298  0.3455  1.2174 -0.1589
34199SOL     OW 6638   8.589   5.005   4.244  0.2568  0.5329  0.2314
34199SOL    HW1 6639   8.596   5.096   4.271  0.0421  0.1787  1.5925
34199SOL    HW2 6640   8.495   4.991   4.230  0.2882  0.5226  0.0294
34200SOL     OW 6641   5.234   8.989   9.063 -0.7708  0.1764  0.0331
34200SOL    HW1 6642   5.285   8.909   9.054 -1.5220 -0.2988 -0.0955
34200SOL    HW2 6643   5.190   8.979   9.148 -0.2313  0.8352  0.4030
34201SOL     OW 6644   3.199   3.458   0.932 -0.3338 -0.6148 -0.2398
34201SOL    HW1 6645   3.175   3.522   0.865 -1.9312 -0.6236  0.2823
34201SOL    HW2 6646   3.144   3.481   1.007  0.4135 -1.4705  0.5877
34202SOL     OW 6647   5.568   0.510   1.302  0.1428  0.3206 -0.1017
34202SOL    HW1 6648   5.532   0.421   1.294  2.4597 -0.6743 -0.1543
34202SOL    HW2 6649   5.617   0.509   1.384  2.7128  0.5180 -1.5263
34203SOL     OW 6650   4.231  10.208   4.532 -0.5941  0.3603  0.0254
34203SOL    HW1 6651   4.281  10.135   4.496 -0.6465  0.9218 -1.2312
34203SOL    HW2 6652   4.164  10.167   4.587  0.4114 -0.4506  0.6978
34204SOL     OW 6653   4.040   5.903   3.714  0.2148  0.1020  0.3438
34204SOL    HW1 6654   3.957   5.951   3.708  0.9976  1.3527 -1.1664
34204SOL    HW2 6655   4.025   5.822   3.665  0.4203  1.2075 -1.6603
34205SOL     OW 6656   4.253   0.007   2.589 -0.2629  0.1893 -0.4194
34205SOL    HW1 6657   4.196  -0.061   2.625  0.5745 -1.2826 -1.7819
34205SOL    HW2 6658   4.334  -0.000   2.640  0.2438 -0.6318 -1.3242
34206SOL     OW 6659   7.300   4.523   8.181  0.1681 -0.5798  0.0268
34206SOL    HW1 6660   7.259   4.436   8.179  0.8729 -0.9507  0.8668
34206SOL    HW2 6661   7.359   4.520   8.256  1.4971  0.0292 -0.9434
34207SOL     OW 6662   3.827   1.942   7.499  0.2038 -0.3697 -0.2561
34207SOL    HW1 6663   3.833   2.013   7.434  2.3917 -2.1828 -2.2155
34207SOL    HW2 6664   3.801   1.865   7.448 -1.7663 -1.1103  1.7468
34208SOL     OW 6665   5.978   0.345   7.765 -0.0049  0.3028  0.6983
34208SOL    HW1 6666   5.976   0.259   7.725  0.9756  0.7472 -0.3669
34208SOL    HW2 6667   5.960   0.406   7.694 -1.4764  0.9595  1.5890
34209SOL     OW 6668   1.259   1.082   9.745 -0.3875 -0.4204 -0.4868
34209SOL    HW1 6669   1.339   1.064   9.794  0.6079  1.6680 -1.2560
34209SOL    HW2 6670   1.188   1.064   9.807  0.7994  1.3711  1.5187
34210SOL     OW 6671   0.199   3.414   6.929 -0.2359  0.3467 -0.0610
34210SOL    HW1 6672   0.115   3.426   6.885 -0.9887 -2.3453  0.5145
34210SOL    HW2 6673   0.258   3.385   6.861 -0.8208 -1.5783  0.2001
34211SOL     OW 6674   6.095   4.296   0.317 -0.4799  0.2690 -0.3068
34211SOL    HW1 6675   6.006   4.303   0.351 -1.0689 -0.6144 -1.5777
34211SOL    HW2 6676   6.090   4.229   0.249  1.0259  0.6502 -0.8475
34212SOL     OW 6677   0.497   2.135  10.098  0.3332  0.0642  0.1415
34212SOL    HW1 6678   0.586   2.135  10.064  0.0200 -0.1032 -0.7112
34212SOL    HW2 6679   0.498   2.071  10.169  0.5848 -0.9339 -0.7336
34213SOL     OW 6680   3.967   6.138   4.697  0.8014  0.1681 -0.5131
34213SOL    HW1 6681   3.993   6.210   4.755 -0.5756 -1.6790  2.6089
34213SOL    HW2 6682   4.036   6.135   4.630  1.4212  3.6832 -0.2151
34214SOL     OW 6683   8.393   2.479   6.208 -0.0879 -0.1264  0.2020
34214SOL    HW1 6684   8.456   2.408   6.217 -0.3510 -0.5458 -1.1389
34214SOL    HW2 6685   8.391   2.499   6.115  0.1833  1.8378  0.5659
34215SOL     OW 6686  10.010   8.084   9.188 -0.3451  0.4038 -0.2501
34215SOL    HW1 6687  10.062   8.057   9.112  1.6403 -1.3152  1.6118
34215SOL    HW2 6688   9.923   8.046   9.171  0.0839 -0.0411 -1.5876
34216SOL     OW 6689   6.372   7.280   1.355 -0.1458  0.5542  0.0864
34216SOL    HW1 6690   6.431   7.325   1.415  0.7171  1.4341 -1.3879
34216SOL    HW2 6691   6.429   7.236   1.293 -1.0054 -1.2105  0.4592
34217SOL     OW 6692   7.466   1.539   7.473  0.2454 -0.5908 -0.1592
34217SOL    HW1 6693   7.554   1.531   7.435 -0.4164 -1.5811 -1.5788
34217SOL    HW2 6694   7.470   1.619   7.526  1.5347  0.3307 -1.5391
34218SOL     OW 6695   9.058   4.716   8.718  0.0925 -0.1527  0.1543
34218SOL    HW1 6696   9.100   4.635   8.746  0.8934 -0.1052 -0.8257
34218SOL    HW2 6697   9.114   4.748   8.647 -0.6950  0.8004 -0.0559
34219SOL     OW 6698   8.863   0.444   1.342 -0.2024 -0.0621 -0.0856
34219SOL    HW1 6699   8.947   0.401   1.324 -0.1843 -0.3896  0.7393
34219SOL    HW2 6700   8.800   0.372   1.344 -0.1161 -0.1239  1.6720
34220SOL     OW 6701   7.264   1.766   5.481 -0.1072 -0.8322  0.0940
34220SOL    HW1 6702   7.177   1.803   5.495  0.1118 -0.4472  0.4896
34220SOL    HW2 6703   7.257   1.676   5.512  0.0641 -0.3239  1.7365
34221SOL     OW 6704   0.473   3.685   3.753  0.0251 -0.1986 -0.0016
34221SOL    HW1 6705   0.423   3.604   3.766  1.2838 -1.5532 -2.7778
34221SOL    HW2 6706   0.559   3.667   3.789  1.1448 -1.1951 -2.9310
34222SOL     OW 6707   0.723   9.438   5.562 -0.4963  0.2320 -0.1567
34222SOL    HW1 6708   0.719   9.492   5.641 -0.5436  0.7570 -0.5180
34222SOL    HW2 6709   0.787   9.481   5.506  0.0674 -0.5261 -0.1263
34223SOL     OW 6710   2.707   2.763   9.145  0.2069 -0.4285 -0.1035
34223SOL    HW1 6711   2.726   2.846   9.100 -2.5353  0.4312  0.1281
34223SOL    HW2 6712   2.690   2.789   9.235 -0.3775 -1.2899  0.0389
34224SOL     OW 6713   8.285   5.370   8.335  0.4085 -0.1531 -0.3296
34224SOL    HW1 6714   8.284   5.295   8.275  0.3881 -0.2745 -0.1756
34224SOL    HW2 6715   8.266   5.445   8.278  3.6345  0.2040 -1.1064
34225SOL     OW 6716   7.459   2.209   0.899 -0.6020 -0.7572  0.2282
34225SOL    HW1 6717   7.437   2.168   0.982 -0.3050 -2.2400 -0.4061
34225SOL    HW2 6718   7.457   2.138   0.835  1.6750 -0.1846 -0.6020
34226SOL     OW 6719   0.196   4.362   3.836 -0.0677  0.2291  0.1205
34226SOL    HW1 6720   0.154   4.443   3.809  0.3046  0.0880 -0.9066
34226SOL    HW2 6721   0.202   4.310   3.756  1.5312  0.0129  0.3429
34227SOL     OW 6722   9.265   1.235   3.307  0.0998 -0.2687  0.0729
34227SOL    HW1 6723   9.308   1.187   3.236  1.7255  2.0088 -0.6029
34227SOL    HW2 6724   9.189   1.275   3.266  0.0698 -0.3529  0.0472
34228SOL     OW 6725   9.601   7.831   7.539 -0.7973 -0.0886  0.0863
34228SOL    HW1 6726   9.590   7.834   7.444  1.5035  0.0126 -0.2242
34228SOL    HW2 6727   9.570   7.743   7.564  0.6297 -0.9625 -1.0914
34229SOL     OW 6728   1.633   8.152   3.762  0.0635 -0.4692  0.3869
34229SOL    HW1 6729   1.654   8.118   3.849 -0.1791  0.2032  0.7098
34229SOL    HW2 6730   1.717   8.154   3.716  0.0348 -1.8464  0.2361
34230SOL     OW 6731   3.629   0.796   3.511  0.2809  0.1617 -0.5045
34230SOL    HW1 6732   3.672   0.757   3.435 -1.4922  0.2865 -1.6196
34230SOL    HW2 6733   3.575   0.725   3.547 -0.9850  0.8476 -1.0152
34231SOL     OW 6734   2.159   3.046   8.522  0.2090  0.5012  0.0470
34231SOL    HW1 6735   2.135   3.011   8.608 -1.1817  0.1234 -0.4701
34231SOL    HW2 6736   2.121   3.133   8.521  0.0078  0.4077 -0.2842
34232SOL     OW 6737   8.528   8.026   8.587 -0.6917 -0.3535  0.1256
34232SOL    HW1 6738   8.546   8.081   8.511 -1.4688 -1.0173 -0.5632
34232SOL    HW2 6739   8.457   7.968   8.559  0.7200 -2.3729  0.4924
34233SOL     OW 6740   4.882   2.994   8.435 -0.4173  0.4559 -0.2259
34233SOL    HW1 6741   4.952   2.929   8.437 -0.7249  0.0371 -1.6397
34233SOL    HW2 6742   4.926   3.077   8.418 -0.1663  0.3793  0.0395
34234SOL     OW 6743   8.159   9.646   1.909 -0.1460 -0.0885 -0.2931
34234SOL    HW1 6744   8.103   9.724   1.902  0.0103 -0.0035 -0.5882
34234SOL    HW2 6745   8.106   9.583   1.958  0.3870  0.8385  1.6020
34235SOL     OW 6746   2.852   8.055   6.567 -0.6533 -0.2131  0.2984
34235SOL    HW1 6747   2.827   7.986   6.628 -2.4633  2.0542  2.3154
34235SOL    HW2 6748   2.774   8.108   6.556 -0.2582 -0.0868 -3.6646
34236SOL     OW 6749   0.505   6.733   7.844  0.1190 -0.5154 -0.1804
34236SOL    HW1 6750   0.497   6.827   7.862 -3.7668 -0.8531  0.8238
34236SOL    HW2 6751   0.549   6.698   7.922 -1.0861  0.1901  0.8697
34237SOL     OW 6752   4.339   9.054   3.257 -0.4906 -0.2956 -0.3783
34237SOL    HW1 6753   4.308   8.964   3.270  0.9007 -0.8055 -0.2899
34237SOL    HW2 6754   4.260   9.106   3.246 -1.3789 -1.3671  0.6025
34238SOL     OW 6755   9.975   3.225   2.969 -0.5845  0.0553  0.8092
34238SOL    HW1 6756   9.897   3.181   3.002 -0.7951 -0.7049 -0.6158
34238SOL    HW2 6757  10.046   3.162   2.983 -0.4587  0.2179  0.9112
34239SOL     OW 6758   2.329   5.836   4.912 -0.4839 -0.0241 -0.1454
34239SOL    HW1 6759   2.326   5.924   4.873 -3.2935  0.2406  0.4611
34239SOL    HW2 6760   2.306   5.777   4.840 -0.8534 -0.0148 -0.0388
34240SOL     OW 6761   2.517   3.744   6.204 -0.7113  0.3997 -0.3631
34240SOL    HW1 6762   2.553   3.830   6.227 -1.6816  0.5780  0.5690
34240SOL    HW2 6763   2.524   3.693   6.285 -0.1216 -0.4220 -0.9148
34241SOL     OW 6764   6.530   4.286   3.574  0.4787 -0.0866  0.2670
34241SOL    HW1 6765   6.504   4.198   3.547 -1.2652  0.1589  1.0258
34241SOL    HW2 6766   6.556   4.277   3.665  5.3391 -0.7051 -0.8667
34242SOL     OW 6767   9.099   1.589   6.966 -0.8855 -0.4871  0.3819
34242SOL    HW1 6768   9.076   1.496   6.977  1.9170 -1.1895  1.2294
34242SOL    HW2 6769   9.191   1.593   6.990 -0.5577  2.3206 -0.9952
34243SOL     OW 6770   7.621   3.831   9.431  0.0675 -0.2637 -0.1329
34243SOL    HW1 6771   7.688   3.884   9.475 -0.3067  1.1119 -1.1377
34243SOL    HW2 6772   7.541   3.884   9.437 -0.4340 -0.9320 -0.7839
34244SOL     OW 6773   6.343   1.912   8.953 -0.0117  0.4142  0.3348
34244SOL    HW1 6774   6.426   1.921   8.906 -0.1219 -0.8249 -0.1126
34244SOL    HW2 6775   6.277   1.900   8.884 -0.4047  0.2384  0.7361
34245SOL     OW 6776   9.295   5.233   4.312  0.3661 -0.3437  0.1839
34245SOL    HW1 6777   9.235   5.248   4.385 -1.7104  0.0638 -1.4836
34245SOL    HW2 6778   9.245   5.178   4.252  1.0633  1.1935 -1.9370
34246SOL     OW 6779   4.397   0.005   0.033  0.1447 -0.5189 -0.2293
34246SOL    HW1 6780   4.319  -0.029  -0.010 -0.6706 -0.8014  1.4120
34246SOL    HW2 6781   4.459  -0.068   0.033 -0.2723 -0.8779  0.0641
34247SOL     OW 6782   1.934   3.048   8.297 -0.1692 -0.2429 -0.5497
34247SOL    HW1 6783   1.877   2.986   8.251 -0.6255 -0.4082  0.2182
34247SOL    HW2 6784   2.022   3.024   8.270 -0.3093 -1.4787  0.0007
34248SOL     OW 6785   0.654  10.223   9.868  0.1928  0.0668 -0.4366
34248SOL    HW1 6786   0.735  10.196   9.826 -0.2510 -0.7649 -0.7896
34248SOL    HW2 6787   0.585  10.197   9.806 -0.4316 -0.5330  0.4744
34249SOL     OW 6788   1.335   5.724   4.062 -0.4677 -0.4033  0.0557
34249SOL    HW1 6789   1.372   5.662   3.998  1.0809 -0.2453  0.7478
34249SOL    HW2 6790   1.372   5.809   4.037 -1.1026 -0.0715  0.2315
34250SOL     OW 6791   0.914   2.507   2.695  0.4017  0.3271 -0.5642
34250SOL    HW1 6792   0.981   2.503   2.764 -0.2576 -0.5298  0.0548
34250SOL    HW2 6793   0.959   2.478   2.616  0.2235 -2.7479  0.3272
34251SOL     OW 6794   4.309   6.487   4.365  0.0545 -0.0794 -0.3830
34251SOL    HW1 6795   4.370   6.558   4.384  0.4773 -0.6925  0.6461
34251SOL    HW2 6796   4.274   6.462   4.451 -1.0978 -0.2234 -0.8814
34252SOL     OW 6797   9.760   0.986   0.363 -0.7364  0.4730 -0.1311
34252SOL    HW1 6798   9.760   0.910   0.421  0.9829  1.0165  0.6527
34252SOL    HW2 6799   9.713   0.957   0.285  1.5184 -2.0832 -0.6929
34253SOL     OW 6800   6.369   9.186   3.608  0.2129 -0.1188  0.1612
34253SOL    HW1 6801   6.295   9.175   3.548  1.1711 -2.6649 -0.7110
34253SOL    HW2 6802   6.438   9.224   3.554 -0.5232  2.8028  1.1142
34254SOL     OW 6803   0.706   1.900   2.649 -0.0786 -0.1244 -0.8554
34254SOL    HW1 6804   0.640   1.961   2.682 -0.0896  0.2426 -1.5383
34254SOL    HW2 6805   0.723   1.929   2.560  2.1285  0.7587 -0.2271
34255SOL     OW 6806   9.444   5.027   1.253 -0.0901 -0.3180 -0.0896
34255SOL    HW1 6807   9.509   5.032   1.323  1.6055 -0.4896 -1.5626
34255SOL    HW2 6808   9.455   5.109   1.204 -0.5403 -0.6365 -0.7351
34256SOL     OW 6809   4.913   6.251   3.260  0.3151 -0.5699 -0.4388
34256SOL    HW1 6810   4.968   6.296   3.195 -0.9554 -0.1823 -1.2833
34256SOL    HW2 6811   4.971   6.236   3.334  1.4740  0.1137 -1.1753
34257SOL     OW 6812   2.097   6.498   5.152  0.0395 -0.1184 -0.2745
34257SOL    HW1 6813   2.161   6.552   5.199  0.2815 -1.4436  0.9901
34257SOL    HW2 6814   2.033   6.474   5.219 -0.1035 -1.3259 -0.8316
34258SOL     OW 6815   7.101   5.201   0.881 -0.0689  0.1319 -0.4763
34258SOL    HW1 6816   7.196   5.192   0.890 -0.1741 -1.8434 -1.0374
34258SOL    HW2 6817   7.065   5.128   0.932 -1.2870  0.6533 -0.5593
34259SOL     OW 6818  10.050   3.944   2.623  0.2961 -0.3691  0.5781
34259SOL    HW1 6819  10.099   4.002   2.565  3.1241 -0.5216  2.5850
34259SOL    HW2 6820  10.005   4.003   2.684 -1.4563 -0.2503 -0.7607
34260SOL     OW 6821   7.372   8.475   8.966 -0.0377  0.6315  0.0014
34260SOL    HW1 6822   7.467   8.490   8.964 -0.0285  0.6001  0.2485
34260SOL    HW2 6823   7.335   8.558   8.995 -0.1176  0.7850 -0.5300
34261SOL     OW 6824   1.691   0.362   5.991 -0.7031  0.5282 -0.0546
34261SOL    HW1 6825   1.711   0.279   6.033  0.0821  1.0255  0.5854
34261SOL    HW2 6826   1.764   0.376   5.930 -1.2162  0.3957 -0.7166
34262SOL     OW 6827   4.751   6.841   8.615 -0.2916 -0.2488  0.1437
34262SOL    HW1 6828   4.841   6.821   8.642 -0.2919  0.7890  0.9547
34262SOL    HW2 6829   4.738   6.787   8.537  1.1000 -0.2953 -0.0919
34263SOL     OW 6830   1.169   5.724   2.270 -0.1065  0.4000  0.0680
34263SOL    HW1 6831   1.186   5.653   2.331  1.4580  0.4951 -0.2076
34263SOL    HW2 6832   1.120   5.789   2.321  0.6623  0.2198  1.0553
34264SOL     OW 6833   2.336   6.557   9.225  0.2345  0.2488 -0.2625
34264SOL    HW1 6834   2.386   6.562   9.307 -2.0585 -0.3486  1.2686
34264SOL    HW2 6835   2.389   6.502   9.168  2.3049  1.3749  0.4660
34265SOL     OW 6836   7.239   2.886   8.059 -0.5725  0.2899  0.3336
34265SOL    HW1 6837   7.293   2.814   8.090  1.2153  0.3365 -2.3807
34265SOL    HW2 6838   7.277   2.964   8.100  1.4293  0.2910 -1.3189
34266SOL     OW 6839   7.414   1.654   9.206 -0.4263 -0.1605  0.0616
34266SOL    HW1 6840   7.463   1.701   9.274 -0.5462 -1.5486  1.1655
34266SOL    HW2 6841   7.385   1.722   9.146  1.4196  0.8883  0.2886
34267SOL     OW 6842   2.100   1.434   0.152 -0.6495  0.3799  0.1408
34267SOL    HW1 6843   2.170   1.439   0.088 -3.3132  0.9419 -2.9710
34267SOL    HW2 6844   2.102   1.344   0.184  0.8989  0.1545 -0.5293
34268SOL     OW 6845   0.832   0.962   5.991  0.2526 -0.6017  0.1307
34268SOL    HW1 6846   0.919   0.922   5.989  0.6565  0.2590  0.0012
34268SOL    HW2 6847   0.846   1.052   5.960 -0.7686 -0.6122 -0.4006
34269SOL     OW 6848   3.642   2.805   7.918 -0.2192  0.2601  0.0458
34269SOL    HW1 6849   3.626   2.813   8.012 -0.6192  0.5390 -0.0424
34269SOL    HW2 6850   3.555   2.793   7.880 -0.1859  1.2376 -0.3929
34270SOL     OW 6851   3.891   0.229   4.138  0.4931  0.2602 -0.4937
34270SOL    HW1 6852   3.880   0.160   4.203 -0.5292 -0.3924 -1.3219
34270SOL    HW2 6853   3.934   0.187   4.064 -0.1260  0.4951 -1.0021
34271SOL     OW 6854   9.387   0.666   4.202 -0.5821  0.2419 -0.0817
34271SOL    HW1 6855   9.458   0.708   4.155 -1.7730  1.1629 -1.1251
34271SOL    HW2 6856   9.378   0.580   4.160  0.2422 -0.0972  0.4155
34272SOL     OW 6857   9.538   6.140   3.411  0.2015  0.1821 -0.1167
34272SOL    HW1 6858   9.615   6.116   3.359  0.3596 -1.0231  0.6395
34272SOL    HW2 6859   9.508   6.058   3.448  0.0883  0.9976  1.6957
34273SOL     OW 6860   3.151   9.022   0.606 -0.2819 -0.5715  0.3454
34273SOL    HW1 6861   3.231   9.019   0.553 -0.6574 -2.5245 -0.1880
34273SOL    HW2 6862   3.080   9.010   0.543 -1.1791  2.6061  0.6008
34274SOL     OW 6863   3.424   8.274   0.707 -0.0812  0.1391  0.4610
34274SOL    HW1 6864   3.499   8.260   0.648 -1.0803 -0.2359 -0.7693
34274SOL    HW2 6865   3.347   8.260   0.651 -1.0810 -1.5993  2.1725
34275SOL     OW 6866   9.713   9.538   1.709  0.1462 -0.4751  0.3481
34275SOL    HW1 6867   9.730   9.632   1.717 -0.5969 -0.4655  2.5048
34275SOL    HW2 6868   9.795   9.501   1.676  0.2241  0.9841 -1.2313
34276SOL     OW 6869   3.211   3.005   2.165  0.5869  0.5136 -0.4899
34276SOL    HW1 6870   3.168   3.043   2.241 -0.2551 -0.1655 -0.6057
34276SOL    HW2 6871   3.303   3.000   2.189  0.5373  1.5527 -0.0425
34277SOL     OW 6872   7.634   9.011   7.527  0.2400 -0.1811  0.0927
34277SOL    HW1 6873   7.721   9.003   7.566  0.7586  2.6128 -0.3072
34277SOL    HW2 6874   7.647   8.990   7.434  0.6530  0.8785 -0.0993
34278SOL     OW 6875   0.936   6.044   5.823 -0.0744  0.4542 -0.2709
34278SOL    HW1 6876   0.917   5.996   5.903 -0.9138  2.6461  0.9263
34278SOL    HW2 6877   0.965   5.977   5.761 -0.7715 -1.4938  1.4066
34279SOL     OW 6878   8.135   9.550   8.569 -0.4113  0.2339 -0.9287
34279SOL    HW1 6879   8.108   9.635   8.604 -0.1405  0.9345 -2.3263
34279SOL    HW2 6880   8.069   9.530   8.502  0.6283  0.3411 -2.0166
34280SOL     OW 6881   7.599   9.049   6.687 -0.5551 -0.2976 -0.4276
34280SOL    HW1 6882   7.643   9.005   6.614 -0.7019 -2.3777  0.6500
34280SOL    HW2 6883   7.510   9.064   6.655 -1.3102 -3.2402 -0.0434
34281SOL     OW 6884   6.576  10.121   7.913  0.3218 -0.3284 -0.9488
34281SOL    HW1 6885   6.638  10.163   7.972  0.0125  0.8216 -1.3988
34281SOL    HW2 6886   6.627  10.098   7.836  0.9242 -2.6483  0.0522
34282SOL     OW 6887   1.706   5.355   0.501  0.2441  0.7750 -0.2346
34282SOL    HW1 6888   1.636   5.396   0.451 -2.5841 -1.2921  1.7179
34282SOL    HW2 6889   1.690   5.382   0.592  1.4579 -0.4503  0.3845
34283SOL     OW 6890   9.154   0.705   6.585  0.2114 -0.5408 -0.2906
34283SOL    HW1 6891   9.075   0.740   6.627  0.1294 -2.8576  1.6752
34283SOL    HW2 6892   9.202   0.662   6.656  3.6507  1.3116 -1.2690
34284SOL     OW 6893   5.842   8.231   0.358  0.0056 -0.1405 -0.0263
34284SOL    HW1 6894   5.897   8.157   0.332  0.8914  0.0098  1.3228
34284SOL    HW2 6895   5.759   8.216   0.312 -0.2412 -2.5773  1.0671
34285SOL     OW 6896   8.522   2.919   4.129 -0.2765 -0.0364  0.3762
34285SOL    HW1 6897   8.544   3.012   4.138  0.7255 -0.3709  1.8011
34285SOL    HW2 6898   8.438   2.918   4.083  0.5943  1.4896 -1.3896
34286SOL     OW 6899   6.024   7.252   2.244  0.3749  0.6806 -0.2563
34286SOL    HW1 6900   5.962   7.189   2.279  0.2442  0.8282 -0.2185
34286SOL    HW2 6901   6.110   7.214   2.260  0.3474  0.9882  0.7132
34287SOL     OW 6902   3.885   2.755   8.342  0.2063  0.2907 -0.2941
34287SOL    HW1 6903   3.925   2.823   8.395  1.3020 -1.4543  1.2529
34287SOL    HW2 6904   3.819   2.715   8.398  0.0445 -0.3554 -0.9179
34288SOL     OW 6905   1.982   6.456   2.289 -0.4140  0.2367  0.1042
34288SOL    HW1 6906   2.028   6.498   2.217  0.5826 -0.9427  0.0225
34288SOL    HW2 6907   2.004   6.364   2.282 -1.0451 -0.0431  1.3769
34289SOL     OW 6908   8.625   8.442   7.962 -0.1365  0.1601 -0.1228
34289SOL    HW1 6909   8.679   8.461   7.886 -0.5562 -2.2787 -1.1204
34289SOL    HW2 6910   8.625   8.523   8.013  0.2477  1.8434 -2.6389
34290SOL     OW 6911   9.447   1.078   1.967  0.6310  0.3666 -0.4199
34290SOL    HW1 6912   9.406   1.127   2.038 -1.1744  0.1922 -1.2819
34290SOL    HW2 6913   9.533   1.053   2.001  0.0444  0.7890  1.4731
34291SOL     OW 6914   6.102   4.884   0.308 -0.5182 -0.6302 -0.4176
34291SOL    HW1 6915   6.017   4.929   0.308 -0.3723 -0.3527  0.0753
34291SOL    HW2 6916   6.161   4.945   0.262 -0.4560 -0.5652 -0.2549
34292SOL     OW 6917   7.495   1.249   8.628  0.3708  0.1469  0.3396
34292SOL    HW1 6918   7.521   1.210   8.711 -1.6928 -0.0645  0.9442
34292SOL    HW2 6919   7.472   1.174   8.573 -1.9562  0.3709  0.9234
34293SOL     OW 6920   2.876   8.126   8.221  0.3850 -0.2162  0.9401
34293SOL    HW1 6921   2.819   8.195   8.253 -0.1377  0.6907 -1.7633
34293SOL    HW2 6922   2.828   8.045   8.239 -1.1254  0.4400 -0.0194
34294SOL     OW 6923   7.885   8.001   5.840 -0.4877  0.0069 -0.0345
34294SOL    HW1 6924   7.884   8.033   5.750 -1.1621 -0.1961 -0.1069
34294SOL    HW2 6925   7.973   7.966   5.853 -1.1585 -2.5419 -1.5426
34295SOL     OW 6926   5.583   2.745   0.750  1.2306  0.1809 -0.3158
34295SOL    HW1 6927   5.628   2.814   0.701  2.1578 -0.0736  0.1576
34295SOL    HW2 6928   5.652   2.684   0.774  0.5239 -0.5456 -0.1094
34296SOL     OW 6929   2.363   9.012   0.293  0.3575  0.9589  0.0004
34296SOL    HW1 6930   2.437   9.017   0.354  1.0809 -0.2459 -0.7415
34296SOL    HW2 6931   2.402   8.982   0.211 -1.0419 -0.2235 -0.2538
34297SOL     OW 6932   7.553  10.103   0.120 -0.0050  0.5235  0.0661
34297SOL    HW1 6933   7.459  10.083   0.120  0.1564 -0.2889 -0.5506
34297SOL    HW2 6934   7.594  10.027   0.080  1.0353  0.4205  1.2633
34298SOL     OW 6935   6.506   6.813   7.881 -0.4738  0.3546 -0.1717
34298SOL    HW1 6936   6.433   6.799   7.821 -0.7552 -2.4103  0.6776
34298SOL    HW2 6937   6.470   6.868   7.950 -1.2712  0.3701 -0.5878
34299SOL     OW 6938   8.295   4.867   1.442  0.3995 -0.2233  0.1581
34299SOL    HW1 6939   8.212   4.820   1.430  0.5728 -0.5501  0.2413
34299SOL    HW2 6940   8.336   4.865   1.356 -0.0971  0.7516 -0.1254
34300SOL     OW 6941   2.941   1.908   8.813  0.1555 -0.4026 -0.6255
34300SOL    HW1 6942   2.952   1.832   8.756  0.5852  0.4485 -1.7276
34300SOL    HW2 6943   2.874   1.882   8.875  0.6429 -1.8465 -0.6756
34301SOL     OW 6944   4.025   5.553   0.496  0.2041 -0.6908 -0.9461
34301SOL    HW1 6945   3.987   5.502   0.425 -0.0729 -1.5653 -0.1834
34301SOL    HW2 6946   3.990   5.641   0.483  0.4943 -0.7319 -2.1305
34302SOL     OW 6947   2.949   3.073   8.779 -0.1105 -0.7112  0.1018
34302SOL    HW1 6948   2.976   3.163   8.798 -0.7997 -0.3691 -0.4894
34302SOL    HW2 6949   3.027   3.031   8.743  0.2422 -0.3802  0.4793
34303SOL     OW 6950   2.864   8.808  10.114 -0.3998 -0.4735  0.0121
34303SOL    HW1 6951   2.923   8.877  10.083  0.0207 -0.3770  1.0081
34303SOL    HW2 6952   2.921   8.731  10.125  0.3355  0.4687  4.2095
34304SOL     OW 6953   4.500   0.652   4.007  0.1494  0.2284 -0.2954
34304SOL    HW1 6954   4.543   0.582   4.056 -0.1504 -0.4046 -0.9037
34304SOL    HW2 6955   4.459   0.607   3.933 -0.5488  0.9742 -0.3789
34305SOL     OW 6956   3.721   0.515   8.739 -0.0122  0.0967  0.0582
34305SOL    HW1 6957   3.634   0.547   8.715  0.0072  0.8593  0.9182
34305SOL    HW2 6958   3.706   0.425   8.769 -0.5988  0.3816  0.6720
34306SOL     OW 6959   1.202   8.576   5.091 -0.0019 -0.0429  0.3867
34306SOL    HW1 6960   1.267   8.603   5.155  0.1926  1.5554 -0.4268
34306SOL    HW2 6961   1.119   8.574   5.139  0.2393  0.5444  0.8278
34307SOL     OW 6962   8.791   9.334   6.798  0.0804  0.2022 -0.0133
34307SOL    HW1 6963   8.812   9.423   6.827 -1.4190  0.8749 -0.8213
34307SOL    HW2 6964   8.853   9.317   6.728  1.6784 -0.2054  1.4440
34308SOL     OW 6965   9.970   1.939   9.346 -0.0377  0.2071 -0.1250
34308SOL    HW1 6966  10.036   1.996   9.307 -0.7092  1.4152  0.4659
34308SOL    HW2 6967   9.966   1.964   9.438 -1.0063 -0.1449 -0.0538
34309SOL     OW 6968   2.424   3.383   3.434 -0.1784  0.4228 -0.3365
34309SOL    HW1 6969   2.400   3.469   3.398 -3.4068  0.0320  0.5656
34309SOL    HW2 6970   2.362   3.322   3.393  2.3992 -1.6807 -1.4012
34310SOL     OW 6971   9.450   0.257   1.623 -0.0182 -0.5661  0.1210
34310SOL    HW1 6972   9.479   0.348   1.617  1.2938 -0.9254  0.6740
34310SOL    HW2 6973   9.364   0.262   1.664  0.5630  0.3584  1.2715
34311SOL     OW 6974   6.591   7.425   5.175 -0.3011 -0.6355 -0.6689
34311SOL    HW1 6975   6.600   7.462   5.263  1.6744 -1.1876 -0.5710
34311SOL    HW2 6976   6.498   7.428   5.156 -0.6643  0.3040  1.0948
34312SOL     OW 6977   5.448  10.191   5.584  0.1351  0.5003 -0.2982
34312SOL    HW1 6978   5.457  10.096   5.574  0.9905  0.6188 -0.7710
34312SOL    HW2 6979   5.378  10.202   5.648  0.1469 -0.4551 -0.1063
34313SOL     OW 6980   6.772   2.330   8.420 -0.4766 -0.1094 -0.8512
34313SOL    HW1 6981   6.735   2.269   8.356  0.3180 -0.4148 -1.0228
34313SOL    HW2 6982   6.863   2.303   8.429 -0.4199  0.3236 -0.0506
34314SOL     OW 6983   3.395   7.419   9.212  0.3937 -0.2042 -0.0800
34314SOL    HW1 6984   3.407   7.345   9.153  0.1641  0.1620 -0.5918
34314SOL    HW2 6985   3.476   7.422   9.264  0.9513 -0.0354 -0.9414
34315SOL     OW 6986   1.548   1.181   9.572 -0.2243 -0.1790  0.1883
34315SOL    HW1 6987   1.457   1.190   9.545  0.4890 -1.3838 -3.1871
34315SOL    HW2 6988   1.559   1.088   9.590  0.4032 -0.0976  0.2622
34316SOL     OW 6989   1.568   8.070   7.776  0.0271  0.1920 -0.2180
34316SOL    HW1 6990   1.657   8.078   7.741 -0.1025 -0.9234 -0.8372
34316SOL    HW2 6991   1.550   8.155   7.816  1.3788  0.4190 -0.0627
34317SOL     OW 6992   5.704   0.016   2.944  0.5725  0.4536  0.4141
34317SOL    HW1 6993   5.792   0.045   2.918 -0.1623  2.0900 -0.3721
34317SOL    HW2 6994   5.658   0.096   2.966 -1.3918 -0.1594 -1.2465
34318SOL     OW 6995   6.403   5.954   2.341  0.1214 -0.3016  0.4077
34318SOL    HW1 6996   6.360   6.035   2.369  0.6205  0.5814 -1.2857
34318SOL    HW2 6997   6.496   5.974   2.343  0.1725 -0.0723 -2.1130
34319SOL     OW 6998   6.589   2.369   0.268  0.4747 -0.1017  0.1176
34319SOL    HW1 6999   6.623   2.395   0.354 -0.2675 -1.1282  0.7410
34319SOL    HW2 7000   6.494   2.383   0.275  0.2976 -1.1122 -0.2040
34320SOL     OW 7001   8.441   8.337   9.551 -0.4893  0.1398 -0.2060
34320SOL    HW1 7002   8.494   8.416   9.541  0.3838 -0.3474  0.4023
34320SOL    HW2 7003   8.505   8.267   9.565 -1.1927 -0.8490 -1.6667
34321SOL     OW 7004   1.786   8.049   1.117  0.0759  0.0874  0.0078
34321SOL    HW1 7005   1.844   8.086   1.184  0.2638  0.3519 -0.2988
34321SOL    HW2 7006   1.721   7.999   1.167  0.8734 -0.6580  0.3435
34322SOL     OW 7007   9.357   9.487   5.453 -0.8444 -0.8208  0.0131
34322SOL    HW1 7008   9.342   9.582   5.448 -0.8389 -0.8390 -0.4599
34322SOL    HW2 7009   9.363   9.459   5.361  0.2455 -1.1106  0.1618
34323SOL     OW 7010   3.545   2.024   5.997 -0.0944 -0.1096 -0.3589
34323SOL    HW1 7011   3.514   2.098   5.945 -2.0041 -0.0918  0.7176
34323SOL    HW2 7012   3.638   2.043   6.013 -0.0953  1.1073 -1.6342
34324SOL     OW 7013   5.746   8.784   3.486  0.1726 -0.0540  0.1827
34324SOL    HW1 7014   5.778   8.703   3.446  1.3368 -1.3568  3.3824
34324SOL    HW2 7015   5.651   8.776   3.484  0.2698 -1.6024  0.5008
34325SOL     OW 7016   8.157   8.978   9.449 -0.0309 -0.5125  0.5075
34325SOL    HW1 7017   8.117   9.014   9.529  0.2325  0.1420  0.3498
34325SOL    HW2 7018   8.183   9.055   9.398 -1.4817 -0.8839 -0.8794
34326SOL     OW 7019   2.736   8.328   4.837  0.0089  0.5468 -0.5350
34326SOL    HW1 7020   2.793   8.402   4.817  1.7771 -1.0101 -1.5399
34326SOL    HW2 7021   2.701   8.300   4.752  0.0297 -0.2927 -0.2741
34327SOL     OW 7022   3.125  10.120   7.971  0.0012 -0.0819 -0.0897
34327SOL    HW1 7023   3.218  10.141   7.971  0.1384 -0.0869  3.4343
34327SOL    HW2 7024   3.123  10.024   7.968  0.0300 -0.0593 -1.1770
34328SOL     OW 7025   0.073   1.220   0.431 -0.0654 -0.0896  0.6589
34328SOL    HW1 7026   0.071   1.139   0.378 -2.0314  0.1655  0.2669
34328SOL    HW2 7027   0.118   1.283   0.375 -0.9429 -0.1909 -0.1966
34329SOL     OW 7028   2.926   7.412   2.700 -0.0258 -0.3668 -0.1417
34329SOL    HW1 7029   2.836   7.415   2.669  0.1180 -1.9114 -0.7817
34329SOL    HW2 7030   2.952   7.504   2.706 -1.4271  0.0862 -0.5373
34330SOL     OW 7031   0.508   8.776   0.999  0.4279 -0.2418  0.0221
34330SOL    HW1 7032   0.429   8.724   1.007 -0.7001  0.4853 -4.0197
34330SOL    HW2 7033   0.489   8.856   1.048  0.5727 -1.8048  2.8215
34331SOL     OW 7034   8.947   2.966   3.280 -0.1085  0.1666  0.0283
34331SOL    HW1 7035   8.931   2.901   3.212  2.3234 -0.0208 -0.4531
34331SOL    HW2 7036   8.998   3.035   3.236 -0.5542  1.2169  1.1037
34332SOL     OW 7037   2.119  10.251   9.608 -0.0872  0.4022  0.3296
34332SOL    HW1 7038   2.147  10.204   9.686 -2.4428  1.0476  1.6533
34332SOL    HW2 7039   2.048  10.198   9.572  0.8932  0.1598 -1.4019
34333SOL     OW 7040   1.875   2.096   4.711  0.3827  1.0209 -0.9478
34333SOL    HW1 7041   1.937   2.023   4.722  0.4122  1.1351 -0.2818
34333SOL    HW2 7042   1.804   2.076   4.772  1.8840  3.0981  1.6932
34334SOL     OW 7043   3.536   6.392   8.804  0.3877 -0.2417 -0.1149
34334SOL    HW1 7044   3.475   6.355   8.867  1.6018 -0.7492  0.7992
34334SOL    HW2 7045   3.599   6.442   8.857  0.6614  0.4244 -1.0409
34335SOL     OW 7046   1.942   8.220   0.290 -0.7114 -0.0252  0.6885
34335SOL    HW1 7047   1.911   8.254   0.374  1.5613 -0.3352  1.7332
34335SOL    HW2 7048   1.939   8.125   0.300 -1.4939 -0.0880 -0.0283
34336SOL     OW 7049   3.283   4.705   5.713  0.2471 -0.1660  0.2796
34336SOL    HW1 7050   3.209   4.745   5.758  0.7926 -0.1435  1.1780
34336SOL    HW2 7051   3.360   4.741   5.756  0.7900 -0.2537 -0.5843
34337SOL     OW 7052   7.512   3.132   2.465  0.0335 -0.2749  0.2705
34337SOL    HW1 7053   7.554   3.048   2.479 -0.5539 -0.4249  1.2713
34337SOL    HW2 7054   7.583   3.192   2.445  0.6334 -0.7142  1.0264
34338SOL     OW 7055   5.722   0.617   5.789 -0.2113  0.3967  0.6095
34338SOL    HW1 7056   5.796   0.556   5.797  1.0012  1.6993 -0.1723
34338SOL    HW2 7057   5.670   0.583   5.717  0.0908 -0.0652  0.6043
34339SOL     OW 7058   9.510   9.927   1.573 -0.2690 -0.1081 -0.2273
34339SOL    HW1 7059   9.420   9.957   1.588  0.2424  2.0050 -0.9895
34339SOL    HW2 7060   9.560   9.965   1.645  0.0556 -1.0975  0.0742
34340SOL     OW 7061   9.001   6.677   0.029  0.3077 -0.6017 -0.3019
34340SOL    HW1 7062   8.952   6.644   0.104 -0.3303 -0.5186 -0.6783
34340SOL    HW2 7063   9.091   6.685   0.061  0.1326 -1.0142  0.3132
34341SOL     OW 7064   0.474   6.330  10.246  1.0484  0.3812 -0.3799
34341SOL    HW1 7065   0.418   6.395  10.290  0.8269  1.2364 -1.8806
34341SOL    HW2 7066   0.413   6.261  10.219  1.1421  0.0012  0.3337
34342SOL     OW 7067   2.368   0.743   4.832  0.1170 -0.6113 -0.2839
34342SOL    HW1 7068   2.318   0.817   4.865  0.2180 -0.2690 -0.8799
34342SOL    HW2 7069   2.458   0.775   4.828  0.0245 -0.4367 -1.4313
34343SOL     OW 7070   2.347   4.400   3.912  0.1874 -0.2809 -0.4611
34343SOL    HW1 7071   2.419   4.348   3.878 -0.7517 -2.6078  0.8461
34343SOL    HW2 7072   2.389   4.470   3.962  1.5125 -0.8789 -0.7063
34344SOL     OW 7073   5.470   8.258   0.597  0.2902  0.4153 -0.0699
34344SOL    HW1 7074   5.416   8.250   0.518 -0.2976  0.1499  0.3554
34344SOL    HW2 7075   5.557   8.229   0.568 -0.0358 -0.1745 -0.5055
34345SOL     OW 7076   9.086   5.205   9.498 -0.3807 -0.7505 -0.1785
34345SOL    HW1 7077   9.085   5.142   9.570  0.0716 -0.7342 -0.1521
34345SOL    HW2 7078   8.999   5.198   9.459 -0.9348 -0.1163  0.9131
34346SOL     OW 7079   5.635   7.084   7.954 -0.3892  0.0738 -0.6442
34346SOL    HW1 7080   5.658   7.091   7.862  3.0191 -0.6657  0.0000
34346SOL    HW2 7081   5.600   7.170   7.977  0.8316  1.0333 -2.1582
34347SOL     OW 7082   8.374   1.371   1.355  0.5301 -0.6635  0.2906
34347SOL    HW1 7083   8.298   1.394   1.301  1.0881  1.2511  0.2225
34347SOL    HW2 7084   8.449   1.380   1.296  0.9864 -0.3937  0.8936
34348SOL     OW 7085   2.891   4.743   6.171  0.3475  0.0393 -0.0027
34348SOL    HW1 7086   2.809   4.700   6.194  0.3392 -1.2226 -2.0908
34348SOL    HW2 7087   2.959   4.679   6.194  0.4629 -0.3988 -1.4668
34349SOL     OW 7088   0.491   2.885   6.529 -0.4385 -0.1025  0.3290
34349SOL    HW1 7089   0.565   2.858   6.584 -1.2711 -1.1775  0.9587
34349SOL    HW2 7090   0.524   2.961   6.480  0.8347 -0.1001  1.1401
34350SOL     OW 7091   1.037   2.183   8.322 -0.1286  0.7331  0.0009
34350SOL    HW1 7092   1.056   2.273   8.348  0.7900  0.0815  1.7723
34350SOL    HW2 7093   1.016   2.138   8.404  1.9576 -1.2245 -0.4350
34351SOL     OW 7094   0.205   6.394   7.961 -0.1773 -0.2137  0.5370
34351SOL    HW1 7095   0.255   6.475   7.963 -1.6036  0.6944  2.7255
34351SOL    HW2 7096   0.162   6.394   7.875  2.4510 -0.4162 -0.8880
34352SOL     OW 7097   5.012   6.493   6.420 -0.1056 -0.0199 -0.4509
34352SOL    HW1 7098   5.089   6.436   6.425  0.5010  0.8552  0.4757
34352SOL    HW2 7099   4.971   6.486   6.507 -0.9476 -0.2778 -0.8513
34353SOL     OW 7100   8.462   0.904   3.867  0.5669 -0.3688 -0.1246
34353SOL    HW1 7101   8.547   0.930   3.904  0.2329  1.3661 -0.4942
34353SOL    HW2 7102   8.477   0.815   3.834  1.9683 -0.4581  0.6671
34354SOL     OW 7103   1.074   3.065   2.557  0.0641 -0.4869 -0.0192
34354SOL    HW1 7104   1.162   3.057   2.594  0.6520 -0.4599 -1.3490
34354SOL    HW2 7105   1.015   3.055   2.632  1.1419 -2.2949  0.6528
34355SOL     OW 7106   8.942   6.969   2.397 -0.3447 -0.2746 -0.5209
34355SOL    HW1 7107   8.994   7.026   2.453 -2.1093 -0.8710  1.8841
34355SOL    HW2 7108   8.930   7.019   2.316  1.2437  1.1560  0.0815
34356SOL     OW 7109   9.116   5.187   8.388 -0.1599 -0.5075  0.1784
34356SOL    HW1 7110   9.057   5.221   8.455  0.6641 -1.9691  1.7014
34356SOL    HW2 7111   9.058   5.146   8.324 -0.9169  0.2591  0.3576
34357SOL     OW 7112   7.024   7.162   0.065  0.2091 -0.1627 -0.7988
34357SOL    HW1 7113   6.964   7.230   0.033  0.9530 -0.4301 -2.9384
34357SOL    HW2 7114   6.975   7.081   0.055 -0.5907 -0.0332  1.5324
34358SOL     OW 7115   9.143   4.962   7.509  0.1902  0.1808  0.8367
34358SOL    HW1 7116   9.080   5.030   7.533  0.5238  0.5532  0.6635
34358SOL    HW2 7117   9.202   4.958   7.584  0.8806  0.9281  0.3471
34359SOL     OW 7118   8.804   6.734   2.389  0.2749  0.7497 -0.2507
34359SOL    HW1 7119   8.849   6.818   2.395 -0.6849  1.3021 -0.5888
34359SOL    HW2 7120   8.875   6.669   2.390  0.9676  1.4577  1.6955
34360SOL     OW 7121   6.893   2.661   6.616  0.6391 -0.0890 -0.3067
34360SOL    HW1 7122   6.830   2.723   6.579 -0.2328 -0.6698  0.1786
34360SOL    HW2 7123   6.960   2.717   6.655 -1.7019  0.7543  2.9489
34361SOL     OW 7124   1.703   6.466   4.559  0.3879 -0.0238 -0.2300
34361SOL    HW1 7125   1.652   6.511   4.627 -0.0356  0.3181 -0.7730
34361SOL    HW2 7126   1.718   6.379   4.595  0.0329  0.1035  0.2377
34362SOL     OW 7127   6.769   0.638   9.319  0.5010  0.4567 -0.0639
34362SOL    HW1 7128   6.695   0.646   9.380 -0.4118  2.6398 -1.3415
34362SOL    HW2 7129   6.843   0.612   9.375 -0.9793 -0.8649  1.4007
34363SOL     OW 7130   9.367   4.456   5.491 -0.2580  0.0476 -0.1074
34363SOL    HW1 7131   9.358   4.471   5.397  0.8607  0.7191 -0.1163
34363SOL    HW2 7132   9.335   4.367   5.503 -1.8270  0.4601 -0.8849
34364SOL     OW 7133   0.941   5.058   4.499  0.6429 -0.0642  0.2986
34364SOL    HW1 7134   0.995   4.980   4.485  1.1013  0.7154 -3.1570
34364SOL    HW2 7135   0.992   5.111   4.560  2.7016 -0.4402 -0.9739
34365SOL     OW 7136   4.322   7.887   9.357  0.6602 -0.0244 -0.2396
34365SOL    HW1 7137   4.329   7.951   9.428 -1.4278 -0.5430  0.5158
34365SOL    HW2 7138   4.319   7.940   9.277 -2.6053  1.0782  0.4389
34366SOL     OW 7139   2.455   1.343   9.409  0.2877 -0.3267 -0.7487
34366SOL    HW1 7140   2.503   1.421   9.382 -1.4593  1.4754  0.9394
34366SOL    HW2 7141   2.475   1.277   9.342  1.9247  1.5183 -2.1878
34367SOL     OW 7142   3.630   6.925   6.331  0.6559  0.1419 -0.3284
34367SOL    HW1 7143   3.605   6.942   6.240 -2.8459  0.9636  0.6771
34367SOL    HW2 7144   3.644   7.011   6.369  1.3831 -0.1684  0.1331
34368SOL     OW 7145   7.334   6.315   6.403 -0.1863  0.1182  0.8513
34368SOL    HW1 7146   7.308   6.278   6.319  0.8443 -0.5845  0.8232
34368SOL    HW2 7147   7.385   6.393   6.380  2.1754 -1.3679  0.6683
34369SOL     OW 7148   0.159   5.087   0.855  0.1526  0.1761 -0.9077
34369SOL    HW1 7149   0.191   5.067   0.767 -2.4033 -2.6915 -1.3322
34369SOL    HW2 7150   0.064   5.095   0.845 -0.3068 -1.0960  1.7024
34370SOL     OW 7151   9.647   3.405   5.664  0.1890  0.0884 -0.2543
34370SOL    HW1 7152   9.553   3.390   5.677 -0.0635 -0.3261 -2.2187
34370SOL    HW2 7153   9.675   3.450   5.743 -1.5401 -0.3078  0.6403
34371SOL     OW 7154   8.368   1.996   0.959 -0.0172 -0.1818  0.1258
34371SOL    HW1 7155   8.356   1.937   0.885 -0.9384  1.9292 -1.5234
34371SOL    HW2 7156   8.452   1.970   0.997  1.9683  0.3937 -3.4083
34372SOL     OW 7157   3.120   3.026   9.376  0.7733 -0.3524 -0.1872
34372SOL    HW1 7158   3.116   2.933   9.400  1.1144 -0.0718  0.9882
34372SOL    HW2 7159   3.214   3.045   9.371  0.7033 -0.0161 -0.2416
34373SOL     OW 7160   4.461  10.153   6.763 -0.3081 -0.4298 -0.4239
34373SOL    HW1 7161   4.531  10.206   6.801 -0.6890 -0.3447  0.1862
34373SOL    HW2 7162   4.501  10.109   6.688  0.2001  0.1721 -0.5113
34374SOL     OW 7163   3.206   9.403   5.636 -0.0840  0.5014 -0.5835
34374SOL    HW1 7164   3.177   9.491   5.660 -2.0082  0.2139 -1.6741
34374SOL    HW2 7165   3.126   9.358   5.608  1.0865 -1.1461 -1.4329
34375SOL     OW 7166   1.434   1.838   1.801 -0.3103 -0.3896  0.2207
34375SOL    HW1 7167   1.442   1.777   1.728 -1.1718 -0.4329  0.1526
34375SOL    HW2 7168   1.406   1.784   1.875  0.2246 -0.2896  0.5066
34376SOL     OW 7169   2.166   5.079   0.065 -0.2809  0.0396  0.1196
34376SOL    HW1 7170   2.130   5.140   0.129  1.6130  1.1000  0.2609
34376SOL    HW2 7171   2.258   5.069   0.091  0.1439 -0.6979 -1.5300
34377SOL     OW 7172   2.228   4.239   9.123  0.3605  0.1705  0.1289
34377SOL    HW1 7173   2.222   4.156   9.169 -0.4408  1.0290  1.6669
34377SOL    HW2 7174   2.173   4.299   9.174  0.8974  1.6402 -0.9335
34378SOL     OW 7175   8.478   1.630   4.628 -0.1366  0.4522 -0.5293
34378SOL    HW1 7176   8.428   1.689   4.684  0.3815  0.9555 -0.5836
34378SOL    HW2 7177   8.555   1.681   4.603  0.1987 -0.1673 -0.7778
34379SOL     OW 7178   1.889   0.924  10.071 -0.4477  0.0253  0.0202
34379SOL    HW1 7179   1.811   0.971  10.100 -1.5755 -1.8877  0.2721
34379SOL    HW2 7180   1.884   0.840  10.115  1.0574 -0.6503 -1.0219
34380SOL     OW 7181  10.220   0.451   1.049  0.1798  0.1197 -0.0201
34380SOL    HW1 7182  10.192   0.543   1.048  0.5544  0.2345 -0.0383
34380SOL    HW2 7183  10.187   0.415   0.966  0.8468  0.4831 -0.4446
34381SOL     OW 7184   3.232   1.695   5.812 -0.1552  0.1856  0.4999
34381SOL    HW1 7185   3.206   1.785   5.794  0.2555  0.4085  1.0166
34381SOL    HW2 7186   3.257   1.660   5.726 -1.9357  0.0177  0.0171
34382SOL     OW 7187   4.282   1.459   8.582 -0.4970  0.6398 -0.2965
34382SOL    HW1 7188   4.342   1.414   8.523 -1.5364 -0.0235 -0.8766
34382SOL    HW2 7189   4.284   1.551   8.554 -0.9898  0.3332 -1.4039
34383SOL     OW 7190   6.630   8.361   7.211  0.0076 -0.2866  0.0172
34383SOL    HW1 7191   6.562   8.376   7.278  0.7504  0.2388  0.6729
34383SOL    HW2 7192   6.711   8.393   7.251  0.1007  2.3543 -2.0515
34384SOL     OW 7193   5.411   9.721   4.184  0.0358 -0.3516 -0.4080
34384SOL    HW1 7194   5.432   9.761   4.099 -1.9281 -0.1449 -0.8316
34384SOL    HW2 7195   5.380   9.794   4.238  1.0943 -0.5160  0.4610
34385SOL     OW 7196   0.398   9.647   9.329 -0.1906  0.4603  0.1683
34385SOL    HW1 7197   0.411   9.671   9.421 -0.4616 -2.0571  0.9502
34385SOL    HW2 7198   0.473   9.590   9.309 -1.6019 -1.3651 -0.2113
34386SOL     OW 7199   2.912   3.685   0.847 -0.1540 -0.2355  0.4963
34386SOL    HW1 7200   3.004   3.707   0.829 -0.1015 -0.0751  0.9478
34386SOL    HW2 7201   2.867   3.769   0.850  0.0511 -0.1337  2.2522
34387SOL     OW 7202   9.096   0.508   8.195 -0.4762 -0.1246  0.1122
34387SOL    HW1 7203   9.156   0.434   8.186  2.5977  1.9997  1.3324
34387SOL    HW2 7204   9.106   0.557   8.113  1.1835  1.3152  1.1076
34388SOL     OW 7205   4.769   4.039   9.565  0.0600 -0.5281 -0.3859
34388SOL    HW1 7206   4.834   4.077   9.624 -2.2021  0.8080  1.4231
34388SOL    HW2 7207   4.809   4.046   9.478  2.3778  0.0286  0.6337
34389SOL     OW 7208   1.984   2.284   0.575  0.6274  0.3190 -0.0153
34389SOL    HW1 7209   1.915   2.244   0.522 -0.5487  1.2818  0.7210
34389SOL    HW2 7210   2.035   2.211   0.609 -0.3859 -0.4448 -0.1106
34390SOL     OW 7211   0.907   6.343   9.763 -0.2028  0.7790  0.5405
34390SOL    HW1 7212   0.921   6.254   9.732  0.8726  1.3241 -0.6282
34390SOL    HW2 7213   0.953   6.347   9.847 -1.2680 -0.0821  1.1869
34391SOL     OW 7214   6.622   6.395   8.035 -0.4406 -0.0089 -0.1180
34391SOL    HW1 7215   6.541   6.408   8.083 -0.6615  0.1856 -0.5344
34391SOL    HW2 7216   6.613   6.451   7.958  0.1252  0.0828 -0.1216
34392SOL     OW 7217   6.688   2.523   4.163 -0.1837  0.3704 -0.0342
34392SOL    HW1 7218   6.734   2.527   4.078 -0.4339 -0.5172 -0.2259
34392SOL    HW2 7219   6.758   2.536   4.228 -0.1281  2.0036 -0.3744
34393SOL     OW 7220   0.820  10.102   0.416 -0.1269 -0.0445 -0.1943
34393SOL    HW1 7221   0.814  10.011   0.389  0.9802 -0.3201  0.4474
34393SOL    HW2 7222   0.844  10.099   0.508 -1.0052  0.9079  0.0944
34394SOL     OW 7223   0.951   9.673   3.025 -0.0778  0.0144  0.1013
34394SOL    HW1 7224   1.023   9.708   2.973 -0.0444 -1.4877 -0.9298
34394SOL    HW2 7225   0.983   9.588   3.056 -1.5223 -0.8819 -0.7303
34395SOL     OW 7226   5.548   5.415   2.791  0.1613 -0.0417 -0.4144
34395SOL    HW1 7227   5.599   5.428   2.711  0.0951  1.1204 -0.2736
34395SOL    HW2 7228   5.475   5.360   2.763  1.1408 -1.2293 -0.7424
34396SOL     OW 7229   7.500   1.008   9.073  0.5362 -0.1564 -0.4146
34396SOL    HW1 7230   7.440   0.941   9.039  0.2668  0.6032 -1.5037
34396SOL    HW2 7231   7.488   1.005   9.168  0.8685 -1.9473 -0.4038
34397SOL     OW 7232   4.460   1.745   7.878  0.0845  0.2704  0.5851
34397SOL    HW1 7233   4.513   1.810   7.831 -0.0123  2.1317  2.8656
34397SOL    HW2 7234   4.524   1.695   7.930 -0.1655  1.3531  1.9945
34398SOL     OW 7235   0.943   4.264   4.278  0.5622  0.7388 -0.3893
34398SOL    HW1 7236   0.912   4.209   4.207  2.2775  0.3578 -0.8804
34398SOL    HW2 7237   1.028   4.228   4.302 -0.8558 -0.6130  3.4533
34399SOL     OW 7238   8.273   3.022   4.727  0.5137  0.1215  0.2636
34399SOL    HW1 7239   8.180   3.013   4.708  0.6612 -0.0066 -0.4524
34399SOL    HW2 7240   8.304   2.933   4.743  0.4270  0.2117  0.9342
34400SOL     OW 7241   9.859   8.794   1.095  0.1257  0.0171  0.3872
34400SOL    HW1 7242   9.831   8.878   1.132  1.1496  0.1148  0.9787
34400SOL    HW2 7243   9.786   8.735   1.111 -0.3209  0.6186  0.6081
34401SOL     OW 7244   0.110   5.865   0.099 -0.4209  0.0750  0.1710
34401SOL    HW1 7245   0.162   5.800   0.051  0.0466  1.3875 -1.1542
34401SOL    HW2 7246   0.163   5.885   0.177 -0.1742 -0.4990  0.1559
34402SOL     OW 7247   8.687   6.930   6.705  0.1655 -0.0559 -0.1565
34402SOL    HW1 7248   8.592   6.930   6.693  0.0593 -1.5745  0.4464
34402SOL    HW2 7249   8.714   6.843   6.675  1.3266  0.2327  0.0238
34403SOL     OW 7250   3.439   9.304   4.366 -0.1241 -0.3840  0.2694
34403SOL    HW1 7251   3.356   9.318   4.412 -0.8065  3.5160 -1.7780
34403SOL    HW2 7252   3.506   9.333   4.428 -0.5340 -0.4641  0.7602
34404SOL     OW 7253   9.241   2.952   9.865  0.4941  0.0304  0.4887
34404SOL    HW1 7254   9.233   3.038   9.906 -0.1592 -0.1229  0.7015
34404SOL    HW2 7255   9.237   2.891   9.938 -2.7903 -0.3601  0.1296
34405SOL     OW 7256   5.768   6.345   6.020 -0.3037  0.0935 -0.3291
34405SOL    HW1 7257   5.809   6.336   6.106  0.0561 -0.4705 -0.5567
34405SOL    HW2 7258   5.723   6.262   6.006  0.8926 -0.4064 -1.3320
34406SOL     OW 7259   4.334   6.458   0.728 -0.2097 -0.0061  0.1816
34406SOL    HW1 7260   4.324   6.532   0.788 -0.1772  0.4092 -0.3168
34406SOL    HW2 7261   4.282   6.482   0.652  0.4011 -0.1565 -0.2920
34407SOL     OW 7262   6.247   5.456   1.547 -0.7522  0.0355  0.1315
34407SOL    HW1 7263   6.262   5.515   1.621 -1.3954  1.1673 -0.5921
34407SOL    HW2 7264   6.332   5.416   1.530  0.1226  1.9139 -0.2803
34408SOL     OW 7265   6.917   2.185   1.025 -0.0237  0.0181  0.7635
34408SOL    HW1 7266   6.904   2.260   1.084  2.4029  0.6704  0.5641
34408SOL    HW2 7267   6.874   2.211   0.944 -0.0242  0.7924  1.0016
34409SOL     OW 7268   4.325   8.772   1.047 -0.0405  0.0917  0.3002
34409SOL    HW1 7269   4.369   8.747   0.965  0.3467 -0.5959  0.7048
34409SOL    HW2 7270   4.373   8.849   1.077  0.7506 -0.5038  0.6077
34410SOL     OW 7271   2.373  10.216   9.268  0.2073 -0.4220  0.6067
34410SOL    HW1 7272   2.287  10.258   9.270  0.1991 -0.4454  1.3651
34410SOL    HW2 7273   2.381  10.175   9.354  0.7948 -0.7968  0.3793
34411SOL     OW 7274   1.839   5.709   7.649 -0.1265  0.9348 -0.1233
34411SOL    HW1 7275   1.837   5.804   7.634 -1.7401  0.9830  0.1609
34411SOL    HW2 7276   1.826   5.671   7.563  2.4961  0.8825 -0.5586
34412SOL     OW 7277   5.089   0.589   0.239  0.4200  0.0252  0.6310
34412SOL    HW1 7278   5.092   0.608   0.146 -1.0301 -1.5846  0.2143
34412SOL    HW2 7279   5.083   0.675   0.281 -0.8876  0.7102 -0.8674
34413SOL     OW 7280   2.594   4.435  10.190  0.2785 -0.1310 -0.2661
34413SOL    HW1 7281   2.665   4.449  10.127 -1.1010 -0.7691 -2.0514
34413SOL    HW2 7282   2.560   4.347  10.169 -1.9288  0.6995 -0.4393
34414SOL     OW 7283   8.111   1.954   8.948  0.8160 -0.4328  0.6211
34414SOL    HW1 7284   8.044   1.900   8.991  1.2716 -1.0028  0.6363
34414SOL    HW2 7285   8.098   2.041   8.984 -0.9018 -0.1697 -0.4954
34415SOL     OW 7286   6.109   4.500   1.576 -0.8245 -0.1483  0.1299
34415SOL    HW1 7287   6.126   4.565   1.644  3.4260 -0.7908 -0.0105
34415SOL    HW2 7288   6.111   4.416   1.622 -2.0235 -0.4210 -0.2798
34416SOL     OW 7289   5.217   5.700   9.202  0.9741 -0.1222 -0.2787
34416SOL    HW1 7290   5.212   5.693   9.297  1.8480 -0.2602 -0.2349
34416SOL    HW2 7291   5.188   5.789   9.183  0.7891 -0.0972  0.1147
34417SOL     OW 7292   9.101   1.381   5.028  0.0708  0.7815 -0.1606
34417SOL    HW1 7293   9.107   1.457   4.970  1.0327  1.0006  0.2153
34417SOL    HW2 7294   9.007   1.362   5.032  0.0107  0.4439 -2.2004
34418SOL     OW 7295   2.795   3.444   5.338  0.2713 -0.0960  0.4953
34418SOL    HW1 7296   2.886   3.473   5.334 -0.0015  0.7265 -3.2634
34418SOL    HW2 7297   2.749   3.513   5.386  1.3314  0.3969  0.8186
34419SOL     OW 7298   6.416   2.575   6.548  0.6257  0.5679 -0.1658
34419SOL    HW1 7299   6.447   2.604   6.462 -1.1304 -0.5469 -1.2228
34419SOL    HW2 7300   6.476   2.617   6.610  2.2603  0.9872 -1.9373
34420SOL     OW 7301   0.764   1.536   7.466  0.4243 -0.2126 -0.4063
34420SOL    HW1 7302   0.810   1.620   7.465  1.5107 -0.7876 -0.5050
34420SOL    HW2 7303   0.804   1.488   7.539  0.3190 -0.9074 -0.7937
34421SOL     OW 7304   2.079   8.003   3.853  0.3548 -0.7575 -0.0836
34421SOL    HW1 7305   2.135   8.081   3.849 -0.1041 -0.4526 -0.6166
34421SOL    HW2 7306   2.136   7.935   3.889  1.0339 -0.4182 -0.5012
34422SOL     OW 7307   8.320   1.090   4.874  0.0085 -0.0410 -0.3442
34422SOL    HW1 7308   8.386   1.106   4.942 -0.7454  0.1681  0.3570
34422SOL    HW2 7309   8.321   0.995   4.863 -1.1873 -0.3070  1.3749
34423SOL     OW 7310   6.373   5.313  10.205  0.1501 -0.5953  0.2213
34423SOL    HW1 7311   6.318   5.268  10.269 -0.9023  0.6232  0.2162
34423SOL    HW2 7312   6.363   5.406  10.225 -1.8022  0.0147 -2.8497
34424SOL     OW 7313   4.052   1.732   7.181 -0.3018  0.5229 -0.2805
34424SOL    HW1 7314   3.957   1.729   7.193 -0.1534  0.2501  0.9817
34424SOL    HW2 7315   4.087   1.718   7.269  0.9342 -0.8637 -0.9694
34425SOL     OW 7316   4.840   2.960   1.765  0.0081  0.3677 -0.1460
34425SOL    HW1 7317   4.851   2.869   1.736  0.3578  0.5545 -0.6145
34425SOL    HW2 7318   4.756   2.960   1.812 -0.8078  0.1303 -1.5189
34426SOL     OW 7319   7.453   3.297   6.497  0.4413 -0.2505 -0.0834
34426SOL    HW1 7320   7.549   3.305   6.502  0.4170  1.6795 -1.5241
34426SOL    HW2 7321   7.439   3.223   6.438  1.0794  0.1569 -0.7630
34427SOL     OW 7322   4.481   3.015   4.713 -0.0530  0.0177 -0.1899
34427SOL    HW1 7323   4.505   2.953   4.782  0.4889  0.2454 -0.1712
34427SOL    HW2 7324   4.406   2.974   4.669 -0.0477 -0.3901  0.1728
34428SOL     OW 7325   2.704   2.543   1.591 -0.3153 -0.1525 -0.4990
34428SOL    HW1 7326   2.755   2.534   1.510 -0.9647  2.2107 -1.2543
34428SOL    HW2 7327   2.764   2.581   1.654 -0.8436  1.9282 -1.1690
34429SOL     OW 7328   0.553   3.580   3.289 -0.9290  0.6438 -0.1373
34429SOL    HW1 7329   0.555   3.514   3.220 -0.2111  1.0774 -0.5394
34429SOL    HW2 7330   0.557   3.529   3.370  1.0447  0.2116 -0.4507
34430SOL     OW 7331   9.591   4.437   2.156 -0.7593 -0.3955 -0.0583
34430SOL    HW1 7332   9.631   4.390   2.082 -1.0420 -1.4522  0.4523
34430SOL    HW2 7333   9.523   4.378   2.188 -1.0080  0.2979  0.7082
34431SOL     OW 7334   7.356   8.230   5.139  0.3150  0.4833 -0.4549
34431SOL    HW1 7335   7.396   8.306   5.096 -0.7990  1.9446  0.9852
34431SOL    HW2 7336   7.386   8.235   5.230 -1.8974  0.7794  0.2998
34432SOL     OW 7337   0.484   1.043   5.067  0.1504  0.2400 -0.4060
34432SOL    HW1 7338   0.537   1.113   5.028  0.6445 -0.9842 -2.0699
34432SOL    HW2 7339   0.540   0.966   5.061 -1.0143 -0.6320 -0.1775
34433SOL     OW 7340   5.874   4.204   1.617 -0.0236  0.2899  0.4504
34433SOL    HW1 7341   5.900   4.163   1.535 -2.0646  0.0701 -0.1236
34433SOL    HW2 7342   5.849   4.293   1.593  0.3888  0.5769  1.0359
34434SOL     OW 7343   0.330   0.086   6.518 -0.7926  0.4377  0.0795
34434SOL    HW1 7344   0.256   0.144   6.536 -1.0918  0.7052 -1.7680
34434SOL    HW2 7345   0.390   0.140   6.466  0.4860  0.0742  1.1276
34435SOL     OW 7346   8.253   8.927   9.748  0.2510  0.1248 -0.2314
34435SOL    HW1 7347   8.295   8.884   9.823  1.6354  0.9710 -0.4954
34435SOL    HW2 7348   8.176   8.872   9.729  0.8987 -1.1280  0.6429
34436SOL     OW 7349   9.063   1.452   4.437  0.1647 -1.0384 -0.1382
34436SOL    HW1 7350   9.129   1.509   4.477 -0.3535  0.7379 -1.6583
34436SOL    HW2 7351   9.105   1.418   4.358 -0.4850 -0.4228 -0.7652
34437SOL     OW 7352   3.400   6.602   0.815  0.0608  0.0443 -0.0828
34437SOL    HW1 7353   3.425   6.549   0.891  2.2442  1.1607  0.0621
34437SOL    HW2 7354   3.308   6.623   0.830 -0.2072 -1.6954  1.0498
34438SOL     OW 7355   2.290   1.776   6.707  0.2784 -0.3138 -0.3576
34438SOL    HW1 7356   2.330   1.862   6.707  0.3671 -0.3295  0.8045
34438SOL    HW2 7357   2.226   1.779   6.779  0.0888 -1.1258 -0.4718
34439SOL     OW 7358   4.179   4.472   5.504 -0.1024  0.0994 -0.4929
34439SOL    HW1 7359   4.142   4.504   5.422  0.5372  3.0988  0.2830
34439SOL    HW2 7360   4.244   4.407   5.477 -0.6721  0.2237 -2.2869
34440SOL     OW 7361   4.793   3.749   2.175 -0.1456  0.6100  0.0755
34440SOL    HW1 7362   4.735   3.720   2.245  0.7458  0.9536  0.9653
34440SOL    HW2 7363   4.774   3.842   2.165  0.2392  0.7170  0.3494
34441SOL     OW 7364   5.879   7.319   1.951 -0.6342 -0.4250  0.0327
34441SOL    HW1 7365   5.828   7.250   1.992 -1.2049  0.6915  1.3040
34441SOL    HW2 7366   5.970   7.291   1.959 -0.8744 -1.1671  0.2181
34442SOL     OW 7367   5.146   9.866   3.545  0.4611  0.0375  1.0603
34442SOL    HW1 7368   5.069   9.895   3.593  1.0539 -0.3158  2.2579
34442SOL    HW2 7369   5.192   9.808   3.605  0.3090 -1.8793 -0.5887
34443SOL     OW 7370   0.887   7.542   2.542 -0.4077  0.4690  0.3994
34443SOL    HW1 7371   0.798   7.570   2.521 -0.8817 -0.8268  0.6102
34443SOL    HW2 7372   0.909   7.592   2.621 -1.1011  0.4963  0.5856
34444SOL     OW 7373   5.764   9.455   1.971  0.6882  0.4225  0.0294
34444SOL    HW1 7374   5.734   9.521   2.033  0.5883  0.1445  0.2818
34444SOL    HW2 7375   5.845   9.490   1.935  0.0370  1.2183 -0.7123
34445SOL     OW 7376   9.634   1.630   9.875 -0.1495  0.4918  0.2222
34445SOL    HW1 7377   9.548   1.665   9.851 -0.2789  1.1477  1.5561
34445SOL    HW2 7378   9.690   1.650   9.800 -1.1783 -0.0868 -0.7373
34446SOL     OW 7379   5.649   2.113   3.842  0.0699  0.4023  0.8077
34446SOL    HW1 7380   5.708   2.181   3.876  1.8706 -1.0682  0.7486
34446SOL    HW2 7381   5.590   2.095   3.915 -0.1929  1.7101  0.9579
34447SOL     OW 7382   9.883   1.947   6.207 -0.3994 -0.1127 -0.0697
34447SOL    HW1 7383   9.792   1.925   6.190  0.0385 -0.9898 -1.4593
34447SOL    HW2 7384   9.895   2.033   6.165 -0.9559  0.7341  1.4478
34448SOL     OW 7385   4.732   6.923   8.074 -0.0052  0.5251 -0.1696
34448SOL    HW1 7386   4.653   6.942   8.024 -0.6953 -0.7059  0.4284
34448SOL    HW2 7387   4.749   7.004   8.122  0.1525  1.4152 -1.6559
34449SOL     OW 7388   2.506   8.457  10.154 -0.2811  0.4564 -0.0109
34449SOL    HW1 7389   2.498   8.391  10.224 -0.4268  0.0921 -0.3652
34449SOL    HW2 7390   2.586   8.504  10.175  0.0086 -0.0610  0.0623
34450SOL     OW 7391   4.294   7.687   6.017  0.0027 -0.8685  0.0423
34450SOL    HW1 7392   4.359   7.743   5.975 -1.2510  0.2386 -0.5344
34450SOL    HW2 7393   4.210   7.726   5.991 -0.8913 -0.1548  3.4909
34451SOL     OW 7394   2.905   0.446   9.743  0.0724  0.0886 -0.0369
34451SOL    HW1 7395   2.851   0.373   9.773 -0.8331  0.7670  0.0359
34451SOL    HW2 7396   2.904   0.439   9.648 -1.4468  0.9634 -0.1260
34452SOL     OW 7397   7.671   6.741   9.703  0.2589  0.5542  0.0930
34452SOL    HW1 7398   7.593   6.773   9.749 -0.4160 -0.1755 -0.5207
34452SOL    HW2 7399   7.668   6.785   9.618 -0.0445 -0.2496 -0.3162
34453SOL     OW 7400   3.338   0.510   3.865 -0.2169  0.1727 -0.0861
34453SOL    HW1 7401   3.394   0.550   3.932  0.7444 -0.9047 -0.2274
34453SOL    HW2 7402   3.320   0.422   3.897  1.0481 -0.7247 -1.6246
34454SOL     OW 7403   0.917   2.630   6.555 -0.1110  0.1892 -0.7397
34454SOL    HW1 7404   0.827   2.601   6.539  0.1986 -0.8134 -0.7501
34454SOL    HW2 7405   0.918   2.721   6.525 -1.3462  0.5127  0.0967
34455SOL     OW 7406   2.118  10.141   1.500 -0.5300 -0.9887 -0.2837
34455SOL    HW1 7407   2.057  10.172   1.567 -0.8913 -0.0177 -1.0206
34455SOL    HW2 7408   2.091  10.051   1.482 -0.3596 -1.2942  0.9318
34456SOL     OW 7409   8.343   3.453   3.526  0.1467  0.1506 -0.3268
34456SOL    HW1 7410   8.341   3.543   3.496  0.3600  0.8417  1.6020
34456SOL    HW2 7411   8.256   3.418   3.505 -0.3118  1.1382 -0.1182
34457SOL     OW 7412   4.294   9.397   9.490  0.3616  0.5752 -0.2153
34457SOL    HW1 7413   4.358   9.437   9.550  0.5048 -0.0644  0.0653
34457SOL    HW2 7414   4.317   9.305   9.488 -1.5689 -0.0103  1.2318
34458SOL     OW 7415   8.879   6.379   0.418 -0.3635 -0.3798  0.9917
34458SOL    HW1 7416   8.949   6.315   0.404 -0.4480 -0.5689  1.3996
34458SOL    HW2 7417   8.900   6.451   0.360 -1.0236 -1.3691 -0.5465
34459SOL     OW 7418   2.466   8.615   3.094 -0.2496 -0.0475  0.5131
34459SOL    HW1 7419   2.494   8.546   3.034 -0.5790  0.9350 -0.8383
34459SOL    HW2 7420   2.374   8.631   3.071  0.0072  1.2818  0.2965
34460SOL     OW 7421   1.868   5.741   0.097 -0.2279  0.2498  0.5472
34460SOL    HW1 7422   1.907   5.683   0.162 -0.1363 -1.7185 -1.1594
34460SOL    HW2 7423   1.800   5.687   0.055  0.7712  0.8716 -2.0353
34461SOL     OW 7424   5.021   5.955   9.413 -0.4565 -0.1699  0.2300
34461SOL    HW1 7425   4.964   5.881   9.433 -0.2120 -0.1153  1.1627
34461SOL    HW2 7426   4.964   6.031   9.418 -0.2312 -0.0701  1.6047
34462SOL     OW 7427   9.503   0.532   1.627 -0.0347  0.0636 -0.2192
34462SOL    HW1 7428   9.418   0.569   1.605  0.4748  0.8083 -1.0431
34462SOL    HW2 7429   9.499   0.513   1.720 -1.7047 -1.5582 -0.5699
34463SOL     OW 7430   4.338   3.886   7.542  0.0675  0.2146  0.1600
34463SOL    HW1 7431   4.336   3.958   7.480  1.1220  0.6222  0.5762
34463SOL    HW2 7432   4.398   3.915   7.611  1.2686 -1.4114 -0.1393
34464SOL     OW 7433   9.817   8.188   0.299  0.6464 -0.4960 -0.0060
34464SOL    HW1 7434   9.894   8.139   0.268  2.6109  0.6385  2.6329
34464SOL    HW2 7435   9.818   8.175   0.394 -0.3878  2.3056  0.4846
34465SOL     OW 7436   2.696   2.983   2.544 -0.3543 -0.8404 -0.3070
34465SOL    HW1 7437   2.724   2.895   2.519  1.7948 -0.6095  1.0299
34465SOL    HW2 7438   2.691   2.981   2.640 -2.6445 -0.1257 -0.3531
34466SOL     OW 7439   7.294   9.751   9.049 -0.2959  0.0476  0.5980
34466SOL    HW1 7440   7.351   9.719   9.119 -0.0898  1.4411  1.0854
34466SOL    HW2 7441   7.207   9.715   9.071 -0.1928  0.3080  1.4577
34467SOL     OW 7442   8.325   2.486   2.744 -0.0613 -0.4660  0.6002
34467SOL    HW1 7443   8.265   2.440   2.687  0.3075  0.2566 -0.4067
34467SOL    HW2 7444   8.300   2.460   2.833 -0.5050 -1.7771  0.1114
34468SOL     OW 7445   2.778   9.202   0.717  0.1017 -0.5670 -0.5299
34468SOL    HW1 7446   2.873   9.191   0.714  0.1161 -0.8289  0.4864
34468SOL    HW2 7447   2.755   9.183   0.808 -0.8545  0.0565 -0.6309
34469SOL     OW 7448   6.242   8.640   6.073  0.2437 -0.4840 -0.2098
34469SOL    HW1 7449   6.177   8.584   6.114  1.6172 -1.5028  0.6866
34469SOL    HW2 7450   6.203   8.667   5.990 -1.6966 -0.2247  0.7534
34470SOL     OW 7451   8.402   1.223   8.992  0.4222  0.4708  0.4183
34470SOL    HW1 7452   8.355   1.287   9.046  0.3942  0.6228  0.2151
34470SOL    HW2 7453   8.363   1.139   9.016 -0.6021  0.6884 -0.4125
34471SOL     OW 7454   0.541   8.200   1.242  0.4826  0.0081 -0.5069
34471SOL    HW1 7455   0.595   8.244   1.176  1.7470 -0.5952  0.0788
34471SOL    HW2 7456   0.478   8.266   1.270  0.4755  0.5320 -1.6920
34472SOL     OW 7457   4.208   4.587   6.896 -0.1995  0.2280  0.0648
34472SOL    HW1 7458   4.158   4.667   6.876  1.7522  0.8004 -3.2304
34472SOL    HW2 7459   4.154   4.516   6.862 -0.8984  0.3251  0.9251
34473SOL     OW 7460   8.874   0.391   3.217 -0.0452 -0.3587 -0.5404
34473SOL    HW1 7461   8.880   0.483   3.242 -0.3511 -0.1379 -1.2443
34473SOL    HW2 7462   8.859   0.344   3.299 -1.5202  0.3769 -0.3628
34474SOL     OW 7463   9.007   3.229   8.782 -0.2262 -0.1079 -0.0801
34474SOL    HW1 7464   9.071   3.207   8.851 -0.3828 -0.0737  0.0772
34474SOL    HW2 7465   9.044   3.305   8.738 -1.3082  1.4524  1.5836
34475SOL     OW 7466   7.263   4.798   8.207 -0.3997 -0.5057  0.1303
34475SOL    HW1 7467   7.282   4.705   8.219 -0.7746 -0.5242  0.6133
34475SOL    HW2 7468   7.188   4.799   8.147 -0.3842 -0.5165  0.1111
34476SOL     OW 7469   5.207   3.779   0.515 -0.2022 -0.8292 -0.1729
34476SOL    HW1 7470   5.250   3.701   0.479 -0.0379 -0.3718 -0.9718
34476SOL    HW2 7471   5.262   3.803   0.590  1.6381  0.4007 -1.8260
34477SOL     OW 7472   6.367   7.365   7.719 -0.2696 -0.5986  0.0637
34477SOL    HW1 7473   6.305   7.300   7.688 -1.5987 -0.5209  2.3436
34477SOL    HW2 7474   6.358   7.439   7.659 -2.7218 -0.4289  0.5673
34478SOL     OW 7475   8.479   3.144   0.711 -0.3397 -0.1783  0.9521
34478SOL    HW1 7476   8.546   3.136   0.644 -0.1739  1.7155  0.8391
34478SOL    HW2 7477   8.401   3.173   0.663 -0.5137  0.1532  1.4296
34479SOL     OW 7478   3.728   7.649   4.825  0.2211  0.9404 -0.3154
34479SOL    HW1 7479   3.715   7.599   4.906  0.3686 -0.1198 -0.9394
34479SOL    HW2 7480   3.819   7.678   4.829  0.6040 -0.1763 -0.6800
34480SOL     OW 7481   2.084   3.721  10.222  0.1716 -0.3505  0.4044
34480SOL    HW1 7482   2.118   3.631  10.218  0.9414 -0.1065  1.0123
34480SOL    HW2 7483   2.010   3.722  10.162 -0.7446 -1.7786  1.4375
34481SOL     OW 7484   1.451   1.790   7.140  0.9206  0.2817  0.4028
34481SOL    HW1 7485   1.491   1.827   7.061 -0.7708  1.2452 -0.0454
34481SOL    HW2 7486   1.507   1.716   7.162  2.0897  0.6882 -1.0420
34482SOL     OW 7487   8.027   2.511   4.048  0.3542 -0.0522 -0.2583
34482SOL    HW1 7488   8.100   2.565   4.015 -1.3638  1.7285 -1.3877
34482SOL    HW2 7489   7.995   2.559   4.125 -1.6094  1.0205 -1.6531
34483SOL     OW 7490   3.976   0.520   7.287  0.1197  0.2651  0.4113
34483SOL    HW1 7491   3.906   0.459   7.309  1.3368 -1.5395 -0.5327
34483SOL    HW2 7492   3.959   0.545   7.196  1.3839 -1.2662 -0.3002
34484SOL     OW 7493   6.967   3.035   0.832  0.2027  0.8043  0.1832
34484SOL    HW1 7494   6.904   3.012   0.900  1.2404 -0.0826  0.8718
34484SOL    HW2 7495   7.028   3.094   0.876  0.3417  0.9839 -0.2469
34485SOL     OW 7496   0.632   2.173   5.085 -0.1931 -0.6590 -0.0233
34485SOL    HW1 7497   0.638   2.215   5.000 -0.8004 -0.5193 -0.0064
34485SOL    HW2 7498   0.714   2.126   5.096 -0.1527 -0.7546 -0.7265
34486SOL     OW 7499   0.766   8.775   1.329 -0.6119 -0.0870 -1.0321
34486SOL    HW1 7500   0.843   8.811   1.285 -0.0705 -0.3541 -0.3223
34486SOL    HW2 7501   0.739   8.844   1.390  0.1405 -0.6632 -0.0130
34487SOL     OW 7502   7.572  10.047   4.380  0.6618 -0.7823 -0.5148
34487SOL    HW1 7503   7.529   9.969   4.345  1.0868 -1.3553  0.2167
34487SOL    HW2 7504   7.621  10.016   4.456 -0.0761  0.3743  0.4860
34488SOL     OW 7505   0.780   8.118   2.889  0.3904  0.0157  0.7798
34488SOL    HW1 7506   0.788   8.085   2.978  2.6930 -1.5568  0.1023
34488SOL    HW2 7507   0.852   8.181   2.880  0.1315  0.2233  0.0778
34489SOL     OW 7508   5.701   5.431   7.388 -0.0342 -0.6845  0.4298
34489SOL    HW1 7509   5.636   5.486   7.345  0.6998 -0.7226 -0.7756
34489SOL    HW2 7510   5.650   5.365   7.435 -0.8631 -1.2258 -1.1840
34490SOL     OW 7511   2.822   4.102   7.509  0.0637  0.5007  0.1450
34490SOL    HW1 7512   2.810   4.013   7.475 -0.1561  1.1296 -1.5287
34490SOL    HW2 7513   2.865   4.090   7.593  1.3853 -1.1327 -0.7041
34491SOL     OW 7514   9.769   4.808   1.505 -0.8486  0.2348 -0.0249
34491SOL    HW1 7515   9.711   4.881   1.484  0.0568  0.4917 -1.8189
34491SOL    HW2 7516   9.770   4.755   1.425  0.9802 -0.0133  0.1195
34492SOL     OW 7517   4.403   4.584   0.503 -0.2926 -0.0824 -1.0097
34492SOL    HW1 7518   4.421   4.576   0.596  2.5465  0.8170 -1.4057
34492SOL    HW2 7519   4.457   4.517   0.461 -1.0971 -0.1078 -2.0718
34493SOL     OW 7520   1.395   5.557   4.293 -0.3675 -0.1679  0.0264
34493SOL    HW1 7521   1.354   5.475   4.265  1.2801 -0.4215 -1.8769
34493SOL    HW2 7522   1.356   5.624   4.236  1.3799 -0.3393 -1.4633
34494SOL     OW 7523   2.009   0.433   2.226  0.9053  0.0694  0.0987
34494SOL    HW1 7524   1.990   0.401   2.314  1.3041 -1.1243 -0.2162
34494SOL    HW2 7525   2.089   0.387   2.201  1.8599  1.7983 -0.1860
34495SOL     OW 7526   0.418   6.645   2.926 -0.3595 -0.3251  0.0620
34495SOL    HW1 7527   0.445   6.561   2.891  0.9280  0.3764 -0.7366
34495SOL    HW2 7528   0.344   6.626   2.983  0.5298 -2.1093  0.6694
34496SOL     OW 7529   6.255   9.229   8.620  0.3066  0.6427  0.1364
34496SOL    HW1 7530   6.226   9.302   8.566 -0.5391  0.9429  0.9587
34496SOL    HW2 7531   6.286   9.270   8.701  0.4196  0.1365  0.3562
34497SOL     OW 7532   6.763   4.113   8.075 -0.0377 -0.3296  0.2454
34497SOL    HW1 7533   6.724   4.074   7.996  0.6391 -1.7495  0.5893
34497SOL    HW2 7534   6.857   4.097   8.066  0.4314  2.2425 -0.1254
34498SOL     OW 7535   9.110   1.779   5.906 -0.3306  0.0337  0.1759
34498SOL    HW1 7536   9.028   1.816   5.939 -0.8164  1.4703 -2.3663
34498SOL    HW2 7537   9.085   1.734   5.825  1.2309 -0.5426 -0.0156
34499SOL     OW 7538   5.274   8.471   3.154 -0.3001  1.2130  0.3912
34499SOL    HW1 7539   5.246   8.541   3.212 -2.1897  0.4198  0.5262
34499SOL    HW2 7540   5.322   8.411   3.211 -1.8590  0.6047  1.1371
34500SOL     OW 7541   4.306   5.458  10.055  0.4854  0.1811  0.1187
34500SOL    HW1 7542   4.398   5.484  10.059  0.7056 -0.5189 -0.2307
34500SOL    HW2 7543   4.288   5.446   9.962 -0.2748  1.3717  0.0937
34501SOL     OW 7544   6.491   1.478   2.645 -0.2468 -0.2408 -0.6973
34501SOL    HW1 7545   6.477   1.559   2.596 -0.2208 -0.3753 -0.9283
34501SOL    HW2 7546   6.404   1.452   2.674  0.0493  1.7375  2.4045
34502SOL     OW 7547   3.269   3.177   4.736  0.3472 -0.0731 -0.3703
34502SOL    HW1 7548   3.289   3.107   4.798  1.9193  0.6218 -0.0469
34502SOL    HW2 7549   3.264   3.257   4.789 -0.5433  0.2181 -0.8514
34503SOL     OW 7550   1.148   9.484   1.889  0.4551 -0.3046 -0.0945
34503SOL    HW1 7551   1.084   9.447   1.950 -0.5674 -0.3845 -1.1679
34503SOL    HW2 7552   1.211   9.413   1.874  1.8509  0.3148  2.2893
34504SOL     OW 7553   4.817   1.010   5.042  0.7068 -0.2291 -0.1289
34504SOL    HW1 7554   4.822   1.011   4.946  1.6261 -2.0109 -0.1304
34504SOL    HW2 7555   4.737   0.962   5.061  1.9336 -2.3439 -0.0420
34505SOL     OW 7556   5.578   0.803   3.423 -0.2662 -0.0270 -0.0020
34505SOL    HW1 7557   5.619   0.811   3.510 -2.0317 -0.9501  0.9744
34505SOL    HW2 7558   5.650   0.814   3.362  0.9948  1.0092  1.5692
34506SOL     OW 7559   7.043   0.848   8.061  0.4778 -0.6348 -0.1090
34506SOL    HW1 7560   7.107   0.809   8.002 -3.1642 -2.6698 -3.1207
34506SOL    HW2 7561   7.011   0.776   8.114 -0.7073 -0.0789 -0.0418
34507SOL     OW 7562   5.723   4.773   0.283 -0.0504  0.4920 -0.2187
34507SOL    HW1 7563   5.633   4.747   0.305 -0.4783  1.3179 -0.9311
34507SOL    HW2 7564   5.726   4.769   0.187  0.9976 -0.5301 -0.1664
34508SOL     OW 7565   1.606   1.505   5.612  0.1999 -0.1266 -0.3781
34508SOL    HW1 7566   1.553   1.527   5.689  0.7459  0.3019 -0.1076
34508SOL    HW2 7567   1.667   1.438   5.643  0.5208  0.1547 -0.3924
34509SOL     OW 7568   1.077   2.776   2.685 -0.2701  0.0798 -0.0528
34509SOL    HW1 7569   1.002   2.720   2.705  1.5456 -1.3057  4.0570
34509SOL    HW2 7570   1.063   2.856   2.737  0.4687  0.3699 -0.2730
34510SOL     OW 7571   9.310   3.674   5.786  0.0054  0.0359  0.2814
34510SOL    HW1 7572   9.232   3.698   5.735  0.7240 -0.7952 -1.2854
34510SOL    HW2 7573   9.280   3.677   5.877 -1.7320  0.1933 -0.2434
34511SOL     OW 7574   8.351   5.205   8.790 -0.7244  0.2756  0.2014
34511SOL    HW1 7575   8.307   5.290   8.787  0.0562  0.8916  2.8496
34511SOL    HW2 7576   8.394   5.205   8.875  3.5426 -0.6922 -1.7130
34512SOL     OW 7577   4.141   1.440   2.400 -0.2706 -0.2177 -0.4991
34512SOL    HW1 7578   4.150   1.408   2.310  1.1300  1.3607 -0.9621
34512SOL    HW2 7579   4.222   1.413   2.443  0.2434  1.2768 -0.4711
34513SOL     OW 7580   6.489   9.573   9.449 -0.2283  1.0904  0.0386
34513SOL    HW1 7581   6.407   9.556   9.496  0.0833 -0.2812  0.1317
34513SOL    HW2 7582   6.481   9.663   9.419 -2.1326  0.7361 -0.6484
34514SOL     OW 7583   5.578   5.424   4.609 -0.2124  0.2494  0.1885
34514SOL    HW1 7584   5.537   5.475   4.539  1.2633  2.7887  1.0576
34514SOL    HW2 7585   5.569   5.333   4.580 -0.4986  1.1172 -2.8299
34515SOL     OW 7586   8.912   5.822   4.070  0.0070  0.1476 -0.3562
34515SOL    HW1 7587   8.896   5.728   4.069 -1.5463  0.3502  1.2663
34515SOL    HW2 7588   8.931   5.844   3.978 -2.7534 -1.2571 -1.3942
34516SOL     OW 7589   5.910   7.547   5.412 -0.2477 -0.2667  0.0107
34516SOL    HW1 7590   5.914   7.511   5.323  2.2400 -0.7193  0.2357
34516SOL    HW2 7591   5.818   7.540   5.437 -0.3279 -4.4664 -0.8129
34517SOL     OW 7592   7.009   4.680   7.889  0.0102 -0.2526  0.0042
34517SOL    HW1 7593   6.931   4.722   7.854 -0.3781 -0.9435  0.0245
34517SOL    HW2 7594   7.053   4.642   7.812  1.1834  1.4799 -0.2330
34518SOL     OW 7595   5.619   3.178   3.809 -0.0556 -0.2347 -0.3794
34518SOL    HW1 7596   5.662   3.261   3.829 -0.3393 -0.3675  0.8055
34518SOL    HW2 7597   5.553   3.200   3.743  0.4790  0.3081 -0.7428
34519SOL     OW 7598   2.596   0.779   6.290 -0.4721 -0.3997 -0.0121
34519SOL    HW1 7599   2.608   0.746   6.379  3.0861  2.8752  1.0341
34519SOL    HW2 7600   2.677   0.756   6.245 -0.3728  1.6043 -0.9869
34520SOL     OW 7601   8.987   2.986   5.692  0.1864  0.0932 -0.0146
34520SOL    HW1 7602   9.000   2.891   5.692  0.7710  0.1717  0.0671
34520SOL    HW2 7603   9.066   3.021   5.733 -0.6073  0.5369  1.2001
34521SOL     OW 7604   5.914   8.394   0.566 -0.7969  0.2260 -0.4017
34521SOL    HW1 7605   5.914   8.311   0.518 -0.7148 -1.4229  2.2808
34521SOL    HW2 7606   5.963   8.454   0.510 -0.5678 -1.6108 -2.2736
34522SOL     OW 7607   4.353   0.551   6.131 -0.8158  0.0629  0.0039
34522SOL    HW1 7608   4.342   0.479   6.192 -1.6312  0.5716  0.4737
34522SOL    HW2 7609   4.415   0.610   6.174 -1.9267  0.7659  0.6829
34523SOL     OW 7610   3.242   9.640   6.145  0.0309  0.1738  0.1379
34523SOL    HW1 7611   3.214   9.731   6.132  0.3332  0.1760 -0.4931
34523SOL    HW2 7612   3.220   9.622   6.237  0.4931  1.0624  0.4318
34524SOL     OW 7613   6.730   0.655   6.503 -0.0030  0.0409 -0.3208
34524SOL    HW1 7614   6.750   0.633   6.413  0.3365  0.1954 -0.2855
34524SOL    HW2 7615   6.800   0.615   6.554  0.0017  0.2492 -0.1596
34525SOL     OW 7616   0.614   1.068   6.130  0.5301 -0.3079 -0.0024
34525SOL    HW1 7617   0.566   1.126   6.071 -1.1174 -2.8748 -1.3714
34525SOL    HW2 7618   0.687   1.036   6.077  1.9493  1.0906  1.0301
34526SOL     OW 7619   8.377   3.341   6.095  0.1386  0.1931  0.4769
34526SOL    HW1 7620   8.382   3.247   6.080  2.7211  0.1022  1.4087
34526SOL    HW2 7621   8.331   3.375   6.018 -2.1686 -1.8971  0.8007
34527SOL     OW 7622   1.823   7.837   2.684 -0.0602  0.5942 -0.2892
34527SOL    HW1 7623   1.858   7.873   2.602 -1.8092  0.9574 -0.9190
34527SOL    HW2 7624   1.746   7.891   2.703  0.0929  0.2679  1.4025
34528SOL     OW 7625   9.789   5.247   8.307  0.1092  0.5395 -0.3813
34528SOL    HW1 7626   9.755   5.174   8.256 -0.1657 -1.0211  1.8857
34528SOL    HW2 7627   9.744   5.241   8.391  1.0344  2.5669  0.3346
34529SOL     OW 7628   4.709   7.854   4.633  0.0197 -0.1347  0.0945
34529SOL    HW1 7629   4.752   7.846   4.718  0.7649  1.6221 -0.0772
34529SOL    HW2 7630   4.779   7.874   4.572 -0.3976 -2.1007 -1.1344
34530SOL     OW 7631   8.100   8.038   8.984  0.2046 -0.2658  0.5571
34530SOL    HW1 7632   8.082   8.112   9.042 -0.3219  0.8096 -0.9139
34530SOL    HW2 7633   8.195   8.036   8.976  0.1847  0.8714 -0.1410
34531SOL     OW 7634   1.798   9.199   1.495  0.6427  0.3465 -0.1669
34531SOL    HW1 7635   1.832   9.135   1.431 -0.0948 -0.7584  0.5183
34531SOL    HW2 7636   1.738   9.149   1.549  1.0132  1.3440  1.2119
34532SOL     OW 7637   3.579   3.950   8.034 -0.5202  0.3611  0.1122
34532SOL    HW1 7638   3.540   4.027   7.991  2.6537  1.0391 -1.8819
34532SOL    HW2 7639   3.569   3.879   7.970 -2.5474 -0.7581  1.5437
34533SOL     OW 7640   2.447   1.932   3.021 -0.0898  0.0867 -0.0831
34533SOL    HW1 7641   2.466   1.888   2.938 -0.7651 -0.2136 -0.0808
34533SOL    HW2 7642   2.371   1.988   3.002  1.9227  2.8803 -0.6466
34534SOL     OW 7643   9.486   6.485   1.706 -0.0263  0.2894  0.1431
34534SOL    HW1 7644   9.567   6.514   1.665 -0.8133 -0.0512 -1.7813
34534SOL    HW2 7645   9.437   6.565   1.723 -0.6101  0.3651 -1.6882
34535SOL     OW 7646   0.263   0.671   0.091 -0.5636  0.5451 -0.4252
34535SOL    HW1 7647   0.185   0.705   0.134 -1.3627 -1.1729 -0.4049
34535SOL    HW2 7648   0.233   0.644   0.004 -0.2349 -0.9398 -0.1057
34536SOL     OW 7649   4.742   3.907   3.084 -0.4559  1.2105  0.4671
34536SOL    HW1 7650   4.766   3.824   3.123 -2.9492  0.5323  0.7752
34536SOL    HW2 7651   4.766   3.973   3.149 -1.1539  0.4316  1.5321
34537SOL     OW 7652   0.115   2.804   9.898 -0.4933 -0.0692  0.2924
34537SOL    HW1 7653   0.079   2.771   9.980 -0.2010  2.2904  1.4415
34537SOL    HW2 7654   0.158   2.727   9.859 -1.3237 -1.4377  1.9181
34538SOL     OW 7655   7.254  10.089   0.127 -0.2118 -0.8706  0.1273
34538SOL    HW1 7656   7.229  10.021   0.190 -1.5557 -0.7664 -0.2446
34538SOL    HW2 7657   7.249  10.045   0.042 -2.3951 -0.0548 -0.2506
34539SOL     OW 7658   2.334   9.141   2.106 -0.0337 -0.0745  0.0576
34539SOL    HW1 7659   2.335   9.208   2.174 -0.3886 -0.8574  0.8563
34539SOL    HW2 7660   2.414   9.156   2.056  0.5749  0.1103  1.0534
34540SOL     OW 7661   3.607   2.013   4.564 -0.7744  0.0366  0.1679
34540SOL    HW1 7662   3.525   2.054   4.593 -0.7842 -0.1270  0.3748
34540SOL    HW2 7663   3.581   1.926   4.536 -1.2382  1.0842 -3.0076
34541SOL     OW 7664   8.150   8.370   7.964 -0.1562  0.4422  0.0968
34541SOL    HW1 7665   8.117   8.407   7.882  1.3164 -0.9433 -1.2175
34541SOL    HW2 7666   8.072   8.338   8.009 -0.8482 -1.5436 -2.2555
34542SOL     OW 7667   1.539   6.947   6.804 -0.0899 -0.5391 -0.5441
34542SOL    HW1 7668   1.606   6.917   6.865 -0.3021 -0.8373 -0.4581
34542SOL    HW2 7669   1.562   7.038   6.786 -1.2530  0.2411  1.6534
34543SOL     OW 7670   4.610   8.940   7.761  0.3744 -0.4749 -0.0758
34543SOL    HW1 7671   4.580   9.016   7.712  0.2331  0.4970  1.4536
34543SOL    HW2 7672   4.704   8.955   7.773  0.5212 -0.9992 -0.5291
34544SOL     OW 7673   8.728   9.168   1.399 -0.3976  0.4872 -0.0108
34544SOL    HW1 7674   8.750   9.149   1.308 -1.1101 -1.9550  0.2465
34544SOL    HW2 7675   8.806   9.143   1.449 -1.3427 -2.1202  0.3322
34545SOL     OW 7676   8.775   1.623   4.029  0.2770  0.0816  0.1869
34545SOL    HW1 7677   8.762   1.564   4.103  0.7900 -1.7257 -1.0694
34545SOL    HW2 7678   8.751   1.710   4.061 -1.1619 -0.9093  1.9332
34546SOL     OW 7679   9.521   7.057  10.220 -0.4575  0.3807 -0.2087
34546SOL    HW1 7680   9.542   7.065  10.127  2.7657  0.4426  0.4402
34546SOL    HW2 7681   9.466   6.978  10.225 -1.8720  1.1578 -2.2582
34547SOL     OW 7682   5.256  10.276   8.591 -0.9250  0.3805  0.2677
34547SOL    HW1 7683   5.221  10.188   8.595  1.5093 -0.6998 -0.2782
34547SOL    HW2 7684   5.259  10.297   8.497  3.1532 -1.1231 -0.1381
34548SOL     OW 7685   0.757   6.647   4.584  0.1870 -0.0684  0.1875
34548SOL    HW1 7686   0.711   6.565   4.602  0.2476  0.4065  2.8114
34548SOL    HW2 7687   0.696   6.696   4.527 -0.8103 -1.0258  0.3924
34549SOL     OW 7688  10.283   2.560   2.199 -0.6067 -0.1366  0.3880
34549SOL    HW1 7689  10.325   2.513   2.126 -0.8844  0.3974 -0.1284
34549SOL    HW2 7690  10.190   2.538   2.192 -0.8046  0.7995 -0.1172
34550SOL     OW 7691   5.109   5.938   0.241 -0.1016 -0.5426 -0.0927
34550SOL    HW1 7692   5.157   5.934   0.159  0.7920  1.2181  0.2997
34550SOL    HW2 7693   5.154   5.875   0.298  1.5215  0.7319  0.1139
34551SOL     OW 7694   4.057   5.751   4.326  0.5694 -0.4970 -0.1744
34551SOL    HW1 7695   4.021   5.723   4.242 -0.3557  1.0584 -0.3299
34551SOL    HW2 7696   4.127   5.812   4.303  1.0680 -0.9236  0.1843
34552SOL     OW 7697   8.926   2.205  10.170 -0.4439  0.6745 -0.0658
34552SOL    HW1 7698   9.018   2.217  10.145 -0.8406  0.9257 -1.5060
34552SOL    HW2 7699   8.884   2.287  10.144 -1.2447  0.2008 -0.2796
34553SOL     OW 7700   5.311   9.958   8.469  0.8523 -0.3749  0.3838
34553SOL    HW1 7701   5.337  10.005   8.390  1.9236 -1.3513  0.1241
34553SOL    HW2 7702   5.225   9.923   8.449  1.3570 -1.0967 -0.5890
34554SOL     OW 7703   7.817   3.062   4.327 -0.4356  0.4131  0.2673
34554SOL    HW1 7704   7.799   2.991   4.265 -1.0060  1.4894 -0.8427
34554SOL    HW2 7705   7.904   3.044   4.360 -0.7177 -1.0085  0.2873
34555SOL     OW 7706   5.402   2.700   6.552 -0.2363  0.2297  0.1909
34555SOL    HW1 7707   5.397   2.779   6.499  0.7171  1.5717  2.0104
34555SOL    HW2 7708   5.318   2.697   6.598 -0.0288  0.5635  0.6017
34556SOL     OW 7709   2.491   9.092   6.792 -0.6419 -0.1620  0.4674
34556SOL    HW1 7710   2.460   9.115   6.705 -1.0331 -1.8732  0.1384
34556SOL    HW2 7711   2.414   9.060   6.838 -0.0773 -1.0242  0.8314
34557SOL     OW 7712   7.147   5.628   8.516 -0.1594  0.8020  0.1637
34557SOL    HW1 7713   7.112   5.668   8.596 -4.5744 -0.9923 -0.5614
34557SOL    HW2 7714   7.156   5.701   8.455 -0.5599  1.6687  1.0970
34558SOL     OW 7715   9.735   5.588   7.773 -0.2392 -0.5646 -0.0993
34558SOL    HW1 7716   9.725   5.494   7.782  1.5108 -0.9937 -1.8309
34558SOL    HW2 7717   9.827   5.605   7.796 -0.2623  0.5571 -0.7535
34559SOL     OW 7718   3.643   4.472   9.401 -0.3874 -0.3564  0.1083
34559SOL    HW1 7719   3.704   4.399   9.413 -1.4835 -1.1342  1.1410
34559SOL    HW2 7720   3.688   4.548   9.438  0.0239 -0.8886  0.7051
34560SOL     OW 7721   7.810   5.177   8.064  0.1178  0.4589  0.3753
34560SOL    HW1 7722   7.718   5.152   8.057  0.9193 -3.4204  1.3180
34560SOL    HW2 7723   7.827   5.180   8.158  1.6508 -2.6736  0.3383
34561SOL     OW 7724   6.112   9.195   3.462  0.1208 -0.2100 -0.2523
34561SOL    HW1 7725   6.106   9.283   3.425  0.5598 -0.0376  0.0787
34561SOL    HW2 7726   6.021   9.164   3.465  0.0845 -0.3070 -1.6334
34562SOL     OW 7727   9.405   8.062   3.653 -0.5293 -0.0488 -0.2436
34562SOL    HW1 7728   9.365   8.111   3.581 -0.0836 -1.3002 -1.3890
34562SOL    HW2 7729   9.424   7.976   3.616  1.0050 -0.2825  0.9691
34563SOL     OW 7730   4.815   6.498   3.379 -0.1207 -0.0236 -0.1175
34563SOL    HW1 7731   4.880   6.567   3.392  0.7760 -1.0034  0.8367
34563SOL    HW2 7732   4.863   6.429   3.333 -0.8678 -0.2337 -0.6018
34564SOL     OW 7733   4.114   9.272   2.964 -0.3079 -0.3642  0.0137
34564SOL    HW1 7734   4.102   9.297   3.056  0.5491 -0.0141  0.0420
34564SOL    HW2 7735   4.204   9.241   2.960  0.3008  1.4072 -1.1006
34565SOL     OW 7736   4.687   7.928   9.065 -0.1938 -0.3913 -0.0491
34565SOL    HW1 7737   4.646   7.956   8.983 -0.9087 -0.7460  0.1731
34565SOL    HW2 7738   4.779   7.917   9.043  0.1379  2.0467 -0.1684
34566SOL     OW 7739   5.452   4.571   5.027 -0.0372  0.7580 -0.5274
34566SOL    HW1 7740   5.393   4.630   5.073 -1.3903  0.3027 -1.6143
34566SOL    HW2 7741   5.532   4.622   5.013 -0.2999  1.5047  0.6501
34567SOL     OW 7742   7.335   7.630   2.611  0.1546  0.3081 -0.1086
34567SOL    HW1 7743   7.296   7.587   2.687  2.8715 -2.4155 -0.0575
34567SOL    HW2 7744   7.262   7.649   2.553 -1.5110 -1.9284  1.1291
34568SOL     OW 7745   8.021   3.449  10.155 -0.1205  0.1827 -0.3479
34568SOL    HW1 7746   8.086   3.381  10.143  0.3436  0.6591 -0.5542
34568SOL    HW2 7747   8.004   3.449  10.249 -0.1864 -0.2699 -0.3580
34569SOL     OW 7748   7.587   0.363   8.787 -0.0974 -0.6211 -0.1080
34569SOL    HW1 7749   7.518   0.406   8.738  0.3905  0.2930 -0.0216
34569SOL    HW2 7750   7.544   0.329   8.865 -0.1109  1.9508  1.1291
34570SOL     OW 7751   1.840   7.270   6.978 -0.3616  0.0875  0.4780
34570SOL    HW1 7752   1.896   7.194   6.998 -0.3039  0.1626  0.6062
34570SOL    HW2 7753   1.777   7.237   6.915  0.1050  0.1141 -0.0116
34571SOL     OW 7754   4.874   0.790   3.985 -0.3006  0.2549 -0.3916
34571SOL    HW1 7755   4.812   0.791   4.058 -0.8271 -0.3411 -0.8256
34571SOL    HW2 7756   4.959   0.804   4.027 -0.7443  1.5172  0.1670
34572SOL     OW 7757   4.887   0.410   1.354  0.2899  0.1678 -0.6456
34572SOL    HW1 7758   4.961   0.392   1.413 -1.2535  1.3388  1.8126
34572SOL    HW2 7759   4.876   0.505   1.358 -0.0350  0.2606 -2.7303
34573SOL     OW 7760  10.177   3.112   1.855  0.0521 -0.0627 -0.0023
34573SOL    HW1 7761  10.087   3.126   1.828  0.5436  2.2515 -0.6830
34573SOL    HW2 7762  10.171   3.050   1.928 -2.0611  0.0107 -0.0499
34574SOL     OW 7763   8.865   1.756  10.154 -0.4472  0.0302 -0.4895
34574SOL    HW1 7764   8.917   1.822  10.108  1.7082  0.2413  1.9973
34574SOL    HW2 7765   8.864   1.786  10.245 -1.4886 -2.1188  0.2603
34575SOL     OW 7766   7.779   3.693   8.310  0.5725 -0.3714 -1.0971
34575SOL    HW1 7767   7.808   3.741   8.388 -2.1792 -0.2737 -0.0225
34575SOL    HW2 7768   7.769   3.603   8.339  0.9219 -0.6337 -1.7611
34576SOL     OW 7769   8.088   4.345   0.237  0.0182 -0.1723  0.2064
34576SOL    HW1 7770   8.134   4.281   0.291  2.2011  1.2327  0.1209
34576SOL    HW2 7771   8.126   4.335   0.149 -0.4205  0.4764 -0.0706
34577SOL     OW 7772   3.978   5.748   4.053  0.5949 -0.2382 -0.2182
34577SOL    HW1 7773   3.935   5.734   3.969 -0.9186 -0.2688  0.5273
34577SOL    HW2 7774   3.980   5.843   4.063  1.4166 -0.2079 -0.5895
34578SOL     OW 7775   6.566   9.056   8.553 -0.2787  0.0174  0.0212
34578SOL    HW1 7776   6.536   9.004   8.628 -1.8474  2.7493  1.4559
34578SOL    HW2 7777   6.496   9.120   8.540  1.3039  1.4500 -1.9538
34579SOL     OW 7778   6.870   2.506   3.538  0.4633  0.4054 -0.3095
34579SOL    HW1 7779   6.860   2.550   3.454  0.8611  2.2213  0.5361
34579SOL    HW2 7780   6.920   2.568   3.591 -2.4095  0.7562  2.2650
34580SOL     OW 7781   6.084   9.447   5.080  0.5419  0.3642 -0.7483
34580SOL    HW1 7782   6.040   9.447   4.995 -1.6323  1.1511  0.3045
34580SOL    HW2 7783   6.105   9.538   5.097 -0.9108  0.5185  0.4205
34581SOL     OW 7784  10.114   0.347   0.503  0.5040 -0.3343 -0.6224
34581SOL    HW1 7785  10.116   0.407   0.429 -0.7479  1.3104  0.6128
34581SOL    HW2 7786  10.125   0.403   0.580  2.4142 -2.0506  0.4575
34582SOL     OW 7787   5.687   4.316   6.516  0.6242  0.3934  0.2463
34582SOL    HW1 7788   5.686   4.288   6.607  0.3994  0.3325  0.2245
34582SOL    HW2 7789   5.699   4.411   6.520 -3.4337  1.0714  0.5097
34583SOL     OW 7790   9.468   8.794   6.851 -0.1476  0.0803 -0.2658
34583SOL    HW1 7791   9.550   8.744   6.850 -1.3367 -2.1953  2.2226
34583SOL    HW2 7792   9.400   8.729   6.835 -1.6764  1.1318  1.4802
34584SOL     OW 7793   0.297   6.080   7.437  0.0012 -0.3853  0.1084
34584SOL    HW1 7794   0.382   6.050   7.405 -0.1433 -1.1122  0.3719
34584SOL    HW2 7795   0.314   6.165   7.477  0.4461 -0.1359 -0.5896
34585SOL     OW 7796   3.764   9.085   0.772  0.2468  0.0166 -0.0261
34585SOL    HW1 7797   3.714   9.007   0.798 -0.7728  0.2015 -1.2934
34585SOL    HW2 7798   3.805   9.116   0.853 -0.3782 -1.0993  0.7416
34586SOL     OW 7799   4.699   9.325   9.007 -0.0939 -0.5799  0.5648
34586SOL    HW1 7800   4.686   9.236   8.973 -1.3270 -0.0748 -0.3567
34586SOL    HW2 7801   4.751   9.369   8.939 -0.4478 -0.2893  0.4751
34587SOL     OW 7802   9.887   2.859   3.315 -0.0131 -0.0160  0.6574
34587SOL    HW1 7803   9.834   2.822   3.385 -0.5291  1.6750  1.2107
34587SOL    HW2 7804   9.976   2.859   3.350 -0.0330 -0.5365  0.7152
34588SOL     OW 7805   8.297   4.456   4.802 -0.8869  0.4585  0.1309
34588SOL    HW1 7806   8.390   4.434   4.791 -0.9621 -0.6052  1.3493
34588SOL    HW2 7807   8.252   4.372   4.792 -1.5437  0.6535  1.2936
34589SOL     OW 7808   5.189  10.216   7.413 -0.1547  0.3986 -0.5801
34589SOL    HW1 7809   5.198  10.274   7.337  0.0439  0.6672 -0.3523
34589SOL    HW2 7810   5.156  10.272   7.482 -1.8582 -0.1668 -0.8757
34590SOL     OW 7811   0.524   6.783   9.752  0.3507  0.0940 -0.0347
34590SOL    HW1 7812   0.501   6.870   9.786  0.1826 -0.6003  1.7197
34590SOL    HW2 7813   0.618   6.788   9.735  0.3031  0.6766 -0.1609
34591SOL     OW 7814   6.833   7.488   4.814  0.0795 -0.0706 -0.6338
34591SOL    HW1 7815   6.836   7.577   4.850  0.2725 -0.5200  0.5350
34591SOL    HW2 7816   6.878   7.435   4.880  1.5332 -0.7724 -2.1173
34592SOL     OW 7817   6.912   3.468   5.040 -0.5552  0.1578 -0.0314
34592SOL    HW1 7818   6.902   3.529   4.968  1.6713  0.6726  0.0262
34592SOL    HW2 7819   6.930   3.523   5.116  3.8472 -0.4100 -0.3818
34593SOL     OW 7820   6.305   0.813   5.073 -0.1448 -0.4461  0.4276
34593SOL    HW1 7821   6.301   0.718   5.079 -0.1200 -0.5877 -1.2959
34593SOL    HW2 7822   6.228   0.837   5.020 -0.2842  0.5195  1.0423
34594SOL     OW 7823   0.929   6.752   2.577 -0.0199  0.1554  0.4172
34594SOL    HW1 7824   1.000   6.760   2.641 -0.2438  0.1383  0.6662
34594SOL    HW2 7825   0.926   6.837   2.533  1.2590 -0.3544 -0.7561
34595SOL     OW 7826   5.576   7.103   6.122  0.1398 -0.4749  0.1425
34595SOL    HW1 7827   5.585   7.158   6.200  0.1606 -1.4322  0.8399
34595SOL    HW2 7828   5.534   7.159   6.057 -0.7394  0.0600  1.1492
34596SOL     OW 7829   9.642   6.184   4.404 -0.0995 -0.1392  0.1251
34596SOL    HW1 7830   9.671   6.106   4.452 -0.7564 -0.2996  0.2746
34596SOL    HW2 7831   9.723   6.232   4.385  0.1583  0.1949  1.8458
34597SOL     OW 7832   0.296   2.024   6.953 -0.2647 -0.2429 -0.6112
34597SOL    HW1 7833   0.265   2.037   7.043 -1.7775 -0.7399 -1.0356
34597SOL    HW2 7834   0.391   2.032   6.959 -0.2195 -1.6659  1.2898
34598SOL     OW 7835   7.983   5.934   0.225  0.5998 -0.1390 -0.3051
34598SOL    HW1 7836   8.010   5.860   0.170  0.2946  0.9316 -1.9739
34598SOL    HW2 7837   7.898   5.960   0.191  0.1247  0.2141  1.0840
34599SOL     OW 7838   2.723   9.519   6.318 -0.3287 -0.2148 -0.1019
34599SOL    HW1 7839   2.694   9.428   6.306  0.0866 -0.2712 -0.6982
34599SOL    HW2 7840   2.644   9.571   6.303 -0.1446 -0.3644 -1.7312
34600SOL     OW 7841   1.011   5.518   2.903 -0.2668 -0.3593  0.0981
34600SOL    HW1 7842   1.022   5.612   2.920 -0.2949 -0.1061 -1.2300
34600SOL    HW2 7843   1.002   5.479   2.991 -1.1037  0.9767  0.6395
34601SOL     OW 7844   4.925   3.043   5.296 -0.2388  0.4037 -0.2399
34601SOL    HW1 7845   4.966   3.048   5.382  1.6017 -1.0142 -0.9724
34601SOL    HW2 7846   4.856   2.977   5.306 -0.3769  0.6244  0.2760
34602SOL     OW 7847   8.353   5.102   3.292  0.0420 -0.3228  0.3821
34602SOL    HW1 7848   8.372   5.077   3.201  1.2869 -0.9499  0.7981
34602SOL    HW2 7849   8.285   5.041   3.319 -0.6734  0.1686 -0.2654
34603SOL     OW 7850   2.665   3.819   0.316 -0.2236 -0.1634  0.2551
34603SOL    HW1 7851   2.659   3.914   0.326  1.5528 -0.0183  0.1832
34603SOL    HW2 7852   2.671   3.785   0.405  1.5884  0.0131  0.2289
34604SOL     OW 7853   1.026   3.001   8.428 -0.5502 -0.6390  0.1397
34604SOL    HW1 7854   1.011   2.920   8.477 -0.7790 -1.5664 -1.4082
34604SOL    HW2 7855   1.120   3.019   8.440 -0.4013 -1.3782  0.1270
34605SOL     OW 7856   8.780   6.676   0.562 -0.5675  0.5215  0.1736
34605SOL    HW1 7857   8.815   6.649   0.646 -1.2022 -1.1855 -0.0752
34605SOL    HW2 7858   8.696   6.631   0.554  1.5631 -3.6223 -3.4415
34606SOL     OW 7859   8.809   4.470   8.050 -1.3008 -0.2928  0.2674
34606SOL    HW1 7860   8.877   4.414   8.014 -1.9986 -0.3679 -1.0130
34606SOL    HW2 7861   8.845   4.559   8.044 -1.0000 -0.4104  0.3476
34607SOL     OW 7862   2.730   9.610   3.184 -0.4944  0.0275  0.0729
34607SOL    HW1 7863   2.719   9.526   3.228  0.8249 -1.7060 -2.6131
34607SOL    HW2 7864   2.642   9.638   3.162 -1.0880  0.3328  2.5428
34608SOL     OW 7865   2.183   3.910   6.980  0.0307 -0.7922 -0.4594
34608SOL    HW1 7866   2.144   3.981   6.929  0.2635  0.8521  1.5370
34608SOL    HW2 7867   2.269   3.896   6.940  0.3358  0.6640 -0.3656
34609SOL     OW 7868   4.554   6.770  10.168 -0.3197  0.3151 -0.0284
34609SOL    HW1 7869   4.511   6.684  10.172  0.7478 -0.2652  4.4983
34609SOL    HW2 7870   4.483   6.833  10.179 -0.6592 -0.3579  2.0001
34610SOL     OW 7871   8.356   3.692  10.194 -0.6936 -0.8369  0.0540
34610SOL    HW1 7872   8.410   3.732  10.263 -1.1627 -0.3919  0.1703
34610SOL    HW2 7873   8.358   3.599  10.213  1.0838 -0.9842 -0.6898
34611SOL     OW 7874   3.589   0.686   0.615 -0.1215  0.6008  0.0909
34611SOL    HW1 7875   3.549   0.762   0.574  1.1562  1.3911  0.2389
34611SOL    HW2 7876   3.582   0.702   0.709  1.2560  1.1737  0.1191
34612SOL     OW 7877   7.577   8.894   0.192  0.4204  0.4850 -0.1343
34612SOL    HW1 7878   7.639   8.855   0.254  0.7467 -0.4609 -1.0325
34612SOL    HW2 7879   7.494   8.899   0.240  0.7575  0.0941  0.4949
34613SOL     OW 7880   4.987   5.733   4.760 -0.0529 -0.0697  0.3909
34613SOL    HW1 7881   4.953   5.659   4.811 -1.1707  0.8361  0.9923
34613SOL    HW2 7882   4.910   5.786   4.740  0.6822  0.7287 -0.3791
34614SOL     OW 7883   6.987   5.778   4.660 -0.5732  0.0641 -0.2719
34614SOL    HW1 7884   7.073   5.739   4.676 -0.5408  0.2725  0.0677
34614SOL    HW2 7885   6.964   5.750   4.571 -0.5841 -0.7952 -0.0062
34615SOL     OW 7886   3.860  10.258   5.897 -0.1218  0.3092 -0.3768
34615SOL    HW1 7887   3.811  10.334   5.866 -2.2940 -0.0177  1.9355
34615SOL    HW2 7888   3.896  10.286   5.982  0.3703 -0.7511 -0.2254
34616SOL     OW 7889   6.507   0.808   1.345  0.3858 -0.0856  0.3194
34616SOL    HW1 7890   6.447   0.789   1.272  0.7835 -1.7059  0.3917
34616SOL    HW2 7891   6.592   0.819   1.302  0.5933 -0.8962  0.5152
34617SOL     OW 7892   6.331   8.827   3.239  0.2488  0.1655 -0.7418
34617SOL    HW1 7893   6.254   8.885   3.238 -0.6265 -0.9442 -2.5860
34617SOL    HW2 7894   6.358   8.822   3.148  1.8606 -0.3521 -0.2624
34618SOL     OW 7895   3.217   3.776   7.256  0.1049 -0.4049 -0.2416
34618SOL    HW1 7896   3.195   3.830   7.331 -0.6615  1.3987 -1.6764
34618SOL    HW2 7897   3.259   3.698   7.293  2.2246  1.6014  1.8847
34619SOL     OW 7898   5.224   6.690   7.521  0.3682  0.0746 -0.3096
34619SOL    HW1 7899   5.189   6.768   7.479 -0.1906  0.5884  1.0564
34619SOL    HW2 7900   5.189   6.692   7.610  1.7374 -0.8166  0.2946
34620SOL     OW 7901   8.563   0.881   1.849  0.4216  0.0015  0.5070
34620SOL    HW1 7902   8.636   0.887   1.788 -0.3466 -0.5654 -0.5009
34620SOL    HW2 7903   8.533   0.790   1.841 -1.6832  0.7324 -0.6536
34621SOL     OW 7904   0.019   4.334   6.201 -0.2748  0.2441 -0.1975
34621SOL    HW1 7905  -0.001   4.357   6.292 -1.3996 -1.9674  0.1713
34621SOL    HW2 7906  -0.024   4.402   6.149  0.6896  1.7474  0.8935
34622SOL     OW 7907   7.529   6.622   3.688 -0.9452 -0.4570  0.1331
34622SOL    HW1 7908   7.511   6.687   3.620 -0.6597 -0.6392 -0.1219
34622SOL    HW2 7909   7.443   6.593   3.717 -1.0873  0.4119  0.6184
34623SOL     OW 7910  10.026   7.148   0.114 -0.3873 -0.2667 -0.3121
34623SOL    HW1 7911   9.978   7.198   0.181 -0.3134  0.4510 -0.7809
34623SOL    HW2 7912  10.105   7.118   0.158 -0.1715  0.4964 -0.1647
34624SOL     OW 7913   3.582   2.909   3.498  0.4296  0.1612 -0.2715
34624SOL    HW1 7914   3.601   2.909   3.404  0.3435  1.5566 -0.3094
34624SOL    HW2 7915   3.668   2.903   3.540  0.5201  0.2996 -0.4383
34625SOL     OW 7916   3.290   0.805   8.674 -0.3763  0.6695  0.8828
34625SOL    HW1 7917   3.297   0.854   8.592 -0.8939  0.5495  0.7595
34625SOL    HW2 7918   3.285   0.872   8.742 -1.1755  0.8034  0.7066
34626SOL     OW 7919   9.504   4.774   3.576  0.4384 -0.5240  0.2346
34626SOL    HW1 7920   9.477   4.865   3.568 -1.0655 -1.0531 -1.2801
34626SOL    HW2 7921   9.577   4.764   3.515  0.2993 -0.4428  0.0559
34627SOL     OW 7922   3.297   7.615   1.169 -0.3502  0.0478  0.0412
34627SOL    HW1 7923   3.362   7.674   1.130  0.9830 -0.3949  1.5103
34627SOL    HW2 7924   3.333   7.528   1.156 -1.0672 -0.2687  0.1407
34628SOL     OW 7925  10.140   0.430   8.022 -0.1363 -0.1383  0.0565
34628SOL    HW1 7926  10.123   0.442   8.115 -1.7985 -0.1741 -0.2108
34628SOL    HW2 7927  10.197   0.503   7.998  2.1313 -1.3230  1.5114
34629SOL     OW 7928   2.653   6.599   1.631  0.0878  0.3199 -0.4556
34629SOL    HW1 7929   2.719   6.643   1.685  0.6107  0.8259 -1.4892
34629SOL    HW2 7930   2.638   6.516   1.676 -0.4870  1.2661  1.2071
34630SOL     OW 7931   2.795   4.035  10.074  0.3486 -0.2364 -0.1582
34630SOL    HW1 7932   2.820   4.077   9.991  0.1550  1.1382  0.4456
34630SOL    HW2 7933   2.708   4.000  10.057  0.6890 -0.8111 -0.8081
34631SOL     OW 7934   7.755   1.178   0.719  0.0318  0.0588  0.1570
34631SOL    HW1 7935   7.668   1.192   0.757 -0.4740  1.3807 -1.4092
34631SOL    HW2 7936   7.753   1.223   0.635  2.1988  0.0058  0.0128
34632SOL     OW 7937   6.603   0.149   4.880 -0.3806  0.0916  0.7663
34632SOL    HW1 7938   6.551   0.103   4.815  1.4378 -2.9177  1.2623
34632SOL    HW2 7939   6.581   0.107   4.964  0.3226  1.0898  1.4771
34633SOL     OW 7940   7.799   1.089   0.318 -0.0917 -0.2642  0.0221
34633SOL    HW1 7941   7.727   1.153   0.322 -0.5293 -0.7163 -0.5466
34633SOL    HW2 7942   7.853   1.110   0.394  0.4505  1.5955 -0.8149
34634SOL     OW 7943   6.548   3.049   3.532 -0.4896  0.1347 -0.3417
34634SOL    HW1 7944   6.582   3.081   3.449 -0.9319 -0.8397 -0.9119
34634SOL    HW2 7945   6.568   2.956   3.532 -0.1370  0.1935  0.8305
34635SOL     OW 7946   1.565   1.406   4.497 -0.4557 -0.3165  0.5633
34635SOL    HW1 7947   1.521   1.330   4.535  0.5951 -1.6700 -0.7790
34635SOL    HW2 7948   1.594   1.376   4.411  3.5708  0.2403  1.5369
34636SOL     OW 7949   8.130   2.468   6.063 -0.6371 -0.4617 -0.1417
34636SOL    HW1 7950   8.106   2.382   6.096 -2.5603 -0.5569 -1.6315
34636SOL    HW2 7951   8.048   2.508   6.035  0.2959  1.5665 -0.1931
34637SOL     OW 7952   2.926   3.605   9.752  0.1988  0.1267  0.2469
34637SOL    HW1 7953   2.842   3.561   9.744  0.8477 -1.1069  0.0131
34637SOL    HW2 7954   2.989   3.535   9.771  1.3400  0.8841 -0.5902
34638SOL     OW 7955   0.357   5.155   7.873 -0.1903 -0.5723 -0.2564
34638SOL    HW1 7956   0.268   5.190   7.866 -0.3168 -1.0809 -1.5754
34638SOL    HW2 7957   0.349   5.081   7.933 -0.3075  0.3893  0.9512
34639SOL     OW 7958   8.055   9.170   3.742 -0.0761 -0.1905  0.1611
34639SOL    HW1 7959   8.058   9.249   3.796  0.5592 -1.0458  1.4289
34639SOL    HW2 7960   7.972   9.127   3.765  0.2460 -0.6135  0.5425
34640SOL     OW 7961   9.119   3.528   1.611 -0.1889 -0.6386 -0.2680
34640SOL    HW1 7962   9.104   3.622   1.617 -3.2530 -0.9506 -1.3041
34640SOL    HW2 7963   9.119   3.498   1.702  1.2672  0.3477  0.1017
34641SOL     OW 7964   1.173   6.879   7.090  0.5707 -0.7810 -0.4976
34641SOL    HW1 7965   1.096   6.850   7.041 -0.5525  1.8492 -0.4476
34641SOL    HW2 7966   1.247   6.860   7.032 -0.4658 -0.2563 -2.0593
34642SOL     OW 7967   3.542   1.477   3.557 -0.1990  0.0386 -0.0934
34642SOL    HW1 7968   3.562   1.555   3.607  0.2282 -1.5509  2.3785
34642SOL    HW2 7969   3.623   1.427   3.555 -1.1201 -1.5678  0.7531
34643SOL     OW 7970   1.368  10.274   6.823  0.5172  0.2961  0.0492
34643SOL    HW1 7971   1.441  10.309   6.772  1.3910 -0.1180  0.9782
34643SOL    HW2 7972   1.375  10.317   6.908 -1.3301  1.4925 -0.3482
34644SOL     OW 7973   7.707   8.331  10.093 -0.3107  0.4353  0.1156
34644SOL    HW1 7974   7.799   8.355  10.082 -0.2218  1.1810  1.9990
34644SOL    HW2 7975   7.661   8.415  10.098 -0.8128  0.1211  1.1032
34645SOL     OW 7976   7.656   8.417   8.201  0.6544 -0.0815  0.3450
34645SOL    HW1 7977   7.636   8.340   8.148  0.0409 -0.9883  1.8347
34645SOL    HW2 7978   7.624   8.395   8.289  1.3497  1.4900  1.0325
34646SOL     OW 7979   1.566   0.936   4.508 -0.3782 -0.0164  0.0880
34646SOL    HW1 7980   1.638   0.998   4.502 -0.2893 -0.0852  0.4203
34646SOL    HW2 7981   1.603   0.853   4.478 -1.4759  0.7935 -4.2651
34647SOL     OW 7982  10.297   1.948   0.594  0.2137  0.4144  0.1471
34647SOL    HW1 7983  10.242   1.931   0.671  2.1000 -1.6456  1.1476
34647SOL    HW2 7984  10.239   1.935   0.519 -1.5406  1.9597  1.1653
34648SOL     OW 7985   2.010   6.427   9.439  0.0438 -0.3979  0.3177
34648SOL    HW1 7986   2.100   6.431   9.407  0.9749 -0.7346  2.6743
34648SOL    HW2 7987   2.018   6.403   9.532 -2.5282 -1.3828  0.3747
34649SOL     OW 7988   0.550   2.475   6.170  0.1896  0.3259 -0.5966
34649SOL    HW1 7989   0.498   2.528   6.110  1.3932  2.1470 -0.1280
34649SOL    HW2 7990   0.587   2.538   6.232  1.7244 -1.0728 -0.0086
34650SOL     OW 7991   4.241   3.184   5.707 -0.1243  0.4349 -0.0618
34650SOL    HW1 7992   4.244   3.116   5.640 -1.5543  0.9737 -0.7066
34650SOL    HW2 7993   4.267   3.139   5.788  0.9272 -0.3774 -0.8268
34651SOL     OW 7994   8.037   4.255   8.917  0.0097 -0.1292 -0.1322
34651SOL    HW1 7995   7.981   4.321   8.876 -1.5462 -2.2061 -1.5713
34651SOL    HW2 7996   7.998   4.239   9.002 -2.6075 -2.5298 -1.6320
34652SOL     OW 7997   4.596   0.883   5.102  0.2882  0.4954 -0.4389
34652SOL    HW1 7998   4.578   0.960   5.155  1.6344  0.7228 -0.2802
34652SOL    HW2 7999   4.522   0.824   5.119 -0.8622  1.8121 -0.7302
34653SOL     OW 8000   3.038   1.359   2.691 -0.0854  0.4109 -0.4749
34653SOL    HW1 8001   2.965   1.416   2.716 -0.8463 -0.6417 -0.2225
34653SOL    HW2 8002   3.055   1.308   2.770 -0.4039 -0.7324 -1.1275
34654SOL     OW 8003   2.358   0.905   1.070  0.6032  0.3191  0.1973
34654SOL    HW1 8004   2.332   0.857   1.148  0.2498  0.7216  0.3315
34654SOL    HW2 8005   2.277   0.924   1.024  0.7512  0.6265  0.0549
34655SOL     OW 8006   7.103   9.334   1.107  0.5098  0.5245 -0.2814
34655SOL    HW1 8007   7.091   9.266   1.173 -0.6303  0.5246 -0.4718
34655SOL    HW2 8008   7.052   9.409   1.139  1.3938  1.1535 -0.2885
34656SOL     OW 8009   0.446  10.153   6.961 -0.4628  0.0418  0.2321
34656SOL    HW1 8010   0.468  10.162   6.869  0.3034 -2.2955  0.1328
34656SOL    HW2 8011   0.354  10.127   6.962 -0.7392  0.9940  0.1918
34657SOL     OW 8012   2.693   9.375   7.655  0.1831 -0.1104  0.3574
34657SOL    HW1 8013   2.698   9.334   7.742  2.0310  0.7270  0.6851
34657SOL    HW2 8014   2.736   9.459   7.666 -1.2679  0.8506 -0.9404
34658SOL     OW 8015   0.972   7.291   2.117 -0.1874  0.1407  0.0795
34658SOL    HW1 8016   1.067   7.278   2.119 -0.1264  0.3104 -1.1308
34658SOL    HW2 8017   0.958   7.360   2.052 -1.2588 -1.1216 -1.0869
34659SOL     OW 8018   1.415  10.252   5.831  0.2986 -0.1000 -0.0431
34659SOL    HW1 8019   1.462  10.174   5.801  0.5956  0.5142 -1.2688
34659SOL    HW2 8020   1.405  10.305   5.752  0.0862  1.0986  0.7643
34660SOL     OW 8021   8.926   0.520   2.780 -0.0570 -0.3998 -0.7308
34660SOL    HW1 8022   8.867   0.512   2.855 -1.5173  0.4607 -1.7519
34660SOL    HW2 8023   8.884   0.470   2.710  2.1978 -2.8022 -0.5500
34661SOL     OW 8024   9.791   0.040   1.804 -0.0953 -0.5140  0.0793
34661SOL    HW1 8025   9.781   0.078   1.891 -0.8150 -1.7734  0.5662
34661SOL    HW2 8026   9.705   0.052   1.762  1.1074  3.2112 -1.8470
34662SOL     OW 8027   7.970   3.017   9.975  0.2112 -0.0228  0.1178
34662SOL    HW1 8028   8.007   3.104   9.987 -0.1231  0.5422 -2.3643
34662SOL    HW2 8029   7.895   3.014  10.034  0.0329  1.5197  0.0050
34663SOL     OW 8030   1.575   6.607   9.682 -0.8044 -0.4091  0.0616
34663SOL    HW1 8031   1.570   6.568   9.594  1.3448 -1.1904  0.2238
34663SOL    HW2 8032   1.610   6.538   9.737 -1.3585  0.3311  1.3947
34664SOL     OW 8033   6.339   6.881   2.983 -0.1482  0.2092  0.3169
34664SOL    HW1 8034   6.407   6.946   2.995 -0.4148  0.4958  0.2807
34664SOL    HW2 8035   6.369   6.805   3.034  0.4734  0.1216 -0.1732
34665SOL     OW 8036   0.062   5.353   7.341 -0.2517  0.5467 -0.0601
34665SOL    HW1 8037   0.063   5.408   7.263 -2.6134  0.8006  0.0173
34665SOL    HW2 8038   0.100   5.270   7.312 -2.5845  0.0484 -2.0049
34666SOL     OW 8039   3.435   9.036   3.924  0.3118  0.1640  0.1322
34666SOL    HW1 8040   3.444   9.116   3.977 -0.8620  0.5053 -0.1512
34666SOL    HW2 8041   3.401   9.067   3.840 -0.3869 -0.6580  0.0999
34667SOL     OW 8042   7.678   6.131   0.356  0.2898  0.3667 -0.1732
34667SOL    HW1 8043   7.753   6.072   0.360  1.0643  1.0892 -2.4534
34667SOL    HW2 8044   7.716   6.219   0.366 -0.5796  0.6458  1.0105
34668SOL     OW 8045   8.699   0.310   4.043 -0.4277 -1.2480  1.0519
34668SOL    HW1 8046   8.682   0.376   4.110  0.1112  2.0336 -1.7680
34668SOL    HW2 8047   8.612   0.287   4.011 -0.6975  2.5236 -1.6497
34669SOL     OW 8048   9.788   8.177   3.265 -0.7588 -0.0527  0.3568
34669SOL    HW1 8049   9.881   8.155   3.265 -0.3938  1.2167 -1.6000
34669SOL    HW2 8050   9.746   8.105   3.220 -0.1835  0.9479 -1.9387
34670SOL     OW 8051   1.607   8.655   3.605  0.0200  0.3007 -0.1035
34670SOL    HW1 8052   1.585   8.570   3.643 -0.8087  1.0605  1.1880
34670SOL    HW2 8053   1.535   8.712   3.630  0.0987  1.1778 -1.7466
34671SOL     OW 8054   8.491   1.926   0.457  0.0022 -0.2513 -0.4854
34671SOL    HW1 8055   8.428   1.886   0.517 -0.5981 -0.7504 -1.4213
34671SOL    HW2 8056   8.444   1.933   0.374 -0.3864  3.5277 -0.1398
34672SOL     OW 8057   1.328   1.960   1.251 -0.0471 -0.2483 -0.3740
34672SOL    HW1 8058   1.267   1.914   1.307  0.2325 -1.2137 -0.8490
34672SOL    HW2 8059   1.386   1.892   1.216  1.0539  0.5830 -0.2481
34673SOL     OW 8060   6.438   0.630   0.928  0.0451  0.1003 -1.0045
34673SOL    HW1 8061   6.469   0.720   0.918 -0.3612  0.1885 -1.5535
34673SOL    HW2 8062   6.350   0.631   0.891 -0.3291 -0.3164 -0.1510
34674SOL     OW 8063   5.275   0.132   0.123 -0.7745 -0.2506  0.4454
34674SOL    HW1 8064   5.222   0.177   0.189 -1.1670 -1.5401  1.0626
34674SOL    HW2 8065   5.218   0.128   0.045 -0.2324  1.4548 -0.0651
34675SOL     OW 8066   8.500   0.582   2.108 -0.3198 -0.0445 -0.2988
34675SOL    HW1 8067   8.559   0.508   2.095 -1.2791 -1.1828  1.4028
34675SOL    HW2 8068   8.507   0.602   2.201 -0.3110  1.8394 -0.6690
34676SOL     OW 8069   6.680   2.576   5.902  0.0524  0.2251 -0.2285
34676SOL    HW1 8070   6.652   2.533   5.821 -0.6706  0.5613 -0.1667
34676SOL    HW2 8071   6.776   2.569   5.902  0.3740  2.8938 -2.6436
34677SOL     OW 8072   5.652   7.982   3.660  0.2821 -0.2796 -0.1868
34677SOL    HW1 8073   5.566   7.991   3.619  0.5901  1.0703 -0.5695
34677SOL    HW2 8074   5.653   7.892   3.695 -1.4887 -0.1222  0.3360
34678SOL     OW 8075   3.122   6.552   2.240 -0.1711  0.9402 -0.2219
34678SOL    HW1 8076   3.119   6.598   2.156  1.1613 -0.8361 -1.3102
34678SOL    HW2 8077   3.215   6.548   2.262 -0.4580  0.8635  1.0516
34679SOL     OW 8078   2.559   1.036   6.606  0.1219 -0.4574 -0.4233
34679SOL    HW1 8079   2.613   0.958   6.618 -0.3534 -0.9096 -1.1969
34679SOL    HW2 8080   2.567   1.058   6.513  1.4634  1.3248  0.0416
34680SOL     OW 8081   8.398   9.568   0.799  0.1298  0.1954  0.5426
34680SOL    HW1 8082   8.427   9.606   0.716  0.3554  2.0072  1.4073
34680SOL    HW2 8083   8.312   9.608   0.815  1.2185  1.9651  2.4285
34681SOL     OW 8084   6.208  10.183   2.340 -0.1928 -0.2155  0.6105
34681SOL    HW1 8085   6.214  10.167   2.245 -2.0359 -1.2413  0.6177
34681SOL    HW2 8086   6.278  10.245   2.358 -0.1824  0.4906 -1.5421
34682SOL     OW 8087   2.724   4.947  10.119 -0.5116 -0.5566 -0.0479
34682SOL    HW1 8088   2.668   5.024  10.125 -2.2279 -1.8008  0.6686
34682SOL    HW2 8089   2.810   4.978  10.146 -1.5077  0.7556  1.8730
34683SOL     OW 8090   2.260   3.517   6.818  0.4868  0.2813  0.3290
34683SOL    HW1 8091   2.350   3.544   6.799 -0.4299  2.2076 -1.6616
34683SOL    HW2 8092   2.270   3.443   6.878  3.2958  2.4395  2.8195
34684SOL     OW 8093   4.081   2.688   8.614 -0.2755 -0.3207 -0.4917
34684SOL    HW1 8094   4.140   2.639   8.672  0.6430  0.7484 -0.4788
34684SOL    HW2 8095   4.057   2.765   8.665 -0.1467  0.2016 -1.2052
34685SOL     OW 8096   0.353   6.504   6.944  0.1473  0.2329 -0.4707
34685SOL    HW1 8097   0.320   6.539   6.861 -0.8851 -1.2814 -0.7417
34685SOL    HW2 8098   0.294   6.541   7.010  0.0419  0.2631 -0.5806
34686SOL     OW 8099   9.631   0.271  10.205  0.1271 -0.0569  0.0797
34686SOL    HW1 8100   9.606   0.180  10.219  2.2897 -0.5294  1.2160
34686SOL    HW2 8101   9.632   0.310  10.292  1.1437  0.5011 -0.1620
34687SOL     OW 8102   7.333   7.265   5.396 -0.4191 -0.2286 -0.8370
34687SOL    HW1 8103   7.349   7.203   5.324  0.4875  0.0964 -0.9270
34687SOL    HW2 8104   7.323   7.350   5.353 -1.6362 -0.2929 -0.7085
34688SOL     OW 8105   7.175   1.548   1.893 -0.0280 -0.0134 -0.3093
34688SOL    HW1 8106   7.161   1.522   1.802 -0.1467 -1.6307  0.1468
34688SOL    HW2 8107   7.132   1.480   1.945  0.7690  0.4164  0.9721
34689SOL     OW 8108   9.471   6.856   8.562  0.4121 -0.1465 -0.2361
34689SOL    HW1 8109   9.429   6.772   8.541 -0.3320  0.1480  0.0527
34689SOL    HW2 8110   9.538   6.833   8.627  1.0423 -0.6874 -1.0452
34690SOL     OW 8111   9.846   5.485   9.967  0.0798  0.4285 -0.0617
34690SOL    HW1 8112   9.853   5.574   9.931 -0.0918  0.3292 -0.3401
34690SOL    HW2 8113   9.786   5.439   9.908 -0.3683  0.3197  0.4652
34691SOL     OW 8114   5.875   1.507   6.152 -0.0813 -0.5513 -0.0187
34691SOL    HW1 8115   5.836   1.419   6.157  0.0269 -0.5735  0.4218
34691SOL    HW2 8116   5.841   1.552   6.229 -1.4028  0.3134 -1.0535
34692SOL     OW 8117   6.554   1.697   2.184 -0.2866 -0.0623 -0.0258
34692SOL    HW1 8118   6.481   1.691   2.121 -1.1123  1.5509  0.7185
34692SOL    HW2 8119   6.598   1.778   2.161 -1.0435  0.9457  1.8881
34693SOL     OW 8120   8.192   5.994   3.316 -0.0776  0.4836  0.0799
34693SOL    HW1 8121   8.125   5.925   3.317 -0.0064  0.3372 -1.7393
34693SOL    HW2 8122   8.157   6.060   3.257  1.1161  0.6803 -0.4316
34694SOL     OW 8123   8.738   5.635   2.562  0.0007 -0.3976  0.1622
34694SOL    HW1 8124   8.654   5.601   2.531  0.3624 -0.0925 -1.1976
34694SOL    HW2 8125   8.718   5.721   2.597 -0.3543 -0.5933  0.4461
34695SOL     OW 8126   5.107   8.946   5.534  0.2457 -0.2854  0.0810
34695SOL    HW1 8127   5.124   9.040   5.537  0.2315 -0.2733 -0.2189
34695SOL    HW2 8128   5.189   8.906   5.561 -0.0769 -0.1635  1.2990
34696SOL     OW 8129   2.466   3.616  10.081 -0.1410  0.2151  0.5285
34696SOL    HW1 8130   2.526   3.663  10.138 -0.7485  1.8534 -0.1334
34696SOL    HW2 8131   2.470   3.663   9.998 -1.2133 -0.5590  0.0147
34697SOL     OW 8132   0.382   0.051   6.238  0.1652 -0.5317  0.0079
34697SOL    HW1 8133   0.458   0.001   6.267  0.0812 -0.9281 -0.4562
34697SOL    HW2 8134   0.400   0.141   6.266 -0.0901 -0.9624  1.6484
34698SOL     OW 8135   0.367   4.438   6.023  0.3813 -0.1591  0.0753
34698SOL    HW1 8136   0.387   4.503   5.955 -2.1960  1.5713  0.8256
34698SOL    HW2 8137   0.367   4.354   5.976  1.0366  0.6817 -1.5171
34699SOL     OW 8138   5.990   0.046   2.869  0.5142 -0.7534 -0.0498
34699SOL    HW1 8139   6.043   0.031   2.791 -0.6463 -0.9858 -0.8151
34699SOL    HW2 8140   6.047   0.022   2.942  1.7739 -0.1163 -0.7884
34700SOL     OW 8141   2.738   3.636   0.078  0.3100  0.2706 -0.3519
34700SOL    HW1 8142   2.752   3.674   0.165  2.9593 -0.4907 -0.3746
34700SOL    HW2 8143   2.801   3.681   0.022  1.5110 -2.0341 -0.9829
34701SOL     OW 8144   5.690   7.948   0.342  0.1382  0.6846  0.3715
34701SOL    HW1 8145   5.762   7.993   0.297  0.8952 -0.1168  0.7597
34701SOL    HW2 8146   5.686   7.990   0.428  0.1550  0.7141  0.3580
34702SOL     OW 8147  10.216   9.731   5.964 -0.0771 -0.2842 -0.1701
34702SOL    HW1 8148  10.211   9.649   6.013 -0.2360  0.6643  1.4949
34702SOL    HW2 8149  10.304   9.732   5.927  0.2746 -0.7716  0.6259
34703SOL     OW 8150   0.910   5.286   9.286 -0.0588  0.0880  0.5630
34703SOL    HW1 8151   0.930   5.251   9.373 -2.1577  0.1102  1.1074
34703SOL    HW2 8152   0.890   5.208   9.234 -0.4992  0.1761  0.5943
34704SOL     OW 8153   4.295   0.282   2.069 -0.3703 -0.1396  0.3741
34704SOL    HW1 8154   4.390   0.269   2.066 -0.1584  1.1446  0.8473
34704SOL    HW2 8155   4.271   0.265   2.160 -0.8127 -1.6893 -0.0039
34705SOL     OW 8156   6.986   4.493   6.783  0.2718 -0.1024 -0.2659
34705SOL    HW1 8157   7.066   4.467   6.829  0.0176  0.1694  0.3408
34705SOL    HW2 8158   7.002   4.583   6.756  0.3588 -0.2099 -0.5792
34706SOL     OW 8159   5.984   3.346   2.464  0.0467  0.1862 -0.2271
34706SOL    HW1 8160   5.897   3.385   2.477 -0.2449  0.0015 -1.5706
34706SOL    HW2 8161   6.001   3.299   2.546 -0.9824  0.4865  0.1752
34707SOL     OW 8162   9.043   7.958   0.798 -0.3046 -0.0624 -0.2035
34707SOL    HW1 8163   9.127   7.999   0.779 -0.0686 -0.9360 -1.1716
34707SOL    HW2 8164   8.983   7.997   0.734 -0.5933  0.3927  0.3367
34708SOL     OW 8165   5.568   8.756   1.752 -0.0574  0.2296 -0.3351
34708SOL    HW1 8166   5.521   8.695   1.810 -0.8107 -0.0364 -1.1914
34708SOL    HW2 8167   5.533   8.842   1.775  0.7028  0.2945  0.5917
34709SOL     OW 8168   0.506   2.482   1.276  0.4266  0.1561  0.1897
34709SOL    HW1 8169   0.414   2.477   1.302  0.7255 -1.6682  1.0512
34709SOL    HW2 8170   0.554   2.485   1.358  1.2029 -0.9471 -0.1924
34710SOL     OW 8171   2.729   6.785   7.378 -0.2515  0.0122  0.1523
34710SOL    HW1 8172   2.671   6.858   7.396 -0.1707  0.3103 -0.7603
34710SOL    HW2 8173   2.702   6.753   7.292  0.4012 -0.3572  0.0780
34711SOL     OW 8174   8.755   4.995   4.878 -0.2682  0.0911  0.1007
34711SOL    HW1 8175   8.816   4.986   4.804  2.6434  1.3696  2.1414
34711SOL    HW2 8176   8.757   4.910   4.921  0.0105  0.1017  0.1105
34712SOL     OW 8177   8.966   1.301   4.189  0.6127  0.2341 -0.0568
34712SOL    HW1 8178   8.956   1.304   4.094  2.2475  1.1182 -0.2339
34712SOL    HW2 8179   8.911   1.374   4.220  0.4520  0.2443 -0.3559
34713SOL     OW 8180   7.687   4.946   2.522 -0.1461  0.2110  0.4466
34713SOL    HW1 8181   7.750   5.018   2.531 -2.0299  2.0128  0.0918
34713SOL    HW2 8182   7.711   4.902   2.441 -0.4607  2.1243 -0.7548
34714SOL     OW 8183   3.787   9.686   4.791  0.5112  0.1857 -0.0912
34714SOL    HW1 8184   3.708   9.730   4.760  0.8396  2.2587  1.7667
34714SOL    HW2 8185   3.840   9.756   4.829  2.0338 -1.5489  1.1635
34715SOL     OW 8186   7.112   5.146   3.659  0.1827  0.0219  0.4092
34715SOL    HW1 8187   7.024   5.113   3.680  0.2021 -0.1846  0.1727
34715SOL    HW2 8188   7.104   5.180   3.570  0.7795 -1.6584 -0.3344
34716SOL     OW 8189   8.781   9.532   7.283  0.3070  0.6136  0.2311
34716SOL    HW1 8190   8.772   9.461   7.220  0.8493  0.1789  0.6373
34716SOL    HW2 8191   8.709   9.519   7.345 -0.6424  1.4392 -0.6651
34717SOL     OW 8192   1.051   4.961   1.559  0.4738  0.2422  0.3969
34717SOL    HW1 8193   1.061   4.933   1.650  1.3536  0.2351  0.3093
34717SOL    HW2 8194   0.959   4.987   1.552  0.5979  1.0891  1.5289
34718SOL     OW 8195   9.909   6.826   6.368  0.3487  0.3183 -0.0379
34718SOL    HW1 8196   9.957   6.797   6.446  0.7823 -0.1060 -0.4561
34718SOL    HW2 8197   9.823   6.786   6.377  0.4965  0.0237  0.0714
34719SOL     OW 8198   5.163   7.859   0.027 -0.2924 -0.6198  0.4498
34719SOL    HW1 8199   5.195   7.882   0.114 -1.2521  0.3307  0.5731
34719SOL    HW2 8200   5.229   7.892  -0.033  1.1176 -2.5576  0.8259
34720NA      NA 8201   2.217   8.952   4.774 -0.0918  0.1898  0.6097
34721NA      NA 8202   2.098   0.554   0.814  0.5137 -0.0910  0.2656
34722NA      NA 8203   2.409   7.865   2.222  0.1117  0.3467  0.3167
34723NA      NA 8204   9.325   1.675   8.567  0.0914 -0.1604 -0.3467
34724NA      NA 8205   2.335   0.536   4.788 -0.1826  0.0448  0.1007
34725NA      NA 8206   0.187   0.154   2.473 -0.3604 -0.3946 -0.0752
34726NA      NA 8207   8.534   4.929  10.231  0.4155  0.1078  0.5888
34727NA      NA 8208   5.570  10.172   4.460  0.1688 -0.0699  0.4652
34728NA      NA 8209   6.528   8.303   0.412 -0.0114 -0.2954 -0.7643
34729NA      NA 8210   9.154   6.826   0.630  0.1428  0.1665 -0.4525
34730NA      NA 8211   7.431   6.566   1.005 -0.2360 -0.4155 -0.0521
34731NA      NA 8212   5.034   3.063   1.712  0.0572 -0.2176  0.3019
34732NA      NA 8213   0.153   1.001   6.950  0.5135 -0.2880  0.3312
34733NA      NA 8214   4.658   4.697   1.983  0.1987  0.2358 -0.0512
34734NA      NA 8215   8.165   2.100   0.977 -0.2199  0.0658  0.1009
34735NA      NA 8216  10.206   9.457   4.491  0.1790 -0.2980 -0.3674
34736NA      NA 8217   7.468   9.397   4.560  0.1955  0.0422 -0.1512
34737NA      NA 8218   9.714   7.571   5.370  0.2660 -0.0165  0.1206
34738NA      NA 8219   5.704   7.160  10.256  0.0239 -0.1983  0.4213
34739NA      NA 8220   5.894   9.966   2.606  0.1516  0.3962 -0.4269
34740NA      NA 8221   3.874   0.079   0.138 -0.7646  0.5573 -0.6847
34741NA      NA 8222   1.558   1.615   0.199 -0.3469 -0.6986 -0.2322
34742NA      NA 8223   9.278   9.180   3.545 -0.0459  0.4257  0.3406
34743NA      NA 8224   3.694   0.981   2.576 -0.1086 -0.1368 -1.2778
34744NA      NA 8225   4.540   8.409   8.250  0.2247  0.1234 -0.5454
34745NA      NA 8226   8.421   9.349   7.759  0.5388  0.5329 -0.5512
34746NA      NA 8227   2.005   0.776   2.630 -0.1848 -0.0495 -0.2120
34747NA      NA 8228   0.084   9.296   1.852  0.2100 -0.0745  0.2586
34748NA      NA 8229   6.730   0.533   8.497  0.0400 -0.1563  0.0073
34749NA      NA 8230   5.068   3.873   0.356 -0.4771 -0.1830 -0.0191
34750NA      NA 8231   3.279   3.959   1.245 -0.0590 -0.0172 -0.2062
34751NA      NA 8232   9.342   0.630   5.532  0.4136 -0.2416  0.2857
34752NA      NA 8233   6.775   8.987   2.312  0.5342 -0.0387  0.1423
34753NA      NA 8234   0.361   1.575   9.719  0.4507 -0.5005 -0.1732
34754NA      NA 8235   9.251   8.190   1.661 -0.5222 -0.3226  0.5181
34755NA      NA 8236  10.084   5.934   8.908  0.2245 -0.0187  0.1480
34756NA      NA 8237   1.906   1.266   8.275 -0.1914  1.0553 -0.4370
34757NA      NA 8238   9.681   1.295   1.722  0.4882  0.2484 -0.7626
34758NA      NA 8239   1.880   6.246   3.873 -0.2891 -0.2296 -0.5309
34759NA      NA 8240   8.400   8.253   5.847  0.3431 -0.5545  0.1272
34760NA      NA 8241   5.666   7.765   2.036 -0.3918  0.3456  0.0668
34761NA      NA 8242   0.907   0.581   3.438  0.0607 -0.4684 -0.3214
34762NA      NA 8243   9.448   3.004   1.348  0.2833  0.1556 -0.2248
34763NA      NA 8244   9.100   0.257   7.144  0.0215 -0.1324 -0.3463
34764NA      NA 8245   2.976   9.395   1.651 -0.0396 -0.0942  0.3224
34765NA      NA 8246   3.278   7.135   8.211 -0.1057 -0.0581  0.3223
34766NA      NA 8247   1.595   8.236   8.841  0.6323 -0.2524 -0.3597
34767NA      NA 8248   1.387   0.887   4.149 -0.1456  0.1547 -0.7778
34768NA      NA 8249   8.176   6.840   4.071  0.3913 -0.3113  0.5061
34769NA      NA 8250   8.751   0.879   6.169  0.1186  0.1595  0.2431
34770NA      NA 8251   2.332   2.989   0.713 -0.1174 -0.7184 -0.1951
34771NA      NA 8252   0.312   1.369   1.273 -0.1544  0.1169 -0.3578
34772NA      NA 8253   9.422  10.068   5.734 -0.1346 -0.5476  0.1921
34773NA      NA 8254   7.383   2.926   0.368  0.5001  0.4287 -0.8304
34774NA      NA 8255   7.516   9.979   7.442  0.1067 -0.1183  0.3318
34775NA      NA 8256   4.633   2.409  10.106 -0.1787  0.3082  0.0543
34776NA      NA 8257   2.536   4.618   0.007 -0.4964  0.1433 -0.2957
34777NA      NA 8258   8.133   7.486   9.856 -0.1720  0.1330 -0.3593
34778NA      NA 8259   2.390   8.750   9.243  0.0822  0.2766 -0.0202
34779NA      NA 8260   3.546   9.561   8.549  0.0890  0.1090 -0.0543
34780NA      NA 8261   0.973   7.676   3.690 -0.6611  0.0759  0.0774
34781NA      NA 8262   8.903   3.346   1.977 -0.2719 -0.3231 -0.0974
34782NA      NA 8263   9.221   7.319   3.525  0.1532 -0.6132 -0.1302
34783NA      NA 8264   4.819   1.576   1.638 -0.1192  0.2649  0.3784
34784NA      NA 8265   5.306   6.141   1.021 -0.1010 -0.0239  0.3778
34785NA      NA 8266   3.039   3.903   1.486 -0.1794 -0.0017  0.0180
34786NA      NA 8267   8.424   4.032   2.794  0.0591  0.0864  0.3791
34787NA      NA 8268   1.169   9.083   8.153  0.0672  0.6090  0.0524
34788NA      NA 8269   7.419   2.264   2.325 -0.3295 -0.0323 -0.1194
34789NA      NA 8270   8.288   3.592   9.674  0.2663  0.0908  0.3752
34790NA      NA 8271   6.300   8.730   6.272 -0.1653 -0.7381 -0.2447
34791NA      NA 8272   6.321   0.417   9.957 -0.3293 -0.6484 -0.5191
34792NA      NA 8273   8.835   0.379   0.573 -0.0333 -0.2489  0.0490
34793NA      NA 8274   8.957   6.663   7.429 -0.1001  0.0402  0.6361
34794NA      NA 8275   6.442   2.091   3.853 -0.0513 -0.2130 -0.2671
34795NA      NA 8276   2.525   8.748   6.674  0.0852  0.0262 -0.3462
34796NA      NA 8277   0.590   6.532   9.374 -0.7385  0.2663  0.4153
34797NA      NA 8278   2.725   9.924   3.735 -0.1637 -0.0830  0.3401
34798NA      NA 8279   6.808   0.444   4.524  0.0397  0.0404 -0.3851
34799NA      NA 8280  10.071   5.255   9.935 -0.1209 -0.3784 -0.0405
34800NA      NA 8281   9.488   7.431   9.733  0.0180 -0.3954  0.3268
34801NA      NA 8282   5.218   9.419   6.648 -0.3020  0.4397  0.0080
34802NA      NA 8283   1.388   5.356   8.552  0.4138  0.2150  0.3854
34803NA      NA 8284   6.720   9.291   0.782 -0.1946  0.1230  0.2022
34804NA      NA 8285   7.227   0.840   2.396 -0.1305 -0.1131  0.2068
34805NA      NA 8286   5.465   2.019   2.083 -0.4053 -0.3561  0.2886
34806NA      NA 8287   0.769   8.301   2.497  0.6679 -0.1419 -0.4251
34807NA      NA 8288   8.278   0.659   6.974  0.1352 -0.0368 -0.1962
34808NA      NA 8289   5.667   4.742   0.825  0.7692 -0.3741  0.4202
34809NA      NA 8290   0.207   9.288   2.947 -0.3024  0.0851 -0.0196
34810NA      NA 8291   7.320   9.004   3.502 -0.0309  0.6308 -0.2283
34811NA      NA 8292   7.884   8.403   3.778  0.1465 -0.6307  0.1401
34812NA      NA 8293   2.207   9.848   9.380 -0.8217 -0.2776  0.5839
34813NA      NA 8294   3.227   9.470   2.369 -0.8023  0.3255  0.4681
34814NA      NA 8295   7.516   5.231   0.375 -0.2476  0.2647 -0.1642
34815NA      NA 8296   7.063   0.336   2.819  0.0102 -0.5276  0.0576
34816NA      NA 8297   2.296   2.870   0.135 -0.2435  0.3587 -0.0912
34817NA      NA 8298   3.005   8.054   1.376  0.3916 -0.1938  0.0766
34818NA      NA 8299   5.645   7.543   1.202 -0.4496  0.1216  0.1458
34819NA      NA 8300   1.780   7.706   8.441 -0.4763 -0.0908  0.1471
34820NA      NA 8301   3.586   4.994  10.108  0.6529  0.6018  0.0422
34821CL      CL 8302   2.411   1.774   4.685 -0.2983 -0.0061  0.2452
34822CL      CL 8303   5.705   3.877   4.441  0.2862 -0.0886  0.5916
34823CL      CL 8304   4.896   3.046   4.575 -0.5940  0.0414 -0.1491
34824CL      CL 8305   6.511  10.029   4.700  0.0538  0.0245  0.1374
34825CL      CL 8306   3.340   6.331   6.540  0.1831 -0.3370 -0.2247
34826CL      CL 8307   2.287   3.666   7.453 -0.5734  0.1461 -0.0253
34827CL      CL 8308   2.311   6.184   9.722  0.6731  0.0091 -0.2324
34828CL      CL 8309   2.940   6.798   8.135 -0.1385 -0.0557  0.0900
34829CL      CL 8310   4.064   6.994   9.239  0.1262 -0.0257 -0.1617
34830CL      CL 8311   4.583   9.352   1.151 -0.1773 -0.3242  0.3183
34831CL      CL 8312   5.298   7.505   9.237 -0.0855 -0.0558  0.1194
34832CL      CL 8313   6.413   4.402   5.731 -0.0802  0.1816  0.0645
34833CL      CL 8314   2.975   7.466   8.335  0.2915  0.4380 -0.2198
34834CL      CL 8315   3.169   4.917   0.408 -0.0539 -0.0408  0.1162
34835CL      CL 8316   3.140   3.283   7.368  0.1327 -0.3652 -0.2352
34836CL      CL 8317   2.076   4.356   9.775 -0.0122 -0.3636 -0.2887
34837CL      CL 8318   4.385   9.091   9.448 -0.0619 -0.0083  0.1185
34838CL      CL 8319   1.037   6.593   3.929  0.2098 -0.3479  0.3888
34839CL      CL 8320   7.206   4.196   8.171 -0.3150 -0.1845  0.1575
34840CL      CL 8321   6.735   6.145   2.707 -0.1799  0.4877 -0.4597
34841CL      CL 8322   6.914   4.875   7.649  0.3060 -0.1362  0.2439
34842CL      CL 8323   3.496   1.139   5.032 -0.2954  0.2013  0.2268
34843CL      CL 8324   3.797   0.841   0.376 -0.4231  0.1555  0.3668
34844CL      CL 8325   7.069   5.082   8.821  0.0119 -0.4194  0.3056
34845CL      CL 8326   2.841   6.842   3.470 -0.0794 -0.3569 -0.1909
34846CL      CL 8327   5.554   3.405   4.553  0.0435  0.0150  0.0361
34847CL      CL 8328   4.806   5.736   6.972  0.0735  0.2473  0.3758
34848CL      CL 8329   2.806   3.833   7.367 -0.0256 -0.1571 -0.0487
34849CL      CL 8330   6.102   5.039   0.925 -0.2013  0.1154  0.1335
34850CL      CL 8331   0.291   4.691   3.058 -0.0657 -0.0693 -0.0062
34851CL      CL 8332   2.586   7.483   6.908  0.5271  0.2197 -0.0403
34852CL      CL 8333   1.083   1.917   9.532 -0.1441 -0.0666 -0.2279
34853CL      CL 8334   3.749   6.185   3.748  0.1261 -0.3250  0.5386
34854CL      CL 8335   4.410   6.700   2.242 -0.1445 -0.0918 -0.1675
34855CL      CL 8336   6.687   3.907   8.777 -0.2770 -0.0133  0.1939
34856CL      CL 8337   9.046   3.233   2.868  0.3788  0.1420  0.0392
34857CL      CL 8338   3.655  10.001   9.508 -0.2529  0.4750  0.2035
34858CL      CL 8339   8.382   2.585   5.191 -0.4125  0.2805  0.7353
34859CL      CL 8340   0.740   9.341   6.356 -0.3183 -0.0610 -0.1115
34860CL      CL 8341   2.827   6.324   8.399 -0.4125  0.0336  0.4865
34861CL      CL 8342   2.423   6.167   5.777  0.3714 -0.3557 -0.1153
34862CL      CL 8343   5.792   4.997   4.394 -0.2002  0.0637 -0.2786
34863CL      CL 8344   2.129   0.944   4.850 -0.2549  0.0527  0.0817
34864CL      CL 8345   4.403   2.175   7.858 -0.0337  0.4515 -0.1084
34865CL      CL 8346   6.101   3.964   6.067 -0.2064 -0.0962  0.0182
34866CL      CL 8347   8.482   7.487   6.465  0.1555 -0.2388 -0.4381
34867CL      CL 8348   3.524   5.219   3.285  0.3850 -0.3320  0.1891
34868CL      CL 8349   8.798   4.611   5.166  0.2210  0.0345  0.1770
34869CL      CL 8350   0.354   7.813   5.016 -0.1137 -0.1547  0.0612
34870CL      CL 8351   3.249   8.999   5.244 -0.4576  0.6173 -0.4301
34871CL      CL 8352   5.333   5.250   2.640 -0.0124 -0.2182  0.2319
34872CL      CL 8353   5.973   8.152   3.420 -0.0882  0.2459  0.0351
34873CL      CL 8354   4.480   2.005   3.883  0.1139  0.5461 -0.0263
34874CL      CL 8355   0.583   7.572   0.649 -0.3266 -0.1161  0.4142
34875CL      CL 8356   5.370   6.545   5.293 -0.2458 -0.3309 -0.1954
34876CL      CL 8357   9.865  10.050   6.865 -0.3079 -0.1407 -0.1818
34877CL      CL 8358   4.753   0.561   5.504  0.0299 -0.1065  0.2250
34878CL      CL 8359   5.221   7.851   4.681 -0.1366 -0.0309 -0.0028
34879CL      CL 8360   9.111   7.189   9.179 -0.2411 -0.0646 -0.4809
34880CL      CL 8361   4.686   8.046   5.475 -0.1021  0.4767  0.1423
34881CL      CL 8362   3.781   4.857  10.130 -0.0327  0.0235  0.0897
34882CL      CL 8363   4.407   5.853   7.328 -0.0466 -0.0268 -0.7871
34883CL      CL 8364   1.459   1.881   5.901 -0.1193 -0.0352  0.3601
34884CL      CL 8365   6.694   5.839   6.530 -0.1431  0.0616 -0.2202
34885CL      CL 8366   1.205   0.296   4.625  0.1043  0.1318 -0.2213
34886CL      CL 8367   6.211   3.292   7.962  0.7612  0.1674 -0.7061
34887CL      CL 8368   1.665   7.745   5.630 -0.3814 -0.2751 -0.1432
34888CL      CL 8369   5.839   6.085   8.432 -0.1816 -0.0518  0.4545
34889CL      CL 8370   1.302   2.210   7.177 -0.0538  0.1818  0.3466
34890CL      CL 8371   4.803   8.334   1.484 -0.1477  0.2173  0.1463
34891CL      CL 8372   3.212   3.796   4.949 -0.3070  0.0865 -0.2309
34892CL      CL 8373   6.071   3.416   9.969  0.1785  0.0725 -0.2912
34893CL      CL 8374   2.171   1.665   9.595 -0.2383 -0.2613  0.5792
34894CL      CL 8375   4.928   4.016   4.562  0.0459  0.0858  0.4130
34895CL      CL 8376   4.174   1.657   7.478 -0.0035  0.2755 -0.0203
34896CL      CL 8377   3.546  10.227   4.775 -0.1823  0.0914 -0.1983
34897CL      CL 8378   8.538   4.790  10.039 -0.2382  0.0645  0.5493
34898CL      CL 8379   7.007   2.747   4.216 -0.1088  0.2264 -0.2514
34899CL      CL 8380   1.155   1.507   6.632  0.2425 -0.0143 -0.2205
34900CL      CL 8381   9.243   4.229   6.948  0.1989  0.1352 -0.1458
34901CL      CL 8382   6.588   7.037   3.096 -0.2409  0.4925 -0.0869
34902CL      CL 8383   0.394   9.340   3.918 -0.2331  0.5764  0.1827
34903CL      CL 8384   1.850   5.518   7.379 -0.1832  0.4071  0.0949
34904CL      CL 8385   5.652   3.544   3.654  0.1510 -0.1376 -0.0054
34905CL      CL 8386   3.378   2.616   4.977 -0.2103  0.1663  0.0484
34906CL      CL 8387   5.054   6.711   3.442  0.4210  0.1925  0.1528
34907CL      CL 8388   3.375   2.747   8.489 -0.2946  0.1435 -0.3813
34908CL      CL 8389   2.932   6.152   6.578 -0.1667 -0.1985  0.1829
34909CL      CL 8390   5.479   7.345   5.935  0.0823 -0.3559 -0.0111
34910CL      CL 8391   5.226   4.143   8.507 -0.0062  0.2709  0.5703
34911CL      CL 8392   3.810   3.008   4.912  0.2197  0.0664  0.3700
34912CL      CL 8393   1.056   1.095   0.987 -0.4134  0.1102 -0.4733
34913CL      CL 8394   4.102   0.121   8.441  0.1034  0.4482  0.0343
34914CL      CL 8395   5.275   8.123   7.110 -0.1855 -0.3309 -0.0979
34915CL      CL 8396   4.378   7.308   5.085 -0.0245  0.0610 -0.1356
34916CL      CL 8397   2.480   5.201   8.948  0.3137  0.4864 -0.2472
34917CL      CL 8398   3.643   5.675   8.163  0.1903  0.4363  0.2071
34918CL      CL 8399   6.280   2.099   3.678 -0.3239  0.1303  0.0210
34919CL      CL 8400   1.093   8.722   2.509  0.1382 -0.3394  0.1210
34920CL      CL 8401   4.762   4.057   3.339  0.2790 -0.0703 -0.2265
34921CL      CL 8402   2.288   4.473   6.657 -0.2355 -0.5072 -0.1267
34922CL      CL 8403  10.238   4.116   9.107  0.3048 -0.0043  0.0343
34923CL      CL 8404   5.085   7.838   7.979 -0.2497 -0.1727 -0.1180
34924CL      CL 8405   3.484   7.189   7.726  0.0437  0.4690 -0.6110
34925CL      CL 8406   5.479   5.039   7.262  0.4099 -0.1834  0.2808
34926CL      CL 8407   3.718   7.192   6.445  0.0406 -0.1667  0.1803
34927CL      CL 8408   3.948   7.584   7.112 -0.0553  0.1816 -0.3840
34928CL      CL 8409   5.710   1.515   6.447 -0.3375  0.3044  0.3471
34929CL      CL 8410   4.638   5.474   6.491 -0.0477 -0.1288  0.1306
34930CL      CL 8411   0.037   0.624  10.161  0.3156  0.1710 -0.2698
34931CL      CL 8412   9.440   9.070   8.505  0.1675  0.3485  0.3160
34932CL      CL 8413   2.409   2.311   6.658 -0.1683 -0.2706  0.2375
34933CL      CL 8414   4.127   7.387   6.387  0.1647  0.2011  0.2084
34934CL      CL 8415   5.284   3.572   9.140  0.2598  0.5468 -0.0235
34935CL      CL 8416   4.405   5.053   8.668  0.1726 -0.1127  0.3585
34936CL      CL 8417   2.668   7.658   4.663 -0.2195  0.2847 -0.1335
34937CL      CL 8418   7.154   5.110   5.873 -0.1560 -0.1550  0.2689
34938CL      CL 8419   4.031   6.412   3.427  0.1148  0.2501  0.0151
34939CL      CL 8420   7.482   1.796   7.223 -0.1547 -0.4981  0.3291
34940CL      CL 8421   2.987   3.236   3.789 -0.0628  0.0741 -0.2787
34941CL      CL 8422   6.796   2.145   5.835  0.0994 -0.2713  0.0750
34942CL      CL 8423   7.307   9.475   4.719 -0.2100  0.0915  0.1616
34943CL      CL 8424   0.134   1.046   6.463 -0.6233 -0.0553 -0.0663
34944CL      CL 8425   0.958   5.783   7.568 -0.0627 -0.0094 -0.6537
34945CL      CL 8426   4.886   6.385   8.070 -0.3730 -0.1173  0.4005
34946CL      CL 8427   8.229   9.972   7.828  0.1335  0.3935 -0.2822
34947CL      CL 8428   3.017   6.149   2.464 -0.1518 -0.3985 -0.0234
34948CL      CL 8429   4.315   6.544   3.887  0.0568  0.1886  0.0554
34949CL      CL 8430   5.612   1.634   4.672  0.1927  0.0137  0.0651
34950CL      CL 8431   1.180   4.544   4.652  0.2711  0.1125 -0.2188
34951CL      CL 8432   7.549   4.666   6.920  0.0036 -0.1737 -0.2725
34952CL      CL 8433   2.701   6.675   7.075 -0.1064  0.3541 -0.0972
34953CL      CL 8434   3.131   9.815   7.967 -0.0094 -0.2165 -0.5767
34954CL      CL 8435   2.631   9.764   1.641  0.1274 -0.2810  0.0194
34955CL      CL 8436   9.755   1.083   2.445  0.3312  0.2976  0.1026
34956CL      CL 8437   3.909   5.772   9.618  0.0777  0.4366  0.2292
34957CL      CL 8438   4.420   5.190   3.028  0.0293 -0.0811 -0.5541
34958CL      CL 8439   8.244   8.602   4.357  0.3322  0.1056 -0.2684
34959CL      CL 8440   0.043   6.722   1.962  0.3630  0.1892 -0.0638
34960CL      CL 8441   2.263   7.721   9.949 -0.0282  0.0001 -0.0476
34961CL      CL 8442   1.315   8.673   5.374  0.1022 -0.1319  0.2298
34962CL      CL 8443   0.958   9.561   5.378 -0.0659 -0.0923 -0.5374
34963CL      CL 8444   1.811   4.053   6.269  0.1186 -0.6175 -0.0466
34964CL      CL 8445   3.307   8.213   5.620 -0.5904  0.1038  0.0835
34965CL      CL 8446   4.976   5.393   4.436  0.0779  0.2966 -0.1194
34966CL      CL 8447   0.159   5.998   6.439  0.2495  0.0222 -0.5252
34967CL      CL 8448   0.426   6.057   8.954 -0.0133  0.0077 -0.3664
34968CL      CL 8449   4.317   6.030   8.302  0.2444 -0.2870  0.2519
34969CL      CL 8450   4.099   5.932   0.879 -0.7844  0.0466 -0.0016
34970CL      CL 8451   9.427   3.957   1.634 -0.1767  0.3675  0.1123
34971CL      CL 8452   2.479   3.133   6.715  0.0843 -0.0498  0.0077
34972CL      CL 8453   5.212   8.139   5.691  0.5401 -0.0860  0.1107
34973CL      CL 8454   6.278   6.545   3.936 -0.4664  0.0035 -0.0695
34974CL      CL 8455   1.802   5.070   6.380 -0.0369  0.2730  0.4515
34975CL      CL 8456   6.723   3.362   2.192  0.1772 -0.2246  0.3508
34976CL      CL 8457   5.377   4.262   9.499 -0.0313 -0.2991 -0.1454
34977CL      CL 8458   2.175   7.695   3.908  0.0122 -0.4210  0.6832
34978CL      CL 8459   7.543   8.803   3.000  0.2364  0.4732 -0.0352
34979CL      CL 8460   3.461   6.721   5.476  0.1656 -0.2492 -0.4271
34980CL      CL 8461   5.689   3.440   2.493 -0.4030  0.4460  0.2158
34981CL      CL 8462   4.512   8.504   6.166 -0.0080  0.2650  0.0824
34982CL      CL 8463   1.375   0.715   2.630 -0.1019  0.2408  0.1537
34983CL      CL 8464   6.759   3.823   4.557 -0.1916 -0.1398  0.0237
34984CL      CL 8465   4.275   2.165   6.201  0.0127  0.2917 -0.3806
34985CL      CL 8466   3.003   5.497   9.404  0.0481  0.0263  0.1701
34986CL      CL 8467   3.532   4.951   6.172  0.2076  0.4537 -0.3166
34987CL      CL 8468   5.686  10.233   2.428 -0.1577 -0.0212 -0.1531
34988CL      CL 8469   7.962   5.384   4.584  0.2774  0.0955  0.0426
34989CL      CL 8470   2.336   7.162   7.320  0.4145  0.0224 -0.1245
34990CL      CL 8471   6.126   5.794   8.154 -0.3982 -0.3949 -0.2591
34991CL      CL 8472   5.911   7.078   4.393 -0.0068 -0.1465  0.0895
34992CL      CL 8473   4.348   1.825   1.541  0.1367 -0.0877 -0.6999
34993CL      CL 8474   6.255   5.136   1.319 -0.1272 -0.4475  0.2115
34994CL      CL 8475   6.322   2.791   4.883 -0.1398  0.2931 -0.0399
34995CL      CL 8476   6.121   3.252   7.494  0.0059  0.1202 -0.2899
34996CL      CL 8477   6.547   2.618  10.005  0.1985 -0.0327 -0.0700
34997CL      CL 8478   7.030   8.072   4.396 -0.1950 -0.2047 -0.4123
34998CL      CL 8479   4.154   8.699   0.217  0.2606  0.3462 -0.1248
34999CL      CL 8480   4.862   3.416   3.371 -0.1414  0.0172  0.3166
35000CL      CL 8481   7.107   7.025   5.743 -0.3182  0.5988  0.0713
35001CL      CL 8482   4.541   4.101   7.703 -0.7502  0.0641 -0.3720
35002CL      CL 8483   6.349   6.315   8.168 -0.1906 -0.5261  0.1931
35003CL      CL 8484   1.285   6.843   7.970  0.3957 -0.1304 -0.3075
35004CL      CL 8485   1.026   5.817   5.645  0.0603 -0.3879 -0.1696
35005CL      CL 8486   2.276   5.797   2.924 -0.4079  0.1862  0.1574
35006CL      CL 8487   0.956   5.820   2.941  0.0263  0.1813  0.7191
35007CL      CL 8488   7.081   8.702   4.165  0.1709  0.3401 -0.3024
35008CL      CL 8489   5.011   5.854   4.111  0.1624  0.2063  0.0679
35009CL      CL 8490   5.450   9.786   6.479 -0.0946 -0.0586 -0.1276
35010CL      CL 8491   0.202   5.717   7.818 -0.2319  0.1101  0.2645
35011CL      CL 8492   3.939   4.072   3.772  0.1206  0.2502 -0.0454
35012CL      CL 8493   2.573   4.714   8.064  0.0449  0.0948  0.8327
35013CL      CL 8494   4.603   8.014   8.776  0.1092  0.0240 -0.2421
35014CL      CL 8495   4.149   6.097   0.439  0.1040  0.0974 -0.0101
35015CL      CL 8496   3.742   1.287   6.835  0.1761  0.1808  0.0917
35016CL      CL 8497   2.897   4.462   1.794  0.0180 -0.0529 -0.6838
35017CL      CL 8498   7.405   6.819   6.718 -0.0904 -0.1619 -0.6613
35018CL      CL 8499   3.656   6.893   8.077  0.3941 -0.1048 -0.0305
35019CL      CL 8500   0.636   0.338   1.527 -0.2434  0.2374 -0.2780
35020CL      CL 8501   0.086   9.372   1.432  0.0467  0.1918  0.2544
35021CL      CL 8502   8.373   4.426   2.663 -0.0247  0.5536  0.0956
35022CL      CL 8503   5.965   5.136   0.143 -0.3011  0.3136 -0.2720
35023CL      CL 8504   3.655   2.387   1.886  0.0158 -0.2711  0.2019
35024CL      CL 8505   5.774   4.393   6.885  0.0303  0.0760  0.1210
35025CL      CL 8506   1.785   6.814   7.006 -0.0922  0.0613 -0.0268
35026CL      CL 8507   1.465   6.004   3.981  0.2277  0.0205 -0.4850
35027CL      CL 8508   9.314   4.846   7.755  0.1412  0.2327  0.1333
35028CL      CL 8509   7.950   9.604   0.763 -0.1356  0.1629  0.2564
35029CL      CL 8510   3.245   3.816   5.630  0.1643 -0.0840 -0.4403
35030CL      CL 8511   5.464   5.561   4.359  0.1253 -0.3601 -0.1319
35031CL      CL 8512   0.141   6.396   1.018  0.0281  0.5027  0.2486
35032CL      CL 8513   8.855   9.316   9.677 -0.3156  0.2451  0.0683
35033CL      CL 8514   2.493   9.332   4.289 -0.3789  0.4753  0.3251
35034CL      CL 8515   4.145   4.323   7.393  0.4386  0.0295 -0.4039
35035CL      CL 8516   3.646   5.416   3.928  0.4584  0.3300 -0.6176
35036CL      CL 8517   5.306   2.757   7.214 -0.2273  0.6218 -0.0117
35037CL      CL 8518   4.968   2.731   5.616 -0.0674  0.2541 -0.1893
35038CL      CL 8519   2.091   8.648   8.619  0.2545  0.1212  0.4632
35039CL      CL 8520   0.292   5.846   9.345  0.1386 -0.0710  0.2150
35040CL      CL 8521   3.620   3.808   3.581  0.2471 -0.1720  0.0312
35041CL      CL 8522   5.709   7.083   7.128 -0.1000 -0.2558 -0.1880
35042CL      CL 8523   9.473   6.605   0.846  0.0060 -0.3595  0.4669
35043CL      CL 8524   7.512   6.353   0.919 -0.0539  0.0678 -0.2435
35044CL      CL 8525   3.347   1.589   6.794 -0.1831 -0.3229  0.2070
35045CL      CL 8526   1.589   3.540   8.003  0.2207  0.1990 -0.4333
35046CL      CL 8527   1.457   6.694   8.884  0.0049  0.0952  0.0833
35047CL      CL 8528   5.860   3.793   7.160  0.4122 -0.3177 -0.2794
35048CL      CL 8529   4.267   4.256   3.437  0.3381  0.0449  0.0209
35049CL      CL 8530   2.007   4.139   6.874  0.1653 -0.2813 -0.0929
35050CL      CL 8531   5.656   7.813   4.428  0.4826  0.3019  0.0955
35051CL      CL 8532   6.126   2.351   1.827 -0.1337  0.0225  0.0362
35052CL      CL 8533   5.066   2.569   1.530 -0.1022  0.1427  0.2355
35053CL      CL 8534  10.162   4.907   4.094 -0.1272 -0.0128  0.1170
35054CL      CL 8535   6.937   5.679   5.393 -0.0912  0.2183  0.3260
35055CL      CL 8536   4.062   4.365   4.815 -0.1190  0.2029 -0.0110
35056CL      CL 8537   3.517   7.705   2.514  0.4642  0.4216 -0.2595
35057CL      CL 8538   8.732   0.331   2.198  0.3389 -0.1593  0.0972
35058CL      CL 8539   5.171   4.623   8.334  0.3729  0.1402  0.2331
35059CL      CL 8540   8.254   7.710   7.073  0.1826 -0.3509 -0.2229
35060CL      CL 8541   4.102   3.934   0.281  0.1416 -0.1276  0.0285
35061CL      CL 8542   3.850   5.958   5.122  0.0688 -0.1436 -0.1065
35062CL      CL 8543   1.193   9.662   2.844  0.0262 -0.2240 -0.1816
35063CL      CL 8544   2.672   4.172   7.987  0.3385  0.0598 -0.0529
35064CL      CL 8545   1.778   7.885   6.344 -0.2333  0.1264  0.2450
35065CL      CL 8546   1.924   3.843   5.765 -0.1601  0.1426 -0.0404
35066CL      CL 8547   7.155   0.316   8.265 -0.1472  0.4167  0.2398
35067CL      CL 8548   5.287   4.666   5.292 -0.2082  0.1582 -0.3848
35068CL      CL 8549   3.784   8.102   6.360 -0.2015 -0.1522  0.0978
35069CL      CL 8550   1.969   4.095   4.433  0.5685 -0.3751  0.2523
35070CL      CL 8551   3.378   6.810   6.724  0.0074  0.3786 -0.1343
35071CL      CL 8552   1.631   7.227   6.737 -0.1801 -0.1132  0.2771
35072CL      CL 8553   2.347   5.335   3.877 -0.1034  0.1473  0.2548
35073CL      CL 8554   2.570   4.953   3.857 -0.1082 -0.3322  0.0465
35074CL      CL 8555   2.657   8.739   6.897 -0.0897  0.0128  0.0128
35075CL      CL 8556   3.818   4.685   5.037 -0.0943 -0.2340 -0.1240
35076CL      CL 8557   8.385   2.450   3.129 -0.6788  0.1379 -0.3997
35077CL      CL 8558   7.623   2.688   9.017  0.2334  0.1142 -0.3625
35078CL      CL 8559   5.893   8.663   5.651  0.2893  0.2826  0.4388
35079CL      CL 8560   6.692   7.535   1.794 -0.0141  0.2100  0.4392
35080CL      CL 8561   7.504   0.735   9.942 -0.0457 -0.1100  0.4024
35081CL      CL 8562   5.753   6.629   3.632 -0.1432  0.2455 -0.0468
35082CL      CL 8563   7.456   4.115   5.405 -0.3279  0.2867 -0.0517
35083CL      CL 8564   3.092   5.379   4.662 -0.0367 -0.0491 -0.2453
35084CL      CL 8565   5.107   4.054   5.738 -0.4129  0.1211  0.5366
35085CL      CL 8566   4.929   6.292   5.315  0.1393 -0.0622 -0.1839
35086CL      CL 8567   1.401   4.966   7.856  0.1351  0.0684 -0.0712
35087CL      CL 8568   2.243   6.451   0.604 -0.2898 -0.7935 -0.0824
35088CL      CL 8569   4.948   4.679   1.321  0.2688  0.0255 -0.2580
35089CL      CL 8570   6.964   1.832   5.533  0.2619  0.3300 -0.3646
35090CL      CL 8571   6.232   5.087   4.920 -0.0549 -0.1809 -0.2100
35091CL      CL 8572   5.993   7.272   9.936 -0.4261  0.4309  0.0213
35092CL      CL 8573   6.542   4.212   4.814  0.2711 -0.2971 -0.2357
35093CL      CL 8574   4.051   7.979   4.537  0.1029 -0.0139  0.2965
35094CL      CL 8575   3.209   2.341   7.620  0.0452 -0.5205 -0.4371
35095CL      CL 8576   5.937   3.963   6.660 -0.6477 -0.3296  0.0475
35096CL      CL 8577   9.238   2.396   0.463  0.3698  0.0346  0.1399
35097CL      CL 8578   7.513   9.462   3.121 -0.0556  0.2877 -0.2919
35098CL      CL 8579   5.221   3.141   6.061 -0.1608  0.6828  0.4505
35099CL      CL 8580   2.506   8.519   6.595  0.0856  0.1750 -0.4567
35100CL      CL 8581   5.263   1.626   5.520 -0.5597  0.1557 -0.1330
35101CL      CL 8582   2.329   2.606   9.259 -0.4157 -0.0363  0.0963
35102CL      CL 8583   6.084   0.317   4.574  0.6395  0.0940  0.0279
35103CL      CL 8584   3.338   2.452   4.096 -0.0995  0.7640  0.0336
35104CL      CL 8585   0.312  10.264   3.445  0.5516  0.3018 -0.5461
35105CL      CL 8586   3.296   5.361   6.599  0.1883  0.1397  0.2799
35106CL      CL 8587   2.476   5.616   8.536  0.3091  0.1746  0.1028
35107CL      CL 8588   4.914   6.525   9.748  0.0917  0.4943 -0.0958
35108CL      CL 8589   4.400   8.293   3.602 -0.3314 -0.4846 -0.0239
35109CL      CL 8590   9.036   1.044   0.063 -0.6185  0.2570 -0.0751
35110CL      CL 8591   3.988   4.595   7.796 -0.1977  0.1302 -0.0283
35111CL      CL 8592   2.088   0.439  10.190 -0.1799  0.4666 -0.2718
35112CL      CL 8593   2.362   5.693   7.661  0.3139 -0.0831 -0.0481
35113CL      CL 8594   5.234   7.937   3.350 -0.0198 -0.0607  0.1751
35114CL      CL 8595   5.697   6.019   6.001 -0.0477 -0.1832 -0.2863
35115CL      CL 8596   6.523   7.176   6.690 -0.0500 -0.5890 -0.0863
35116CL      CL 8597   5.609   4.341   3.377  0.1509  0.0356  0.1614
35117CL      CL 8598   5.241   1.948   6.778 -0.0008 -0.0233  0.3096
35118CL      CL 8599   4.264   2.563   3.923 -0.4358 -0.0572 -0.0915
35119CL      CL 8600   6.903   0.291   3.682  0.3009  0.0863 -0.1805
35120CL      CL 8601   0.834   5.379   6.346  0.1890 -0.0244 -0.1071
35121CL      CL 8602   6.552   6.439   0.619 -0.0391 -0.4042 -0.1021
35122CL      CL 8603   3.922   7.386   4.036  0.0490 -0.2675  0.1822
35123CL      CL 8604   5.664   4.851   7.743 -0.1336  0.0693  0.3417
35124CL      CL 8605   8.253   0.968   9.131  0.3078 -0.2361 -0.2962
35125CL      CL 8606   4.116   8.126   2.811 -0.1500  0.0125  0.1338
35126CL      CL 8607   3.282   8.267   1.896  0.3179  0.4459 -0.1074
35127CL      CL 8608   3.986   5.556   3.609 -0.0076 -0.0009  0.2297
35128CL      CL 8609   4.008   7.568   7.753  0.2012 -0.3095  0.1418
35129CL      CL 8610   6.249   5.168   4.395 -0.1484 -0.0048  0.0128
35130CL      CL 8611   2.597   9.197   1.918 -0.0012  0.0584  0.4135
35131CL      CL 8612   5.163   5.907   2.379  0.1650 -0.3782  0.0888
35132CL      CL 8613   2.172   3.457   5.674 -0.2301  0.7606 -0.0754
35133CL      CL 8614   6.594   3.977   7.868  0.0234 -0.1455 -0.2777
35134CL      CL 8615   2.068   9.519   8.832  0.4301  0.0835  0.2212
35135CL      CL 8616   4.213   3.721   6.714  0.1947  0.0492 -0.2939
35136CL      CL 8617   8.155   8.310   5.804  0.0373 -0.1750 -0.0054
35137CL      CL 8618   8.624   0.641   6.702  0.6943 -0.4368  0.1650
35138CL      CL 8619   6.316   9.586   6.326  0.0186  0.2355 -0.4447
35139CL      CL 8620   6.517   7.663   7.321 -0.2286 -0.3885 -0.1621
35140CL      CL 8621   2.250   0.770   1.669 -0.3422  0.4636 -0.1737
35141CL      CL 8622   9.828   8.616   2.917 -0.2336 -0.0302 -0.1901
35142CL      CL 8623   4.183   8.431   7.107  0.1539 -0.1401 -0.2383
35143CL      CL 8624   6.119   6.448   7.001 -0.1166  0.0747  0.1545
35144CL      CL 8625   3.584   1.678   8.478 -0.3421 -0.2332 -0.0558
35145CL      CL 8626   8.766   5.800   6.440 -0.0681  0.0625 -0.5765
35146CL      CL 8627   5.866   8.883   6.084  0.1864  0.1030 -0.0021
35147CL      CL 8628   5.145   3.648   9.922  0.4953  0.1198 -0.0460
35148CL      CL 8629   3.810   5.053   7.620 -0.0493  0.2236  0.5144
35149CL      CL 8630   4.688   2.254   8.210  0.0149  0.2753 -0.1332
35150CL      CL 8631   4.154   3.889   5.756 -0.1423  0.0283 -0.4245
35151CL      CL 8632   1.931   4.703   4.976  0.3048 -0.0546 -0.0113
35152CL      CL 8633   6.477   9.069   0.382  0.1199 -0.1220 -0.1452
35153CL      CL 8634   3.900   2.178   5.411  0.2378  0.1525 -0.1374
35154CL      CL 8635   8.041   2.009   0.797  0.1877 -0.0364 -0.1744
35155CL      CL 8636   4.086   3.567   8.786 -0.0730  0.3727  0.3272
35156CL      CL 8637   2.982   1.095   1.975  0.1926  0.2488 -0.2819
35157CL      CL 8638   3.671   6.459   2.764 -0.2274  0.3306  0.7090
35158CL      CL 8639   9.872  10.201   8.921 -0.2843  0.0769  0.0877
35159CL      CL 8640   4.396   4.114   7.010 -0.0585 -0.0999  0.0961
35160CL      CL 8641   5.731   7.833   6.022 -0.3191  0.7209  0.0051
35161CL      CL 8642   8.504   0.438   4.848 -0.0722  0.2000  0.7372
35162CL      CL 8643   2.263   6.603   5.472  0.1623 -0.1824  0.0095
35163CL      CL 8644   1.534   4.575   7.638  0.1072  0.0962 -0.0691
35164CL      CL 8645   2.281   7.890   2.996 -0.2139 -0.2254  0.3229
35165CL      CL 8646   5.644   1.717   8.211 -0.1342  0.0989  0.2496
35166CL      CL 8647   2.467   0.126   4.661  0.4611  0.0020 -0.0239
35167CL      CL 8648   3.414   3.944   6.481  0.0742  0.0568 -0.3387
35168CL      CL 8649   6.034   8.209   2.939  0.2243 -0.0958 -0.1588
35169CL      CL 8650   3.473   4.254   7.950  0.3827  0.1759 -0.0878
35170CL      CL 8651   4.849   3.845   8.472  0.0184  0.0956 -0.2131
35171CL      CL 8652   2.420   2.672   4.546 -0.0831  0.5187 -0.0136
35172CL      CL 8653   3.063   8.937   1.587 -0.1467 -0.1252  0.0374
35173CL      CL 8654   3.546   3.477   3.266 -0.6047 -0.0745  0.0733
35174CL      CL 8655   3.778   3.069   6.850  0.3659 -0.3029  0.2839
35175CL      CL 8656   2.158   6.772   3.806  0.3161 -0.2461  0.2516
  10.29743  10.29743  10.29743
